 Entering Gaussian System, Link 0=C:\G16W\g16.exe
 Input=C:\Temp\lucio\alkinyl_linker_triplet.gjf
 Output=C:\Temp\lucio\alkinyl_linker_triplet.log
 Initial command:
 C:/G16W\l1.exe ".\Gau-19228.inp" "C:\Temp\lucio\alkinyl_linker_triplet.log" /scrdir=".\"
 Entering Link 1 = C:/G16W\l1.exe PID=     64204.
  
 Copyright (c) 1988-2019, Gaussian, Inc.  All Rights Reserved.
  
 This is part of the Gaussian(R) 16 program.  It is based on
 the Gaussian(R) 09 system (copyright 2009, Gaussian, Inc.),
 the Gaussian(R) 03 system (copyright 2003, Gaussian, Inc.),
 the Gaussian(R) 98 system (copyright 1998, Gaussian, Inc.),
 the Gaussian(R) 94 system (copyright 1995, Gaussian, Inc.),
 the Gaussian 92(TM) system (copyright 1992, Gaussian, Inc.),
 the Gaussian 90(TM) system (copyright 1990, Gaussian, Inc.),
 the Gaussian 88(TM) system (copyright 1988, Gaussian, Inc.),
 the Gaussian 86(TM) system (copyright 1986, Carnegie Mellon
 University), and the Gaussian 82(TM) system (copyright 1983,
 Carnegie Mellon University). Gaussian is a federally registered
 trademark of Gaussian, Inc.
  
 This software contains proprietary and confidential information,
 including trade secrets, belonging to Gaussian, Inc.
  
 This software is provided under written license and may be
 used, copied, transmitted, or stored only in accord with that
 written license.
  
 The following legend is applicable only to US Government
 contracts under FAR:
  
                    RESTRICTED RIGHTS LEGEND
  
 Use, reproduction and disclosure by the US Government is
 subject to restrictions as set forth in subparagraphs (a)
 and (c) of the Commercial Computer Software - Restricted
 Rights clause in FAR 52.227-19.
  
 Gaussian, Inc.
 340 Quinnipiac St., Bldg. 40, Wallingford CT 06492
  
  
 ---------------------------------------------------------------
 Warning -- This program may not be used in any manner that
 competes with the business of Gaussian, Inc. or will provide
 assistance to any competitor of Gaussian, Inc.  The licensee
 of this program is prohibited from giving any competitor of
 Gaussian, Inc. access to this program.  By using this program,
 the user acknowledges that Gaussian, Inc. is engaged in the
 business of creating and licensing software in the field of
 computational chemistry and represents and warrants to the
 licensee that it is not a competitor of Gaussian, Inc. and that
 it will not use this program in any manner prohibited above.
 ---------------------------------------------------------------
  

 Cite this work as:
 Gaussian 16, Revision C.01,
 M. J. Frisch, G. W. Trucks, H. B. Schlegel, G. E. Scuseria, 
 M. A. Robb, J. R. Cheeseman, G. Scalmani, V. Barone, 
 G. A. Petersson, H. Nakatsuji, X. Li, M. Caricato, A. V. Marenich, 
 J. Bloino, B. G. Janesko, R. Gomperts, B. Mennucci, H. P. Hratchian, 
 J. V. Ortiz, A. F. Izmaylov, J. L. Sonnenberg, D. Williams-Young, 
 F. Ding, F. Lipparini, F. Egidi, J. Goings, B. Peng, A. Petrone, 
 T. Henderson, D. Ranasinghe, V. G. Zakrzewski, J. Gao, N. Rega, 
 G. Zheng, W. Liang, M. Hada, M. Ehara, K. Toyota, R. Fukuda, 
 J. Hasegawa, M. Ishida, T. Nakajima, Y. Honda, O. Kitao, H. Nakai, 
 T. Vreven, K. Throssell, J. A. Montgomery, Jr., J. E. Peralta, 
 F. Ogliaro, M. J. Bearpark, J. J. Heyd, E. N. Brothers, K. N. Kudin, 
 V. N. Staroverov, T. A. Keith, R. Kobayashi, J. Normand, 
 K. Raghavachari, A. P. Rendell, J. C. Burant, S. S. Iyengar, 
 J. Tomasi, M. Cossi, J. M. Millam, M. Klene, C. Adamo, R. Cammi, 
 J. W. Ochterski, R. L. Martin, K. Morokuma, O. Farkas, 
 J. B. Foresman, and D. J. Fox, Gaussian, Inc., Wallingford CT, 2019.
 
 ******************************************
 Gaussian 16:  EM64W-G16RevC.01 30-May-2019
                10-Mar-2021 
 ******************************************
 %Mem=160GB
 %NProcShared=16
 Will use up to   16 processors via shared memory.
 %Chk=alkinyl_linker_triplet.chk
 ----------------------------------------------------------------------
 #p um06/cc-pVDZ guess=mix scf=(tight,novaracc,noincfock,maxcycle=128) 
 integral=(grid=ultrafine)
 ----------------------------------------------------------------------
 1/38=1,172=1/1;
 2/12=2,17=6,18=5,40=1/2;
 3/5=16,11=2,25=1,30=1,74=-54,75=-5,116=2/1,2,3;
 4/13=-1/1;
 5/5=100002,7=128,32=2,38=1/2;
 6/7=2,8=2,9=2,10=2,28=1/1;
 99/5=1,9=1/99;
 Leave Link    1 at Wed Mar 10 19:54:15 2021, MaxMem= 21474836480 cpu:               0.0 elap:               0.3
 (Enter C:/G16W\l101.exe)
 ------------------------------------
 Olav's radical, triplet state energy
 ------------------------------------
 Symbolic Z-matrix:
 Charge =  0 Multiplicity = 3
 C                     0.        0.        8.3203 
 C                     0.5173    1.09199   7.59357 
 C                    -0.5173   -1.09199   7.59357 
 C                     0.51243   1.0915    6.19811 
 C                    -0.51243  -1.0915    6.19811 
 C                     0.        0.        5.48231 
 S                    -1.16705  -2.5674    8.34401 
 S                    -1.18945  -2.52354   5.40626 
 S                     1.18945   2.52354   5.40626 
 S                     1.16705   2.5674    8.34401 
 C                    -0.58801   4.08382   6.83796 
 H                    -0.78165   4.6835    7.73947 
 H                    -0.75881   4.6905    5.93691 
 H                    -1.26481   3.21749   6.82979 
 C                     0.8674    3.602     6.85625 
 C                     1.86172   4.76866   6.85388 
 H                     2.89176   4.38999   6.86657 
 H                     1.70131   5.37999   5.95375 
 H                     1.68614   5.39459   7.741 
 C                     0.58801  -4.08382   6.83796 
 H                     0.75881  -4.6905    5.93691 
 H                     1.26481  -3.21749   6.82979 
 H                     0.78165  -4.6835    7.73947 
 C                    -0.8674   -3.602     6.85625 
 C                    -1.86172  -4.76866   6.85388 
 H                    -1.70131  -5.37999   5.95375 
 H                    -1.68614  -5.39459   7.741 
 H                    -2.89176  -4.38999   6.86657 
 C                     1.17819   0.52038   10.48541 
 C                     1.05522   1.47928   11.51085 
 C                     2.47514   0.14561   10.08295 
 C                     2.19102   2.09867   12.03979 
 S                    -0.50121   2.1193    12.06372 
 C                     3.60447   0.75305   10.64435 
 S                     2.81368  -1.17597   8.94873 
 C                     3.4701    1.74472   11.61137 
 S                     1.895     3.44681   13.15272 
 C                     0.19729   2.8979    13.5773 
 S                     5.17258   0.15069   10.07879 
 C                     4.48629  -0.54827   8.52303 
 H                     4.34795   2.24019   12.02322 
 C                    -0.65387   4.1193    13.94652 
 C                     0.25105   1.87297   14.71494 
 C                     5.35989  -1.72502   8.07217 
 C                     4.3798    0.5367    7.44462 
 H                    -1.67898   3.79062   14.17173 
 H                    -0.2326    4.59705   14.84314 
 H                    -0.66887   4.83488   13.1154 
 H                     0.85585   1.00957   14.40499 
 H                     0.70452   2.33852   15.60213 
 H                    -0.76957   1.53662   14.94943 
 H                     6.36954  -1.35674   7.83834 
 H                     5.41497  -2.4839    8.86271 
 H                     4.92791  -2.16524   7.16122 
 H                     5.3841    0.93154   7.2291 
 H                     3.94602   0.09753   6.53374 
 H                     3.72748   1.35235   7.78927 
 C                     0.        0.        9.78286 
 C                    -1.17819  -0.52038   10.48541 
 C                    -1.05522  -1.47928   11.51085 
 C                    -2.47514  -0.14561   10.08295 
 C                    -2.19102  -2.09867   12.03979 
 S                     0.50121  -2.1193    12.06372 
 C                    -3.60447  -0.75305   10.64435 
 S                    -2.81368   1.17597   8.94873 
 C                    -3.4701   -1.74472   11.61137 
 S                    -1.895    -3.44681   13.15272 
 C                    -0.19729  -2.8979    13.5773 
 S                    -5.17258  -0.15069   10.07879 
 C                    -4.48629   0.54827   8.52303 
 H                    -4.34795  -2.24019   12.02322 
 C                     0.65387  -4.1193    13.94652 
 C                    -0.25105  -1.87297   14.71494 
 C                    -5.35989   1.72502   8.07217 
 C                    -4.3798   -0.5367    7.44462 
 H                     1.67898  -3.79062   14.17173 
 H                     0.2326   -4.59705   14.84314 
 H                     0.66887  -4.83488   13.1154 
 H                    -0.85585  -1.00957   14.40499 
 H                    -0.70452  -2.33852   15.60213 
 H                     0.76957  -1.53662   14.94943 
 H                    -6.36954   1.35674   7.83834 
 H                    -5.41497   2.4839    8.86271 
 H                    -4.92791   2.16524   7.16122 
 H                    -5.3841   -0.93154   7.2291 
 H                    -3.94602  -0.09753   6.53374 
 H                    -3.72748  -1.35235   7.78927 
 C                     1.03939   0.62761   0.69081 
 C                    -1.03939  -0.62761   0.69081 
 C                     1.0401    0.62847  -0.6978 
 H                     1.84021   1.10793   1.24698 
 C                    -1.0401   -0.62847  -0.6978 
 H                    -1.84021  -1.10793   1.24698 
 H                     1.84231   1.11228  -1.25375 
 H                    -1.84231  -1.11228  -1.25375 
 C                     0.        0.       -5.49473 
 C                    -0.4355    1.12442  -6.2101 
 C                     0.4355   -1.12442  -6.2101 
 C                    -0.44305   1.12347  -7.60608 
 S                    -1.01932   2.59666  -5.41914 
 C                     0.44305  -1.12347  -7.60608 
 S                     1.01932  -2.59666  -5.41914 
 C                     0.        0.       -8.33119 
 S                    -1.00107   2.63363  -8.35939 
 C                    -0.64115   3.65179  -6.87339 
 S                     1.00107  -2.63363  -8.35939 
 C                     0.64115  -3.65179  -6.87339 
 C                     0.        0.       -9.79659 
 C                     0.83854   4.05253  -6.85905 
 C                    -1.56862   4.87231  -6.87078 
 C                    -0.83854  -4.05253  -6.85905 
 C                     1.56862  -4.87231  -6.87078 
 C                    -1.15744   0.57086  -10.49279 
 C                     1.15744  -0.57086  -10.49279 
 H                     1.06297   4.63976  -7.76153 
 H                     1.04426   4.6508   -5.95902 
 H                     1.46677   3.1507   -6.85058 
 H                    -2.6181    4.55173  -6.88164 
 H                    -1.37321   5.47479  -5.97149 
 H                    -1.35961   5.48659  -7.75871 
 H                    -1.04426  -4.6508   -5.95902 
 H                    -1.46677  -3.1507   -6.85058 
 H                    -1.06297  -4.63976  -7.76153 
 H                     1.37321  -5.47479  -5.97149 
 H                     1.35961  -5.48659  -7.75871 
 H                     2.6181   -4.55173  -6.88164 
 C                    -0.99932   1.52153  -11.52151 
 C                    -2.4673    0.26418  -10.07307 
 C                     0.99932  -1.52153  -11.52151 
 C                     2.4673   -0.26418  -10.07307 
 C                    -2.10845   2.20353  -12.03 
 S                     0.58018   2.07162  -12.10549 
 C                    -3.57059   0.93421  -10.61389 
 S                    -2.86069  -1.04293  -8.93971 
 C                     2.10845  -2.20353  -12.03 
 S                    -0.58018  -2.07162  -12.10549 
 C                     3.57059  -0.93421  -10.61389 
 S                     2.86069   1.04293  -8.93971 
 C                    -3.3979    1.92037  -11.58026 
 S                    -1.75675   3.53604  -13.14602 
 C                    -0.10373   2.8891   -13.60616 
 S                    -5.1597    0.41794  -10.02135 
 C                    -4.48395  -0.31965  -8.47845 
 C                     3.3979   -1.92037  -11.58026 
 S                     1.75675  -3.53604  -13.14602 
 C                     0.10373  -2.8891   -13.60616 
 S                     5.1597   -0.41794  -10.02135 
 C                     4.48395   0.31965  -8.47845 
 H                    -4.25352   2.46536  -11.97607 
 C                     0.8084    4.05864  -13.99761 
 C                    -0.24295   1.8672   -14.73927 
 C                    -5.41367  -1.44378  -8.00792 
 C                    -4.2914    0.75719  -7.40415 
 H                     4.25352  -2.46536  -11.97607 
 C                    -0.8084   -4.05864  -13.99761 
 C                     0.24295  -1.8672   -14.73927 
 C                     5.41367   1.44378  -8.00792 
 C                     4.2914   -0.75719  -7.40415 
 H                     1.80771   3.67104  -14.24277 
 H                     0.39606   4.5573   -14.88708 
 H                     0.88175   4.77464  -13.16999 
 H                    -0.88623   1.03866  -14.41128 
 H                    -0.69256   2.35582  -15.61608 
 H                     0.75083   1.47449  -14.99937 
 H                    -6.39514  -1.01757  -7.75176 
 H                    -5.53008  -2.19743  -8.79631 
 H                    -4.98818  -1.90901  -7.10648 
 H                    -5.26583   1.20861  -7.16557 
 H                    -3.8611    0.29471  -6.50286 
 H                    -3.60188   1.53511  -7.7652 
 H                    -1.80771  -3.67104  -14.24277 
 H                    -0.39606  -4.5573   -14.88708 
 H                    -0.88175  -4.77464  -13.16999 
 H                     0.88623  -1.03866  -14.41128 
 H                     0.69256  -2.35582  -15.61608 
 H                    -0.75083  -1.47449  -14.99937 
 H                     6.39514   1.01757  -7.75176 
 H                     5.53008   2.19743  -8.79631 
 H                     4.98818   1.90901  -7.10648 
 H                     5.26583  -1.20861  -7.16557 
 H                     3.8611   -0.29471  -6.50286 
 H                     3.60188  -1.53511  -7.7652 
 C                     0.        0.        1.39186 
 C                     0.        0.       -1.39898 
 C                     0.        0.       -2.84379 
 C                     0.        0.        2.83384 
 C                     0.        0.        4.04506 
 C                     0.        0.       -4.05464 
 
 ITRead=  0  0  0  0  0  0  0  0  0  0  0  0  0  0  0  0  0  0  0  0
 ITRead=  0  0  0  0  0  0  0  0  0  0  0  0  0  0  0  0  0  0  0  0
 ITRead=  0  0  0  0  0  0  0  0  0  0  0  0  0  0  0  0  0  0  0  0
 ITRead=  0  0  0  0  0  0  0  0  0  0  0  0  0  0  0  0  0  0  0  0
 ITRead=  0  0  0  0  0  0  0  0  0  0  0  0  0  0  0  0  0  0  0  0
 ITRead=  0  0  0  0  0  0  0  0  0  0  0  0  0  0  0  0  0  0  0  0
 ITRead=  0  0  0  0  0  0  0  0  0  0  0  0  0  0  0  0  0  0  0  0
 ITRead=  0  0  0  0  0  0  0  0  0  0  0  0  0  0  0  0  0  0  0  0
 ITRead=  0  0  0  0  0  0  0  0  0  0  0  0  0  0  0  0  0  0  0  0
 ITRead=  0  0  0  0  0  0  0  0
 MicOpt= -1 -1 -1 -1 -1 -1 -1 -1 -1 -1 -1 -1 -1 -1 -1 -1 -1 -1 -1 -1
 MicOpt= -1 -1 -1 -1 -1 -1 -1 -1 -1 -1 -1 -1 -1 -1 -1 -1 -1 -1 -1 -1
 MicOpt= -1 -1 -1 -1 -1 -1 -1 -1 -1 -1 -1 -1 -1 -1 -1 -1 -1 -1 -1 -1
 MicOpt= -1 -1 -1 -1 -1 -1 -1 -1 -1 -1 -1 -1 -1 -1 -1 -1 -1 -1 -1 -1
 MicOpt= -1 -1 -1 -1 -1 -1 -1 -1 -1 -1 -1 -1 -1 -1 -1 -1 -1 -1 -1 -1
 MicOpt= -1 -1 -1 -1 -1 -1 -1 -1 -1 -1 -1 -1 -1 -1 -1 -1 -1 -1 -1 -1
 MicOpt= -1 -1 -1 -1 -1 -1 -1 -1 -1 -1 -1 -1 -1 -1 -1 -1 -1 -1 -1 -1
 MicOpt= -1 -1 -1 -1 -1 -1 -1 -1 -1 -1 -1 -1 -1 -1 -1 -1 -1 -1 -1 -1
 MicOpt= -1 -1 -1 -1 -1 -1 -1 -1 -1 -1 -1 -1 -1 -1 -1 -1 -1 -1 -1 -1
 MicOpt= -1 -1 -1 -1 -1 -1 -1 -1
 NAtoms=    188 NQM=      188 NQMF=       0 NMMI=      0 NMMIF=      0
                NMic=       0 NMicF=      0.
                    Isotopes and Nuclear Properties:
 (Nuclear quadrupole moments (NQMom) in fm**2, nuclear magnetic moments (NMagM)
  in nuclear magnetons)

  Atom         1           2           3           4           5           6           7           8           9          10
 IAtWgt=          12          12          12          12          12          12          32          32          32          32
 AtmWgt=  12.0000000  12.0000000  12.0000000  12.0000000  12.0000000  12.0000000  31.9720718  31.9720718  31.9720718  31.9720718
 NucSpn=           0           0           0           0           0           0           0           0           0           0
 AtZEff=   0.0000000   0.0000000   0.0000000   0.0000000   0.0000000   0.0000000   0.0000000   0.0000000   0.0000000   0.0000000
 NQMom=    0.0000000   0.0000000   0.0000000   0.0000000   0.0000000   0.0000000   0.0000000   0.0000000   0.0000000   0.0000000
 NMagM=    0.0000000   0.0000000   0.0000000   0.0000000   0.0000000   0.0000000   0.0000000   0.0000000   0.0000000   0.0000000
 AtZNuc=   6.0000000   6.0000000   6.0000000   6.0000000   6.0000000   6.0000000  16.0000000  16.0000000  16.0000000  16.0000000

  Atom        11          12          13          14          15          16          17          18          19          20
 IAtWgt=          12           1           1           1          12          12           1           1           1          12
 AtmWgt=  12.0000000   1.0078250   1.0078250   1.0078250  12.0000000  12.0000000   1.0078250   1.0078250   1.0078250  12.0000000
 NucSpn=           0           1           1           1           0           0           1           1           1           0
 AtZEff=   0.0000000   0.0000000   0.0000000   0.0000000   0.0000000   0.0000000   0.0000000   0.0000000   0.0000000   0.0000000
 NQMom=    0.0000000   0.0000000   0.0000000   0.0000000   0.0000000   0.0000000   0.0000000   0.0000000   0.0000000   0.0000000
 NMagM=    0.0000000   2.7928460   2.7928460   2.7928460   0.0000000   0.0000000   2.7928460   2.7928460   2.7928460   0.0000000
 AtZNuc=   6.0000000   1.0000000   1.0000000   1.0000000   6.0000000   6.0000000   1.0000000   1.0000000   1.0000000   6.0000000

  Atom        21          22          23          24          25          26          27          28          29          30
 IAtWgt=           1           1           1          12          12           1           1           1          12          12
 AtmWgt=   1.0078250   1.0078250   1.0078250  12.0000000  12.0000000   1.0078250   1.0078250   1.0078250  12.0000000  12.0000000
 NucSpn=           1           1           1           0           0           1           1           1           0           0
 AtZEff=   0.0000000   0.0000000   0.0000000   0.0000000   0.0000000   0.0000000   0.0000000   0.0000000   0.0000000   0.0000000
 NQMom=    0.0000000   0.0000000   0.0000000   0.0000000   0.0000000   0.0000000   0.0000000   0.0000000   0.0000000   0.0000000
 NMagM=    2.7928460   2.7928460   2.7928460   0.0000000   0.0000000   2.7928460   2.7928460   2.7928460   0.0000000   0.0000000
 AtZNuc=   1.0000000   1.0000000   1.0000000   6.0000000   6.0000000   1.0000000   1.0000000   1.0000000   6.0000000   6.0000000

  Atom        31          32          33          34          35          36          37          38          39          40
 IAtWgt=          12          12          32          12          32          12          32          12          32          12
 AtmWgt=  12.0000000  12.0000000  31.9720718  12.0000000  31.9720718  12.0000000  31.9720718  12.0000000  31.9720718  12.0000000
 NucSpn=           0           0           0           0           0           0           0           0           0           0
 AtZEff=   0.0000000   0.0000000   0.0000000   0.0000000   0.0000000   0.0000000   0.0000000   0.0000000   0.0000000   0.0000000
 NQMom=    0.0000000   0.0000000   0.0000000   0.0000000   0.0000000   0.0000000   0.0000000   0.0000000   0.0000000   0.0000000
 NMagM=    0.0000000   0.0000000   0.0000000   0.0000000   0.0000000   0.0000000   0.0000000   0.0000000   0.0000000   0.0000000
 AtZNuc=   6.0000000   6.0000000  16.0000000   6.0000000  16.0000000   6.0000000  16.0000000   6.0000000  16.0000000   6.0000000

  Atom        41          42          43          44          45          46          47          48          49          50
 IAtWgt=           1          12          12          12          12           1           1           1           1           1
 AtmWgt=   1.0078250  12.0000000  12.0000000  12.0000000  12.0000000   1.0078250   1.0078250   1.0078250   1.0078250   1.0078250
 NucSpn=           1           0           0           0           0           1           1           1           1           1
 AtZEff=   0.0000000   0.0000000   0.0000000   0.0000000   0.0000000   0.0000000   0.0000000   0.0000000   0.0000000   0.0000000
 NQMom=    0.0000000   0.0000000   0.0000000   0.0000000   0.0000000   0.0000000   0.0000000   0.0000000   0.0000000   0.0000000
 NMagM=    2.7928460   0.0000000   0.0000000   0.0000000   0.0000000   2.7928460   2.7928460   2.7928460   2.7928460   2.7928460
 AtZNuc=   1.0000000   6.0000000   6.0000000   6.0000000   6.0000000   1.0000000   1.0000000   1.0000000   1.0000000   1.0000000

  Atom        51          52          53          54          55          56          57          58          59          60
 IAtWgt=           1           1           1           1           1           1           1          12          12          12
 AtmWgt=   1.0078250   1.0078250   1.0078250   1.0078250   1.0078250   1.0078250   1.0078250  12.0000000  12.0000000  12.0000000
 NucSpn=           1           1           1           1           1           1           1           0           0           0
 AtZEff=   0.0000000   0.0000000   0.0000000   0.0000000   0.0000000   0.0000000   0.0000000   0.0000000   0.0000000   0.0000000
 NQMom=    0.0000000   0.0000000   0.0000000   0.0000000   0.0000000   0.0000000   0.0000000   0.0000000   0.0000000   0.0000000
 NMagM=    2.7928460   2.7928460   2.7928460   2.7928460   2.7928460   2.7928460   2.7928460   0.0000000   0.0000000   0.0000000
 AtZNuc=   1.0000000   1.0000000   1.0000000   1.0000000   1.0000000   1.0000000   1.0000000   6.0000000   6.0000000   6.0000000

  Atom        61          62          63          64          65          66          67          68          69          70
 IAtWgt=          12          12          32          12          32          12          32          12          32          12
 AtmWgt=  12.0000000  12.0000000  31.9720718  12.0000000  31.9720718  12.0000000  31.9720718  12.0000000  31.9720718  12.0000000
 NucSpn=           0           0           0           0           0           0           0           0           0           0
 AtZEff=   0.0000000   0.0000000   0.0000000   0.0000000   0.0000000   0.0000000   0.0000000   0.0000000   0.0000000   0.0000000
 NQMom=    0.0000000   0.0000000   0.0000000   0.0000000   0.0000000   0.0000000   0.0000000   0.0000000   0.0000000   0.0000000
 NMagM=    0.0000000   0.0000000   0.0000000   0.0000000   0.0000000   0.0000000   0.0000000   0.0000000   0.0000000   0.0000000
 AtZNuc=   6.0000000   6.0000000  16.0000000   6.0000000  16.0000000   6.0000000  16.0000000   6.0000000  16.0000000   6.0000000

  Atom        71          72          73          74          75          76          77          78          79          80
 IAtWgt=           1          12          12          12          12           1           1           1           1           1
 AtmWgt=   1.0078250  12.0000000  12.0000000  12.0000000  12.0000000   1.0078250   1.0078250   1.0078250   1.0078250   1.0078250
 NucSpn=           1           0           0           0           0           1           1           1           1           1
 AtZEff=   0.0000000   0.0000000   0.0000000   0.0000000   0.0000000   0.0000000   0.0000000   0.0000000   0.0000000   0.0000000
 NQMom=    0.0000000   0.0000000   0.0000000   0.0000000   0.0000000   0.0000000   0.0000000   0.0000000   0.0000000   0.0000000
 NMagM=    2.7928460   0.0000000   0.0000000   0.0000000   0.0000000   2.7928460   2.7928460   2.7928460   2.7928460   2.7928460
 AtZNuc=   1.0000000   6.0000000   6.0000000   6.0000000   6.0000000   1.0000000   1.0000000   1.0000000   1.0000000   1.0000000

  Atom        81          82          83          84          85          86          87          88          89          90
 IAtWgt=           1           1           1           1           1           1           1          12          12          12
 AtmWgt=   1.0078250   1.0078250   1.0078250   1.0078250   1.0078250   1.0078250   1.0078250  12.0000000  12.0000000  12.0000000
 NucSpn=           1           1           1           1           1           1           1           0           0           0
 AtZEff=   0.0000000   0.0000000   0.0000000   0.0000000   0.0000000   0.0000000   0.0000000   0.0000000   0.0000000   0.0000000
 NQMom=    0.0000000   0.0000000   0.0000000   0.0000000   0.0000000   0.0000000   0.0000000   0.0000000   0.0000000   0.0000000
 NMagM=    2.7928460   2.7928460   2.7928460   2.7928460   2.7928460   2.7928460   2.7928460   0.0000000   0.0000000   0.0000000
 AtZNuc=   1.0000000   1.0000000   1.0000000   1.0000000   1.0000000   1.0000000   1.0000000   6.0000000   6.0000000   6.0000000

  Atom        91          92          93          94          95          96          97          98          99         100
 IAtWgt=           1          12           1           1           1          12          12          12          12          32
 AtmWgt=   1.0078250  12.0000000   1.0078250   1.0078250   1.0078250  12.0000000  12.0000000  12.0000000  12.0000000  31.9720718
 NucSpn=           1           0           1           1           1           0           0           0           0           0
 AtZEff=   0.0000000   0.0000000   0.0000000   0.0000000   0.0000000   0.0000000   0.0000000   0.0000000   0.0000000   0.0000000
 NQMom=    0.0000000   0.0000000   0.0000000   0.0000000   0.0000000   0.0000000   0.0000000   0.0000000   0.0000000   0.0000000
 NMagM=    2.7928460   0.0000000   2.7928460   2.7928460   2.7928460   0.0000000   0.0000000   0.0000000   0.0000000   0.0000000
 AtZNuc=   1.0000000   6.0000000   1.0000000   1.0000000   1.0000000   6.0000000   6.0000000   6.0000000   6.0000000  16.0000000

  Atom       101         102         103         104         105         106         107         108         109         110
 IAtWgt=          12          32          12          32          12          32          12          12          12          12
 AtmWgt=  12.0000000  31.9720718  12.0000000  31.9720718  12.0000000  31.9720718  12.0000000  12.0000000  12.0000000  12.0000000
 NucSpn=           0           0           0           0           0           0           0           0           0           0
 AtZEff=   0.0000000   0.0000000   0.0000000   0.0000000   0.0000000   0.0000000   0.0000000   0.0000000   0.0000000   0.0000000
 NQMom=    0.0000000   0.0000000   0.0000000   0.0000000   0.0000000   0.0000000   0.0000000   0.0000000   0.0000000   0.0000000
 NMagM=    0.0000000   0.0000000   0.0000000   0.0000000   0.0000000   0.0000000   0.0000000   0.0000000   0.0000000   0.0000000
 AtZNuc=   6.0000000  16.0000000   6.0000000  16.0000000   6.0000000  16.0000000   6.0000000   6.0000000   6.0000000   6.0000000

  Atom       111         112         113         114         115         116         117         118         119         120
 IAtWgt=          12          12          12          12           1           1           1           1           1           1
 AtmWgt=  12.0000000  12.0000000  12.0000000  12.0000000   1.0078250   1.0078250   1.0078250   1.0078250   1.0078250   1.0078250
 NucSpn=           0           0           0           0           1           1           1           1           1           1
 AtZEff=   0.0000000   0.0000000   0.0000000   0.0000000   0.0000000   0.0000000   0.0000000   0.0000000   0.0000000   0.0000000
 NQMom=    0.0000000   0.0000000   0.0000000   0.0000000   0.0000000   0.0000000   0.0000000   0.0000000   0.0000000   0.0000000
 NMagM=    0.0000000   0.0000000   0.0000000   0.0000000   2.7928460   2.7928460   2.7928460   2.7928460   2.7928460   2.7928460
 AtZNuc=   6.0000000   6.0000000   6.0000000   6.0000000   1.0000000   1.0000000   1.0000000   1.0000000   1.0000000   1.0000000

  Atom       121         122         123         124         125         126         127         128         129         130
 IAtWgt=           1           1           1           1           1           1          12          12          12          12
 AtmWgt=   1.0078250   1.0078250   1.0078250   1.0078250   1.0078250   1.0078250  12.0000000  12.0000000  12.0000000  12.0000000
 NucSpn=           1           1           1           1           1           1           0           0           0           0
 AtZEff=   0.0000000   0.0000000   0.0000000   0.0000000   0.0000000   0.0000000   0.0000000   0.0000000   0.0000000   0.0000000
 NQMom=    0.0000000   0.0000000   0.0000000   0.0000000   0.0000000   0.0000000   0.0000000   0.0000000   0.0000000   0.0000000
 NMagM=    2.7928460   2.7928460   2.7928460   2.7928460   2.7928460   2.7928460   0.0000000   0.0000000   0.0000000   0.0000000
 AtZNuc=   1.0000000   1.0000000   1.0000000   1.0000000   1.0000000   1.0000000   6.0000000   6.0000000   6.0000000   6.0000000

  Atom       131         132         133         134         135         136         137         138         139         140
 IAtWgt=          12          32          12          32          12          32          12          32          12          32
 AtmWgt=  12.0000000  31.9720718  12.0000000  31.9720718  12.0000000  31.9720718  12.0000000  31.9720718  12.0000000  31.9720718
 NucSpn=           0           0           0           0           0           0           0           0           0           0
 AtZEff=   0.0000000   0.0000000   0.0000000   0.0000000   0.0000000   0.0000000   0.0000000   0.0000000   0.0000000   0.0000000
 NQMom=    0.0000000   0.0000000   0.0000000   0.0000000   0.0000000   0.0000000   0.0000000   0.0000000   0.0000000   0.0000000
 NMagM=    0.0000000   0.0000000   0.0000000   0.0000000   0.0000000   0.0000000   0.0000000   0.0000000   0.0000000   0.0000000
 AtZNuc=   6.0000000  16.0000000   6.0000000  16.0000000   6.0000000  16.0000000   6.0000000  16.0000000   6.0000000  16.0000000

  Atom       141         142         143         144         145         146         147         148         149         150
 IAtWgt=          12          32          12          12          32          12          32          12           1          12
 AtmWgt=  12.0000000  31.9720718  12.0000000  12.0000000  31.9720718  12.0000000  31.9720718  12.0000000   1.0078250  12.0000000
 NucSpn=           0           0           0           0           0           0           0           0           1           0
 AtZEff=   0.0000000   0.0000000   0.0000000   0.0000000   0.0000000   0.0000000   0.0000000   0.0000000   0.0000000   0.0000000
 NQMom=    0.0000000   0.0000000   0.0000000   0.0000000   0.0000000   0.0000000   0.0000000   0.0000000   0.0000000   0.0000000
 NMagM=    0.0000000   0.0000000   0.0000000   0.0000000   0.0000000   0.0000000   0.0000000   0.0000000   2.7928460   0.0000000
 AtZNuc=   6.0000000  16.0000000   6.0000000   6.0000000  16.0000000   6.0000000  16.0000000   6.0000000   1.0000000   6.0000000

  Atom       151         152         153         154         155         156         157         158         159         160
 IAtWgt=          12          12          12           1          12          12          12          12           1           1
 AtmWgt=  12.0000000  12.0000000  12.0000000   1.0078250  12.0000000  12.0000000  12.0000000  12.0000000   1.0078250   1.0078250
 NucSpn=           0           0           0           1           0           0           0           0           1           1
 AtZEff=   0.0000000   0.0000000   0.0000000   0.0000000   0.0000000   0.0000000   0.0000000   0.0000000   0.0000000   0.0000000
 NQMom=    0.0000000   0.0000000   0.0000000   0.0000000   0.0000000   0.0000000   0.0000000   0.0000000   0.0000000   0.0000000
 NMagM=    0.0000000   0.0000000   0.0000000   2.7928460   0.0000000   0.0000000   0.0000000   0.0000000   2.7928460   2.7928460
 AtZNuc=   6.0000000   6.0000000   6.0000000   1.0000000   6.0000000   6.0000000   6.0000000   6.0000000   1.0000000   1.0000000

  Atom       161         162         163         164         165         166         167         168         169         170
 IAtWgt=           1           1           1           1           1           1           1           1           1           1
 AtmWgt=   1.0078250   1.0078250   1.0078250   1.0078250   1.0078250   1.0078250   1.0078250   1.0078250   1.0078250   1.0078250
 NucSpn=           1           1           1           1           1           1           1           1           1           1
 AtZEff=   0.0000000   0.0000000   0.0000000   0.0000000   0.0000000   0.0000000   0.0000000   0.0000000   0.0000000   0.0000000
 NQMom=    0.0000000   0.0000000   0.0000000   0.0000000   0.0000000   0.0000000   0.0000000   0.0000000   0.0000000   0.0000000
 NMagM=    2.7928460   2.7928460   2.7928460   2.7928460   2.7928460   2.7928460   2.7928460   2.7928460   2.7928460   2.7928460
 AtZNuc=   1.0000000   1.0000000   1.0000000   1.0000000   1.0000000   1.0000000   1.0000000   1.0000000   1.0000000   1.0000000

  Atom       171         172         173         174         175         176         177         178         179         180
 IAtWgt=           1           1           1           1           1           1           1           1           1           1
 AtmWgt=   1.0078250   1.0078250   1.0078250   1.0078250   1.0078250   1.0078250   1.0078250   1.0078250   1.0078250   1.0078250
 NucSpn=           1           1           1           1           1           1           1           1           1           1
 AtZEff=   0.0000000   0.0000000   0.0000000   0.0000000   0.0000000   0.0000000   0.0000000   0.0000000   0.0000000   0.0000000
 NQMom=    0.0000000   0.0000000   0.0000000   0.0000000   0.0000000   0.0000000   0.0000000   0.0000000   0.0000000   0.0000000
 NMagM=    2.7928460   2.7928460   2.7928460   2.7928460   2.7928460   2.7928460   2.7928460   2.7928460   2.7928460   2.7928460
 AtZNuc=   1.0000000   1.0000000   1.0000000   1.0000000   1.0000000   1.0000000   1.0000000   1.0000000   1.0000000   1.0000000

  Atom       181         182         183         184         185         186         187         188
 IAtWgt=           1           1          12          12          12          12          12          12
 AtmWgt=   1.0078250   1.0078250  12.0000000  12.0000000  12.0000000  12.0000000  12.0000000  12.0000000
 NucSpn=           1           1           0           0           0           0           0           0
 AtZEff=   0.0000000   0.0000000   0.0000000   0.0000000   0.0000000   0.0000000   0.0000000   0.0000000
 NQMom=    0.0000000   0.0000000   0.0000000   0.0000000   0.0000000   0.0000000   0.0000000   0.0000000
 NMagM=    2.7928460   2.7928460   0.0000000   0.0000000   0.0000000   0.0000000   0.0000000   0.0000000
 AtZNuc=   1.0000000   1.0000000   6.0000000   6.0000000   6.0000000   6.0000000   6.0000000   6.0000000
 Leave Link  101 at Wed Mar 10 19:54:16 2021, MaxMem= 21474836480 cpu:               1.0 elap:               0.4
 (Enter C:/G16W\l202.exe)
 Stoichiometry    C84H80S24(3)
 Framework group  C2[C2(CCCCCCCCCCCC),X(C72H80S24)]
 Deg. of freedom   274
 Full point group                 C2      NOp   2
 Largest Abelian subgroup         C2      NOp   2
 Largest concise Abelian subgroup C2      NOp   2
                         Standard orientation:                         
 ---------------------------------------------------------------------
 Center     Atomic      Atomic             Coordinates (Angstroms)
 Number     Number       Type             X           Y           Z
 ---------------------------------------------------------------------
      1          6           0        0.000000    0.000000   -8.320296
      2          6           0        1.091994    0.517304   -7.593572
      3          6           0       -1.091994   -0.517304   -7.593572
      4          6           0        1.091505    0.512427   -6.198112
      5          6           0       -1.091505   -0.512427   -6.198112
      6          6           0        0.000000    0.000000   -5.482307
      7         16           0       -2.567402   -1.167047   -8.344013
      8         16           0       -2.523535   -1.189451   -5.406261
      9         16           0        2.523535    1.189451   -5.406261
     10         16           0        2.567402    1.167047   -8.344013
     11          6           0        4.083818   -0.588014   -6.837957
     12          1           0        4.683504   -0.781649   -7.739467
     13          1           0        4.690505   -0.758813   -5.936905
     14          1           0        3.217488   -1.264806   -6.829787
     15          6           0        3.601995    0.867404   -6.856248
     16          6           0        4.768664    1.861724   -6.853882
     17          1           0        4.389988    2.891764   -6.866569
     18          1           0        5.379986    1.701309   -5.953752
     19          1           0        5.394585    1.686143   -7.740997
     20          6           0       -4.083818    0.588014   -6.837957
     21          1           0       -4.690505    0.758813   -5.936905
     22          1           0       -3.217488    1.264806   -6.829787
     23          1           0       -4.683504    0.781649   -7.739467
     24          6           0       -3.601995   -0.867404   -6.856248
     25          6           0       -4.768664   -1.861724   -6.853882
     26          1           0       -5.379986   -1.701309   -5.953752
     27          1           0       -5.394585   -1.686143   -7.740997
     28          1           0       -4.389988   -2.891764   -6.866569
     29          6           0        0.520375    1.178190  -10.485414
     30          6           0        1.479284    1.055216  -11.510847
     31          6           0        0.145607    2.475143  -10.082947
     32          6           0        2.098668    2.191019  -12.039790
     33         16           0        2.119303   -0.501206  -12.063718
     34          6           0        0.753048    3.604467  -10.644351
     35         16           0       -1.175970    2.813679   -8.948729
     36          6           0        1.744724    3.470098  -11.611369
     37         16           0        3.446810    1.895001  -13.152719
     38          6           0        2.897899    0.197286  -13.577297
     39         16           0        0.150689    5.172583  -10.078790
     40          6           0       -0.548267    4.486292   -8.523031
     41          1           0        2.240186    4.347947  -12.023223
     42          6           0        4.119301   -0.653872  -13.946522
     43          6           0        1.872967    0.251051  -14.714942
     44          6           0       -1.725019    5.359894   -8.072170
     45          6           0        0.536695    4.379797   -7.444624
     46          1           0        3.790624   -1.678982  -14.171730
     47          1           0        4.597048   -0.232595  -14.843136
     48          1           0        4.834875   -0.668869  -13.115399
     49          1           0        1.009568    0.855848  -14.404992
     50          1           0        2.338523    0.704518  -15.602130
     51          1           0        1.536616   -0.769568  -14.949425
     52          1           0       -1.356736    6.369538   -7.838341
     53          1           0       -2.483897    5.414973   -8.862712
     54          1           0       -2.165240    4.927910   -7.161222
     55          1           0        0.931536    5.384098   -7.229103
     56          1           0        0.097527    3.946020   -6.533736
     57          1           0        1.352345    3.727480   -7.789265
     58          6           0        0.000000    0.000000   -9.782858
     59          6           0       -0.520375   -1.178190  -10.485414
     60          6           0       -1.479284   -1.055216  -11.510847
     61          6           0       -0.145607   -2.475143  -10.082947
     62          6           0       -2.098668   -2.191019  -12.039790
     63         16           0       -2.119303    0.501206  -12.063718
     64          6           0       -0.753048   -3.604467  -10.644351
     65         16           0        1.175970   -2.813679   -8.948729
     66          6           0       -1.744724   -3.470098  -11.611369
     67         16           0       -3.446810   -1.895001  -13.152719
     68          6           0       -2.897899   -0.197286  -13.577297
     69         16           0       -0.150689   -5.172583  -10.078790
     70          6           0        0.548267   -4.486292   -8.523031
     71          1           0       -2.240186   -4.347947  -12.023223
     72          6           0       -4.119301    0.653872  -13.946522
     73          6           0       -1.872967   -0.251051  -14.714942
     74          6           0        1.725019   -5.359894   -8.072170
     75          6           0       -0.536695   -4.379797   -7.444624
     76          1           0       -3.790624    1.678982  -14.171730
     77          1           0       -4.597048    0.232595  -14.843136
     78          1           0       -4.834875    0.668869  -13.115399
     79          1           0       -1.009568   -0.855848  -14.404992
     80          1           0       -2.338523   -0.704518  -15.602130
     81          1           0       -1.536616    0.769568  -14.949425
     82          1           0        1.356736   -6.369538   -7.838341
     83          1           0        2.483897   -5.414973   -8.862712
     84          1           0        2.165240   -4.927910   -7.161222
     85          1           0       -0.931536   -5.384098   -7.229103
     86          1           0       -0.097527   -3.946020   -6.533736
     87          1           0       -1.352345   -3.727480   -7.789265
     88          6           0        0.627607    1.039385   -0.690813
     89          6           0       -0.627607   -1.039385   -0.690813
     90          6           0        0.628465    1.040098    0.697803
     91          1           0        1.107930    1.840208   -1.246975
     92          6           0       -0.628465   -1.040098    0.697803
     93          1           0       -1.107930   -1.840208   -1.246975
     94          1           0        1.112275    1.842305    1.253748
     95          1           0       -1.112275   -1.842305    1.253748
     96          6           0        0.000000    0.000000    5.494731
     97          6           0        1.124418   -0.435498    6.210104
     98          6           0       -1.124418    0.435498    6.210104
     99          6           0        1.123474   -0.443051    7.606081
    100         16           0        2.596656   -1.019321    5.419139
    101          6           0       -1.123474    0.443051    7.606081
    102         16           0       -2.596656    1.019321    5.419139
    103          6           0        0.000000    0.000000    8.331191
    104         16           0        2.633631   -1.001072    8.359390
    105          6           0        3.651786   -0.641147    6.873393
    106         16           0       -2.633631    1.001072    8.359390
    107          6           0       -3.651786    0.641147    6.873393
    108          6           0        0.000000    0.000000    9.796594
    109          6           0        4.052525    0.838536    6.859046
    110          6           0        4.872309   -1.568624    6.870780
    111          6           0       -4.052525   -0.838536    6.859046
    112          6           0       -4.872309    1.568624    6.870780
    113          6           0        0.570861   -1.157441   10.492788
    114          6           0       -0.570861    1.157441   10.492788
    115          1           0        4.639755    1.062971    7.761530
    116          1           0        4.650798    1.044258    5.959024
    117          1           0        3.150695    1.466766    6.850576
    118          1           0        4.551732   -2.618097    6.881644
    119          1           0        5.474785   -1.373211    5.971487
    120          1           0        5.486592   -1.359605    7.758709
    121          1           0       -4.650798   -1.044258    5.959024
    122          1           0       -3.150695   -1.466766    6.850576
    123          1           0       -4.639755   -1.062971    7.761530
    124          1           0       -5.474785    1.373211    5.971487
    125          1           0       -5.486592    1.359605    7.758709
    126          1           0       -4.551732    2.618097    6.881644
    127          6           0        1.521531   -0.999322   11.521511
    128          6           0        0.264181   -2.467303   10.073065
    129          6           0       -1.521531    0.999322   11.521511
    130          6           0       -0.264181    2.467303   10.073065
    131          6           0        2.203533   -2.108450   12.029999
    132         16           0        2.071620    0.580184   12.105486
    133          6           0        0.934209   -3.570590   10.613887
    134         16           0       -1.042931   -2.860692    8.939713
    135          6           0       -2.203533    2.108450   12.029999
    136         16           0       -2.071620   -0.580184   12.105486
    137          6           0       -0.934209    3.570590   10.613887
    138         16           0        1.042931    2.860692    8.939713
    139          6           0        1.920373   -3.397903   11.580261
    140         16           0        3.536037   -1.756745   13.146017
    141          6           0        2.889100   -0.103727   13.606156
    142         16           0        0.417937   -5.159701   10.021350
    143          6           0       -0.319651   -4.483947    8.478454
    144          6           0       -1.920373    3.397903   11.580261
    145         16           0       -3.536037    1.756745   13.146017
    146          6           0       -2.889100    0.103727   13.606156
    147         16           0       -0.417937    5.159701   10.021350
    148          6           0        0.319651    4.483947    8.478454
    149          1           0        2.465359   -4.253522   11.976073
    150          6           0        4.058639    0.808395   13.997612
    151          6           0        1.867202   -0.242951   14.739266
    152          6           0       -1.443777   -5.413672    8.007924
    153          6           0        0.757187   -4.291395    7.404147
    154          1           0       -2.465359    4.253522   11.976073
    155          6           0       -4.058639   -0.808395   13.997612
    156          6           0       -1.867202    0.242951   14.739266
    157          6           0        1.443777    5.413672    8.007924
    158          6           0       -0.757187    4.291395    7.404147
    159          1           0        3.671037    1.807708   14.242772
    160          1           0        4.557303    0.396061   14.887080
    161          1           0        4.774638    0.881752   13.169988
    162          1           0        1.038663   -0.886229   14.411275
    163          1           0        2.355821   -0.692564   15.616081
    164          1           0        1.474485    0.750826   14.999366
    165          1           0       -1.017567   -6.395140    7.751764
    166          1           0       -2.197428   -5.530075    8.796307
    167          1           0       -1.909011   -4.988181    7.106483
    168          1           0        1.208605   -5.265834    7.165567
    169          1           0        0.294708   -3.861098    6.502865
    170          1           0        1.535106   -3.601883    7.765200
    171          1           0       -3.671037   -1.807708   14.242772
    172          1           0       -4.557303   -0.396061   14.887080
    173          1           0       -4.774638   -0.881752   13.169988
    174          1           0       -1.038663    0.886229   14.411275
    175          1           0       -2.355821    0.692564   15.616081
    176          1           0       -1.474485   -0.750826   14.999366
    177          1           0        1.017567    6.395140    7.751764
    178          1           0        2.197428    5.530075    8.796307
    179          1           0        1.909011    4.988181    7.106483
    180          1           0       -1.208605    5.265834    7.165567
    181          1           0       -0.294708    3.861098    6.502865
    182          1           0       -1.535106    3.601883    7.765200
    183          6           0        0.000000    0.000000   -1.391859
    184          6           0        0.000000    0.000000    1.398980
    185          6           0        0.000000    0.000000    2.843793
    186          6           0        0.000000    0.000000   -2.833840
    187          6           0        0.000000    0.000000   -4.045063
    188          6           0        0.000000    0.000000    4.054643
 ---------------------------------------------------------------------
 Rotational constants (GHZ):           0.0240550           0.0027401           0.0027144
 Leave Link  202 at Wed Mar 10 19:54:19 2021, MaxMem= 21474836480 cpu:               1.0 elap:               0.3
 (Enter C:/G16W\l301.exe)
 Standard basis: CC-pVDZ (5D, 7F)
 Ernie: Thresh=  0.10000D-02 Tol=  0.10000D-05 Strict=F.
 Ernie:  408 primitive shells out of 3448 were deleted.
 There are  1076 symmetry adapted cartesian basis functions of A   symmetry.
 There are  1040 symmetry adapted cartesian basis functions of B   symmetry.
 There are  1016 symmetry adapted basis functions of A   symmetry.
 There are   992 symmetry adapted basis functions of B   symmetry.
  2008 basis functions,  5036 primitive gaussians,  2116 cartesian basis functions
   485 alpha electrons      483 beta electrons
       nuclear repulsion energy     30806.1515849218 Hartrees.
 IExCor= 4235 DFT=T Ex+Corr=M06 ExCW=0 ScaHFX=  0.270000
 ScaDFX=  1.000000  1.000000  1.000000  1.000000 ScalE2=  1.000000  1.000000
 IRadAn=      5 IRanWt=     -1 IRanGd=            0 ICorTp=0 IEmpDi=  4
 NAtoms=  188 NActive=  188 NUniq=  100 SFac= 3.53D+00 NAtFMM=   60 NAOKFM=T Big=F
 Integral buffers will be    131072 words long.
 Raffenetti 2 integral format.
 Two-electron integral symmetry is turned on.
 Leave Link  301 at Wed Mar 10 19:54:21 2021, MaxMem= 21474836480 cpu:               0.0 elap:               0.3
 (Enter C:/G16W\l302.exe)
 NPDir=0 NMtPBC=     1 NCelOv=     1 NCel=       1 NClECP=     1 NCelD=      1
         NCelK=      1 NCelE2=     1 NClLst=     1 CellRange=     0.0.
 One-electron integrals computed using PRISM.
 One-electron integral symmetry used in STVInt
 NBasis=  2008 RedAO= T EigKep=  4.41D-05  NBF=  1016   992
 NBsUse=  2008 1.00D-06 EigRej= -1.00D+00 NBFU=  1016   992
 Precomputing XC quadrature grid using
 IXCGrd= 4 IRadAn=           5 IRanWt=          -1 IRanGd=           0 AccXCQ= 0.00D+00.
 Generated NRdTot=       0 NPtTot=           0 NUsed=           0 NTot=          32
 NSgBfM=  1674  1621  1646  1664  1674 MxSgAt=   188 MxSgA2=   188.
 Leave Link  302 at Wed Mar 10 19:54:47 2021, MaxMem= 21474836480 cpu:              23.0 elap:              22.7
 (Enter C:/G16W\l303.exe)
 DipDrv:  MaxL=1.
 Leave Link  303 at Wed Mar 10 19:54:51 2021, MaxMem= 21474836480 cpu:               2.0 elap:               1.9
 (Enter C:/G16W\l401.exe)
 ExpMin= 1.22D-01 ExpMax= 1.11D+05 ExpMxC= 1.07D+03 IAcc=3 IRadAn=         5 AccDes= 0.00D+00
 Harris functional with IExCor= 1009 and IRadAn=       5 diagonalized for initial guess.
 HarFok:  IExCor= 1009 AccDes= 0.00D+00 IRadAn=         5 IDoV= 1 UseB2=F ITyADJ=14
 ICtDFT=  3500011 ScaDFX=  1.000000  1.000000  1.000000  1.000000
 FoFCou: FMM=F IPFlag=           0 FMFlag=      100000 FMFlg1=        2000
         NFxFlg=           0 DoJE=T BraDBF=F KetDBF=T FulRan=T
         wScrn=  0.000000 ICntrl=       500 IOpCl=  0 I1Cent=   200000004 NGrid=           0
         NMat0=    1 NMatS0=      1 NMatT0=    0 NMatD0=    1 NMtDS0=    0 NMtDT0=    0
 Petite list used in FoFCou.
 Harris En= -12798.0747370288    
 JPrj=0 DoOrth=F DoCkMO=T.
 Mixing orbitals, IMix= 1 IMixAn=  0 NRI=1 NE=  485 Coef=  7.07106781D-01  7.07106781D-01
 Mixing orbitals, IMix= 1 IMixAn=  0 NRI=1 NE=  483 Coef= -7.07106781D-01  7.07106781D-01
 Initial guess orbital symmetries:
 Alpha Orbitals:
       Occupied  (A) (B) (A) (B) (A) (B) (A) (B) (B) (A) (A) (B)
                 (B) (A) (A) (B) (B) (A) (B) (A) (A) (B) (A) (B)
                 (B) (A) (B) (A) (B) (A) (B) (A) (B) (A) (B) (A)
                 (B) (A) (B) (A) (B) (A) (B) (A) (B) (A) (B) (A)
                 (A) (A) (A) (A) (B) (A) (B) (A) (A) (B) (A) (B)
                 (A) (A) (A) (A) (A) (A) (B) (A) (B) (A) (B) (A)
                 (B) (A) (B) (A) (B) (A) (A) (B) (A) (B) (A) (B)
                 (B) (A) (B) (A) (A) (B) (A) (B) (A) (B) (A) (A)
                 (B) (A) (B) (A) (B) (A) (A) (B) (B) (A) (B) (A)
                 (A) (B) (A) (B) (B) (A) (B) (A) (B) (A) (B) (A)
                 (B) (B) (A) (A) (B) (B) (A) (A) (B) (A) (B) (A)
                 (A) (B) (A) (B) (B) (A) (B) (A) (B) (A) (A) (B)
                 (A) (B) (A) (B) (B) (A) (B) (A) (B) (A) (B) (A)
                 (B) (A) (B) (A) (B) (A) (B) (A) (B) (B) (A) (B)
                 (A) (A) (B) (A) (B) (A) (B) (A) (A) (B) (A) (B)
                 (B) (A) (B) (A) (B) (A) (B) (A) (B) (A) (B) (B)
                 (A) (A) (B) (A) (B) (A) (B) (A) (B) (A) (B) (A)
                 (A) (A) (A) (A) (B) (B) (A) (B) (B) (A) (A) (B)
                 (B) (A) (A) (A) (A) (B) (B) (A) (A) (A) (A) (A)
                 (B) (B) (A) (B) (B) (A) (B) (B) (B) (A) (A) (A)
                 (A) (A) (A) (B) (A) (A) (B) (B) (B) (B) (B) (A)
                 (A) (A) (A) (B) (B) (B) (B) (B) (B) (A) (A) (A)
                 (A) (A) (B) (B) (A) (A) (B) (B) (A) (A) (B) (B)
                 (A) (A) (B) (A) (A) (B) (B) (A) (A) (A) (B) (B)
                 (A) (A) (B) (B) (A) (A) (B) (B) (A) (A) (A) (B)
                 (B) (A) (A) (B) (B) (B) (B) (A) (A) (B) (B) (B)
                 (A) (A) (A) (A) (B) (B) (B) (A) (A) (B) (A) (A)
                 (A) (A) (B) (B) (A) (A) (B) (A) (B) (B) (B) (A)
                 (A) (B) (B) (B) (B) (B) (A) (A) (B) (B) (A) (A)
                 (A) (A) (B) (B) (B) (B) (A) (A) (A) (A) (B) (B)
                 (A) (A) (A) (A) (B) (B) (B) (B) (A) (A) (B) (B)
                 (A) (B) (B) (B) (A) (A) (B) (B) (A) (A) (A) (A)
                 (B) (B) (B) (B) (A) (A) (B) (B) (B) (A) (A) (B)
                 (B) (A) (A) (A) (A) (B) (A) (A) (B) (B) (B) (B)
                 (B) (A) (A) (B) (B) (B) (A) (A) (B) (B) (B) (B)
                 (B) (B) (A) (A) (B) (B) (A) (A) (A) (A) (B) (B)
                 (B) (A) (A) (B) (B) (B) (A) (A) (B) (A) (A) (B)
                 (A) (B) (A) (A) (B) (B) (A) (A) (B) (A) (A) (B)
                 (B) (B) (B) (B) (B) (A) (A) (B) (B) (A) (A) (A)
                 (A) (B) (B) (B) (B) (B) (B) (A) (A) (A) (A) (B)
                 (B) (A) (A) (B) (B)
       Virtual   (B) (B) (A) (B) (A) (A) (A) (A) (B) (B) (A) (A)
                 (B) (B) (B) (A) (A) (B) (B) (A) (A) (B) (B) (B)
                 (B) (A) (A) (B) (B) (B) (B) (A) (A) (B) (A) (A)
                 (B) (A) (A) (B) (B) (A) (A) (B) (A) (B) (B) (A)
                 (A) (A) (A) (A) (B) (A) (B) (A) (B) (A) (B) (A)
                 (A) (B) (B) (A) (A) (B) (B) (B) (B) (A) (A) (B)
                 (A) (A) (B) (B) (B) (B) (B) (B) (B) (A) (A) (A)
                 (A) (B) (B) (B) (A) (A) (B) (B) (B) (B) (A) (A)
                 (A) (B) (B) (A) (A) (B) (A) (A) (B) (B) (A) (A)
                 (A) (A) (B) (B) (B) (A) (B) (A) (B) (B) (A) (A)
                 (B) (A) (B) (A) (A) (A) (B) (B) (B) (B) (B) (A)
                 (B) (A) (A) (A) (B) (B) (A) (B) (B) (A) (A) (A)
                 (A) (B) (B) (A) (B) (A) (B) (A) (A) (A) (A) (B)
                 (B) (A) (B) (A) (B) (B) (B) (A) (B) (A) (A) (B)
                 (B) (B) (B) (B) (B) (A) (A) (B) (B) (A) (A) (A)
                 (A) (A) (A) (A) (B) (B) (A) (B) (B) (A) (A) (A)
                 (B) (B) (A) (A) (A) (B) (A) (A) (B) (B) (A) (B)
                 (B) (A) (B) (B) (A) (A) (B) (A) (A) (B) (B) (A)
                 (A) (A) (A) (B) (B) (B) (B) (A) (A) (A) (B) (B)
                 (A) (A) (A) (A) (B) (B) (A) (A) (B) (B) (A) (A)
                 (B) (B) (A) (A) (B) (B) (A) (B) (B) (A) (A) (A)
                 (B) (B) (A) (A) (B) (B) (A) (A) (B) (B) (B) (A)
                 (B) (A) (A) (B) (A) (A) (A) (B) (A) (B) (B) (B)
                 (B) (B) (A) (A) (B) (A) (B) (A) (B) (A) (B) (A)
                 (B) (A) (A) (B) (B) (B) (B) (A) (A) (A) (A) (B)
                 (B) (A) (A) (B) (B) (B) (B) (A) (B) (A) (B) (A)
                 (B) (A) (B) (A) (A) (B) (B) (A) (B) (A) (A) (B)
                 (B) (A) (A) (B) (B) (A) (A) (A) (B) (A) (A) (A)
                 (B) (B) (B) (A) (A) (B) (B) (B) (A) (B) (A) (A)
                 (A) (A) (A) (B) (A) (A) (B) (B) (A) (B) (A) (B)
                 (B) (A) (B) (B) (B) (A) (A) (A) (A) (B) (B) (B)
                 (B) (B) (A) (A) (B) (A) (A) (B) (B) (A) (A) (B)
                 (A) (A) (B) (B) (A) (A) (B) (B) (A) (A) (B) (B)
                 (B) (B) (B) (A) (A) (B) (A) (A) (B) (B) (A) (A)
                 (B) (B) (A) (A) (A) (B) (A) (A) (B) (B) (B) (B)
                 (A) (A) (B) (B) (B) (A) (A) (B) (B) (A) (A) (B)
                 (A) (A) (B) (B) (B) (B) (A) (A) (B) (A) (B) (B)
                 (A) (A) (A) (A) (A) (B) (B) (B) (B) (B) (A) (A)
                 (B) (A) (A) (B) (A) (B) (A) (B) (B) (A) (B) (A)
                 (B) (A) (B) (B) (B) (A) (A) (B) (A) (A) (B) (B)
                 (B) (B) (A) (A) (A) (A) (B) (B) (A) (B) (B) (A)
                 (A) (B) (B) (A) (A) (B) (B) (B) (B) (A) (A) (B)
                 (A) (A) (A) (B) (A) (B) (B) (A) (A) (B) (B) (A)
                 (A) (B) (B) (B) (B) (B) (B) (A) (B) (A) (A) (B)
                 (A) (B) (A) (A) (B) (B) (A) (A) (B) (A) (B) (A)
                 (A) (A) (A) (B) (B) (A) (B) (A) (A) (B) (B) (A)
                 (A) (B) (B) (A) (B) (B) (B) (A) (B) (A) (B) (A)
                 (A) (B) (A) (A) (B) (A) (B) (A) (B) (A) (B) (B)
                 (A) (B) (A) (A) (A) (B) (A) (B) (A) (B) (B) (A)
                 (B) (A) (B) (A) (A) (B) (B) (A) (B) (A) (A) (A)
                 (B) (A) (A) (B) (B) (A) (A) (B) (B) (A) (A) (B)
                 (B) (A) (B) (A) (B) (B) (B) (A) (A) (B) (A) (B)
                 (A) (A) (B) (B) (B) (B) (A) (B) (A) (A) (A) (B)
                 (A) (B) (A) (A) (B) (B) (B) (A) (A) (A) (A) (B)
                 (A) (B) (A) (B) (B) (A) (A) (B) (A) (A) (B) (B)
                 (B) (A) (B) (A) (B) (A) (A) (B) (B) (A) (A) (B)
                 (A) (B) (B) (B) (A) (B) (A) (A) (A) (B) (A) (B)
                 (B) (B) (A) (A) (A) (A) (B) (B) (B) (A) (B) (A)
                 (A) (B) (B) (A) (B) (B) (A) (A) (A) (A) (B) (B)
                 (A) (A) (A) (B) (B) (A) (B) (A) (B) (A) (A) (B)
                 (B) (A) (B) (B) (A) (A) (B) (A) (B) (A) (A) (B)
                 (B) (B) (A) (A) (A) (A) (B) (A) (A) (B) (A) (A)
                 (A) (B) (B) (A) (B) (B) (A) (A) (B) (B) (B) (A)
                 (A) (B) (B) (A) (B) (B) (A) (A) (B) (A) (A) (B)
                 (B) (B) (A) (B) (A) (A) (A) (B) (B) (B) (A) (A)
                 (B) (B) (B) (B) (B) (A) (B) (B) (A) (B) (B) (B)
                 (A) (B) (A) (A) (A) (B) (A) (A) (B) (B) (A) (A)
                 (A) (A) (B) (A) (B) (B) (A) (B) (B) (A) (A) (B)
                 (B) (A) (A) (B) (B) (A) (B) (A) (B) (A) (A) (A)
                 (A) (B) (B) (B) (B) (B) (B) (A) (A) (A) (B) (B)
                 (A) (A) (B) (A) (B) (A) (A) (B) (B) (A) (A) (A)
                 (A) (B) (B) (B) (B) (A) (A) (A) (B) (B) (A) (A)
                 (A) (A) (B) (B) (A) (A) (A) (B) (B) (B) (A) (B)
                 (A) (A) (B) (B) (B) (B) (B) (B) (A) (A) (A) (A)
                 (B) (A) (B) (A) (B) (B) (A) (A) (A) (A) (B) (B)
                 (B) (B) (A) (A) (A) (A) (B) (A) (A) (A) (A) (B)
                 (B) (A) (B) (B) (A) (B) (B) (B) (A) (A) (A) (B)
                 (A) (B) (A) (A) (B) (B) (B) (B) (A) (A) (B) (A)
                 (B) (A) (B) (A) (B) (A) (A) (A) (B) (B) (B) (B)
                 (A) (A) (A) (A) (B) (B) (A) (B) (A) (A) (B) (A)
                 (A) (B) (B) (B) (B) (A) (A) (A) (B) (B) (A) (B)
                 (A) (B) (B) (A) (B) (A) (A) (A) (B) (B) (B) (B)
                 (A) (B) (B) (A) (A) (A) (A) (B) (B) (A) (A) (B)
                 (B) (B) (B) (A) (B) (A) (A) (B) (A) (A) (B) (A)
                 (B) (A) (A) (A) (B) (B) (B) (A) (A) (B) (A) (A)
                 (B) (B) (B) (B) (A) (A) (B) (B) (B) (A) (A) (B)
                 (B) (A) (A) (B) (B) (B) (A) (B) (A) (A) (B) (B)
                 (A) (B) (B) (A) (A) (B) (A) (A) (B) (A) (B) (A)
                 (B) (A) (A) (B) (A) (A) (B) (A) (A) (B) (B) (A)
                 (B) (B) (A) (A) (B) (B) (B) (B) (A) (A) (A) (A)
                 (A) (B) (B) (A) (B) (A) (B) (A) (B) (A) (A) (A)
                 (B) (A) (B) (A) (A) (B) (A) (B) (B) (A) (A) (B)
                 (A) (B) (B) (A) (B) (A) (A) (A) (A) (B) (B) (B)
                 (A) (A) (B) (B) (A) (A) (B) (A) (A) (A) (B) (B)
                 (A) (B) (B) (B) (B) (A) (B) (A) (A) (B) (A) (B)
                 (B) (B) (B) (A) (A) (B) (B) (B) (A) (A) (A) (A)
                 (B) (B) (B) (B) (A) (A) (B) (B) (B) (A) (B) (A)
                 (B) (B) (A) (A) (A) (B) (A) (A) (B) (A) (B) (B)
                 (A) (A) (B) (B) (B) (A) (B) (A) (B) (A) (A) (A)
                 (A) (B) (A) (B) (A) (B) (B) (B) (B) (B) (B) (A)
                 (A) (A) (A) (A) (A) (B) (B) (B) (A) (A) (B) (B)
                 (A) (A) (A) (A) (B) (A) (B) (A) (B) (A) (B) (A)
                 (A) (A) (B) (B) (A) (A) (B) (B) (B) (A) (A) (B)
                 (B) (A) (A) (A) (B) (A) (A) (A) (B) (B) (B) (A)
                 (B) (B) (A) (B) (B) (B) (B) (A) (A) (A) (A) (B)
                 (A) (B) (B) (A) (A) (B) (A) (A) (B) (B) (B) (A)
                 (A) (B) (A) (A) (B) (A) (A) (B) (B) (A) (A) (B)
                 (B) (B) (B) (A) (B) (A) (B) (B) (B) (A) (A) (A)
                 (A) (B) (B) (B) (A) (B) (A) (B) (A) (A) (B) (B)
                 (B) (A) (A) (B) (A) (B) (A) (A) (A) (B) (B) (A)
                 (A) (B) (B) (A) (A) (B) (A) (B) (A) (A) (B) (B)
                 (A) (B) (A) (B) (A) (A) (A) (B) (B) (A) (B) (B)
                 (B) (A) (A) (B) (A) (B) (A) (B) (B) (B) (B) (A)
                 (A) (A) (A) (B) (B) (B) (A) (B) (A) (B) (A) (A)
                 (A) (B) (A) (B) (A) (A) (B) (B) (A) (A) (B) (B)
                 (B) (B) (B) (B) (A) (A) (A) (A) (B) (B) (A) (B)
                 (B) (A) (A) (A) (B) (B) (A) (A) (A) (B) (A) (A)
                 (B) (A) (B) (B) (A) (A) (B) (B) (B) (B) (A) (A)
                 (A) (A) (B) (A) (B) (B) (A) (A) (B) (A) (B) (A)
                 (B) (A) (A) (B) (A) (B) (A) (B) (B) (A) (B) (B)
                 (A) (A) (B) (B) (A) (B) (B) (A) (A) (B) (B) (A)
                 (A) (A) (A) (B) (B) (A) (A) (A) (A) (B) (B) (A)
                 (A) (B) (B) (A) (A) (B) (B) (B) (B) (B) (A) (A)
                 (B) (B) (B) (A) (B) (A) (B) (B) (A) (A) (B) (B)
                 (A) (A) (B) (B) (A) (A) (A) (B) (A) (A) (A) (A)
                 (B) (A) (B) (B) (A) (A) (A) (B) (B) (B) (B) (A)
                 (A) (A) (B) (A) (A) (A) (B) (B) (A) (A) (A)
 Beta  Orbitals:
       Occupied  (A) (B) (A) (B) (A) (B) (A) (B) (B) (A) (A) (B)
                 (B) (A) (A) (B) (B) (A) (B) (A) (A) (B) (A) (B)
                 (B) (A) (B) (A) (B) (A) (B) (A) (B) (A) (B) (A)
                 (B) (A) (B) (A) (B) (A) (B) (A) (B) (A) (B) (A)
                 (A) (A) (A) (A) (B) (A) (B) (A) (A) (B) (A) (B)
                 (A) (A) (A) (A) (A) (A) (B) (A) (B) (A) (B) (A)
                 (B) (A) (B) (A) (B) (A) (A) (B) (A) (B) (A) (B)
                 (B) (A) (B) (A) (A) (B) (A) (B) (A) (B) (A) (A)
                 (B) (A) (B) (A) (B) (A) (A) (B) (B) (A) (B) (A)
                 (A) (B) (A) (B) (B) (A) (B) (A) (B) (A) (B) (A)
                 (B) (B) (A) (A) (B) (B) (A) (A) (B) (A) (B) (A)
                 (A) (B) (A) (B) (B) (A) (B) (A) (B) (A) (A) (B)
                 (A) (B) (A) (B) (B) (A) (B) (A) (B) (A) (B) (A)
                 (B) (A) (B) (A) (B) (A) (B) (A) (B) (B) (A) (B)
                 (A) (A) (B) (A) (B) (A) (B) (A) (A) (B) (A) (B)
                 (B) (A) (B) (A) (B) (A) (B) (A) (B) (A) (B) (B)
                 (A) (A) (B) (A) (B) (A) (B) (A) (B) (A) (B) (A)
                 (A) (A) (A) (A) (B) (B) (A) (B) (B) (A) (A) (B)
                 (B) (A) (A) (A) (A) (B) (B) (A) (A) (A) (A) (A)
                 (B) (B) (A) (B) (B) (A) (B) (B) (B) (A) (A) (A)
                 (A) (A) (A) (B) (A) (A) (B) (B) (B) (B) (B) (A)
                 (A) (A) (A) (B) (B) (B) (B) (B) (B) (A) (A) (A)
                 (A) (A) (B) (B) (A) (A) (B) (B) (A) (A) (B) (B)
                 (A) (A) (B) (A) (A) (B) (B) (A) (A) (A) (B) (B)
                 (A) (A) (B) (B) (A) (A) (B) (B) (A) (A) (A) (B)
                 (B) (A) (A) (B) (B) (B) (B) (A) (A) (B) (B) (B)
                 (A) (A) (A) (A) (B) (B) (B) (A) (A) (B) (A) (A)
                 (A) (A) (B) (B) (A) (A) (B) (A) (B) (B) (B) (A)
                 (A) (B) (B) (B) (B) (B) (A) (A) (B) (B) (A) (A)
                 (A) (A) (B) (B) (B) (B) (A) (A) (A) (A) (B) (B)
                 (A) (A) (A) (A) (B) (B) (B) (B) (A) (A) (B) (B)
                 (A) (B) (B) (B) (A) (A) (B) (B) (A) (A) (A) (A)
                 (B) (B) (B) (B) (A) (A) (B) (B) (B) (A) (A) (B)
                 (B) (A) (A) (A) (A) (B) (A) (A) (B) (B) (B) (B)
                 (B) (A) (A) (B) (B) (B) (A) (A) (B) (B) (B) (B)
                 (B) (B) (A) (A) (B) (B) (A) (A) (A) (A) (B) (B)
                 (B) (A) (A) (B) (B) (B) (A) (A) (B) (A) (A) (B)
                 (A) (B) (A) (A) (B) (B) (A) (A) (B) (A) (A) (B)
                 (B) (B) (B) (B) (B) (A) (A) (B) (B) (A) (A) (A)
                 (A) (B) (B) (B) (B) (B) (B) (A) (A) (A) (A) (B)
                 (B) (A) (?A)
       Virtual   (?A) (B) (B) (B) (A) (B) (A) (A) (A) (A) (B) (B)
                 (A) (A) (B) (B) (B) (A) (A) (B) (B) (A) (A) (B)
                 (B) (B) (B) (A) (A) (B) (B) (B) (B) (A) (A) (B)
                 (A) (A) (B) (A) (A) (B) (B) (A) (A) (B) (A) (B)
                 (B) (A) (A) (A) (A) (A) (B) (A) (B) (A) (B) (A)
                 (B) (A) (A) (B) (B) (A) (A) (B) (B) (B) (B) (A)
                 (A) (B) (A) (A) (B) (B) (B) (B) (B) (B) (B) (A)
                 (A) (A) (A) (B) (B) (B) (A) (A) (B) (B) (B) (B)
                 (A) (A) (A) (B) (B) (A) (A) (B) (A) (A) (B) (B)
                 (A) (A) (A) (A) (B) (B) (B) (A) (B) (A) (B) (B)
                 (A) (A) (B) (A) (B) (A) (A) (A) (B) (B) (B) (B)
                 (B) (A) (B) (A) (A) (A) (B) (B) (A) (B) (B) (A)
                 (A) (A) (A) (B) (B) (A) (B) (A) (B) (A) (A) (A)
                 (A) (B) (B) (A) (B) (A) (B) (B) (B) (A) (B) (A)
                 (A) (B) (B) (B) (B) (B) (B) (A) (A) (B) (B) (A)
                 (A) (A) (A) (A) (A) (A) (B) (B) (A) (B) (B) (A)
                 (A) (A) (B) (B) (A) (A) (A) (B) (A) (A) (B) (B)
                 (A) (B) (B) (A) (B) (B) (A) (A) (B) (A) (A) (B)
                 (B) (A) (A) (A) (A) (B) (B) (B) (B) (A) (A) (A)
                 (B) (B) (A) (A) (A) (A) (B) (B) (A) (A) (B) (B)
                 (A) (A) (B) (B) (A) (A) (B) (B) (A) (B) (B) (A)
                 (A) (A) (B) (B) (A) (A) (B) (B) (A) (A) (B) (B)
                 (B) (A) (B) (A) (A) (B) (A) (A) (A) (B) (A) (B)
                 (B) (B) (B) (B) (A) (A) (B) (A) (B) (A) (B) (A)
                 (B) (A) (B) (A) (A) (B) (B) (B) (B) (A) (A) (A)
                 (A) (B) (B) (A) (A) (B) (B) (B) (B) (A) (B) (A)
                 (B) (A) (B) (A) (B) (A) (A) (B) (B) (A) (B) (A)
                 (A) (B) (B) (A) (A) (B) (B) (A) (A) (A) (B) (A)
                 (A) (A) (B) (B) (B) (A) (A) (B) (B) (B) (A) (B)
                 (A) (A) (A) (A) (A) (B) (A) (A) (B) (B) (A) (B)
                 (A) (B) (B) (A) (B) (B) (B) (A) (A) (A) (A) (B)
                 (B) (B) (B) (B) (A) (A) (B) (A) (A) (B) (B) (A)
                 (A) (B) (A) (A) (B) (B) (A) (A) (B) (B) (A) (A)
                 (B) (B) (B) (B) (B) (A) (A) (B) (A) (A) (B) (B)
                 (A) (A) (B) (B) (A) (A) (A) (B) (A) (A) (B) (B)
                 (B) (B) (A) (A) (B) (B) (B) (A) (A) (B) (B) (A)
                 (A) (B) (A) (A) (B) (B) (B) (B) (A) (A) (B) (A)
                 (B) (B) (A) (A) (A) (A) (A) (B) (B) (B) (B) (B)
                 (A) (A) (B) (A) (A) (B) (A) (B) (A) (B) (B) (A)
                 (B) (A) (B) (A) (B) (B) (B) (A) (A) (B) (A) (A)
                 (B) (B) (B) (B) (A) (A) (A) (A) (B) (B) (A) (B)
                 (B) (A) (A) (B) (B) (A) (A) (B) (B) (B) (B) (A)
                 (A) (B) (A) (A) (A) (B) (A) (B) (B) (A) (A) (B)
                 (B) (A) (A) (B) (B) (B) (B) (B) (B) (A) (B) (A)
                 (A) (B) (A) (B) (A) (A) (B) (B) (A) (A) (B) (A)
                 (B) (A) (A) (A) (A) (B) (B) (A) (B) (A) (A) (B)
                 (B) (A) (A) (B) (B) (A) (B) (B) (B) (A) (B) (A)
                 (B) (A) (A) (B) (A) (A) (B) (A) (B) (A) (B) (A)
                 (B) (B) (A) (B) (A) (A) (A) (B) (A) (B) (A) (B)
                 (B) (A) (B) (A) (B) (A) (A) (B) (B) (A) (B) (A)
                 (A) (A) (B) (A) (A) (B) (B) (A) (A) (B) (B) (A)
                 (A) (B) (B) (A) (B) (A) (B) (B) (B) (A) (A) (B)
                 (A) (B) (A) (A) (B) (B) (B) (B) (A) (B) (A) (A)
                 (A) (B) (A) (B) (A) (A) (B) (B) (B) (A) (A) (A)
                 (A) (B) (A) (B) (A) (B) (B) (A) (A) (B) (A) (A)
                 (B) (B) (B) (A) (B) (A) (B) (A) (A) (B) (B) (A)
                 (A) (B) (A) (B) (B) (B) (A) (B) (A) (A) (A) (B)
                 (A) (B) (B) (B) (A) (A) (A) (A) (B) (B) (B) (A)
                 (B) (A) (A) (B) (B) (A) (B) (B) (A) (A) (A) (A)
                 (B) (B) (A) (A) (A) (B) (B) (A) (B) (A) (B) (A)
                 (A) (B) (B) (A) (B) (B) (A) (A) (B) (A) (B) (A)
                 (A) (B) (B) (B) (A) (A) (A) (A) (B) (A) (A) (B)
                 (A) (A) (A) (B) (B) (A) (B) (B) (A) (A) (B) (B)
                 (B) (A) (A) (B) (B) (A) (B) (B) (A) (A) (B) (A)
                 (A) (B) (B) (B) (A) (B) (A) (A) (A) (B) (B) (B)
                 (A) (A) (B) (B) (B) (B) (B) (A) (B) (B) (A) (B)
                 (B) (B) (A) (B) (A) (A) (A) (B) (A) (A) (B) (B)
                 (A) (A) (A) (A) (B) (A) (B) (B) (A) (B) (B) (A)
                 (A) (B) (B) (A) (A) (B) (B) (A) (B) (A) (B) (A)
                 (A) (A) (A) (B) (B) (B) (B) (B) (B) (A) (A) (A)
                 (B) (B) (A) (A) (B) (A) (B) (A) (A) (B) (B) (A)
                 (A) (A) (A) (B) (B) (B) (B) (A) (A) (A) (B) (B)
                 (A) (A) (A) (A) (B) (B) (A) (A) (A) (B) (B) (B)
                 (A) (B) (A) (A) (B) (B) (B) (B) (B) (B) (A) (A)
                 (A) (A) (B) (A) (B) (A) (B) (B) (A) (A) (A) (A)
                 (B) (B) (B) (B) (A) (A) (A) (A) (B) (A) (A) (A)
                 (A) (B) (B) (A) (B) (B) (A) (B) (B) (B) (A) (A)
                 (A) (B) (A) (B) (A) (A) (B) (B) (B) (B) (A) (A)
                 (B) (A) (B) (A) (B) (A) (B) (A) (A) (A) (B) (B)
                 (B) (B) (A) (A) (A) (A) (B) (B) (A) (B) (A) (A)
                 (B) (A) (A) (B) (B) (B) (B) (A) (A) (A) (B) (B)
                 (A) (B) (A) (B) (B) (A) (B) (A) (A) (A) (B) (B)
                 (B) (B) (A) (B) (B) (A) (A) (A) (A) (B) (B) (A)
                 (A) (B) (B) (B) (B) (A) (B) (A) (A) (B) (A) (A)
                 (B) (A) (B) (A) (A) (A) (B) (B) (B) (A) (A) (B)
                 (A) (A) (B) (B) (B) (B) (A) (A) (B) (B) (B) (A)
                 (A) (B) (B) (A) (A) (B) (B) (B) (A) (B) (A) (A)
                 (B) (B) (A) (B) (B) (A) (A) (B) (A) (A) (B) (A)
                 (B) (A) (B) (A) (A) (B) (A) (A) (B) (A) (A) (B)
                 (B) (A) (B) (B) (A) (A) (B) (B) (B) (B) (A) (A)
                 (A) (A) (A) (B) (B) (A) (B) (A) (B) (A) (B) (A)
                 (A) (A) (B) (A) (B) (A) (A) (B) (A) (B) (B) (A)
                 (A) (B) (A) (B) (B) (A) (B) (A) (A) (A) (A) (B)
                 (B) (B) (A) (A) (B) (B) (A) (A) (B) (A) (A) (A)
                 (B) (B) (A) (B) (B) (B) (B) (A) (B) (A) (A) (B)
                 (A) (B) (B) (B) (B) (A) (A) (B) (B) (B) (A) (A)
                 (A) (A) (B) (B) (B) (B) (A) (A) (B) (B) (B) (A)
                 (B) (A) (B) (B) (A) (A) (A) (B) (A) (A) (B) (A)
                 (B) (B) (A) (A) (B) (B) (B) (A) (B) (A) (B) (A)
                 (A) (A) (A) (B) (A) (B) (A) (B) (B) (B) (B) (B)
                 (B) (A) (A) (A) (A) (A) (A) (B) (B) (B) (A) (A)
                 (B) (B) (A) (A) (A) (A) (B) (A) (B) (A) (B) (A)
                 (B) (A) (A) (A) (B) (B) (A) (A) (B) (B) (B) (A)
                 (A) (B) (B) (A) (A) (A) (B) (A) (A) (A) (B) (B)
                 (B) (A) (B) (B) (A) (B) (B) (B) (B) (A) (A) (A)
                 (A) (B) (A) (B) (B) (A) (A) (B) (A) (A) (B) (B)
                 (B) (A) (A) (B) (A) (A) (B) (A) (A) (B) (B) (A)
                 (A) (B) (B) (B) (B) (A) (B) (A) (B) (B) (B) (A)
                 (A) (A) (A) (B) (B) (B) (A) (B) (A) (B) (A) (A)
                 (B) (B) (B) (A) (A) (B) (A) (B) (A) (A) (A) (B)
                 (B) (A) (A) (B) (B) (A) (A) (B) (A) (B) (A) (A)
                 (B) (B) (A) (B) (A) (B) (A) (A) (A) (B) (B) (A)
                 (B) (B) (B) (A) (A) (B) (A) (B) (A) (B) (B) (B)
                 (B) (A) (A) (A) (A) (B) (B) (B) (A) (B) (A) (B)
                 (A) (A) (A) (B) (A) (B) (A) (A) (B) (B) (A) (A)
                 (B) (B) (B) (B) (B) (B) (A) (A) (A) (A) (B) (B)
                 (A) (B) (B) (A) (A) (A) (B) (B) (A) (A) (A) (B)
                 (A) (A) (B) (A) (B) (B) (A) (A) (B) (B) (B) (B)
                 (A) (A) (A) (A) (B) (A) (B) (B) (A) (A) (B) (A)
                 (B) (A) (B) (A) (A) (B) (A) (B) (A) (B) (B) (A)
                 (B) (B) (A) (A) (B) (B) (A) (B) (B) (A) (A) (B)
                 (B) (A) (A) (A) (A) (B) (B) (A) (A) (A) (A) (B)
                 (B) (A) (A) (B) (B) (A) (A) (B) (B) (B) (B) (B)
                 (A) (A) (B) (B) (B) (A) (B) (A) (B) (B) (A) (A)
                 (B) (B) (A) (A) (B) (B) (A) (A) (A) (B) (A) (A)
                 (A) (A) (B) (A) (B) (B) (A) (A) (A) (B) (B) (B)
                 (B) (A) (A) (A) (B) (A) (A) (A) (B) (B) (A) (A)
                 (A)
 Initial guess <Sx>= 0.0000 <Sy>= 0.0000 <Sz>= 1.0000 <S**2>= 2.0000 S= 1.0000
 Leave Link  401 at Wed Mar 10 19:55:58 2021, MaxMem= 21474836480 cpu:              64.0 elap:              63.6
 (Enter C:/G16W\l502.exe)
 Integral symmetry usage will be decided dynamically.
 UHF open shell SCF:
 Using DIIS extrapolation, IDIIS=  1040.
 NGot= 21474836480 LenX= 21465816690 LenY= 21461337118
 Requested convergence on RMS density matrix=1.00D-08 within 128 cycles.
 Requested convergence on MAX density matrix=1.00D-06.
 Requested convergence on             energy=1.00D-06.
 No special actions if energy rises.
 An orbital has undefined symmetry, so N**3 symmetry is turned off.

 Cycle   1  Pass 1  IDiag  1:
 Density matrix breaks symmetry, PCut= 1.00D-04
 Density matrix has no symmetry -- integrals replicated.
 FoFJK:  IHMeth= 1 ICntrl=       0 DoSepK=F KAlg= 0 I1Cent=           0 FoldK=F
 IRaf= 340000000 NMat=       1 IRICut=       1 DoRegI=T DoRafI=F ISym2E= 2 IDoP0=0 IntGTp=1.
 FoFCou: FMM=T IPFlag=           0 FMFlag=      100000 FMFlg1=        2000
         NFxFlg=           0 DoJE=F BraDBF=F KetDBF=F FulRan=T
         wScrn=  0.000000 ICntrl=         0 IOpCl=  1 I1Cent=           0 NGrid=           0
         NMat0=    1 NMatS0=      1 NMatT0=    0 NMatD0=    1 NMtDS0=    0 NMtDT0=    0
 Symmetry not used in FoFCou.
 FMM levels:  10  Number of levels for PrismC:   9
 E= -12799.9080388671    
 DIIS: error= 4.16D-02 at cycle   1 NSaved=   1.
 NSaved= 1 IEnMin= 1 EnMin= -12799.9080388671     IErMin= 1 ErrMin= 4.16D-02
 ErrMax= 4.16D-02  0.00D+00 EMaxC= 1.00D-01 BMatC= 1.03D+01 BMatP= 1.03D+01
 IDIUse=3 WtCom= 5.84D-01 WtEn= 4.16D-01
 Coeff-Com:  0.100D+01
 Coeff-En:   0.100D+01
 Coeff:      0.100D+01
 Gap=     0.014 Goal=   None    Shift=    0.000
 Gap=     0.007 Goal=   None    Shift=    0.000
 GapD=    0.007 DampG=0.250 DampE=0.500 DampFc=0.2500 IDamp=-1.
 Damping current iteration by 2.50D-01
 RMSDP=4.46D-03 MaxDP=9.82D-01              OVMax= 9.84D-01

 Cycle   2  Pass 1  IDiag  1:
 Density matrix breaks symmetry, PCut= 1.00D-04
 Density matrix has no symmetry -- integrals replicated.
 E= -12799.9698231389     Delta-E=       -0.061784271777 Rises=F Damp=T
 DIIS: error= 2.08D-02 at cycle   2 NSaved=   2.
 NSaved= 2 IEnMin= 2 EnMin= -12799.9698231389     IErMin= 2 ErrMin= 2.08D-02
 ErrMax= 2.08D-02  0.00D+00 EMaxC= 1.00D-01 BMatC= 2.53D+00 BMatP= 1.03D+01
 IDIUse=3 WtCom= 7.92D-01 WtEn= 2.08D-01
 Coeff-Com: -0.170D+00 0.117D+01
 Coeff-En:   0.484D+00 0.516D+00
 Coeff:     -0.343D-01 0.103D+01
 Gap=    -0.422 Goal=   None    Shift=    0.000
 Gap=     0.002 Goal=   None    Shift=    0.000
 RMSDP=1.17D-02 MaxDP=3.04D+00 DE=-6.18D-02 OVMax= 9.93D-01

 Cycle   3  Pass 1  IDiag  1:
 Density matrix breaks symmetry, PCut= 1.00D-04
 Density matrix has no symmetry -- integrals replicated.
 E= -12480.0895422047     Delta-E=      319.880280934187 Rises=F Damp=F
 DIIS: error= 2.03D-01 at cycle   3 NSaved=   3.
 NSaved= 3 IEnMin= 2 EnMin= -12799.9698231389     IErMin= 2 ErrMin= 2.08D-02
 ErrMax= 2.03D-01  0.00D+00 EMaxC= 1.00D-01 BMatC= 3.75D+02 BMatP= 2.53D+00
 IDIUse=2 WtCom= 0.00D+00 WtEn= 1.00D+00
 Rare condition: small coef for last iteration:  0.000D+00
 Coeff-En:   0.440D+00 0.550D+00 0.996D-02
 Coeff:      0.440D+00 0.550D+00 0.996D-02
 Gap=    -0.210 Goal=   None    Shift=    0.000
 Gap=     0.011 Goal=   None    Shift=    0.000
 RMSDP=1.16D-02 MaxDP=3.05D+00 DE= 3.20D+02 OVMax= 9.97D-01

 Cycle   4  Pass 1  IDiag  1:
 Density matrix breaks symmetry, PCut= 1.00D-04
 Density matrix has no symmetry -- integrals replicated.
 E= -12800.0311507893     Delta-E=     -319.941608584595 Rises=F Damp=F
 DIIS: error= 2.81D-02 at cycle   4 NSaved=   4.
 NSaved= 4 IEnMin= 4 EnMin= -12800.0311507893     IErMin= 2 ErrMin= 2.08D-02
 ErrMax= 2.81D-02  0.00D+00 EMaxC= 1.00D-01 BMatC= 8.71D+00 BMatP= 2.53D+00
 IDIUse=2 WtCom= 0.00D+00 WtEn= 1.00D+00
 EnCoef did     3 forward-backward iterations
 Coeff-En:   0.419D+00 0.973D-01 0.000D+00 0.484D+00
 Coeff:      0.419D+00 0.973D-01 0.000D+00 0.484D+00
 Gap=     0.005 Goal=   None    Shift=    0.000
 Gap=     0.007 Goal=   None    Shift=    0.000
 RMSDP=3.16D-03 MaxDP=6.07D-01 DE=-3.20D+02 OVMax= 9.90D-01

 Cycle   5  Pass 1  IDiag  1:
 Density matrix breaks symmetry, PCut= 1.00D-04
 Density matrix has no symmetry -- integrals replicated.
 E= -12771.3902169728     Delta-E=       28.640933816496 Rises=F Damp=F
 DIIS: error= 7.88D-02 at cycle   5 NSaved=   5.
 NSaved= 5 IEnMin= 4 EnMin= -12800.0311507893     IErMin= 2 ErrMin= 2.08D-02
 ErrMax= 7.88D-02  0.00D+00 EMaxC= 1.00D-01 BMatC= 4.53D+01 BMatP= 2.53D+00
 IDIUse=2 WtCom= 0.00D+00 WtEn= 1.00D+00
 EnCoef did   100 forward-backward iterations
 Coeff-En:   0.404D+00 0.927D-02 0.000D+00 0.516D+00 0.706D-01
 Coeff:      0.404D+00 0.927D-02 0.000D+00 0.516D+00 0.706D-01
 Gap=     0.187 Goal=   None    Shift=    0.000
 Gap=     0.010 Goal=   None    Shift=    0.000
 RMSDP=2.61D-03 MaxDP=5.14D-01 DE= 2.86D+01 OVMax= 9.92D-01

 Cycle   6  Pass 1  IDiag  1:
 Density matrix breaks symmetry, PCut= 1.00D-04
 Density matrix has no symmetry -- integrals replicated.
 E= -12801.6785769071     Delta-E=      -30.288359934304 Rises=F Damp=F
 DIIS: error= 1.71D-02 at cycle   6 NSaved=   6.
 NSaved= 6 IEnMin= 6 EnMin= -12801.6785769071     IErMin= 6 ErrMin= 1.71D-02
[...]
  Beta virt. eigenvalues --    2.46088   2.46496   2.46602   2.46744   2.47134
  Beta virt. eigenvalues --    2.47337   2.47390   2.47496   2.47532   2.47877
  Beta virt. eigenvalues --    2.48025   2.48064   2.48080   2.48363   2.48409
  Beta virt. eigenvalues --    2.50117   2.50301   2.50450   2.51027   2.51164
  Beta virt. eigenvalues --    2.51296   2.51431   2.52064   2.52072   2.53127
  Beta virt. eigenvalues --    2.53198   2.53620   2.53812   2.54366   2.54445
  Beta virt. eigenvalues --    2.54681   2.54775   2.55712   2.55764   2.56480
  Beta virt. eigenvalues --    2.56925   2.59314   2.62473   2.62957   2.66883
  Beta virt. eigenvalues --    2.70697   2.71004   2.71211   2.72396   2.73718
  Beta virt. eigenvalues --    2.75270   2.75446   2.75538   2.76007   2.78112
  Beta virt. eigenvalues --    2.79406   2.81313   2.86100   2.89789   2.90097
  Beta virt. eigenvalues --    2.97857   2.98953   2.99243   3.02030   3.02125
  Beta virt. eigenvalues --    3.02322   3.02330   3.06227   3.06586   3.47331
          Condensed to atoms (all electrons):
          Atomic-Atomic Spin Densities.
 Mulliken charges and spin densities:
               1          2
     1  C    0.145473  -0.130915
     2  C   -0.085931   0.108006
     3  C   -0.085931   0.108006
     4  C   -0.087661  -0.052663
     5  C   -0.087661  -0.052663
     6  C   -0.128571   0.087911
     7  S    0.090372   0.004352
     8  S    0.070206  -0.003605
     9  S    0.070206  -0.003605
    10  S    0.090372   0.004352
    11  C    0.072271   0.000341
    12  H    0.050794  -0.000028
    13  H    0.046897   0.000050
    14  H    0.053077  -0.000185
    15  C   -0.464970  -0.000647
    16  C    0.020648  -0.000053
    17  H    0.056507  -0.000010
    18  H    0.055995  -0.000089
    19  H    0.059909   0.000004
    20  C    0.072271   0.000341
    21  H    0.046897   0.000050
    22  H    0.053077  -0.000185
    23  H    0.050794  -0.000028
    24  C   -0.464970  -0.000647
    25  C    0.020648  -0.000053
    26  H    0.055995  -0.000089
    27  H    0.059909   0.000004
    28  H    0.056507  -0.000010
    29  C    0.049916  -0.110255
    30  C   -0.050793   0.092444
    31  C   -0.054569   0.094819
    32  C   -0.083845  -0.044862
    33  S    0.090016   0.008232
    34  C   -0.070314  -0.046862
    35  S    0.082381   0.012184
    36  C    0.069473   0.096484
    37  S    0.066551  -0.003108
    38  C   -0.466912  -0.000839
    39  S    0.064236  -0.002337
    40  C   -0.465691  -0.000612
    41  H   -0.000751  -0.004851
    42  C    0.019793   0.000033
    43  C    0.074744   0.000424
    44  C    0.019604   0.000012
    45  C    0.085356   0.000327
    46  H    0.059566  -0.000011
    47  H    0.055062   0.000002
    48  H    0.060129  -0.000022
    49  H    0.040868  -0.000456
    50  H    0.047928  -0.000047
    51  H    0.054176  -0.000010
    52  H    0.056177  -0.000016
    53  H    0.058279  -0.000022
    54  H    0.058008  -0.000004
    55  H    0.044502   0.000084
    56  H    0.048445  -0.000039
    57  H    0.041529  -0.000284
    58  C   -0.183212   0.721239
    59  C    0.049916  -0.110255
    60  C   -0.050793   0.092444
    61  C   -0.054569   0.094819
    62  C   -0.083845  -0.044862
    63  S    0.090016   0.008232
    64  C   -0.070314  -0.046862
    65  S    0.082381   0.012184
    66  C    0.069473   0.096484
    67  S    0.066551  -0.003108
    68  C   -0.466912  -0.000839
    69  S    0.064236  -0.002337
    70  C   -0.465691  -0.000612
    71  H   -0.000751  -0.004851
    72  C    0.019793   0.000033
    73  C    0.074744   0.000424
    74  C    0.019604   0.000012
    75  C    0.085356   0.000327
    76  H    0.059566  -0.000011
    77  H    0.055062   0.000002
    78  H    0.060129  -0.000022
    79  H    0.040868  -0.000456
    80  H    0.047928  -0.000047
    81  H    0.054176  -0.000010
    82  H    0.056177  -0.000016
    83  H    0.058279  -0.000022
    84  H    0.058008  -0.000004
    85  H    0.044502   0.000084
    86  H    0.048445  -0.000039
    87  H    0.041529  -0.000284
    88  C    0.017824   0.008166
    89  C    0.017824   0.008166
    90  C    0.017505  -0.002606
    91  H    0.003196  -0.000349
    92  C    0.017505  -0.002606
    93  H    0.003196  -0.000349
    94  H    0.004864   0.000123
    95  H    0.004864   0.000123
    96  C   -0.139731   0.082655
    97  C   -0.085169  -0.049111
    98  C   -0.085169  -0.049111
    99  C   -0.082781   0.102584
   100  S    0.073975  -0.003345
   101  C   -0.082781   0.102584
   102  S    0.073975  -0.003345
   103  C    0.137787  -0.125865
   104  S    0.089361   0.003520
   105  C   -0.464996  -0.000576
   106  S    0.089361   0.003520
   107  C   -0.464996  -0.000576
   108  C   -0.181789   0.725826
   109  C    0.072396   0.000332
   110  C    0.020880  -0.000053
   111  C    0.072396   0.000332
   112  C    0.020880  -0.000053
   113  C    0.051852  -0.112289
   114  C    0.051852  -0.112289
   115  H    0.050630  -0.000028
   116  H    0.046060   0.000048
   117  H    0.052039  -0.000151
   118  H    0.056842  -0.000006
   119  H    0.056095  -0.000083
   120  H    0.059528   0.000005
   121  H    0.046060   0.000048
   122  H    0.052039  -0.000151
   123  H    0.050630  -0.000028
   124  H    0.056095  -0.000083
   125  H    0.059528   0.000005
   126  H    0.056842  -0.000006
   127  C   -0.050376   0.094964
   128  C   -0.056490   0.097720
   129  C   -0.050376   0.094964
   130  C   -0.056490   0.097720
   131  C   -0.083468  -0.046343
   132  S    0.089141   0.008242
   133  C   -0.069588  -0.048200
   134  S    0.082664   0.012966
   135  C   -0.083468  -0.046343
   136  S    0.089141   0.008242
   137  C   -0.069588  -0.048200
   138  S    0.082664   0.012966
   139  C    0.069325   0.099198
   140  S    0.066762  -0.003250
   141  C   -0.467054  -0.000849
   142  S    0.064104  -0.002402
   143  C   -0.466242  -0.000652
   144  C    0.069325   0.099198
   145  S    0.066762  -0.003250
   146  C   -0.467054  -0.000849
   147  S    0.064104  -0.002402
   148  C   -0.466242  -0.000652
   149  H   -0.000685  -0.004990
   150  C    0.019794   0.000038
   151  C    0.073048   0.000443
   152  C    0.019995   0.000014
   153  C    0.086253   0.000332
   154  H   -0.000685  -0.004990
   155  C    0.019794   0.000038
   156  C    0.073048   0.000443
   157  C    0.019995   0.000014
   158  C    0.086253   0.000332
   159  H    0.059502  -0.000012
   160  H    0.055163   0.000000
   161  H    0.060234  -0.000022
   162  H    0.043365  -0.000472
   163  H    0.048055  -0.000041
   164  H    0.053195  -0.000004
   165  H    0.056347  -0.000020
   166  H    0.058203  -0.000022
   167  H    0.057115  -0.000006
   168  H    0.044693   0.000089
   169  H    0.048332  -0.000035
   170  H    0.041659  -0.000332
   171  H    0.059502  -0.000012
   172  H    0.055163   0.000000
   173  H    0.060234  -0.000022
   174  H    0.043365  -0.000472
   175  H    0.048055  -0.000041
   176  H    0.053195  -0.000004
   177  H    0.056347  -0.000020
   178  H    0.058203  -0.000022
   179  H    0.057115  -0.000006
   180  H    0.044693   0.000089
   181  H    0.048332  -0.000035
   182  H    0.041659  -0.000332
   183  C   -0.241285  -0.007817
   184  C   -0.250222   0.004140
   185  C    0.176459   0.045627
   186  C    0.168449   0.051284
   187  C    0.215251  -0.030019
   188  C    0.211153  -0.020894
 Sum of Mulliken charges =   0.00000   2.00000
 Mulliken charges and spin densities with hydrogens summed into heavy atoms:
               1          2
     1  C    0.145473  -0.130915
     2  C   -0.085931   0.108006
     3  C   -0.085931   0.108006
     4  C   -0.087661  -0.052663
     5  C   -0.087661  -0.052663
     6  C   -0.128571   0.087911
     7  S    0.090372   0.004352
     8  S    0.070206  -0.003605
     9  S    0.070206  -0.003605
    10  S    0.090372   0.004352
    11  C    0.223038   0.000177
    15  C   -0.464970  -0.000647
    16  C    0.193058  -0.000147
    20  C    0.223038   0.000177
    24  C   -0.464970  -0.000647
    25  C    0.193058  -0.000147
    29  C    0.049916  -0.110255
    30  C   -0.050793   0.092444
    31  C   -0.054569   0.094819
    32  C   -0.083845  -0.044862
    33  S    0.090016   0.008232
    34  C   -0.070314  -0.046862
    35  S    0.082381   0.012184
    36  C    0.068722   0.091633
    37  S    0.066551  -0.003108
    38  C   -0.466912  -0.000839
    39  S    0.064236  -0.002337
    40  C   -0.465691  -0.000612
    42  C    0.194551   0.000002
    43  C    0.217716  -0.000089
    44  C    0.192068  -0.000029
    45  C    0.219832   0.000087
    58  C   -0.183212   0.721239
    59  C    0.049916  -0.110255
    60  C   -0.050793   0.092444
    61  C   -0.054569   0.094819
    62  C   -0.083845  -0.044862
    63  S    0.090016   0.008232
    64  C   -0.070314  -0.046862
    65  S    0.082381   0.012184
    66  C    0.068722   0.091633
    67  S    0.066551  -0.003108
    68  C   -0.466912  -0.000839
    69  S    0.064236  -0.002337
    70  C   -0.465691  -0.000612
    72  C    0.194551   0.000002
    73  C    0.217716  -0.000089
    74  C    0.192068  -0.000029
    75  C    0.219832   0.000087
    88  C    0.021020   0.007817
    89  C    0.021020   0.007817
    90  C    0.022369  -0.002483
    92  C    0.022369  -0.002483
    96  C   -0.139731   0.082655
    97  C   -0.085169  -0.049111
    98  C   -0.085169  -0.049111
    99  C   -0.082781   0.102584
   100  S    0.073975  -0.003345
   101  C   -0.082781   0.102584
   102  S    0.073975  -0.003345
   103  C    0.137787  -0.125865
   104  S    0.089361   0.003520
   105  C   -0.464996  -0.000576
   106  S    0.089361   0.003520
   107  C   -0.464996  -0.000576
   108  C   -0.181789   0.725826
   109  C    0.221124   0.000200
   110  C    0.193346  -0.000137
   111  C    0.221124   0.000200
   112  C    0.193346  -0.000137
   113  C    0.051852  -0.112289
   114  C    0.051852  -0.112289
   127  C   -0.050376   0.094964
   128  C   -0.056490   0.097720
   129  C   -0.050376   0.094964
   130  C   -0.056490   0.097720
   131  C   -0.083468  -0.046343
   132  S    0.089141   0.008242
   133  C   -0.069588  -0.048200
   134  S    0.082664   0.012966
   135  C   -0.083468  -0.046343
   136  S    0.089141   0.008242
   137  C   -0.069588  -0.048200
   138  S    0.082664   0.012966
   139  C    0.068640   0.094208
   140  S    0.066762  -0.003250
   141  C   -0.467054  -0.000849
   142  S    0.064104  -0.002402
   143  C   -0.466242  -0.000652
   144  C    0.068640   0.094208
   145  S    0.066762  -0.003250
   146  C   -0.467054  -0.000849
   147  S    0.064104  -0.002402
   148  C   -0.466242  -0.000652
   150  C    0.194693   0.000003
   151  C    0.217664  -0.000075
   152  C    0.191660  -0.000034
   153  C    0.220937   0.000054
   155  C    0.194693   0.000003
   156  C    0.217664  -0.000075
   157  C    0.191660  -0.000034
   158  C    0.220937   0.000054
   183  C   -0.241285  -0.007817
   184  C   -0.250222   0.004140
   185  C    0.176459   0.045627
   186  C    0.168449   0.051284
   187  C    0.215251  -0.030019
   188  C    0.211153  -0.020894
 Electronic spatial extent (au):  <R**2>=         368916.3792
 Charge=              0.0000 electrons
 Dipole moment (field-independent basis, Debye):
    X=              0.0000    Y=              0.0000    Z=             -0.0600  Tot=              0.0600
 Quadrupole moment (field-independent basis, Debye-Ang):
   XX=           -757.1205   YY=           -786.5414   ZZ=           -736.6583
   XY=              4.1253   XZ=              0.0000   YZ=              0.0000
 Traceless Quadrupole moment (field-independent basis, Debye-Ang):
   XX=              2.9862   YY=            -26.4347   ZZ=             23.4485
   XY=              4.1253   XZ=              0.0000   YZ=              0.0000
 Octapole moment (field-independent basis, Debye-Ang**2):
  XXX=              0.0000  YYY=              0.0000  ZZZ=             18.2178  XYY=              0.0000
  XXY=              0.0000  XXZ=             -8.1824  XZZ=              0.0000  YZZ=              0.0000
  YYZ=             -1.4274  XYZ=            137.4059
 Hexadecapole moment (field-independent basis, Debye-Ang**3):
 XXXX=         -25169.1761 YYYY=         -29997.7029 ZZZZ=        -419102.5364 XXXY=             31.9582
 XXXZ=              0.0000 YYYX=             -4.3659 YYYZ=              0.0000 ZZZX=              0.0000
 ZZZY=              0.0000 XXYY=          -9453.5511 XXZZ=         -76025.7096 YYZZ=         -82160.8608
 XXYZ=              0.0000 YYXZ=              0.0000 ZZXY=             78.5330
 N-N= 3.080615158492D+04 E-N=-9.185824472317D+04  KE= 1.275947404422D+04
 Symmetry A    KE= 6.575039262263D+03
 Symmetry B    KE= 6.184434781956D+03
 Symmetry A    SP= 5.058552260218D-12
 Symmetry B    SP= 2.000000000004D+00
 Leave Link  601 at Thu Mar 11 02:38:53 2021, MaxMem= 21474836480 cpu:              88.0 elap:              88.1
 (Enter C:/G16W\l9999.exe)
 Unable to Open any file for archive entry.
 1|1|UNPC-KYNARETH|SP|UM06|CC-pVDZ|C84H80S24(3)|ADMINISTRATOR|11-Mar-20
 21|0||#p um06/cc-pVDZ guess=mix scf=(tight,novaracc,noincfock,maxcycle
 =128) integral=(grid=ultrafine)||Olav's radical, triplet state energy|
 |0,3|C,0,0.,0.,8.320296|C,0,0.517304,1.091994,7.593572|C,0,-0.517304,-
 1.091994,7.593572|C,0,0.512427,1.091505,6.198112|C,0,-0.512427,-1.0915
 05,6.198112|C,0,0.,0.,5.482307|S,0,-1.167047,-2.567402,8.344013|S,0,-1
 .189451,-2.523535,5.406261|S,0,1.189451,2.523535,5.406261|S,0,1.167047
 ,2.567402,8.344013|C,0,-0.588014,4.083818,6.837957|H,0,-0.781649,4.683
 504,7.739467|H,0,-0.758813,4.690505,5.936905|H,0,-1.264806,3.217488,6.
 829787|C,0,0.867404,3.601995,6.856248|C,0,1.861724,4.768664,6.853882|H
 ,0,2.891764,4.389988,6.866569|H,0,1.701309,5.379986,5.953752|H,0,1.686
 143,5.394585,7.740997|C,0,0.588014,-4.083818,6.837957|H,0,0.758813,-4.
 690505,5.936905|H,0,1.264806,-3.217488,6.829787|H,0,0.781649,-4.683504
 ,7.739467|C,0,-0.867404,-3.601995,6.856248|C,0,-1.861724,-4.768664,6.8
 53882|H,0,-1.701309,-5.379986,5.953752|H,0,-1.686143,-5.394585,7.74099
 7|H,0,-2.891764,-4.389988,6.866569|C,0,1.17819,0.520375,10.485414|C,0,
 1.055216,1.479284,11.510847|C,0,2.475143,0.145607,10.082947|C,0,2.1910
 19,2.098668,12.03979|S,0,-0.501206,2.119303,12.063718|C,0,3.604467,0.7
 53048,10.644351|S,0,2.813679,-1.17597,8.948729|C,0,3.470098,1.744724,1
 1.611369|S,0,1.895001,3.44681,13.152719|C,0,0.197286,2.897899,13.57729
 7|S,0,5.172583,0.150689,10.07879|C,0,4.486292,-0.548267,8.523031|H,0,4
 .347947,2.240186,12.023223|C,0,-0.653872,4.119301,13.946522|C,0,0.2510
 51,1.872967,14.714942|C,0,5.359894,-1.725019,8.07217|C,0,4.379797,0.53
 6695,7.444624|H,0,-1.678982,3.790624,14.17173|H,0,-0.232595,4.597048,1
 4.843136|H,0,-0.668869,4.834875,13.115399|H,0,0.855848,1.009568,14.404
 992|H,0,0.704518,2.338523,15.60213|H,0,-0.769568,1.536616,14.949425|H,
 0,6.369538,-1.356736,7.838341|H,0,5.414973,-2.483897,8.862712|H,0,4.92
 791,-2.16524,7.161222|H,0,5.384098,0.931536,7.229103|H,0,3.94602,0.097
 527,6.533736|H,0,3.72748,1.352345,7.789265|C,0,0.,0.,9.782858|C,0,-1.1
 7819,-0.520375,10.485414|C,0,-1.055216,-1.479284,11.510847|C,0,-2.4751
 43,-0.145607,10.082947|C,0,-2.191019,-2.098668,12.03979|S,0,0.501206,-
 2.119303,12.063718|C,0,-3.604467,-0.753048,10.644351|S,0,-2.813679,1.1
 7597,8.948729|C,0,-3.470098,-1.744724,11.611369|S,0,-1.895001,-3.44681
 ,13.152719|C,0,-0.197286,-2.897899,13.577297|S,0,-5.172583,-0.150689,1
 0.07879|C,0,-4.486292,0.548267,8.523031|H,0,-4.347947,-2.240186,12.023
 223|C,0,0.653872,-4.119301,13.946522|C,0,-0.251051,-1.872967,14.714942
 |C,0,-5.359894,1.725019,8.07217|C,0,-4.379797,-0.536695,7.444624|H,0,1
 .678982,-3.790624,14.17173|H,0,0.232595,-4.597048,14.843136|H,0,0.6688
 69,-4.834875,13.115399|H,0,-0.855848,-1.009568,14.404992|H,0,-0.704518
 ,-2.338523,15.60213|H,0,0.769568,-1.536616,14.949425|H,0,-6.369538,1.3
 56736,7.838341|H,0,-5.414973,2.483897,8.862712|H,0,-4.92791,2.16524,7.
 161222|H,0,-5.384098,-0.931536,7.229103|H,0,-3.94602,-0.097527,6.53373
 6|H,0,-3.72748,-1.352345,7.789265|C,0,1.039385,0.627607,0.690813|C,0,-
 1.039385,-0.627607,0.690813|C,0,1.040098,0.628465,-0.697803|H,0,1.8402
 08,1.10793,1.246975|C,0,-1.040098,-0.628465,-0.697803|H,0,-1.840208,-1
 .10793,1.246975|H,0,1.842305,1.112275,-1.253748|H,0,-1.842305,-1.11227
 5,-1.253748|C,0,0.,0.,-5.494731|C,0,-0.435498,1.124418,-6.210104|C,0,0
 .435498,-1.124418,-6.210104|C,0,-0.443051,1.123474,-7.606081|S,0,-1.01
 9321,2.596656,-5.419139|C,0,0.443051,-1.123474,-7.606081|S,0,1.019321,
 -2.596656,-5.419139|C,0,0.,0.,-8.331191|S,0,-1.001072,2.633631,-8.3593
 9|C,0,-0.641147,3.651786,-6.873393|S,0,1.001072,-2.633631,-8.35939|C,0
 ,0.641147,-3.651786,-6.873393|C,0,0.,0.,-9.796594|C,0,0.838536,4.05252
 5,-6.859046|C,0,-1.568624,4.872309,-6.87078|C,0,-0.838536,-4.052525,-6
 .859046|C,0,1.568624,-4.872309,-6.87078|C,0,-1.157441,0.570861,-10.492
 788|C,0,1.157441,-0.570861,-10.492788|H,0,1.062971,4.639755,-7.76153|H
 ,0,1.044258,4.650798,-5.959024|H,0,1.466766,3.150695,-6.850576|H,0,-2.
 618097,4.551732,-6.881644|H,0,-1.373211,5.474785,-5.971487|H,0,-1.3596
 05,5.486592,-7.758709|H,0,-1.044258,-4.650798,-5.959024|H,0,-1.466766,
 -3.150695,-6.850576|H,0,-1.062971,-4.639755,-7.76153|H,0,1.373211,-5.4
 74785,-5.971487|H,0,1.359605,-5.486592,-7.758709|H,0,2.618097,-4.55173
 2,-6.881644|C,0,-0.999322,1.521531,-11.521511|C,0,-2.467303,0.264181,-
 10.073065|C,0,0.999322,-1.521531,-11.521511|C,0,2.467303,-0.264181,-10
 .073065|C,0,-2.10845,2.203533,-12.029999|S,0,0.580184,2.07162,-12.1054
 86|C,0,-3.57059,0.934209,-10.613887|S,0,-2.860692,-1.042931,-8.939713|
 C,0,2.10845,-2.203533,-12.029999|S,0,-0.580184,-2.07162,-12.105486|C,0
 ,3.57059,-0.934209,-10.613887|S,0,2.860692,1.042931,-8.939713|C,0,-3.3
 97903,1.920373,-11.580261|S,0,-1.756745,3.536037,-13.146017|C,0,-0.103
 727,2.8891,-13.606156|S,0,-5.159701,0.417937,-10.02135|C,0,-4.483947,-
 0.319651,-8.478454|C,0,3.397903,-1.920373,-11.580261|S,0,1.756745,-3.5
 36037,-13.146017|C,0,0.103727,-2.8891,-13.606156|S,0,5.159701,-0.41793
 7,-10.02135|C,0,4.483947,0.319651,-8.478454|H,0,-4.253522,2.465359,-11
 .976073|C,0,0.808395,4.058639,-13.997612|C,0,-0.242951,1.867202,-14.73
 9266|C,0,-5.413672,-1.443777,-8.007924|C,0,-4.291395,0.757187,-7.40414
 7|H,0,4.253522,-2.465359,-11.976073|C,0,-0.808395,-4.058639,-13.997612
 |C,0,0.242951,-1.867202,-14.739266|C,0,5.413672,1.443777,-8.007924|C,0
 ,4.291395,-0.757187,-7.404147|H,0,1.807708,3.671037,-14.242772|H,0,0.3
 96061,4.557303,-14.88708|H,0,0.881752,4.774638,-13.169988|H,0,-0.88622
 9,1.038663,-14.411275|H,0,-0.692564,2.355821,-15.616081|H,0,0.750826,1
 .474485,-14.999366|H,0,-6.39514,-1.017567,-7.751764|H,0,-5.530075,-2.1
 97428,-8.796307|H,0,-4.988181,-1.909011,-7.106483|H,0,-5.265834,1.2086
 05,-7.165567|H,0,-3.861098,0.294708,-6.502865|H,0,-3.601883,1.535106,-
 7.7652|H,0,-1.807708,-3.671037,-14.242772|H,0,-0.396061,-4.557303,-14.
 88708|H,0,-0.881752,-4.774638,-13.169988|H,0,0.886229,-1.038663,-14.41
 1275|H,0,0.692564,-2.355821,-15.616081|H,0,-0.750826,-1.474485,-14.999
 366|H,0,6.39514,1.017567,-7.751764|H,0,5.530075,2.197428,-8.796307|H,0
 ,4.988181,1.909011,-7.106483|H,0,5.265834,-1.208605,-7.165567|H,0,3.86
 1098,-0.294708,-6.502865|H,0,3.601883,-1.535106,-7.7652|C,0,0.,0.,1.39
 1859|C,0,0.,0.,-1.39898|C,0,0.,0.,-2.843793|C,0,0.,0.,2.83384|C,0,0.,0
 .,4.045063|C,0,0.,0.,-4.054643||Version=EM64W-G16RevC.01|HF=-12803.049
 6811|S2=2.066451|S2-1=0.|S2A=2.003183|RMSD=1.729e-009|Dipole=0.,0.,0.0
 236052|Quadrupole=-19.6535426,2.2201918,17.4333507,3.0670305,-0.000000
 6,0.|PG=C02 [C2(C1C1C1C1C1C1C1C1C1C1C1C1),X(C72H80S24)]||@
 The archive entry for this job was punched.


 The hours that make us happy make us wise.
                         -- John Masefield
 Job cpu time:       0 days  6 hours 44 minutes 42.0 seconds.
 Elapsed time:       0 days  6 hours 44 minutes 19.7 seconds.
 File lengths (MBytes):  RWF=   2534 Int=      0 D2E=      0 Chk=    279 Scr=      1
 Normal termination of Gaussian 16 at Thu Mar 11 02:38:57 2021.
