 Entering Link 1 = C:\G03W\l1.exe PID=      4748.
  
 Copyright (c) 1988,1990,1992,1993,1995,1998,2003,2004,2007, Gaussian, Inc.
                  All Rights Reserved.
  
 This is the Gaussian(R) 03 program.  It is based on the
 the Gaussian(R) 98 system (copyright 1998, Gaussian, Inc.),
 the Gaussian(R) 94 system (copyright 1995, Gaussian, Inc.),
 the Gaussian 92(TM) system (copyright 1992, Gaussian, Inc.),
 the Gaussian 90(TM) system (copyright 1990, Gaussian, Inc.),
 the Gaussian 88(TM) system (copyright 1988, Gaussian, Inc.),
 the Gaussian 86(TM) system (copyright 1986, Carnegie Mellon
 University), and the Gaussian 82(TM) system (copyright 1983,
 Carnegie Mellon University). Gaussian is a federally registered
 trademark of Gaussian, Inc.
  
 This software contains proprietary and confidential information,
 including trade secrets, belonging to Gaussian, Inc.
  
 This software is provided under written license and may be
 used, copied, transmitted, or stored only in accord with that
 written license.
  
 The following legend is applicable only to US Government
 contracts under FAR:
  
                    RESTRICTED RIGHTS LEGEND
  
 Use, reproduction and disclosure by the US Government is
 subject to restrictions as set forth in subparagraphs (a)
 and (c) of the Commercial Computer Software - Restricted
 Rights clause in FAR 52.227-19.
  
 Gaussian, Inc.
 340 Quinnipiac St., Bldg. 40, Wallingford CT 06492
  
  
 ---------------------------------------------------------------
 Warning -- This program may not be used in any manner that
 competes with the business of Gaussian, Inc. or will provide
 assistance to any competitor of Gaussian, Inc.  The licensee
 of this program is prohibited from giving any competitor of
 Gaussian, Inc. access to this program.  By using this program,
 the user acknowledges that Gaussian, Inc. is engaged in the
 business of creating and licensing software in the field of
 computational chemistry and represents and warrants to the
 licensee that it is not a competitor of Gaussian, Inc. and that
 it will not use this program in any manner prohibited above.
 ---------------------------------------------------------------
  

 Cite this work as:
 Gaussian 03, Revision E.01,
 M. J. Frisch, G. W. Trucks, H. B. Schlegel, G. E. Scuseria, 
 M. A. Robb, J. R. Cheeseman, J. A. Montgomery, Jr., T. Vreven, 
 K. N. Kudin, J. C. Burant, J. M. Millam, S. S. Iyengar, J. Tomasi, 
 V. Barone, B. Mennucci, M. Cossi, G. Scalmani, N. Rega, 
 G. A. Petersson, H. Nakatsuji, M. Hada, M. Ehara, K. Toyota, 
 R. Fukuda, J. Hasegawa, M. Ishida, T. Nakajima, Y. Honda, O. Kitao, 
 H. Nakai, M. Klene, X. Li, J. E. Knox, H. P. Hratchian, J. B. Cross, 
 V. Bakken, C. Adamo, J. Jaramillo, R. Gomperts, R. E. Stratmann, 
 O. Yazyev, A. J. Austin, R. Cammi, C. Pomelli, J. W. Ochterski, 
 P. Y. Ayala, K. Morokuma, G. A. Voth, P. Salvador, J. J. Dannenberg, 
 V. G. Zakrzewski, S. Dapprich, A. D. Daniels, M. C. Strain, 
 O. Farkas, D. K. Malick, A. D. Rabuck, K. Raghavachari, 
 J. B. Foresman, J. V. Ortiz, Q. Cui, A. G. Baboul, S. Clifford, 
 J. Cioslowski, B. B. Stefanov, G. Liu, A. Liashenko, P. Piskorz, 
 I. Komaromi, R. L. Martin, D. J. Fox, T. Keith, M. A. Al-Laham, 
 C. Y. Peng, A. Nanayakkara, M. Challacombe, P. M. W. Gill, 
 B. Johnson, W. Chen, M. W. Wong, C. Gonzalez, and J. A. Pople, 
 Gaussian, Inc., Wallingford CT, 2004.
 
 ******************************************
 Gaussian 03:  IA32W-G03RevE.01 11-Sep-2007
                16-Oct-2010 
 ******************************************
 %mem=1500MB
 %nprocshared=1
 Will use up to    1 processors via shared memory.
 ----------------------------------------------------------------------
 #p nmr=giao ub3lyp/epr-ii guess=mix geom=connectivity scf=(tight,dsymm
 ) integral=(grid=ultrafine)
 ----------------------------------------------------------------------
 1/38=1,57=2/1;
 2/17=6,18=5,40=1/2;
 3/5=21,11=2,16=1,25=1,30=1,74=-5,75=5/1,2,8,3;
 4/7=2,9=2,13=1/1;
 5/5=2,17=200,32=2,38=5/2;
 8/6=1,10=90,11=11/1;
 10/13=100,45=16/2;
 6/7=2,8=2,9=2,10=2,28=1/1;
 99/9=1/99;
 Leave Link    1 at Sat Oct 16 17:31:14 2010, MaxMem=  196608000 cpu:       1.0
 (Enter C:\G03W\l101.exe)
 ---------------------
 Pyrene cation radical
 ---------------------
 Symbolic Z-matrix:
 Charge =  1 Multiplicity = 2
 C                     0.        0.        3.55361 
 C                     0.        1.21303   2.85441 
 C                     0.        1.23718   1.4255 
 C                     0.        0.        0.71065 
 C                     0.       -1.23718   1.4255 
 C                     0.       -1.21303   2.85441 
 C                     0.        2.46082   0.69598 
 C                     0.        0.       -0.71065 
 C                     0.        1.23718  -1.4255 
 C                     0.        2.46082  -0.69598 
 C                     0.        1.21303  -2.85441 
 H                     0.        2.15366  -3.39828 
 C                     0.        0.       -3.55361 
 C                     0.       -1.21303  -2.85441 
 C                     0.       -1.23718  -1.4255 
 C                     0.       -2.46082  -0.69598 
 C                     0.       -2.46082   0.69598 
 H                     0.       -3.40182   1.23818 
 H                     0.       -3.40182  -1.23818 
 H                     0.        3.40182   1.23818 
 H                     0.        0.        4.63827 
 H                     0.        2.15366   3.39828 
 H                     0.       -2.15366   3.39828 
 H                     0.        3.40182  -1.23818 
 H                     0.        0.       -4.63827 
 H                     0.       -2.15366  -3.39828 
 
                    Isotopes and Nuclear Properties:
 (Nuclear quadrupole moments (NQMom) in fm**2, nuclear magnetic moments (NMagM)
  in nuclear magnetons)

  Atom         1           2           3           4           5           6           7           8           9          10
 IAtWgt=          12          12          12          12          12          12          12          12          12          12
 AtmWgt=  12.0000000  12.0000000  12.0000000  12.0000000  12.0000000  12.0000000  12.0000000  12.0000000  12.0000000  12.0000000
 NucSpn=           0           0           0           0           0           0           0           0           0           0
 AtZEff=   0.0000000   0.0000000   0.0000000   0.0000000   0.0000000   0.0000000   0.0000000   0.0000000   0.0000000   0.0000000
 NQMom=    0.0000000   0.0000000   0.0000000   0.0000000   0.0000000   0.0000000   0.0000000   0.0000000   0.0000000   0.0000000
 NMagM=    0.0000000   0.0000000   0.0000000   0.0000000   0.0000000   0.0000000   0.0000000   0.0000000   0.0000000   0.0000000

  Atom        11          12          13          14          15          16          17          18          19          20
 IAtWgt=          12           1          12          12          12          12          12           1           1           1
 AtmWgt=  12.0000000   1.0078250  12.0000000  12.0000000  12.0000000  12.0000000  12.0000000   1.0078250   1.0078250   1.0078250
 NucSpn=           0           1           0           0           0           0           0           1           1           1
 AtZEff=   0.0000000   0.0000000   0.0000000   0.0000000   0.0000000   0.0000000   0.0000000   0.0000000   0.0000000   0.0000000
 NQMom=    0.0000000   0.0000000   0.0000000   0.0000000   0.0000000   0.0000000   0.0000000   0.0000000   0.0000000   0.0000000
 NMagM=    0.0000000   2.7928460   0.0000000   0.0000000   0.0000000   0.0000000   0.0000000   2.7928460   2.7928460   2.7928460

  Atom        21          22          23          24          25          26
 IAtWgt=           1           1           1           1           1           1
 AtmWgt=   1.0078250   1.0078250   1.0078250   1.0078250   1.0078250   1.0078250
 NucSpn=           1           1           1           1           1           1
 AtZEff=   0.0000000   0.0000000   0.0000000   0.0000000   0.0000000   0.0000000
 NQMom=    0.0000000   0.0000000   0.0000000   0.0000000   0.0000000   0.0000000
 NMagM=    2.7928460   2.7928460   2.7928460   2.7928460   2.7928460   2.7928460
 Leave Link  101 at Sat Oct 16 17:31:14 2010, MaxMem=  196608000 cpu:       0.0
 (Enter C:\G03W\l202.exe)
                          Input orientation:                          
 ---------------------------------------------------------------------
 Center     Atomic     Atomic              Coordinates (Angstroms)
 Number     Number      Type              X           Y           Z
 ---------------------------------------------------------------------
    1          6             0        0.000000    0.000000    3.553606
    2          6             0        0.000000    1.213032    2.854412
    3          6             0        0.000000    1.237177    1.425499
    4          6             0        0.000000    0.000000    0.710645
    5          6             0        0.000000   -1.237177    1.425499
    6          6             0        0.000000   -1.213032    2.854412
    7          6             0        0.000000    2.460816    0.695983
    8          6             0        0.000000    0.000000   -0.710645
    9          6             0        0.000000    1.237177   -1.425499
   10          6             0        0.000000    2.460816   -0.695983
   11          6             0        0.000000    1.213032   -2.854412
   12          1             0        0.000000    2.153659   -3.398276
   13          6             0        0.000000    0.000000   -3.553606
   14          6             0        0.000000   -1.213032   -2.854412
   15          6             0        0.000000   -1.237177   -1.425499
   16          6             0        0.000000   -2.460816   -0.695983
   17          6             0        0.000000   -2.460816    0.695983
   18          1             0        0.000000   -3.401815    1.238175
   19          1             0        0.000000   -3.401815   -1.238175
   20          1             0        0.000000    3.401815    1.238175
   21          1             0        0.000000    0.000000    4.638274
   22          1             0        0.000000    2.153659    3.398276
   23          1             0        0.000000   -2.153659    3.398276
   24          1             0        0.000000    3.401815   -1.238175
   25          1             0        0.000000    0.000000   -4.638274
   26          1             0        0.000000   -2.153659   -3.398276
 ---------------------------------------------------------------------
                    Distance matrix (angstroms):
                    1          2          3          4          5
     1  C    0.000000
     2  C    1.400114   0.000000
     3  C    2.461594   1.429117   0.000000
     4  C    2.842961   2.463165   1.428854   0.000000
     5  C    2.461594   2.836427   2.474354   1.428854   0.000000
     6  C    1.400114   2.426064   2.836427   2.463165   1.429117
     7  C    3.771157   2.493147   1.424600   2.460860   3.769263
     8  C    4.264251   3.765777   2.468546   1.421290   2.468546
     9  C    5.130506   4.279979   2.850998   2.468546   3.774999
    10  C    4.910664   3.763279   2.449077   2.834470   4.263313
    11  C    6.521820   5.708824   4.279979   3.765777   4.931649
    12  H    7.277837   6.323044   4.910066   4.639125   5.896319
    13  C    7.107212   6.521820   5.130506   4.264251   5.130506
    14  C    6.521820   6.202939   4.931649   3.765777   4.279979
    15  C    5.130506   4.931649   3.774999   2.468546   2.850998
    16  C    4.910664   5.109057   4.263313   2.834470   2.449077
    17  C    3.771157   4.260983   3.769263   2.460860   1.424600
    18  H    4.115041   4.889687   4.642773   3.442475   2.172728
    19  H    5.876522   6.168151   5.349337   3.920490   3.432319
    20  H    4.115041   2.720844   2.172728   3.442475   4.642773
    21  H    1.084668   2.157223   3.442750   3.927629   3.442750
    22  H    2.159253   1.086539   2.175267   3.444068   3.922960
    23  H    2.159253   3.410337   3.922960   3.444068   2.175267
    24  H    5.876522   4.641125   3.432319   3.920490   5.349337
    25  H    8.191880   7.590243   6.188695   5.348919   6.188695
    26  H    7.277837   7.101459   5.896319   4.639125   4.910066
                    6          7          8          9         10
     6  C    0.000000
     7  C    4.260983   0.000000
     8  C    3.765777   2.834470   0.000000
     9  C    4.931649   2.449077   1.428854   0.000000
    10  C    5.109057   1.391966   2.460860   1.424600   0.000000
    11  C    6.202939   3.763279   2.463165   1.429117   2.493147
    12  H    7.101459   4.105765   3.444068   2.175267   2.719694
    13  C    6.521820   4.910664   2.842961   2.461594   3.771157
    14  C    5.708824   5.109057   2.463165   2.836427   4.260983
    15  C    4.279979   4.263313   1.428854   2.474354   3.769263
    16  C    3.763279   5.114688   2.460860   3.769263   4.921632
    17  C    2.493147   4.921632   2.834470   4.263313   5.114688
    18  H    2.720844   5.887649   3.920490   5.349337   6.173444
    19  H    4.641125   6.173444   3.442475   4.642773   5.887649
    20  H    4.889687   1.086025   3.920490   3.432319   2.150918
    21  H    2.157223   4.647287   5.348919   6.188695   5.874514
    22  H    3.410337   2.719694   4.639125   4.910066   4.105765
    23  H    1.086539   5.347501   4.639125   5.896319   6.168982
    24  H    6.168151   2.150918   3.442475   2.172728   1.086025
    25  H    7.590243   5.874514   3.927629   3.442750   4.647287
    26  H    6.323044   6.168982   3.444068   3.922960   5.347501
                   11         12         13         14         15
    11  C    0.000000
    12  H    1.086539   0.000000
    13  C    1.400114   2.159253   0.000000
    14  C    2.426064   3.410337   1.400114   0.000000
    15  C    2.836427   3.922960   2.461594   1.429117   0.000000
    16  C    4.260983   5.347501   3.771157   2.493147   1.424600
    17  C    5.109057   6.168982   4.910664   3.763279   2.449077
    18  H    6.168151   7.236019   5.876522   4.641125   3.432319
    19  H    4.889687   5.960648   4.115041   2.720844   2.172728
    20  H    4.641125   4.801518   5.876522   6.168151   5.349337
    21  H    7.590243   8.320119   8.191880   7.590243   6.188695
    22  H    6.323044   6.796552   7.277837   7.101459   5.896319
    23  H    7.101459   8.046497   7.277837   6.323044   4.910066
    24  H    2.720844   2.494780   4.115041   4.889687   4.642773
    25  H    2.157223   2.485124   1.084668   2.157223   3.442750
    26  H    3.410337   4.307318   2.159253   1.086539   2.175267
                   16         17         18         19         20
    16  C    0.000000
    17  C    1.391966   0.000000
    18  H    2.150918   1.086025   0.000000
    19  H    1.086025   2.150918   2.476350   0.000000
    20  H    6.173444   5.887649   6.803630   7.240282   0.000000
    21  H    5.874514   4.647287   4.809680   6.790066   4.809680
    22  H    6.168982   5.347501   5.960648   7.236019   2.494780
    23  H    4.105765   2.719694   2.494780   4.801518   5.960648
    24  H    5.887649   6.173444   7.240282   6.803630   2.476350
    25  H    4.647287   5.874514   6.790066   4.809680   6.790066
    26  H    2.719694   4.105765   4.801518   2.494780   7.236019
                   21         22         23         24         25
    21  H    0.000000
    22  H    2.485124   0.000000
    23  H    2.485124   4.307318   0.000000
    24  H    6.790066   4.801518   7.236019   0.000000
    25  H    9.276548   8.320119   8.320119   4.809680   0.000000
    26  H    8.320119   8.046497   6.796552   5.960648   2.485124
                   26
    26  H    0.000000
 Stoichiometry    C16H10(1+,2)
 Framework group  D2H[C2"(HCC.CCH),SG(C12H8)]
 Deg. of freedom    13
 Full point group                 D2H
 Largest Abelian subgroup         D2H     NOp   8
 Largest concise Abelian subgroup D2      NOp   4
                         Standard orientation:                         
 ---------------------------------------------------------------------
 Center     Atomic     Atomic              Coordinates (Angstroms)
 Number     Number      Type              X           Y           Z
 ---------------------------------------------------------------------
    1          6             0        0.000000    0.000000    3.553606
    2          6             0        0.000000    1.213032    2.854412
    3          6             0        0.000000    1.237177    1.425499
    4          6             0        0.000000    0.000000    0.710645
    5          6             0        0.000000   -1.237177    1.425499
    6          6             0        0.000000   -1.213032    2.854412
    7          6             0        0.000000    2.460816    0.695983
    8          6             0        0.000000    0.000000   -0.710645
    9          6             0        0.000000    1.237177   -1.425499
   10          6             0        0.000000    2.460816   -0.695983
   11          6             0        0.000000    1.213032   -2.854412
   12          1             0        0.000000    2.153659   -3.398276
   13          6             0        0.000000    0.000000   -3.553606
   14          6             0        0.000000   -1.213032   -2.854412
   15          6             0        0.000000   -1.237177   -1.425499
   16          6             0        0.000000   -2.460816   -0.695983
   17          6             0        0.000000   -2.460816    0.695983
   18          1             0        0.000000   -3.401815    1.238175
   19          1             0        0.000000   -3.401815   -1.238175
   20          1             0        0.000000    3.401815    1.238175
   21          1             0        0.000000    0.000000    4.638274
   22          1             0        0.000000    2.153659    3.398276
   23          1             0        0.000000   -2.153659    3.398276
   24          1             0        0.000000    3.401815   -1.238175
   25          1             0        0.000000    0.000000   -4.638274
   26          1             0        0.000000   -2.153659   -3.398276
 ---------------------------------------------------------------------
 Rotational constants (GHZ):      1.0105198      0.5474381      0.3550783
 Leave Link  202 at Sat Oct 16 17:31:15 2010, MaxMem=  196608000 cpu:       1.0
 (Enter C:\G03W\l301.exe)
 Standard basis: EPR-II (5D, 7F)
 There are    76 symmetry adapted basis functions of AG  symmetry.
 There are    16 symmetry adapted basis functions of B1G symmetry.
 There are    21 symmetry adapted basis functions of B2G symmetry.
 There are    58 symmetry adapted basis functions of B3G symmetry.
 There are    16 symmetry adapted basis functions of AU  symmetry.
 There are    76 symmetry adapted basis functions of B1U symmetry.
 There are    58 symmetry adapted basis functions of B2U symmetry.
 There are    21 symmetry adapted basis functions of B3U symmetry.
 Integral buffers will be    262144 words long.
 Raffenetti 2 integral format.
 Two-electron integral symmetry is turned on.
   342 basis functions,   586 primitive gaussians,   358 cartesian basis functions
    53 alpha electrons       52 beta electrons
       nuclear repulsion energy       961.6942561793 Hartrees.
 IExCor= 402 DFT=T Ex=B+HF Corr=LYP ExCW=0 ScaHFX=  0.200000
 ScaDFX=  0.800000  0.720000  1.000000  0.810000
 IRadAn=      5 IRanWt=     -1 IRanGd=            0 ICorTp=0
 NAtoms=   26 NActive=   26 NUniq=    8 SFac= 3.00D+00 NAtFMM=   80 NAOKFM=F Big=F
 Leave Link  301 at Sat Oct 16 17:31:15 2010, MaxMem=  196608000 cpu:       0.0
 (Enter C:\G03W\l302.exe)
 NPDir=0 NMtPBC=     1 NCelOv=     1 NCel=       1 NClECP=     1 NCelD=      1
         NCelK=      1 NCelE2=     1 NClLst=     1 CellRange=     0.0.
 One-electron integrals computed using PRISM.
 One-electron integral symmetry used in STVInt
 NBasis=   342 RedAO= T  NBF=    76    16    21    58    16    76    58    21
 NBsUse=   342 1.00D-06 NBFU=    76    16    21    58    16    76    58    21
 Precomputing XC quadrature grid using
 IXCGrd= 2 IRadAn=           5 IRanWt=          -1 IRanGd=           0.
 NRdTot=    2200 NPtTot=      591196 NUsed=      601149 NTot=      601165
 NSgBfM=   344   344   344   344.
 Leave Link  302 at Sat Oct 16 17:31:18 2010, MaxMem=  196608000 cpu:       2.0
 (Enter C:\G03W\l308.exe)
 Leave Link  308 at Sat Oct 16 17:31:19 2010, MaxMem=  196608000 cpu:       0.0
 (Enter C:\G03W\l303.exe)
 DipDrv:  MaxL=1.
 Leave Link  303 at Sat Oct 16 17:31:20 2010, MaxMem=  196608000 cpu:       1.0
 (Enter C:\G03W\l401.exe)
 SCF N**3 symmetry information disabled.
 Harris functional with IExCor=  402 diagonalized for initial guess.
 ExpMin= 4.79D-02 ExpMax= 4.23D+03 ExpMxC= 6.35D+02 IAcc=3 IRadAn=         5 AccDes= 0.00D+00
 HarFok:  IExCor= 402 AccDes= 0.00D+00 IRadAn=         5 IDoV=1
 ScaDFX=  1.000000  1.000000  1.000000  1.000000
 Harris En= -615.686334284628    
 Initial guess orbital symmetries:
 Alpha Orbitals:
       Occupied  (B1U) (AG) (AG) (B1U) (B2U) (AG) (B3G) (B1U) (B2U)
                 (AG) (B3G) (B1U) (B3G) (B2U) (B1U) (AG) (AG) (B1U)
                 (B2U) (AG) (B3G) (AG) (B1U) (B2U) (B3G) (AG) (B1U)
                 (B2U) (B1U) (AG) (B2U) (B3G) (AG) (B1U) (B3G)
                 (B2U) (AG) (AG) (B2U) (B1U) (B3U) (B3G) (B2U)
                 (B1U) (B2G) (AG) (B3G) (B1G) (B3U) (AU) (B3U)
                 (B2G) (?A)
       Virtual   (?A) (B3U) (B2G) (B1G) (B2G) (AU) (B3U) (AG) (B1U)
                 (B2U) (AG) (B3G) (AG) (B1U) (B2U) (AG) (B1U) (B2G)
                 (B1U) (B3G) (B2U) (B2U) (AG) (B1U) (B3G) (B2U)
                 (AG) (B1U) (AG) (B3G) (B1U) (AG) (B3G) (AG) (B2U)
                 (B2U) (B3G) (B3U) (B1U) (B1U) (B2U) (B2G) (B1G)
                 (AG) (B3G) (B1U) (B2U) (AG) (AU) (B1U) (B3U) (AG)
                 (B3G) (B3U) (B2G) (B1U) (B1G) (B3G) (B1U) (B2G)
                 (B3G) (B2U) (B2U) (B3U) (AG) (B1U) (B1G) (AG)
                 (AG) (AU) (B2U) (B3G) (B1U) (B2G) (AG) (B2U) (B3G)
                 (B1U) (B1U) (AU) (B3G) (B3U) (AG) (B1U) (B3G)
                 (B1U) (AG) (B2U) (B1U) (AG) (B3G) (B2G) (B2U)
                 (B1U) (B3G) (B2U) (B3U) (AG) (B1G) (B2U) (AG)
                 (B1U) (AG) (B2G) (AU) (B1U) (B2U) (AG) (B3U) (B1G)
                 (B3G) (B3U) (B1U) (B2U) (AG) (B2U) (B3G) (B1G)
                 (AU) (AG) (B3G) (B2G) (B1G) (B1U) (B3G) (B1U)
                 (B3U) (AU) (AG) (B3G) (B2U) (AG) (B1U) (B2U) (AG)
                 (B1U) (B3G) (B2G) (B1G) (B3U) (B1U) (AG) (B3G)
                 (AU) (B2U) (B1U) (AG) (B2G) (B3G) (B1U) (B3U)
                 (B2U) (AG) (B2G) (B2U) (B3G) (AG) (B1U) (B2U)
                 (AU) (AG) (B1U) (B2U) (B1G) (AG) (B1U) (AG) (B1G)
                 (B2G) (B3G) (B3U) (B2U) (B3U) (B3G) (B1U) (B2G)
                 (B2U) (AG) (B3G) (B1U) (B2U) (AG) (B1U) (B1G)
                 (B3G) (AU) (B2G) (B3U) (AU) (B3G) (B3U) (B2U)
                 (AU) (B1G) (B1U) (B3G) (AG) (B2G) (B2U) (AG) (B1U)
                 (B2G) (B2U) (B1U) (AU) (B3G) (B1G) (B3G) (AG)
                 (B3U) (B2U) (B1U) (AU) (B2G) (AG) (B3G) (B1U)
                 (B2U) (AG) (AG) (B1U) (B1U) (B2U) (B3G) (AG) (B1U)
                 (B3G) (B2U) (AG) (B1U) (B3G) (B2U) (B3G) (B1U)
                 (AG) (B3G) (B1U) (AG) (AG) (B1U) (AG) (B2U) (B2U)
                 (B3G) (B1U) (AG) (B3G) (B2U) (AG) (B1U) (B1U)
                 (B2U) (AG) (B2U) (B1U) (B3G) (AG) (B3G) (B1U)
                 (B1U) (B3G) (AG) (B1U) (AG) (B1U) (AG) (B2U) (AG)
                 (B2U) (B3G) (B1U) (B2U) (B1U) (B3G) (AG) (B1U)
                 (B3G) (AG) (B1U) (AG) (B1U) (B2U) (AG) (B3G) (B2U)
                 (B3G) (B1U) (AG) (B1U)
 Beta  Orbitals:
       Occupied  (B1U) (AG) (AG) (B1U) (B2U) (AG) (B3G) (B1U) (B2U)
                 (AG) (B3G) (B1U) (B3G) (B2U) (B1U) (AG) (AG) (B1U)
                 (B2U) (AG) (B3G) (AG) (B1U) (B2U) (B3G) (AG) (B1U)
                 (B2U) (B1U) (AG) (B2U) (B3G) (AG) (B1U) (B3G)
                 (B2U) (AG) (AG) (B2U) (B1U) (B3U) (B3G) (B2U)
                 (B1U) (B2G) (AG) (B3G) (B1G) (B3U) (AU) (B3U)
                 (?A)
       Virtual   (?A) (AU) (B3U) (B2G) (B1G) (B2G) (AU) (B3U) (AG)
                 (B1U) (B2U) (AG) (B3G) (AG) (B1U) (B2U) (AG) (B1U)
                 (B2G) (B1U) (B3G) (B2U) (B2U) (AG) (B1U) (B3G)
                 (B2U) (AG) (B1U) (AG) (B3G) (B1U) (AG) (B3G) (AG)
                 (B2U) (B2U) (B3G) (B3U) (B1U) (B1U) (B2U) (B2G)
                 (B1G) (AG) (B3G) (B1U) (B2U) (AG) (AU) (B1U) (B3U)
                 (AG) (B3G) (B3U) (B2G) (B1U) (B1G) (B3G) (B1U)
                 (B2G) (B3G) (B2U) (B2U) (B3U) (AG) (B1U) (B1G)
                 (AG) (AG) (AU) (B2U) (B3G) (B1U) (B2G) (AG) (B2U)
                 (B3G) (B1U) (B1U) (AU) (B3G) (B3U) (AG) (B1U)
                 (B3G) (B1U) (AG) (B2U) (B1U) (AG) (B3G) (B2G)
                 (B2U) (B1U) (B3G) (B2U) (B3U) (AG) (B1G) (B2U)
                 (AG) (B1U) (AG) (B2G) (AU) (B1U) (B2U) (AG) (B3U)
                 (B1G) (B3G) (B3U) (B1U) (B2U) (AG) (B2U) (B3G)
                 (B1G) (AU) (AG) (B3G) (B2G) (B1G) (B1U) (B3G)
                 (B1U) (B3U) (AU) (AG) (B3G) (B2U) (AG) (B1U) (B2U)
                 (AG) (B1U) (B3G) (B2G) (B1G) (B3U) (B1U) (AG)
                 (B3G) (AU) (B2U) (B1U) (AG) (B2G) (B3G) (B1U)
                 (B3U) (B2U) (AG) (B2G) (B2U) (B3G) (AG) (B1U)
                 (B2U) (AU) (AG) (B1U) (B2U) (B1G) (AG) (B1U) (AG)
                 (B1G) (B2G) (B3G) (B3U) (B2U) (B3U) (B3G) (B1U)
                 (B2G) (B2U) (AG) (B3G) (B1U) (B2U) (AG) (B1U)
                 (B1G) (B3G) (AU) (B2G) (B3U) (AU) (B3G) (B3U)
                 (B2U) (AU) (B1G) (B1U) (B3G) (AG) (B2G) (B2U)
                 (AG) (B1U) (B2G) (B2U) (B1U) (AU) (B3G) (B1G)
                 (B3G) (AG) (B3U) (B2U) (B1U) (AU) (B2G) (AG) (B3G)
                 (B1U) (B2U) (AG) (AG) (B1U) (B1U) (B2U) (B3G)
                 (AG) (B1U) (B3G) (B2U) (AG) (B1U) (B3G) (B2U)
                 (B3G) (B1U) (AG) (B3G) (B1U) (AG) (AG) (B1U) (AG)
                 (B2U) (B2U) (B3G) (B1U) (AG) (B3G) (B2U) (AG)
                 (B1U) (B1U) (B2U) (AG) (B2U) (B1U) (B3G) (AG)
                 (B3G) (B1U) (B1U) (B3G) (AG) (B1U) (AG) (B1U)
                 (AG) (B2U) (AG) (B2U) (B3G) (B1U) (B2U) (B1U)
                 (B3G) (AG) (B1U) (B3G) (AG) (B1U) (AG) (B1U) (B2U)
                 (AG) (B3G) (B2U) (B3G) (B1U) (AG) (B1U)
 <S**2> of initial guess= 1.0000
 Leave Link  401 at Sat Oct 16 17:31:25 2010, MaxMem=  196608000 cpu:       5.0
 (Enter C:\G03W\l502.exe)
 UHF open shell SCF:
 Requested convergence on RMS density matrix=1.00D-08 within 128 cycles.
 Requested convergence on MAX density matrix=1.00D-06.
 Requested convergence on             energy=1.00D-06.
 No special actions if energy rises.
 Using DIIS extrapolation, IDIIS=  1040.
 Integral symmetry usage will be decided dynamically.
       601148 words used for storage of precomputed grid.
 IEnd=   1039934 IEndB=   1039934 NGot= 196608000 MDV= 195713229
 LenX= 195713229
 Fock matrices will be formed incrementally for  20 cycles.

 Cycle   1  Pass 1  IDiag  1:
 Petite list used in FoFDir.
 MinBra= 0 MaxBra= 2 Meth= 1.
 IRaf=       0 NMat=   1 IRICut=       1 DoRegI=T DoRafI=F ISym2E= 1 JSym2E=1.
 E= -615.252630072415    
 DIIS: error= 2.81D-02 at cycle   1 NSaved=   1.
 NSaved= 1 IEnMin= 1 EnMin= -615.252630072415     IErMin= 1 ErrMin= 2.81D-02
 ErrMax= 2.81D-02 EMaxC= 1.00D-01 BMatC= 7.69D-01 BMatP= 7.69D-01
 IDIUse=3 WtCom= 7.19D-01 WtEn= 2.81D-01
 Coeff-Com:  0.100D+01
 Coeff-En:   0.100D+01
 Coeff:      0.100D+01
 Gap=     0.000 Goal=   None    Shift=    0.000
 Gap=     0.000 Goal=   None    Shift=    0.000
 GapD=    0.000 DampG=0.250 DampE=0.500 DampFc=0.2500 IDamp=-1.
 Damping current iteration by 2.50D-01
 RMSDP=6.97D-03 MaxDP=2.26D-01              OVMax= 7.13D-01

 Cycle   2  Pass 1  IDiag  1:
 RMSU=  1.27D-03    CP:  9.36D-01
 E= -615.353914380278     Delta-E=       -0.101284307863 Rises=F Damp=T
 DIIS: error= 1.70D-02 at cycle   2 NSaved=   2.
 NSaved= 2 IEnMin= 2 EnMin= -615.353914380278     IErMin= 2 ErrMin= 1.70D-02
 ErrMax= 1.70D-02 EMaxC= 1.00D-01 BMatC= 2.60D-01 BMatP= 7.69D-01
 IDIUse=3 WtCom= 8.30D-01 WtEn= 1.70D-01
 Coeff-Com: -0.122D+01 0.222D+01
 Coeff-En:   0.000D+00 0.100D+01
 Coeff:     -0.101D+01 0.201D+01
 Gap=     0.116 Goal=   None    Shift=    0.000
 Gap=     0.055 Goal=   None    Shift=    0.000
 RMSDP=4.37D-03 MaxDP=1.88D-01 DE=-1.01D-01 OVMax= 6.46D-02

 Cycle   3  Pass 1  IDiag  1:
 RMSU=  1.71D-03    CP:  7.65D-01  2.89D+00
 E= -615.578959968775     Delta-E=       -0.225045588497 Rises=F Damp=F
 DIIS: error= 2.47D-03 at cycle   3 NSaved=   3.
 NSaved= 3 IEnMin= 3 EnMin= -615.578959968775     IErMin= 3 ErrMin= 2.47D-03
 ErrMax= 2.47D-03 EMaxC= 1.00D-01 BMatC= 4.80D-03 BMatP= 2.60D-01
 IDIUse=3 WtCom= 9.75D-01 WtEn= 2.47D-02
 Coeff-Com: -0.176D+00 0.347D+00 0.829D+00
 Coeff-En:   0.000D+00 0.000D+00 0.100D+01
 Coeff:     -0.172D+00 0.339D+00 0.833D+00
 Gap=     0.128 Goal=   None    Shift=    0.000
 Gap=     0.073 Goal=   None    Shift=    0.000
 RMSDP=3.70D-04 MaxDP=1.56D-02 DE=-2.25D-01 OVMax= 3.99D-02

 Cycle   4  Pass 1  IDiag  1:
 RMSU=  3.13D-04    CP:  7.73D-01  2.79D+00  9.67D-01
 E= -615.579937174901     Delta-E=       -0.000977206126 Rises=F Damp=F
 DIIS: error= 2.10D-03 at cycle   4 NSaved=   4.
 NSaved= 4 IEnMin= 4 EnMin= -615.579937174901     IErMin= 4 ErrMin= 2.10D-03
 ErrMax= 2.10D-03 EMaxC= 1.00D-01 BMatC= 3.39D-03 BMatP= 4.80D-03
 IDIUse=3 WtCom= 9.79D-01 WtEn= 2.10D-02
 Coeff-Com: -0.450D-01 0.951D-01 0.456D+00 0.494D+00
 Coeff-En:   0.000D+00 0.000D+00 0.238D+00 0.762D+00
 Coeff:     -0.441D-01 0.931D-01 0.451D+00 0.500D+00
 Gap=     0.130 Goal=   None    Shift=    0.000
 Gap=     0.076 Goal=   None    Shift=    0.000
 RMSDP=1.60D-04 MaxDP=6.33D-03 DE=-9.77D-04 OVMax= 2.36D-02

 Cycle   5  Pass 1  IDiag  1:
 RMSU=  1.26D-04    CP:  7.73D-01  2.79D+00  9.73D-01  6.88D-01
 E= -615.580904183539     Delta-E=       -0.000967008638 Rises=F Damp=F
 DIIS: error= 1.34D-03 at cycle   5 NSaved=   5.
 NSaved= 5 IEnMin= 5 EnMin= -615.580904183539     IErMin= 5 ErrMin= 1.34D-03
 ErrMax= 1.34D-03 EMaxC= 1.00D-01 BMatC= 6.12D-04 BMatP= 3.39D-03
 IDIUse=3 WtCom= 9.87D-01 WtEn= 1.34D-02
 Coeff-Com:  0.128D-01-0.226D-01 0.548D-01 0.290D+00 0.665D+00
 Coeff-En:   0.000D+00 0.000D+00 0.000D+00 0.863D-01 0.914D+00
 Coeff:      0.126D-01-0.223D-01 0.541D-01 0.287D+00 0.668D+00
 Gap=     0.131 Goal=   None    Shift=    0.000
 Gap=     0.079 Goal=   None    Shift=    0.000
 RMSDP=6.77D-05 MaxDP=5.12D-03 DE=-9.67D-04 OVMax= 1.14D-02

 Cycle   6  Pass 1  IDiag  1:
 RMSU=  4.94D-05    CP:  7.73D-01  2.79D+00  9.80D-01  8.00D-01  8.24D-01
 E= -615.581178342414     Delta-E=       -0.000274158875 Rises=F Damp=F
 DIIS: error= 5.14D-04 at cycle   6 NSaved=   6.
 NSaved= 6 IEnMin= 6 EnMin= -615.581178342414     IErMin= 6 ErrMin= 5.14D-04
 ErrMax= 5.14D-04 EMaxC= 1.00D-01 BMatC= 5.66D-05 BMatP= 6.12D-04
 IDIUse=3 WtCom= 9.95D-01 WtEn= 5.14D-03
 Coeff-Com:  0.488D-02-0.106D-01-0.626D-01-0.594D-01 0.809D-01 0.105D+01
 Coeff-En:   0.000D+00 0.000D+00 0.000D+00 0.000D+00 0.000D+00 0.100D+01
 Coeff:      0.485D-02-0.105D-01-0.623D-01-0.591D-01 0.805D-01 0.105D+01
 Gap=     0.132 Goal=   None    Shift=    0.000
 Gap=     0.080 Goal=   None    Shift=    0.000
 RMSDP=3.77D-05 MaxDP=3.97D-03 DE=-2.74D-04 OVMax= 5.81D-03

 Cycle   7  Pass 1  IDiag  1:
 RMSU=  2.52D-05    CP:  7.73D-01  2.79D+00  9.83D-01  8.24D-01  9.74D-01
                    CP:  1.38D+00
 E= -615.581236802385     Delta-E=       -0.000058459972 Rises=F Damp=F
 DIIS: error= 3.13D-04 at cycle   7 NSaved=   7.
 NSaved= 7 IEnMin= 7 EnMin= -615.581236802385     IErMin= 7 ErrMin= 3.13D-04
 ErrMax= 3.13D-04 EMaxC= 1.00D-01 BMatC= 4.34D-05 BMatP= 5.66D-05
 IDIUse=3 WtCom= 9.97D-01 WtEn= 3.13D-03
 Coeff-Com: -0.234D-02 0.321D-02-0.547D-01-0.138D+00-0.164D+00 0.713D+00
 Coeff-Com:  0.642D+00
 Coeff-En:   0.000D+00 0.000D+00 0.000D+00 0.000D+00 0.000D+00 0.000D+00
 Coeff-En:   0.100D+01
 Coeff:     -0.233D-02 0.320D-02-0.546D-01-0.137D+00-0.163D+00 0.711D+00
 Coeff:      0.643D+00
 Gap=     0.132 Goal=   None    Shift=    0.000
 Gap=     0.081 Goal=   None    Shift=    0.000
 RMSDP=2.13D-05 MaxDP=2.32D-03 DE=-5.85D-05 OVMax= 3.30D-03

 Cycle   8  Pass 1  IDiag  1:
 RMSU=  1.16D-05    CP:  7.73D-01  2.79D+00  9.82D-01  8.39D-01  1.04D+00
                    CP:  1.68D+00  9.24D-01
 E= -615.581259036092     Delta-E=       -0.000022233707 Rises=F Damp=F
 DIIS: error= 1.06D-04 at cycle   8 NSaved=   8.
 NSaved= 8 IEnMin= 8 EnMin= -615.581259036092     IErMin= 8 ErrMin= 1.06D-04
 ErrMax= 1.06D-04 EMaxC= 1.00D-01 BMatC= 4.43D-06 BMatP= 4.34D-05
 IDIUse=3 WtCom= 9.99D-01 WtEn= 1.06D-03
 Coeff-Com: -0.327D-02 0.573D-02-0.123D-01-0.553D-01-0.871D-01 0.144D+00
 Coeff-Com:  0.259D+00 0.749D+00
 Coeff-En:   0.000D+00 0.000D+00 0.000D+00 0.000D+00 0.000D+00 0.000D+00
 Coeff-En:   0.000D+00 0.100D+01
 Coeff:     -0.327D-02 0.572D-02-0.123D-01-0.552D-01-0.870D-01 0.144D+00
 Coeff:      0.259D+00 0.749D+00
 Gap=     0.132 Goal=   None    Shift=    0.000
 Gap=     0.081 Goal=   None    Shift=    0.000
 RMSDP=8.79D-06 MaxDP=6.01D-04 DE=-2.22D-05 OVMax= 1.14D-03

 Cycle   9  Pass 1  IDiag  1:
 RMSU=  5.71D-06    CP:  7.73D-01  2.79D+00  9.81D-01  8.35D-01  1.06D+00
                    CP:  1.77D+00  1.10D+00  1.05D+00
 E= -615.581261316428     Delta-E=       -0.000002280336 Rises=F Damp=F
 DIIS: error= 5.77D-05 at cycle   9 NSaved=   9.
 NSaved= 9 IEnMin= 9 EnMin= -615.581261316428     IErMin= 9 ErrMin= 5.77D-05
 ErrMax= 5.77D-05 EMaxC= 1.00D-01 BMatC= 2.05D-06 BMatP= 4.43D-06
 IDIUse=1 WtCom= 1.00D+00 WtEn= 0.00D+00
 Coeff-Com: -0.318D-03 0.666D-03 0.770D-02 0.751D-02 0.122D-02-0.122D+00
 Coeff-Com: -0.476D-01 0.474D+00 0.679D+00
 Coeff:     -0.318D-03 0.666D-03 0.770D-02 0.751D-02 0.122D-02-0.122D+00
 Coeff:     -0.476D-01 0.474D+00 0.679D+00
 Gap=     0.132 Goal=   None    Shift=    0.000
 Gap=     0.081 Goal=   None    Shift=    0.000
 RMSDP=4.61D-06 MaxDP=3.19D-04 DE=-2.28D-06 OVMax= 5.23D-04

 Cycle  10  Pass 1  IDiag  1:
 RMSU=  2.85D-06    CP:  7.73D-01  2.79D+00  9.81D-01  8.38D-01  1.07D+00
                    CP:  1.80D+00  1.12D+00  1.25D+00  7.69D-01
 E= -615.581262188334     Delta-E=       -0.000000871906 Rises=F Damp=F
 DIIS: error= 1.60D-05 at cycle  10 NSaved=  10.
 NSaved=10 IEnMin=10 EnMin= -615.581262188334     IErMin=10 ErrMin= 1.60D-05
 ErrMax= 1.60D-05 EMaxC= 1.00D-01 BMatC= 1.39D-07 BMatP= 2.05D-06
 IDIUse=1 WtCom= 1.00D+00 WtEn= 0.00D+00
 Coeff-Com:  0.236D-03-0.364D-03 0.423D-02 0.988D-02 0.124D-01-0.561D-01
 Coeff-Com: -0.525D-01 0.214D-01 0.245D+00 0.816D+00
 Coeff:      0.236D-03-0.364D-03 0.423D-02 0.988D-02 0.124D-01-0.561D-01
 Coeff:     -0.525D-01 0.214D-01 0.245D+00 0.816D+00
 Gap=     0.132 Goal=   None    Shift=    0.000
 Gap=     0.081 Goal=   None    Shift=    0.000
 RMSDP=1.31D-06 MaxDP=1.01D-04 DE=-8.72D-07 OVMax= 1.96D-04

 Cycle  11  Pass 1  IDiag  1:
 RMSU=  6.85D-07    CP:  7.73D-01  2.79D+00  9.81D-01  8.38D-01  1.07D+00
                    CP:  1.81D+00  1.15D+00  1.30D+00  8.67D-01  9.44D-01
 E= -615.581262251955     Delta-E=       -0.000000063622 Rises=F Damp=F
 DIIS: error= 3.81D-06 at cycle  11 NSaved=  11.
 NSaved=11 IEnMin=11 EnMin= -615.581262251955     IErMin=11 ErrMin= 3.81D-06
 ErrMax= 3.81D-06 EMaxC= 1.00D-01 BMatC= 1.13D-08 BMatP= 1.39D-07
 IDIUse=1 WtCom= 1.00D+00 WtEn= 0.00D+00
 Coeff-Com:  0.152D-03-0.263D-03 0.742D-03 0.274D-02 0.429D-02-0.876D-02
 Coeff-Com: -0.132D-01-0.363D-01 0.281D-01 0.263D+00 0.760D+00
 Coeff:      0.152D-03-0.263D-03 0.742D-03 0.274D-02 0.429D-02-0.876D-02
 Coeff:     -0.132D-01-0.363D-01 0.281D-01 0.263D+00 0.760D+00
 Gap=     0.132 Goal=   None    Shift=    0.000
 Gap=     0.081 Goal=   None    Shift=    0.000
 RMSDP=3.38D-07 MaxDP=3.01D-05 DE=-6.36D-08 OVMax= 4.42D-05

 Cycle  12  Pass 1  IDiag  1:
 RMSU=  2.67D-07    CP:  7.73D-01  2.79D+00  9.81D-01  8.38D-01  1.07D+00
                    CP:  1.81D+00  1.15D+00  1.31D+00  8.81D-01  9.90D-01
                    CP:  1.01D+00
 E= -615.581262255696     Delta-E=       -0.000000003741 Rises=F Damp=F
 DIIS: error= 2.44D-06 at cycle  12 NSaved=  12.
 NSaved=12 IEnMin=12 EnMin= -615.581262255696     IErMin=12 ErrMin= 2.44D-06
 ErrMax= 2.44D-06 EMaxC= 1.00D-01 BMatC= 4.54D-09 BMatP= 1.13D-08
 IDIUse=1 WtCom= 1.00D+00 WtEn= 0.00D+00
 Coeff-Com:  0.258D-04-0.462D-04-0.232D-03-0.579D-04 0.216D-03 0.426D-02
 Coeff-Com:  0.164D-02-0.227D-01-0.256D-01 0.434D-02 0.426D+00 0.613D+00
 Coeff:      0.258D-04-0.462D-04-0.232D-03-0.579D-04 0.216D-03 0.426D-02
 Coeff:      0.164D-02-0.227D-01-0.256D-01 0.434D-02 0.426D+00 0.613D+00
 Gap=     0.132 Goal=   None    Shift=    0.000
 Gap=     0.081 Goal=   None    Shift=    0.000
 RMSDP=1.51D-07 MaxDP=1.36D-05 DE=-3.74D-09 OVMax= 1.83D-05

 Cycle  13  Pass 1  IDiag  1:
 RMSU=  1.06D-07    CP:  7.73D-01  2.79D+00  9.81D-01  8.38D-01  1.07D+00
                    CP:  1.81D+00  1.15D+00  1.31D+00  8.88D-01  1.00D+00
                    CP:  1.09D+00  7.71D-01
 E= -615.581262256793     Delta-E=       -0.000000001097 Rises=F Damp=F
 DIIS: error= 5.22D-07 at cycle  13 NSaved=  13.
 NSaved=13 IEnMin=13 EnMin= -615.581262256793     IErMin=13 ErrMin= 5.22D-07
 ErrMax= 5.22D-07 EMaxC= 1.00D-01 BMatC= 1.76D-10 BMatP= 4.54D-09
 IDIUse=1 WtCom= 1.00D+00 WtEn= 0.00D+00
 Coeff-Com: -0.203D-04 0.332D-04-0.164D-03-0.381D-03-0.666D-03 0.201D-02
 Coeff-Com:  0.231D-02 0.224D-02-0.953D-02-0.377D-01-0.428D-01 0.115D+00
 Coeff-Com:  0.969D+00
 Coeff:     -0.203D-04 0.332D-04-0.164D-03-0.381D-03-0.666D-03 0.201D-02
 Coeff:      0.231D-02 0.224D-02-0.953D-02-0.377D-01-0.428D-01 0.115D+00
 Coeff:      0.969D+00
 Gap=     0.132 Goal=   None    Shift=    0.000
 Gap=     0.081 Goal=   None    Shift=    0.000
 RMSDP=4.94D-08 MaxDP=4.34D-06 DE=-1.10D-09 OVMax= 5.54D-06

 Cycle  14  Pass 1  IDiag  1:
 RMSU=  2.61D-08    CP:  7.73D-01  2.79D+00  9.81D-01  8.38D-01  1.07D+00
                    CP:  1.81D+00  1.15D+00  1.31D+00  8.88D-01  1.00D+00
                    CP:  1.13D+00  8.63D-01  1.04D+00
 E= -615.581262257141     Delta-E=       -0.000000000348 Rises=F Damp=F
 DIIS: error= 6.48D-08 at cycle  14 NSaved=  14.
 NSaved=14 IEnMin=14 EnMin= -615.581262257141     IErMin=14 ErrMin= 6.48D-08
 ErrMax= 6.48D-08 EMaxC= 1.00D-01 BMatC= 3.84D-12 BMatP= 1.76D-10
 IDIUse=1 WtCom= 1.00D+00 WtEn= 0.00D+00
 Coeff-Com: -0.358D-05 0.604D-05-0.946D-05-0.453D-04-0.764D-04 0.131D-05
 Coeff-Com:  0.206D-03 0.117D-02-0.162D-05-0.389D-02-0.234D-01-0.120D-01
 Coeff-Com:  0.898D-01 0.948D+00
 Coeff:     -0.358D-05 0.604D-05-0.946D-05-0.453D-04-0.764D-04 0.131D-05
 Coeff:      0.206D-03 0.117D-02-0.162D-05-0.389D-02-0.234D-01-0.120D-01
 Coeff:      0.898D-01 0.948D+00
 Gap=     0.132 Goal=   None    Shift=    0.000
 Gap=     0.081 Goal=   None    Shift=    0.000
 RMSDP=1.07D-08 MaxDP=5.31D-07 DE=-3.48D-10 OVMax= 1.27D-06

 Cycle  15  Pass 1  IDiag  1:
 RMSU=  7.98D-09    CP:  7.73D-01  2.79D+00  9.81D-01  8.38D-01  1.07D+00
                    CP:  1.81D+00  1.15D+00  1.31D+00  8.88D-01  1.01D+00
                    CP:  1.13D+00  8.76D-01  1.06D+00  1.03D+00
 E= -615.581262257264     Delta-E=       -0.000000000123 Rises=F Damp=F
 DIIS: error= 1.84D-08 at cycle  15 NSaved=  15.
 NSaved=15 IEnMin=15 EnMin= -615.581262257264     IErMin=15 ErrMin= 1.84D-08
 ErrMax= 1.84D-08 EMaxC= 1.00D-01 BMatC= 2.63D-13 BMatP= 3.84D-12
 IDIUse=1 WtCom= 1.00D+00 WtEn= 0.00D+00
 Coeff-Com:  0.105D-05-0.173D-05 0.848D-05 0.171D-04 0.336D-04-0.112D-03
 Coeff-Com: -0.122D-03-0.101D-03 0.580D-03 0.195D-02 0.156D-02-0.812D-02
 Coeff-Com: -0.514D-01 0.461D-01 0.101D+01
 Coeff:      0.105D-05-0.173D-05 0.848D-05 0.171D-04 0.336D-04-0.112D-03
 Coeff:     -0.122D-03-0.101D-03 0.580D-03 0.195D-02 0.156D-02-0.812D-02
 Coeff:     -0.514D-01 0.461D-01 0.101D+01
 Gap=     0.132 Goal=   None    Shift=    0.000
 Gap=     0.081 Goal=   None    Shift=    0.000
 RMSDP=3.26D-09 MaxDP=1.33D-07 DE=-1.23D-10 OVMax= 3.46D-07

 SCF Done:  E(UB+HF-LYP) =  -615.581262257     A.U. after   15 cycles
             Convg  =    0.3260D-08             -V/T =  2.0085
             S**2   =   0.7731
 KE= 6.103864241844D+02 PE=-3.332129566010D+03 EE= 1.144467623389D+03
 Annihilation of the first spin contaminant:
 S**2 before annihilation     0.7731,   after     0.7504
 Leave Link  502 at Sat Oct 16 17:41:41 2010, MaxMem=  196608000 cpu:     615.0
 (Enter C:\G03W\l801.exe)
 Range of M.O.s used for correlation:     1   342
 NBasis=   342 NAE=    53 NBE=    52 NFC=     0 NFV=     0
 NROrb=    342 NOA=    53 NOB=    52 NVA=   289 NVB=   290

 **** Warning!!: The largest alpha MO coefficient is  0.47568980D+02


 **** Warning!!: The largest beta MO coefficient is  0.48916146D+02


 **** Warning!!: The smallest beta delta epsilon is  0.81368745D-01

 Leave Link  801 at Sat Oct 16 17:41:42 2010, MaxMem=  196608000 cpu:       0.0
 (Enter C:\G03W\l1002.exe)
 Minotr:  UHF wavefunction.
          Direct CPHF calculation.
          Solving linear equations simultaneously.
          Differentiating once with respect to magnetic field using GIAOs.
          Electric field/nuclear overlap derivatives assumed to be zero.
          Using symmetry in CPHF.
          Requested convergence is 1.0D-08 RMS, and 1.0D-07 maximum.
          Secondary convergence is 1.0D-12 RMS, and 1.0D-12 maximum.
          NewPWx=T KeepS1=F KeepF1=F KeepIn=T MapXYZ=F.
          MDV=     196607842 using IRadAn=       1.
 Symmetry not used in FoFDir.
 MinBra= 0 MaxBra= 2 Meth= 1.
 IRaf=       0 NMat=   1 IRICut=       1 DoRegI=T DoRafI=F ISym2E= 0 JSym2E=0.
          There are   3 degrees of freedom in the 1st order CPHF.
     3 vectors were produced by pass  0.
 AX will form   3 AO Fock derivatives at one time.
     3 vectors were produced by pass  1.
     3 vectors were produced by pass  2.
     3 vectors were produced by pass  3.
     3 vectors were produced by pass  4.
     3 vectors were produced by pass  5.
     2 vectors were produced by pass  6.
 Inv2:  IOpt= 1 Iter= 1 AM= 4.00D-16 Conv= 1.00D-12.
 Inverted reduced A of dimension   20 with in-core refinement.
 Calculating GIAO nuclear magnetic shielding tensors.
 SCF GIAO Magnetic shielding tensor (ppm):
  1  C    Isotropic =    53.8034   Anisotropy =   173.9545
   XX=   169.7731   YX=     0.0000   ZX=     0.0000
   XY=     0.0000   YY=    34.6979   ZY=     0.0000
   XZ=     0.0000   YZ=     0.0000   ZZ=   -43.0607
   Eigenvalues:   -43.0607    34.6979   169.7731
  2  C    Isotropic =    35.8290   Anisotropy =   180.5803
   XX=   156.2158   YX=     0.0000   ZX=     0.0000
   XY=     0.0000   YY=   -30.6878   ZY=   -34.8887
   XZ=     0.0000   YZ=   -32.3518   ZZ=   -18.0411
   Eigenvalues:   -58.5742     9.8453   156.2158
  3  C    Isotropic =    48.0101   Anisotropy =   195.1469
   XX=   178.1080   YX=     0.0000   ZX=     0.0000
   XY=     0.0000   YY=   -14.5461   ZY=    -0.2923
   XZ=     0.0000   YZ=    -1.9370   ZZ=   -19.5318
   Eigenvalues:   -19.7696   -14.3082   178.1080
  4  C    Isotropic =    59.9218   Anisotropy =   190.8263
   XX=   187.1393   YX=     0.0000   ZX=     0.0000
   XY=     0.0000   YY=    -4.0802   ZY=     0.0000
   XZ=     0.0000   YZ=     0.0000   ZZ=    -3.2937
   Eigenvalues:    -4.0802    -3.2937   187.1393
  5  C    Isotropic =    48.0101   Anisotropy =   195.1469
   XX=   178.1080   YX=     0.0000   ZX=     0.0000
   XY=     0.0000   YY=   -14.5461   ZY=     0.2923
   XZ=     0.0000   YZ=     1.9370   ZZ=   -19.5318
   Eigenvalues:   -19.7696   -14.3082   178.1080
  6  C    Isotropic =    35.8290   Anisotropy =   180.5803
   XX=   156.2158   YX=     0.0000   ZX=     0.0000
   XY=     0.0000   YY=   -30.6878   ZY=    34.8887
   XZ=     0.0000   YZ=    32.3518   ZZ=   -18.0411
   Eigenvalues:   -58.5742     9.8453   156.2158
  7  C    Isotropic =    43.5657   Anisotropy =   174.4939
   XX=   159.8949   YX=     0.0000   ZX=     0.0000
   XY=     0.0000   YY=   -40.8937   ZY=   -24.1569
   XZ=     0.0000   YZ=   -23.7489   ZZ=    11.6957
   Eigenvalues:   -50.1680    20.9700   159.8949
  8  C    Isotropic =    59.9218   Anisotropy =   190.8263
   XX=   187.1393   YX=     0.0000   ZX=     0.0000
   XY=     0.0000   YY=    -4.0802   ZY=     0.0000
   XZ=     0.0000   YZ=     0.0000   ZZ=    -3.2937
   Eigenvalues:    -4.0802    -3.2937   187.1393
  9  C    Isotropic =    48.0101   Anisotropy =   195.1469
   XX=   178.1080   YX=     0.0000   ZX=     0.0000
   XY=     0.0000   YY=   -14.5461   ZY=     0.2923
   XZ=     0.0000   YZ=     1.9370   ZZ=   -19.5318
   Eigenvalues:   -19.7696   -14.3082   178.1080
 10  C    Isotropic =    43.5657   Anisotropy =   174.4939
   XX=   159.8949   YX=     0.0000   ZX=     0.0000
   XY=     0.0000   YY=   -40.8937   ZY=    24.1569
   XZ=     0.0000   YZ=    23.7489   ZZ=    11.6957
   Eigenvalues:   -50.1680    20.9700   159.8949
 11  C    Isotropic =    35.8290   Anisotropy =   180.5803
   XX=   156.2158   YX=     0.0000   ZX=     0.0000
   XY=     0.0000   YY=   -30.6878   ZY=    34.8887
   XZ=     0.0000   YZ=    32.3518   ZZ=   -18.0411
   Eigenvalues:   -58.5742     9.8453   156.2158
 12  H    Isotropic =    23.5956   Anisotropy =     6.7446
   XX=    21.0853   YX=     0.0000   ZX=     0.0000
   XY=     0.0000   YY=    23.3751   ZY=     2.9362
   XZ=     0.0000   YZ=     2.8356   ZZ=    26.3264
   Eigenvalues:    21.0853    21.6095    28.0920
 13  C    Isotropic =    53.8034   Anisotropy =   173.9545
   XX=   169.7731   YX=     0.0000   ZX=     0.0000
   XY=     0.0000   YY=    34.6979   ZY=     0.0000
   XZ=     0.0000   YZ=     0.0000   ZZ=   -43.0607
   Eigenvalues:   -43.0607    34.6979   169.7731
 14  C    Isotropic =    35.8290   Anisotropy =   180.5803
   XX=   156.2158   YX=     0.0000   ZX=     0.0000
   XY=     0.0000   YY=   -30.6878   ZY=   -34.8887
   XZ=     0.0000   YZ=   -32.3518   ZZ=   -18.0411
   Eigenvalues:   -58.5742     9.8453   156.2158
 15  C    Isotropic =    48.0101   Anisotropy =   195.1469
   XX=   178.1080   YX=     0.0000   ZX=     0.0000
   XY=     0.0000   YY=   -14.5461   ZY=    -0.2923
   XZ=     0.0000   YZ=    -1.9370   ZZ=   -19.5318
   Eigenvalues:   -19.7696   -14.3082   178.1080
 16  C    Isotropic =    43.5657   Anisotropy =   174.4939
   XX=   159.8949   YX=     0.0000   ZX=     0.0000
   XY=     0.0000   YY=   -40.8937   ZY=   -24.1569
   XZ=     0.0000   YZ=   -23.7489   ZZ=    11.6957
   Eigenvalues:   -50.1680    20.9700   159.8949
 17  C    Isotropic =    43.5657   Anisotropy =   174.4939
   XX=   159.8949   YX=     0.0000   ZX=     0.0000
   XY=     0.0000   YY=   -40.8937   ZY=    24.1569
   XZ=     0.0000   YZ=    23.7489   ZZ=    11.6957
   Eigenvalues:   -50.1680    20.9700   159.8949
 18  H    Isotropic =    23.6364   Anisotropy =     6.6486
   XX=    20.4695   YX=     0.0000   ZX=     0.0000
   XY=     0.0000   YY=    23.5507   ZY=     2.2784
   XZ=     0.0000   YZ=     2.3392   ZZ=    26.8890
   Eigenvalues:    20.4695    22.3708    28.0688
 19  H    Isotropic =    23.6364   Anisotropy =     6.6486
   XX=    20.4695   YX=     0.0000   ZX=     0.0000
   XY=     0.0000   YY=    23.5507   ZY=    -2.2784
   XZ=     0.0000   YZ=    -2.3392   ZZ=    26.8890
   Eigenvalues:    20.4695    22.3708    28.0688
 20  H    Isotropic =    23.6364   Anisotropy =     6.6486
   XX=    20.4695   YX=     0.0000   ZX=     0.0000
   XY=     0.0000   YY=    23.5507   ZY=    -2.2784
   XZ=     0.0000   YZ=    -2.3392   ZZ=    26.8890
   Eigenvalues:    20.4695    22.3708    28.0688
 21  H    Isotropic =    24.1156   Anisotropy =     4.7967
   XX=    21.7426   YX=     0.0000   ZX=     0.0000
   XY=     0.0000   YY=    27.3134   ZY=     0.0000
   XZ=     0.0000   YZ=     0.0000   ZZ=    23.2908
   Eigenvalues:    21.7426    23.2908    27.3134
 22  H    Isotropic =    23.5956   Anisotropy =     6.7446
   XX=    21.0853   YX=     0.0000   ZX=     0.0000
   XY=     0.0000   YY=    23.3751   ZY=    -2.9362
   XZ=     0.0000   YZ=    -2.8356   ZZ=    26.3264
   Eigenvalues:    21.0853    21.6095    28.0920
 23  H    Isotropic =    23.5956   Anisotropy =     6.7446
   XX=    21.0853   YX=     0.0000   ZX=     0.0000
   XY=     0.0000   YY=    23.3751   ZY=     2.9362
   XZ=     0.0000   YZ=     2.8356   ZZ=    26.3264
   Eigenvalues:    21.0853    21.6095    28.0920
 24  H    Isotropic =    23.6364   Anisotropy =     6.6486
   XX=    20.4695   YX=     0.0000   ZX=     0.0000
   XY=     0.0000   YY=    23.5507   ZY=     2.2784
   XZ=     0.0000   YZ=     2.3392   ZZ=    26.8890
   Eigenvalues:    20.4695    22.3708    28.0688
 25  H    Isotropic =    24.1156   Anisotropy =     4.7967
   XX=    21.7426   YX=     0.0000   ZX=     0.0000
   XY=     0.0000   YY=    27.3134   ZY=     0.0000
   XZ=     0.0000   YZ=     0.0000   ZZ=    23.2908
   Eigenvalues:    21.7426    23.2908    27.3134
 26  H    Isotropic =    23.5956   Anisotropy =     6.7446
   XX=    21.0853   YX=     0.0000   ZX=     0.0000
   XY=     0.0000   YY=    23.3751   ZY=    -2.9362
   XZ=     0.0000   YZ=    -2.8356   ZZ=    26.3264
   Eigenvalues:    21.0853    21.6095    28.0920
 g value of the free electron [g_e]: 0.20023193D+01
 relativistic mass correction [g_RMC]:-0.14074143D-03
 diamagnetic correction to g tensor [g_DC]:
   XX=-0.10532588D-04   YX=-0.82171431D-19   ZX=-0.73950293D-19
   XY= 0.59524818D-20   YY= 0.95475163D-04   ZY= 0.22128736D-19
   XZ=-0.53437856D-21   YZ= 0.11408475D-19   ZZ= 0.61588897D-04
 orbital Zeeman and spin-orbit coupling contribution to g tensor [g_OZ/SOC]:
   XX= 0.46924904D-03   YX=-0.12537865D-14   ZX= 0.17089108D-14
   XY=-0.27009179D-15   YY= 0.52817507D-04   ZY=-0.69024205D-14
   XZ=-0.43140788D-15   YZ=-0.10741350D-13   ZZ= 0.95967341D-03
 g tensor [g = g_e + g_RMC + g_DC + g_OZ/SOC]:
   XX= 0.20026373D+01   YX=-0.12538687D-14   ZX= 0.17088369D-14
   XY=-0.27008584D-15   YY= 0.20023269D+01   ZY=-0.69023983D-14
   XZ=-0.43140841D-15   YZ=-0.10741339D-13   ZZ= 0.20031998D+01
 g shifts relative to the free electron (ppm):
   xx=            7.6   yy=          318.0   zz=          880.5
 End of Minotr Frequency-dependent properties file   721 does not exist.
 Leave Link 1002 at Sat Oct 16 18:10:43 2010, MaxMem=  196608000 cpu:    1741.0
 (Enter C:\G03W\l601.exe)
 Copying SCF densities to generalized density rwf, ISCF=1 IROHF=0.

 **********************************************************************

            Population analysis using the SCF density.

 **********************************************************************

 Orbital symmetries:
 Alpha Orbitals:
       Occupied  (B1U) (AG) (B3G) (B2U) (B1U) (AG) (B2U) (B3G)
                 (AG) (B2U) (B1U) (B3G) (AG) (B1U) (B1U) (AG) (AG)
                 (B1U) (B2U) (AG) (B3G) (AG) (B1U) (B2U) (B3G)
                 (AG) (B1U) (B2U) (B1U) (AG) (B3G) (B2U) (AG) (B1U)
                 (AG) (B2U) (B3G) (AG) (B3U) (B1U) (B2U) (B3G)
                 (B2U) (B1U) (B2G) (B1G) (AG) (B3G) (B3U) (AU)
                 (B3U) (B2G) (B1G)
       Virtual   (AU) (B3U) (B2G) (B1G) (B2G) (AG) (B1U) (B2U)
                 (AG) (B3G) (AU) (AG) (B1U) (B2U) (B1U) (B3U) (AG)
                 (B2U) (B3G) (B1U) (B2U) (B3G) (AG) (AG) (B2G)
                 (AG) (B1U) (B1U) (B2U) (B3G) (B3G) (B1U) (AG)
                 (B2U) (B3U) (AG) (B1U) (B2U) (B3G) (B1G) (B2G)
                 (B1U) (AG) (B2U) (B3G) (B2U) (AU) (B3U) (B1U)
                 (B3U) (AG) (B1U) (AG) (B2G) (B1G) (B3G) (B1U)
                 (B2G) (B3G) (B3U) (B1G) (AG) (B2U) (B1U) (B2U)
                 (AU) (B1U) (B3G) (AG) (AG) (B3G) (B1U) (B2U) (AG)
                 (B2G) (B3G) (B1U) (B2U) (AU) (B1U) (B3U) (B1U)
                 (B3G) (AG) (AG) (B2U) (AG) (B3G) (B2G) (B1U) (B2U)
                 (B3G) (B1U) (B1U) (B3G) (B2U) (AG) (B3U) (B2U)
                 (B1G) (AG) (B1U) (AG) (AG) (B2G) (B1U) (B2U) (B3G)
                 (AU) (B3U) (B1G) (B2U) (B1U) (AG) (B2U) (B3U)
                 (B3G) (B3G) (AG) (AU) (B1G) (B1U) (B3G) (B2G)
                 (B1G) (B1U) (B3U) (AG) (B3G) (AU) (B2U) (AG) (B1U)
                 (B2U) (AG) (B1U) (B3G) (B1U) (B3G) (AG) (B2G)
                 (B1U) (B1G) (B3U) (AU) (B2U) (B2G) (AG) (B1U)
                 (B3U) (B3G) (B2G) (AG) (B2U) (B2U) (AG) (B3G)
                 (B1U) (AU) (B2U) (B1U) (AG) (B2U) (B1G) (B3U)
                 (B1G) (B2G) (AG) (B3G) (B1U) (AG) (B3U) (B2U)
                 (B2G) (B3G) (B1U) (B2U) (B3G) (AG) (AG) (B1U)
                 (B1G) (B2U) (AU) (B1U) (B3G) (B3U) (B2G) (AU)
                 (B3G) (B3U) (B2U) (B1G) (AU) (B1U) (B3G) (B2G)
                 (AG) (B2U) (AG) (B1U) (B2G) (AU) (B2U) (B3G) (B1U)
                 (B1G) (B3U) (B3G) (AG) (B2U) (B1U) (AU) (B2G)
                 (AG) (B3G) (B1U) (AG) (B2U) (AG) (B1U) (B1U) (B2U)
                 (B3G) (AG) (B1U) (B3G) (B2U) (AG) (B1U) (B3G)
                 (B2U) (B3G) (B1U) (AG) (B3G) (B1U) (AG) (AG) (AG)
                 (B1U) (B2U) (B2U) (B3G) (B1U) (B3G) (AG) (B2U)
                 (B1U) (AG) (B1U) (B2U) (AG) (B1U) (B2U) (B3G)
                 (AG) (B3G) (B1U) (B1U) (B3G) (AG) (B1U) (AG) (B1U)
                 (AG) (B2U) (AG) (B2U) (B3G) (B1U) (B2U) (B1U)
                 (B3G) (AG) (B1U) (B3G) (AG) (B1U) (AG) (B2U) (B1U)
                 (AG) (B3G) (B2U) (B3G) (B1U) (AG) (B1U)
 Beta  Orbitals:
       Occupied  (B1U) (AG) (B3G) (B2U) (B1U) (AG) (B3G) (B2U)
                 (AG) (B2U) (AG) (B1U) (B3G) (B1U) (B1U) (AG) (AG)
                 (B1U) (B2U) (AG) (B3G) (AG) (B1U) (B2U) (B3G)
                 (AG) (B1U) (B2U) (B1U) (AG) (B3G) (B2U) (AG) (B1U)
                 (AG) (B2U) (B3G) (AG) (B3U) (B1U) (B2U) (B3G)
                 (B2U) (B1U) (B2G) (B1G) (AG) (B3G) (B3U) (AU)
                 (B3U) (B2G)
       Virtual   (B1G) (AU) (B3U) (B2G) (B1G) (AG) (B2G) (B1U)
                 (B2U) (AG) (B3G) (AU) (AG) (B1U) (B2U) (B1U) (B3U)
                 (AG) (B2U) (B3G) (B1U) (B2U) (B3G) (AG) (AG) (B2G)
                 (AG) (B1U) (B1U) (B2U) (B3G) (B3G) (B1U) (AG)
                 (B2U) (B3U) (AG) (B1U) (B2U) (B3G) (B1U) (B1G)
                 (B2G) (AG) (B2U) (B3G) (B2U) (B1U) (B3U) (AU)
                 (B3U) (AG) (B1U) (AG) (B2G) (B1G) (B3G) (B1U)
                 (B2G) (B3G) (B3U) (B1G) (AG) (B2U) (B1U) (B2U)
                 (B1U) (AU) (AG) (B3G) (AG) (B3G) (B1U) (B2U) (AG)
                 (B2G) (B3G) (B1U) (B2U) (AU) (B1U) (B3U) (B1U)
                 (B3G) (AG) (AG) (B2U) (AG) (B3G) (B2G) (B1U) (B2U)
                 (B3G) (B1U) (B1U) (B3G) (B2U) (AG) (B3U) (B2U)
                 (B1G) (AG) (B1U) (AG) (AG) (B1U) (B2G) (B2U) (B3G)
                 (AU) (B3U) (B1G) (B2U) (B1U) (AG) (B3U) (B2U)
                 (B3G) (B3G) (AG) (AU) (B1G) (B1U) (B3G) (B2G)
                 (B1G) (B1U) (B3U) (AG) (B3G) (AU) (B2U) (AG) (B1U)
                 (B2U) (AG) (B1U) (B3G) (B1U) (B3G) (AG) (B2G)
                 (B1U) (B3U) (B1G) (AU) (B2U) (B2G) (AG) (B1U)
                 (B3U) (B3G) (AG) (B2U) (B2G) (B2U) (AG) (B3G)
                 (B1U) (AU) (B2U) (B1U) (AG) (B2U) (B1G) (B3U)
                 (B1G) (AG) (B2G) (B3G) (B1U) (AG) (B3U) (B2U)
                 (B2G) (B3G) (B1U) (B3G) (AG) (B2U) (AG) (B1U)
                 (B1G) (B2U) (B1U) (AU) (B3G) (B3U) (B2G) (AU)
                 (B3G) (B3U) (B2U) (B1G) (AU) (B1U) (B2G) (B3G)
                 (AG) (B2U) (AG) (B1U) (B2G) (AU) (B2U) (B3G) (B1U)
                 (B1G) (B3U) (B3G) (AG) (B2U) (B1U) (AU) (B2G)
                 (AG) (B3G) (B1U) (AG) (B2U) (AG) (B1U) (B1U) (B2U)
                 (B3G) (AG) (B1U) (B3G) (B2U) (AG) (B1U) (B3G)
                 (B2U) (B3G) (B1U) (AG) (B3G) (B1U) (AG) (AG) (AG)
                 (B1U) (B2U) (B2U) (B3G) (B1U) (B3G) (AG) (B2U)
                 (B1U) (AG) (B1U) (B2U) (AG) (B1U) (B2U) (B3G)
                 (AG) (B3G) (B1U) (B1U) (B3G) (AG) (B1U) (AG) (B1U)
                 (AG) (B2U) (AG) (B2U) (B3G) (B1U) (B2U) (B1U)
                 (B3G) (AG) (B1U) (B3G) (AG) (B1U) (AG) (B2U) (B1U)
                 (AG) (B3G) (B2U) (B3G) (B1U) (AG) (B1U)
 The electronic state is 2-B1G.
 Alpha  occ. eigenvalues --  -10.37528 -10.37528 -10.37528 -10.37527 -10.37420
 Alpha  occ. eigenvalues --  -10.37420 -10.37419 -10.37419 -10.36858 -10.36858
 Alpha  occ. eigenvalues --  -10.36799 -10.36799 -10.36717 -10.36670 -10.35503
 Alpha  occ. eigenvalues --  -10.35503  -1.05489  -1.01260  -0.99438  -0.95855
 Alpha  occ. eigenvalues --   -0.93102  -0.90934  -0.89256  -0.87268  -0.79392
 Alpha  occ. eigenvalues --   -0.78656  -0.78622  -0.76950  -0.70400  -0.68290
 Alpha  occ. eigenvalues --   -0.67690  -0.66338  -0.65173  -0.62892  -0.59634
 Alpha  occ. eigenvalues --   -0.59489  -0.59466  -0.57709  -0.57274  -0.56064
 Alpha  occ. eigenvalues --   -0.55389  -0.55059  -0.52718  -0.52633  -0.52516
 Alpha  occ. eigenvalues --   -0.50627  -0.48824  -0.48429  -0.46103  -0.44189
 Alpha  occ. eigenvalues --   -0.41776  -0.39402  -0.36821
 Alpha virt. eigenvalues --   -0.23652  -0.18755  -0.17604  -0.15687  -0.11347
 Alpha virt. eigenvalues --   -0.10360  -0.09004  -0.08856  -0.07764  -0.07108
 Alpha virt. eigenvalues --   -0.06776  -0.05908  -0.04943  -0.03876  -0.03296
 Alpha virt. eigenvalues --   -0.03171  -0.01781  -0.01638  -0.01118   0.01347
 Alpha virt. eigenvalues --    0.03354   0.03674   0.04181   0.05612   0.05852
 Alpha virt. eigenvalues --    0.06058   0.06787   0.07556   0.08392   0.09620
 Alpha virt. eigenvalues --    0.11299   0.11568   0.12460   0.13201   0.13326
 Alpha virt. eigenvalues --    0.13699   0.13780   0.14704   0.15079   0.15871
 Alpha virt. eigenvalues --    0.15934   0.15950   0.18254   0.18838   0.19057
 Alpha virt. eigenvalues --    0.19318   0.19427   0.19926   0.20009   0.22039
 Alpha virt. eigenvalues --    0.22742   0.22855   0.23325   0.24864   0.25160
 Alpha virt. eigenvalues --    0.26933   0.28475   0.28631   0.30279   0.30761
 Alpha virt. eigenvalues --    0.31328   0.31442   0.31713   0.31804   0.32525
 Alpha virt. eigenvalues --    0.32743   0.32743   0.33257   0.33368   0.34077
 Alpha virt. eigenvalues --    0.34422   0.36514   0.37122   0.37354   0.38073
 Alpha virt. eigenvalues --    0.39266   0.39605   0.41178   0.41591   0.43313
 Alpha virt. eigenvalues --    0.43697   0.45347   0.47395   0.48715   0.50656
 Alpha virt. eigenvalues --    0.51632   0.51807   0.52599   0.53208   0.53546
 Alpha virt. eigenvalues --    0.53603   0.55056   0.56092   0.56882   0.58805
 Alpha virt. eigenvalues --    0.58996   0.64409   0.66249   0.67138   0.68609
 Alpha virt. eigenvalues --    0.69274   0.70054   0.72259   0.75433   0.75629
 Alpha virt. eigenvalues --    0.75680   0.76090   0.76159   0.77203   0.78514
 Alpha virt. eigenvalues --    0.78811   0.79637   0.80235   0.81747   0.81863
 Alpha virt. eigenvalues --    0.81940   0.82433   0.83127   0.84410   0.84712
 Alpha virt. eigenvalues --    0.84775   0.86484   0.87644   0.88166   0.88484
 Alpha virt. eigenvalues --    0.89163   0.92700   0.93372   0.93515   0.94143
 Alpha virt. eigenvalues --    0.94462   0.98270   1.01837   1.03688   1.05147
 Alpha virt. eigenvalues --    1.06032   1.07996   1.16048   1.16441   1.16637
 Alpha virt. eigenvalues --    1.17442   1.18187   1.18394   1.18416   1.19798
 Alpha virt. eigenvalues --    1.21303   1.22484   1.23553   1.27152   1.27986
 Alpha virt. eigenvalues --    1.28615   1.31335   1.31373   1.31382   1.33270
 Alpha virt. eigenvalues --    1.35476   1.36005   1.37065   1.37262   1.37887
 Alpha virt. eigenvalues --    1.40992   1.41176   1.43647   1.44580   1.47260
 Alpha virt. eigenvalues --    1.47405   1.48235   1.48350   1.49444   1.50251
 Alpha virt. eigenvalues --    1.50626   1.50872   1.51586   1.53285   1.55090
 Alpha virt. eigenvalues --    1.56417   1.57553   1.57742   1.57843   1.60519
 Alpha virt. eigenvalues --    1.60698   1.61417   1.61857   1.62473   1.62632
 Alpha virt. eigenvalues --    1.64155   1.64514   1.64589   1.65360   1.68494
 Alpha virt. eigenvalues --    1.68701   1.69411   1.76274   1.76483   1.87311
 Alpha virt. eigenvalues --    1.87791   1.87806   1.88262   1.90107   1.93996
 Alpha virt. eigenvalues --    1.94290   1.94865   1.96229   1.96710   1.97362
 Alpha virt. eigenvalues --    1.98373   1.99630   2.01972   2.03210   2.03485
 Alpha virt. eigenvalues --    2.12199   2.15628   2.21311   2.22003   2.26675
 Alpha virt. eigenvalues --    2.28208   2.30352   2.30467   2.30996   2.31362
 Alpha virt. eigenvalues --    2.33001   2.35475   2.37024   2.39101   2.48434
 Alpha virt. eigenvalues --    2.48838   2.50120   2.51656   2.55700   2.58916
 Alpha virt. eigenvalues --    2.59697   2.64860   2.67377   2.99100   3.10803
 Alpha virt. eigenvalues --    3.18715   3.27806   4.83834   4.93093   4.97397
 Alpha virt. eigenvalues --    4.97792   4.99015   5.01117   5.06095   5.11837
 Alpha virt. eigenvalues --    5.16813   5.17616   5.23168   5.25831   5.27357
 Alpha virt. eigenvalues --    5.29784   5.37353   5.41938   5.47544   5.47713
 Alpha virt. eigenvalues --    5.48066   5.51388   5.51968   5.54612   5.67698
 Alpha virt. eigenvalues --    5.77718   5.86631   6.14377  29.43414  29.68698
 Alpha virt. eigenvalues --   29.70571  29.74080  29.79112  29.82610  29.84918
 Alpha virt. eigenvalues --   29.89760  29.92619  30.01312  30.01850  30.02406
 Alpha virt. eigenvalues --   30.09936  30.15941  30.19532  30.40946  36.54439
 Alpha virt. eigenvalues --   36.58490  36.59011  36.60469  36.64350  36.65013
 Alpha virt. eigenvalues --   36.80024  36.81815  36.84065  36.85151
  Beta  occ. eigenvalues --  -10.37541 -10.37540 -10.37540 -10.37539 -10.37090
  Beta  occ. eigenvalues --  -10.37090 -10.37088 -10.37088 -10.36735 -10.36735
  Beta  occ. eigenvalues --  -10.36724 -10.36678 -10.36677 -10.36676 -10.35632
  Beta  occ. eigenvalues --  -10.35632  -1.05297  -1.00853  -0.99104  -0.95460
  Beta  occ. eigenvalues --   -0.92616  -0.90613  -0.89234  -0.86373  -0.78865
  Beta  occ. eigenvalues --   -0.78528  -0.78498  -0.76680  -0.70122  -0.68096
  Beta  occ. eigenvalues --   -0.67518  -0.66147  -0.65049  -0.62733  -0.59481
  Beta  occ. eigenvalues --   -0.59331  -0.59277  -0.57656  -0.56731  -0.55998
  Beta  occ. eigenvalues --   -0.55176  -0.54859  -0.52565  -0.52540  -0.51377
  Beta  occ. eigenvalues --   -0.49555  -0.48650  -0.48401  -0.44963  -0.42473
  Beta  occ. eigenvalues --   -0.40662  -0.39404
  Beta virt. eigenvalues --   -0.31267  -0.21352  -0.18291  -0.17153  -0.14484
  Beta virt. eigenvalues --   -0.10315  -0.10265  -0.08955  -0.08806  -0.07726
  Beta virt. eigenvalues --   -0.07040  -0.06060  -0.05901  -0.04909  -0.03760
  Beta virt. eigenvalues --   -0.03221  -0.02342  -0.01709  -0.01582  -0.01066
  Beta virt. eigenvalues --    0.01453   0.03498   0.03806   0.04278   0.05683
  Beta virt. eigenvalues --    0.06094   0.06175   0.06853   0.07582   0.08539
  Beta virt. eigenvalues --    0.09876   0.11468   0.11651   0.12475   0.13294
  Beta virt. eigenvalues --    0.13803   0.13844   0.13868   0.14964   0.15380
  Beta virt. eigenvalues --    0.16110   0.16476   0.16650   0.18391   0.18975
  Beta virt. eigenvalues --    0.19122   0.19532   0.20094   0.20110   0.20396
  Beta virt. eigenvalues --    0.22360   0.22856   0.23048   0.23461   0.24919
  Beta virt. eigenvalues --    0.26172   0.27141   0.28491   0.28738   0.30600
  Beta virt. eigenvalues --    0.31122   0.31491   0.31559   0.31916   0.31990
  Beta virt. eigenvalues --    0.32828   0.32876   0.33354   0.33412   0.33416
  Beta virt. eigenvalues --    0.34293   0.34488   0.36516   0.37186   0.37410
  Beta virt. eigenvalues --    0.38574   0.39358   0.39708   0.41314   0.41681
  Beta virt. eigenvalues --    0.43333   0.43778   0.45433   0.47521   0.48871
  Beta virt. eigenvalues --    0.50792   0.51744   0.51979   0.52793   0.53257
  Beta virt. eigenvalues --    0.53718   0.53781   0.55161   0.56158   0.57069
  Beta virt. eigenvalues --    0.58938   0.59146   0.64435   0.66573   0.67332
  Beta virt. eigenvalues --    0.69009   0.69355   0.70102   0.72291   0.75581
  Beta virt. eigenvalues --    0.75724   0.76094   0.76232   0.76484   0.77731
  Beta virt. eigenvalues --    0.78930   0.79294   0.79905   0.80282   0.81867
  Beta virt. eigenvalues --    0.82096   0.82228   0.82563   0.83170   0.84537
  Beta virt. eigenvalues --    0.85357   0.85367   0.86586   0.87782   0.88414
  Beta virt. eigenvalues --    0.88997   0.89241   0.93301   0.93623   0.93872
  Beta virt. eigenvalues --    0.94335   0.94780   0.98477   1.02270   1.03870
  Beta virt. eigenvalues --    1.05351   1.06097   1.08116   1.16276   1.16721
  Beta virt. eigenvalues --    1.16951   1.17739   1.18305   1.18844   1.18914
  Beta virt. eigenvalues --    1.20234   1.21425   1.22796   1.23574   1.27385
  Beta virt. eigenvalues --    1.28268   1.28736   1.31459   1.31489   1.31593
  Beta virt. eigenvalues --    1.33365   1.35555   1.36054   1.37146   1.37547
  Beta virt. eigenvalues --    1.38177   1.41111   1.41472   1.43760   1.44883
  Beta virt. eigenvalues --    1.47547   1.47570   1.48447   1.48630   1.49544
  Beta virt. eigenvalues --    1.50362   1.50728   1.51236   1.51680   1.53498
  Beta virt. eigenvalues --    1.55643   1.56415   1.57902   1.58039   1.58338
  Beta virt. eigenvalues --    1.60571   1.60680   1.61744   1.61973   1.62695
  Beta virt. eigenvalues --    1.62869   1.64235   1.64667   1.64995   1.65757
  Beta virt. eigenvalues --    1.68795   1.69106   1.69500   1.76886   1.76952
  Beta virt. eigenvalues --    1.87732   1.88073   1.88230   1.88635   1.90504
  Beta virt. eigenvalues --    1.94097   1.94581   1.95208   1.96690   1.96878
  Beta virt. eigenvalues --    1.97592   1.98452   2.00133   2.02416   2.03284
  Beta virt. eigenvalues --    2.03559   2.12268   2.15639   2.21644   2.22358
  Beta virt. eigenvalues --    2.26727   2.28378   2.30386   2.30512   2.31108
  Beta virt. eigenvalues --    2.31430   2.33080   2.35608   2.37164   2.39233
  Beta virt. eigenvalues --    2.48574   2.48862   2.50249   2.51799   2.55754
  Beta virt. eigenvalues --    2.59035   2.59749   2.64988   2.67503   2.99215
  Beta virt. eigenvalues --    3.10948   3.18808   3.27935   4.84050   4.93106
  Beta virt. eigenvalues --    4.97370   4.97788   4.99048   5.01035   5.05994
  Beta virt. eigenvalues --    5.12011   5.17013   5.17680   5.23444   5.25886
  Beta virt. eigenvalues --    5.27322   5.29736   5.38030   5.42146   5.47558
  Beta virt. eigenvalues --    5.47855   5.48647   5.51456   5.52148   5.54671
  Beta virt. eigenvalues --    5.68066   5.77909   5.86901   6.14541  29.43544
  Beta virt. eigenvalues --   29.68772  29.70568  29.74267  29.79231  29.83104
  Beta virt. eigenvalues --   29.85373  29.89879  29.92603  30.01343  30.02024
  Beta virt. eigenvalues --   30.02487  30.10101  30.15978  30.19685  30.41033
  Beta virt. eigenvalues --   36.54343  36.58306  36.58944  36.60385  36.64072
  Beta virt. eigenvalues --   36.64797  36.79904  36.81697  36.83933  36.85023
          Condensed to atoms (all electrons):
              1          2          3          4          5          6
     1  C    4.739279   0.527869  -0.018270   0.007858  -0.018270   0.527869
     2  C    0.527869   5.172427   0.257545  -0.020779  -0.012193  -0.085251
     3  C   -0.018270   0.257545   4.940172   0.291199   0.009728  -0.012193
     4  C    0.007858  -0.020779   0.291199   5.500828   0.291199  -0.020779
     5  C   -0.018270  -0.012193   0.009728   0.291199   4.940172   0.257545
     6  C    0.527869  -0.085251  -0.012193  -0.020779   0.257545   5.172427
     7  C   -0.005178   0.031600   0.286948   0.016944  -0.011620   0.006326
     8  C    0.002429  -0.026189   0.116286  -0.150746   0.116286  -0.026189
     9  C    0.004949   0.021680  -0.024286   0.116286  -0.043363  -0.005517
    10  C   -0.006951  -0.010938  -0.084654  -0.019354   0.012338   0.007556
    11  C    0.000308  -0.000647   0.021680  -0.026189  -0.005517  -0.000791
    12  H   -0.000005   0.000034   0.000083  -0.001000   0.000012  -0.000003
    13  C   -0.000032   0.000308   0.004949   0.002429   0.004949   0.000308
    14  C    0.000308  -0.000791  -0.005517  -0.026189   0.021680  -0.000647
    15  C    0.004949  -0.005517  -0.043363   0.116286  -0.024286   0.021680
    16  C   -0.006951   0.007556   0.012338  -0.019354  -0.084654  -0.010938
    17  C   -0.005178   0.006326  -0.011620   0.016944   0.286948   0.031600
    18  H    0.001579  -0.000270   0.000349  -0.011822  -0.065011   0.008135
    19  H   -0.000215   0.000095   0.000587   0.004192  -0.012711   0.000090
    20  H    0.001579   0.008135  -0.065011  -0.011822   0.000349  -0.000270
    21  H    0.381136  -0.031795  -0.014062   0.008507  -0.014062  -0.031795
    22  H   -0.027778   0.410296  -0.092224  -0.013081   0.003604  -0.003833
    23  H   -0.027778  -0.003833   0.003604  -0.013081  -0.092224   0.410296
    24  H   -0.000215   0.000090  -0.012711   0.004192   0.000587   0.000095
    25  H   -0.000001   0.000002   0.000026   0.000454   0.000026   0.000002
    26  H   -0.000005  -0.000003   0.000012  -0.001000   0.000083   0.000034
              7          8          9         10         11         12
     1  C   -0.005178   0.002429   0.004949  -0.006951   0.000308  -0.000005
     2  C    0.031600  -0.026189   0.021680  -0.010938  -0.000647   0.000034
     3  C    0.286948   0.116286  -0.024286  -0.084654   0.021680   0.000083
     4  C    0.016944  -0.150746   0.116286  -0.019354  -0.026189  -0.001000
     5  C   -0.011620   0.116286  -0.043363   0.012338  -0.005517   0.000012
     6  C    0.006326  -0.026189  -0.005517   0.007556  -0.000791  -0.000003
     7  C    5.067216  -0.019354  -0.084654   0.582806  -0.010938   0.001209
     8  C   -0.019354   5.500828   0.291199   0.016944  -0.020779  -0.013081
     9  C   -0.084654   0.291199   4.940172   0.286948   0.257545  -0.092224
    10  C    0.582806   0.016944   0.286948   5.067216   0.031600   0.021106
    11  C   -0.010938  -0.020779   0.257545   0.031600   5.172427   0.410296
    12  H    0.001209  -0.013081  -0.092224   0.021106   0.410296   0.550237
    13  C   -0.006951   0.007858  -0.018270  -0.005178   0.527869  -0.027778
    14  C    0.007556  -0.020779  -0.012193   0.006326  -0.085251  -0.003833
    15  C    0.012338   0.291199   0.009728  -0.011620  -0.012193   0.003604
    16  C    0.000370   0.016944  -0.011620  -0.002685   0.006326  -0.000009
    17  C   -0.002685  -0.019354   0.012338   0.000370   0.007556   0.000101
    18  H   -0.000086   0.004192   0.000587   0.000026   0.000095   0.000000
    19  H    0.000026  -0.011822   0.000349  -0.000086  -0.000270   0.000000
    20  H    0.384949   0.004192  -0.012711  -0.025152   0.000090  -0.000008
    21  H    0.000848   0.000454   0.000026  -0.000237   0.000002   0.000000
    22  H    0.021106  -0.001000   0.000083   0.001209   0.000034   0.000000
    23  H   -0.000009  -0.001000   0.000012   0.000101  -0.000003   0.000000
    24  H   -0.025152  -0.011822  -0.065011   0.384949   0.008135   0.001594
    25  H   -0.000237   0.008507  -0.014062   0.000848  -0.031795  -0.004792
    26  H    0.000101  -0.013081   0.003604  -0.000009  -0.003833  -0.000146
             13         14         15         16         17         18
     1  C   -0.000032   0.000308   0.004949  -0.006951  -0.005178   0.001579
     2  C    0.000308  -0.000791  -0.005517   0.007556   0.006326  -0.000270
     3  C    0.004949  -0.005517  -0.043363   0.012338  -0.011620   0.000349
     4  C    0.002429  -0.026189   0.116286  -0.019354   0.016944  -0.011822
     5  C    0.004949   0.021680  -0.024286  -0.084654   0.286948  -0.065011
     6  C    0.000308  -0.000647   0.021680  -0.010938   0.031600   0.008135
     7  C   -0.006951   0.007556   0.012338   0.000370  -0.002685  -0.000086
     8  C    0.007858  -0.020779   0.291199   0.016944  -0.019354   0.004192
     9  C   -0.018270  -0.012193   0.009728  -0.011620   0.012338   0.000587
    10  C   -0.005178   0.006326  -0.011620  -0.002685   0.000370   0.000026
    11  C    0.527869  -0.085251  -0.012193   0.006326   0.007556   0.000095
    12  H   -0.027778  -0.003833   0.003604  -0.000009   0.000101   0.000000
    13  C    4.739279   0.527869  -0.018270  -0.005178  -0.006951  -0.000215
    14  C    0.527869   5.172427   0.257545   0.031600  -0.010938   0.000090
    15  C   -0.018270   0.257545   4.940172   0.286948  -0.084654  -0.012711
    16  C   -0.005178   0.031600   0.286948   5.067216   0.582806  -0.025152
    17  C   -0.006951  -0.010938  -0.084654   0.582806   5.067216   0.384949
    18  H   -0.000215   0.000090  -0.012711  -0.025152   0.384949   0.569913
    19  H    0.001579   0.008135  -0.065011   0.384949  -0.025152  -0.003663
    20  H   -0.000215   0.000095   0.000587   0.000026  -0.000086   0.000000
    21  H   -0.000001   0.000002   0.000026  -0.000237   0.000848  -0.000007
    22  H   -0.000005  -0.000003   0.000012   0.000101  -0.000009   0.000000
    23  H   -0.000005   0.000034   0.000083   0.001209   0.021106   0.001594
    24  H    0.001579  -0.000270   0.000349  -0.000086   0.000026   0.000000
    25  H    0.381136  -0.031795  -0.014062   0.000848  -0.000237   0.000000
    26  H   -0.027778   0.410296  -0.092224   0.021106   0.001209  -0.000008
             19         20         21         22         23         24
     1  C   -0.000215   0.001579   0.381136  -0.027778  -0.027778  -0.000215
     2  C    0.000095   0.008135  -0.031795   0.410296  -0.003833   0.000090
     3  C    0.000587  -0.065011  -0.014062  -0.092224   0.003604  -0.012711
     4  C    0.004192  -0.011822   0.008507  -0.013081  -0.013081   0.004192
     5  C   -0.012711   0.000349  -0.014062   0.003604  -0.092224   0.000587
     6  C    0.000090  -0.000270  -0.031795  -0.003833   0.410296   0.000095
     7  C    0.000026   0.384949   0.000848   0.021106  -0.000009  -0.025152
     8  C   -0.011822   0.004192   0.000454  -0.001000  -0.001000  -0.011822
     9  C    0.000349  -0.012711   0.000026   0.000083   0.000012  -0.065011
    10  C   -0.000086  -0.025152  -0.000237   0.001209   0.000101   0.384949
    11  C   -0.000270   0.000090   0.000002   0.000034  -0.000003   0.008135
    12  H    0.000000  -0.000008   0.000000   0.000000   0.000000   0.001594
    13  C    0.001579  -0.000215  -0.000001  -0.000005  -0.000005   0.001579
    14  C    0.008135   0.000095   0.000002  -0.000003   0.000034  -0.000270
    15  C   -0.065011   0.000587   0.000026   0.000012   0.000083   0.000349
    16  C    0.384949   0.000026  -0.000237   0.000101   0.001209  -0.000086
    17  C   -0.025152  -0.000086   0.000848  -0.000009   0.021106   0.000026
    18  H   -0.003663   0.000000  -0.000007   0.000000   0.001594   0.000000
    19  H    0.569913   0.000000   0.000000   0.000000  -0.000008   0.000000
    20  H    0.000000   0.569913  -0.000007   0.001594   0.000000  -0.003663
    21  H    0.000000  -0.000007   0.566947  -0.004792  -0.004792   0.000000
    22  H    0.000000   0.001594  -0.004792   0.550237  -0.000146  -0.000008
    23  H   -0.000008   0.000000  -0.004792  -0.000146   0.550237   0.000000
    24  H    0.000000  -0.003663   0.000000  -0.000008   0.000000   0.569913
    25  H   -0.000007   0.000000   0.000000   0.000000   0.000000  -0.000007
    26  H    0.001594   0.000000   0.000000   0.000000   0.000000   0.000000
             25         26
     1  C   -0.000001  -0.000005
     2  C    0.000002  -0.000003
     3  C    0.000026   0.000012
     4  C    0.000454  -0.001000
     5  C    0.000026   0.000083
     6  C    0.000002   0.000034
     7  C   -0.000237   0.000101
     8  C    0.008507  -0.013081
     9  C   -0.014062   0.003604
    10  C    0.000848  -0.000009
    11  C   -0.031795  -0.003833
    12  H   -0.004792  -0.000146
    13  C    0.381136  -0.027778
    14  C   -0.031795   0.410296
    15  C   -0.014062  -0.092224
    16  C    0.000848   0.021106
    17  C   -0.000237   0.001209
    18  H    0.000000  -0.000008
    19  H   -0.000007   0.001594
    20  H    0.000000   0.000000
    21  H    0.000000   0.000000
    22  H    0.000000   0.000000
    23  H    0.000000   0.000000
    24  H   -0.000007   0.000000
    25  H    0.566947  -0.004792
    26  H   -0.004792   0.550237
 Mulliken atomic charges:
              1
     1  C   -0.083287
     2  C   -0.245758
     3  C    0.438406
     4  C   -0.042122
     5  C    0.438406
     6  C   -0.245758
     7  C   -0.253479
     8  C   -0.042122
     9  C    0.438406
    10  C   -0.253479
    11  C   -0.245758
    12  H    0.154604
    13  C   -0.083287
    14  C   -0.245758
    15  C    0.438406
    16  C   -0.253479
    17  C   -0.253479
    18  H    0.147436
    19  H    0.147436
    20  H    0.147436
    21  H    0.142991
    22  H    0.154604
    23  H    0.154604
    24  H    0.147436
    25  H    0.142991
    26  H    0.154604
 Sum of Mulliken charges=   1.00000
 Atomic charges with hydrogens summed into heavy atoms:
              1
     1  C    0.059704
     2  C   -0.091154
     3  C    0.438406
     4  C   -0.042122
     5  C    0.438406
     6  C   -0.091154
     7  C   -0.106042
     8  C   -0.042122
     9  C    0.438406
    10  C   -0.106042
    11  C   -0.091154
    12  H    0.000000
    13  C    0.059704
    14  C   -0.091154
    15  C    0.438406
    16  C   -0.106042
    17  C   -0.106042
    18  H    0.000000
    19  H    0.000000
    20  H    0.000000
    21  H    0.000000
    22  H    0.000000
    23  H    0.000000
    24  H    0.000000
    25  H    0.000000
    26  H    0.000000
 Sum of Mulliken charges=   1.00000
          Atomic-Atomic Spin Densities.
              1          2          3          4          5          6
     1  C   -0.090518   0.000135  -0.000104  -0.000892  -0.000104   0.000135
     2  C    0.000135   0.225807   0.030666  -0.003831  -0.003492  -0.011496
     3  C   -0.000104   0.030666  -0.015284   0.003416   0.002078  -0.003492
     4  C   -0.000892  -0.003831   0.003416  -0.031868   0.003416  -0.003831
     5  C   -0.000104  -0.003492   0.002078   0.003416  -0.015284   0.030666
     6  C    0.000135  -0.011496  -0.003492  -0.003831   0.030666   0.225807
     7  C    0.000257  -0.009104  -0.019647   0.002076   0.000120   0.000479
     8  C   -0.001183   0.000780  -0.000333   0.015060  -0.000333   0.000780
     9  C    0.000090  -0.000200   0.000246  -0.000333   0.000458  -0.000026
    10  C    0.000050  -0.001004  -0.001412   0.000877  -0.000221   0.000056
    11  C   -0.000016   0.000030  -0.000200   0.000780  -0.000026   0.000016
    12  H    0.000000   0.000000  -0.000036   0.000157  -0.000008   0.000000
    13  C    0.000006  -0.000016   0.000090  -0.001183   0.000090  -0.000016
    14  C   -0.000016   0.000016  -0.000026   0.000780  -0.000200   0.000030
    15  C    0.000090  -0.000026   0.000458  -0.000333   0.000246  -0.000200
    16  C    0.000050   0.000056  -0.000221   0.000877  -0.001412  -0.001004
    17  C    0.000257   0.000479   0.000120   0.002076  -0.019647  -0.009104
    18  H   -0.000008  -0.000004  -0.000002  -0.000023   0.000574  -0.000019
    19  H    0.000002  -0.000001  -0.000008  -0.000075   0.000347  -0.000011
    20  H   -0.000008  -0.000019   0.000574  -0.000023  -0.000002  -0.000004
    21  H    0.000562   0.000190  -0.000144   0.000149  -0.000144   0.000190
    22  H   -0.000232  -0.000247   0.002788   0.000069  -0.000027   0.000219
    23  H   -0.000232   0.000219  -0.000027   0.000069   0.002788  -0.000247
    24  H    0.000002  -0.000011   0.000347  -0.000075  -0.000008  -0.000001
    25  H    0.000000   0.000000   0.000004  -0.000044   0.000004   0.000000
    26  H    0.000000   0.000000  -0.000008   0.000157  -0.000036   0.000000
              7          8          9         10         11         12
     1  C    0.000257  -0.001183   0.000090   0.000050  -0.000016   0.000000
     2  C   -0.009104   0.000780  -0.000200  -0.001004   0.000030   0.000000
     3  C   -0.019647  -0.000333   0.000246  -0.001412  -0.000200  -0.000036
     4  C    0.002076   0.015060  -0.000333   0.000877   0.000780   0.000157
     5  C    0.000120  -0.000333   0.000458  -0.000221  -0.000026  -0.000008
     6  C    0.000479   0.000780  -0.000026   0.000056   0.000016   0.000000
     7  C    0.081423   0.000877  -0.001412   0.034170  -0.001004  -0.000101
[...]
    20  H    0.000002  -0.000001  -0.000008   0.000000   0.000000   0.000000
    21  H    0.000000   0.000000   0.000004   0.000000   0.000034   0.000000
    22  H    0.000000   0.000000  -0.000008   0.000001  -0.000005   0.000000
    23  H    0.000000   0.000000  -0.000036  -0.000101  -0.001487   0.000071
    24  H   -0.000008  -0.000004  -0.000002   0.000000   0.000000   0.000000
    25  H    0.000562   0.000190  -0.000144   0.000034   0.000000   0.000000
    26  H   -0.000232  -0.000247   0.002788  -0.001487  -0.000101   0.000000
             19         20         21         22         23         24
     1  C    0.000002  -0.000008   0.000562  -0.000232  -0.000232   0.000002
     2  C   -0.000001  -0.000019   0.000190  -0.000247   0.000219  -0.000011
     3  C   -0.000008   0.000574  -0.000144   0.002788  -0.000027   0.000347
     4  C   -0.000075  -0.000023   0.000149   0.000069   0.000069  -0.000075
     5  C    0.000347  -0.000002  -0.000144  -0.000027   0.002788  -0.000008
     6  C   -0.000011  -0.000004   0.000190   0.000219  -0.000247  -0.000001
     7  C    0.000000   0.000788   0.000034  -0.001487  -0.000005  -0.000344
     8  C   -0.000023  -0.000075  -0.000044   0.000157   0.000157  -0.000023
     9  C   -0.000002   0.000347   0.000004  -0.000036  -0.000008   0.000574
    10  C    0.000000  -0.000344   0.000000  -0.000101   0.000001   0.000788
    11  C   -0.000004  -0.000011   0.000000   0.000000   0.000000  -0.000019
    12  H    0.000000   0.000000   0.000000   0.000000   0.000000   0.000071
    13  C   -0.000008   0.000002   0.000000   0.000000   0.000000  -0.000008
    14  C   -0.000019  -0.000001   0.000000   0.000000   0.000000  -0.000004
    15  C    0.000574  -0.000008   0.000004  -0.000008  -0.000036  -0.000002
    16  C    0.000788   0.000000   0.000000   0.000001  -0.000101   0.000000
    17  C   -0.000344   0.000000   0.000034  -0.000005  -0.001487   0.000000
    18  H   -0.000062   0.000000   0.000000   0.000000   0.000071   0.000000
    19  H   -0.005281   0.000000   0.000000   0.000000   0.000000   0.000000
    20  H    0.000000  -0.005281   0.000000   0.000071   0.000000  -0.000062
    21  H    0.000000   0.000000   0.002700   0.000070   0.000070   0.000000
    22  H    0.000000   0.000071   0.000070  -0.012624   0.000005   0.000000
    23  H    0.000000   0.000000   0.000070   0.000005  -0.012624   0.000000
    24  H    0.000000  -0.000062   0.000000   0.000000   0.000000  -0.005281
    25  H    0.000000   0.000000   0.000000   0.000000   0.000000   0.000000
    26  H    0.000071   0.000000   0.000000   0.000000   0.000000   0.000000
             25         26
     1  C    0.000000   0.000000
     2  C    0.000000   0.000000
     3  C    0.000004  -0.000008
     4  C   -0.000044   0.000157
     5  C    0.000004  -0.000036
     6  C    0.000000   0.000000
     7  C    0.000000   0.000001
     8  C    0.000149   0.000069
     9  C   -0.000144  -0.000027
    10  C    0.000034  -0.000005
    11  C    0.000190   0.000219
    12  H    0.000070   0.000005
    13  C    0.000562  -0.000232
    14  C    0.000190  -0.000247
    15  C   -0.000144   0.002788
    16  C    0.000034  -0.001487
    17  C    0.000000  -0.000101
    18  H    0.000000   0.000000
    19  H    0.000000   0.000071
    20  H    0.000000   0.000000
    21  H    0.000000   0.000000
    22  H    0.000000   0.000000
    23  H    0.000000   0.000000
    24  H    0.000000   0.000000
    25  H    0.002700   0.000070
    26  H    0.000070  -0.012624
 Mulliken atomic spin densities:
              1
     1  C   -0.091674
     2  C    0.228926
     3  C   -0.000157
     4  C   -0.012549
     5  C   -0.000157
     6  C    0.228926
     7  C    0.086945
     8  C   -0.012549
     9  C   -0.000157
    10  C    0.086945
    11  C    0.228926
    12  H   -0.011387
    13  C   -0.091674
    14  C    0.228926
    15  C   -0.000157
    16  C    0.086945
    17  C    0.086945
    18  H   -0.004054
    19  H   -0.004054
    20  H   -0.004054
    21  H    0.003674
    22  H   -0.011387
    23  H   -0.011387
    24  H   -0.004054
    25  H    0.003674
    26  H   -0.011387
 Sum of Mulliken spin densities=   1.00000
 Electronic spatial extent (au):  <R**2>=  2967.9873
 Charge=     1.0000 electrons
 Dipole moment (field-independent basis, Debye):
    X=     0.0000    Y=     0.0000    Z=     0.0000  Tot=     0.0000
 Quadrupole moment (field-independent basis, Debye-Ang):
   XX=   -93.8251   YY=   -55.7508   ZZ=   -42.5806
   XY=     0.0000   XZ=     0.0000   YZ=     0.0000
 Traceless Quadrupole moment (field-independent basis, Debye-Ang):
   XX=   -29.7729   YY=     8.3013   ZZ=    21.4716
   XY=     0.0000   XZ=     0.0000   YZ=     0.0000
 Octapole moment (field-independent basis, Debye-Ang**2):
  XXX=     0.0000  YYY=     0.0000  ZZZ=     0.0000  XYY=     0.0000
  XXY=     0.0000  XXZ=     0.0000  XZZ=     0.0000  YZZ=     0.0000
  YYZ=     0.0000  XYZ=     0.0000
 Hexadecapole moment (field-independent basis, Debye-Ang**3):
 XXXX=  -102.0776 YYYY= -1119.2650 ZZZZ= -1831.4155 XXXY=     0.0000
 XXXZ=     0.0000 YYYX=     0.0000 YYYZ=     0.0000 ZZZX=     0.0000
 ZZZY=     0.0000 XXYY=  -278.3524 XXZZ=  -479.6139 YYZZ=  -505.4717
 XXYZ=     0.0000 YYXZ=     0.0000 ZZXY=     0.0000
 N-N= 9.616942561793D+02 E-N=-3.332129566427D+03  KE= 6.103864241844D+02
                          Isotropic Fermi Contact Couplings
        Atom                 a.u.       MegaHertz       Gauss      10(-4) cm-1
     1  C(13)             -0.01584     -17.81167      -6.35565      -5.94133
     2  C(13)              0.01716      19.28668       6.88196       6.43334
     3  C(13)             -0.00789      -8.86840      -3.16447      -2.95818
     4  C(13)             -0.00059      -0.66679      -0.23793      -0.22242
     5  C(13)             -0.00789      -8.86840      -3.16447      -2.95818
     6  C(13)              0.01716      19.28668       6.88196       6.43334
     7  C(13)              0.00325       3.65695       1.30489       1.21983
     8  C(13)             -0.00059      -0.66679      -0.23793      -0.22242
     9  C(13)             -0.00789      -8.86840      -3.16447      -2.95818
    10  C(13)              0.00325       3.65695       1.30489       1.21983
    11  C(13)              0.01716      19.28668       6.88196       6.43334
    12  H(1)              -0.00363     -16.22777      -5.79047      -5.41300
    13  C(13)             -0.01584     -17.81167      -6.35565      -5.94133
    14  C(13)              0.01716      19.28668       6.88196       6.43334
    15  C(13)             -0.00789      -8.86840      -3.16447      -2.95818
    16  C(13)              0.00325       3.65695       1.30489       1.21983
    17  C(13)              0.00325       3.65695       1.30489       1.21983
    18  H(1)              -0.00136      -6.06084      -2.16266      -2.02168
    19  H(1)              -0.00136      -6.06084      -2.16266      -2.02168
    20  H(1)              -0.00136      -6.06084      -2.16266      -2.02168
    21  H(1)               0.00107       4.79117       1.70961       1.59816
    22  H(1)              -0.00363     -16.22777      -5.79047      -5.41300
    23  H(1)              -0.00363     -16.22777      -5.79047      -5.41300
    24  H(1)              -0.00136      -6.06084      -2.16266      -2.02168
    25  H(1)               0.00107       4.79117       1.70961       1.59816
    26  H(1)              -0.00363     -16.22777      -5.79047      -5.41300
 --------------------------------------------------------
       Center         ----  Spin Dipole Couplings  ----
                      3XX-RR        3YY-RR        3ZZ-RR
 --------------------------------------------------------
     1   Atom       -0.085780      0.048500      0.037280
     2   Atom        0.264681     -0.131672     -0.133009
     3   Atom       -0.000351     -0.004708      0.005059
     4   Atom       -0.010436      0.003936      0.006500
     5   Atom       -0.000351     -0.004708      0.005059
     6   Atom        0.264681     -0.131672     -0.133009
     7   Atom        0.101606     -0.055203     -0.046403
     8   Atom       -0.010436      0.003936      0.006500
     9   Atom       -0.000351     -0.004708      0.005059
    10   Atom        0.101606     -0.055203     -0.046403
    11   Atom        0.264681     -0.131672     -0.133009
    12   Atom       -0.002429      0.008307     -0.005879
    13   Atom       -0.085780      0.048500      0.037280
    14   Atom        0.264681     -0.131672     -0.133009
    15   Atom       -0.000351     -0.004708      0.005059
    16   Atom        0.101606     -0.055203     -0.046403
    17   Atom        0.101606     -0.055203     -0.046403
    18   Atom       -0.003281      0.002863      0.000418
    19   Atom       -0.003281      0.002863      0.000418
    20   Atom       -0.003281      0.002863      0.000418
    21   Atom       -0.003571      0.004556     -0.000985
    22   Atom       -0.002429      0.008307     -0.005879
    23   Atom       -0.002429      0.008307     -0.005879
    24   Atom       -0.003281      0.002863      0.000418
    25   Atom       -0.003571      0.004556     -0.000985
    26   Atom       -0.002429      0.008307     -0.005879
 --------------------------------------------------------
                        XY            XZ            YZ
 --------------------------------------------------------
     1   Atom        0.000000      0.000000      0.000000
     2   Atom        0.000000      0.000000      0.002899
     3   Atom        0.000000      0.000000     -0.003397
     4   Atom        0.000000      0.000000      0.000000
     5   Atom        0.000000      0.000000      0.003397
     6   Atom        0.000000      0.000000     -0.002899
     7   Atom        0.000000      0.000000     -0.001507
     8   Atom        0.000000      0.000000      0.000000
     9   Atom        0.000000      0.000000      0.003397
    10   Atom        0.000000      0.000000      0.001507
    11   Atom        0.000000      0.000000     -0.002899
    12   Atom        0.000000      0.000000     -0.016275
    13   Atom        0.000000      0.000000      0.000000
    14   Atom        0.000000      0.000000      0.002899
    15   Atom        0.000000      0.000000     -0.003397
    16   Atom        0.000000      0.000000     -0.001507
    17   Atom        0.000000      0.000000      0.001507
    18   Atom        0.000000      0.000000     -0.006394
    19   Atom        0.000000      0.000000      0.006394
    20   Atom        0.000000      0.000000      0.006394
    21   Atom        0.000000      0.000000      0.000000
    22   Atom        0.000000      0.000000      0.016275
    23   Atom        0.000000      0.000000     -0.016275
    24   Atom        0.000000      0.000000     -0.006394
    25   Atom        0.000000      0.000000      0.000000
    26   Atom        0.000000      0.000000      0.016275
 --------------------------------------------------------


 ---------------------------------------------------------------------------------
              Anisotropic Spin Dipole Couplings in Principal Axis System
 ---------------------------------------------------------------------------------

       Atom             a.u.   MegaHertz   Gauss  10(-4) cm-1        Axes

              Baa    -0.0858   -11.511    -4.107    -3.840  1.0000  0.0000  0.0000
     1 C(13)  Bbb     0.0373     5.003     1.785     1.669  0.0000  0.0000  1.0000
              Bcc     0.0485     6.508     2.322     2.171  0.0000  1.0000  0.0000
 
              Baa    -0.1353   -18.158    -6.479    -6.057  0.0000 -0.6227  0.7825
     2 C(13)  Bbb    -0.1294   -17.360    -6.194    -5.791  0.0000  0.7825  0.6227
              Bcc     0.2647    35.518    12.674    11.847  1.0000  0.0000  0.0000
 
              Baa    -0.0058    -0.775    -0.276    -0.258  0.0000  0.9542  0.2992
     3 C(13)  Bbb    -0.0004    -0.047    -0.017    -0.016  1.0000  0.0000  0.0000
              Bcc     0.0061     0.822     0.293     0.274  0.0000 -0.2992  0.9542
 
              Baa    -0.0104    -1.400    -0.500    -0.467  1.0000  0.0000  0.0000
     4 C(13)  Bbb     0.0039     0.528     0.188     0.176  0.0000  1.0000  0.0000
              Bcc     0.0065     0.872     0.311     0.291  0.0000  0.0000  1.0000
 
              Baa    -0.0058    -0.775    -0.276    -0.258  0.0000  0.9542 -0.2992
     5 C(13)  Bbb    -0.0004    -0.047    -0.017    -0.016  1.0000  0.0000  0.0000
              Bcc     0.0061     0.822     0.293     0.274  0.0000  0.2992  0.9542
 
              Baa    -0.1353   -18.158    -6.479    -6.057  0.0000  0.6227  0.7825
     6 C(13)  Bbb    -0.1294   -17.360    -6.194    -5.791  0.0000  0.7825 -0.6227
              Bcc     0.2647    35.518    12.674    11.847  1.0000  0.0000  0.0000
 
              Baa    -0.0555    -7.441    -2.655    -2.482  0.0000  0.9864  0.1642
     7 C(13)  Bbb    -0.0462    -6.193    -2.210    -2.066  0.0000 -0.1642  0.9864
              Bcc     0.1016    13.635     4.865     4.548  1.0000  0.0000  0.0000
 
              Baa    -0.0104    -1.400    -0.500    -0.467  1.0000  0.0000  0.0000
     8 C(13)  Bbb     0.0039     0.528     0.188     0.176  0.0000  1.0000  0.0000
              Bcc     0.0065     0.872     0.311     0.291  0.0000  0.0000  1.0000
 
              Baa    -0.0058    -0.775    -0.276    -0.258  0.0000  0.9542 -0.2992
     9 C(13)  Bbb    -0.0004    -0.047    -0.017    -0.016  1.0000  0.0000  0.0000
              Bcc     0.0061     0.822     0.293     0.274  0.0000  0.2992  0.9542
 
              Baa    -0.0555    -7.441    -2.655    -2.482  0.0000  0.9864 -0.1642
    10 C(13)  Bbb    -0.0462    -6.193    -2.210    -2.066  0.0000  0.1642  0.9864
              Bcc     0.1016    13.635     4.865     4.548  1.0000  0.0000  0.0000
 
              Baa    -0.1353   -18.158    -6.479    -6.057  0.0000  0.6227  0.7825
    11 C(13)  Bbb    -0.1294   -17.360    -6.194    -5.791  0.0000  0.7825 -0.6227
              Bcc     0.2647    35.518    12.674    11.847  1.0000  0.0000  0.0000
 
              Baa    -0.0165    -8.824    -3.149    -2.944  0.0000  0.5479  0.8365
    12 H(1)   Bbb    -0.0024    -1.296    -0.462    -0.432  1.0000  0.0000  0.0000
              Bcc     0.0190    10.120     3.611     3.376  0.0000  0.8365 -0.5479
 
              Baa    -0.0858   -11.511    -4.107    -3.840  1.0000  0.0000  0.0000
    13 C(13)  Bbb     0.0373     5.003     1.785     1.669  0.0000  0.0000  1.0000
              Bcc     0.0485     6.508     2.322     2.171  0.0000  1.0000  0.0000
 
              Baa    -0.1353   -18.158    -6.479    -6.057  0.0000 -0.6227  0.7825
    14 C(13)  Bbb    -0.1294   -17.360    -6.194    -5.791  0.0000  0.7825  0.6227
              Bcc     0.2647    35.518    12.674    11.847  1.0000  0.0000  0.0000
 
              Baa    -0.0058    -0.775    -0.276    -0.258  0.0000  0.9542  0.2992
    15 C(13)  Bbb    -0.0004    -0.047    -0.017    -0.016  1.0000  0.0000  0.0000
              Bcc     0.0061     0.822     0.293     0.274  0.0000 -0.2992  0.9542
 
              Baa    -0.0555    -7.441    -2.655    -2.482  0.0000  0.9864  0.1642
    16 C(13)  Bbb    -0.0462    -6.193    -2.210    -2.066  0.0000 -0.1642  0.9864
              Bcc     0.1016    13.635     4.865     4.548  1.0000  0.0000  0.0000
 
              Baa    -0.0555    -7.441    -2.655    -2.482  0.0000  0.9864 -0.1642
    17 C(13)  Bbb    -0.0462    -6.193    -2.210    -2.066  0.0000  0.1642  0.9864
              Bcc     0.1016    13.635     4.865     4.548  1.0000  0.0000  0.0000
 
              Baa    -0.0049    -2.598    -0.927    -0.867  0.0000  0.6372  0.7707
    18 H(1)   Bbb    -0.0033    -1.750    -0.625    -0.584  1.0000  0.0000  0.0000
              Bcc     0.0082     4.349     1.552     1.451  0.0000  0.7707 -0.6372
 
              Baa    -0.0049    -2.598    -0.927    -0.867  0.0000 -0.6372  0.7707
    19 H(1)   Bbb    -0.0033    -1.750    -0.625    -0.584  1.0000  0.0000  0.0000
              Bcc     0.0082     4.349     1.552     1.451  0.0000  0.7707  0.6372
 
              Baa    -0.0049    -2.598    -0.927    -0.867  0.0000 -0.6372  0.7707
    20 H(1)   Bbb    -0.0033    -1.750    -0.625    -0.584  1.0000  0.0000  0.0000
              Bcc     0.0082     4.349     1.552     1.451  0.0000  0.7707  0.6372
 
              Baa    -0.0036    -1.906    -0.680    -0.636  1.0000  0.0000  0.0000
    21 H(1)   Bbb    -0.0010    -0.525    -0.187    -0.175  0.0000  0.0000  1.0000
              Bcc     0.0046     2.431     0.867     0.811  0.0000  1.0000  0.0000
 
              Baa    -0.0165    -8.824    -3.149    -2.944  0.0000 -0.5479  0.8365
    22 H(1)   Bbb    -0.0024    -1.296    -0.462    -0.432  1.0000  0.0000  0.0000
              Bcc     0.0190    10.120     3.611     3.376  0.0000  0.8365  0.5479
 
              Baa    -0.0165    -8.824    -3.149    -2.944  0.0000  0.5479  0.8365
    23 H(1)   Bbb    -0.0024    -1.296    -0.462    -0.432  1.0000  0.0000  0.0000
              Bcc     0.0190    10.120     3.611     3.376  0.0000  0.8365 -0.5479
 
              Baa    -0.0049    -2.598    -0.927    -0.867  0.0000  0.6372  0.7707
    24 H(1)   Bbb    -0.0033    -1.750    -0.625    -0.584  1.0000  0.0000  0.0000
              Bcc     0.0082     4.349     1.552     1.451  0.0000  0.7707 -0.6372
 
              Baa    -0.0036    -1.906    -0.680    -0.636  1.0000  0.0000  0.0000
    25 H(1)   Bbb    -0.0010    -0.525    -0.187    -0.175  0.0000  0.0000  1.0000
              Bcc     0.0046     2.431     0.867     0.811  0.0000  1.0000  0.0000
 
              Baa    -0.0165    -8.824    -3.149    -2.944  0.0000 -0.5479  0.8365
    26 H(1)   Bbb    -0.0024    -1.296    -0.462    -0.432  1.0000  0.0000  0.0000
              Bcc     0.0190    10.120     3.611     3.376  0.0000  0.8365  0.5479
 

 ---------------------------------------------------------------------------------

 Calculating spin-rotation constants.
 Leave Link  601 at Sat Oct 16 18:11:02 2010, MaxMem=  196608000 cpu:      18.0
 (Enter C:\G03W\l9999.exe)
 1|1|UNPC-UNK|SP|UB3LYP|EPR-II|C16H10(1+,2)|PCUSER|16-Oct-2010|0||#p nm
 r=giao ub3lyp/epr-ii guess=mix geom=connectivity scf=(tight,dsymm) int
 egral=(grid=ultrafine)||Pyrene cation radical||1,2|C,0,0.,0.,3.553606|
 C,0,0.,1.213032,2.854412|C,0,0.,1.237177,1.425499|C,0,0.,0.,0.710645|C
 ,0,0.,-1.237177,1.425499|C,0,0.,-1.213032,2.854412|C,0,0.,2.460816,0.6
 95983|C,0,0.,0.,-0.710645|C,0,0.,1.237177,-1.425499|C,0,0.,2.460816,-0
 .695983|C,0,0.,1.213032,-2.854412|H,0,0.,2.153659,-3.398276|C,0,0.,0.,
 -3.553606|C,0,0.,-1.213032,-2.854412|C,0,0.,-1.237177,-1.425499|C,0,0.
 ,-2.460816,-0.695983|C,0,0.,-2.460816,0.695983|H,0,0.,-3.401815,1.2381
 75|H,0,0.,-3.401815,-1.238175|H,0,0.,3.401815,1.238175|H,0,0.,0.,4.638
 274|H,0,0.,2.153659,3.398276|H,0,0.,-2.153659,3.398276|H,0,0.,3.401815
 ,-1.238175|H,0,0.,0.,-4.638274|H,0,0.,-2.153659,-3.398276||Version=IA3
 2W-G03RevE.01|State=2-B1G|HF=-615.5812623|S2=0.773074|S2-1=0.|S2A=0.75
 0413|RMSD=3.260e-009|Thermal=0.|Dipole=0.,0.,0.|PG=D02H [C2"(H1C1C1.C1
 C1H1),SG(C12H8)]||@


 THE ENLIGHTENED ONE, BECAUSE HE SAW MANKIND DROWNING  
 IN THE GREAT SEA OF BIRTH, DEATH, AND SORROW, LONGED TO SAVE 
 THEM, FOR THIS HE WAS MOVED TO PITY.                         
 BECAUSE HE SAW MEN OF THE WORLD STRAYING IN FALSE PATHS, AND 
 NONE TO GUIDE THEM, FOR THIS HE WAS MOVED TO PITY.           
                     ..................                       
 BECAUSE HE SAW THE MEN OF THE WORLD PLOUGHING THEIR FIELDS,  
 SOWING THE SEED, TRAFFICKING, HUCKSTERING, BUYING, SELLING,  
 AND AT THE END WINNOWING NOTHING BUT BITTERNESS,             
 FOR THIS HE WAS MOVED TO PITY......                   
                   BUDAH'S PITY - UPSAKA SILA SUTRA           
 Job cpu time:  0 days  0 hours 39 minutes 50.0 seconds.
 File lengths (MBytes):  RWF=    124 Int=      0 D2E=      0 Chk=     13 Scr=      1
 Normal termination of Gaussian 03 at Sat Oct 16 18:11:03 2010.
