 Entering Gaussian System, Link 0=g03
 Input=spinspin.com
 Output=spinspin.log
 Initial command:
 /data/hamilton/dch0ik/g03/l1.exe /tmp/Gau-2488.inp -scrdir=/tmp/
 Entering Link 1 = /data/hamilton/dch0ik/g03/l1.exe PID=      2489.
  
 Copyright (c) 1988,1990,1992,1993,1995,1998,2003,2004, Gaussian, Inc.
                  All Rights Reserved.
  
 This is the Gaussian(R) 03 program.  It is based on the
 the Gaussian(R) 98 system (copyright 1998, Gaussian, Inc.),
 the Gaussian(R) 94 system (copyright 1995, Gaussian, Inc.),
 the Gaussian 92(TM) system (copyright 1992, Gaussian, Inc.),
 the Gaussian 90(TM) system (copyright 1990, Gaussian, Inc.),
 the Gaussian 88(TM) system (copyright 1988, Gaussian, Inc.),
 the Gaussian 86(TM) system (copyright 1986, Carnegie Mellon
 University), and the Gaussian 82(TM) system (copyright 1983,
 Carnegie Mellon University). Gaussian is a federally registered
 trademark of Gaussian, Inc.
  
 This software contains proprietary and confidential information,
 including trade secrets, belonging to Gaussian, Inc.
  
 This software is provided under written license and may be
 used, copied, transmitted, or stored only in accord with that
 written license.
  
 The following legend is applicable only to US Government
 contracts under FAR:
  
                    RESTRICTED RIGHTS LEGEND
  
 Use, reproduction and disclosure by the US Government is
 subject to restrictions as set forth in subparagraphs (a)
 and (c) of the Commercial Computer Software - Restricted
 Rights clause in FAR 52.227-19.
  
 Gaussian, Inc.
 340 Quinnipiac St., Bldg. 40, Wallingford CT 06492
  
  
 ---------------------------------------------------------------
 Warning -- This program may not be used in any manner that
 competes with the business of Gaussian, Inc. or will provide
 assistance to any competitor of Gaussian, Inc.  The licensee
 of this program is prohibited from giving any competitor of
 Gaussian, Inc. access to this program.  By using this program,
 the user acknowledges that Gaussian, Inc. is engaged in the
 business of creating and licensing software in the field of
 computational chemistry and represents and warrants to the
 licensee that it is not a competitor of Gaussian, Inc. and that
 it will not use this program in any manner prohibited above.
 ---------------------------------------------------------------
  

 Cite this work as:
 Gaussian 03, Revision D.01,
 M. J. Frisch, G. W. Trucks, H. B. Schlegel, G. E. Scuseria, 
 M. A. Robb, J. R. Cheeseman, J. A. Montgomery, Jr., T. Vreven, 
 K. N. Kudin, J. C. Burant, J. M. Millam, S. S. Iyengar, J. Tomasi, 
 V. Barone, B. Mennucci, M. Cossi, G. Scalmani, N. Rega, 
 G. A. Petersson, H. Nakatsuji, M. Hada, M. Ehara, K. Toyota, 
 R. Fukuda, J. Hasegawa, M. Ishida, T. Nakajima, Y. Honda, O. Kitao, 
 H. Nakai, M. Klene, X. Li, J. E. Knox, H. P. Hratchian, J. B. Cross, 
 V. Bakken, C. Adamo, J. Jaramillo, R. Gomperts, R. E. Stratmann, 
 O. Yazyev, A. J. Austin, R. Cammi, C. Pomelli, J. W. Ochterski, 
 P. Y. Ayala, K. Morokuma, G. A. Voth, P. Salvador, J. J. Dannenberg, 
 V. G. Zakrzewski, S. Dapprich, A. D. Daniels, M. C. Strain, 
 O. Farkas, D. K. Malick, A. D. Rabuck, K. Raghavachari, 
 J. B. Foresman, J. V. Ortiz, Q. Cui, A. G. Baboul, S. Clifford, 
 J. Cioslowski, B. B. Stefanov, G. Liu, A. Liashenko, P. Piskorz, 
 I. Komaromi, R. L. Martin, D. J. Fox, T. Keith, M. A. Al-Laham, 
 C. Y. Peng, A. Nanayakkara, M. Challacombe, P. M. W. Gill, 
 B. Johnson, W. Chen, M. W. Wong, C. Gonzalez, and J. A. Pople, 
 Gaussian, Inc., Wallingford CT, 2004.
 
 ******************************************
 Gaussian 03:  IA32L-G03RevD.01 13-Oct-2005
                16-Apr-2009 
 ******************************************
 %NProcLinda=8
 Will use up to    8 processors via Linda.
 %NProcShared=2
 Will use up to    2 processors via shared memory.
 %Mem=1500MB
 %Chk=strychnine.chk
 ----------------------------------------------------------------------
 #p nmr=(giao,spinspin,mixed) rb3lyp/cc-pVDZ geom=checkpoint guess=read
 ----------------------------------------------------------------------
 1/29=2,38=1/1;
 2/40=1/2;
 3/5=16,10=1100000,11=2,16=1,25=1,30=1,74=-5/1,2,8,3;
 4/5=1,7=1/1;
 5/5=2,38=6/2;
 8/6=1,10=90,11=11/1;
 10/13=100,45=16,47=3/2;
 6/7=2,8=2,9=2,10=2,28=1/1;
 99/9=1/99;
 Leave Link    1 at Thu Apr 16 13:49:22 2009, MaxMem=  196608000 cpu:       0.8
 (Enter /data/hamilton/dch0ik/g03/l101.exe)
 -----------
 Strychnine.
 -----------
 Redundant internal coordinates taken from checkpoint file:
 strychnine.chk
 Charge =  0 Multiplicity = 1
 C,0,2.6240710891,2.2773484512,0.9070681718
 C,0,3.9463655344,2.1211279702,1.34608839
 C,0,4.5798098879,0.8789311283,1.2344563214
 C,0,3.9188180618,-0.2317869846,0.6945546933
 C,0,2.5960557111,-0.0601487503,0.2737122287
 C,0,1.9479053433,1.1829585215,0.3720605288
 N,0,1.7130344285,-1.022221558,-0.2687610166
 C,0,0.3569757772,-0.4347813255,-0.4115032649
 C,0,0.563925756,1.1075484105,-0.2406380605
 C,0,1.850313474,-2.3930277792,-0.1308215853
 C,0,0.5781394177,-3.1916704591,-0.4069974154
 C,0,-0.7580096439,-2.5956482971,0.1115042938
 C,0,-0.5395837851,-1.1535018671,0.6138649664
 C,0,-0.5996165102,1.8171161309,0.5165532327
 C,0,-1.2163708246,0.9820101851,1.6398167175
 C,0,-1.7692152032,-0.3224538525,1.0354287871
 C,0,-2.7474343107,0.0108594054,-0.0923907071
 C,0,-2.9139209094,1.4951639393,-0.3442098326
 N,0,-1.6120065441,2.1556302877,-0.5244661383
 C,0,0.4843537091,1.8340283383,-1.6075214535
 C,0,-1.019688476,1.9514213702,-1.8588929794
 C,0,-3.3283415451,-0.9327333416,-0.8476980446
 C,0,-3.0290385703,-2.4054323141,-0.7051612276
 O,0,-1.6618872613,-2.7167012753,-0.9853887714
 O,0,2.9074672671,-2.933797212,0.1617081344
 H,0,-1.1415634992,-3.2045945534,0.9541039455
 H,0,-2.309689369,-0.8912931095,1.8142212466
 H,0,0.0617100192,-1.260979815,1.5351567828
 H,0,-0.1988378465,2.7551275747,0.9417928835
 H,0,-0.0313171279,-0.6530187076,-1.4176601298
 H,0,2.1328531223,3.2506363809,0.981793523
 H,0,4.4829639009,2.9725693601,1.7697542775
 H,0,5.6119328829,0.7659685958,1.5744638328
 H,0,4.3969197195,-1.2041556848,0.6090857457
 H,0,0.4693622592,-3.2773819268,-1.5012884179
 H,0,0.7573164018,-4.2038180951,-0.0238060288
 H,0,-2.0053025082,1.5566604393,2.147450368
 H,0,-0.4507080596,0.7613139052,2.3997869051
 H,0,-3.5245118416,1.6771273079,-1.2405851287
 H,0,-3.4457502794,1.9759778793,0.4948739208
 H,0,1.0188752099,1.2986205722,-2.4062856219
 H,0,0.9418399799,2.8311458151,-1.5071114614
 H,0,-1.2660337034,2.7895947576,-2.5327186548
 H,0,-1.402180146,1.0256273996,-2.3342551695
 H,0,-4.0134515829,-0.6312392615,-1.647252283
 H,0,-3.6168183879,-2.9872707697,-1.4300736248
 H,0,-3.2958310173,-2.7734571865,0.3069871206
 Recover connectivity data from disk.
                    Isotopes and Nuclear Properties:
 (Nuclear quadrupole moments (NQMom) in fm**2, nuclear magnetic moments (NMagM)
  in nuclear magnetons)

  Atom         1           2           3           4           5           6           7           8           9          10
 IAtWgt=          12          12          12          12          12          12          14          12          12          12
 AtmWgt=  12.0000000  12.0000000  12.0000000  12.0000000  12.0000000  12.0000000  14.0030740  12.0000000  12.0000000  12.0000000
 NucSpn=           0           0           0           0           0           0           2           0           0           0
 AtZEff=  -3.6000000  -3.6000000  -3.6000000  -3.6000000  -3.6000000  -3.6000000  -4.5500000  -3.6000000  -3.6000000  -3.6000000
 NQMom=    0.0000000   0.0000000   0.0000000   0.0000000   0.0000000   0.0000000   2.0440000   0.0000000   0.0000000   0.0000000
 NMagM=    0.0000000   0.0000000   0.0000000   0.0000000   0.0000000   0.0000000   0.4037610   0.0000000   0.0000000   0.0000000

  Atom        11          12          13          14          15          16          17          18          19          20
 IAtWgt=          12          12          12          12          12          12          12          12          14          12
 AtmWgt=  12.0000000  12.0000000  12.0000000  12.0000000  12.0000000  12.0000000  12.0000000  12.0000000  14.0030740  12.0000000
 NucSpn=           0           0           0           0           0           0           0           0           2           0
 AtZEff=  -3.6000000  -3.6000000  -3.6000000  -3.6000000  -3.6000000  -3.6000000  -3.6000000  -3.6000000  -4.5500000  -3.6000000
 NQMom=    0.0000000   0.0000000   0.0000000   0.0000000   0.0000000   0.0000000   0.0000000   0.0000000   2.0440000   0.0000000
 NMagM=    0.0000000   0.0000000   0.0000000   0.0000000   0.0000000   0.0000000   0.0000000   0.0000000   0.4037610   0.0000000

  Atom        21          22          23          24          25          26          27          28          29          30
 IAtWgt=          12          12          12          16          16           1           1           1           1           1
 AtmWgt=  12.0000000  12.0000000  12.0000000  15.9949146  15.9949146   1.0078250   1.0078250   1.0078250   1.0078250   1.0078250
 NucSpn=           0           0           0           0           0           1           1           1           1           1
 AtZEff=  -3.6000000  -3.6000000  -3.6000000  -5.6000000  -5.6000000  -1.0000000  -1.0000000  -1.0000000  -1.0000000  -1.0000000
 NQMom=    0.0000000   0.0000000   0.0000000   0.0000000   0.0000000   0.0000000   0.0000000   0.0000000   0.0000000   0.0000000
 NMagM=    0.0000000   0.0000000   0.0000000   0.0000000   0.0000000   2.7928460   2.7928460   2.7928460   2.7928460   2.7928460

  Atom        31          32          33          34          35          36          37          38          39          40
 IAtWgt=           1           1           1           1           1           1           1           1           1           1
 AtmWgt=   1.0078250   1.0078250   1.0078250   1.0078250   1.0078250   1.0078250   1.0078250   1.0078250   1.0078250   1.0078250
 NucSpn=           1           1           1           1           1           1           1           1           1           1
 AtZEff=  -1.0000000  -1.0000000  -1.0000000  -1.0000000  -1.0000000  -1.0000000  -1.0000000  -1.0000000  -1.0000000  -1.0000000
 NQMom=    0.0000000   0.0000000   0.0000000   0.0000000   0.0000000   0.0000000   0.0000000   0.0000000   0.0000000   0.0000000
 NMagM=    2.7928460   2.7928460   2.7928460   2.7928460   2.7928460   2.7928460   2.7928460   2.7928460   2.7928460   2.7928460

  Atom        41          42          43          44          45          46          47
 IAtWgt=           1           1           1           1           1           1           1
 AtmWgt=   1.0078250   1.0078250   1.0078250   1.0078250   1.0078250   1.0078250   1.0078250
 NucSpn=           1           1           1           1           1           1           1
 AtZEff=  -1.0000000  -1.0000000  -1.0000000  -1.0000000  -1.0000000  -1.0000000  -1.0000000
 NQMom=    0.0000000   0.0000000   0.0000000   0.0000000   0.0000000   0.0000000   0.0000000
 NMagM=    2.7928460   2.7928460   2.7928460   2.7928460   2.7928460   2.7928460   2.7928460
 Leave Link  101 at Thu Apr 16 13:49:24 2009, MaxMem=  196608000 cpu:       0.2
 (Enter /data/hamilton/dch0ik/g03/l202.exe)
                          Input orientation:                          
 ---------------------------------------------------------------------
 Center     Atomic     Atomic              Coordinates (Angstroms)
 Number     Number      Type              X           Y           Z
 ---------------------------------------------------------------------
    1          6             0        2.624071    2.277348    0.907068
    2          6             0        3.946366    2.121128    1.346088
    3          6             0        4.579810    0.878931    1.234456
    4          6             0        3.918818   -0.231787    0.694555
    5          6             0        2.596056   -0.060149    0.273712
    6          6             0        1.947905    1.182959    0.372061
    7          7             0        1.713034   -1.022222   -0.268761
    8          6             0        0.356976   -0.434781   -0.411503
    9          6             0        0.563926    1.107548   -0.240638
   10          6             0        1.850313   -2.393028   -0.130822
   11          6             0        0.578139   -3.191670   -0.406997
   12          6             0       -0.758010   -2.595648    0.111504
   13          6             0       -0.539584   -1.153502    0.613865
   14          6             0       -0.599617    1.817116    0.516553
   15          6             0       -1.216371    0.982010    1.639817
   16          6             0       -1.769215   -0.322454    1.035429
   17          6             0       -2.747434    0.010859   -0.092391
   18          6             0       -2.913921    1.495164   -0.344210
   19          7             0       -1.612007    2.155630   -0.524466
   20          6             0        0.484354    1.834028   -1.607521
   21          6             0       -1.019688    1.951421   -1.858893
   22          6             0       -3.328342   -0.932733   -0.847698
   23          6             0       -3.029039   -2.405432   -0.705161
   24          8             0       -1.661887   -2.716701   -0.985389
   25          8             0        2.907467   -2.933797    0.161708
   26          1             0       -1.141563   -3.204595    0.954104
   27          1             0       -2.309689   -0.891293    1.814221
   28          1             0        0.061710   -1.260980    1.535157
   29          1             0       -0.198838    2.755128    0.941793
   30          1             0       -0.031317   -0.653019   -1.417660
   31          1             0        2.132853    3.250636    0.981794
   32          1             0        4.482964    2.972569    1.769754
   33          1             0        5.611933    0.765969    1.574464
   34          1             0        4.396920   -1.204156    0.609086
   35          1             0        0.469362   -3.277382   -1.501288
   36          1             0        0.757316   -4.203818   -0.023806
   37          1             0       -2.005303    1.556660    2.147450
   38          1             0       -0.450708    0.761314    2.399787
   39          1             0       -3.524512    1.677127   -1.240585
   40          1             0       -3.445750    1.975978    0.494874
   41          1             0        1.018875    1.298621   -2.406286
   42          1             0        0.941840    2.831146   -1.507111
   43          1             0       -1.266034    2.789595   -2.532719
   44          1             0       -1.402180    1.025627   -2.334255
   45          1             0       -4.013452   -0.631239   -1.647252
   46          1             0       -3.616818   -2.987271   -1.430074
   47          1             0       -3.295831   -2.773457    0.306987
 ---------------------------------------------------------------------
                    Distance matrix (angstroms):
                    1          2          3          4          5
     1  C    0.000000
     2  C    1.402001   0.000000
     3  C    2.426452   1.398845   0.000000
     4  C    2.831482   2.441611   1.400749   0.000000
     5  C    2.421945   2.780521   2.395867   1.398667   0.000000
     6  C    1.393242   2.413034   2.786231   2.447449   1.405378
     7  N    3.619354   4.180449   3.753991   2.533426   1.414068
     8  C    3.772797   4.743998   4.718829   3.735143   2.371360
     9  C    2.632463   3.871168   4.284331   3.731448   2.399505
    10  C    4.846476   5.191560   4.474355   3.103372   2.482358
    11  C    5.985213   6.530244   5.939489   4.597223   3.787054
    12  C    5.984771   6.775199   6.467306   5.272618   4.207710
    13  C    4.676047   5.602061   5.542933   4.553396   3.338167
    14  C    3.279707   4.631037   5.312441   4.964468   3.714218
    15  C    4.118715   5.295065   5.811252   5.360689   4.181738
    16  C    5.106507   6.223782   6.464755   5.698959   4.438987
    17  C    5.915147   7.164455   7.496838   6.716925   5.356488
    18  C    5.731218   7.093128   7.682964   7.123743   5.758530
    19  N    4.473082   5.864782   6.562192   6.146202   4.822298
    20  C    3.331379   4.559799   5.075609   4.621979   3.403856
    21  C    4.586257   5.912901   6.486403   5.972884   4.654893
    22  C    6.986776   8.189025   8.375939   7.442526   6.092409
    23  C    7.515675   8.564674   8.511389   7.413275   6.172539
    24  O    6.847727   7.764849   7.537577   6.335715   5.174233
    25  O    5.271804   5.294746   4.299351   2.933874   2.892642
    26  H    6.650858   7.375906   7.034763   5.874727   4.931559
    27  H    5.933398   6.959314   7.136878   6.362618   5.208676
    28  H    4.413610   5.154120   5.008280   4.079600   3.075085
    29  H    2.863266   4.212852   5.142105   5.092924   4.022877
    30  H    4.587210   5.581770   5.535620   4.499162   3.180460
    31  H    1.092780   2.167332   3.417078   3.924213   3.417197
    32  H    2.164034   1.091963   2.163156   3.426691   3.872460
    33  H    3.414236   2.159335   1.092540   2.153229   3.386730
    34  H    3.918247   3.435649   2.182610   1.086916   2.159708
    35  H    6.426351   7.024316   6.454070   5.098639   4.245473
    36  H    6.808584   7.214679   6.482979   5.127199   4.543069
    37  H    4.846549   6.031845   6.682558   6.356466   5.224698
    38  H    3.739096   4.721613   5.165069   4.794458   3.804966
    39  H    6.540470   7.918461   8.511344   7.924133   6.540074
    40  H    6.091261   7.442379   8.133887   7.690966   6.379510
    41  H    3.809577   4.829806   5.109931   4.512984   3.393544
    42  H    2.994137   4.203814   4.956023   4.805340   3.777214
    43  H    5.217992   6.531546   7.212221   6.813716   5.559930
    44  H    5.318240   6.584223   6.967168   6.250424   4.895538
    45  H    7.683823   8.938361   9.188526   8.280370   6.906652
    46  H    8.492770   9.539631   9.446267   8.300154   7.076068
    47  H    7.804869   8.802619   8.730742   7.659077   6.486716
                    6          7          8          9         10
     6  C    0.000000
     7  N    2.308384   0.000000
     8  C    2.400440   1.484708   0.000000
     9  C    1.515416   2.420157   1.565504   0.000000
    10  C    3.612491   1.384551   2.478622   3.731070   0.000000
    11  C    4.649792   2.452265   2.765750   4.302460   1.527262
    12  C    4.654861   2.954037   2.487182   3.947807   2.627380
    13  C    3.421274   2.422922   1.540051   2.657114   2.793312
    14  C    2.629240   3.745252   2.616754   1.559056   4.913915
    15  C    3.414708   4.030016   2.947988   2.592552   4.891891
    16  C    4.064887   3.783735   2.574280   3.019404   4.329943
    17  C    4.861661   4.581937   3.152426   3.491391   5.188394
    18  C    4.924213   5.267982   3.798418   3.500913   6.153170
    19  N    3.797739   4.606520   3.255746   2.431813   5.730001
    20  C    2.546492   3.385277   2.567914   1.549992   4.681292
    21  C    3.791346   4.340374   3.111929   2.416341   5.486108
    22  C    5.814013   5.075298   3.744300   4.436329   5.428152
    23  C    6.229521   4.958929   3.928714   5.046405   4.913054
    24  O    5.484580   3.843815   3.100373   4.487068   3.629133
    25  O    4.232338   2.294797   3.616443   4.688981   1.222939
    26  H    5.397612   3.795640   3.432545   4.788599   3.284362
    27  H    4.950703   4.531916   3.503335   4.059000   4.831565
    28  H    3.298994   2.457234   2.135245   3.002598   2.693718
    29  H    2.721179   4.403301   3.509396   2.166672   5.643849
    30  H    3.239017   2.121095   1.100341   2.199839   2.867772
    31  H    2.163625   4.471851   4.321727   2.923816   5.759226
    32  H    3.403348   5.271281   5.778555   4.783183   6.271576
    33  H    3.878757   4.668673   5.744601   5.375281   5.199715
    34  H    3.428143   2.829656   4.237297   4.556078   2.906215
    35  H    5.058672   2.855099   3.046414   4.563529   2.137121
    36  H    5.530965   3.331059   3.810016   5.319307   2.117795
    37  H    4.349657   5.129789   4.011788   3.536326   5.971293
    38  H    3.169038   3.870908   3.160119   2.849773   4.652800
    39  H    5.726446   5.971835   4.495940   4.247309   6.832751
    40  H    5.453025   6.015430   4.592821   4.168051   6.894055
    41  H    2.931839   3.230662   2.724326   2.221152   4.415574
    42  H    2.694434   4.120278   3.494096   2.171995   5.478274
    43  H    4.620436   5.341376   4.186922   3.381075   6.506943
    44  H    4.309521   4.261985   2.987373   2.873241   5.207786
    45  H    6.550322   5.903029   4.546021   5.094539   6.307710
    46  H    7.183638   5.798051   4.831535   5.971677   5.650727
    47  H    6.569188   5.337326   4.396434   5.500893   5.178726
                   11         12         13         14         15
    11  C    0.000000
    12  C    1.552218   0.000000
    13  C    2.538818   1.542680   0.000000
    14  C    5.227619   4.434145   2.972818   0.000000
    15  C    4.982903   3.917330   2.463946   1.529545   0.000000
    16  C    3.977822   2.653976   1.542838   2.492981   1.540308
    17  C    4.627593   3.285311   2.594058   2.871672   2.507555
    18  C    5.845070   4.646544   3.683859   2.490095   2.661083
    19  N    5.779634   4.869129   3.660088   1.491056   2.493598
    20  C    5.167950   4.911268   3.861132   2.384737   3.763456
    21  C    5.577853   4.962538   3.998197   2.416039   3.635851
    22  C    4.534050   3.208109   3.156275   4.107164   3.783437
    23  C    3.703891   2.420888   3.082944   5.022409   4.501050
    24  O    2.361748   1.426472   2.502153   4.892826   4.557483
    25  O    2.411575   3.681384   3.905900   5.915803   5.875746
    26  H    2.193204   1.108108   2.164515   5.069787   4.243048
    27  H    4.308724   2.865621   2.154735   3.455976   2.176012
    28  H    2.786795   2.116617   1.105389   3.309015   2.583689
    29  H    6.147140   5.443607   3.937135   1.105132   2.160221
    30  H    2.799577   2.576865   2.153117   3.188371   3.664128
    31  H    6.771203   6.579782   5.164661   3.120548   4.098409
    32  H    7.614706   7.824490   6.602009   5.360803   6.038346
    33  H    6.702848   7.349618   6.515234   6.388069   6.832033
    34  H    4.423316   5.362568   4.936766   5.839693   6.111527
    35  H    1.103019   2.138294   3.162707   5.582859   5.554337
    36  H    1.096988   2.213760   3.375352   6.195555   5.792745
    37  H    5.978798   4.789831   3.441685   2.168782   1.100149
    38  H    4.956072   4.074293   2.619911   2.164131   1.101136
    39  H    6.421200   5.266715   4.512343   3.414988   3.755984
    40  H    6.611327   5.317019   4.272424   2.850646   2.696108
    41  H    4.934989   4.966077   4.190824   3.381026   4.633305
    42  H    6.133257   5.912656   4.750850   2.738533   4.240322
    43  H    6.610234   6.020868   5.096737   3.269233   4.547514
    44  H    5.041983   4.417050   3.766177   3.065562   3.978652
    45  H    5.401551   4.189276   4.177699   4.725544   4.607717
    46  H    4.322746   3.271486   4.124290   5.997916   5.562514
    47  H    3.961354   2.551542   3.211748   5.327931   4.494900
                   16         17         18         19         20
    16  C    0.000000
    17  C    1.529702   0.000000
    18  C    2.552937   1.514692   0.000000
    19  N    2.932386   2.464940   1.470948   0.000000
    20  C    4.088297   4.007995   3.641299   2.381420   0.000000
    21  C    3.756248   3.141881   2.467904   1.474190   1.529415
    22  C    2.519818   1.341011   2.513947   3.547996   4.771682
    23  C    2.992592   2.508636   3.918953   4.779532   5.579535
    24  O    3.134907   3.068460   4.440553   4.894339   5.069767
    25  O    5.427141   6.380712   7.332135   6.840961   5.633277
    26  H    2.950813   3.743410   5.187928   5.580277   5.881603
    27  H    1.105535   2.154221   3.274003   3.903839   5.190605
    28  H    2.117273   3.486800   4.470204   4.326268   4.431042
    29  H    3.456351   3.885343   3.257758   2.122818   2.795385
    30  H    3.024435   3.094247   3.751851   3.344381   2.547031
    31  H    5.291123   5.955437   5.505442   4.182324   3.380663
    32  H    7.105361   8.032308   7.833612   6.563498   5.356412
    33  H    7.480412   8.557313   8.769448   7.649965   6.128446
    34  H    6.243427   7.280805   7.851337   6.977127   5.426977
    35  H    4.491967   4.810957   5.963441   5.899483   5.112536
    36  H    4.750824   5.481924   6.786681   6.804920   6.248060
    37  H    2.196224   2.820842   2.652874   2.766330   4.513882
    38  H    2.185060   3.471179   3.759717   3.441510   4.252479
    39  H    3.501376   2.167637   1.099737   2.097491   4.028680
    40  H    2.895817   2.166614   1.103669   2.105694   4.459365
    41  H    4.716644   4.604077   4.444960   3.346229   1.100181
    42  H    4.874374   4.854503   4.243121   2.818518   1.101644
    43  H    4.761272   3.983857   3.029959   2.134171   2.198398
    44  H    3.647850   2.804535   2.542854   2.143891   2.177307
    45  H    3.511228   2.105394   2.725523   3.846327   5.129267
    46  H    4.073523   3.396176   4.665339   5.593642   6.332142
    47  H    2.978020   2.865774   4.334863   5.274702   6.259717
                   21         22         23         24         25
    21  C    0.000000
    22  C    3.830241   0.000000
    23  C    4.934649   1.509550   0.000000
    24  O    4.792369   2.445111   1.429867   0.000000
    25  O    6.585647   6.626347   6.022685   4.716139   0.000000
    26  H    5.874717   3.631782   2.637116   2.066497   4.134716
    27  H    4.820466   2.850471   3.026114   3.404347   5.841348
    28  H    4.796719   4.156705   3.985163   3.382760   3.575334
    29  H    3.027141   5.157169   6.111781   5.982930   6.528517
    30  H    2.820403   3.357598   3.544706   2.665409   4.041387
    31  H    4.438015   7.118446   7.841049   7.340230   6.286476
    32  H    6.670008   9.116959   9.564428   8.815770   6.320852
    33  H    7.561193   9.417057   9.482661   8.461105   4.795652
    34  H    6.737079   7.866101   7.636437   6.445098   2.326000
    35  H    5.448444   4.510777   3.692279   2.263347   2.971189
    36  H    6.664253   5.298244   4.246754   2.998117   2.504100
    37  H    4.144642   4.113202   4.988347   5.309824   6.945696
    38  H    4.458301   4.657975   5.129988   5.002295   5.471762
    39  H    2.594549   2.646548   4.147224   4.779145   8.037251
    40  H    3.380325   3.205758   4.561851   5.233983   8.036185
    41  H    2.209418   5.128979   5.744514   5.032717   5.298559
    42  H    2.178362   5.730276   6.620631   6.150626   6.315316
    43  H    1.103296   4.576913   5.782427   5.733256   7.578606
    44  H    1.108767   3.123320   4.131923   3.986466   6.362385
    45  H    3.959488   1.095245   2.237044   3.212020   7.514867
    46  H    5.596396   2.154879   1.099781   2.023044   6.715872
    47  H    5.674182   2.173159   1.109534   2.084041   6.207071
                   26         27         28         29         30
    26  H    0.000000
    27  H    2.730510   0.000000
    28  H    2.358628   2.416212   0.000000
    29  H    6.033836   4.302698   4.068057   0.000000
    30  H    3.656289   3.961415   3.016189   4.148559   0.000000
    31  H    7.238272   6.130636   4.995050   2.384096   5.067498
    32  H    8.393923   7.814829   6.125803   4.759419   6.609329
    33  H    7.858749   8.096672   5.908895   6.174308   6.543134
    34  H    5.898779   6.821205   4.433382   6.075163   4.901095
    35  H    2.937572   4.940562   3.667705   6.542653   2.673005
    36  H    2.358071   4.874186   3.402136   7.090383   3.895247
    37  H    4.983941   2.489211   3.547752   2.480574   4.635657
    38  H    4.277349   2.555349   2.258280   2.482837   4.092570
    39  H    5.858866   4.171860   5.403536   4.121282   4.202778
    40  H    5.688453   3.354483   4.884912   3.368865   4.714633
    41  H    6.019855   5.804114   4.796112   3.848879   2.426763
    42  H    6.843122   5.954851   5.174506   2.702602   3.618624
    43  H    6.935685   5.790858   5.892170   3.634876   3.823541
    44  H    5.364327   4.659186   4.726933   3.895086   2.353139
    45  H    4.651554   3.866812   5.208766   5.720307   3.988807
    46  H    3.443606   4.077641   5.030332   7.091085   4.278400
    47  H    2.290307   2.605143   3.881890   6.368641   4.257666
                   31         32         33         34         35
    31  H    0.000000
    32  H    2.494238   0.000000
    33  H    4.316113   2.486322   0.000000
    34  H    5.010996   4.335849   2.507908   0.000000
    35  H    7.179688   8.116071   7.228760   4.917078   0.000000
    36  H    7.646713   8.282382   7.128853   4.758701   1.767528
    37  H    4.620892   6.651696   7.679569   7.139826   6.542570
    38  H    3.857748   5.443134   6.118562   5.528940   5.689990
    39  H    6.278589   8.652166   9.603610   8.629725   6.369157
    40  H    5.743053   8.092158   9.201699   8.463673   6.849128
    41  H    4.065759   5.678144   6.101333   5.173735   4.696891
    42  H    2.790902   4.826739   5.964129   5.718350   6.126776
    43  H    4.910885   7.183017   8.262593   7.608549   6.394033
    44  H    5.333226   7.434272   8.033884   6.874936   4.765752
    45  H    7.730324   9.841364  10.245959   8.726605   5.207590
    46  H    8.819712  10.552965  10.405955   8.459177   4.097085
    47  H    8.137302   9.780908   9.668624   7.856996   4.207194
                   36         37         38         39         40
    36  H    0.000000
    37  H    6.747557   0.000000
    38  H    5.655587   1.764373   0.000000
    39  H    7.375644   3.715009   4.851731   0.000000
    40  H    7.491640   2.231978   3.751584   1.762763   0.000000
    41  H    6.001788   5.472545   5.054375   4.705793   5.367348
    42  H    7.192007   4.864749   4.635434   4.620724   4.897980
    43  H    7.700416   4.895981   5.395210   2.829826   3.818305
    44  H    6.111358   4.553179   4.835940   2.474845   3.617087
    45  H    6.177307   4.818645   5.568741   2.394368   3.421779
    46  H    4.752960   6.003580   6.224466   4.669158   5.326211
    47  H    4.310842   4.878800   4.996913   4.717518   4.755514
                   41         42         43         44         45
    41  H    0.000000
    42  H    1.778506   0.000000
    43  H    2.731263   2.434811   0.000000
    44  H    2.437462   3.072213   1.780310   0.000000
    45  H    5.442867   6.046707   4.475987   3.167952   0.000000
    46  H    6.388389   7.391974   6.333576   4.671779   2.399035
    47  H    6.523830   7.256747   6.567462   4.999512   2.987161
                   46         47
    46  H    0.000000
    47  H    1.779362   0.000000
 Stoichiometry    C21H22N2O2
 Framework group  C1[X(C21H22N2O2)]
 Deg. of freedom   135
 Full point group                 C1
 Largest Abelian subgroup         C1      NOp   1
 Largest concise Abelian subgroup C1      NOp   1
                         Standard orientation:                         
 ---------------------------------------------------------------------
 Center     Atomic     Atomic              Coordinates (Angstroms)
 Number     Number      Type              X           Y           Z
 ---------------------------------------------------------------------
    1          6             0        2.990092   -1.847086   -0.320385
    2          6             0        4.310438   -1.417729   -0.515177
    3          6             0        4.639712   -0.067935   -0.352690
    4          6             0        3.672304    0.882488   -0.002094
    5          6             0        2.358178    0.437764    0.175566
    6          6             0        2.012441   -0.915903    0.023449
    7          7             0        1.208021    1.195696    0.495355
    8          6             0        0.001233    0.334522    0.415357
    9          6             0        0.551731   -1.130148    0.365370
   10          6             0        1.082389    2.562645    0.314661
   11          6             0       -0.356352    3.075021    0.309665
   12          6             0       -1.415723    2.202272   -0.415196
   13          6             0       -0.811516    0.834199   -0.793576
   14          6             0       -0.272855   -2.079744   -0.556032
   15          6             0       -0.822503   -1.407858   -1.815384
   16          6             0       -1.738592   -0.244387   -1.391516
   17          6             0       -2.823972   -0.765728   -0.448042
   18          6             0       -2.724663   -2.248505   -0.155123
   19          7             0       -1.373332   -2.614420    0.296210
   20          6             0        0.364187   -1.841497    1.729659
   21          6             0       -1.102664   -2.273743    1.704725
   22          6             0       -3.721171    0.040895    0.137366
   23          6             0       -3.711560    1.541853   -0.023177
   24          8             0       -2.517906    2.140328    0.488230
   25          8             0        2.040718    3.312868    0.194868
   26          1             0       -1.748524    2.706032   -1.344375
   27          1             0       -2.225858    0.187480   -2.284976
   28          1             0       -0.080552    1.056933   -1.592304
   29          1             0        0.387203   -2.915575   -0.851039
   30          1             0       -0.609026    0.476332    1.319914
   31          1             0        2.734553   -2.903448   -0.434251
   32          1             0        5.082587   -2.140033   -0.788025
   33          1             0        5.671661    0.258462   -0.501651
   34          1             0        3.913393    1.935279    0.119943
   35          1             0       -0.687866    3.147886    1.359160
   36          1             0       -0.320615    4.097734   -0.085510
   37          1             0       -1.363352   -2.143040   -2.429645
   38          1             0        0.011858   -1.037686   -2.431270
   39          1             0       -3.444361   -2.546270    0.621273
   40          1             0       -2.974832   -2.840969   -1.052056
   41          1             0        0.613355   -1.195575    2.584703
   42          1             0        1.028726   -2.719343    1.766975
   43          1             0       -1.294473   -3.137528    2.363775
   44          1             0       -1.752239   -1.445390    2.052931
   45          1             0       -4.469096   -0.390612    0.811139
   46          1             0       -4.534657    1.993243    0.549778
   47          1             0       -3.850021    1.833203   -1.084783
 ---------------------------------------------------------------------
 Rotational constants (GHZ):      0.3789632      0.2399360      0.1686408
 Leave Link  202 at Thu Apr 16 13:49:26 2009, MaxMem=  196608000 cpu:       0.1
 (Enter /data/hamilton/dch0ik/g03/l301.exe)
 Standard basis: CC-pVDZ (5D, 7F)
 Converting basis for Fermi contact spin-spin IFCMod=1.
 AO basis functions are being uncontracted.
 There are  1092 symmetry adapted basis functions of A   symmetry.
 Integral buffers will be    262144 words long.
 Raffenetti 2 integral format.
 Two-electron integral symmetry is turned on.
  1092 basis functions,  1117 primitive gaussians,  1117 cartesian basis functions
    89 alpha electrons       89 beta electrons
       nuclear repulsion energy      2379.1272189752 Hartrees.
 IExCor= 402 DFT=T Ex=B+HF Corr=LYP ExCW=0 ScaHFX=  0.200000
 ScaDFX=  0.800000  0.720000  1.000000  0.810000
 IRadAn=      0 IRanWt=     -1 IRanGd=            0 ICorTp=0
 NAtoms=   47 NActive=   47 NUniq=   47 SFac= 7.50D-01 NAtFMM=  320 NAOKFM=F Big=F
 Leave Link  301 at Thu Apr 16 13:49:28 2009, MaxMem=  196608000 cpu:       0.1
 (Enter /data/hamilton/dch0ik/g03/linda-exe/l302.exel)
 NPDir=0 NMtPBC=     1 NCelOv=     1 NCel=       1 NClECP=     1 NCelD=      1
         NCelK=      1 NCelE2=     1 NClLst=     1 CellRange=     0.0.
 One-electron integrals computed using PRISM.
 NBasis=  1092 RedAO= T  NBF=  1092
 NBsUse=   942 1.00D-06 NBFU=   942
 Precomputing XC quadrature grid using
 IXCGrd= 2 IRadAn=           0 IRanWt=          -1 IRanGd=           0.
 NRdTot=    2986 NPtTot=      380408 NUsed=      393940 NTot=      393956
 NSgBfM=   766   770   772   773.
 Leave Link  302 at Thu Apr 16 13:49:48 2009, MaxMem=  196608000 cpu:      29.5
 (Enter /data/hamilton/dch0ik/g03/l308.exe)
 Leave Link  308 at Thu Apr 16 13:49:53 2009, MaxMem=  196608000 cpu:       4.1
 (Enter /data/hamilton/dch0ik/g03/l303.exe)
 DipDrv:  MaxL=1.
 Leave Link  303 at Thu Apr 16 13:49:56 2009, MaxMem=  196608000 cpu:       2.3
 (Enter /data/hamilton/dch0ik/g03/l401.exe)
 Initial guess read from the checkpoint file:
 strychnine.chk
 Guess basis will be translated and rotated to current coordinates.
 Initial guess orbital symmetries:
       Occupied  (A) (A) (A) (A) (A) (A) (A) (A) (A) (A) (A) (A)
                 (A) (A) (A) (A) (A) (A) (A) (A) (A) (A) (A) (A)
                 (A) (A) (A) (A) (A) (A) (A) (A) (A) (A) (A) (A)
                 (A) (A) (A) (A) (A) (A) (A) (A) (A) (A) (A) (A)
                 (A) (A) (A) (A) (A) (A) (A) (A) (A) (A) (A) (A)
                 (A) (A) (A) (A) (A) (A) (A) (A) (A) (A) (A) (A)
                 (A) (A) (A) (A) (A) (A) (A) (A) (A) (A) (A) (A)
                 (A) (A) (A) (A) (A)
       Virtual   (A) (A) (A) (A) (A) (A) (A) (A) (A) (A) (A) (A)
                 (A) (A) (A) (A) (A) (A) (A) (A) (A) (A) (A) (A)
                 (A) (A) (A) (A) (A) (A) (A) (A) (A) (A) (A) (A)
                 (A) (A) (A) (A) (A) (A) (A) (A) (A) (A) (A) (A)
                 (A) (A) (A) (A) (A) (A) (A) (A) (A) (A) (A) (A)
                 (A) (A) (A) (A) (A) (A) (A) (A) (A) (A) (A) (A)
                 (A) (A) (A) (A) (A) (A) (A) (A) (A) (A) (A) (A)
                 (A) (A) (A) (A) (A) (A) (A) (A) (A) (A) (A) (A)
                 (A) (A) (A) (A) (A) (A) (A) (A) (A) (A) (A) (A)
                 (A) (A) (A) (A) (A) (A) (A) (A) (A) (A) (A) (A)
                 (A) (A) (A) (A) (A) (A) (A) (A) (A) (A) (A) (A)
                 (A) (A) (A) (A) (A) (A) (A) (A) (A) (A) (A) (A)
                 (A) (A) (A) (A) (A) (A) (A) (A) (A) (A) (A) (A)
                 (A) (A) (A) (A) (A) (A) (A) (A) (A) (A) (A) (A)
                 (A) (A) (A) (A) (A) (A) (A) (A) (A) (A) (A) (A)
                 (A) (A) (A) (A) (A) (A) (A) (A) (A) (A) (A) (A)
                 (A) (A) (A) (A) (A) (A) (A) (A) (A) (A) (A) (A)
                 (A) (A) (A) (A) (A) (A) (A) (A) (A) (A) (A) (A)
                 (A) (A) (A) (A) (A) (A) (A) (A) (A) (A) (A) (A)
                 (A) (A) (A) (A) (A) (A) (A) (A) (A) (A) (A) (A)
                 (A) (A) (A) (A) (A) (A) (A) (A) (A) (A) (A) (A)
                 (A) (A) (A) (A) (A) (A) (A) (A) (A) (A) (A) (A)
                 (A) (A) (A) (A) (A) (A) (A) (A) (A) (A) (A) (A)
                 (A) (A) (A) (A) (A) (A) (A) (A) (A) (A) (A) (A)
                 (A) (A) (A) (A) (A) (A) (A) (A) (A) (A) (A) (A)
                 (A) (A) (A) (A) (A) (A) (A) (A) (A) (A) (A) (A)
                 (A) (A) (A) (A) (A) (A) (A) (A) (A) (A) (A) (A)
                 (A) (A) (A) (A) (A) (A) (A) (A) (A) (A) (A) (A)
                 (A) (A) (A) (A) (A) (A) (A) (A) (A) (A) (A) (A)
                 (A) (A) (A) (A) (A) (A) (A) (A) (A) (A) (A) (A)
                 (A) (A) (A) (A) (A) (A) (A) (A) (A) (A) (A) (A)
                 (A) (A) (A) (A) (A) (A) (A) (A) (A) (A) (A) (A)
                 (A) (A) (A) (A) (A) (A) (A) (A) (A) (A) (A) (A)
                 (A) (A) (A) (A) (A) (A) (A) (A) (A) (A) (A) (A)
                 (A) (A) (A) (A) (A) (A) (A) (A) (A) (A) (A) (A)
                 (A) (A) (A) (A) (A) (A) (A) (A) (A) (A) (A) (A)
                 (A) (A) (A) (A) (A) (A) (A) (A) (A) (A) (A) (A)
                 (A) (A) (A) (A) (A) (A) (A) (A) (A) (A) (A) (A)
                 (A) (A) (A) (A) (A) (A) (A) (A) (A) (A) (A) (A)
                 (A) (A) (A) (A) (A) (A) (A) (A) (A) (A) (A) (A)
                 (A) (A) (A) (A) (A) (A) (A) (A) (A) (A) (A) (A)
                 (A) (A) (A) (A) (A) (A) (A) (A) (A) (A) (A) (A)
                 (A) (A) (A) (A) (A) (A) (A) (A) (A) (A) (A) (A)
                 (A) (A) (A) (A) (A) (A) (A) (A) (A) (A) (A) (A)
                 (A) (A) (A) (A) (A) (A) (A) (A) (A) (A) (A) (A)
                 (A) (A) (A) (A) (A) (A) (A) (A) (A) (A) (A) (A)
                 (A) (A) (A) (A) (A) (A) (A) (A) (A) (A) (A) (A)
                 (A) (A) (A) (A) (A) (A) (A) (A) (A) (A) (A) (A)
                 (A) (A) (A) (A) (A) (A) (A) (A) (A) (A) (A) (A)
                 (A) (A) (A) (A) (A) (A) (A) (A) (A) (A) (A) (A)
                 (A) (A) (A) (A) (A) (A) (A) (A) (A) (A) (A) (A)
                 (A) (A) (A) (A) (A) (A) (A) (A) (A) (A) (A) (A)
                 (A) (A) (A) (A) (A) (A) (A) (A) (A) (A) (A) (A)
                 (A) (A) (A) (A) (A) (A) (A) (A) (A) (A) (A) (A)
                 (A) (A) (A) (A) (A) (A) (A) (A) (A) (A) (A) (A)
                 (A) (A) (A) (A) (A) (A) (A) (A) (A) (A) (A) (A)
                 (A) (A) (A) (A) (A) (A) (A) (A) (A) (A) (A) (A)
                 (A) (A) (A) (A) (A) (A) (A) (A) (A) (A) (A) (A)
                 (A) (A) (A) (A) (A) (A) (A) (A) (A) (A) (A) (A)
                 (A) (A) (A) (A) (A) (A) (A) (A) (A) (A) (A) (A)
                 (A) (A) (A) (A) (A) (A) (A) (A) (A) (A) (A) (A)
                 (A) (A) (A) (A) (A) (A) (A) (A) (A) (A) (A) (A)
                 (A) (A) (A) (A) (A) (A) (A) (A) (A) (A) (A) (A)
                 (A) (A) (A) (A) (A) (A) (A) (A) (A) (A) (A) (A)
                 (A) (A) (A) (A) (A) (A) (A) (A) (A) (A) (A) (A)
                 (A) (A) (A) (A) (A) (A) (A) (A) (A) (A) (A) (A)
                 (A) (A) (A) (A) (A) (A) (A) (A) (A) (A) (A) (A)
                 (A) (A) (A) (A) (A) (A) (A) (A) (A) (A) (A) (A)
                 (A) (A) (A) (A) (A) (A) (A) (A) (A) (A) (A) (A)
                 (A) (A) (A) (A) (A) (A) (A) (A) (A) (A) (A) (A)
                 (A) (A) (A) (A) (A) (A) (A) (A) (A) (A) (A) (A)
                 (A)
 The electronic state of the initial guess is 1-A.
 Leave Link  401 at Thu Apr 16 13:50:26 2009, MaxMem=  196608000 cpu:      55.6
 (Enter /data/hamilton/dch0ik/g03/linda-exe/l502.exel)
 Closed shell SCF:
 Requested convergence on RMS density matrix=1.00D-08 within 128 cycles.
 Requested convergence on MAX density matrix=1.00D-06.
 Requested convergence on             energy=1.00D-06.
 No special actions if energy rises.
 Using DIIS extrapolation, IDIIS=  1040.
 Integral symmetry usage will be decided dynamically.
       393939 words used for storage of precomputed grid.
 IEnd=   4478442 IEndB=   4478442 NGot= 196608000 MDV= 193395005
 LenX= 193395005
 Fock matrices will be formed incrementally for  20 cycles.

 Cycle   1  Pass 1  IDiag  1:
 Petite list used in FoFDir.
 MinBra= 0 MaxBra= 2 Meth= 1.
 IRaf=       0 NMat=   1 IRICut=       1 DoRegI=T DoRafI=F ISym2E= 1 JSym2E=1.
 E= -1073.46901867944    
 DIIS: error= 1.15D+00 at cycle   1 NSaved=   1.
 NSaved= 1 IEnMin= 1 EnMin= -1073.46901867944     IErMin= 1 ErrMin= 1.15D+00
 ErrMax= 1.15D+00 EMaxC= 1.00D-01 BMatC= 8.77D+02 BMatP= 8.77D+02
 IDIUse=3 WtCom= 0.00D+00 WtEn= 1.00D+00
 Coeff-Com:  0.100D+01
 Coeff-En:   0.100D+01
 Coeff:      0.100D+01
 Gap=     0.194 Goal=   None    Shift=    0.000
 GapD=    0.194 DampG=1.000 DampE=0.250 DampFc=0.2500 IDamp=-1.
 Damping current iteration by 2.50D-01
 RMSDP=1.04D-03 MaxDP=8.43D-02              OVMax= 1.60D-02

 Cycle   2  Pass 1  IDiag  1:
 RMSU=  2.46D-04    CP:  9.80D-01
 E= -1073.49730668620     Delta-E=       -0.028288006758 Rises=F Damp=T
 DIIS: error= 8.62D-01 at cycle   2 NSaved=   2.
 NSaved= 2 IEnMin= 2 EnMin= -1073.49730668620     IErMin= 2 ErrMin= 8.62D-01
 ErrMax= 8.62D-01 EMaxC= 1.00D-01 BMatC= 4.95D+02 BMatP= 8.77D+02
 IDIUse=3 WtCom= 0.00D+00 WtEn= 1.00D+00
 Coeff-Com: -0.302D+01 0.402D+01
 Coeff-En:   0.000D+00 0.100D+01
 Coeff:      0.000D+00 0.100D+01
 Gap=     0.194 Goal=   None    Shift=    0.000
 RMSDP=7.87D-04 MaxDP=6.36D-02 DE=-2.83D-02 OVMax= 3.16D-04

 Cycle   3  Pass 1  IDiag  1:
 RMSU=  2.54D-04    CP:  9.19D-01  3.00D+00
 E= -1073.58383300032     Delta-E=       -0.086526314118 Rises=F Damp=F
 DIIS: error= 2.72D-03 at cycle   3 NSaved=   3.
 NSaved= 3 IEnMin= 3 EnMin= -1073.58383300032     IErMin= 3 ErrMin= 2.72D-03
 ErrMax= 2.72D-03 EMaxC= 1.00D-01 BMatC= 6.92D-03 BMatP= 4.95D+02
 IDIUse=3 WtCom= 9.73D-01 WtEn= 2.72D-02
 Coeff-Com:  0.307D+01-0.410D+01 0.203D+01
 Coeff-En:   0.000D+00 0.000D+00 0.100D+01
 Coeff:      0.299D+01-0.399D+01 0.200D+01
 Gap=     0.194 Goal=   None    Shift=    0.000
 RMSDP=3.18D-05 MaxDP=1.61D-03 DE=-8.65D-02 OVMax= 8.58D-04

 Cycle   4  Pass 1  IDiag  1:
 RMSU=  1.70D-05    CP:  9.17D-01  3.00D+00  1.10D+00
 E= -1073.58392815998     Delta-E=       -0.000095159667 Rises=F Damp=F
 DIIS: error= 6.54D-04 at cycle   4 NSaved=   4.
 NSaved= 4 IEnMin= 4 EnMin= -1073.58392815998     IErMin= 4 ErrMin= 6.54D-04
 ErrMax= 6.54D-04 EMaxC= 1.00D-01 BMatC= 5.12D-04 BMatP= 6.92D-03
 IDIUse=3 WtCom= 9.93D-01 WtEn= 6.54D-03
 Coeff-Com:  0.212D+01-0.283D+01 0.966D+00 0.741D+00
 Coeff-En:   0.000D+00 0.000D+00 0.000D+00 0.100D+01
 Coeff:      0.211D+01-0.281D+01 0.960D+00 0.742D+00
 Gap=     0.194 Goal=   None    Shift=    0.000
 RMSDP=2.52D-06 MaxDP=1.71D-04 DE=-9.52D-05 OVMax= 3.31D-04

 Cycle   5  Pass 1  IDiag  1:
 RMSU=  2.44D-06    CP:  9.17D-01  3.00D+00  1.10D+00  1.02D+00
 E= -1073.58392937383     Delta-E=       -0.000001213843 Rises=F Damp=F
 DIIS: error= 4.61D-04 at cycle   5 NSaved=   5.
 NSaved= 5 IEnMin= 5 EnMin= -1073.58392937383     IErMin= 5 ErrMin= 4.61D-04
 ErrMax= 4.61D-04 EMaxC= 1.00D-01 BMatC= 2.56D-04 BMatP= 5.12D-04
 IDIUse=3 WtCom= 9.95D-01 WtEn= 4.61D-03
 Coeff-Com:  0.169D+01-0.225D+01 0.751D+00 0.134D+00 0.677D+00
 Coeff-En:   0.000D+00 0.000D+00 0.000D+00 0.231D+00 0.769D+00
 Coeff:      0.168D+01-0.224D+01 0.747D+00 0.135D+00 0.678D+00
 Gap=     0.194 Goal=   None    Shift=    0.000
 RMSDP=2.03D-06 MaxDP=1.20D-04 DE=-1.21D-06 OVMax= 4.48D-04

 Cycle   6  Pass 1  IDiag  1:
 RMSU=  1.34D-06    CP:  9.17D-01  3.00D+00  1.10D+00  1.02D+00  3.79D-01
 E= -1073.58392875910     Delta-E=        0.000000614725 Rises=F Damp=F
 DIIS: error= 3.68D-04 at cycle   6 NSaved=   6.
 NSaved= 6 IEnMin= 5 EnMin= -1073.58392937383     IErMin= 6 ErrMin= 3.68D-04
 ErrMax= 3.68D-04 EMaxC= 1.00D-01 BMatC= 1.64D-04 BMatP= 2.56D-04
 IDIUse=3 WtCom= 9.96D-01 WtEn= 3.68D-03
 Coeff-Com:  0.121D+01-0.161D+01 0.528D+00-0.274D+00 0.504D+00 0.643D+00
 Coeff-En:   0.000D+00 0.000D+00 0.000D+00 0.000D+00 0.605D+00 0.395D+00
 Coeff:      0.120D+01-0.160D+01 0.526D+00-0.273D+00 0.505D+00 0.642D+00
 Gap=     0.194 Goal=   None    Shift=    0.000
 RMSDP=1.55D-06 MaxDP=1.04D-04 DE= 6.15D-07 OVMax= 3.61D-04

 Cycle   7  Pass 1  IDiag  1:
 RMSU=  7.52D-07    CP:  9.17D-01  3.00D+00  1.10D+00  1.02D+00  6.93D-01
                    CP:  1.79D-01
 E= -1073.58393072257     Delta-E=       -0.000001963469 Rises=F Damp=F
 DIIS: error= 2.63D-04 at cycle   7 NSaved=   7.
 NSaved= 7 IEnMin= 7 EnMin= -1073.58393072257     IErMin= 7 ErrMin= 2.63D-04
 ErrMax= 2.63D-04 EMaxC= 1.00D-01 BMatC= 8.29D-05 BMatP= 1.64D-04
 IDIUse=3 WtCom= 9.97D-01 WtEn= 2.63D-03
 Coeff-Com:  0.772D+00-0.103D+01 0.340D+00-0.332D+00 0.114D+00 0.478D+00
 Coeff-Com:  0.657D+00
 Coeff-En:   0.000D+00 0.000D+00 0.000D+00 0.000D+00 0.000D+00 0.000D+00
 Coeff-En:   0.100D+01
 Coeff:      0.770D+00-0.103D+01 0.339D+00-0.331D+00 0.114D+00 0.477D+00
 Coeff:      0.658D+00
 Gap=     0.194 Goal=   None    Shift=    0.000
 RMSDP=6.04D-07 MaxDP=5.41D-05 DE=-1.96D-06 OVMax= 1.36D-04

 Cycle   8  Pass 1  IDiag  1:
 RMSU=  4.29D-07    CP:  9.17D-01  3.00D+00  1.10D+00  1.02D+00  7.44D-01
                    CP:  3.36D-01  5.43D-01
 E= -1073.58393097853     Delta-E=       -0.000000255965 Rises=F Damp=F
 DIIS: error= 1.69D-04 at cycle   8 NSaved=   8.
 NSaved= 8 IEnMin= 8 EnMin= -1073.58393097853     IErMin= 8 ErrMin= 1.69D-04
 ErrMax= 1.69D-04 EMaxC= 1.00D-01 BMatC= 3.41D-05 BMatP= 8.29D-05
 IDIUse=3 WtCom= 9.98D-01 WtEn= 1.69D-03
 Coeff-Com:  0.190D+00-0.253D+00 0.859D-01-0.212D+00-0.268D+00 0.730D-01
 Coeff-Com:  0.476D+00 0.908D+00
 Coeff-En:   0.000D+00 0.000D+00 0.000D+00 0.000D+00 0.000D+00 0.000D+00
 Coeff-En:   0.000D+00 0.100D+01
 Coeff:      0.189D+00-0.253D+00 0.857D-01-0.211D+00-0.267D+00 0.729D-01
 Coeff:      0.475D+00 0.908D+00
 Gap=     0.194 Goal=   None    Shift=    0.000
 RMSDP=3.25D-07 MaxDP=3.31D-05 DE=-2.56D-07 OVMax= 6.88D-05

 Cycle   9  Pass 1  IDiag  1:
 RMSU=  1.77D-07    CP:  9.17D-01  3.00D+00  1.10D+00  1.02D+00  7.29D-01
                    CP:  3.23D-01  6.88D-01  4.27D-01
 E= -1073.58393106801     Delta-E=       -0.000000089472 Rises=F Damp=F
 DIIS: error= 4.15D-05 at cycle   9 NSaved=   9.
 NSaved= 9 IEnMin= 9 EnMin= -1073.58393106801     IErMin= 9 ErrMin= 4.15D-05
 ErrMax= 4.15D-05 EMaxC= 1.00D-01 BMatC= 2.10D-06 BMatP= 3.41D-05
 IDIUse=1 WtCom= 1.00D+00 WtEn= 0.00D+00
 Coeff-Com:  0.405D-01-0.541D-01 0.191D-01-0.596D-01-0.164D+00-0.438D-01
 Coeff-Com:  0.797D-01 0.544D+00 0.638D+00
 Coeff:      0.405D-01-0.541D-01 0.191D-01-0.596D-01-0.164D+00-0.438D-01
 Coeff:      0.797D-01 0.544D+00 0.638D+00
 Gap=     0.194 Goal=   None    Shift=    0.000
 RMSDP=2.31D-07 MaxDP=1.52D-05 DE=-8.95D-08 OVMax= 3.43D-05

 Cycle  10  Pass 1  IDiag  1:
 RMSU=  1.09D-07    CP:  9.17D-01  3.00D+00  1.10D+00  1.01D+00  7.33D-01
                    CP:  3.38D-01  7.82D-01  7.99D-01  5.21D-01
 E= -1073.58393110955     Delta-E=       -0.000000041540 Rises=F Damp=F
 DIIS: error= 8.88D-06 at cycle  10 NSaved=  10.
 NSaved=10 IEnMin=10 EnMin= -1073.58393110955     IErMin=10 ErrMin= 8.88D-06
 ErrMax= 8.88D-06 EMaxC= 1.00D-01 BMatC= 9.87D-08 BMatP= 2.10D-06
 IDIUse=1 WtCom= 1.00D+00 WtEn= 0.00D+00
 Coeff-Com:  0.130D-01-0.174D-01 0.628D-02-0.183D-01-0.772D-01-0.325D-01
 Coeff-Com:  0.189D-02 0.245D+00 0.382D+00 0.497D+00
 Coeff:      0.130D-01-0.174D-01 0.628D-02-0.183D-01-0.772D-01-0.325D-01
 Coeff:      0.189D-02 0.245D+00 0.382D+00 0.497D+00
 Gap=     0.194 Goal=   None    Shift=    0.000
 RMSDP=6.96D-08 MaxDP=4.84D-06 DE=-4.15D-08 OVMax= 1.82D-05

 Cycle  11  Pass 1  IDiag  1:
 RMSU=  3.41D-08    CP:  9.17D-01  3.00D+00  1.10D+00  1.01D+00  7.32D-01
                    CP:  3.38D-01  7.92D-01  8.35D-01  7.11D-01  5.75D-01
 E= -1073.58393111351     Delta-E=       -0.000000003962 Rises=F Damp=F
 DIIS: error= 2.85D-06 at cycle  11 NSaved=  11.
 NSaved=11 IEnMin=11 EnMin= -1073.58393111351     IErMin=11 ErrMin= 2.85D-06
 ErrMax= 2.85D-06 EMaxC= 1.00D-01 BMatC= 1.01D-08 BMatP= 9.87D-08
 IDIUse=1 WtCom= 1.00D+00 WtEn= 0.00D+00
 Coeff-Com: -0.894D-03 0.119D-02-0.155D-03-0.460D-02-0.312D-01-0.169D-01
 Coeff-Com: -0.992D-02 0.887D-01 0.162D+00 0.299D+00 0.513D+00
 Coeff:     -0.894D-03 0.119D-02-0.155D-03-0.460D-02-0.312D-01-0.169D-01
 Coeff:     -0.992D-02 0.887D-01 0.162D+00 0.299D+00 0.513D+00
 Gap=     0.194 Goal=   None    Shift=    0.000
 RMSDP=2.11D-08 MaxDP=1.32D-06 DE=-3.96D-09 OVMax= 4.38D-06

 Cycle  12  Pass 1  IDiag  1:
 RMSU=  8.19D-09    CP:  9.17D-01  3.00D+00  1.10D+00  1.01D+00  7.31D-01
                    CP:  3.32D-01  7.82D-01  8.27D-01  6.72D-01  6.16D-01
                    CP:  6.20D-01
 E= -1073.58393111385     Delta-E=       -0.000000000344 Rises=F Damp=F
 DIIS: error= 1.95D-07 at cycle  12 NSaved=  12.
 NSaved=12 IEnMin=12 EnMin= -1073.58393111385     IErMin=12 ErrMin= 1.95D-07
 ErrMax= 1.95D-07 EMaxC= 1.00D-01 BMatC= 5.97D-11 BMatP= 1.01D-08
 IDIUse=1 WtCom= 1.00D+00 WtEn= 0.00D+00
 Coeff-Com: -0.196D-04 0.260D-04 0.339D-04-0.333D-03-0.522D-02-0.318D-02
 Coeff-Com: -0.438D-02 0.145D-01 0.321D-01 0.798D-01 0.198D+00 0.688D+00
 Coeff:     -0.196D-04 0.260D-04 0.339D-04-0.333D-03-0.522D-02-0.318D-02
 Coeff:     -0.438D-02 0.145D-01 0.321D-01 0.798D-01 0.198D+00 0.688D+00
 Gap=     0.194 Goal=   None    Shift=    0.000
 RMSDP=5.03D-09 MaxDP=3.58D-07 DE=-3.44D-10 OVMax= 8.43D-07

 SCF Done:  E(RB+HF-LYP) =  -1073.58393111     A.U. after   12 cycles
             Convg  =    0.5030D-08             -V/T =  2.0055
             S**2   =   0.0000
 KE= 1.067688643830D+03 PE=-7.255234891697D+03 EE= 2.734835097778D+03
 Leave Link  502 at Thu Apr 16 14:46:50 2009, MaxMem=  196608000 cpu:    6422.5
 (Enter /data/hamilton/dch0ik/g03/l801.exe)
 Range of M.O.s used for correlation:     1   942
 NBasis=  1092 NAE=    89 NBE=    89 NFC=     0 NFV=     0
 NROrb=    942 NOA=    89 NOB=    89 NVA=   853 NVB=   853
 Leave Link  801 at Thu Apr 16 14:46:52 2009, MaxMem=  196608000 cpu:       0.1
 (Enter /data/hamilton/dch0ik/g03/linda-exe/l1002.exel)
 Minotr:  Closed-shell wavefunction.
 DoAtom=TTTTTTTTTTTTTTTTTTTTTTTTTTTTTTTTTTTTTTTTTTTTTTT
          Direct CPHF calculation.
          Solving linear equations simultaneously.
          Differentiating once with respect to Fermi-contact.
          Electric field/nuclear overlap derivatives assumed to be zero.
          Requested convergence is 1.0D-08 RMS, and 1.0D-07 maximum.
          Secondary convergence is 1.0D-12 RMS, and 1.0D-12 maximum.
          NewPWx=T KeepS1=F KeepF1=F KeepIn=T MapXYZ=F.
          MDV=     196607692 using IRadAn=       2.
 Generate precomputed XC quadrature information.
          There are  47 degrees of freedom in the 1st order CPHF.
    47 vectors were produced by pass  0.
 AX will form  47 AO Fock derivatives at one time.
 Integrals replicated using symmetry in FoFDir.
 MinBra= 0 MaxBra= 2 Meth= 1.
 IRaf=       0 NMat=  47 IRICut=       2 DoRegI=T DoRafI=T ISym2E= 2 JSym2E=2.
 Raff turned off since only 33.93% of shell-pairs survive.
    47 vectors were produced by pass  1.
    47 vectors were produced by pass  2.
    47 vectors were produced by pass  3.
    47 vectors were produced by pass  4.
    47 vectors were produced by pass  5.
    47 vectors were produced by pass  6.
    25 vectors were produced by pass  7.
     5 vectors were produced by pass  8.
 Inv2:  IOpt= 1 Iter= 1 AM= 3.16D-15 Conv= 1.00D-12.
 Inverted reduced A of dimension  359 with in-core refinement.
 Max diff in FC couplings:  IJMax=    22    17 Diff= 1.88D-02 IJMaxR=    36     2 DiffR= 1.88D+00
 Fermi Contact (FC) contribution to K (Hz):
                1             2             3             4             5
      1  0.000000D+00
      2  0.337924D+02  0.000000D+00
      3 -0.305489D+00  0.342801D+02  0.000000D+00
      4  0.267060D+01 -0.765058D+00  0.338357D+02  0.000000D+00
      5  0.128680D+01  0.398997D+01  0.615163D+00  0.373926D+02  0.000000D+00
      6  0.370499D+02 -0.417417D+00  0.333520D+01  0.501906D+00  0.344578D+02
      7  0.203089D+01 -0.190763D+00  0.120697D+01  0.957643D+00  0.180239D+02
      8  0.114330D+01  0.935496D-02  0.995616D-01  0.104501D+01  0.247066D+01
      9  0.976535D+00  0.153805D+01 -0.339450D+00  0.123821D+01  0.186992D+01
     10  0.808734D-01  0.434107D-01 -0.123395D+00  0.282427D-01  0.373066D+00
     11  0.127989D+00 -0.303112D-01  0.112448D+00  0.556041D-01  0.864238D+00
     12  0.225961D-01  0.246492D-01 -0.214340D-01  0.604348D-01 -0.147696D+00
     13  0.130645D-01  0.136759D-01 -0.117860D-01  0.507366D-01 -0.576057D-01
     14  0.834634D+00 -0.205697D+00  0.235085D+00 -0.505495D-01  0.106018D+01
     15 -0.219948D-01  0.960227D-02 -0.637237D-02  0.350893D-02 -0.454555D-01
     16  0.128072D-01  0.676370D-02  0.136618D-01  0.658949D-01 -0.113401D-01
     17 -0.404879D-02 -0.558568D-02  0.613662D-02 -0.773166D-02 -0.250029D-02
     18  0.203951D-01  0.634339D-03  0.140435D-02 -0.151528D-02  0.114392D-01
     19  0.817247D-01  0.169410D-02  0.735170D-02  0.453772D-01  0.737784D-01
     20  0.632887D+00 -0.469365D+00  0.431782D+00 -0.338286D+00  0.529997D+00
     21 -0.533815D-01  0.271718D-01  0.110315D-02  0.642782D-01  0.472752D-01
     22  0.221173D-02 -0.593996D-03  0.236079D-03  0.618975D-04  0.100761D-02
     23 -0.476940D-04 -0.540635D-03  0.957864D-03  0.209995D-02 -0.392308D-02
     24  0.871943D-02  0.496054D-02 -0.186593D-02  0.875976D-02 -0.130548D-01
     25 -0.744719D-01  0.266132D+00  0.255781D+00  0.318131D+01 -0.291459D+00
     26  0.503475D-02  0.601282D-03  0.931680D-03 -0.206341D-02  0.156539D-01
     27  0.318656D-02  0.193020D-02  0.243037D-02  0.616181D-02  0.123666D-01
     28  0.264531D-02 -0.122802D-02  0.171244D-02  0.130557D-01 -0.173662D-01
     29  0.154176D-01 -0.106475D-03  0.195380D-02  0.364413D-02 -0.286521D-01
     30  0.531025D-01  0.422956D-01  0.197741D-01  0.279279D-01  0.442573D+00
     31  0.204366D+02  0.310144D+00  0.101938D+01 -0.167803D+00  0.107513D+01
     32  0.486631D+00  0.209384D+02  0.466864D+00  0.104592D+01 -0.197018D+00
     33  0.119707D+01  0.451799D+00  0.207842D+02  0.564005D+00  0.132498D+01
     34 -0.166419D+00  0.106478D+01  0.398367D+00  0.225169D+02 -0.112259D+00
     35 -0.172807D-01  0.196980D-01 -0.211303D-01  0.163398D-01 -0.874187D-01
     36  0.151213D-01  0.200388D-04  0.169803D-03 -0.487935D-02  0.159287D+00
     37  0.115603D-02 -0.263623D-02  0.151300D-02 -0.205438D-02  0.115980D-01
     38  0.763600D-03  0.590087D-03 -0.598983D-03 -0.520397D-04  0.564385D-02
     39  0.110416D-02 -0.943414D-03  0.156408D-02  0.761563D-03  0.393051D-02
     40  0.159542D-02  0.343829D-03 -0.347115D-04  0.140714D-03  0.358907D-03
     41 -0.146247D-01  0.953488D-02 -0.772279D-02  0.625083D-02 -0.165597D-01
     42 -0.643173D-02  0.826906D-02 -0.359714D-02  0.763799D-02 -0.190724D-01
     43  0.152005D-01 -0.109175D-01  0.126748D-01 -0.754804D-02  0.156927D-01
     44  0.164905D-02  0.139449D-03 -0.133107D-02  0.936468D-03 -0.367093D-03
     45 -0.414809D-04 -0.601255D-05  0.198809D-03  0.488220D-04  0.886503D-03
     46 -0.393609D-03  0.155580D-03 -0.164371D-03  0.100841D-03 -0.183341D-03
     47 -0.139874D-03  0.115438D-03 -0.576696D-04  0.161799D-03  0.766636D-03
                6             7             8             9            10
      6  0.000000D+00
      7  0.586705D+01  0.000000D+00
      8  0.842693D+00  0.692201D+01  0.000000D+00
      9  0.226243D+02  0.129849D+01  0.174356D+02  0.000000D+00
     10  0.145647D+01  0.175978D+02  0.899896D+00  0.765000D+00  0.000000D+00
     11  0.273763D+00  0.101872D+02  0.592897D+00 -0.731509D-01  0.261811D+02
     12 -0.420793D-02 -0.670316D+00 -0.572312D+00  0.126983D+01  0.146385D+00
     13  0.890798D-01  0.310294D-01  0.167192D+02 -0.491817D+00  0.214910D+01
     14  0.540414D+00  0.558524D+00 -0.425963D-01  0.172003D+02  0.490859D-01
     15  0.434929D-01 -0.287810D-01  0.133271D+01 -0.481333D+00  0.218906D-01
     16 -0.349738D-01  0.115097D+01  0.253436D+00  0.104712D+01 -0.335309D-01
     17  0.948726D-01 -0.428540D-01  0.526827D+00  0.238850D-01 -0.119618D-02
     18 -0.286053D-01 -0.776176D-02 -0.864360D-01 -0.242042D-01 -0.943252D-03
     19  0.915330D+00 -0.282069D-01 -0.946127D-01  0.572478D+00 -0.590885D-02
     20 -0.174942D+00  0.880735D-01  0.584525D+00  0.161839D+02  0.542507D-01
     21  0.170453D+01 -0.678973D-01  0.102461D+00  0.762297D+00 -0.374825D-02
     22 -0.848881D-02  0.664521D-02 -0.373563D-01 -0.142354D-01  0.100684D-01
     23 -0.956229D-03 -0.175048D-01 -0.112990D-01 -0.259773D-02  0.351877D+00
     24  0.709587D-01 -0.327901D-01  0.161785D+00 -0.390863D-01  0.345714D+01
     25  0.877144D-01  0.241655D+01 -0.140921D+00 -0.151853D-01 -0.194493D+02
     26 -0.250959D-02 -0.519787D-01  0.760844D+00  0.181879D+00  0.196215D+00
     27  0.704231D-03  0.553702D-01  0.874273D+00 -0.428776D-01 -0.473101D-02
     28 -0.119785D-01  0.679630D+00 -0.730282D+00  0.622085D-01 -0.580076D-02
     29  0.315191D+00  0.561777D-01  0.877055D+00 -0.345907D-01  0.431261D-01
     30  0.488575D+00  0.544268D+00  0.187630D+02 -0.246860D+00 -0.815505D-02
     31  0.325788D+00  0.914199D-01 -0.127155D-01  0.327028D+00  0.420151D-01
     32  0.105777D+01  0.304298D-01  0.179246D-01  0.106663D+00 -0.978771D-02
     33 -0.186350D+00  0.249842D+00  0.253731D-01  0.514656D-01  0.440938D-02
     34  0.767433D+00  0.180538D+00 -0.196758D-01  0.597490D-01 -0.597564D-02
     35  0.224399D-01 -0.437693D-01 -0.269259D-01  0.171217D-03 -0.999512D+00
     36  0.232482D-01  0.905652D+00  0.633385D-01 -0.890104D-02 -0.661430D+00
     37 -0.387274D-01  0.340658D-01 -0.799866D-01  0.945697D+00  0.183016D-02
     38 -0.655100D-02  0.893986D-02 -0.380371D-01  0.168438D+00 -0.817410D-03
     39  0.603189D-01  0.140187D-01 -0.357728D-02 -0.268843D-02 -0.208811D-03
     40 -0.476843D-02 -0.409639D-03  0.459713D-02  0.469338D-01  0.224533D-02
     41  0.533029D-01 -0.169555D-01  0.569464D+00 -0.345676D+00  0.289801D-02
     42  0.384433D+00 -0.289246D-01  0.111778D+01 -0.329948D+00  0.106964D-01
     43 -0.200617D-01  0.716602D-02  0.109252D-01  0.602561D+00 -0.101229D-02
     44 -0.410374D-01  0.631854D-01  0.566177D-01  0.146362D-01 -0.345153D-03
     45  0.656093D-03 -0.971692D-03  0.135282D-01  0.128226D-02  0.839736D-02
     46  0.189545D-03 -0.652281D-03  0.233970D-02 -0.210663D-02  0.606911D-02
     47 -0.441376D-03  0.432392D-02  0.163135D-01 -0.238883D-02  0.872129D-03
               11            12            13            14            15
     11  0.000000D+00
     12  0.187889D+02  0.000000D+00
     13  0.486525D-03  0.184877D+02  0.000000D+00
     14 -0.146166D-01 -0.171016D+00  0.140997D+01  0.000000D+00
     15  0.128629D+00  0.186893D+01 -0.128048D-01  0.170409D+02  0.000000D+00
     16  0.158898D+01 -0.477790D+00  0.166700D+02 -0.113634D+01  0.164812D+02
     17 -0.187224D-01  0.761472D-02 -0.814823D+00  0.212154D+01 -0.420728D+00
     18 -0.932957D-02 -0.312984D-01  0.536784D+00 -0.252302D+00  0.333433D+01
     19  0.223745D-01 -0.863287D-02 -0.189074D+00  0.180613D+01 -0.247779D+00
     20 -0.143340D-01 -0.781849D-01  0.111438D+01  0.200152D+01  0.132940D+01
     21 -0.102356D-03  0.432415D-02  0.227027D-01  0.104007D+01  0.498364D+00
     22  0.187452D-01 -0.153968D+00  0.633210D+00 -0.136003D+00  0.139261D+01
     23  0.265062D+01 -0.101785D+01 -0.264573D+00 -0.634634D-02  0.352708D-01
     24  0.115500D+02 -0.260006D+02  0.132499D+01 -0.214203D-01  0.251352D-01
     25  0.344289D+01  0.870600D+00 -0.107499D-01  0.322121D-01 -0.374314D-02
     26 -0.127547D+00  0.189655D+02  0.202691D+00  0.191903D-01 -0.373756D-01
     27 -0.353753D-01  0.238967D+00 -0.632501D+00  0.823767D+00 -0.403598D+00
     28  0.820166D-01 -0.272869D-01  0.161734D+02 -0.392099D-01  0.470001D+00
     29 -0.250389D-02  0.552099D-01 -0.466902D-01  0.191434D+02 -0.137886D+00
     30 -0.642150D-02  0.758200D+00 -0.135163D+00  0.111572D+00 -0.178936D-01
     31  0.100605D-01  0.442560D-03 -0.330862D-04 -0.192332D-01 -0.822712D-03
     32  0.777939D-02 -0.342134D-02 -0.210307D-02  0.123059D-01 -0.687287D-03
     33 -0.377324D-02  0.199563D-02  0.195546D-02 -0.317094D-01  0.139398D-02
     34  0.354977D-01 -0.620649D-02 -0.282835D-02  0.383171D-01 -0.818320D-03
     35  0.163279D+02 -0.911517D+00  0.151885D-01  0.140714D-02  0.179095D-02
     36  0.177940D+02 -0.640940D-01  0.535126D+00  0.207551D-02  0.269432D-01
     37  0.413017D-01  0.185015D+00  0.102054D+01 -0.475027D+00  0.168785D+02
     38  0.188768D-02  0.183242D-01  0.474807D+00 -0.183386D+00  0.169019D+02
     39  0.211587D-02 -0.373885D-03  0.106911D-02  0.920750D+00  0.187252D+00
     40  0.195986D-02  0.246211D-03 -0.146786D+00 -0.344126D-01  0.102953D+00
     41  0.303974D-03  0.339706D-02  0.351306D-02  0.845011D+00  0.122902D+00
     42  0.284312D-02  0.287041D-01  0.991394D-01  0.114379D+00 -0.135735D-01
     43 -0.428776D-03  0.453673D-02 -0.128205D-03  0.788438D+00  0.282300D-01
     44 -0.244356D-03  0.343953D-02 -0.323369D-02 -0.326799D-01 -0.295155D-01
     45  0.157860D-01  0.207818D-01 -0.170175D+00  0.986053D-02  0.141591D+00
     46 -0.200415D-01  0.120242D+01 -0.434919D-01  0.106443D-01  0.135808D-01
     47 -0.452878D-01  0.802840D+00  0.272508D+00  0.106312D-01  0.402994D-02
               16            17            18            19            20
     16  0.000000D+00
     17  0.192969D+02  0.000000D+00
     18  0.108531D+01  0.212816D+02  0.000000D+00
     19  0.774830D+00  0.338793D+00  0.158675D+01  0.000000D+00
     20 -0.126954D+00 -0.366960D-01  0.122812D+01  0.886943D+00  0.000000D+00
     21 -0.495230D-01  0.416396D+00  0.682558D-01  0.200076D+01  0.168256D+02
     22  0.102284D+01  0.414495D+02  0.139236D+01  0.225612D+00 -0.193049D-01
     23  0.130717D+01 -0.233219D+00  0.253082D+01 -0.324326D+00 -0.161920D-02
     24 -0.152996D+00  0.100535D+01 -0.269050D+00  0.398058D-01  0.119742D-01
     25  0.631812D-01 -0.129361D-02 -0.254685D-02  0.458470D-02  0.300233D-01
     26  0.135963D+00 -0.363066D-02  0.440174D-02 -0.365521D-03  0.198556D-01
     27  0.168146D+02 -0.731978D+00  0.201286D+00 -0.107112D+00  0.917589D-01
     28 -0.530603D+00  0.984600D+00  0.526573D-01  0.261485D-01 -0.155790D-01
     29  0.838321D+00 -0.939160D-01  0.420261D+00  0.241936D+01  0.868919D-01
     30  0.231574D-01 -0.190498D-01  0.431092D-02  0.108824D-01  0.832743D+00
     31  0.350465D-02 -0.136798D-02  0.323441D-03 -0.685293D-02 -0.855549D-01
     32 -0.297325D-04  0.691357D-03  0.116684D-03  0.115587D-02  0.332021D-01
     33  0.264576D-02 -0.129025D-02  0.104031D-03  0.824456D-03 -0.751007D-01
     34 -0.173101D-02  0.945094D-03 -0.271473D-03  0.635519D-02  0.354361D-01
     35  0.117930D-01  0.856228D-02 -0.682055D-03  0.177305D-03  0.384538D-02
     36  0.193969D-01  0.151448D-02 -0.376916D-03 -0.151079D-02 -0.502962D-03
     37 -0.248425D+00  0.124653D+00  0.450168D-01  0.107464D+00  0.131647D-01
     38 -0.315350D+00  0.830043D+00  0.110724D+00  0.111330D+01 -0.351685D-01
     39  0.702370D+00 -0.186379D+00  0.178947D+02  0.410169D+00 -0.783639D-02
     40  0.147056D+00 -0.442869D+00  0.179445D+02  0.102615D+01  0.127250D+00
     41 -0.339586D-02 -0.970522D-02  0.556897D-01  0.154648D+01  0.175711D+02
     42  0.197913D-01  0.689947D-02 -0.335317D-01  0.146924D-01  0.170044D+02
     43  0.129991D-01 -0.129210D-01  0.712510D-01  0.253524D+01 -0.108441D+00
     44 -0.360841D-02  0.581226D-01  0.101139D+01 -0.605761D-01 -0.500807D+00
     45  0.117700D+01  0.351810D+00  0.840761D+00 -0.738850D-01  0.540835D-03
     46 -0.107516D-01  0.111076D+01  0.750990D-01  0.359063D-02 -0.208469D-03
     47 -0.113134D+00  0.571904D+00 -0.169933D+00  0.691905D-01 -0.149936D-02
               21            22            23            24            25
     21  0.000000D+00
     22 -0.130239D+00  0.000000D+00
     23 -0.117418D-01  0.238657D+02  0.000000D+00
     24 -0.183244D-01  0.125997D+01 -0.267025D+02  0.000000D+00
     25 -0.384022D-02 -0.377700D-02  0.112459D+00  0.749331D+00  0.000000D+00
     26 -0.176563D-02  0.393584D-01  0.406396D+00  0.727702D+00  0.919885D-02
     27  0.472553D-02  0.595214D+00 -0.159474D+00  0.286692D+00  0.429046D-02
     28  0.832152D-02 -0.288231D-01 -0.212394D-01  0.646435D+00  0.584690D-02
     29  0.157999D+00  0.754593D-01  0.101230D-02  0.204358D-01  0.734507D-02
     30  0.368316D-01  0.141490D-01 -0.320827D-02 -0.173263D-01  0.796645D-01
     31  0.921121D-02 -0.552646D-03  0.941919D-04 -0.125782D-03  0.431465D-02
     32  0.130353D-02 -0.760803D-04  0.137441D-03  0.158903D-02  0.424199D-02
     33  0.311889D-04 -0.971262D-04 -0.683040D-04  0.394712D-03  0.179041D-01
     34  0.699181D-02 -0.162383D-03  0.192933D-03 -0.347147D-03 -0.518251D-01
     35 -0.474705D-03 -0.120327D-01  0.228898D-01  0.210684D+01  0.306333D+00
     36  0.287552D-03 -0.662072D-02 -0.128685D-01  0.278349D+00  0.347906D+00
     37 -0.259086D-01 -0.462389D-01  0.297616D-02 -0.135376D-02  0.143030D-02
     38  0.313952D-01  0.955905D-01  0.243298D-01 -0.439348D-02  0.334227D-03
     39  0.476681D+00  0.683408D+00 -0.382502D-01  0.310373D-01  0.135374D-03
     40  0.123930D+01  0.744148D+00 -0.153583D+00  0.218587D+00  0.100116D-02
     41  0.174526D+00  0.445573D-02 -0.223438D-02  0.213076D-02  0.503570D-03
     42 -0.477831D+00  0.249207D-02 -0.943687D-03  0.157243D-03  0.196557D-02
     43  0.189423D+02  0.277609D-01  0.907142D-02  0.110455D-02  0.520265D-03
     44  0.168423D+02  0.570488D-01  0.181929D-01  0.309489D-02  0.116068D-02
     45 -0.153214D-02  0.207073D+02  0.115153D+01  0.342181D+00  0.187647D-02
     46 -0.137471D-02 -0.349666D+00  0.188989D+02  0.331850D+01  0.338452D-02
     47  0.217775D-02 -0.314601D+00  0.175258D+02  0.550828D+00 -0.276702D-02
               26            27            28            29            30
     26  0.000000D+00
     27 -0.790721D-02  0.000000D+00
     28  0.113082D+00  0.116086D+00  0.000000D+00
     29 -0.508782D-03  0.184516D-01  0.687221D-02  0.000000D+00
     30 -0.322643D-02 -0.205347D-01  0.345408D+00 -0.960460D-02  0.000000D+00
     31  0.467860D-04  0.704418D-03 -0.149073D-03 -0.115881D-01  0.226898D-02
     32  0.308882D-03 -0.639284D-04  0.296941D-04  0.761088D-03  0.174196D-02
     33 -0.113825D-03  0.564091D-03  0.236203D-03  0.909764D-03  0.137053D-02
     34  0.119435D-03 -0.611921D-04 -0.236417D-03 -0.359368D-03  0.806988D-03
     35  0.111418D+00  0.148437D-01  0.995531D-02  0.138342D-02 -0.432106D-02
     36  0.303862D+00 -0.352181D-03 -0.109865D-01 -0.925481D-05  0.147436D-03
     37 -0.339644D-02  0.163687D+00  0.140051D-01  0.140167D+00 -0.113418D-02
     38  0.495696D-03  0.656684D-01 -0.103260D-01  0.693033D-01 -0.391362D-03
     39  0.106639D-03 -0.170168D-01  0.182519D-01 -0.122684D-01 -0.829489D-03
     40 -0.560401D-04 -0.632064D-01 -0.681638D-03  0.251594D-01 -0.167208D-02
     41  0.112040D-02 -0.430762D-03  0.969191D-03 -0.587836D-02 -0.116298D-01
     42  0.756560D-02 -0.129001D-02 -0.527189D-03  0.132540D-02  0.885687D-02
     43  0.137367D-02  0.177594D-02  0.105820D-02 -0.164586D-01 -0.191222D-02
     44  0.105698D-02  0.143560D-02 -0.191310D-03  0.390564D-02 -0.901505D-02
     45  0.208737D-03 -0.108266D+00  0.359998D-02 -0.115606D-02 -0.168567D-02
     46 -0.329749D-02  0.493086D-02  0.579255D-02 -0.825371D-03 -0.529541D-04
     47 -0.235500D-02  0.506623D-01  0.182966D-03 -0.536042D-03  0.140093D-02
               31            32            33            34            35
     31  0.000000D+00
     32  0.266447D+00  0.000000D+00
     33  0.399953D-01  0.261911D+00  0.000000D+00
     34  0.198048D-01  0.348565D-01  0.288157D+00  0.000000D+00
     35  0.127474D-02 -0.343241D-02  0.164239D-02 -0.387824D-02  0.000000D+00
     36  0.961764D-03  0.134363D-03  0.390770D-03  0.328963D-03 -0.601507D+00
     37 -0.141635D-03  0.822805D-04 -0.286416D-03  0.342491D-03 -0.648103D-03
     38  0.159708D-03 -0.640042D-04  0.980579D-04 -0.521407D-04 -0.136153D-03
     39 -0.183415D-03  0.902088D-04 -0.138451D-03  0.469681D-03  0.509340D-03
     40  0.263487D-03  0.000000D+00  0.659476D-04 -0.623562D-04  0.124338D-02
     41  0.199901D-02 -0.771549D-03  0.144443D-02 -0.815276D-03 -0.174182D-03
     42 -0.659114D-03 -0.277986D-03  0.105506D-02 -0.539860D-04 -0.320912D-03
     43 -0.174374D-02  0.103827D-02 -0.231637D-02  0.806693D-03  0.726550D-04
     44 -0.230946D-04 -0.298196D-03  0.277947D-03 -0.289356D-03  0.624809D-04
     45  0.290436D-04  0.176151D-04  0.000000D+00  0.886074D-05  0.254372D-02
     46  0.189931D-04 -0.391307D-04  0.193650D-04 -0.221487D-04  0.640684D-03
     47  0.134794D-04 -0.578949D-04  0.154694D-04 -0.408639D-04 -0.843203D-02
               36            37            38            39            40
     36  0.000000D+00
     37  0.561906D-02  0.000000D+00
     38  0.494958D-03 -0.481200D+00  0.000000D+00
     39 -0.528675D-04  0.402773D-02 -0.169662D-02  0.000000D+00
     40  0.217443D-03 -0.142528D-02  0.114674D-01 -0.518542D+00  0.000000D+00
     41 -0.188146D-04  0.269878D-01  0.241688D-02 -0.217424D-02  0.467074D-02
     42 -0.865304D-04 -0.633379D-03 -0.396760D-04  0.176528D-03  0.120480D-02
     43  0.259925D-05  0.258960D-02  0.226235D-01 -0.814427D-02 -0.881522D-02
     44 -0.112995D-04 -0.140066D-03 -0.579996D-03 -0.131222D-02 -0.156880D-01
     45 -0.136451D-03 -0.348584D-03  0.280437D-01 -0.200598D-01 -0.593221D-01
     46  0.181483D-02  0.156327D-03 -0.599687D-03 -0.243737D-02  0.803701D-03
     47 -0.640565D-03 -0.119554D-02 -0.214132D-02  0.116286D-01  0.767433D-01
               41            42            43            44            45
     41  0.000000D+00
     42 -0.432677D+00  0.000000D+00
     43  0.160463D-01  0.267901D+00  0.000000D+00
     44  0.213362D+00  0.427953D+00 -0.317506D+00  0.000000D+00
     45 -0.664153D-03  0.520894D-04  0.268976D-02  0.339635D-02  0.000000D+00
     46  0.971065D-04 -0.525578D-04  0.744838D-03  0.107652D-02  0.246555D+00
     47  0.102611D-02  0.513131D-03 -0.116888D-02 -0.166204D-02  0.209809D+00
               46            47
     46  0.000000D+00
     47 -0.471293D+00  0.000000D+00
 Fermi Contact (FC) contribution to J (Hz):
                1             2             3             4             5
      1  0.000000D+00
      2  0.666901D+02  0.000000D+00
      3 -0.602891D+00  0.676526D+02  0.000000D+00
      4  0.527050D+01 -0.150986D+01  0.667756D+02  0.000000D+00
      5  0.253952D+01  0.787431D+01  0.121404D+01  0.737952D+02  0.000000D+00
      6  0.731188D+02 -0.823783D+00  0.658210D+01  0.990524D+00  0.680033D+02
      7  0.115195D+01 -0.108203D+00  0.684610D+00  0.543187D+00  0.102234D+02
      8  0.225634D+01  0.184622D-01  0.196487D+00  0.206236D+01  0.487591D+01
      9  0.192722D+01  0.303539D+01 -0.669913D+00  0.244364D+01  0.369033D+01
     10  0.159606D+00  0.856721D-01 -0.243524D+00  0.557377D-01  0.736256D+00
     11  0.252589D+00 -0.598199D-01  0.221919D+00  0.109736D+00  0.170559D+01
     12  0.445940D-01  0.486458D-01 -0.423005D-01  0.119270D+00 -0.291482D+00
     13  0.257831D-01  0.269896D-01 -0.232599D-01  0.100130D+00 -0.113686D+00
     14  0.164717D+01 -0.405948D+00  0.463946D+00 -0.997607D-01  0.209229D+01
     15 -0.434074D-01  0.189503D-01 -0.125760D-01  0.692497D-02 -0.897075D-01
     16  0.252753D-01  0.133483D-01  0.269619D-01  0.130045D+00 -0.223800D-01
     17 -0.799038D-02 -0.110235D-01  0.121108D-01 -0.152586D-01 -0.493438D-02
     18  0.402503D-01  0.125188D-02  0.277151D-02 -0.299043D-02  0.225755D-01
     19  0.463552D-01  0.960914D-03  0.416997D-02  0.257385D-01  0.418480D-01
     20  0.124902D+01 -0.926304D+00  0.852133D+00 -0.667615D+00  0.104596D+01
     21 -0.105350D+00  0.536242D-01  0.217710D-02  0.126855D+00  0.932989D-01
     22  0.436490D-02 -0.117227D-02  0.465907D-03  0.122156D-03  0.198854D-02
     23 -0.941254D-04 -0.106696D-02  0.189037D-02  0.414430D-02 -0.774229D-02
     24 -0.927905D-02 -0.527891D-02  0.198568D-02 -0.932197D-02  0.138926D-01
     25  0.792516D-01 -0.283213D+00 -0.272197D+00 -0.338549D+01  0.310165D+00
     26  0.395072D-01  0.471820D-02  0.731080D-02 -0.161913D-01  0.122835D+00
     27  0.250046D-01  0.151461D-01  0.190709D-01  0.483512D-01  0.970394D-01
     28  0.207575D-01 -0.963613D-02  0.134373D-01  0.102447D+00 -0.136271D+00
     29  0.120980D+00 -0.835498D-03  0.153313D-01  0.285951D-01 -0.224830D+00
     30  0.416690D+00  0.331890D+00  0.155166D+00  0.219147D+00  0.347283D+01
     31  0.160364D+03  0.243367D+01  0.799895D+01 -0.131674D+01  0.843641D+01
     32  0.381855D+01  0.164301D+03  0.366343D+01  0.820720D+01 -0.154598D+01
     33  0.939330D+01  0.354522D+01  0.163092D+03  0.442569D+01  0.103970D+02
     34 -0.130588D+01  0.835526D+01  0.312595D+01  0.176688D+03 -0.880883D+00
     35 -0.135600D+00  0.154568D+00 -0.165807D+00  0.128217D+00 -0.685966D+00
     36  0.118655D+00  0.157243D-03  0.133243D-02 -0.382878D-01  0.124991D+01
     37  0.907126D-02 -0.206863D-01  0.118723D-01 -0.161206D-01  0.910084D-01
     38  0.599190D-02  0.463035D-02 -0.470016D-02 -0.408350D-03  0.442867D-01
     39  0.866427D-02 -0.740288D-02  0.122732D-01  0.597591D-02  0.308424D-01
     40  0.125191D-01  0.269799D-02 -0.272378D-03  0.110417D-02  0.281631D-02
     41 -0.114759D+00  0.748193D-01 -0.606000D-01  0.490497D-01 -0.129942D+00
     42 -0.504692D-01  0.648865D-01 -0.282264D-01  0.599346D-01 -0.149660D+00
     43  0.119277D+00 -0.856689D-01  0.994581D-01 -0.592287D-01  0.123139D+00
     44  0.129399D-01  0.109424D-02 -0.104448D-01  0.734838D-02 -0.288054D-02
     45 -0.325496D-03 -0.471799D-04  0.156004D-02  0.383102D-03  0.695630D-02
     46 -0.308861D-02  0.122082D-02 -0.128980D-02  0.791292D-03 -0.143866D-02
     47 -0.109758D-02  0.905830D-03 -0.452528D-03  0.126962D-02  0.601571D-02
                6             7             8             9            10
      6  0.000000D+00
      7  0.332786D+01  0.000000D+00
      8  0.166308D+01  0.392625D+01  0.000000D+00
      9  0.446496D+02  0.736522D+00  0.344096D+02  0.000000D+00
     10  0.287438D+01  0.998168D+01  0.177597D+01  0.150975D+01  0.000000D+00
     11  0.540279D+00  0.577833D+01  0.117010D+01 -0.144365D+00  0.516690D+02
     12 -0.830446D-02 -0.380211D+00 -0.112947D+01  0.250604D+01  0.288894D+00
     13  0.175801D+00  0.176002D-01  0.329958D+02 -0.970612D+00  0.424130D+01
     14  0.106652D+01  0.316802D+00 -0.840649D-01  0.339453D+02  0.968722D-01
     15  0.858344D-01 -0.163250D-01  0.263013D+01 -0.949922D+00  0.432016D-01
     16 -0.690217D-01  0.652846D+00  0.500162D+00  0.206652D+01 -0.661741D-01
     17  0.187233D+00 -0.243073D-01  0.103971D+01  0.471377D-01 -0.236070D-02
     18 -0.564532D-01 -0.440257D-02 -0.170584D+00 -0.477675D-01 -0.186153D-02
     19  0.519187D+00 -0.459838D-02 -0.536655D-01  0.324716D+00 -0.335157D-02
     20 -0.345253D+00  0.499564D-01  0.115357D+01  0.319392D+02  0.107065D+00
     21  0.336393D+01 -0.385122D-01  0.202209D+00  0.150441D+01 -0.739726D-02
     22 -0.167529D-01  0.376924D-02 -0.737236D-01 -0.280940D-01  0.198702D-01
     23 -0.188714D-02 -0.992891D-02 -0.222990D-01 -0.512669D-02  0.694439D+00
     24 -0.755129D-01  0.100291D-01 -0.172169D+00  0.415949D-01 -0.367902D+01
     25 -0.933440D-01 -0.739118D+00  0.149966D+00  0.161599D-01  0.206976D+02
     26 -0.196925D-01 -0.117227D+00  0.597027D+01  0.142719D+01  0.153968D+01
     27  0.552603D-02  0.124876D+00  0.686034D+01 -0.336457D+00 -0.371237D-01
     28 -0.939938D-01  0.153276D+01 -0.573045D+01  0.488144D+00 -0.455180D-01
     29  0.247327D+01  0.126697D+00  0.688216D+01 -0.271430D+00  0.338406D+00
     30  0.383380D+01  0.122748D+01  0.147231D+03 -0.193709D+01 -0.639919D-01
     31  0.255643D+01  0.206178D+00 -0.997773D-01  0.256616D+01  0.329688D+00
     32  0.830020D+01  0.686280D-01  0.140653D+00  0.836973D+00 -0.768032D-01
     33 -0.146227D+01  0.563466D+00  0.199100D+00  0.403846D+00  0.346000D-01
     34  0.602197D+01  0.407165D+00 -0.154394D+00  0.468845D+00 -0.468902D-01
     35  0.176084D+00 -0.987122D-01 -0.211285D+00  0.134353D-02 -0.784308D+01
     36  0.182427D+00  0.204250D+01  0.497011D+00 -0.698456D-01 -0.519018D+01
     37 -0.303890D+00  0.768281D-01 -0.627647D+00  0.742079D+01  0.143611D-01
     38 -0.514051D-01  0.201619D-01 -0.298473D+00  0.132172D+01 -0.641414D-02
     39  0.473316D+00  0.316162D-01 -0.280706D-01 -0.210959D-01 -0.163852D-02
     40 -0.374174D-01 -0.923853D-03  0.360732D-01  0.368285D+00  0.176189D-01
     41  0.418263D+00 -0.382394D-01  0.446853D+01 -0.271249D+01  0.227404D-01
     42  0.301661D+01 -0.652331D-01  0.877111D+01 -0.258907D+01  0.839339D-01
     43 -0.157422D+00  0.161614D-01  0.857287D-01  0.472824D+01 -0.794336D-02
     44 -0.322017D+00  0.142501D+00  0.444274D+00  0.114849D+00 -0.270838D-02
     45  0.514830D-02 -0.219144D-02  0.106154D+00  0.100618D-01  0.658932D-01
     46  0.148734D-02 -0.147108D-02  0.183594D-01 -0.165305D-01  0.476237D-01
     47 -0.346343D-02  0.975168D-02  0.128011D+00 -0.187449D-01  0.684351D-02
               11            12            13            14            15
     11  0.000000D+00
     12  0.370804D+02  0.000000D+00
     13  0.960169D-03  0.364860D+02  0.000000D+00
     14 -0.288462D-01 -0.337504D+00  0.278262D+01  0.000000D+00
     15  0.253852D+00  0.368837D+01 -0.252707D-01  0.336306D+02  0.000000D+00
     16  0.313589D+01 -0.942931D+00  0.328986D+02 -0.224259D+01  0.325260D+02
     17 -0.369491D-01  0.150278D-01 -0.160807D+01  0.418692D+01 -0.830317D+00
     18 -0.184121D-01 -0.617682D-01  0.105936D+01 -0.497925D+00  0.658038D+01
[...]
     9  C   -0.000160  -0.000255   0.000607  -0.005670  -0.030789  -0.020185
    10  C    0.745533  -0.000404  -0.000038   0.003316   0.000009  -0.006573
    11  C   -0.064830  -0.026396  -0.000001  -0.008009  -0.000001   0.000017
    12  C    0.003391   0.349470  -0.007316  -0.015213   0.000030  -0.015958
    13  C   -0.001696  -0.037334  -0.012640   0.321562   0.000480  -0.051498
    14  C    0.000001   0.000003   0.005071  -0.002082   0.351739   0.002657
    15  C    0.000000  -0.000173  -0.017670  -0.007742  -0.028169   0.000955
    16  C   -0.000015  -0.010614   0.324302  -0.023054   0.005557  -0.004271
    17  C    0.000000  -0.000092  -0.016799   0.009174   0.000632   0.003390
    18  C    0.000000  -0.000022   0.004945  -0.000550   0.002051  -0.001169
    19  N    0.000000   0.000003   0.000071   0.000085  -0.025444  -0.000674
    20  C    0.000001   0.000005  -0.000005  -0.000190  -0.003550  -0.009868
    21  C    0.000000  -0.000002   0.000060  -0.000029   0.001725  -0.000163
    22  C    0.000000  -0.002900  -0.017187  -0.000004   0.000040  -0.000353
    23  C    0.000001  -0.010979   0.003321  -0.000359  -0.000002  -0.000653
    24  O   -0.000005  -0.038297  -0.001323   0.004015   0.000000   0.019830
    25  O    7.616571   0.000003   0.000000  -0.000221   0.000000   0.000012
    26  H    0.000003   0.768852   0.005902  -0.006077  -0.000001   0.002193
    27  H    0.000000   0.005902   0.749985  -0.010913  -0.000432  -0.000262
    28  H   -0.000221  -0.006077  -0.010913   0.765905  -0.000206   0.012402
    29  H    0.000000  -0.000001  -0.000432  -0.000206   0.748987  -0.000544
    30  H    0.000012   0.002193  -0.000262   0.012402  -0.000544   0.731953
    31  H    0.000000   0.000000   0.000000   0.000006   0.005249  -0.000001
    32  H    0.000000   0.000000   0.000000   0.000000   0.000022   0.000000
    33  H   -0.000015   0.000000   0.000000  -0.000001   0.000000   0.000000
    34  H    0.028830   0.000002   0.000000   0.000017   0.000000  -0.000004
    35  H   -0.000325   0.008436   0.000019  -0.000343   0.000000   0.002420
    36  H    0.007736  -0.015080  -0.000020   0.000701   0.000000   0.000006
    37  H    0.000000  -0.000004  -0.007036   0.000897  -0.009726   0.000145
    38  H    0.000000  -0.000015  -0.002395   0.005109  -0.000574  -0.000196
    39  H    0.000000   0.000000  -0.000276   0.000021  -0.000439  -0.000021
    40  H    0.000000   0.000002   0.000498   0.000017   0.001252   0.000000
    41  H    0.000001   0.000000  -0.000001  -0.000003  -0.000114   0.002299
    42  H    0.000000   0.000000  -0.000002   0.000014  -0.000586   0.000582
    43  H    0.000000   0.000000   0.000002   0.000002   0.000677  -0.000551
    44  H    0.000000  -0.000008   0.000067  -0.000013  -0.001310   0.005487
    45  H    0.000000   0.000018  -0.000338   0.000037   0.000000   0.000215
    46  H    0.000000   0.001100  -0.000040   0.000045   0.000000   0.000143
    47  H    0.000000   0.018773   0.005302   0.000051   0.000000   0.000515
             31         32         33         34         35         36
     1  C    0.378702  -0.044943   0.010393  -0.000298   0.000000   0.000000
     2  C   -0.056206   0.385227  -0.053149   0.008865   0.000000   0.000000
     3  C    0.010116  -0.051801   0.386960  -0.051929   0.000000  -0.000002
     4  C   -0.000665   0.010061  -0.045115   0.369093  -0.000019  -0.000055
     5  C    0.014364  -0.000028   0.009884  -0.019442  -0.000044   0.000092
     6  C   -0.037890   0.010208   0.000183   0.011577  -0.000019   0.000036
     7  N   -0.000169   0.000008  -0.000119  -0.009766  -0.002744   0.006385
     8  C    0.000121   0.000011   0.000011  -0.000520   0.005554  -0.001366
     9  C   -0.018681  -0.000333   0.000017  -0.000415   0.000215  -0.000009
    10  C    0.000009   0.000001  -0.000014  -0.001260   0.001941  -0.002734
    11  C    0.000000   0.000000  -0.000001   0.000770   0.322372   0.332844
    12  C    0.000000   0.000000   0.000000  -0.000064  -0.008254  -0.007993
    13  C   -0.000031   0.000000   0.000000   0.000076  -0.006991   0.005644
    14  C    0.000907  -0.000003   0.000000   0.000004   0.000006   0.000000
    15  C   -0.000123   0.000000   0.000000   0.000000   0.000004   0.000007
    16  C    0.000000   0.000000   0.000000   0.000000  -0.000286  -0.000098
    17  C   -0.000002   0.000000   0.000000   0.000000  -0.000069  -0.000001
    18  C   -0.000002   0.000000   0.000000   0.000000  -0.000002   0.000000
    19  N   -0.000219   0.000000   0.000000   0.000000   0.000000   0.000000
    20  C   -0.000139   0.000003   0.000000   0.000012  -0.000011   0.000000
    21  C   -0.000215   0.000000   0.000000   0.000000  -0.000006   0.000000
    22  C    0.000000   0.000000   0.000000   0.000000   0.000076   0.000019
    23  C    0.000000   0.000000   0.000000   0.000000   0.000194  -0.000109
    24  O    0.000000   0.000000   0.000000   0.000000   0.010054   0.001243
    25  O    0.000000   0.000000  -0.000015   0.028830  -0.000325   0.007736
    26  H    0.000000   0.000000   0.000000   0.000002   0.008436  -0.015080
    27  H    0.000000   0.000000   0.000000   0.000000   0.000019  -0.000020
    28  H    0.000006   0.000000  -0.000001   0.000017  -0.000343   0.000701
    29  H    0.005249   0.000022   0.000000   0.000000   0.000000   0.000000
    30  H   -0.000001   0.000000   0.000000  -0.000004   0.002420   0.000006
    31  H    0.763297  -0.015289  -0.000297   0.000042   0.000000   0.000000
    32  H   -0.015289   0.758778  -0.015838  -0.000165   0.000000   0.000000
    33  H   -0.000297  -0.015838   0.751785  -0.014922   0.000000   0.000000
    34  H    0.000042  -0.000165  -0.014922   0.693754  -0.000028   0.000033
    35  H    0.000000   0.000000   0.000000  -0.000028   0.637011  -0.023006
    36  H    0.000000   0.000000   0.000000   0.000033  -0.023006   0.667511
    37  H    0.000018   0.000000   0.000000   0.000000   0.000000   0.000000
    38  H    0.000024  -0.000001   0.000000   0.000000  -0.000001   0.000002
    39  H    0.000000   0.000000   0.000000   0.000000   0.000000   0.000000
    40  H    0.000003   0.000000   0.000000   0.000000   0.000000   0.000000
    41  H   -0.000009   0.000000   0.000000   0.000003  -0.000008  -0.000001
    42  H    0.002285   0.000010   0.000000   0.000001   0.000000   0.000000
    43  H    0.000013   0.000000   0.000000   0.000000   0.000000   0.000000
    44  H   -0.000006   0.000000   0.000000   0.000000   0.000005   0.000000
    45  H    0.000000   0.000000   0.000000   0.000000   0.000009   0.000000
    46  H    0.000000   0.000000   0.000000   0.000000  -0.000224   0.000022
    47  H    0.000000   0.000000   0.000000   0.000000   0.000522  -0.000033
             37         38         39         40         41         42
     1  C   -0.000100   0.001847   0.000000   0.000005  -0.000879   0.007411
     2  C    0.000000  -0.000028   0.000000   0.000000  -0.000006  -0.000255
     3  C    0.000000  -0.000023   0.000000   0.000000  -0.000015   0.000008
     4  C    0.000001  -0.000070   0.000000   0.000000  -0.000007  -0.000160
     5  C    0.000051  -0.000935   0.000000  -0.000004   0.003720  -0.001613
     6  C   -0.000125   0.004998   0.000009   0.000039  -0.000711  -0.002552
     7  N    0.000002  -0.000261  -0.000001   0.000000   0.000750   0.000100
     8  C    0.000979  -0.005546  -0.000115   0.000053  -0.008770   0.006501
     9  C    0.006709  -0.009239  -0.000553   0.000472  -0.010837  -0.018961
    10  C    0.000000  -0.000057   0.000000   0.000000  -0.000185   0.000031
    11  C    0.000012  -0.000026   0.000000   0.000000   0.000037  -0.000002
    12  C   -0.000415   0.001262  -0.000014  -0.000001  -0.000055   0.000009
    13  C    0.005140  -0.002956  -0.000152  -0.000162   0.000893  -0.000429
    14  C   -0.004027  -0.010463   0.010194  -0.016229   0.008232   0.001763
    15  C    0.332491   0.352139  -0.001766   0.014132  -0.000482   0.000750
    16  C    0.001247  -0.018364   0.012072  -0.019745   0.000020  -0.000042
    17  C   -0.016280   0.008485  -0.012353  -0.011233   0.000033  -0.000024
    18  C    0.015332  -0.001064   0.356392   0.340835  -0.000253  -0.000055
    19  N   -0.008563   0.005363  -0.018208  -0.016356   0.003812  -0.002202
    20  C   -0.000351   0.000397   0.001053  -0.001018   0.357937   0.344535
    21  C   -0.000346  -0.000163  -0.008437   0.007736  -0.015133  -0.012169
    22  C   -0.000115  -0.000252  -0.019973   0.005603   0.000017  -0.000010
    23  C    0.000036  -0.000023   0.000140  -0.000496  -0.000001   0.000000
    24  O    0.000005  -0.000001   0.000008  -0.000007  -0.000010   0.000000
    25  O    0.000000   0.000000   0.000000   0.000000   0.000001   0.000000
    26  H   -0.000004  -0.000015   0.000000   0.000002   0.000000   0.000000
    27  H   -0.007036  -0.002395  -0.000276   0.000498  -0.000001  -0.000002
    28  H    0.000897   0.005109   0.000021   0.000017  -0.000003   0.000014
    29  H   -0.009726  -0.000574  -0.000439   0.001252  -0.000114  -0.000586
    30  H    0.000145  -0.000196  -0.000021   0.000000   0.002299   0.000582
    31  H    0.000018   0.000024   0.000000   0.000003  -0.000009   0.002285
    32  H    0.000000  -0.000001   0.000000   0.000000   0.000000   0.000010
    33  H    0.000000   0.000000   0.000000   0.000000   0.000000   0.000000
    34  H    0.000000   0.000000   0.000000   0.000000   0.000003   0.000001
    35  H    0.000000  -0.000001   0.000000   0.000000  -0.000008   0.000000
    36  H    0.000000   0.000002   0.000000   0.000000  -0.000001   0.000000
    37  H    0.731565  -0.043838   0.000428  -0.004932   0.000020   0.000028
    38  H   -0.043838   0.714008  -0.000030   0.000808  -0.000003  -0.000049
    39  H    0.000428  -0.000030   0.716754  -0.042103   0.000011  -0.000024
    40  H   -0.004932   0.000808  -0.042103   0.724986   0.000012   0.000013
    41  H    0.000020  -0.000003   0.000011   0.000012   0.700174  -0.040943
    42  H    0.000028  -0.000049  -0.000024   0.000013  -0.040943   0.713679
    43  H   -0.000040   0.000029   0.002678  -0.000054   0.005065  -0.016006
    44  H    0.000065  -0.000028  -0.001788   0.000181  -0.012715   0.010355
    45  H   -0.000012   0.000019   0.008341   0.000668   0.000000   0.000000
    46  H    0.000000   0.000000   0.000003   0.000010   0.000000   0.000000
    47  H   -0.000009   0.000004  -0.000024   0.000080   0.000000   0.000000
             43         44         45         46         47
     1  C   -0.000016  -0.000026   0.000000   0.000000   0.000000
     2  C    0.000001  -0.000001   0.000000   0.000000   0.000000
     3  C    0.000000   0.000000   0.000000   0.000000   0.000000
     4  C    0.000000   0.000000   0.000000   0.000000   0.000000
     5  C    0.000020  -0.000039   0.000000   0.000000   0.000001
     6  C   -0.000392   0.000297   0.000001   0.000000  -0.000001
     7  N   -0.000011   0.000155   0.000001   0.000000   0.000007
     8  C    0.000100   0.000655   0.000007  -0.000023   0.000494
     9  C    0.002322  -0.001328   0.000003   0.000000  -0.000011
    10  C   -0.000001   0.000018  -0.000002   0.000004  -0.000049
    11  C    0.000000  -0.000017   0.000036  -0.000689   0.000733
    12  C    0.000000   0.000044   0.000267   0.003915  -0.003823
    13  C    0.000026  -0.001352  -0.000946   0.000098  -0.008677
    14  C    0.005792   0.000023   0.000030   0.000000  -0.000002
    15  C   -0.000645   0.001556  -0.000382  -0.000006  -0.000064
    16  C   -0.000030   0.000230   0.010995  -0.000505   0.005899
    17  C   -0.001164   0.013833  -0.012604   0.009501  -0.023877
    18  C    0.000325  -0.011003  -0.019324  -0.000241  -0.000234
    19  N   -0.024316  -0.042561   0.000470   0.000008  -0.000010
    20  C   -0.006000  -0.016957  -0.000019  -0.000001  -0.000001
    21  C    0.363519   0.349948  -0.000184   0.000005  -0.000006
    22  C    0.000112   0.003259   0.356742  -0.021533  -0.020668
    23  C   -0.000002   0.000045  -0.052565   0.367383   0.345554
    24  O    0.000000  -0.000297   0.003033  -0.021166  -0.031574
    25  O    0.000000   0.000000   0.000000   0.000000   0.000000
    26  H    0.000000  -0.000008   0.000018   0.001100   0.018773
    27  H    0.000002   0.000067  -0.000338  -0.000040   0.005302
    28  H    0.000002  -0.000013   0.000037   0.000045   0.000051
    29  H    0.000677  -0.001310   0.000000   0.000000   0.000000
    30  H   -0.000551   0.005487   0.000215   0.000143   0.000515
    31  H    0.000013  -0.000006   0.000000   0.000000   0.000000
    32  H    0.000000   0.000000   0.000000   0.000000   0.000000
    33  H    0.000000   0.000000   0.000000   0.000000   0.000000
    34  H    0.000000   0.000000   0.000000   0.000000   0.000000
    35  H    0.000000   0.000005   0.000009  -0.000224   0.000522
    36  H    0.000000   0.000000   0.000000   0.000022  -0.000033
    37  H   -0.000040   0.000065  -0.000012   0.000000  -0.000009
    38  H    0.000029  -0.000028   0.000019   0.000000   0.000004
    39  H    0.002678  -0.001788   0.008341   0.000003  -0.000024
    40  H   -0.000054   0.000181   0.000668   0.000010   0.000080
    41  H    0.005065  -0.012715   0.000000   0.000000   0.000000
    42  H   -0.016006   0.010355   0.000000   0.000000   0.000000
    43  H    0.722886  -0.060664  -0.000015   0.000000   0.000000
    44  H   -0.060664   0.762563   0.000143  -0.000069   0.000024
    45  H   -0.000015   0.000143   0.744461  -0.013892   0.009007
    46  H    0.000000  -0.000069  -0.013892   0.702467  -0.039635
    47  H    0.000000   0.000024   0.009007  -0.039635   0.734749
 Mulliken atomic charges:
              1
     1  C   -0.027005
     2  C    0.047464
     3  C    0.048985
     4  C    0.031715
     5  C    0.135569
     6  C    0.054816
     7  N   -0.250009
     8  C    0.135324
     9  C   -0.248268
    10  C    0.099942
    11  C    0.099648
    12  C    0.117254
    13  C    0.018813
    14  C    0.131173
    15  C    0.105090
    16  C   -0.040447
    17  C   -0.075202
    18  C    0.200032
    19  N   -0.310352
    20  C    0.092485
    21  C    0.132797
    22  C   -0.070111
    23  C    0.226535
    24  O   -0.321570
    25  O   -0.255853
    26  H   -0.014861
    27  H   -0.013908
    28  H   -0.009443
    29  H   -0.017508
    30  H   -0.005430
    31  H   -0.045214
    32  H   -0.035929
    33  H   -0.029762
    34  H   -0.014266
    35  H    0.053541
    36  H    0.028226
    37  H    0.000751
    38  H    0.002104
    39  H   -0.001828
    40  H    0.014933
    41  H    0.008106
    42  H    0.008009
    43  H    0.006336
    44  H    0.001229
    45  H   -0.034217
    46  H    0.013321
    47  H    0.006983
 Sum of Mulliken charges=   0.00000
 Atomic charges with hydrogens summed into heavy atoms:
              1
     1  C   -0.072219
     2  C    0.011536
     3  C    0.019222
     4  C    0.017449
     5  C    0.135569
     6  C    0.054816
     7  N   -0.250009
     8  C    0.129894
     9  C   -0.248268
    10  C    0.099942
    11  C    0.181415
    12  C    0.102393
    13  C    0.009371
    14  C    0.113665
    15  C    0.107945
    16  C   -0.054355
    17  C   -0.075202
    18  C    0.213137
    19  N   -0.310352
    20  C    0.108601
    21  C    0.140362
    22  C   -0.104327
    23  C    0.246839
    24  O   -0.321570
    25  O   -0.255853
    26  H    0.000000
    27  H    0.000000
    28  H    0.000000
    29  H    0.000000
    30  H    0.000000
    31  H    0.000000
    32  H    0.000000
    33  H    0.000000
    34  H    0.000000
    35  H    0.000000
    36  H    0.000000
    37  H    0.000000
    38  H    0.000000
    39  H    0.000000
    40  H    0.000000
    41  H    0.000000
    42  H    0.000000
    43  H    0.000000
    44  H    0.000000
    45  H    0.000000
    46  H    0.000000
    47  H    0.000000
 Sum of Mulliken charges=   0.00000
 Electronic spatial extent (au):  <R**2>=  6666.9195
 Charge=     0.0000 electrons
 Dipole moment (field-independent basis, Debye):
    X=    -3.0849    Y=    -2.3476    Z=    -1.0325  Tot=     4.0117
 Quadrupole moment (field-independent basis, Debye-Ang):
   XX=  -143.9662   YY=  -154.9048   ZZ=  -143.8434
   XY=    -8.9500   XZ=     0.1407   YZ=    -1.8378
 Traceless Quadrupole moment (field-independent basis, Debye-Ang):
   XX=     3.6053   YY=    -7.3333   ZZ=     3.7280
   XY=    -8.9500   XZ=     0.1407   YZ=    -1.8378
 Octapole moment (field-independent basis, Debye-Ang**2):
  XXX=   -17.9860  YYY=    -9.4326  ZZZ=     6.4098  XYY=   -24.2983
  XXY=   -12.2284  XXZ=    -5.8184  XZZ=   -15.0591  YZZ=     4.6418
  YYZ=    -5.9161  XYZ=     6.4202
 Hexadecapole moment (field-independent basis, Debye-Ang**3):
 XXXX= -4896.2739 YYYY= -3196.5441 ZZZZ=  -803.8230 XXXY=   -41.1620
 XXXZ=   -88.0077 YYYX=  -138.5605 YYYZ=    -2.0995 ZZZX=     9.2309
 ZZZY=     3.3559 XXYY= -1405.4353 XXZZ= -1034.3905 YYZZ=  -619.8916
 XXYZ=     0.7935 YYXZ=     0.6269 ZZXY=    14.3170
 N-N= 2.379127218975D+03 E-N=-7.253483301996D+03  KE= 1.066174592212D+03
 Calculating spin-rotation constants.
 Leave Link  601 at Thu Apr 16 22:05:11 2009, MaxMem=  196608000 cpu:     459.6
 (Enter /data/hamilton/dch0ik/g03/l9999.exe)

 Test job not archived.
 1\1\GINC-NODE189\SP\RB3LYP\Gen\C21H22N2O2\DCH0IK\16-Apr-2009\0\\#P Geo
 m=AllCheck Guess=Read SCRF=Check GenChk RB3LYP/ChkBas NMR=ReadFC IOp(3
 /6=22)\\Strychnine.\\0,1\C,0,2.6240710891,2.2773484512,0.9070681718\C,
 0,3.9463655344,2.1211279702,1.34608839\C,0,4.5798098879,0.8789311283,1
 .2344563214\C,0,3.9188180618,-0.2317869846,0.6945546933\C,0,2.59605571
 11,-0.0601487503,0.2737122287\C,0,1.9479053433,1.1829585215,0.37206052
 88\N,0,1.7130344285,-1.022221558,-0.2687610166\C,0,0.3569757772,-0.434
 7813255,-0.4115032649\C,0,0.563925756,1.1075484105,-0.2406380605\C,0,1
 .850313474,-2.3930277792,-0.1308215853\C,0,0.5781394177,-3.1916704591,
 -0.4069974154\C,0,-0.7580096439,-2.5956482971,0.1115042938\C,0,-0.5395
 837851,-1.1535018671,0.6138649664\C,0,-0.5996165102,1.8171161309,0.516
 5532327\C,0,-1.2163708246,0.9820101851,1.6398167175\C,0,-1.7692152032,
 -0.3224538525,1.0354287871\C,0,-2.7474343107,0.0108594054,-0.092390707
 1\C,0,-2.9139209094,1.4951639393,-0.3442098326\N,0,-1.6120065441,2.155
 6302877,-0.5244661383\C,0,0.4843537091,1.8340283383,-1.6075214535\C,0,
 -1.019688476,1.9514213702,-1.8588929794\C,0,-3.3283415451,-0.932733341
 6,-0.8476980446\C,0,-3.0290385703,-2.4054323141,-0.7051612276\O,0,-1.6
 618872613,-2.7167012753,-0.9853887714\O,0,2.9074672671,-2.933797212,0.
 1617081344\H,0,-1.1415634992,-3.2045945534,0.9541039455\H,0,-2.3096893
 69,-0.8912931095,1.8142212466\H,0,0.0617100192,-1.260979815,1.53515678
 28\H,0,-0.1988378465,2.7551275747,0.9417928835\H,0,-0.0313171279,-0.65
 30187076,-1.4176601298\H,0,2.1328531223,3.2506363809,0.981793523\H,0,4
 .4829639009,2.9725693601,1.7697542775\H,0,5.6119328829,0.7659685958,1.
 5744638328\H,0,4.3969197195,-1.2041556848,0.6090857457\H,0,0.469362259
 2,-3.2773819268,-1.5012884179\H,0,0.7573164018,-4.2038180951,-0.023806
 0288\H,0,-2.0053025082,1.5566604393,2.147450368\H,0,-0.4507080596,0.76
 13139052,2.3997869051\H,0,-3.5245118416,1.6771273079,-1.2405851287\H,0
 ,-3.4457502794,1.9759778793,0.4948739208\H,0,1.0188752099,1.2986205722
 ,-2.4062856219\H,0,0.9418399799,2.8311458151,-1.5071114614\H,0,-1.2660
 337034,2.7895947576,-2.5327186548\H,0,-1.402180146,1.0256273996,-2.334
 2551695\H,0,-4.0134515829,-0.6312392615,-1.647252283\H,0,-3.6168183879
 ,-2.9872707697,-1.4300736248\H,0,-3.2958310173,-2.7734571865,0.3069871
 206\\Version=IA32L-G03RevD.01\State=1-A\HF=-1073.4690187\RMSD=3.758e-0
 9\Thermal=0.\Dipole=-1.4362067,0.6301914,0.1768144\PG=C01 [X(C21H22N2O
 2)]\\@


 THERE ONCE WAS A GIRL NAMED IRENE,
 WHO LIVED ON DISTILLED KEROSENE,
      BUT SHE STARTED ABSORBIN'
      A NEW HYDROCARBON,
 AND SINCE THEN HAS NEVER BENZENE.
 Job cpu time:  0 days  0 hours  8 minutes  6.9 seconds.
 File lengths (MBytes):  RWF=   2122 Int=      0 D2E=      0 Chk=     60 Scr=      1
 Normal termination of Gaussian 03 at Thu Apr 16 22:05:17 2009.
