 Entering Link 1 = C:\G16W\l1.exe PID=    125744.
  
 Copyright (c) 1988-2019, Gaussian, Inc.  All Rights Reserved.
  
 This is part of the Gaussian(R) 16 program.  It is based on
 the Gaussian(R) 09 system (copyright 2009, Gaussian, Inc.),
 the Gaussian(R) 03 system (copyright 2003, Gaussian, Inc.),
 the Gaussian(R) 98 system (copyright 1998, Gaussian, Inc.),
 the Gaussian(R) 94 system (copyright 1995, Gaussian, Inc.),
 the Gaussian 92(TM) system (copyright 1992, Gaussian, Inc.),
 the Gaussian 90(TM) system (copyright 1990, Gaussian, Inc.),
 the Gaussian 88(TM) system (copyright 1988, Gaussian, Inc.),
 the Gaussian 86(TM) system (copyright 1986, Carnegie Mellon
 University), and the Gaussian 82(TM) system (copyright 1983,
 Carnegie Mellon University). Gaussian is a federally registered
 trademark of Gaussian, Inc.
  
 This software contains proprietary and confidential information,
 including trade secrets, belonging to Gaussian, Inc.
  
 This software is provided under written license and may be
 used, copied, transmitted, or stored only in accord with that
 written license.
  
 The following legend is applicable only to US Government
 contracts under FAR:
  
                    RESTRICTED RIGHTS LEGEND
  
 Use, reproduction and disclosure by the US Government is
 subject to restrictions as set forth in subparagraphs (a)
 and (c) of the Commercial Computer Software - Restricted
 Rights clause in FAR 52.227-19.
  
 Gaussian, Inc.
 340 Quinnipiac St., Bldg. 40, Wallingford CT 06492
  
  
 ---------------------------------------------------------------
 Warning -- This program may not be used in any manner that
 competes with the business of Gaussian, Inc. or will provide
 assistance to any competitor of Gaussian, Inc.  The licensee
 of this program is prohibited from giving any competitor of
 Gaussian, Inc. access to this program.  By using this program,
 the user acknowledges that Gaussian, Inc. is engaged in the
 business of creating and licensing software in the field of
 computational chemistry and represents and warrants to the
 licensee that it is not a competitor of Gaussian, Inc. and that
 it will not use this program in any manner prohibited above.
 ---------------------------------------------------------------
  

 Cite this work as:
 Gaussian 16, Revision C.01,
 M. J. Frisch, G. W. Trucks, H. B. Schlegel, G. E. Scuseria, 
 M. A. Robb, J. R. Cheeseman, G. Scalmani, V. Barone, 
 G. A. Petersson, H. Nakatsuji, X. Li, M. Caricato, A. V. Marenich, 
 J. Bloino, B. G. Janesko, R. Gomperts, B. Mennucci, H. P. Hratchian, 
 J. V. Ortiz, A. F. Izmaylov, J. L. Sonnenberg, D. Williams-Young, 
 F. Ding, F. Lipparini, F. Egidi, J. Goings, B. Peng, A. Petrone, 
 T. Henderson, D. Ranasinghe, V. G. Zakrzewski, J. Gao, N. Rega, 
 G. Zheng, W. Liang, M. Hada, M. Ehara, K. Toyota, R. Fukuda, 
 J. Hasegawa, M. Ishida, T. Nakajima, Y. Honda, O. Kitao, H. Nakai, 
 T. Vreven, K. Throssell, J. A. Montgomery, Jr., J. E. Peralta, 
 F. Ogliaro, M. J. Bearpark, J. J. Heyd, E. N. Brothers, K. N. Kudin, 
 V. N. Staroverov, T. A. Keith, R. Kobayashi, J. Normand, 
 K. Raghavachari, A. P. Rendell, J. C. Burant, S. S. Iyengar, 
 J. Tomasi, M. Cossi, J. M. Millam, M. Klene, C. Adamo, R. Cammi, 
 J. W. Ochterski, R. L. Martin, K. Morokuma, O. Farkas, 
 J. B. Foresman, and D. J. Fox, Gaussian, Inc., Wallingford CT, 2019.
 
 ******************************************
 Gaussian 16:  EM64W-G16RevC.01 30-May-2019
                26-May-2023 
 ******************************************
 %Chk=butadiene.chk
 %Mem=16GB
 %NProcShared=16
 Will use up to   16 processors via shared memory.
 ----------------------------------------------------------------------
 #p opt=tight m06/cc-pvdz scf=tight scrf=(smd,solvent=chloroform) integ
 ral=(grid=ultrafine)
 ----------------------------------------------------------------------
 1/7=10,18=20,19=15,26=6,38=1/1,3;
 2/9=110,12=2,17=6,18=5,40=1/2;
 3/5=16,11=2,25=1,30=1,70=32201,71=1,72=7,74=-54,75=-5/1,2,3;
 4//1;
 5/5=2,32=2,38=5,53=7/2;
 6/7=2,8=2,9=2,10=2,28=1/1;
 7//1,2,3,16;
 1/7=10,18=20,19=15,26=6/3(2);
 2/9=110/2;
 99//99;
 2/9=110/2;
 3/5=16,11=2,25=1,30=1,70=32205,71=1,72=7,74=-54,75=-5/1,2,3;
 4/5=5,16=3,69=1/1;
 5/5=2,32=2,38=5,53=7/2;
 7//1,2,3,16;
 1/7=10,18=20,19=15,26=6/3(-5);
 2/9=110/2;
 6/7=2,8=2,9=2,10=2,19=2,28=1/1;
 99/9=1/99;
 Leave Link    1 at Fri May 26 09:54:58 2023, MaxMem=  2147483648 cpu:               1.0 elap:               0.3
 (Enter C:\G16W\l101.exe)
 --------
 Geometry
 --------
 Symbolic Z-matrix:
 Charge =  0 Multiplicity = 1
 C                    -1.94248   1.4783    0. 
 H                    -3.01248   1.4783    0. 
 C                    -1.17513   0.1431    0. 
 H                    -1.71379  -0.78142   0. 
 C                     0.18005   0.13505   0. 
 H                     0.7242    1.05636   0. 
 H                     0.70769  -0.7958    0. 
 C                    -1.26721   2.65328   0. 
 H                    -1.76816   3.56248   0.25944 
 H                    -0.22953   2.67186  -0.25944 
 
 ITRead=  0  0  0  0  0  0  0  0  0  0
 MicOpt= -1 -1 -1 -1 -1 -1 -1 -1 -1 -1
 NAtoms=     10 NQM=       10 NQMF=       0 NMMI=      0 NMMIF=      0
                NMic=       0 NMicF=      0.
                    Isotopes and Nuclear Properties:
 (Nuclear quadrupole moments (NQMom) in fm**2, nuclear magnetic moments (NMagM)
  in nuclear magnetons)

  Atom         1           2           3           4           5           6           7           8           9          10
 IAtWgt=          12           1          12           1          12           1           1          12           1           1
 AtmWgt=  12.0000000   1.0078250  12.0000000   1.0078250  12.0000000   1.0078250   1.0078250  12.0000000   1.0078250   1.0078250
 NucSpn=           0           1           0           1           0           1           1           0           1           1
 AtZEff=   0.0000000   0.0000000   0.0000000   0.0000000   0.0000000   0.0000000   0.0000000   0.0000000   0.0000000   0.0000000
 NQMom=    0.0000000   0.0000000   0.0000000   0.0000000   0.0000000   0.0000000   0.0000000   0.0000000   0.0000000   0.0000000
 NMagM=    0.0000000   2.7928460   0.0000000   2.7928460   0.0000000   2.7928460   2.7928460   0.0000000   2.7928460   2.7928460
 AtZNuc=   6.0000000   1.0000000   6.0000000   1.0000000   6.0000000   1.0000000   1.0000000   6.0000000   1.0000000   1.0000000
 Leave Link  101 at Fri May 26 09:54:58 2023, MaxMem=  2147483648 cpu:               0.0 elap:               0.4
 (Enter C:\G16W\l103.exe)

 GradGradGradGradGradGradGradGradGradGradGradGradGradGradGradGradGradGrad
 Berny optimization.
 Initialization pass.
                           ----------------------------
                           !    Initial Parameters    !
                           ! (Angstroms and Degrees)  !
 --------------------------                            --------------------------
 ! Name  Definition              Value          Derivative Info.                !
 --------------------------------------------------------------------------------
 ! R1    R(1,2)                  1.07           estimate D2E/DX2                !
 ! R2    R(1,3)                  1.54           estimate D2E/DX2                !
 ! R3    R(1,8)                  1.3552         estimate D2E/DX2                !
 ! R4    R(3,4)                  1.07           estimate D2E/DX2                !
 ! R5    R(3,5)                  1.3552         estimate D2E/DX2                !
 ! R6    R(5,6)                  1.07           estimate D2E/DX2                !
 ! R7    R(5,7)                  1.07           estimate D2E/DX2                !
 ! R8    R(8,9)                  1.07           estimate D2E/DX2                !
 ! R9    R(8,10)                 1.0698         estimate D2E/DX2                !
 ! A1    A(2,1,3)              119.8865         estimate D2E/DX2                !
 ! A2    A(2,1,8)              119.8865         estimate D2E/DX2                !
 ! A3    A(3,1,8)              120.2269         estimate D2E/DX2                !
 ! A4    A(1,3,4)              119.8865         estimate D2E/DX2                !
 ! A5    A(1,3,5)              120.2269         estimate D2E/DX2                !
 ! A6    A(4,3,5)              119.8865         estimate D2E/DX2                !
 ! A7    A(3,5,6)              120.2269         estimate D2E/DX2                !
 ! A8    A(3,5,7)              119.8865         estimate D2E/DX2                !
 ! A9    A(6,5,7)              119.8865         estimate D2E/DX2                !
 ! A10   A(1,8,9)              120.2269         estimate D2E/DX2                !
 ! A11   A(1,8,10)             119.8932         estimate D2E/DX2                !
 ! A12   A(9,8,10)             119.8798         estimate D2E/DX2                !
 ! D1    D(2,1,3,4)              0.0            estimate D2E/DX2                !
 ! D2    D(2,1,3,5)            180.0            estimate D2E/DX2                !
 ! D3    D(8,1,3,4)            180.0            estimate D2E/DX2                !
 ! D4    D(8,1,3,5)              0.0            estimate D2E/DX2                !
 ! D5    D(2,1,8,9)             16.297          estimate D2E/DX2                !
 ! D6    D(2,1,8,10)          -163.756          estimate D2E/DX2                !
 ! D7    D(3,1,8,9)           -163.703          estimate D2E/DX2                !
 ! D8    D(3,1,8,10)            16.244          estimate D2E/DX2                !
 ! D9    D(1,3,5,6)              0.0            estimate D2E/DX2                !
 ! D10   D(1,3,5,7)            180.0            estimate D2E/DX2                !
 ! D11   D(4,3,5,6)            180.0            estimate D2E/DX2                !
 ! D12   D(4,3,5,7)              0.0            estimate D2E/DX2                !
 --------------------------------------------------------------------------------
 Trust Radius=3.00D-01 FncErr=5.00D-06 GrdErr=5.00D-06 EigMax=2.50D+02 EigMin=1.00D-04
 Number of steps in this run=     43 maximum allowed number of steps=    100.
 GradGradGradGradGradGradGradGradGradGradGradGradGradGradGradGradGradGrad

 Leave Link  103 at Fri May 26 09:54:59 2023, MaxMem=  2147483648 cpu:               0.0 elap:               0.2
 (Enter C:\G16W\l202.exe)
                          Input orientation:                          
 ---------------------------------------------------------------------
 Center     Atomic      Atomic             Coordinates (Angstroms)
 Number     Number       Type             X           Y           Z
 ---------------------------------------------------------------------
      1          6           0       -1.942482    1.478305    0.000000
      2          1           0       -3.012482    1.478305    0.000000
      3          6           0       -1.175125    0.143103    0.000000
      4          1           0       -1.713791   -0.781417    0.000000
      5          6           0        0.180051    0.135052    0.000000
      6          1           0        0.724201    1.056356    0.000000
      7          1           0        0.707693   -0.795805    0.000000
      8          6           0       -1.267208    2.653282    0.000000
      9          1           0       -1.768164    3.562477    0.259436
     10          1           0       -0.229526    2.671856   -0.259436
 ---------------------------------------------------------------------
                    Distance matrix (angstroms):
                    1          2          3          4          5
     1  C    0.000000
     2  H    1.070000   0.000000
     3  C    1.540000   2.271265   0.000000
     4  H    2.271265   2.606327   1.070000   0.000000
     5  C    2.511867   3.463611   1.355200   2.103938   0.000000
     6  H    2.699859   3.760431   2.107479   3.053066   1.070000
     7  H    3.492135   4.360193   2.103938   2.421528   1.070000
     8  C    1.355200   2.103938   2.511867   3.463611   2.904487
     9  H    2.107479   2.441190   3.480103   4.351975   3.950961
    10  H    2.103827   3.039197   2.712205   3.767684   2.582719
                    6          7          8          9         10
     6  H    0.000000
     7  H    1.852234   0.000000
     8  C    2.552623   3.974473   0.000000
     9  H    3.543986   5.019143   1.070000   0.000000
    10  H    1.893870   3.601438   1.069783   1.851983   0.000000
 Stoichiometry    C4H6
 Framework group  C1[X(C4H6)]
 Deg. of freedom    24
 Full point group                 C1      NOp   1
 Largest Abelian subgroup         C1      NOp   1
 Largest concise Abelian subgroup C1      NOp   1
                         Standard orientation:                         
 ---------------------------------------------------------------------
 Center     Atomic      Atomic             Coordinates (Angstroms)
 Number     Number       Type             X           Y           Z
 ---------------------------------------------------------------------
      1          6           0       -0.768954    0.625742    0.014249
      2          1           0       -1.300316    1.554337    0.030532
      3          6           0        0.770995    0.622941    0.001932
      4          1           0        1.305924    1.549597    0.009686
      5          6           0        1.450964   -0.549144   -0.018694
      6          1           0        0.921550   -1.478961   -0.026533
      7          1           0        2.520922   -0.544733   -0.027170
      8          6           0       -1.453425   -0.543861    0.004536
      9          1           0       -2.493398   -0.557308   -0.246811
     10          1           0       -0.952164   -1.456999    0.248160
 ---------------------------------------------------------------------
 Rotational constants (GHZ):          19.1066282           6.1008904           4.6354791
 Leave Link  202 at Fri May 26 09:54:59 2023, MaxMem=  2147483648 cpu:               0.0 elap:               0.0
 (Enter C:\G16W\l301.exe)
 Standard basis: CC-pVDZ (5D, 7F)
 Ernie: Thresh=  0.10000D-02 Tol=  0.10000D-05 Strict=F.
 Ernie:  8 primitive shells out of 118 were deleted.
 There are    90 symmetry adapted cartesian basis functions of A   symmetry.
 There are    86 symmetry adapted basis functions of A   symmetry.
    86 basis functions,   174 primitive gaussians,    90 cartesian basis functions
    15 alpha electrons       15 beta electrons
       nuclear repulsion energy       104.7020307403 Hartrees.
 IExCor= 4235 DFT=T Ex+Corr=M06 ExCW=0 ScaHFX=  0.270000
 ScaDFX=  1.000000  1.000000  1.000000  1.000000 ScalE2=  1.000000  1.000000
 IRadAn=      5 IRanWt=     -1 IRanGd=            0 ICorTp=0 IEmpDi=  4
 NAtoms=   10 NActive=   10 NUniq=   10 SFac= 1.00D+00 NAtFMM=   60 NAOKFM=F Big=F
 Integral buffers will be    131072 words long.
 Raffenetti 2 integral format.
 Two-electron integral symmetry is turned on.
 ------------------------------------------------------------------------------
 Polarizable Continuum Model (PCM)
 =================================
 Model                : PCM.
 Atomic radii         : SMD-Coulomb.
 Polarization charges : Total charges.
 Charge compensation  : None.
 Solution method      : On-the-fly selection.
 Cavity type          : VdW (van der Waals Surface) (Alpha=1.000).
 Cavity algorithm     : GePol (No added spheres)
                        Default sphere list used, NSphG=   10.
                        Lebedev-Laikov grids with approx.  5.0 points / Ang**2.
                        Smoothing algorithm: York/Karplus (Gamma=1.0000).
                        Polarization charges: spherical gaussians, with
                                              point-specific exponents (IZeta= 3).
                        Self-potential: point-specific (ISelfS= 7).
                        Self-field    : sphere-specific E.n sum rule (ISelfD= 2).
 1st derivatives      : Analytical E(r).r(x)/FMM algorithm (CHGder, D1EAlg=3).
                        Cavity 1st derivative terms included.
 Solvent              : Chloroform, Eps=   4.711300 Eps(inf)=   2.090627
 ------------------------------------------------------------------------------
 Spheres list:
 ISph  on   Nord     Re0    Alpha      Xe            Ye            Ze
    1   C      1    1.8500  1.000     -0.768954      0.625742      0.014249
    2   H      2    1.2000  1.000     -1.300316      1.554337      0.030532
    3   C      3    1.8500  1.000      0.770995      0.622941      0.001932
    4   H      4    1.2000  1.000      1.305924      1.549597      0.009686
    5   C      5    1.8500  1.000      1.450964     -0.549144     -0.018694
    6   H      6    1.2000  1.000      0.921550     -1.478961     -0.026533
    7   H      7    1.2000  1.000      2.520922     -0.544733     -0.027170
    8   C      8    1.8500  1.000     -1.453425     -0.543861      0.004536
    9   H      9    1.2000  1.000     -2.493398     -0.557308     -0.246811
   10   H     10    1.2000  1.000     -0.952164     -1.456999      0.248160
 ------------------------------------------------------------------------------
 GePol: Number of generator spheres                  =      10
 GePol: Total number of spheres                      =      10
 GePol: Number of exposed spheres                    =      10 (100.00%)
 GePol: Number of points                             =     851
 GePol: Average weight of points                     =       0.12
 GePol: Minimum weight of points                     =   0.16D-08
 GePol: Maximum weight of points                     =    0.17992
 GePol: Number of points with low weight             =      31
 GePol: Fraction of low-weight points (<1% of avg)   =       3.64%
 GePol: Cavity surface area                          =     98.275 Ang**2
 GePol: Cavity volume                                =     75.759 Ang**3
 ------------------------------------------------------------------------------
 Atomic radii for non-electrostatic terms: SMD-CDS.
 ------------------------------------------------------------------------------
 PCM non-electrostatic energy =        -0.0011000039 Hartrees.
 Nuclear repulsion after PCM non-electrostatic terms =      104.7009307365 Hartrees.
 Leave Link  301 at Fri May 26 09:55:00 2023, MaxMem=  2147483648 cpu:               1.0 elap:               0.3
 (Enter C:\G16W\l302.exe)
 NPDir=0 NMtPBC=     1 NCelOv=     1 NCel=       1 NClECP=     1 NCelD=      1
         NCelK=      1 NCelE2=     1 NClLst=     1 CellRange=     0.0.
 One-electron integrals computed using PRISM.
 One-electron integral symmetry used in STVInt
 NBasis=    86 RedAO= T EigKep=  1.87D-03  NBF=    86
 NBsUse=    86 1.00D-06 EigRej= -1.00D+00 NBFU=    86
 Precomputing XC quadrature grid using
 IXCGrd= 4 IRadAn=           5 IRanWt=          -1 IRanGd=           0 AccXCQ= 0.00D+00.
 Generated NRdTot=       0 NPtTot=           0 NUsed=           0 NTot=          32
 NSgBfM=    90    90    90    90    90 MxSgAt=    10 MxSgA2=    10.
 Leave Link  302 at Fri May 26 09:55:00 2023, MaxMem=  2147483648 cpu:               0.0 elap:               0.4
 (Enter C:\G16W\l303.exe)
 DipDrv:  MaxL=1.
 Leave Link  303 at Fri May 26 09:55:01 2023, MaxMem=  2147483648 cpu:               0.0 elap:               0.3
 (Enter C:\G16W\l401.exe)
 ExpMin= 1.22D-01 ExpMax= 6.67D+03 ExpMxC= 2.28D+02 IAcc=3 IRadAn=         5 AccDes= 0.00D+00
 Harris functional with IExCor= 1009 and IRadAn=       5 diagonalized for initial guess.
 HarFok:  IExCor= 1009 AccDes= 0.00D+00 IRadAn=         5 IDoV= 1 UseB2=F ITyADJ=14
 ICtDFT=  3500011 ScaDFX=  1.000000  1.000000  1.000000  1.000000
 FoFCou: FMM=F IPFlag=           0 FMFlag=      100000 FMFlg1=           0
         NFxFlg=           0 DoJE=T BraDBF=F KetDBF=T FulRan=T
         wScrn=  0.000000 ICntrl=       500 IOpCl=  0 I1Cent=   200000004 NGrid=           0
         NMat0=    1 NMatS0=      1 NMatT0=    0 NMatD0=    1 NMtDS0=    0 NMtDT0=    0
 Petite list used in FoFCou.
 Harris En= -155.862777362609    
 JPrj=0 DoOrth=F DoCkMO=F.
 Leave Link  401 at Fri May 26 09:55:02 2023, MaxMem=  2147483648 cpu:               1.0 elap:               0.7
 (Enter C:\G16W\l502.exe)
 Keep R1 ints in memory in canonical form, NReq=21641951.
 FoFCou: FMM=F IPFlag=           0 FMFlag=           0 FMFlg1=           0
         NFxFlg=           0 DoJE=F BraDBF=F KetDBF=F FulRan=T
         wScrn=  0.000000 ICntrl=       600 IOpCl=  0 I1Cent=           0 NGrid=           0
         NMat0=    1 NMatS0=   3741 NMatT0=    0 NMatD0=    1 NMtDS0=    0 NMtDT0=    0
 Symmetry not used in FoFCou.
 Two-electron integral symmetry not used.
 Closed shell SCF:
 Using DIIS extrapolation, IDIIS=  1040.
 NGot=  2147483648 LenX=  2140465243 LenY=  2140456702
 Requested convergence on RMS density matrix=1.00D-08 within 128 cycles.
 Requested convergence on MAX density matrix=1.00D-06.
 Requested convergence on             energy=1.00D-06.
 No special actions if energy rises.

 Cycle   1  Pass 1  IDiag  1:
 Inv3:  Mode=1 IEnd=     2172603.
 Iteration    1 A*A^-1 deviation from unit magnitude is 5.77D-15 for    143.
 Iteration    1 A*A^-1 deviation from orthogonality  is 4.87D-15 for    730    143.
 Iteration    1 A^-1*A deviation from unit magnitude is 3.44D-15 for    326.
 Iteration    1 A^-1*A deviation from orthogonality  is 1.81D-11 for    450    399.
 E= -155.732829058300    
 DIIS: error= 3.79D-02 at cycle   1 NSaved=   1.
 NSaved= 1 IEnMin= 1 EnMin= -155.732829058300     IErMin= 1 ErrMin= 3.79D-02
 ErrMax= 3.79D-02  0.00D+00 EMaxC= 1.00D-01 BMatC= 8.77D-02 BMatP= 8.77D-02
 IDIUse=3 WtCom= 6.21D-01 WtEn= 3.79D-01
 Coeff-Com:  0.100D+01
 Coeff-En:   0.100D+01
 Coeff:      0.100D+01
 Gap=     0.200 Goal=   None    Shift=    0.000
 GapD=    0.200 DampG=1.000 DampE=0.500 DampFc=0.5000 IDamp=-1.
 Damping current iteration by 5.00D-01
 RMSDP=6.24D-03 MaxDP=9.61D-02              OVMax= 1.40D-01

 Cycle   2  Pass 1  IDiag  1:
 E= -155.787549723367     Delta-E=       -0.054720665067 Rises=F Damp=T
 DIIS: error= 4.56D-03 at cycle   2 NSaved=   2.
 NSaved= 2 IEnMin= 2 EnMin= -155.787549723367     IErMin= 2 ErrMin= 4.56D-03
 ErrMax= 4.56D-03  0.00D+00 EMaxC= 1.00D-01 BMatC= 1.73D-03 BMatP= 8.77D-02
 IDIUse=3 WtCom= 9.54D-01 WtEn= 4.56D-02
 Coeff-Com: -0.252D-01 0.103D+01
 Coeff-En:   0.000D+00 0.100D+01
 Coeff:     -0.241D-01 0.102D+01
 Gap=     0.209 Goal=   None    Shift=    0.000
 RMSDP=1.13D-03 MaxDP=1.27D-02 DE=-5.47D-02 OVMax= 7.24D-02

 Cycle   3  Pass 1  IDiag  1:
 E= -155.840468013347     Delta-E=       -0.052918289979 Rises=F Damp=F
 DIIS: error= 2.48D-03 at cycle   3 NSaved=   3.
 NSaved= 3 IEnMin= 3 EnMin= -155.840468013347     IErMin= 3 ErrMin= 2.48D-03
 ErrMax= 2.48D-03  0.00D+00 EMaxC= 1.00D-01 BMatC= 5.88D-04 BMatP= 1.73D-03
 IDIUse=3 WtCom= 9.75D-01 WtEn= 2.48D-02
 Coeff-Com: -0.224D-01 0.351D+00 0.671D+00
 Coeff-En:   0.000D+00 0.000D+00 0.100D+01
 Coeff:     -0.218D-01 0.343D+00 0.679D+00
 Gap=     0.207 Goal=   None    Shift=    0.000
 RMSDP=3.67D-04 MaxDP=8.39D-03 DE=-5.29D-02 OVMax= 1.59D-02

 Cycle   4  Pass 1  IDiag  1:
 E= -155.840781261212     Delta-E=       -0.000313247866 Rises=F Damp=F
 DIIS: error= 1.92D-03 at cycle   4 NSaved=   4.
 NSaved= 4 IEnMin= 4 EnMin= -155.840781261212     IErMin= 4 ErrMin= 1.92D-03
 ErrMax= 1.92D-03  0.00D+00 EMaxC= 1.00D-01 BMatC= 2.96D-04 BMatP= 5.88D-04
 IDIUse=3 WtCom= 9.81D-01 WtEn= 1.92D-02
 Coeff-Com: -0.892D-02 0.829D-01 0.422D+00 0.504D+00
 Coeff-En:   0.000D+00 0.000D+00 0.349D+00 0.651D+00
 Coeff:     -0.874D-02 0.813D-01 0.421D+00 0.506D+00
 Gap=     0.207 Goal=   None    Shift=    0.000
 RMSDP=1.67D-04 MaxDP=3.85D-03 DE=-3.13D-04 OVMax= 7.32D-03

 Cycle   5  Pass 1  IDiag  1:
 E= -155.841092886126     Delta-E=       -0.000311624913 Rises=F Damp=F
 DIIS: error= 1.85D-04 at cycle   5 NSaved=   5.
 NSaved= 5 IEnMin= 5 EnMin= -155.841092886126     IErMin= 5 ErrMin= 1.85D-04
 ErrMax= 1.85D-04  0.00D+00 EMaxC= 1.00D-01 BMatC= 3.24D-06 BMatP= 2.96D-04
 IDIUse=3 WtCom= 9.98D-01 WtEn= 1.85D-03
 Coeff-Com: -0.116D-02-0.146D-03 0.762D-01 0.148D+00 0.777D+00
 Coeff-En:   0.000D+00 0.000D+00 0.000D+00 0.000D+00 0.100D+01
 Coeff:     -0.116D-02-0.145D-03 0.760D-01 0.147D+00 0.778D+00
 Gap=     0.207 Goal=   None    Shift=    0.000
 RMSDP=1.70D-05 MaxDP=2.56D-04 DE=-3.12D-04 OVMax= 5.69D-04

 Cycle   6  Pass 1  IDiag  1:
 E= -155.841096181128     Delta-E=       -0.000003295003 Rises=F Damp=F
 DIIS: error= 2.45D-05 at cycle   6 NSaved=   6.
 NSaved= 6 IEnMin= 6 EnMin= -155.841096181128     IErMin= 6 ErrMin= 2.45D-05
 ErrMax= 2.45D-05  0.00D+00 EMaxC= 1.00D-01 BMatC= 2.84D-08 BMatP= 3.24D-06
 IDIUse=1 WtCom= 1.00D+00 WtEn= 0.00D+00
 Coeff-Com:  0.293D-04-0.158D-02-0.690D-03 0.739D-02 0.956D-01 0.899D+00
 Coeff:      0.293D-04-0.158D-02-0.690D-03 0.739D-02 0.956D-01 0.899D+00
 Gap=     0.207 Goal=   None    Shift=    0.000
 RMSDP=2.58D-06 MaxDP=4.80D-05 DE=-3.30D-06 OVMax= 1.20D-04

 Cycle   7  Pass 1  IDiag  1:
 E= -155.841096221605     Delta-E=       -0.000000040476 Rises=F Damp=F
 DIIS: error= 4.06D-06 at cycle   7 NSaved=   7.
 NSaved= 7 IEnMin= 7 EnMin= -155.841096221605     IErMin= 7 ErrMin= 4.06D-06
 ErrMax= 4.06D-06  0.00D+00 EMaxC= 1.00D-01 BMatC= 2.63D-09 BMatP= 2.84D-08
 IDIUse=1 WtCom= 1.00D+00 WtEn= 0.00D+00
 Coeff-Com:  0.407D-04-0.333D-03-0.165D-02-0.203D-02 0.120D-02 0.194D+00
 Coeff-Com:  0.809D+00
 Coeff:      0.407D-04-0.333D-03-0.165D-02-0.203D-02 0.120D-02 0.194D+00
 Coeff:      0.809D+00
 Gap=     0.207 Goal=   None    Shift=    0.000
 RMSDP=9.06D-07 MaxDP=2.17D-05 DE=-4.05D-08 OVMax= 5.09D-05

 Cycle   8  Pass 1  IDiag  1:
 E= -155.841096222932     Delta-E=       -0.000000001328 Rises=F Damp=F
 DIIS: error= 4.39D-06 at cycle   8 NSaved=   8.
 NSaved= 8 IEnMin= 8 EnMin= -155.841096222932     IErMin= 7 ErrMin= 4.06D-06
 ErrMax= 4.39D-06  0.00D+00 EMaxC= 1.00D-01 BMatC= 1.95D-09 BMatP= 2.63D-09
 IDIUse=1 WtCom= 1.00D+00 WtEn= 0.00D+00
 Coeff-Com:  0.223D-04-0.101D-04-0.881D-03-0.227D-02-0.113D-01 0.515D-02
 Coeff-Com:  0.490D+00 0.520D+00
 Coeff:      0.223D-04-0.101D-04-0.881D-03-0.227D-02-0.113D-01 0.515D-02
 Coeff:      0.490D+00 0.520D+00
 Gap=     0.207 Goal=   None    Shift=    0.000
 RMSDP=4.59D-07 MaxDP=1.21D-05 DE=-1.33D-09 OVMax= 2.79D-05

 Cycle   9  Pass 1  IDiag  1:
 E= -155.841096225021     Delta-E=       -0.000000002089 Rises=F Damp=F
 DIIS: error= 5.26D-07 at cycle   9 NSaved=   9.
 NSaved= 9 IEnMin= 9 EnMin= -155.841096225021     IErMin= 9 ErrMin= 5.26D-07
 ErrMax= 5.26D-07  0.00D+00 EMaxC= 1.00D-01 BMatC= 3.53D-11 BMatP= 1.95D-09
 IDIUse=1 WtCom= 1.00D+00 WtEn= 0.00D+00
 Coeff-Com:  0.115D-05 0.250D-04-0.201D-04-0.399D-03-0.256D-02-0.198D-01
 Coeff-Com:  0.199D-01 0.123D+00 0.880D+00
 Coeff:      0.115D-05 0.250D-04-0.201D-04-0.399D-03-0.256D-02-0.198D-01
 Coeff:      0.199D-01 0.123D+00 0.880D+00
 Gap=     0.207 Goal=   None    Shift=    0.000
 RMSDP=7.07D-08 MaxDP=1.12D-06 DE=-2.09D-09 OVMax= 3.11D-06

 Cycle  10  Pass 1  IDiag  1:
 E= -155.841096225059     Delta-E=       -0.000000000038 Rises=F Damp=F
 DIIS: error= 7.02D-08 at cycle  10 NSaved=  10.
 NSaved=10 IEnMin=10 EnMin= -155.841096225059     IErMin=10 ErrMin= 7.02D-08
 ErrMax= 7.02D-08  0.00D+00 EMaxC= 1.00D-01 BMatC= 7.86D-13 BMatP= 3.53D-11
 IDIUse=1 WtCom= 1.00D+00 WtEn= 0.00D+00
 Coeff-Com: -0.471D-07 0.618D-05 0.865D-05-0.837D-04-0.523D-03-0.565D-02
 Coeff-Com: -0.308D-02 0.264D-01 0.254D+00 0.729D+00
 Coeff:     -0.471D-07 0.618D-05 0.865D-05-0.837D-04-0.523D-03-0.565D-02
 Coeff:     -0.308D-02 0.264D-01 0.254D+00 0.729D+00
 Gap=     0.207 Goal=   None    Shift=    0.000
 RMSDP=1.21D-08 MaxDP=2.57D-07 DE=-3.80D-11 OVMax= 3.39D-07

 Cycle  11  Pass 1  IDiag  1:
 E= -155.841096225063     Delta-E=       -0.000000000003 Rises=F Damp=F
 DIIS: error= 3.50D-08 at cycle  11 NSaved=  11.
 NSaved=11 IEnMin=11 EnMin= -155.841096225063     IErMin=11 ErrMin= 3.50D-08
 ErrMax= 3.50D-08  0.00D+00 EMaxC= 1.00D-01 BMatC= 1.72D-13 BMatP= 7.86D-13
 IDIUse=1 WtCom= 1.00D+00 WtEn= 0.00D+00
 Coeff-Com: -0.151D-06 0.248D-06 0.684D-05 0.681D-06 0.266D-04-0.545D-03
 Coeff-Com: -0.363D-02-0.671D-03 0.280D-01 0.335D+00 0.642D+00
 Coeff:     -0.151D-06 0.248D-06 0.684D-05 0.681D-06 0.266D-04-0.545D-03
 Coeff:     -0.363D-02-0.671D-03 0.280D-01 0.335D+00 0.642D+00
 Gap=     0.207 Goal=   None    Shift=    0.000
 RMSDP=4.53D-09 MaxDP=9.30D-08 DE=-3.41D-12 OVMax= 1.17D-07

 Error on total polarization charges =  0.02577
 SCF Done:  E(RM06) =  -155.841096225     A.U. after   11 cycles
            NFock= 11  Conv=0.45D-08     -V/T= 2.0077
 KE= 1.546467953356D+02 PE=-5.700611149877D+02 EE= 1.548722926905D+02
 SMD-CDS (non-electrostatic) energy       (kcal/mol) =      -0.69
 (included in total energy above)
 Leave Link  502 at Fri May 26 09:55:18 2023, MaxMem=  2147483648 cpu:              16.0 elap:              15.4
 (Enter C:\G16W\l601.exe)
 Copying SCF densities to generalized density rwf, IOpCl= 0 IROHF=0.

 **********************************************************************

            Population analysis using the SCF Density.

 **********************************************************************

 Orbital symmetries:
       Occupied  (A) (A) (A) (A) (A) (A) (A) (A) (A) (A) (A) (A)
                 (A) (A) (A)
       Virtual   (A) (A) (A) (A) (A) (A) (A) (A) (A) (A) (A) (A)
                 (A) (A) (A) (A) (A) (A) (A) (A) (A) (A) (A) (A)
                 (A) (A) (A) (A) (A) (A) (A) (A) (A) (A) (A) (A)
                 (A) (A) (A) (A) (A) (A) (A) (A) (A) (A) (A) (A)
                 (A) (A) (A) (A) (A) (A) (A) (A) (A) (A) (A) (A)
                 (A) (A) (A) (A) (A) (A) (A) (A) (A) (A) (A)
 The electronic state is 1-A.
 Alpha  occ. eigenvalues --  -10.26080 -10.26058 -10.24356 -10.24337  -0.80652
 Alpha  occ. eigenvalues --   -0.73143  -0.61917  -0.53629  -0.50028  -0.43832
 Alpha  occ. eigenvalues --   -0.41961  -0.37374  -0.35883  -0.32190  -0.23944
 Alpha virt. eigenvalues --   -0.03213   0.07419   0.09230   0.09986   0.12133
 Alpha virt. eigenvalues --    0.15224   0.16357   0.19870   0.27801   0.27930
 Alpha virt. eigenvalues --    0.38889   0.39975   0.43753   0.47063   0.47835
 Alpha virt. eigenvalues --    0.50955   0.51766   0.52828   0.54801   0.56370
 Alpha virt. eigenvalues --    0.61228   0.61430   0.63089   0.66951   0.67880
 Alpha virt. eigenvalues --    0.74479   0.78901   0.86611   0.88151   0.91054
 Alpha virt. eigenvalues --    0.95093   0.97266   0.99662   1.02321   1.03902
 Alpha virt. eigenvalues --    1.05236   1.09708   1.26241   1.28684   1.42481
 Alpha virt. eigenvalues --    1.43262   1.43397   1.44871   1.49581   1.53658
 Alpha virt. eigenvalues --    1.54669   1.58889   1.63166   1.65659   1.67735
 Alpha virt. eigenvalues --    1.72919   1.75724   1.80754   1.82621   1.85025
 Alpha virt. eigenvalues --    1.91619   1.95831   1.98703   2.03040   2.13619
 Alpha virt. eigenvalues --    2.17521   2.22749   2.25621   2.31440   2.39840
 Alpha virt. eigenvalues --    2.47104   2.53679   2.62447   2.71046   2.75414
 Alpha virt. eigenvalues --    3.14864
          Condensed to atoms (all electrons):
               1          2          3          4          5          6
     1  C    4.761866   0.397603   0.380089  -0.049283  -0.045059  -0.031113
     2  H    0.397603   0.678559  -0.047447  -0.009374   0.008124  -0.000118
     3  C    0.380089  -0.047447   4.750389   0.396235   0.683659  -0.003241
     4  H   -0.049283  -0.009374   0.396235   0.682586  -0.045107   0.010466
     5  C   -0.045059   0.008124   0.683659  -0.045107   4.692330   0.374931
     6  H   -0.031113  -0.000118  -0.003241   0.010466   0.374931   0.648193
     7  H    0.008936  -0.000157  -0.007942  -0.016206   0.378196  -0.051285
     8  C    0.676292  -0.047557  -0.045511   0.008134  -0.023498   0.009238
     9  H   -0.010216  -0.015017   0.008656  -0.000162  -0.000108   0.000170
    10  H   -0.002929   0.010125  -0.029119  -0.000240   0.006805   0.000732
               7          8          9         10
     1  C    0.008936   0.676292  -0.010216  -0.002929
     2  H   -0.000157  -0.047557  -0.015017   0.010125
     3  C   -0.007942  -0.045511   0.008656  -0.029119
     4  H   -0.016206   0.008134  -0.000162  -0.000240
     5  C    0.378196  -0.023498  -0.000108   0.006805
     6  H   -0.051285   0.009238   0.000170   0.000732
     7  H    0.639947  -0.000106  -0.000018   0.000323
     8  C   -0.000106   4.703458   0.379618   0.375760
     9  H   -0.000018   0.379618   0.635924  -0.049496
    10  H    0.000323   0.375760  -0.049496   0.639181
 Mulliken charges:
               1
     1  C   -0.086187
     2  H    0.025260
     3  C   -0.085768
     4  H    0.022951
     5  C   -0.030273
     6  H    0.042026
     7  H    0.048314
     8  C   -0.035827
     9  H    0.050648
    10  H    0.048857
 Sum of Mulliken charges =   0.00000
 Mulliken charges with hydrogens summed into heavy atoms:
               1
     1  C   -0.060927
     3  C   -0.062817
     5  C    0.060066
     8  C    0.063678
 Electronic spatial extent (au):  <R**2>=            298.2102
 Charge=              0.0000 electrons
 Dipole moment (field-independent basis, Debye):
    X=             -0.0061    Y=              0.0799    Z=             -0.0018  Tot=              0.0801
 Quadrupole moment (field-independent basis, Debye-Ang):
   XX=            -22.8242   YY=            -22.2711   ZZ=            -28.0937
   XY=              0.0557   XZ=              0.3591   YZ=             -0.1017
 Traceless Quadrupole moment (field-independent basis, Debye-Ang):
   XX=              1.5721   YY=              2.1252   ZZ=             -3.6973
   XY=              0.0557   XZ=              0.3591   YZ=             -0.1017
 Octapole moment (field-independent basis, Debye-Ang**2):
  XXX=              0.4962  YYY=              0.9005  ZZZ=             -0.0108  XYY=             -0.0530
  XXY=              0.3759  XXZ=             -1.4154  XZZ=             -0.2405  YZZ=             -0.1000
  YYZ=              0.5378  XYZ=             -0.0974
 Hexadecapole moment (field-independent basis, Debye-Ang**3):
 XXXX=           -244.4106 YYYY=           -101.6856 ZZZZ=            -31.3890 XXXY=              0.1328
 XXXZ=              3.7683 YYYX=              0.0627 YYYZ=             -0.4138 ZZZX=              0.3873
 ZZZY=             -0.0809 XXYY=            -60.1237 XXZZ=            -55.0947 YYZZ=            -24.2108
 XXYZ=              0.5559 YYXZ=             -0.3209 ZZXY=              0.1845
 N-N= 1.047009307365D+02 E-N=-5.700611148579D+02  KE= 1.546467953356D+02
 No NMR shielding tensors so no spin-rotation constants.
 Leave Link  601 at Fri May 26 09:55:18 2023, MaxMem=  2147483648 cpu:               0.0 elap:               0.4
 (Enter C:\G16W\l701.exe)
 ... and contract with generalized density number  0.
 Compute integral first derivatives.
 D1PCM: PCM CHGder 1st derivatives, ID1Alg=3 FixD1E=F DoIter=F DoCFld=F I1PDM=0.
 GePol: Maximum number of non-zero 1st derivatives   =     239
 Leave Link  701 at Fri May 26 09:55:20 2023, MaxMem=  2147483648 cpu:               1.0 elap:               1.1
 (Enter C:\G16W\l702.exe)
 L702 exits ... SP integral derivatives will be done elsewhere.
 Leave Link  702 at Fri May 26 09:55:20 2023, MaxMem=  2147483648 cpu:               0.0 elap:               0.3
 (Enter C:\G16W\l703.exe)
 Integral derivatives from FoFJK, PRISM(SPDF).
 Compute integral first derivatives, UseDBF=F ICtDFT=           0.
 Calling FoFJK, ICntrl=      2127 FMM=F ISym2X=0 I1Cent= 0 IOpClX= 0 NMat=1 NMatS=1 NMatT=0.
 FoFJK:  IHMeth= 1 ICntrl=    2127 DoSepK=F KAlg= 0 I1Cent=           0 FoldK=F
 IRaf=         0 NMat=       1 IRICut=       1 DoRegI=T DoRafI=F ISym2E= 0 IDoP0=0 IntGTp=1.
 FoFCou: FMM=F IPFlag=           0 FMFlag=      100000 FMFlg1=         800
         NFxFlg=           0 DoJE=F BraDBF=F KetDBF=F FulRan=T
         wScrn=  0.000000 ICntrl=      2127 IOpCl=  0 I1Cent=           0 NGrid=           0
         NMat0=    1 NMatS0=      1 NMatT0=    0 NMatD0=    1 NMtDS0=    0 NMtDT0=    0
 Symmetry not used in FoFCou.
 Leave Link  703 at Fri May 26 09:55:22 2023, MaxMem=  2147483648 cpu:               1.0 elap:               1.1
 (Enter C:\G16W\l716.exe)
 Dipole        =-2.39746551D-03 3.14238749D-02-6.93665593D-04
 ***** Axes restored to original set *****
 -------------------------------------------------------------------
 Center     Atomic                   Forces (Hartrees/Bohr)
 Number     Number              X              Y              Z
 -------------------------------------------------------------------
      1        6           0.048901937   -0.013990402   -0.000175760
      2        1          -0.017789491   -0.003545898    0.009556152
      3        6           0.014319706    0.049664387   -0.008559891
      4        1          -0.011655959   -0.013394573   -0.000087039
      5        6          -0.041047285   -0.007869756    0.000730612
      6        1           0.012724353    0.010884724    0.001081084
      7        1           0.010656975   -0.013185409   -0.000187158
      8        6          -0.026476125   -0.030462713   -0.001888486
      9        1          -0.007920139    0.017035331   -0.005284974
     10        1           0.018286029    0.004864310    0.004815459
 -------------------------------------------------------------------
 Cartesian Forces:  Max     0.049664387 RMS     0.018954915
 Leave Link  716 at Fri May 26 09:55:22 2023, MaxMem=  2147483648 cpu:               0.0 elap:               0.3
 (Enter C:\G16W\l103.exe)

 GradGradGradGradGradGradGradGradGradGradGradGradGradGradGradGradGradGrad
 Berny optimization.
 FormGI is forming the generalized inverse of G from B-inverse, IUseBI=4.
 Internal  Forces:  Max     0.030103879 RMS     0.012586412
 Search for a local minimum.
 Step number   1 out of a maximum of   43
 All quantities printed in internal units (Hartrees-Bohrs-Radians)
 RMS Force = .12586D-01 SwitMx=.10000D-02 MixMth= 1
 Mixed Optimization -- RFO/linear search
 Second derivative matrix not updated -- first step.
 ITU=  0
     Eigenvalues ---    0.00237   0.01459   0.01459   0.02681   0.02681
     Eigenvalues ---    0.02681   0.02681   0.16000   0.16000   0.16000
     Eigenvalues ---    0.16000   0.16000   0.16000   0.22000   0.22000
     Eigenvalues ---    0.28519   0.37230   0.37230   0.37230   0.37230
     Eigenvalues ---    0.37230   0.37258   0.53930   0.53930
 RFO step:  Lambda=-2.14650011D-02 EMin= 2.36824131D-03
 Linear search not attempted -- first point.
 Iteration  1 RMS(Cart)=  0.14011967 RMS(Int)=  0.00769071
 Iteration  2 RMS(Cart)=  0.01181701 RMS(Int)=  0.00010637
 Iteration  3 RMS(Cart)=  0.00009571 RMS(Int)=  0.00008287
 Iteration  4 RMS(Cart)=  0.00000001 RMS(Int)=  0.00008287
 ITry= 1 IFail=0 DXMaxC= 3.44D-01 DCOld= 1.00D+10 DXMaxT= 3.00D-01 DXLimC= 3.00D+00 Rises=F
 Variable       Old X    -DE/DX   Delta X   Delta X   Delta X     New X
                                 (Linear)    (Quad)   (Total)
    R1        2.02201   0.01779   0.00000   0.04518   0.04518   2.06718
    R2        2.91018  -0.03010   0.00000  -0.09817  -0.09817   2.81201
    R3        2.56096  -0.01545   0.00000  -0.02756  -0.02756   2.53340
    R4        2.02201   0.01744   0.00000   0.04429   0.04429   2.06630
    R5        2.56096  -0.01760   0.00000  -0.03139  -0.03139   2.52956
    R6        2.02201   0.01584   0.00000   0.04024   0.04024   2.06224
    R7        2.02201   0.01673   0.00000   0.04248   0.04248   2.06448
    R8        2.02201   0.01690   0.00000   0.04293   0.04293   2.06493
    R9        2.02160   0.01665   0.00000   0.04226   0.04226   2.06386
    A1        2.09241  -0.01519   0.00000  -0.06782  -0.06789   2.02453
    A2        2.09241  -0.00802   0.00000  -0.02830  -0.02837   2.06404
    A3        2.09836   0.02321   0.00000   0.09612   0.09605   2.19441
    A4        2.09241  -0.01504   0.00000  -0.06690  -0.06696   2.02545
    A5        2.09836   0.02336   0.00000   0.09673   0.09667   2.19502
    A6        2.09241  -0.00831   0.00000  -0.02983  -0.02989   2.06252
    A7        2.09836   0.00544   0.00000   0.02998   0.02994   2.12830
    A8        2.09241   0.00008   0.00000   0.00044   0.00041   2.09282
    A9        2.09241  -0.00552   0.00000  -0.03042  -0.03046   2.06196
   A10        2.09836  -0.00030   0.00000  -0.00166  -0.00170   2.09666
   A11        2.09253   0.00602   0.00000   0.03315   0.03311   2.12564
   A12        2.09230  -0.00571   0.00000  -0.03148  -0.03153   2.06077
    D1        0.00000   0.00062   0.00000   0.03739   0.03761   0.03761
    D2        3.14159   0.00140   0.00000   0.05908   0.05910  -3.08250
    D3        3.14159   0.00144   0.00000   0.06007   0.06005  -3.08154
    D4        0.00000   0.00222   0.00000   0.08176   0.08154   0.08154
    D5        0.28444  -0.00779   0.00000  -0.15841  -0.15829   0.12614
    D6       -2.85808  -0.00694   0.00000  -0.14081  -0.14070  -2.99878
    D7       -2.85716  -0.00860   0.00000  -0.18109  -0.18120  -3.03836
    D8        0.28351  -0.00775   0.00000  -0.16349  -0.16360   0.11991
    D9        0.00000   0.00056   0.00000   0.00878   0.00868   0.00868
   D10        3.14159  -0.00023   0.00000  -0.00745  -0.00755   3.13404
   D11        3.14159   0.00134   0.00000   0.03048   0.03058  -3.11101
   D12        0.00000   0.00056   0.00000   0.01425   0.01435   0.01435
         Item               Value     Threshold  Converged?
 Maximum Force            0.030104     0.000015     NO 
 RMS     Force            0.012586     0.000010     NO 
 Maximum Displacement     0.343831     0.000060     NO 
 RMS     Displacement     0.146242     0.000040     NO 
 Predicted change in Energy=-1.262880D-02
 Lowest energy point so far.  Saving SCF results.
 GradGradGradGradGradGradGradGradGradGradGradGradGradGradGradGradGradGrad

 Leave Link  103 at Fri May 26 09:55:23 2023, MaxMem=  2147483648 cpu:               0.0 elap:               0.3
 (Enter C:\G16W\l202.exe)
                          Input orientation:                          
 ---------------------------------------------------------------------
 Center     Atomic      Atomic             Coordinates (Angstroms)
 Number     Number       Type             X           Y           Z
 ---------------------------------------------------------------------
      1          6           0       -1.870560    1.488394    0.033550
      2          1           0       -2.960756    1.413440    0.083435
      3          6           0       -1.129462    0.198785   -0.010915
      4          1           0       -1.742070   -0.706794   -0.026656
      5          6           0        0.202030    0.061150   -0.009425
      6          1           0        0.871404    0.921941    0.034097
      7          1           0        0.646597   -0.936392   -0.037302
      8          6           0       -1.319459    2.709834   -0.006803
      9          1           0       -1.942309    3.597352    0.128829
     10          1           0       -0.252251    2.853804   -0.188809
 ---------------------------------------------------------------------
                    Distance matrix (angstroms):
                    1          2          3          4          5
     1  C    0.000000
     2  H    1.093907   0.000000
     3  C    1.488051   2.199529   0.000000
     4  H    2.199770   2.448001   1.093439   0.000000
     5  C    2.516844   3.441006   1.338587   2.090349   0.000000
     6  H    2.799863   3.863865   2.128014   3.080051   1.091292
     7  H    3.495811   4.306888   2.108011   2.399700   1.092478
     8  C    1.340618   2.093474   2.518231   3.442723   3.054581
     9  H    2.112328   2.410138   3.497215   4.311606   4.137878
    10  H    2.129016   3.079733   2.801833   3.863122   2.835043
                    6          7          8          9         10
     6  H    0.000000
     7  H    1.873243   0.000000
     8  C    2.828093   4.142617   0.000000
     9  H    3.883784   5.223492   1.092715   0.000000
    10  H    2.245970   3.898265   1.092147   1.873513   0.000000
 Stoichiometry    C4H6
 Framework group  C1[X(C4H6)]
 Deg. of freedom    24
 Full point group                 C1      NOp   1
 RotChk:  IX=0 Diff= 1.66D-02
 Largest Abelian subgroup         C1      NOp   1
 Largest concise Abelian subgroup C1      NOp   1
                         Standard orientation:                         
 ---------------------------------------------------------------------
 Center     Atomic      Atomic             Coordinates (Angstroms)
 Number     Number       Type             X           Y           Z
 ---------------------------------------------------------------------
      1          6           0       -0.742957    0.574962   -0.010945
      2          1           0       -1.220519    1.558896   -0.031962
      3          6           0        0.744801    0.572540    0.018500
      4          1           0        1.225988    1.553788    0.053414
      5          6           0        1.526260   -0.513668   -0.017438
      6          1           0        1.111875   -1.521192   -0.081458
      7          1           0        2.613019   -0.403781    0.002198
      8          6           0       -1.528190   -0.511405    0.010743
      9          1           0       -2.609231   -0.409328   -0.111555
     10          1           0       -1.120605   -1.512959    0.164202
 ---------------------------------------------------------------------
 Rotational constants (GHZ):          20.9607412           5.7047157           4.4890980
 Leave Link  202 at Fri May 26 09:55:24 2023, MaxMem=  2147483648 cpu:               1.0 elap:               0.3
 (Enter C:\G16W\l301.exe)
 Standard basis: CC-pVDZ (5D, 7F)
 Ernie: Thresh=  0.10000D-02 Tol=  0.10000D-05 Strict=F.
 Ernie:  8 primitive shells out of 118 were deleted.
 There are    90 symmetry adapted cartesian basis functions of A   symmetry.
 There are    86 symmetry adapted basis functions of A   symmetry.
    86 basis functions,   174 primitive gaussians,    90 cartesian basis functions
    15 alpha electrons       15 beta electrons
       nuclear repulsion energy       104.3627971465 Hartrees.
 IExCor= 4235 DFT=T Ex+Corr=M06 ExCW=0 ScaHFX=  0.270000
 ScaDFX=  1.000000  1.000000  1.000000  1.000000 ScalE2=  1.000000  1.000000
 IRadAn=      5 IRanWt=     -1 IRanGd=            0 ICorTp=0 IEmpDi=  4
 NAtoms=   10 NActive=   10 NUniq=   10 SFac= 1.00D+00 NAtFMM=   60 NAOKFM=F Big=F
 Integral buffers will be    131072 words long.
 Raffenetti 2 integral format.
 Two-electron integral symmetry is turned on.
 ------------------------------------------------------------------------------
 Polarizable Continuum Model (PCM)
 =================================
 Model                : PCM.
 Atomic radii         : SMD-Coulomb.
 Polarization charges : Total charges.
 Charge compensation  : None.
 Solution method      : On-the-fly selection.
 Cavity type          : VdW (van der Waals Surface) (Alpha=1.000).
 Cavity algorithm     : GePol (No added spheres)
                        Default sphere list used, NSphG=   10.
                        Lebedev-Laikov grids with approx.  5.0 points / Ang**2.
                        Smoothing algorithm: York/Karplus (Gamma=1.0000).
                        Polarization charges: spherical gaussians, with
                                              point-specific exponents (IZeta= 3).
                        Self-potential: point-specific (ISelfS= 7).
                        Self-field    : sphere-specific E.n sum rule (ISelfD= 2).
 1st derivatives      : Analytical E(r).r(x)/FMM algorithm (CHGder, D1EAlg=3).
                        Cavity 1st derivative terms included.
 Solvent              : Chloroform, Eps=   4.711300 Eps(inf)=   2.090627
 ------------------------------------------------------------------------------
 Spheres list:
 ISph  on   Nord     Re0    Alpha      Xe            Ye            Ze
    1   C      1    1.8500  1.000     -0.742957      0.574962     -0.010945
    2   H      2    1.2000  1.000     -1.220519      1.558896     -0.031962
    3   C      3    1.8500  1.000      0.744801      0.572540      0.018500
    4   H      4    1.2000  1.000      1.225988      1.553788      0.053414
    5   C      5    1.8500  1.000      1.526260     -0.513668     -0.017438
    6   H      6    1.2000  1.000      1.111875     -1.521192     -0.081458
    7   H      7    1.2000  1.000      2.613019     -0.403781      0.002198
    8   C      8    1.8500  1.000     -1.528190     -0.511405      0.010743
    9   H      9    1.2000  1.000     -2.609231     -0.409328     -0.111555
   10   H     10    1.2000  1.000     -1.120605     -1.512959      0.164202
 ------------------------------------------------------------------------------
 GePol: Number of generator spheres                  =      10
 GePol: Total number of spheres                      =      10
 GePol: Number of exposed spheres                    =      10 (100.00%)
 GePol: Number of points                             =     843
 GePol: Average weight of points                     =       0.12
 GePol: Minimum weight of points                     =   0.16D-07
 GePol: Maximum weight of points                     =    0.17992
 GePol: Number of points with low weight             =      37
 GePol: Fraction of low-weight points (<1% of avg)   =       4.39%
 GePol: Cavity surface area                          =    101.075 Ang**2
 GePol: Cavity volume                                =     76.633 Ang**3
 ------------------------------------------------------------------------------
 Atomic radii for non-electrostatic terms: SMD-CDS.
 ------------------------------------------------------------------------------
 PCM non-electrostatic energy =        -0.0013025050 Hartrees.
 Nuclear repulsion after PCM non-electrostatic terms =      104.3614946415 Hartrees.
 Leave Link  301 at Fri May 26 09:55:24 2023, MaxMem=  2147483648 cpu:               0.0 elap:               0.2
 (Enter C:\G16W\l302.exe)
 NPDir=0 NMtPBC=     1 NCelOv=     1 NCel=       1 NClECP=     1 NCelD=      1
         NCelK=      1 NCelE2=     1 NClLst=     1 CellRange=     0.0.
 One-electron integrals computed using PRISM.
 One-electron integral symmetry used in STVInt
 NBasis=    86 RedAO= T EigKep=  1.83D-03  NBF=    86
 NBsUse=    86 1.00D-06 EigRej= -1.00D+00 NBFU=    86
 Precomputing XC quadrature grid using
 IXCGrd= 4 IRadAn=           5 IRanWt=          -1 IRanGd=           0 AccXCQ= 0.00D+00.
 Generated NRdTot=       0 NPtTot=           0 NUsed=           0 NTot=          32
 NSgBfM=    90    90    90    90    90 MxSgAt=    10 MxSgA2=    10.
 Leave Link  302 at Fri May 26 09:55:25 2023, MaxMem=  2147483648 cpu:               1.0 elap:               0.5
 (Enter C:\G16W\l303.exe)
 DipDrv:  MaxL=1.
 Leave Link  303 at Fri May 26 09:55:25 2023, MaxMem=  2147483648 cpu:               0.0 elap:               0.2
 (Enter C:\G16W\l401.exe)
 Initial guess from the checkpoint file:  "butadiene.chk"
 B after Tr=     0.000000    0.000000    0.000000
         Rot=    0.999997   -0.002483    0.000788   -0.000384 Ang=  -0.30 deg.
 Guess basis will be translated and rotated to current coordinates.
 JPrj=2 DoOrth=T DoCkMO=T.
 Generating alternative initial guess.
 ExpMin= 1.22D-01 ExpMax= 6.67D+03 ExpMxC= 2.28D+02 IAcc=3 IRadAn=         5 AccDes= 0.00D+00
 Harris functional with IExCor= 1009 and IRadAn=       5 diagonalized for initial guess.
 HarFok:  IExCor= 1009 AccDes= 0.00D+00 IRadAn=         5 IDoV= 1 UseB2=F ITyADJ=14
 ICtDFT=  3500011 ScaDFX=  1.000000  1.000000  1.000000  1.000000
 FoFCou: FMM=F IPFlag=           0 FMFlag=      100000 FMFlg1=           0
         NFxFlg=           0 DoJE=T BraDBF=F KetDBF=T FulRan=T
         wScrn=  0.000000 ICntrl=       500 IOpCl=  0 I1Cent=   200000004 NGrid=           0
         NMat0=    1 NMatS0=      1 NMatT0=    0 NMatD0=    1 NMtDS0=    0 NMtDT0=    0
 Petite list used in FoFCou.
 Harris En= -155.874950803608    
 Leave Link  401 at Fri May 26 09:55:26 2023, MaxMem=  2147483648 cpu:               0.0 elap:               0.8
 (Enter C:\G16W\l502.exe)
 Keep R1 ints in memory in canonical form, NReq=21641951.
 FoFCou: FMM=F IPFlag=           0 FMFlag=           0 FMFlg1=           0
         NFxFlg=           0 DoJE=F BraDBF=F KetDBF=F FulRan=T
         wScrn=  0.000000 ICntrl=       600 IOpCl=  0 I1Cent=           0 NGrid=           0
         NMat0=    1 NMatS0=   3741 NMatT0=    0 NMatD0=    1 NMtDS0=    0 NMtDT0=    0
 Symmetry not used in FoFCou.
 Two-electron integral symmetry not used.
 Closed shell SCF:
 Using DIIS extrapolation, IDIIS=  1040.
 NGot=  2147483648 LenX=  2140465243 LenY=  2140456702
 Requested convergence on RMS density matrix=1.00D-08 within 128 cycles.
 Requested convergence on MAX density matrix=1.00D-06.
 Requested convergence on             energy=1.00D-06.
 No special actions if energy rises.

 Cycle   1  Pass 1  IDiag  1:
 Inv3:  Mode=1 IEnd=     2131947.
 Iteration    1 A*A^-1 deviation from unit magnitude is 3.89D-15 for    242.
 Iteration    1 A*A^-1 deviation from orthogonality  is 3.18D-15 for    442    219.
 Iteration    1 A^-1*A deviation from unit magnitude is 3.66D-15 for    302.
 Iteration    1 A^-1*A deviation from orthogonality  is 2.11D-15 for    821    377.
 E= -155.841723868258    
 DIIS: error= 1.07D-02 at cycle   1 NSaved=   1.
 NSaved= 1 IEnMin= 1 EnMin= -155.841723868258     IErMin= 1 ErrMin= 1.07D-02
 ErrMax= 1.07D-02  0.00D+00 EMaxC= 1.00D-01 BMatC= 6.89D-03 BMatP= 6.89D-03
 IDIUse=3 WtCom= 8.93D-01 WtEn= 1.07D-01
 Coeff-Com:  0.100D+01
 Coeff-En:   0.100D+01
 Coeff:      0.100D+01
 Recover alternate guess density for next cycle.
 RMSDP=3.93D-03 MaxDP=4.90D-02              OVMax= 0.00D+00

 Cycle   2  Pass 1  IDiag  1:
 E= -155.743009413629     Delta-E=        0.098714454629 Rises=F Damp=F
 Switch densities from cycles 1 and 2 for lowest energy.
 DIIS: error= 4.16D-02 at cycle   2 NSaved=   2.
 NSaved= 2 IEnMin= 1 EnMin= -155.841723868258     IErMin= 1 ErrMin= 1.07D-02
 ErrMax= 4.16D-02  0.00D+00 EMaxC= 1.00D+00 BMatC= 8.85D-02 BMatP= 6.89D-03
 IDIUse=1 WtCom= 1.00D+00 WtEn= 0.00D+00
 Coeff-Com:  0.921D+00 0.793D-01
 Coeff:      0.921D+00 0.793D-01
 Gap=     0.216 Goal=   None    Shift=    0.000
 RMSDP=1.63D-03 MaxDP=2.04D-02 DE= 9.87D-02 OVMax= 7.92D-02

 Cycle   3  Pass 1  IDiag  1:
 E= -155.853289711017     Delta-E=       -0.110280297388 Rises=F Damp=F
 DIIS: error= 2.55D-03 at cycle   3 NSaved=   3.
 NSaved= 3 IEnMin= 3 EnMin= -155.853289711017     IErMin= 3 ErrMin= 2.55D-03
 ErrMax= 2.55D-03  0.00D+00 EMaxC= 1.00D+00 BMatC= 5.15D-04 BMatP= 6.89D-03
 IDIUse=1 WtCom= 1.00D+00 WtEn= 0.00D+00
 Coeff-Com: -0.538D-01 0.639D-01 0.990D+00
 Coeff:     -0.538D-01 0.639D-01 0.990D+00
 Gap=     0.214 Goal=   None    Shift=    0.000
 RMSDP=3.38D-04 MaxDP=6.91D-03 DE=-1.10D-01 OVMax= 1.10D-02

 Cycle   4  Pass 1  IDiag  1:
 E= -155.853691996442     Delta-E=       -0.000402285425 Rises=F Damp=F
 DIIS: error= 2.03D-03 at cycle   4 NSaved=   4.
 NSaved= 4 IEnMin= 4 EnMin= -155.853691996442     IErMin= 4 ErrMin= 2.03D-03
 ErrMax= 2.03D-03  0.00D+00 EMaxC= 1.00D+00 BMatC= 2.41D-04 BMatP= 5.15D-04
 IDIUse=1 WtCom= 1.00D+00 WtEn= 0.00D+00
 Coeff-Com: -0.483D-01 0.371D-01 0.598D+00 0.413D+00
 Coeff:     -0.483D-01 0.371D-01 0.598D+00 0.413D+00
 Gap=     0.214 Goal=   None    Shift=    0.000
 RMSDP=1.49D-04 MaxDP=3.29D-03 DE=-4.02D-04 OVMax= 6.50D-03

 Cycle   5  Pass 1  IDiag  1:
 E= -155.853941319867     Delta-E=       -0.000249323425 Rises=F Damp=F
 DIIS: error= 1.55D-04 at cycle   5 NSaved=   5.
 NSaved= 5 IEnMin= 5 EnMin= -155.853941319867     IErMin= 5 ErrMin= 1.55D-04
 ErrMax= 1.55D-04  0.00D+00 EMaxC= 1.00D+00 BMatC= 1.62D-06 BMatP= 2.41D-04
 IDIUse=1 WtCom= 1.00D+00 WtEn= 0.00D+00
 Coeff-Com: -0.357D-03-0.168D-02-0.171D-01 0.593D-01 0.960D+00
 Coeff:     -0.357D-03-0.168D-02-0.171D-01 0.593D-01 0.960D+00
 Gap=     0.214 Goal=   None    Shift=    0.000
 RMSDP=1.85D-05 MaxDP=3.15D-04 DE=-2.49D-04 OVMax= 6.41D-04

 Cycle   6  Pass 1  IDiag  1:
 E= -155.853943612142     Delta-E=       -0.000002292275 Rises=F Damp=F
 DIIS: error= 1.52D-05 at cycle   6 NSaved=   6.
 NSaved= 6 IEnMin= 6 EnMin= -155.853943612142     IErMin= 6 ErrMin= 1.52D-05
 ErrMax= 1.52D-05  0.00D+00 EMaxC= 1.00D+00 BMatC= 2.96D-08 BMatP= 1.62D-06
 IDIUse=1 WtCom= 1.00D+00 WtEn= 0.00D+00
 Coeff-Com:  0.100D-02-0.101D-02-0.150D-01-0.608D-02 0.888D-01 0.932D+00
 Coeff:      0.100D-02-0.101D-02-0.150D-01-0.608D-02 0.888D-01 0.932D+00
 Gap=     0.214 Goal=   None    Shift=    0.000
 RMSDP=3.73D-06 MaxDP=5.61D-05 DE=-2.29D-06 OVMax= 1.32D-04

 Cycle   7  Pass 1  IDiag  1:
 E= -155.853943656979     Delta-E=       -0.000000044837 Rises=F Damp=F
 DIIS: error= 1.30D-05 at cycle   7 NSaved=   7.
 NSaved= 7 IEnMin= 7 EnMin= -155.853943656979     IErMin= 7 ErrMin= 1.30D-05
 ErrMax= 1.30D-05  0.00D+00 EMaxC= 1.00D+00 BMatC= 1.25D-08 BMatP= 2.96D-08
 IDIUse=1 WtCom= 1.00D+00 WtEn= 0.00D+00
 Coeff-Com:  0.437D-03-0.330D-03-0.561D-02-0.581D-02-0.125D-01 0.423D+00
 Coeff-Com:  0.601D+00
 Coeff:      0.437D-03-0.330D-03-0.561D-02-0.581D-02-0.125D-01 0.423D+00
 Coeff:      0.601D+00
 Gap=     0.214 Goal=   None    Shift=    0.000
 RMSDP=1.36D-06 MaxDP=2.85D-05 DE=-4.48D-08 OVMax= 6.50D-05

 Cycle   8  Pass 1  IDiag  1:
 E= -155.853943668612     Delta-E=       -0.000000011633 Rises=F Damp=F
 DIIS: error= 4.58D-06 at cycle   8 NSaved=   8.
 NSaved= 8 IEnMin= 8 EnMin= -155.853943668612     IErMin= 8 ErrMin= 4.58D-06
 ErrMax= 4.58D-06  0.00D+00 EMaxC= 1.00D+00 BMatC= 1.77D-09 BMatP= 1.25D-08
 IDIUse=1 WtCom= 1.00D+00 WtEn= 0.00D+00
 Coeff-Com:  0.315D-04 0.246D-04-0.116D-03-0.170D-02-0.215D-01 0.469D-01
 Coeff-Com:  0.291D+00 0.686D+00
 Coeff:      0.315D-04 0.246D-04-0.116D-03-0.170D-02-0.215D-01 0.469D-01
 Coeff:      0.291D+00 0.686D+00
 Gap=     0.214 Goal=   None    Shift=    0.000
 RMSDP=5.05D-07 MaxDP=1.11D-05 DE=-1.16D-08 OVMax= 2.66D-05

 Cycle   9  Pass 1  IDiag  1:
 E= -155.853943670481     Delta-E=       -0.000000001869 Rises=F Damp=F
 DIIS: error= 1.36D-06 at cycle   9 NSaved=   9.
 NSaved= 9 IEnMin= 9 EnMin= -155.853943670481     IErMin= 9 ErrMin= 1.36D-06
 ErrMax= 1.36D-06  0.00D+00 EMaxC= 1.00D+00 BMatC= 1.09D-10 BMatP= 1.77D-09
 IDIUse=1 WtCom= 1.00D+00 WtEn= 0.00D+00
 Coeff-Com: -0.714D-05 0.250D-04 0.218D-03-0.354D-03-0.761D-02-0.645D-02
 Coeff-Com:  0.814D-01 0.290D+00 0.643D+00
 Coeff:     -0.714D-05 0.250D-04 0.218D-03-0.354D-03-0.761D-02-0.645D-02
 Coeff:      0.814D-01 0.290D+00 0.643D+00
 Gap=     0.214 Goal=   None    Shift=    0.000
 RMSDP=1.47D-07 MaxDP=2.80D-06 DE=-1.87D-09 OVMax= 6.74D-06

 Cycle  10  Pass 1  IDiag  1:
 E= -155.853943670599     Delta-E=       -0.000000000117 Rises=F Damp=F
 DIIS: error= 4.05D-07 at cycle  10 NSaved=  10.
 NSaved=10 IEnMin=10 EnMin= -155.853943670599     IErMin=10 ErrMin= 4.05D-07
 ErrMax= 4.05D-07  0.00D+00 EMaxC= 1.00D+00 BMatC= 1.25D-11 BMatP= 1.09D-10
 IDIUse=1 WtCom= 1.00D+00 WtEn= 0.00D+00
 Coeff-Com: -0.480D-05 0.524D-05 0.813D-04 0.668D-04-0.211D-03-0.885D-02
 Coeff-Com: -0.419D-02 0.329D-01 0.283D+00 0.697D+00
 Coeff:     -0.480D-05 0.524D-05 0.813D-04 0.668D-04-0.211D-03-0.885D-02
 Coeff:     -0.419D-02 0.329D-01 0.283D+00 0.697D+00
 Gap=     0.214 Goal=   None    Shift=    0.000
 RMSDP=4.30D-08 MaxDP=6.52D-07 DE=-1.17D-10 OVMax= 1.57D-06

 Cycle  11  Pass 1  IDiag  1:
 E= -155.853943670616     Delta-E=       -0.000000000017 Rises=F Damp=F
 DIIS: error= 3.36D-08 at cycle  11 NSaved=  11.
 NSaved=11 IEnMin=11 EnMin= -155.853943670616     IErMin=11 ErrMin= 3.36D-08
 ErrMax= 3.36D-08  0.00D+00 EMaxC= 1.00D+00 BMatC= 1.03D-13 BMatP= 1.25D-11
 IDIUse=1 WtCom= 1.00D+00 WtEn= 0.00D+00
 Coeff-Com: -0.588D-06 0.459D-07 0.569D-05 0.174D-04 0.192D-03-0.901D-03
 Coeff-Com: -0.303D-02-0.457D-02 0.127D-01 0.853D-01 0.910D+00
 Coeff:     -0.588D-06 0.459D-07 0.569D-05 0.174D-04 0.192D-03-0.901D-03
 Coeff:     -0.303D-02-0.457D-02 0.127D-01 0.853D-01 0.910D+00
 Gap=     0.214 Goal=   None    Shift=    0.000
 RMSDP=6.91D-09 MaxDP=9.11D-08 DE=-1.72D-11 OVMax= 2.11D-07

 Error on total polarization charges =  0.02651
 SCF Done:  E(RM06) =  -155.853943671     A.U. after   11 cycles
            NFock= 11  Conv=0.69D-08     -V/T= 2.0081
 KE= 1.546033401163D+02 PE=-5.693602620188D+02 EE= 1.545414835904D+02
 SMD-CDS (non-electrostatic) energy       (kcal/mol) =      -0.82
 (included in total energy above)
 Leave Link  502 at Fri May 26 09:55:46 2023, MaxMem=  2147483648 cpu:              19.0 elap:              19.7
 (Enter C:\G16W\l701.exe)
 ... and contract with generalized density number  0.
 Compute integral first derivatives.
 D1PCM: PCM CHGder 1st derivatives, ID1Alg=3 FixD1E=F DoIter=F DoCFld=F I1PDM=0.
 GePol: Maximum number of non-zero 1st derivatives   =     234
 Leave Link  701 at Fri May 26 09:55:50 2023, MaxMem=  2147483648 cpu:               3.0 elap:               3.3
 (Enter C:\G16W\l702.exe)
 L702 exits ... SP integral derivatives will be done elsewhere.
 Leave Link  702 at Fri May 26 09:55:51 2023, MaxMem=  2147483648 cpu:               0.0 elap:               0.9
 (Enter C:\G16W\l703.exe)
 Integral derivatives from FoFJK, PRISM(SPDF).
 Compute integral first derivatives, UseDBF=F ICtDFT=           0.
 Calling FoFJK, ICntrl=      2127 FMM=F ISym2X=0 I1Cent= 0 IOpClX= 0 NMat=1 NMatS=1 NMatT=0.
 FoFJK:  IHMeth= 1 ICntrl=    2127 DoSepK=F KAlg= 0 I1Cent=           0 FoldK=F
 IRaf=         0 NMat=       1 IRICut=       1 DoRegI=T DoRafI=F ISym2E= 0 IDoP0=0 IntGTp=1.
 FoFCou: FMM=F IPFlag=           0 FMFlag=      100000 FMFlg1=         800
         NFxFlg=           0 DoJE=F BraDBF=F KetDBF=F FulRan=T
         wScrn=  0.000000 ICntrl=      2127 IOpCl=  0 I1Cent=           0 NGrid=           0
         NMat0=    1 NMatS0=      1 NMatT0=    0 NMatD0=    1 NMtDS0=    0 NMtDT0=    0
 Symmetry not used in FoFCou.
 Leave Link  703 at Fri May 26 09:55:53 2023, MaxMem=  2147483648 cpu:               1.0 elap:               1.6
 (Enter C:\G16W\l716.exe)
 Dipole        =-1.31353437D-04 2.65176391D-02 9.43985413D-04
 ***** Axes restored to original set *****
 -------------------------------------------------------------------
 Center     Atomic                   Forces (Hartrees/Bohr)
 Number     Number              X              Y              Z
 -------------------------------------------------------------------
      1        6           0.009516246   -0.007772293   -0.001868898
      2        1          -0.001402088   -0.001205533    0.004780958
      3        6          -0.003892364    0.012625770   -0.001785998
      4        1          -0.002127049   -0.000895635   -0.000854757
      5        6          -0.005424714   -0.002301090    0.000768821
      6        1           0.002848303    0.001186436   -0.000097055
      7        1           0.002145934    0.000331793   -0.000131812
      8        6          -0.004989061   -0.005198229   -0.000986122
      9        1           0.000660127    0.001536008   -0.003503535
     10        1           0.002664666    0.001692774    0.003678397
 -------------------------------------------------------------------
 Cartesian Forces:  Max     0.012625770 RMS     0.004105166
 Leave Link  716 at Fri May 26 09:55:54 2023, MaxMem=  2147483648 cpu:               0.0 elap:               0.4
 (Enter C:\G16W\l103.exe)

 GradGradGradGradGradGradGradGradGradGradGradGradGradGradGradGradGradGrad
 Berny optimization.
 Using GEDIIS/GDIIS optimizer.
 FormGI is forming the generalized inverse of G from B-inverse, IUseBI=4.
 Internal  Forces:  Max     0.012637007 RMS     0.002811160
 Search for a local minimum.
 Step number   2 out of a maximum of   43
 All quantities printed in internal units (Hartrees-Bohrs-Radians)
 RMS Force = .28112D-02 SwitMx=.10000D-02 MixMth= 1
 Mixed Optimization -- RFO/linear search
 Update second derivatives using D2CorX and points    1    2
 DE= -1.28D-02 DEPred=-1.26D-02 R= 1.02D+00
 TightC=F SS=  1.41D+00  RLast= 4.20D-01 DXNew= 5.0454D-01 1.2607D+00
 Trust test= 1.02D+00 RLast= 4.20D-01 DXMaxT set to 5.05D-01
 ITU=  1  0
 Use linear search instead of GDIIS.
     Eigenvalues ---    0.00241   0.01484   0.01493   0.02645   0.02682
     Eigenvalues ---    0.02682   0.02786   0.15452   0.15998   0.15999
     Eigenvalues ---    0.16000   0.16000   0.16084   0.22000   0.22096
     Eigenvalues ---    0.26353   0.36930   0.37230   0.37230   0.37230
     Eigenvalues ---    0.37251   0.37797   0.53723   0.54130
 RFO step:  Lambda=-1.97952111D-03 EMin= 2.41165734D-03
 Quartic linear search produced a step of  0.30512.
 Iteration  1 RMS(Cart)=  0.06943222 RMS(Int)=  0.00253141
 Iteration  2 RMS(Cart)=  0.00346844 RMS(Int)=  0.00007928
 Iteration  3 RMS(Cart)=  0.00000416 RMS(Int)=  0.00007920
 Iteration  4 RMS(Cart)=  0.00000000 RMS(Int)=  0.00007920
 ITry= 1 IFail=0 DXMaxC= 2.49D-01 DCOld= 1.00D+10 DXMaxT= 5.05D-01 DXLimC= 3.00D+00 Rises=F
 Variable       Old X    -DE/DX   Delta X   Delta X   Delta X     New X
                                 (Linear)    (Quad)   (Total)
    R1        2.06718   0.00170   0.01378  -0.00780   0.00598   2.07317
    R2        2.81201  -0.01264  -0.02995  -0.02708  -0.05703   2.75498
    R3        2.53340  -0.00246  -0.00841   0.00240  -0.00601   2.52739
    R4        2.06630   0.00195   0.01351  -0.00668   0.00684   2.07314
    R5        2.52956  -0.00035  -0.00958   0.00860  -0.00098   2.52859
    R6        2.06224   0.00268   0.01228  -0.00290   0.00937   2.07162
    R7        2.06448   0.00057   0.01296  -0.01088   0.00208   2.06656
    R8        2.06493   0.00044   0.01310  -0.01149   0.00161   2.06654
    R9        2.06386   0.00221   0.01290  -0.00514   0.00776   2.07162
    A1        2.02453  -0.00190  -0.02071   0.00767  -0.01326   2.01127
    A2        2.06404   0.00045  -0.00866   0.01413   0.00526   2.06930
    A3        2.19441   0.00145   0.02931  -0.02098   0.00811   2.20252
    A4        2.02545  -0.00199  -0.02043   0.00649  -0.01400   2.01145
    A5        2.19502   0.00141   0.02949  -0.02148   0.00796   2.20298
    A6        2.06252   0.00057  -0.00912   0.01541   0.00623   2.06875
    A7        2.12830   0.00066   0.00914  -0.00406   0.00502   2.13332
    A8        2.09282   0.00184   0.00012   0.01464   0.01472   2.10754
    A9        2.06196  -0.00249  -0.00929  -0.01029  -0.01963   2.04233
   A10        2.09666   0.00138  -0.00052   0.01168   0.01107   2.10773
   A11        2.12564   0.00097   0.01010  -0.00255   0.00746   2.13311
   A12        2.06077  -0.00234  -0.00962  -0.00873  -0.01844   2.04233
    D1        0.03761   0.00092   0.01147   0.15397   0.16537   0.20298
    D2       -3.08250   0.00073   0.01803   0.12999   0.14798  -2.93451
    D3       -3.08154   0.00047   0.01832   0.10964   0.12801  -2.95353
    D4        0.08154   0.00028   0.02488   0.08567   0.11062   0.19217
    D5        0.12614  -0.00325  -0.04830  -0.09128  -0.13963  -0.01349
    D6       -2.99878  -0.00374  -0.04293  -0.12033  -0.16332   3.12109
    D7       -3.03836  -0.00282  -0.05529  -0.04613  -0.10137  -3.13972
    D8        0.11991  -0.00331  -0.04992  -0.07519  -0.12505  -0.00514
    D9        0.00868  -0.00009   0.00265  -0.00325  -0.00059   0.00810
   D10        3.13404   0.00023  -0.00230   0.01759   0.01530  -3.13384
   D11       -3.11101  -0.00025   0.00933  -0.02758  -0.01826  -3.12927
   D12        0.01435   0.00007   0.00438  -0.00674  -0.00237   0.01197
         Item               Value     Threshold  Converged?
 Maximum Force            0.012637     0.000015     NO 
 RMS     Force            0.002811     0.000010     NO 
 Maximum Displacement     0.248952     0.000060     NO 
 RMS     Displacement     0.069559     0.000040     NO 
 Predicted change in Energy=-1.516880D-03
 Lowest energy point so far.  Saving SCF results.
 GradGradGradGradGradGradGradGradGradGradGradGradGradGradGradGradGradGrad

 Leave Link  103 at Fri May 26 09:55:55 2023, MaxMem=  2147483648 cpu:               1.0 elap:               0.3
 (Enter C:\G16W\l202.exe)
                          Input orientation:                          
 ---------------------------------------------------------------------
 Center     Atomic      Atomic             Coordinates (Angstroms)
 Number     Number       Type             X           Y           Z
 ---------------------------------------------------------------------
      1          6           0       -1.857404    1.478520    0.053723
      2          1           0       -2.938821    1.388853    0.215175
      3          6           0       -1.133827    0.215337   -0.024969
      4          1           0       -1.762495   -0.679239   -0.114669
      5          6           0        0.195050    0.062023    0.006873
      6          1           0        0.879491    0.912546    0.106471
      7          1           0        0.645190   -0.931923   -0.066333
      8          6           0       -1.323474    2.701480   -0.035850
      9          1           0       -1.952364    3.593123    0.037332
     10          1           0       -0.248183    2.860793   -0.177752
 ---------------------------------------------------------------------
                    Distance matrix (angstroms):
                    1          2          3          4          5
     1  C    0.000000
     2  H    1.097073   0.000000
     3  C    1.457871   2.166290   0.000000
     4  H    2.166399   2.401987   1.097058   0.000000
     5  C    2.494238   3.409548   1.338071   2.096718   0.000000
     6  H    2.795300   3.849441   2.134672   3.092373   1.096252
     7  H    3.476726   4.279063   2.117266   2.421391   1.093579
     8  C    1.337437   2.096509   2.493390   3.410017   3.045402
     9  H    2.116798   2.421473   3.476108   4.279280   4.132915
    10  H    2.133976   3.092011   2.793949   3.850837   2.839658
                    6          7          8          9         10
     6  H    0.000000
     7  H    1.867304   0.000000
     8  C    2.841408   4.132576   0.000000
     9  H    3.899959   5.218628   1.093565   0.000000
    10  H    2.268943   3.898106   1.096252   1.867298   0.000000
 Stoichiometry    C4H6
 Framework group  C1[X(C4H6)]
 Deg. of freedom    24
 Full point group                 C1      NOp   1
 RotChk:  IX=2 Diff= 7.91D-03
 Largest Abelian subgroup         C1      NOp   1
 Largest concise Abelian subgroup C1      NOp   1
                         Standard orientation:                         
 ---------------------------------------------------------------------
 Center     Atomic      Atomic             Coordinates (Angstroms)
 Number     Number       Type             X           Y           Z
 ---------------------------------------------------------------------
      1          6           0       -0.728424    0.567966   -0.034014
      2          1           0       -1.190384    1.554283   -0.165694
      3          6           0        0.727738    0.568023    0.036567
      4          1           0        1.190632    1.556034    0.151013
      5          6           0        1.522582   -0.506362   -0.029419
      6          1           0        1.125616   -1.520488   -0.154858
      7          1           0        2.609041   -0.403316    0.040587
      8          6           0       -1.522234   -0.506492    0.030345
      9          1           0       -2.609054   -0.403662   -0.033947
     10          1           0       -1.123820   -1.521657    0.142026
 ---------------------------------------------------------------------
 Rotational constants (GHZ):          21.1425724           5.7675497           4.5435266
 Leave Link  202 at Fri May 26 09:55:55 2023, MaxMem=  2147483648 cpu:               0.0 elap:               0.2
 (Enter C:\G16W\l301.exe)
 Standard basis: CC-pVDZ (5D, 7F)
 Ernie: Thresh=  0.10000D-02 Tol=  0.10000D-05 Strict=F.
 Ernie:  8 primitive shells out of 118 were deleted.
 There are    90 symmetry adapted cartesian basis functions of A   symmetry.
 There are    86 symmetry adapted basis functions of A   symmetry.
    86 basis functions,   174 primitive gaussians,    90 cartesian basis functions
    15 alpha electrons       15 beta electrons
       nuclear repulsion energy       104.8324308354 Hartrees.
 IExCor= 4235 DFT=T Ex+Corr=M06 ExCW=0 ScaHFX=  0.270000
 ScaDFX=  1.000000  1.000000  1.000000  1.000000 ScalE2=  1.000000  1.000000
 IRadAn=      5 IRanWt=     -1 IRanGd=            0 ICorTp=0 IEmpDi=  4
 NAtoms=   10 NActive=   10 NUniq=   10 SFac= 1.00D+00 NAtFMM=   60 NAOKFM=F Big=F
 Integral buffers will be    131072 words long.
 Raffenetti 2 integral format.
 Two-electron integral symmetry is turned on.
 ------------------------------------------------------------------------------
 Polarizable Continuum Model (PCM)
 =================================
 Model                : PCM.
 Atomic radii         : SMD-Coulomb.
 Polarization charges : Total charges.
 Charge compensation  : None.
 Solution method      : On-the-fly selection.
 Cavity type          : VdW (van der Waals Surface) (Alpha=1.000).
 Cavity algorithm     : GePol (No added spheres)
                        Default sphere list used, NSphG=   10.
                        Lebedev-Laikov grids with approx.  5.0 points / Ang**2.
                        Smoothing algorithm: York/Karplus (Gamma=1.0000).
                        Polarization charges: spherical gaussians, with
                                              point-specific exponents (IZeta= 3).
                        Self-potential: point-specific (ISelfS= 7).
                        Self-field    : sphere-specific E.n sum rule (ISelfD= 2).
 1st derivatives      : Analytical E(r).r(x)/FMM algorithm (CHGder, D1EAlg=3).
                        Cavity 1st derivative terms included.
 Solvent              : Chloroform, Eps=   4.711300 Eps(inf)=   2.090627
 ------------------------------------------------------------------------------
 Spheres list:
 ISph  on   Nord     Re0    Alpha      Xe            Ye            Ze
    1   C      1    1.8500  1.000     -0.728424      0.567966     -0.034014
    2   H      2    1.2000  1.000     -1.190384      1.554283     -0.165694
    3   C      3    1.8500  1.000      0.727738      0.568023      0.036567
    4   H      4    1.2000  1.000      1.190632      1.556034      0.151013
    5   C      5    1.8500  1.000      1.522582     -0.506362     -0.029419
    6   H      6    1.2000  1.000      1.125616     -1.520488     -0.154858
    7   H      7    1.2000  1.000      2.609041     -0.403316      0.040587
    8   C      8    1.8500  1.000     -1.522234     -0.506492      0.030345
    9   H      9    1.2000  1.000     -2.609054     -0.403662     -0.033947
   10   H     10    1.2000  1.000     -1.123820     -1.521657      0.142026
 ------------------------------------------------------------------------------
 GePol: Number of generator spheres                  =      10
 GePol: Total number of spheres                      =      10
 GePol: Number of exposed spheres                    =      10 (100.00%)
 GePol: Number of points                             =     850
 GePol: Average weight of points                     =       0.12
 GePol: Minimum weight of points                     =   0.10D-06
 GePol: Maximum weight of points                     =    0.17992
 GePol: Number of points with low weight             =      47
 GePol: Fraction of low-weight points (<1% of avg)   =       5.53%
 GePol: Cavity surface area                          =    100.450 Ang**2
 GePol: Cavity volume                                =     76.126 Ang**3
 ------------------------------------------------------------------------------
 Atomic radii for non-electrostatic terms: SMD-CDS.
 ------------------------------------------------------------------------------
 PCM non-electrostatic energy =        -0.0013566987 Hartrees.
 Nuclear repulsion after PCM non-electrostatic terms =      104.8310741367 Hartrees.
 Leave Link  301 at Fri May 26 09:55:56 2023, MaxMem=  2147483648 cpu:               0.0 elap:               0.3
 (Enter C:\G16W\l302.exe)
 NPDir=0 NMtPBC=     1 NCelOv=     1 NCel=       1 NClECP=     1 NCelD=      1
         NCelK=      1 NCelE2=     1 NClLst=     1 CellRange=     0.0.
 One-electron integrals computed using PRISM.
 One-electron integral symmetry used in STVInt
 NBasis=    86 RedAO= T EigKep=  1.82D-03  NBF=    86
 NBsUse=    86 1.00D-06 EigRej= -1.00D+00 NBFU=    86
 Precomputing XC quadrature grid using
 IXCGrd= 4 IRadAn=           5 IRanWt=          -1 IRanGd=           0 AccXCQ= 0.00D+00.
 Generated NRdTot=       0 NPtTot=           0 NUsed=           0 NTot=          32
 NSgBfM=    90    90    90    90    90 MxSgAt=    10 MxSgA2=    10.
 Leave Link  302 at Fri May 26 09:55:57 2023, MaxMem=  2147483648 cpu:               1.0 elap:               0.5
 (Enter C:\G16W\l303.exe)
 DipDrv:  MaxL=1.
 Leave Link  303 at Fri May 26 09:55:58 2023, MaxMem=  2147483648 cpu:               1.0 elap:               0.3
 (Enter C:\G16W\l401.exe)
 Initial guess from the checkpoint file:  "butadiene.chk"
 B after Tr=     0.000000    0.000000    0.000000
         Rot=    1.000000   -0.000081    0.000230   -0.000541 Ang=  -0.07 deg.
 Guess basis will be translated and rotated to current coordinates.
 JPrj=2 DoOrth=T DoCkMO=T.
 Generating alternative initial guess.
 ExpMin= 1.22D-01 ExpMax= 6.67D+03 ExpMxC= 2.28D+02 IAcc=3 IRadAn=         5 AccDes= 0.00D+00
 Harris functional with IExCor= 1009 and IRadAn=       5 diagonalized for initial guess.
 HarFok:  IExCor= 1009 AccDes= 0.00D+00 IRadAn=         5 IDoV= 1 UseB2=F ITyADJ=14
 ICtDFT=  3500011 ScaDFX=  1.000000  1.000000  1.000000  1.000000
 FoFCou: FMM=F IPFlag=           0 FMFlag=      100000 FMFlg1=           0
         NFxFlg=           0 DoJE=T BraDBF=F KetDBF=T FulRan=T
         wScrn=  0.000000 ICntrl=       500 IOpCl=  0 I1Cent=   200000004 NGrid=           0
         NMat0=    1 NMatS0=      1 NMatT0=    0 NMatD0=    1 NMtDS0=    0 NMtDT0=    0
 Petite list used in FoFCou.
 Harris En= -155.877060806780    
 Leave Link  401 at Fri May 26 09:55:59 2023, MaxMem=  2147483648 cpu:               1.0 elap:               1.4
 (Enter C:\G16W\l502.exe)
 Keep R1 ints in memory in canonical form, NReq=21641951.
 FoFCou: FMM=F IPFlag=           0 FMFlag=           0 FMFlg1=           0
         NFxFlg=           0 DoJE=F BraDBF=F KetDBF=F FulRan=T
         wScrn=  0.000000 ICntrl=       600 IOpCl=  0 I1Cent=           0 NGrid=           0
         NMat0=    1 NMatS0=   3741 NMatT0=    0 NMatD0=    1 NMtDS0=    0 NMtDT0=    0
 Symmetry not used in FoFCou.
 Two-electron integral symmetry not used.
 Closed shell SCF:
 Using DIIS extrapolation, IDIIS=  1040.
 NGot=  2147483648 LenX=  2140465243 LenY=  2140456702
 Requested convergence on RMS density matrix=1.00D-08 within 128 cycles.
 Requested convergence on MAX density matrix=1.00D-06.
 Requested convergence on             energy=1.00D-06.
 No special actions if energy rises.

 Cycle   1  Pass 1  IDiag  1:
 Inv3:  Mode=1 IEnd=     2167500.
 Iteration    1 A*A^-1 deviation from unit magnitude is 4.44D-15 for      3.
 Iteration    1 A*A^-1 deviation from orthogonality  is 2.96D-15 for    748    109.
 Iteration    1 A^-1*A deviation from unit magnitude is 3.77D-15 for      3.
 Iteration    1 A^-1*A deviation from orthogonality  is 3.48D-15 for    339     60.
 E= -155.851737171357    
 DIIS: error= 4.63D-03 at cycle   1 NSaved=   1.
 NSaved= 1 IEnMin= 1 EnMin= -155.851737171357     IErMin= 1 ErrMin= 4.63D-03
 ErrMax= 4.63D-03  0.00D+00 EMaxC= 1.00D-01 BMatC= 1.48D-03 BMatP= 1.48D-03
 IDIUse=3 WtCom= 9.54D-01 WtEn= 4.63D-02
 Coeff-Com:  0.100D+01
 Coeff-En:   0.100D+01
 Coeff:      0.100D+01
 Gap=     0.674 Goal=   None    Shift=    0.000
 GapD=    0.674 DampG=2.000 DampE=1.000 DampFc=2.0000 IDamp=-1.
 RMSDP=8.78D-04 MaxDP=1.52D-02              OVMax= 2.62D-02

 Cycle   2  Pass 1  IDiag  1:
 E= -155.855013595824     Delta-E=       -0.003276424467 Rises=F Damp=F
 DIIS: error= 7.73D-04 at cycle   2 NSaved=   2.
 NSaved= 2 IEnMin= 2 EnMin= -155.855013595824     IErMin= 2 ErrMin= 7.73D-04
 ErrMax= 7.73D-04  0.00D+00 EMaxC= 1.00D-01 BMatC= 6.40D-05 BMatP= 1.48D-03
 IDIUse=3 WtCom= 9.92D-01 WtEn= 7.73D-03
 Coeff-Com: -0.439D-01 0.104D+01
 Coeff-En:   0.000D+00 0.100D+01
 Coeff:     -0.436D-01 0.104D+01
 Gap=     0.214 Goal=   None    Shift=    0.000
 RMSDP=2.05D-04 MaxDP=3.28D-03 DE=-3.28D-03 OVMax= 7.76D-03

[...]
   Eigenvalues:   -35.9957    72.5309   169.4552
      9  H    Isotropic =    26.1591   Anisotropy =     4.2492
   XX=    25.4198   YX=     1.5235   ZX=    -0.7087
   XY=     3.4309   YY=    27.2634   ZY=     0.4171
   XZ=     0.3830   YZ=     0.1777   ZZ=    25.7942
   Eigenvalues:    23.6553    25.8301    28.9920
     10  H    Isotropic =    25.6082   Anisotropy =     5.4019
   XX=    26.1813   YX=     4.1798   ZX=    -1.4223
   XY=     1.4142   YY=    25.3275   ZY=     0.5027
   XZ=    -2.5619   YZ=    -0.4853   ZZ=    25.3158
   Eigenvalues:    22.2872    25.3279    29.2095
 Max diff in PS couplings:  IJMax=     8     1 Diff= 1.04D-08 IJMaxR=     8     6 DiffR= 3.06D-07
          There are    60 degrees of freedom in the 1st order CPHF.  IDoFFX=0 NUNeed=    60.
     50 vectors produced by pass  0 Test12= 1.78D-15 1.67D-09 XBig12= 3.07D+00 4.83D-01.
     50 vectors produced by pass  1 Test12= 1.78D-15 1.67D-09 XBig12= 2.37D-02 3.65D-02.
     50 vectors produced by pass  2 Test12= 1.78D-15 1.67D-09 XBig12= 8.02D-05 1.43D-03.
     50 vectors produced by pass  3 Test12= 1.78D-15 1.67D-09 XBig12= 1.49D-07 4.84D-05.
     50 vectors produced by pass  4 Test12= 1.78D-15 1.67D-09 XBig12= 1.10D-10 1.56D-06.
     27 vectors produced by pass  5 Test12= 1.78D-15 1.67D-09 XBig12= 6.10D-14 3.98D-08.
 InvSVY:  IOpt=1 It=  1 EMax= 2.78D-15
 Solved reduced A of dimension   277 with    50 vectors.
 Max diff in SD couplings:  IJMax=     5     3 Diff= 1.43D-08 IJMaxR=     5     4 DiffR= 1.65D-06
 Fermi Contact contribution taken from checkpoint file:
 "butadiene.chk"
 There are a total of      221172 grid points.
 ElSum from          density=       60.0000006685
 Fermi Contact (FC) contribution to K (Hz):
                1             2             3             4             5 
      1  0.000000D+00
      2  0.223378D+02  0.000000D+00
      3  0.290226D+02 -0.762746D-01  0.000000D+00
      4 -0.762483D-01  0.230218D+00  0.223379D+02  0.000000D+00
      5 -0.145561D+01  0.106710D+01  0.412977D+02 -0.570156D+00  0.000000D+00
      6  0.116798D+01 -0.754646D-01 -0.667255D+00  0.609731D+00  0.228175D+02
      7  0.175307D+01 -0.525342D-01 -0.481410D+00  0.500107D+00  0.234367D+02
      8  0.412979D+02 -0.570148D+00 -0.145560D+01  0.106709D+01  0.408959D+01
      9 -0.481406D+00  0.500109D+00  0.175307D+01 -0.525345D-01 -0.369339D+00
     10 -0.667254D+00  0.609733D+00  0.116798D+01 -0.754651D-01 -0.355806D+00
                6             7             8             9            10 
      6  0.000000D+00
      7 -0.388852D+00  0.000000D+00
      8 -0.355805D+00 -0.369338D+00  0.000000D+00
      9  0.510069D-01  0.512676D-01  0.234368D+02  0.000000D+00
     10  0.408790D-01  0.510069D-01  0.228175D+02 -0.388855D+00  0.000000D+00
 Fermi Contact (FC) contribution to J (Hz):
                1             2             3             4             5 
      1  0.000000D+00
      2  0.175283D+03  0.000000D+00
      3  0.572769D+02 -0.598520D+00  0.000000D+00
      4 -0.598313D+00  0.718279D+01  0.175283D+03  0.000000D+00
      5 -0.287267D+01  0.837340D+01  0.815021D+02 -0.447396D+01  0.000000D+00
      6  0.916501D+01 -0.235449D+01 -0.523588D+01  0.190236D+02  0.179047D+03
      7  0.137562D+02 -0.163906D+01 -0.377758D+01  0.156033D+02  0.183906D+03
      8  0.815025D+02 -0.447389D+01 -0.287267D+01  0.837338D+01  0.807091D+01
      9 -0.377755D+01  0.156034D+02  0.137562D+02 -0.163908D+01 -0.289817D+01
     10 -0.523588D+01  0.190237D+02  0.916500D+01 -0.235451D+01 -0.279198D+01
                6             7             8             9            10 
      6  0.000000D+00
      7 -0.121322D+02  0.000000D+00
      8 -0.279197D+01 -0.289816D+01  0.000000D+00
      9  0.159141D+01  0.159955D+01  0.183906D+03  0.000000D+00
     10  0.127542D+01  0.159141D+01  0.179047D+03 -0.121322D+02  0.000000D+00
 Spin-dipolar (SD) contribution to K (Hz):
                1             2             3             4             5 
      1  0.000000D+00
      2  0.308733D-01  0.000000D+00
      3  0.447363D+00  0.872399D-02  0.000000D+00
      4  0.872377D-02  0.414459D-02  0.308735D-01  0.000000D+00
      5 -0.305661D+00 -0.156236D-01  0.201494D+01  0.793898D-03  0.000000D+00
      6 -0.350783D-02 -0.107245D-02 -0.421090D-02  0.137597D-01  0.394005D-01
      7  0.175380D-01  0.261970D-02 -0.893164D-02 -0.269454D-02  0.412702D-01
      8  0.201494D+01  0.793732D-03 -0.305665D+00 -0.156236D-01  0.384281D+00
      9 -0.893160D-02 -0.269464D-02  0.175379D-01  0.261966D-02 -0.314968D-01
     10 -0.421084D-02  0.137596D-01 -0.350778D-02 -0.107240D-02  0.354155D-02
                6             7             8             9            10 
      6  0.000000D+00
      7  0.102759D-01  0.000000D+00
      8  0.354195D-02 -0.314966D-01  0.000000D+00
      9 -0.569965D-02  0.615452D-02  0.412703D-01  0.000000D+00
     10  0.879522D-03 -0.569967D-02  0.394004D-01  0.102760D-01  0.000000D+00
 Spin-dipolar (SD) contribution to J (Hz):
                1             2             3             4             5 
      1  0.000000D+00
      2  0.242260D+00  0.000000D+00
      3  0.882882D+00  0.684563D-01  0.000000D+00
      4  0.684546D-01  0.129311D+00  0.242261D+00  0.000000D+00
      5 -0.603230D+00 -0.122597D+00  0.397653D+01  0.622964D-02  0.000000D+00
      6 -0.275256D-01 -0.334603D-01 -0.330425D-01  0.429301D+00  0.309172D+00
      7  0.137619D+00  0.817344D-01 -0.700857D-01 -0.840695D-01  0.323844D+00
      8  0.397653D+01  0.622834D-02 -0.603237D+00 -0.122597D+00  0.758388D+00
      9 -0.700854D-01 -0.840728D-01  0.137619D+00  0.817334D-01 -0.247153D+00
     10 -0.330421D-01  0.429300D+00 -0.275252D-01 -0.334590D-01  0.277902D-01
                6             7             8             9            10 
      6  0.000000D+00
      7  0.320608D+00  0.000000D+00
      8  0.277934D-01 -0.247151D+00  0.000000D+00
      9 -0.177829D+00  0.192021D+00  0.323844D+00  0.000000D+00
     10  0.274411D-01 -0.177830D+00  0.309171D+00  0.320609D+00  0.000000D+00
 Paramagnetic spin-orbit (PSO) contribution to K (Hz):
                1             2             3             4             5 
      1  0.000000D+00
      2  0.340682D-01  0.000000D+00
      3 -0.115109D+01 -0.242569D-01  0.000000D+00
      4 -0.242565D-01  0.126074D-01  0.340675D-01  0.000000D+00
      5  0.382869D-01  0.331666D-01 -0.479222D+01 -0.166758D+00  0.000000D+00
      6 -0.122437D-01  0.349724D-01 -0.187794D+00  0.544817D-01  0.272388D-01
      7  0.313494D-01  0.374750D-01 -0.173924D+00  0.752465D-02  0.277478D-01
      8 -0.479221D+01 -0.166757D+00  0.382862D-01  0.331666D-01  0.106664D+00
      9 -0.173924D+00  0.752483D-02  0.313494D-01  0.374750D-01  0.340679D-01
     10 -0.187793D+00  0.544818D-01 -0.122437D-01  0.349725D-01 -0.187054D-01
                6             7             8             9            10 
      6  0.000000D+00
      7  0.851349D-01  0.000000D+00
      8 -0.187054D-01  0.340678D-01  0.000000D+00
      9  0.201496D-01  0.322909D-01  0.277479D-01  0.000000D+00
     10 -0.399542D-01  0.201496D-01  0.272394D-01  0.851349D-01  0.000000D+00
 Paramagnetic spin-orbit (PSO) contribution to J (Hz):
                1             2             3             4             5 
      1  0.000000D+00
      2  0.267330D+00  0.000000D+00
      3 -0.227171D+01 -0.190342D+00  0.000000D+00
      4 -0.190338D+00  0.393351D+00  0.267324D+00  0.000000D+00
      5  0.755601D-01  0.260255D+00 -0.945757D+01 -0.130854D+01  0.000000D+00
      6 -0.960749D-01  0.109114D+01 -0.147360D+01  0.169983D+01  0.213740D+00
      7  0.245996D+00  0.116922D+01 -0.136476D+01  0.234769D+00  0.217735D+00
      8 -0.945755D+01 -0.130853D+01  0.755588D-01  0.260255D+00  0.210504D+00
      9 -0.136476D+01  0.234774D+00  0.245996D+00  0.116922D+01  0.267328D+00
     10 -0.147360D+01  0.169983D+01 -0.960748D-01  0.109114D+01 -0.146780D+00
                6             7             8             9            10 
      6  0.000000D+00
      7  0.265620D+01  0.000000D+00
      8 -0.146780D+00  0.267327D+00  0.000000D+00
      9  0.628668D+00  0.100747D+01  0.217735D+00  0.000000D+00
     10 -0.124657D+01  0.628666D+00  0.213745D+00  0.265621D+01  0.000000D+00
 Diamagnetic spin-orbit (DSO) contribution to K (Hz):
                1             2             3             4             5 
      1  0.000000D+00
      2  0.101372D+00  0.000000D+00
      3  0.102709D+00 -0.342704D-01  0.000000D+00
      4 -0.342710D-01 -0.116993D-01  0.101372D+00  0.000000D+00
      5 -0.281404D-01 -0.659398D-01  0.688933D-01 -0.678863D-01  0.000000D+00
      6 -0.678237D-02 -0.542049D-01 -0.633934D-01 -0.103784D+00  0.784760D-01
      7 -0.626808D-01 -0.560569D-01 -0.668293D-01 -0.211745D-01  0.721100D-01
      8  0.688934D-01 -0.678865D-01 -0.281406D-01 -0.659398D-01 -0.145590D-01
      9 -0.668294D-01 -0.211747D-01 -0.626808D-01 -0.560568D-01 -0.464913D-01
     10 -0.633934D-01 -0.103784D+00 -0.678265D-02 -0.542050D-01  0.151554D-01
                6             7             8             9            10 
      6  0.000000D+00
      7 -0.108222D+00  0.000000D+00
      8  0.151553D-01 -0.464913D-01  0.000000D+00
      9 -0.312997D-01 -0.479527D-01  0.721100D-01  0.000000D+00
     10  0.574317D-01 -0.312997D-01  0.784760D-01 -0.108222D+00  0.000000D+00
 Diamagnetic spin-orbit (DSO) contribution to J (Hz):
                1             2             3             4             5 
      1  0.000000D+00
      2  0.795456D+00  0.000000D+00
      3  0.202699D+00 -0.268917D+00  0.000000D+00
      4 -0.268921D+00 -0.365019D+00  0.795455D+00  0.000000D+00
      5 -0.555357D-01 -0.517423D+00  0.135963D+00 -0.532698D+00  0.000000D+00
      6 -0.532206D-01 -0.169119D+01 -0.497442D+00 -0.323806D+01  0.615794D+00
      7 -0.491850D+00 -0.174897D+01 -0.524403D+00 -0.660643D+00  0.565840D+00
      8  0.135963D+00 -0.532699D+00 -0.555362D-01 -0.517423D+00 -0.287325D-01
      9 -0.524404D+00 -0.660649D+00 -0.491850D+00 -0.174897D+01 -0.364813D+00
     10 -0.497442D+00 -0.323805D+01 -0.532228D-01 -0.169119D+01  0.118923D+00
                6             7             8             9            10 
      6  0.000000D+00
      7 -0.337652D+01  0.000000D+00
      8  0.118923D+00 -0.364813D+00  0.000000D+00
      9 -0.976550D+00 -0.149612D+01  0.565840D+00  0.000000D+00
     10  0.179187D+01 -0.976548D+00  0.615794D+00 -0.337652D+01  0.000000D+00
 Total nuclear spin-spin coupling K (Hz): 
                1             2             3             4             5 
      1  0.000000D+00
      2  0.225041D+02  0.000000D+00
      3  0.284216D+02 -0.126078D+00  0.000000D+00
      4 -0.126052D+00  0.235270D+00  0.225042D+02  0.000000D+00
      5 -0.175112D+01  0.101870D+01  0.385894D+02 -0.804007D+00  0.000000D+00
      6  0.114544D+01 -0.957696D-01 -0.922653D+00  0.574188D+00  0.229626D+02
      7  0.173928D+01 -0.684963D-01 -0.731095D+00  0.483763D+00  0.235779D+02
      8  0.385896D+02 -0.803998D+00 -0.175112D+01  0.101870D+01  0.456598D+01
      9 -0.731091D+00  0.483765D+00  0.173928D+01 -0.684967D-01 -0.413259D+00
     10 -0.922652D+00  0.574191D+00  0.114544D+01 -0.957700D-01 -0.355815D+00
                6             7             8             9            10 
      6  0.000000D+00
      7 -0.401663D+00  0.000000D+00
      8 -0.355813D+00 -0.413258D+00  0.000000D+00
      9  0.341572D-01  0.417603D-01  0.235779D+02  0.000000D+00
     10  0.592360D-01  0.341572D-01  0.229626D+02 -0.401666D+00  0.000000D+00
 Total nuclear spin-spin coupling J (Hz): 
                1             2             3             4             5 
      1  0.000000D+00
      2  0.176588D+03  0.000000D+00
      3  0.560907D+02 -0.989322D+00  0.000000D+00
      4 -0.989118D+00  0.734043D+01  0.176588D+03  0.000000D+00
      5 -0.345588D+01  0.799364D+01  0.761571D+02 -0.630896D+01  0.000000D+00
      6  0.898819D+01 -0.298801D+01 -0.723997D+01  0.179146D+02  0.180186D+03
      7  0.136479D+02 -0.213708D+01 -0.573683D+01  0.150934D+02  0.185013D+03
      8  0.761575D+02 -0.630889D+01 -0.345588D+01  0.799362D+01  0.901107D+01
      9 -0.573680D+01  0.150934D+02  0.136480D+02 -0.213709D+01 -0.324281D+01
     10 -0.723996D+01  0.179147D+02  0.898818D+01 -0.298802D+01 -0.279204D+01
                6             7             8             9            10 
      6  0.000000D+00
      7 -0.125319D+02  0.000000D+00
      8 -0.279203D+01 -0.324280D+01  0.000000D+00
      9  0.106570D+01  0.130292D+01  0.185013D+03  0.000000D+00
     10  0.184816D+01  0.106570D+01  0.180185D+03 -0.125319D+02  0.000000D+00
 End of Minotr F.D. properties file   721 does not exist.
 End of Minotr F.D. properties file   722 does not exist.
 End of Minotr F.D. properties file   788 does not exist.
 Leave Link 1002 at Fri May 26 10:28:26 2023, MaxMem=  2147483648 cpu:             353.0 elap:             353.3
 (Enter C:\G16W\l601.exe)
 Copying SCF densities to generalized density rwf, IOpCl= 0 IROHF=0.

 **********************************************************************

            Population analysis using the SCF Density.

 **********************************************************************

 Orbital symmetries:
       Occupied  (A) (A) (A) (A) (A) (A) (A) (A) (A) (A) (A) (A)
                 (A) (A) (A)
       Virtual   (A) (A) (A) (A) (A) (A) (A) (A) (A) (A) (A) (A)
                 (A) (A) (A) (A) (A) (A) (A) (A) (A) (A) (A) (A)
                 (A) (A) (A) (A) (A) (A) (A) (A) (A) (A) (A) (A)
                 (A) (A) (A) (A) (A) (A) (A) (A) (A) (A) (A) (A)
                 (A) (A) (A) (A) (A) (A) (A) (A) (A) (A) (A) (A)
                 (A) (A) (A) (A) (A) (A) (A) (A) (A) (A) (A)
 The electronic state is 1-A.
 Alpha  occ. eigenvalues --  -10.25770 -10.25742 -10.24801 -10.24800  -0.81426
 Alpha  occ. eigenvalues --   -0.73457  -0.62243  -0.53032  -0.49425  -0.44110
 Alpha  occ. eigenvalues --   -0.42624  -0.36961  -0.35040  -0.32278  -0.24835
 Alpha virt. eigenvalues --   -0.02308   0.07026   0.08894   0.09880   0.11556
 Alpha virt. eigenvalues --    0.14668   0.16324   0.16634   0.29520   0.29653
 Alpha virt. eigenvalues --    0.36411   0.41422   0.42436   0.46799   0.48757
 Alpha virt. eigenvalues --    0.49211   0.51945   0.52742   0.54390   0.57369
 Alpha virt. eigenvalues --    0.60020   0.60950   0.61840   0.66555   0.67772
 Alpha virt. eigenvalues --    0.72792   0.78044   0.78819   0.89383   0.93665
 Alpha virt. eigenvalues --    0.95622   0.98279   0.98651   1.02456   1.03915
 Alpha virt. eigenvalues --    1.09830   1.10689   1.20569   1.28685   1.39693
 Alpha virt. eigenvalues --    1.42780   1.45346   1.45623   1.50569   1.54122
 Alpha virt. eigenvalues --    1.56671   1.59035   1.60425   1.66096   1.68582
 Alpha virt. eigenvalues --    1.72041   1.72250   1.79233   1.83596   1.84404
 Alpha virt. eigenvalues --    1.91180   1.91938   2.00121   2.06674   2.13154
 Alpha virt. eigenvalues --    2.15114   2.21490   2.26035   2.28338   2.38007
 Alpha virt. eigenvalues --    2.38895   2.51920   2.58403   2.74169   2.76791
 Alpha virt. eigenvalues --    3.08816
          Condensed to atoms (all electrons):
               1          2          3          4          5          6
     1  C    4.713574   0.382509   0.416933  -0.044554  -0.054138  -0.022302
     2  H    0.382509   0.676407  -0.044554  -0.009312   0.007524   0.000017
     3  C    0.416933  -0.044554   4.713575   0.382509   0.701685  -0.014301
     4  H   -0.044554  -0.009312   0.382509   0.676406  -0.040764   0.010025
     5  C   -0.054138   0.007524   0.701685  -0.040764   4.702524   0.377278
     6  H   -0.022302   0.000017  -0.014301   0.010025   0.377278   0.642323
     7  H    0.008690  -0.000262  -0.003704  -0.016304   0.371787  -0.049683
     8  C    0.701685  -0.040764  -0.054138   0.007524  -0.019284   0.007274
     9  H   -0.003704  -0.016304   0.008690  -0.000262   0.000027  -0.000161
    10  H   -0.014301   0.010025  -0.022302   0.000017   0.007275   0.002200
               7          8          9         10
     1  C    0.008690   0.701685  -0.003704  -0.014301
     2  H   -0.000262  -0.040764  -0.016304   0.010025
     3  C   -0.003704  -0.054138   0.008690  -0.022302
     4  H   -0.016304   0.007524  -0.000262   0.000017
     5  C    0.371787  -0.019284   0.000027   0.007275
     6  H   -0.049683   0.007274  -0.000161   0.002200
     7  H    0.633336   0.000027   0.000011  -0.000161
     8  C    0.000027   4.702524   0.371787   0.377278
     9  H    0.000011   0.371787   0.633336  -0.049683
    10  H   -0.000161   0.377278  -0.049683   0.642323
 Mulliken charges:
               1
     1  C   -0.084393
     2  H    0.034714
     3  C   -0.084393
     4  H    0.034715
     5  C   -0.053914
     6  H    0.047330
     7  H    0.056262
     8  C   -0.053913
     9  H    0.056262
    10  H    0.047330
 Sum of Mulliken charges =   0.00000
 Mulliken charges with hydrogens summed into heavy atoms:
               1
     1  C   -0.049678
     3  C   -0.049678
     5  C    0.049678
     8  C    0.049679
 Electronic spatial extent (au):  <R**2>=            304.8215
 Charge=              0.0000 electrons
 Dipole moment (field-independent basis, Debye):
    X=              0.0000    Y=              0.1505    Z=              0.0000  Tot=              0.1505
 Quadrupole moment (field-independent basis, Debye-Ang):
   XX=            -22.8386   YY=            -22.7548   ZZ=            -27.6787
   XY=              0.0000   XZ=              0.7228   YZ=              0.0000
 Traceless Quadrupole moment (field-independent basis, Debye-Ang):
   XX=              1.5854   YY=              1.6692   ZZ=             -3.2546
   XY=              0.0000   XZ=              0.7228   YZ=              0.0000
 Octapole moment (field-independent basis, Debye-Ang**2):
  XXX=              0.0000  YYY=              0.9626  ZZZ=              0.0000  XYY=              0.0000
  XXY=             -0.5538  XXZ=              0.0000  XZZ=              0.0000  YZZ=              0.1251
  YYZ=              0.0000  XYZ=              1.7097
 Hexadecapole moment (field-independent basis, Debye-Ang**3):
 XXXX=           -258.4127 YYYY=            -93.1865 ZZZZ=            -35.0854 XXXY=              0.0000
 XXXZ=              5.7720 YYYX=              0.0000 YYYZ=              0.0000 ZZZX=              0.5214
 ZZZY=              0.0000 XXYY=            -62.7213 XXZZ=            -58.3620 YYZZ=            -22.3180
 XXYZ=              0.0000 YYXZ=              0.5022 ZZXY=              0.0000
 N-N= 1.047233698009D+02 E-N=-5.700976212978D+02  KE= 1.546231769138D+02
 Calculating spin-rotation constants.
 Leave Link  601 at Fri May 26 10:28:34 2023, MaxMem=  2147483648 cpu:               7.0 elap:               7.1
 (Enter C:\G16W\l9999.exe)

 Test job not archived.
 1|1|UNPC-KYNARETH|SP|RM06|Gen|C4H6|ADMINISTRATOR|26-May-2023|0||#P Geo
 m=AllCheck Guess=TCheck SCRF=Check GenChk RM06/ChkBas NMR=ReadFC IOp(3
 /6=22)||Magnetic properties||0,1|C,0,-1.8456279832,1.4822044416,0.1177
 86452|H,0,-2.8866293392,1.3956448738,0.4550220121|C,0,-1.1275282065,0.
 2211009012,-0.0828653555|H,0,-1.7417054274,-0.6434051363,-0.3662713982
 |C,0,0.189480482,0.0513639457,0.0773031273|H,0,0.8361547589,0.86971588
 07,0.4142566336|H,0,0.6656934174,-0.9156657959,-0.1079722538|C,0,-1.33
 83435,2.7001776494,-0.1017112901|H,0,-1.9248550679,3.6038303755,0.0871
 476852|H,0,-0.3234739942,2.8365456344,-0.4926956125||Version=EM64W-G16
 RevC.01|State=1-A|HF=-155.8557853|RMSD=6.391e-009|Dipole=-0.051324,-0.
 0294919,0.0016695|Quadrupole=1.2125168,1.2110575,-2.4235743,0.0300485,
 -0.345688,0.3942111|PG=C01 [X(C4H6)]||@


 EDUCATION IS NOT TRAINING BUT RATHER THE PROCESS THAT EQUIPS YOU TO
 ENTERTAIN YOURSELF, A FRIEND, OR AN IDEA.  -- WALLACE STERLING
 Job cpu time:       0 days  0 hours  7 minutes  0.0 seconds.
 Elapsed time:       0 days  0 hours  6 minutes 52.9 seconds.
 File lengths (MBytes):  RWF=     37 Int=      0 D2E=      0 Chk=      5 Scr=      1
 Normal termination of Gaussian 16 at Fri May 26 10:28:35 2023.
