 Entering Link 1 = C:\G16W\l1.exe PID=    115776.
  
 Copyright (c) 1988-2019, Gaussian, Inc.  All Rights Reserved.
  
 This is part of the Gaussian(R) 16 program.  It is based on
 the Gaussian(R) 09 system (copyright 2009, Gaussian, Inc.),
 the Gaussian(R) 03 system (copyright 2003, Gaussian, Inc.),
 the Gaussian(R) 98 system (copyright 1998, Gaussian, Inc.),
 the Gaussian(R) 94 system (copyright 1995, Gaussian, Inc.),
 the Gaussian 92(TM) system (copyright 1992, Gaussian, Inc.),
 the Gaussian 90(TM) system (copyright 1990, Gaussian, Inc.),
 the Gaussian 88(TM) system (copyright 1988, Gaussian, Inc.),
 the Gaussian 86(TM) system (copyright 1986, Carnegie Mellon
 University), and the Gaussian 82(TM) system (copyright 1983,
 Carnegie Mellon University). Gaussian is a federally registered
 trademark of Gaussian, Inc.
  
 This software contains proprietary and confidential information,
 including trade secrets, belonging to Gaussian, Inc.
  
 This software is provided under written license and may be
 used, copied, transmitted, or stored only in accord with that
 written license.
  
 The following legend is applicable only to US Government
 contracts under FAR:
  
                    RESTRICTED RIGHTS LEGEND
  
 Use, reproduction and disclosure by the US Government is
 subject to restrictions as set forth in subparagraphs (a)
 and (c) of the Commercial Computer Software - Restricted
 Rights clause in FAR 52.227-19.
  
 Gaussian, Inc.
 340 Quinnipiac St., Bldg. 40, Wallingford CT 06492
  
  
 ---------------------------------------------------------------
 Warning -- This program may not be used in any manner that
 competes with the business of Gaussian, Inc. or will provide
 assistance to any competitor of Gaussian, Inc.  The licensee
 of this program is prohibited from giving any competitor of
 Gaussian, Inc. access to this program.  By using this program,
 the user acknowledges that Gaussian, Inc. is engaged in the
 business of creating and licensing software in the field of
 computational chemistry and represents and warrants to the
 licensee that it is not a competitor of Gaussian, Inc. and that
 it will not use this program in any manner prohibited above.
 ---------------------------------------------------------------
  

 Cite this work as:
 Gaussian 16, Revision C.01,
 M. J. Frisch, G. W. Trucks, H. B. Schlegel, G. E. Scuseria, 
 M. A. Robb, J. R. Cheeseman, G. Scalmani, V. Barone, 
 G. A. Petersson, H. Nakatsuji, X. Li, M. Caricato, A. V. Marenich, 
 J. Bloino, B. G. Janesko, R. Gomperts, B. Mennucci, H. P. Hratchian, 
 J. V. Ortiz, A. F. Izmaylov, J. L. Sonnenberg, D. Williams-Young, 
 F. Ding, F. Lipparini, F. Egidi, J. Goings, B. Peng, A. Petrone, 
 T. Henderson, D. Ranasinghe, V. G. Zakrzewski, J. Gao, N. Rega, 
 G. Zheng, W. Liang, M. Hada, M. Ehara, K. Toyota, R. Fukuda, 
 J. Hasegawa, M. Ishida, T. Nakajima, Y. Honda, O. Kitao, H. Nakai, 
 T. Vreven, K. Throssell, J. A. Montgomery, Jr., J. E. Peralta, 
 F. Ogliaro, M. J. Bearpark, J. J. Heyd, E. N. Brothers, K. N. Kudin, 
 V. N. Staroverov, T. A. Keith, R. Kobayashi, J. Normand, 
 K. Raghavachari, A. P. Rendell, J. C. Burant, S. S. Iyengar, 
 J. Tomasi, M. Cossi, J. M. Millam, M. Klene, C. Adamo, R. Cammi, 
 J. W. Ochterski, R. L. Martin, K. Morokuma, O. Farkas, 
 J. B. Foresman, and D. J. Fox, Gaussian, Inc., Wallingford CT, 2019.
 
 ******************************************
 Gaussian 16:  EM64W-G16RevC.01 30-May-2019
                26-May-2023 
 ******************************************
 %Chk=cyclohexadiene.chk
 %Mem=16GB
 %NProcShared=16
 Will use up to   16 processors via shared memory.
 ----------------------------------------------------------------------
 #p opt=tight m06/cc-pvdz scf=tight scrf=(smd,solvent=chloroform) integ
 ral=(grid=ultrafine)
 ----------------------------------------------------------------------
 1/7=10,18=20,19=15,26=6,38=1/1,3;
 2/9=110,12=2,17=6,18=5,40=1/2;
 3/5=16,11=2,25=1,30=1,70=32201,71=1,72=7,74=-54,75=-5/1,2,3;
 4//1;
 5/5=2,32=2,38=5,53=7/2;
 6/7=2,8=2,9=2,10=2,28=1/1;
 7//1,2,3,16;
 1/7=10,18=20,19=15,26=6/3(2);
 2/9=110/2;
 99//99;
 2/9=110/2;
 3/5=16,11=2,25=1,30=1,70=32205,71=1,72=7,74=-54,75=-5/1,2,3;
 4/5=5,16=3,69=1/1;
 5/5=2,32=2,38=5,53=7/2;
 7//1,2,3,16;
 1/7=10,18=20,19=15,26=6/3(-5);
 2/9=110/2;
 6/7=2,8=2,9=2,10=2,19=2,28=1/1;
 99/9=1/99;
 Leave Link    1 at Fri May 26 09:55:34 2023, MaxMem=  2147483648 cpu:               1.0 elap:               0.5
 (Enter C:\G16W\l101.exe)
 --------
 Geometry
 --------
 Symbolic Z-matrix:
 Charge =  0 Multiplicity = 1
 C                    -2.29012  -1.03892  -0.23977 
 C                    -0.76567  -1.05936   0.00435 
 C                    -0.20093   0.35734   0.24519 
 C                    -0.99892   1.41084   0.50024 
 C                    -2.45776   1.47451  -0.00144 
 C                    -2.9569    0.10103  -0.49984 
 H                     0.8583    0.50523   0.21243 
 H                    -0.58942  -1.6791    0.85861 
 H                    -0.25896  -1.46232  -0.84756 
 H                    -0.60897   2.23192   1.06474 
 H                    -2.53877   2.15793  -0.82075 
 H                    -3.05971   1.81379   0.81553 
 H                    -3.86353   0.05367  -1.06611 
 H                    -2.83266  -1.96052  -0.20524 
 
 ITRead=  0  0  0  0  0  0  0  0  0  0  0  0  0  0
 MicOpt= -1 -1 -1 -1 -1 -1 -1 -1 -1 -1 -1 -1 -1 -1
 NAtoms=     14 NQM=       14 NQMF=       0 NMMI=      0 NMMIF=      0
                NMic=       0 NMicF=      0.
                    Isotopes and Nuclear Properties:
 (Nuclear quadrupole moments (NQMom) in fm**2, nuclear magnetic moments (NMagM)
  in nuclear magnetons)

  Atom         1           2           3           4           5           6           7           8           9          10
 IAtWgt=          12          12          12          12          12          12           1           1           1           1
 AtmWgt=  12.0000000  12.0000000  12.0000000  12.0000000  12.0000000  12.0000000   1.0078250   1.0078250   1.0078250   1.0078250
 NucSpn=           0           0           0           0           0           0           1           1           1           1
 AtZEff=   0.0000000   0.0000000   0.0000000   0.0000000   0.0000000   0.0000000   0.0000000   0.0000000   0.0000000   0.0000000
 NQMom=    0.0000000   0.0000000   0.0000000   0.0000000   0.0000000   0.0000000   0.0000000   0.0000000   0.0000000   0.0000000
 NMagM=    0.0000000   0.0000000   0.0000000   0.0000000   0.0000000   0.0000000   2.7928460   2.7928460   2.7928460   2.7928460
 AtZNuc=   6.0000000   6.0000000   6.0000000   6.0000000   6.0000000   6.0000000   1.0000000   1.0000000   1.0000000   1.0000000

  Atom        11          12          13          14
 IAtWgt=           1           1           1           1
 AtmWgt=   1.0078250   1.0078250   1.0078250   1.0078250
 NucSpn=           1           1           1           1
 AtZEff=   0.0000000   0.0000000   0.0000000   0.0000000
 NQMom=    0.0000000   0.0000000   0.0000000   0.0000000
 NMagM=    2.7928460   2.7928460   2.7928460   2.7928460
 AtZNuc=   1.0000000   1.0000000   1.0000000   1.0000000
 Leave Link  101 at Fri May 26 09:55:35 2023, MaxMem=  2147483648 cpu:               1.0 elap:               0.6
 (Enter C:\G16W\l103.exe)

 GradGradGradGradGradGradGradGradGradGradGradGradGradGradGradGradGradGrad
 Berny optimization.
 Initialization pass.
                           ----------------------------
                           !    Initial Parameters    !
                           ! (Angstroms and Degrees)  !
 --------------------------                            --------------------------
 ! Name  Definition              Value          Derivative Info.                !
 --------------------------------------------------------------------------------
 ! R1    R(1,2)                  1.544          estimate D2E/DX2                !
 ! R2    R(1,6)                  1.346          estimate D2E/DX2                !
 ! R3    R(1,14)                 1.07           estimate D2E/DX2                !
 ! R4    R(2,3)                  1.544          estimate D2E/DX2                !
 ! R5    R(2,8)                  1.07           estimate D2E/DX2                !
 ! R6    R(2,9)                  1.07           estimate D2E/DX2                !
 ! R7    R(3,4)                  1.346          estimate D2E/DX2                !
 ! R8    R(3,7)                  1.07           estimate D2E/DX2                !
 ! R9    R(4,5)                  1.544          estimate D2E/DX2                !
 ! R10   R(4,10)                 1.07           estimate D2E/DX2                !
 ! R11   R(5,6)                  1.544          estimate D2E/DX2                !
 ! R12   R(5,11)                 1.07           estimate D2E/DX2                !
 ! R13   R(5,12)                 1.07           estimate D2E/DX2                !
 ! R14   R(6,13)                 1.07           estimate D2E/DX2                !
 ! A1    A(2,1,6)              122.0639         estimate D2E/DX2                !
 ! A2    A(2,1,14)             118.9546         estimate D2E/DX2                !
 ! A3    A(6,1,14)             118.9809         estimate D2E/DX2                !
 ! A4    A(1,2,3)              111.9406         estimate D2E/DX2                !
 ! A5    A(1,2,8)              107.2492         estimate D2E/DX2                !
 ! A6    A(1,2,9)              110.2834         estimate D2E/DX2                !
 ! A7    A(3,2,8)              110.2834         estimate D2E/DX2                !
 ! A8    A(3,2,9)              107.2492         estimate D2E/DX2                !
 ! A9    A(8,2,9)              109.8475         estimate D2E/DX2                !
 ! A10   A(2,3,4)              122.0639         estimate D2E/DX2                !
 ! A11   A(2,3,7)              118.9546         estimate D2E/DX2                !
 ! A12   A(4,3,7)              118.9809         estimate D2E/DX2                !
 ! A13   A(3,4,5)              122.0639         estimate D2E/DX2                !
 ! A14   A(3,4,10)             118.9809         estimate D2E/DX2                !
 ! A15   A(5,4,10)             118.9546         estimate D2E/DX2                !
 ! A16   A(4,5,6)              111.9406         estimate D2E/DX2                !
 ! A17   A(4,5,11)             110.2834         estimate D2E/DX2                !
 ! A18   A(4,5,12)             107.2492         estimate D2E/DX2                !
 ! A19   A(6,5,11)             107.2492         estimate D2E/DX2                !
 ! A20   A(6,5,12)             110.2834         estimate D2E/DX2                !
 ! A21   A(11,5,12)            109.8475         estimate D2E/DX2                !
 ! A22   A(1,6,5)              122.0639         estimate D2E/DX2                !
 ! A23   A(1,6,13)             118.9809         estimate D2E/DX2                !
 ! A24   A(5,6,13)             118.9546         estimate D2E/DX2                !
 ! D1    D(6,1,2,3)             13.5773         estimate D2E/DX2                !
 ! D2    D(6,1,2,8)            134.6688         estimate D2E/DX2                !
 ! D3    D(6,1,2,9)           -105.7431         estimate D2E/DX2                !
 ! D4    D(14,1,2,3)          -166.6915         estimate D2E/DX2                !
 ! D5    D(14,1,2,8)           -45.6            estimate D2E/DX2                !
 ! D6    D(14,1,2,9)            73.9882         estimate D2E/DX2                !
 ! D7    D(2,1,6,5)            -26.9386         estimate D2E/DX2                !
 ! D8    D(2,1,6,13)           153.3303         estimate D2E/DX2                !
 ! D9    D(14,1,6,5)           153.3303         estimate D2E/DX2                !
 ! D10   D(14,1,6,13)          -26.4009         estimate D2E/DX2                !
 ! D11   D(1,2,3,4)             13.5773         estimate D2E/DX2                !
 ! D12   D(1,2,3,7)           -166.6915         estimate D2E/DX2                !
 ! D13   D(8,2,3,4)           -105.7431         estimate D2E/DX2                !
 ! D14   D(8,2,3,7)             73.9882         estimate D2E/DX2                !
 ! D15   D(9,2,3,4)            134.6688         estimate D2E/DX2                !
 ! D16   D(9,2,3,7)            -45.6            estimate D2E/DX2                !
 ! D17   D(2,3,4,5)            -26.9386         estimate D2E/DX2                !
 ! D18   D(2,3,4,10)           153.3303         estimate D2E/DX2                !
 ! D19   D(7,3,4,5)            153.3303         estimate D2E/DX2                !
 ! D20   D(7,3,4,10)           -26.4009         estimate D2E/DX2                !
 ! D21   D(3,4,5,6)             13.5773         estimate D2E/DX2                !
 ! D22   D(3,4,5,11)          -105.7431         estimate D2E/DX2                !
 ! D23   D(3,4,5,12)           134.6688         estimate D2E/DX2                !
 ! D24   D(10,4,5,6)          -166.6915         estimate D2E/DX2                !
 ! D25   D(10,4,5,11)           73.9882         estimate D2E/DX2                !
 ! D26   D(10,4,5,12)          -45.6            estimate D2E/DX2                !
 ! D27   D(4,5,6,1)             13.5773         estimate D2E/DX2                !
 ! D28   D(4,5,6,13)          -166.6915         estimate D2E/DX2                !
 ! D29   D(11,5,6,1)           134.6688         estimate D2E/DX2                !
 ! D30   D(11,5,6,13)          -45.6            estimate D2E/DX2                !
 ! D31   D(12,5,6,1)          -105.7431         estimate D2E/DX2                !
 ! D32   D(12,5,6,13)           73.9882         estimate D2E/DX2                !
 --------------------------------------------------------------------------------
 Trust Radius=3.00D-01 FncErr=5.00D-06 GrdErr=5.00D-06 EigMax=2.50D+02 EigMin=1.00D-04
 Number of steps in this run=     80 maximum allowed number of steps=    100.
 GradGradGradGradGradGradGradGradGradGradGradGradGradGradGradGradGradGrad

 Leave Link  103 at Fri May 26 09:55:36 2023, MaxMem=  2147483648 cpu:               1.0 elap:               0.4
 (Enter C:\G16W\l202.exe)
                          Input orientation:                          
 ---------------------------------------------------------------------
 Center     Atomic      Atomic             Coordinates (Angstroms)
 Number     Number       Type             X           Y           Z
 ---------------------------------------------------------------------
      1          6           0       -2.290122   -1.038916   -0.239770
      2          6           0       -0.765667   -1.059356    0.004354
      3          6           0       -0.200926    0.357344    0.245189
      4          6           0       -0.998915    1.410844    0.500238
      5          6           0       -2.457763    1.474506   -0.001444
      6          6           0       -2.956899    0.101028   -0.499838
      7          1           0        0.858299    0.505228    0.212430
      8          1           0       -0.589420   -1.679099    0.858611
      9          1           0       -0.258957   -1.462322   -0.847563
     10          1           0       -0.608967    2.231925    1.064744
     11          1           0       -2.538772    2.157930   -0.820755
     12          1           0       -3.059713    1.813793    0.815527
     13          1           0       -3.863535    0.053671   -1.066114
     14          1           0       -2.832659   -1.960524   -0.205240
 ---------------------------------------------------------------------
                    Distance matrix (angstroms):
                    1          2          3          4          5
     1  C    0.000000
     2  C    1.544013   0.000000
     3  C    2.559193   1.544013   0.000000
     4  C    2.866383   2.530256   1.345994   0.000000
     5  C    2.530256   3.046913   2.530256   1.544013   0.000000
     6  C    1.345994   2.530256   2.866383   2.559193   1.544013
     7  H    3.535735   2.264616   1.070000   2.086197   3.461432
     8  H    2.123361   1.070000   2.162017   3.137494   3.765054
     9  H    2.162017   1.070000   2.123361   3.258710   3.765054
    10  H    3.902107   3.461432   2.086197   1.070000   2.264616
    11  H    3.258710   3.765054   3.137494   2.162017   1.070000
    12  H    3.137494   3.765054   3.258710   2.123361   1.070000
    13  H    2.086197   3.461432   3.902107   3.535735   2.264616
    14  H    1.070000   2.264616   3.535735   3.902107   3.461432
                    6          7          8          9         10
     6  C    0.000000
     7  H    3.902107   0.000000
     8  H    3.258710   2.699023   0.000000
     9  H    3.137494   2.498620   1.751350   0.000000
    10  H    3.535735   2.420907   3.916502   4.174552   0.000000
    11  H    2.123361   3.916502   4.619852   4.278376   2.699023
    12  H    2.162017   4.174552   4.278376   4.619852   2.498620
    13  H    1.070000   4.912667   4.174552   3.916502   4.458425
    14  H    2.086197   4.458425   2.498620   2.699023   4.912667
                   11         12         13         14
    11  H    0.000000
    12  H    1.751350   0.000000
    13  H    2.498620   2.699023   0.000000
    14  H    4.174552   3.916502   2.420907   0.000000
 Stoichiometry    C6H8
 Framework group  D2[C2"(C.C),X(C4H8)]
 Deg. of freedom    10
 Full point group                 D2      NOp   4
 Largest Abelian subgroup         D2      NOp   4
 Largest concise Abelian subgroup D2      NOp   4
                         Standard orientation:                         
 ---------------------------------------------------------------------
 Center     Atomic      Atomic             Coordinates (Angstroms)
 Number     Number       Type             X           Y           Z
 ---------------------------------------------------------------------
      1          6           0        0.659392   -1.272494    0.134637
      2          6           0        1.523457    0.000000    0.000000
      3          6           0        0.659392    1.272494   -0.134637
      4          6           0       -0.659392    1.272494    0.134637
      5          6           0       -1.523457    0.000000    0.000000
      6          6           0       -0.659392   -1.272494   -0.134637
      7          1           0        1.124585    2.183777   -0.447780
      8          1           0        2.138349    0.059889    0.873625
      9          1           0        2.138349   -0.059889   -0.873625
     10          1           0       -1.124585    2.183777    0.447780
     11          1           0       -2.138349    0.059889   -0.873625
     12          1           0       -2.138349   -0.059889    0.873625
     13          1           0       -1.124585   -2.183777   -0.447780
     14          1           0        1.124585   -2.183777    0.447780
 ---------------------------------------------------------------------
 Rotational constants (GHZ):           4.9684344           4.8195975           2.5645064
 Leave Link  202 at Fri May 26 09:55:36 2023, MaxMem=  2147483648 cpu:               0.0 elap:               0.1
 (Enter C:\G16W\l301.exe)
 Standard basis: CC-pVDZ (5D, 7F)
 Ernie: Thresh=  0.10000D-02 Tol=  0.10000D-05 Strict=F.
 Ernie:  12 primitive shells out of 172 were deleted.
 There are    34 symmetry adapted cartesian basis functions of A   symmetry.
 There are    31 symmetry adapted cartesian basis functions of B1  symmetry.
 There are    31 symmetry adapted cartesian basis functions of B2  symmetry.
 There are    34 symmetry adapted cartesian basis functions of B3  symmetry.
 There are    32 symmetry adapted basis functions of A   symmetry.
 There are    30 symmetry adapted basis functions of B1  symmetry.
 There are    30 symmetry adapted basis functions of B2  symmetry.
 There are    32 symmetry adapted basis functions of B3  symmetry.
   124 basis functions,   254 primitive gaussians,   130 cartesian basis functions
    22 alpha electrons       22 beta electrons
       nuclear repulsion energy       215.9822368702 Hartrees.
 IExCor= 4235 DFT=T Ex+Corr=M06 ExCW=0 ScaHFX=  0.270000
 ScaDFX=  1.000000  1.000000  1.000000  1.000000 ScalE2=  1.000000  1.000000
 IRadAn=      5 IRanWt=     -1 IRanGd=            0 ICorTp=0 IEmpDi=  4
 NAtoms=   14 NActive=   14 NUniq=    4 SFac= 4.00D+00 NAtFMM=   60 NAOKFM=F Big=F
 Integral buffers will be    131072 words long.
 Raffenetti 2 integral format.
 Two-electron integral symmetry is turned on.
 ------------------------------------------------------------------------------
 Polarizable Continuum Model (PCM)
 =================================
 Model                : PCM.
 Atomic radii         : SMD-Coulomb.
 Polarization charges : Total charges.
 Charge compensation  : None.
 Solution method      : On-the-fly selection.
 Cavity type          : VdW (van der Waals Surface) (Alpha=1.000).
 Cavity algorithm     : GePol (No added spheres)
                        Default sphere list used, NSphG=   14.
                        Lebedev-Laikov grids with approx.  5.0 points / Ang**2.
                        Smoothing algorithm: York/Karplus (Gamma=1.0000).
                        Polarization charges: spherical gaussians, with
                                              point-specific exponents (IZeta= 3).
                        Self-potential: point-specific (ISelfS= 7).
                        Self-field    : sphere-specific E.n sum rule (ISelfD= 2).
 1st derivatives      : Analytical E(r).r(x)/FMM algorithm (CHGder, D1EAlg=3).
                        Cavity 1st derivative terms included.
 Solvent              : Chloroform, Eps=   4.711300 Eps(inf)=   2.090627
 ------------------------------------------------------------------------------
 Spheres list:
 ISph  on   Nord     Re0    Alpha      Xe            Ye            Ze
    1   C      1    1.8500  1.000      0.659392     -1.272494      0.134637
    2   C      2    1.8500  1.000      1.523457      0.000000      0.000000
    3   C      3    1.8500  1.000      0.659392      1.272494     -0.134637
    4   C      4    1.8500  1.000     -0.659392      1.272494      0.134637
    5   C      5    1.8500  1.000     -1.523457      0.000000      0.000000
    6   C      6    1.8500  1.000     -0.659392     -1.272494     -0.134637
    7   H      7    1.2000  1.000      1.124585      2.183777     -0.447780
    8   H      8    1.2000  1.000      2.138349      0.059889      0.873625
    9   H      9    1.2000  1.000      2.138349     -0.059889     -0.873625
   10   H     10    1.2000  1.000     -1.124585      2.183777      0.447780
   11   H     11    1.2000  1.000     -2.138349      0.059889     -0.873625
   12   H     12    1.2000  1.000     -2.138349     -0.059889      0.873625
   13   H     13    1.2000  1.000     -1.124585     -2.183777     -0.447780
   14   H     14    1.2000  1.000      1.124585     -2.183777      0.447780
 ------------------------------------------------------------------------------
 GePol: Number of generator spheres                  =      14
 GePol: Total number of spheres                      =      14
 GePol: Number of exposed spheres                    =      14 (100.00%)
 GePol: Number of points                             =    1110
 GePol: Average weight of points                     =       0.11
 GePol: Minimum weight of points                     =   0.32D-06
 GePol: Maximum weight of points                     =    0.17992
 GePol: Number of points with low weight             =      76
 GePol: Fraction of low-weight points (<1% of avg)   =       6.85%
 GePol: Cavity surface area                          =    120.040 Ang**2
 GePol: Cavity volume                                =     99.572 Ang**3
 ------------------------------------------------------------------------------
 Atomic radii for non-electrostatic terms: SMD-CDS.
 ------------------------------------------------------------------------------
 PCM non-electrostatic energy =        -0.0051305016 Hartrees.
 Nuclear repulsion after PCM non-electrostatic terms =      215.9771063686 Hartrees.
 Leave Link  301 at Fri May 26 09:55:37 2023, MaxMem=  2147483648 cpu:               0.0 elap:               0.3
 (Enter C:\G16W\l302.exe)
 NPDir=0 NMtPBC=     1 NCelOv=     1 NCel=       1 NClECP=     1 NCelD=      1
         NCelK=      1 NCelE2=     1 NClLst=     1 CellRange=     0.0.
 One-electron integrals computed using PRISM.
 One-electron integral symmetry used in STVInt
 NBasis=   124 RedAO= T EigKep=  1.03D-03  NBF=    32    30    30    32
 NBsUse=   124 1.00D-06 EigRej= -1.00D+00 NBFU=    32    30    30    32
 Precomputing XC quadrature grid using
 IXCGrd= 4 IRadAn=           5 IRanWt=          -1 IRanGd=           0 AccXCQ= 0.00D+00.
 Generated NRdTot=       0 NPtTot=           0 NUsed=           0 NTot=          32
 NSgBfM=   130   130   130   130   130 MxSgAt=    14 MxSgA2=    14.
 Leave Link  302 at Fri May 26 09:55:38 2023, MaxMem=  2147483648 cpu:               1.0 elap:               0.8
 (Enter C:\G16W\l303.exe)
 DipDrv:  MaxL=1.
 Leave Link  303 at Fri May 26 09:55:39 2023, MaxMem=  2147483648 cpu:               1.0 elap:               0.1
 (Enter C:\G16W\l401.exe)
 ExpMin= 1.22D-01 ExpMax= 6.67D+03 ExpMxC= 2.28D+02 IAcc=3 IRadAn=         5 AccDes= 0.00D+00
 Harris functional with IExCor= 1009 and IRadAn=       5 diagonalized for initial guess.
 HarFok:  IExCor= 1009 AccDes= 0.00D+00 IRadAn=         5 IDoV= 1 UseB2=F ITyADJ=14
 ICtDFT=  3500011 ScaDFX=  1.000000  1.000000  1.000000  1.000000
 FoFCou: FMM=F IPFlag=           0 FMFlag=      100000 FMFlg1=           0
         NFxFlg=           0 DoJE=T BraDBF=F KetDBF=T FulRan=T
         wScrn=  0.000000 ICntrl=       500 IOpCl=  0 I1Cent=   200000004 NGrid=           0
         NMat0=    1 NMatS0=      1 NMatT0=    0 NMatD0=    1 NMtDS0=    0 NMtDT0=    0
 Petite list used in FoFCou.
 Harris En= -233.214386859135    
 JPrj=0 DoOrth=F DoCkMO=F.
 Initial guess orbital symmetries:
       Occupied  (B3) (A) (B2) (A) (B3) (B1) (A) (B2) (B3) (A)
                 (B1) (A) (B3) (B2) (B1) (B2) (B2) (B3) (A) (B1)
                 (B3) (B1)
       Virtual   (A) (B2) (A) (A) (B2) (B3) (B1) (A) (B1) (B2)
                 (B3) (B2) (B3) (B1) (B3) (B1) (B2) (A) (A) (B1)
                 (B2) (B3) (B1) (A) (B3) (B2) (A) (B1) (A) (B3)
                 (B1) (B2) (B2) (B1) (B3) (A) (B3) (B2) (B1) (B3)
                 (A) (B2) (B3) (A) (B1) (B2) (B1) (B3) (B3) (B1)
                 (A) (B3) (A) (B3) (B1) (B2) (B2) (A) (B3) (A)
                 (B2) (A) (B1) (A) (B1) (B2) (B2) (B1) (B3) (A)
                 (B2) (B3) (B2) (B1) (A) (B3) (B2) (B1) (B1) (B2)
                 (B1) (A) (B3) (B3) (B1) (B2) (A) (B2) (A) (B3)
                 (A) (B3) (B3) (B2) (B1) (B1) (A) (B3) (B2) (A)
                 (B1) (B3)
 The electronic state of the initial guess is 1-A.
 Leave Link  401 at Fri May 26 09:55:40 2023, MaxMem=  2147483648 cpu:               1.0 elap:               1.1
 (Enter C:\G16W\l502.exe)
 Keep R1 ints in memory in symmetry-blocked form, NReq=45361255.
 FoFCou: FMM=F IPFlag=           0 FMFlag=           0 FMFlg1=           0
         NFxFlg=           0 DoJE=F BraDBF=F KetDBF=F FulRan=T
         wScrn=  0.000000 ICntrl=       600 IOpCl=  0 I1Cent=           0 NGrid=           0
         NMat0=    1 NMatS0=   7750 NMatT0=    0 NMatD0=    1 NMtDS0=    0 NMtDT0=    0
 Petite list used in FoFCou.
 Closed shell SCF:
 Using DIIS extrapolation, IDIIS=  1040.
 NGot=  2147483648 LenX=  2139914579 LenY=  2139897238
 Requested convergence on RMS density matrix=1.00D-08 within 128 cycles.
 Requested convergence on MAX density matrix=1.00D-06.
 Requested convergence on             energy=1.00D-06.
 No special actions if energy rises.

 Cycle   1  Pass 1  IDiag  1:
 Inv3:  Mode=1 IEnd=     3696300.
 Iteration    1 A*A^-1 deviation from unit magnitude is 5.22D-15 for    831.
 Iteration    1 A*A^-1 deviation from orthogonality  is 2.65D-15 for    984    346.
 Iteration    1 A^-1*A deviation from unit magnitude is 4.33D-15 for    524.
 Iteration    1 A^-1*A deviation from orthogonality  is 1.86D-15 for    950    533.
 E= -233.056006376394    
 DIIS: error= 3.62D-02 at cycle   1 NSaved=   1.
 NSaved= 1 IEnMin= 1 EnMin= -233.056006376394     IErMin= 1 ErrMin= 3.62D-02
 ErrMax= 3.62D-02  0.00D+00 EMaxC= 1.00D-01 BMatC= 1.12D-01 BMatP= 1.12D-01
 IDIUse=3 WtCom= 6.38D-01 WtEn= 3.62D-01
 Coeff-Com:  0.100D+01
 Coeff-En:   0.100D+01
 Coeff:      0.100D+01
 Gap=     0.235 Goal=   None    Shift=    0.000
 GapD=    0.235 DampG=1.000 DampE=0.500 DampFc=0.5000 IDamp=-1.
 Damping current iteration by 5.00D-01
 RMSDP=5.49D-03 MaxDP=9.41D-02              OVMax= 1.41D-01

 Cycle   2  Pass 1  IDiag  1:
 E= -233.124283205342     Delta-E=       -0.068276828948 Rises=F Damp=T
 DIIS: error= 6.34D-03 at cycle   2 NSaved=   2.
 NSaved= 2 IEnMin= 2 EnMin= -233.124283205342     IErMin= 2 ErrMin= 6.34D-03
 ErrMax= 6.34D-03  0.00D+00 EMaxC= 1.00D-01 BMatC= 3.64D-03 BMatP= 1.12D-01
 IDIUse=3 WtCom= 9.37D-01 WtEn= 6.34D-02
 Coeff-Com: -0.271D-02 0.100D+01
 Coeff-En:   0.000D+00 0.100D+01
 Coeff:     -0.254D-02 0.100D+01
 Gap=     0.247 Goal=   None    Shift=    0.000
 RMSDP=1.25D-03 MaxDP=1.38D-02 DE=-6.83D-02 OVMax= 7.07D-02

 Cycle   3  Pass 1  IDiag  1:
 E= -233.195475773638     Delta-E=       -0.071192568296 Rises=F Damp=F
 DIIS: error= 3.47D-03 at cycle   3 NSaved=   3.
 NSaved= 3 IEnMin= 3 EnMin= -233.195475773638     IErMin= 3 ErrMin= 3.47D-03
 ErrMax= 3.47D-03  0.00D+00 EMaxC= 1.00D-01 BMatC= 9.28D-04 BMatP= 3.64D-03
 IDIUse=3 WtCom= 9.65D-01 WtEn= 3.47D-02
 Coeff-Com: -0.286D-01 0.324D+00 0.704D+00
 Coeff-En:   0.000D+00 0.000D+00 0.100D+01
 Coeff:     -0.276D-01 0.313D+00 0.714D+00
 Gap=     0.231 Goal=   None    Shift=    0.000
 RMSDP=2.59D-04 MaxDP=2.44D-03 DE=-7.12D-02 OVMax= 6.39D-03

 Cycle   4  Pass 1  IDiag  1:
 E= -233.196380493265     Delta-E=       -0.000904719626 Rises=F Damp=F
 DIIS: error= 2.94D-04 at cycle   4 NSaved=   4.
 NSaved= 4 IEnMin= 4 EnMin= -233.196380493265     IErMin= 4 ErrMin= 2.94D-04
 ErrMax= 2.94D-04  0.00D+00 EMaxC= 1.00D-01 BMatC= 1.25D-05 BMatP= 9.28D-04
 IDIUse=3 WtCom= 9.97D-01 WtEn= 2.94D-03
 Coeff-Com: -0.390D-02 0.117D-01 0.107D+00 0.885D+00
 Coeff-En:   0.000D+00 0.000D+00 0.000D+00 0.100D+01
 Coeff:     -0.389D-02 0.117D-01 0.106D+00 0.886D+00
 Gap=     0.231 Goal=   None    Shift=    0.000
 RMSDP=4.08D-05 MaxDP=5.67D-04 DE=-9.05D-04 OVMax= 1.04D-03

 Cycle   5  Pass 1  IDiag  1:
 E= -233.196390881124     Delta-E=       -0.000010387859 Rises=F Damp=F
 DIIS: error= 1.59D-04 at cycle   5 NSaved=   5.
 NSaved= 5 IEnMin= 5 EnMin= -233.196390881124     IErMin= 5 ErrMin= 1.59D-04
 ErrMax= 1.59D-04  0.00D+00 EMaxC= 1.00D-01 BMatC= 2.82D-06 BMatP= 1.25D-05
 IDIUse=3 WtCom= 9.98D-01 WtEn= 1.59D-03
 Coeff-Com: -0.111D-02-0.134D-02 0.332D-01 0.404D+00 0.565D+00
 Coeff-En:   0.000D+00 0.000D+00 0.000D+00 0.000D+00 0.100D+01
 Coeff:     -0.110D-02-0.134D-02 0.332D-01 0.404D+00 0.565D+00
 Gap=     0.231 Goal=   None    Shift=    0.000
 RMSDP=1.30D-05 MaxDP=3.11D-04 DE=-1.04D-05 OVMax= 3.77D-04

 Cycle   6  Pass 1  IDiag  1:
 E= -233.196393630695     Delta-E=       -0.000002749572 Rises=F Damp=F
 DIIS: error= 3.18D-05 at cycle   6 NSaved=   6.
 NSaved= 6 IEnMin= 6 EnMin= -233.196393630695     IErMin= 6 ErrMin= 3.18D-05
 ErrMax= 3.18D-05  0.00D+00 EMaxC= 1.00D-01 BMatC= 1.05D-07 BMatP= 2.82D-06
 IDIUse=1 WtCom= 1.00D+00 WtEn= 0.00D+00
 Coeff-Com:  0.242D-03-0.187D-02-0.360D-02 0.517D-02 0.158D+00 0.842D+00
 Coeff:      0.242D-03-0.187D-02-0.360D-02 0.517D-02 0.158D+00 0.842D+00
 Gap=     0.231 Goal=   None    Shift=    0.000
 RMSDP=2.38D-06 MaxDP=5.36D-05 DE=-2.75D-06 OVMax= 7.90D-05

 Cycle   7  Pass 1  IDiag  1:
 E= -233.196393741802     Delta-E=       -0.000000111107 Rises=F Damp=F
 DIIS: error= 3.21D-06 at cycle   7 NSaved=   7.
 NSaved= 7 IEnMin= 7 EnMin= -233.196393741802     IErMin= 7 ErrMin= 3.21D-06
 ErrMax= 3.21D-06  0.00D+00 EMaxC= 1.00D-01 BMatC= 6.23D-10 BMatP= 1.05D-07
 IDIUse=1 WtCom= 1.00D+00 WtEn= 0.00D+00
 Coeff-Com:  0.405D-04-0.152D-04-0.727D-03-0.911D-02-0.134D-01-0.116D-02
 Coeff-Com:  0.102D+01
 Coeff:      0.405D-04-0.152D-04-0.727D-03-0.911D-02-0.134D-01-0.116D-02
 Coeff:      0.102D+01
 Gap=     0.231 Goal=   None    Shift=    0.000
 RMSDP=4.54D-07 MaxDP=5.14D-06 DE=-1.11D-07 OVMax= 1.04D-05

 Cycle   8  Pass 1  IDiag  1:
 E= -233.196393742778     Delta-E=       -0.000000000975 Rises=F Damp=F
 DIIS: error= 2.87D-07 at cycle   8 NSaved=   8.
 NSaved= 8 IEnMin= 8 EnMin= -233.196393742778     IErMin= 8 ErrMin= 2.87D-07
 ErrMax= 2.87D-07  0.00D+00 EMaxC= 1.00D-01 BMatC= 1.30D-11 BMatP= 6.23D-10
 IDIUse=1 WtCom= 1.00D+00 WtEn= 0.00D+00
 Coeff-Com: -0.175D-05 0.236D-04 0.110D-04-0.693D-03-0.471D-02-0.202D-01
 Coeff-Com:  0.797D-01 0.946D+00
 Coeff:     -0.175D-05 0.236D-04 0.110D-04-0.693D-03-0.471D-02-0.202D-01
 Coeff:      0.797D-01 0.946D+00
 Gap=     0.231 Goal=   None    Shift=    0.000
 RMSDP=4.53D-08 MaxDP=3.37D-07 DE=-9.75D-10 OVMax= 2.16D-06

 Cycle   9  Pass 1  IDiag  1:
 E= -233.196393742792     Delta-E=       -0.000000000014 Rises=F Damp=F
 DIIS: error= 5.28D-08 at cycle   9 NSaved=   9.
 NSaved= 9 IEnMin= 9 EnMin= -233.196393742792     IErMin= 9 ErrMin= 5.28D-08
 ErrMax= 5.28D-08  0.00D+00 EMaxC= 1.00D-01 BMatC= 1.36D-13 BMatP= 1.30D-11
 IDIUse=1 WtCom= 1.00D+00 WtEn= 0.00D+00
 Coeff-Com: -0.589D-06-0.803D-06 0.809D-05 0.126D-03 0.399D-03 0.144D-02
 Coeff-Com: -0.146D-01-0.508D-01 0.106D+01
 Coeff:     -0.589D-06-0.803D-06 0.809D-05 0.126D-03 0.399D-03 0.144D-02
 Coeff:     -0.146D-01-0.508D-01 0.106D+01
 Gap=     0.231 Goal=   None    Shift=    0.000
 RMSDP=6.64D-09 MaxDP=8.08D-08 DE=-1.43D-11 OVMax= 3.65D-07

 Error on total polarization charges =  0.02950
 SCF Done:  E(RM06) =  -233.196393743     A.U. after    9 cycles
            NFock=  9  Conv=0.66D-08     -V/T= 2.0074
 KE= 2.314879905637D+02 PE=-9.721001582912D+02 EE= 2.914386676162D+02
 SMD-CDS (non-electrostatic) energy       (kcal/mol) =      -3.22
 (included in total energy above)
 Leave Link  502 at Fri May 26 09:56:05 2023, MaxMem=  2147483648 cpu:              25.0 elap:              24.5
 (Enter C:\G16W\l601.exe)
 Copying SCF densities to generalized density rwf, IOpCl= 0 IROHF=0.

 **********************************************************************

            Population analysis using the SCF Density.

 **********************************************************************

 Orbital symmetries:
       Occupied  (B3) (A) (B2) (A) (B3) (B1) (A) (B2) (B3) (A)
                 (B1) (A) (B3) (B1) (B2) (B2) (B2) (B3) (A) (B1)
                 (B3) (B1)
       Virtual   (A) (B2) (A) (B3) (B2) (B1) (A) (B2) (B3) (B1)
                 (A) (B2) (B1) (B3) (B3) (B1) (B2) (A) (B1) (A)
                 (B2) (B3) (A) (B1) (B3) (B2) (A) (B1) (B2) (B1)
                 (A) (B2) (B3) (B3) (B1) (A) (B2) (B3) (B1) (A)
                 (B3) (B2) (B3) (A) (B1) (B2) (B1) (B3) (B3) (B1)
                 (A) (B3) (A) (B2) (B3) (B1) (A) (B2) (B3) (B2)
                 (A) (A) (B1) (A) (B1) (B2) (B2) (B1) (A) (B3)
                 (B2) (B3) (B2) (B1) (B3) (A) (B1) (B2) (B1) (B2)
                 (B1) (A) (B3) (B3) (B2) (B1) (A) (B2) (A) (B3)
                 (A) (B3) (B2) (B3) (B1) (A) (B1) (B2) (B3) (A)
                 (B1) (B3)
 The electronic state is 1-A.
 Alpha  occ. eigenvalues --  -10.24901 -10.24898 -10.24517 -10.24514 -10.24444
 Alpha  occ. eigenvalues --  -10.24443  -0.83187  -0.74576  -0.74238  -0.63785
 Alpha  occ. eigenvalues --   -0.57688  -0.49918  -0.48556  -0.44565  -0.44138
 Alpha  occ. eigenvalues --   -0.41003  -0.40757  -0.38053  -0.34661  -0.33118
 Alpha  occ. eigenvalues --   -0.25688  -0.22704
 Alpha virt. eigenvalues --    0.00441   0.02800   0.08797   0.11428   0.11592
 Alpha virt. eigenvalues --    0.13201   0.13216   0.15558   0.15618   0.15840
 Alpha virt. eigenvalues --    0.20488   0.24614   0.26009   0.26720   0.40550
 Alpha virt. eigenvalues --    0.42784   0.44283   0.44938   0.47454   0.48317
 Alpha virt. eigenvalues --    0.49607   0.51740   0.52867   0.54008   0.54122
 Alpha virt. eigenvalues --    0.55125   0.58993   0.60771   0.62927   0.63207
 Alpha virt. eigenvalues --    0.63514   0.64082   0.65113   0.65542   0.65872
 Alpha virt. eigenvalues --    0.66099   0.69670   0.70348   0.79227   0.82490
 Alpha virt. eigenvalues --    0.83834   0.86380   0.90539   0.92643   0.94457
 Alpha virt. eigenvalues --    1.03387   1.05346   1.07101   1.14184   1.15043
 Alpha virt. eigenvalues --    1.24313   1.26422   1.27805   1.34722   1.34776
 Alpha virt. eigenvalues --    1.35933   1.38752   1.41653   1.48089   1.53281
 Alpha virt. eigenvalues --    1.54443   1.58095   1.58498   1.59623   1.62620
 Alpha virt. eigenvalues --    1.62730   1.65655   1.65774   1.69574   1.69597
 Alpha virt. eigenvalues --    1.69636   1.73451   1.76497   1.81530   1.82811
 Alpha virt. eigenvalues --    1.85401   1.87588   1.87603   1.88555   1.98272
 Alpha virt. eigenvalues --    2.00054   2.01576   2.02117   2.07424   2.10108
 Alpha virt. eigenvalues --    2.11662   2.14047   2.21408   2.24704   2.24879
 Alpha virt. eigenvalues --    2.37034   2.40024   2.42879   2.43602   2.47271
 Alpha virt. eigenvalues --    2.52723   2.54609   2.60777   2.63584   2.63861
 Alpha virt. eigenvalues --    2.78701   2.98047
          Condensed to atoms (all electrons):
               1          2          3          4          5          6
     1  C    4.811935   0.395471  -0.037237  -0.012130  -0.043909   0.668161
     2  C    0.395471   4.629800   0.395471  -0.043909  -0.046616  -0.043909
     3  C   -0.037237   0.395471   4.811935   0.668161  -0.043909  -0.012130
     4  C   -0.012130  -0.043909   0.668161   4.811935   0.395471  -0.037237
     5  C   -0.043909  -0.046616  -0.043909   0.395471   4.629800   0.395471
     6  C    0.668161  -0.043909  -0.012130  -0.037237   0.395471   4.811935
     7  H    0.005523  -0.042825   0.383158  -0.027337   0.008917  -0.000517
     8  H   -0.019709   0.368622  -0.020909  -0.009158   0.001057   0.005558
     9  H   -0.020909   0.368622  -0.019709   0.005558   0.001057  -0.009158
    10  H   -0.000517   0.008917  -0.027337   0.383158  -0.042825   0.005523
    11  H    0.005558   0.001057  -0.009158  -0.020909   0.368622  -0.019709
    12  H   -0.009158   0.001057   0.005558  -0.019709   0.368622  -0.020909
    13  H   -0.027337   0.008917  -0.000517   0.005523  -0.042825   0.383158
    14  H    0.383158  -0.042825   0.005523  -0.000517   0.008917  -0.027337
               7          8          9         10         11         12
     1  C    0.005523  -0.019709  -0.020909  -0.000517   0.005558  -0.009158
     2  C   -0.042825   0.368622   0.368622   0.008917   0.001057   0.001057
     3  C    0.383158  -0.020909  -0.019709  -0.027337  -0.009158   0.005558
     4  C   -0.027337  -0.009158   0.005558   0.383158  -0.020909  -0.019709
     5  C    0.008917   0.001057   0.001057  -0.042825   0.368622   0.368622
     6  C   -0.000517   0.005558  -0.009158   0.005523  -0.019709  -0.020909
     7  H    0.678872  -0.001378  -0.002145  -0.015428  -0.000056  -0.000428
     8  H   -0.001378   0.652535  -0.038234  -0.000056  -0.000168   0.000447
     9  H   -0.002145  -0.038234   0.652535  -0.000428   0.000447  -0.000168
    10  H   -0.015428  -0.000056  -0.000428   0.678872  -0.001378  -0.002145
    11  H   -0.000056  -0.000168   0.000447  -0.001378   0.652535  -0.038234
    12  H   -0.000428   0.000447  -0.000168  -0.002145  -0.038234   0.652535
    13  H    0.000052  -0.000428  -0.000056  -0.000269  -0.002145  -0.001378
    14  H   -0.000269  -0.002145  -0.001378   0.000052  -0.000428  -0.000056
              13         14
     1  C   -0.027337   0.383158
     2  C    0.008917  -0.042825
     3  C   -0.000517   0.005523
     4  C    0.005523  -0.000517
     5  C   -0.042825   0.008917
     6  C    0.383158  -0.027337
     7  H    0.000052  -0.000269
     8  H   -0.000428  -0.002145
     9  H   -0.000056  -0.001378
    10  H   -0.000269   0.000052
    11  H   -0.002145  -0.000428
    12  H   -0.001378  -0.000056
    13  H    0.678872  -0.015428
    14  H   -0.015428   0.678872
 Mulliken charges:
               1
     1  C   -0.098900
     2  C    0.042150
     3  C   -0.098900
     4  C   -0.098900
     5  C    0.042150
     6  C   -0.098900
     7  H    0.013861
     8  H    0.063965
     9  H    0.063965
    10  H    0.013861
    11  H    0.063965
    12  H    0.063965
    13  H    0.013861
    14  H    0.013861
 Sum of Mulliken charges =   0.00000
 Mulliken charges with hydrogens summed into heavy atoms:
               1
     1  C   -0.085040
     2  C    0.170080
     3  C   -0.085040
     4  C   -0.085040
     5  C    0.170080
     6  C   -0.085040
 Electronic spatial extent (au):  <R**2>=            521.7520
 Charge=              0.0000 electrons
 Dipole moment (field-independent basis, Debye):
    X=              0.0000    Y=              0.0000    Z=              0.0000  Tot=              0.0000
 Quadrupole moment (field-independent basis, Debye-Ang):
   XX=            -33.3040   YY=            -35.5608   ZZ=            -37.9044
   XY=              0.0000   XZ=              0.0000   YZ=              0.0000
 Traceless Quadrupole moment (field-independent basis, Debye-Ang):
   XX=              2.2857   YY=              0.0289   ZZ=             -2.3147
   XY=              0.0000   XZ=              0.0000   YZ=              0.0000
 Octapole moment (field-independent basis, Debye-Ang**2):
  XXX=              0.0000  YYY=              0.0000  ZZZ=              0.0000  XYY=              0.0000
  XXY=              0.0000  XXZ=              0.0000  XZZ=              0.0000  YZZ=              0.0000
  YYZ=              0.0000  XYZ=             -3.1805
 Hexadecapole moment (field-independent basis, Debye-Ang**3):
 XXXX=           -328.6233 YYYY=           -304.2675 ZZZZ=            -59.0661 XXXY=              0.0000
 XXXZ=              0.0000 YYYX=              0.0000 YYYZ=              0.0000 ZZZX=              0.0000
 ZZZY=              0.0000 XXYY=           -105.6044 XXZZ=            -59.8009 YYZZ=            -67.1310
 XXYZ=              0.0000 YYXZ=              0.0000 ZZXY=              0.0000
 N-N= 2.159771063686D+02 E-N=-9.721001561541D+02  KE= 2.314879905637D+02
 Symmetry A    KE= 7.416851134717D+01
 Symmetry B1   KE= 4.130435113613D+01
 Symmetry B2   KE= 4.215248428489D+01
 Symmetry B3   KE= 7.386264379549D+01
 No NMR shielding tensors so no spin-rotation constants.
 Leave Link  601 at Fri May 26 09:56:06 2023, MaxMem=  2147483648 cpu:               1.0 elap:               0.7
 (Enter C:\G16W\l701.exe)
 ... and contract with generalized density number  0.
 Compute integral first derivatives.
 D1PCM: PCM CHGder 1st derivatives, ID1Alg=3 FixD1E=F DoIter=F DoCFld=F I1PDM=0.
 GePol: Maximum number of non-zero 1st derivatives   =     195
 Leave Link  701 at Fri May 26 09:56:09 2023, MaxMem=  2147483648 cpu:               2.0 elap:               2.4
 (Enter C:\G16W\l702.exe)
 L702 exits ... SP integral derivatives will be done elsewhere.
 Leave Link  702 at Fri May 26 09:56:10 2023, MaxMem=  2147483648 cpu:               0.0 elap:               0.3
 (Enter C:\G16W\l703.exe)
 Integral derivatives from FoFJK, PRISM(SPDF).
 Compute integral first derivatives, UseDBF=F ICtDFT=           0.
 Calling FoFJK, ICntrl=      2127 FMM=F ISym2X=1 I1Cent= 0 IOpClX= 0 NMat=1 NMatS=1 NMatT=0.
 FoFJK:  IHMeth= 1 ICntrl=    2127 DoSepK=F KAlg= 0 I1Cent=           0 FoldK=F
 IRaf=         0 NMat=       1 IRICut=       1 DoRegI=T DoRafI=F ISym2E= 1 IDoP0=0 IntGTp=1.
 FoFCou: FMM=F IPFlag=           0 FMFlag=      100000 FMFlg1=         800
         NFxFlg=           0 DoJE=F BraDBF=F KetDBF=F FulRan=T
         wScrn=  0.000000 ICntrl=      2127 IOpCl=  0 I1Cent=           0 NGrid=           0
         NMat0=    1 NMatS0=      1 NMatT0=    0 NMatD0=    1 NMtDS0=    0 NMtDT0=    0
 Petite list used in FoFCou.
 Leave Link  703 at Fri May 26 09:56:12 2023, MaxMem=  2147483648 cpu:               1.0 elap:               1.2
 (Enter C:\G16W\l716.exe)
 Dipole        = 3.10862447D-15-1.06581410D-14 9.99200722D-16
 ***** Axes restored to original set *****
 -------------------------------------------------------------------
 Center     Atomic                   Forces (Hartrees/Bohr)
 Number     Number              X              Y              Z
 -------------------------------------------------------------------
      1        6           0.027653125    0.027841800   -0.002803274
      2        6          -0.033454317    0.050096835   -0.000114630
      3        6          -0.036318692   -0.014865373    0.002773582
      4        6          -0.020885872   -0.023383465   -0.023763700
      5        6           0.033454317   -0.050096835    0.000114630
      6        6           0.029551439    0.010407038    0.023793392
      7        1           0.020621759   -0.004199893    0.014436219
      8        1           0.013474488   -0.013231105    0.018113992
      9        1           0.007096354   -0.017573113   -0.018043507
     10        1           0.008600663    0.023738958   -0.003713611
     11        1           0.000781396    0.022763054   -0.012883068
     12        1          -0.021352238    0.008041164    0.012812583
     13        1          -0.025230447    0.001163643    0.003656630
     14        1          -0.003991976   -0.020702708   -0.014379238
 -------------------------------------------------------------------
 Cartesian Forces:  Max     0.050096835 RMS     0.021152979
 Leave Link  716 at Fri May 26 09:56:13 2023, MaxMem=  2147483648 cpu:               0.0 elap:               0.2
 (Enter C:\G16W\l103.exe)

 GradGradGradGradGradGradGradGradGradGradGradGradGradGradGradGradGradGrad
 Berny optimization.
 FormGI is forming the generalized inverse of G from B-inverse, IUseBI=4.
 Internal  Forces:  Max     0.024344615 RMS     0.010121044
 Search for a local minimum.
 Step number   1 out of a maximum of   80
 All quantities printed in internal units (Hartrees-Bohrs-Radians)
 RMS Force = .10121D-01 SwitMx=.10000D-02 MixMth= 1
 Mixed Optimization -- RFO/linear search
 Second derivative matrix not updated -- first step.
 ITU=  0
     Eigenvalues ---    0.00230   0.00747   0.00867   0.01260   0.01378
     Eigenvalues ---    0.01531   0.01834   0.04221   0.04819   0.06498
     Eigenvalues ---    0.06642   0.09605   0.09606   0.10538   0.11033
     Eigenvalues ---    0.16000   0.16000   0.16000   0.16000   0.20785
     Eigenvalues ---    0.21664   0.22000   0.27062   0.27508   0.28083
     Eigenvalues ---    0.28166   0.37230   0.37230   0.37230   0.37230
     Eigenvalues ---    0.37230   0.37230   0.37230   0.37230   0.52041
     Eigenvalues ---    0.55383
 RFO step:  Lambda=-3.65673031D-02 EMin= 2.30000000D-03
 Linear search not attempted -- first point.
 Iteration  1 RMS(Cart)=  0.07110500 RMS(Int)=  0.00366141
 Iteration  2 RMS(Cart)=  0.00385493 RMS(Int)=  0.00091768
 Iteration  3 RMS(Cart)=  0.00000792 RMS(Int)=  0.00091765
 Iteration  4 RMS(Cart)=  0.00000000 RMS(Int)=  0.00091765
 ITry= 1 IFail=0 DXMaxC= 2.49D-01 DCOld= 1.00D+10 DXMaxT= 3.00D-01 DXLimC= 3.00D+00 Rises=F
 ClnCor:  largest displacement from symmetrization is 2.09D-09 for atom    13.
 Variable       Old X    -DE/DX   Delta X   Delta X   Delta X     New X
                                 (Linear)    (Quad)   (Total)
    R1        2.91776  -0.02159   0.00000  -0.06907  -0.06911   2.84865
    R2        2.54356  -0.00763   0.00000  -0.01132  -0.01124   2.53232
    R3        2.02201   0.01939   0.00000   0.04743   0.04743   2.06943
    R4        2.91776  -0.02159   0.00000  -0.06907  -0.06911   2.84865
    R5        2.02201   0.02434   0.00000   0.05954   0.05954   2.08155
    R6        2.02201   0.02434   0.00000   0.05954   0.05954   2.08155
    R7        2.54356  -0.00763   0.00000  -0.01132  -0.01124   2.53232
    R8        2.02201   0.01939   0.00000   0.04743   0.04743   2.06943
    R9        2.91776  -0.02159   0.00000  -0.06907  -0.06911   2.84865
   R10        2.02201   0.01939   0.00000   0.04743   0.04743   2.06943
   R11        2.91776  -0.02159   0.00000  -0.06907  -0.06911   2.84865
   R12        2.02201   0.02434   0.00000   0.05954   0.05954   2.08155
   R13        2.02201   0.02434   0.00000   0.05954   0.05954   2.08155
   R14        2.02201   0.01939   0.00000   0.04743   0.04743   2.06943
    A1        2.13042   0.00172   0.00000   0.01784   0.01547   2.14588
    A2        2.07615  -0.00481   0.00000  -0.02893  -0.02774   2.04841
    A3        2.07661   0.00309   0.00000   0.01110   0.01228   2.08889
    A4        1.95373  -0.00105   0.00000   0.00926   0.00643   1.96016
    A5        1.87185   0.00370   0.00000   0.03149   0.03252   1.90437
    A6        1.92481  -0.00138   0.00000  -0.01914  -0.01870   1.90611
    A7        1.92481  -0.00138   0.00000  -0.01914  -0.01870   1.90611
    A8        1.87185   0.00370   0.00000   0.03149   0.03252   1.90437
    A9        1.91720  -0.00380   0.00000  -0.03609  -0.03612   1.88108
   A10        2.13042   0.00172   0.00000   0.01784   0.01547   2.14588
   A11        2.07615  -0.00481   0.00000  -0.02893  -0.02774   2.04841
   A12        2.07661   0.00309   0.00000   0.01110   0.01228   2.08889
   A13        2.13042   0.00172   0.00000   0.01784   0.01547   2.14588
   A14        2.07661   0.00309   0.00000   0.01110   0.01228   2.08889
   A15        2.07615  -0.00481   0.00000  -0.02893  -0.02774   2.04841
   A16        1.95373  -0.00105   0.00000   0.00926   0.00643   1.96016
   A17        1.92481  -0.00138   0.00000  -0.01914  -0.01870   1.90611
   A18        1.87185   0.00370   0.00000   0.03149   0.03252   1.90437
   A19        1.87185   0.00370   0.00000   0.03149   0.03252   1.90437
   A20        1.92481  -0.00138   0.00000  -0.01914  -0.01870   1.90611
   A21        1.91720  -0.00380   0.00000  -0.03609  -0.03612   1.88108
   A22        2.13042   0.00172   0.00000   0.01784   0.01547   2.14588
   A23        2.07661   0.00309   0.00000   0.01110   0.01228   2.08889
   A24        2.07615  -0.00481   0.00000  -0.02893  -0.02774   2.04841
    D1        0.23697  -0.00433   0.00000  -0.07680  -0.07674   0.16022
    D2        2.35041  -0.00423   0.00000  -0.07416  -0.07416   2.27626
    D3       -1.84556  -0.00738   0.00000  -0.10965  -0.10925  -1.95481
    D4       -2.90932  -0.00396   0.00000  -0.07395  -0.07377  -2.98309
    D5       -0.79587  -0.00386   0.00000  -0.07130  -0.07118  -0.86705
    D6        1.29134  -0.00701   0.00000  -0.10679  -0.10627   1.18506
    D7       -0.47017   0.00737   0.00000   0.14904   0.14972  -0.32045
    D8        2.67612   0.00702   0.00000   0.14629   0.14678   2.82290
    D9        2.67612   0.00702   0.00000   0.14629   0.14678   2.82290
   D10       -0.46078   0.00667   0.00000   0.14354   0.14385  -0.31694
   D11        0.23697  -0.00433   0.00000  -0.07680  -0.07674   0.16022
   D12       -2.90932  -0.00396   0.00000  -0.07395  -0.07377  -2.98309
   D13       -1.84556  -0.00738   0.00000  -0.10965  -0.10925  -1.95481
   D14        1.29134  -0.00701   0.00000  -0.10679  -0.10627   1.18506
   D15        2.35041  -0.00423   0.00000  -0.07416  -0.07416   2.27626
   D16       -0.79587  -0.00386   0.00000  -0.07130  -0.07118  -0.86705
   D17       -0.47017   0.00737   0.00000   0.14904   0.14972  -0.32045
   D18        2.67612   0.00702   0.00000   0.14629   0.14678   2.82290
   D19        2.67612   0.00702   0.00000   0.14629   0.14678   2.82290
   D20       -0.46078   0.00667   0.00000   0.14354   0.14385  -0.31694
   D21        0.23697  -0.00433   0.00000  -0.07680  -0.07674   0.16022
   D22       -1.84556  -0.00738   0.00000  -0.10965  -0.10925  -1.95481
   D23        2.35041  -0.00423   0.00000  -0.07416  -0.07416   2.27626
   D24       -2.90932  -0.00396   0.00000  -0.07395  -0.07377  -2.98309
   D25        1.29134  -0.00701   0.00000  -0.10679  -0.10627   1.18506
   D26       -0.79587  -0.00386   0.00000  -0.07130  -0.07118  -0.86705
   D27        0.23697  -0.00433   0.00000  -0.07680  -0.07674   0.16022
   D28       -2.90932  -0.00396   0.00000  -0.07395  -0.07377  -2.98309
   D29        2.35041  -0.00423   0.00000  -0.07416  -0.07416   2.27626
   D30       -0.79587  -0.00386   0.00000  -0.07130  -0.07118  -0.86705
   D31       -1.84556  -0.00738   0.00000  -0.10965  -0.10925  -1.95481
   D32        1.29134  -0.00701   0.00000  -0.10679  -0.10627   1.18506
         Item               Value     Threshold  Converged?
 Maximum Force            0.024345     0.000015     NO 
 RMS     Force            0.010121     0.000010     NO 
 Maximum Displacement     0.248978     0.000060     NO 
 RMS     Displacement     0.071415     0.000040     NO 
 Predicted change in Energy=-2.577663D-02
 Lowest energy point so far.  Saving SCF results.
 GradGradGradGradGradGradGradGradGradGradGradGradGradGradGradGradGradGrad

 Leave Link  103 at Fri May 26 09:56:13 2023, MaxMem=  2147483648 cpu:               0.0 elap:               0.1
 (Enter C:\G16W\l202.exe)
                          Input orientation:                          
 ---------------------------------------------------------------------
 Center     Atomic      Atomic             Coordinates (Angstroms)
 Number     Number       Type             X           Y           Z
 ---------------------------------------------------------------------
      1          6           0       -2.257820   -1.022920   -0.275596
      2          6           0       -0.776729   -1.042792    0.004316
      3          6           0       -0.228153    0.333751    0.281032
      4          6           0       -1.009433    1.409200    0.450545
      5          6           0       -2.446702    1.457943   -0.001406
      6          6           0       -2.951455    0.110270   -0.450162
      7          1           0        0.860081    0.438613    0.344183
      8          1           0       -0.582515   -1.691732    0.872923
      9          1           0       -0.249904   -1.473586   -0.861821
     10          1           0       -0.603686    2.303262    0.935582
     11          1           0       -2.540986    2.173699   -0.833346
     12          1           0       -3.073457    1.821920    0.828063
     13          1           0       -3.931723    0.076537   -0.937168
     14          1           0       -2.771533   -1.988112   -0.336778
 ---------------------------------------------------------------------
                    Distance matrix (angstroms):
                    1          2          3          4          5
     1  C    0.000000
     2  C    1.507441   0.000000
     3  C    2.503985   1.507441   0.000000
     4  C    2.828597   2.503106   1.340046   0.000000
     5  C    2.503106   3.007078   2.503106   1.507441   0.000000
     6  C    1.340046   2.503106   2.828597   2.503985   1.507441
     7  H    3.498788   2.233656   1.095098   2.109131   3.477540
     8  H    2.138469   1.101508   2.139740   3.158550   3.762990
     9  H    2.139740   1.101508   2.138469   3.257244   3.762990
    10  H    3.907250   3.477540   2.109131   1.095098   2.233656
    11  H    3.257244   3.762990   3.158550   2.139740   1.101508
    12  H    3.158550   3.762990   3.257244   2.138469   1.101508
    13  H    2.109131   3.477540   3.907250   3.498788   2.233656
    14  H    1.095098   2.233656   3.498788   3.907250   3.477540
                    6          7          8          9         10
     6  C    0.000000
     7  H    3.907250   0.000000
     8  H    3.257244   2.626599   0.000000
     9  H    3.158550   2.518535   1.779762   0.000000
    10  H    3.498788   2.443212   3.995542   4.197666   0.000000
    11  H    2.138469   3.995542   4.657093   4.307267   2.626599
    12  H    2.139740   4.197666   4.307267   4.657093   2.518535
    13  H    1.095098   4.973364   4.197666   3.995542   4.420557
    14  H    2.109131   4.420557   2.518535   2.626599   4.973364
                   11         12         13         14
    11  H    0.000000
    12  H    1.779762   0.000000
    13  H    2.518535   2.626599   0.000000
    14  H    4.197666   3.995542   2.443212   0.000000
 Stoichiometry    C6H8
 Framework group  D2[C2(C.C),X(C4H8)]
 Deg. of freedom    10
 Full point group                 D2      NOp   4
 Omega: Change in point group or standard orientation.

 Old FWG=D02  [C2"(C1.C1),X(C4H8)]
 New FWG=D02  [C2(C1.C1),X(C4H8)]
 RotChk:  IX=1 Diff= 2.00D+00
 Largest Abelian subgroup         D2      NOp   4
 Largest concise Abelian subgroup D2      NOp   4
                         Standard orientation:                         
 ---------------------------------------------------------------------
 Center     Atomic      Atomic             Coordinates (Angstroms)
 Number     Number       Type             X           Y           Z
 ---------------------------------------------------------------------
      1          6           0       -0.089933   -1.248758    0.663960
      2          6           0        0.000000    0.000000    1.503539
      3          6           0        0.089933    1.248758    0.663960
      4          6           0       -0.089933    1.248758   -0.663960
      5          6           0        0.000000    0.000000   -1.503539
      6          6           0        0.089933   -1.248758   -0.663960
      7          1           0        0.311500    2.188218    1.181223
      8          1           0       -0.887660    0.062839    2.152717
      9          1           0        0.887660   -0.062839    2.152717
     10          1           0       -0.311500    2.188218   -1.181223
     11          1           0        0.887660    0.062839   -2.152717
     12          1           0       -0.887660   -0.062839   -2.152717
     13          1           0        0.311500   -2.188218   -1.181223
     14          1           0       -0.311500   -2.188218    1.181223
 ---------------------------------------------------------------------
 Rotational constants (GHZ):           5.1503151           4.8745047           2.6064941
 Leave Link  202 at Fri May 26 09:56:14 2023, MaxMem=  2147483648 cpu:               0.0 elap:               0.2
 (Enter C:\G16W\l301.exe)
 Standard basis: CC-pVDZ (5D, 7F)
 Ernie: Thresh=  0.10000D-02 Tol=  0.10000D-05 Strict=F.
 Ernie:  12 primitive shells out of 172 were deleted.
 There are    34 symmetry adapted cartesian basis functions of A   symmetry.
 There are    34 symmetry adapted cartesian basis functions of B1  symmetry.
 There are    31 symmetry adapted cartesian basis functions of B2  symmetry.
 There are    31 symmetry adapted cartesian basis functions of B3  symmetry.
 There are    32 symmetry adapted basis functions of A   symmetry.
 There are    32 symmetry adapted basis functions of B1  symmetry.
 There are    30 symmetry adapted basis functions of B2  symmetry.
 There are    30 symmetry adapted basis functions of B3  symmetry.
   124 basis functions,   254 primitive gaussians,   130 cartesian basis functions
    22 alpha electrons       22 beta electrons
       nuclear repulsion energy       217.6164107859 Hartrees.
 IExCor= 4235 DFT=T Ex+Corr=M06 ExCW=0 ScaHFX=  0.270000
 ScaDFX=  1.000000  1.000000  1.000000  1.000000 ScalE2=  1.000000  1.000000
 IRadAn=      5 IRanWt=     -1 IRanGd=            0 ICorTp=0 IEmpDi=  4
 NAtoms=   14 NActive=   14 NUniq=    4 SFac= 4.00D+00 NAtFMM=   60 NAOKFM=F Big=F
 Integral buffers will be    131072 words long.
 Raffenetti 2 integral format.
 Two-electron integral symmetry is turned on.
 ------------------------------------------------------------------------------
 Polarizable Continuum Model (PCM)
 =================================
 Model                : PCM.
 Atomic radii         : SMD-Coulomb.
 Polarization charges : Total charges.
 Charge compensation  : None.
 Solution method      : On-the-fly selection.
 Cavity type          : VdW (van der Waals Surface) (Alpha=1.000).
 Cavity algorithm     : GePol (No added spheres)
                        Default sphere list used, NSphG=   14.
                        Lebedev-Laikov grids with approx.  5.0 points / Ang**2.
                        Smoothing algorithm: York/Karplus (Gamma=1.0000).
                        Polarization charges: spherical gaussians, with
                                              point-specific exponents (IZeta= 3).
                        Self-potential: point-specific (ISelfS= 7).
                        Self-field    : sphere-specific E.n sum rule (ISelfD= 2).
 1st derivatives      : Analytical E(r).r(x)/FMM algorithm (CHGder, D1EAlg=3).
                        Cavity 1st derivative terms included.
 Solvent              : Chloroform, Eps=   4.711300 Eps(inf)=   2.090627
 ------------------------------------------------------------------------------
 Spheres list:
 ISph  on   Nord     Re0    Alpha      Xe            Ye            Ze
    1   C      1    1.8500  1.000     -0.089933     -1.248758      0.663960
    2   C      2    1.8500  1.000      0.000000      0.000000      1.503539
    3   C      3    1.8500  1.000      0.089933      1.248758      0.663960
    4   C      4    1.8500  1.000     -0.089933      1.248758     -0.663960
    5   C      5    1.8500  1.000      0.000000      0.000000     -1.503539
    6   C      6    1.8500  1.000      0.089933     -1.248758     -0.663960
    7   H      7    1.2000  1.000      0.311500      2.188218      1.181223
    8   H      8    1.2000  1.000     -0.887660      0.062839      2.152717
    9   H      9    1.2000  1.000      0.887660     -0.062839      2.152717
   10   H     10    1.2000  1.000     -0.311500      2.188218     -1.181223
   11   H     11    1.2000  1.000      0.887660      0.062839     -2.152717
   12   H     12    1.2000  1.000     -0.887660     -0.062839     -2.152717
   13   H     13    1.2000  1.000      0.311500     -2.188218     -1.181223
   14   H     14    1.2000  1.000     -0.311500     -2.188218      1.181223
 ------------------------------------------------------------------------------
 GePol: Number of generator spheres                  =      14
 GePol: Total number of spheres                      =      14
 GePol: Number of exposed spheres                    =      14 (100.00%)
 GePol: Number of points                             =    1102
 GePol: Average weight of points                     =       0.11
 GePol: Minimum weight of points                     =   0.28D-08
 GePol: Maximum weight of points                     =    0.17992
 GePol: Number of points with low weight             =      64
 GePol: Fraction of low-weight points (<1% of avg)   =       5.81%
 GePol: Cavity surface area                          =    119.998 Ang**2
 GePol: Cavity volume                                =     99.230 Ang**3
 ------------------------------------------------------------------------------
 Atomic radii for non-electrostatic terms: SMD-CDS.
 ------------------------------------------------------------------------------
 PCM non-electrostatic energy =        -0.0052993008 Hartrees.
 Nuclear repulsion after PCM non-electrostatic terms =      217.6111114851 Hartrees.
 Leave Link  301 at Fri May 26 09:56:14 2023, MaxMem=  2147483648 cpu:               0.0 elap:               0.1
 (Enter C:\G16W\l302.exe)
 NPDir=0 NMtPBC=     1 NCelOv=     1 NCel=       1 NClECP=     1 NCelD=      1
         NCelK=      1 NCelE2=     1 NClLst=     1 CellRange=     0.0.
 One-electron integrals computed using PRISM.
 One-electron integral symmetry used in STVInt
 NBasis=   124 RedAO= T EigKep=  8.52D-04  NBF=    32    32    30    30
 NBsUse=   124 1.00D-06 EigRej= -1.00D+00 NBFU=    32    32    30    30
 Precomputing XC quadrature grid using
 IXCGrd= 4 IRadAn=           5 IRanWt=          -1 IRanGd=           0 AccXCQ= 0.00D+00.
 Generated NRdTot=       0 NPtTot=           0 NUsed=           0 NTot=          32
 NSgBfM=   130   130   130   130   130 MxSgAt=    14 MxSgA2=    14.
 Leave Link  302 at Fri May 26 09:56:15 2023, MaxMem=  2147483648 cpu:               0.0 elap:               0.5
 (Enter C:\G16W\l303.exe)
 DipDrv:  MaxL=1.
 Leave Link  303 at Fri May 26 09:56:16 2023, MaxMem=  2147483648 cpu:               0.0 elap:               0.3
 (Enter C:\G16W\l401.exe)
 Initial guess from the checkpoint file:  "cyclohexadiene.chk"
 B after Tr=     0.000000    0.000000    0.000000
         Rot=    0.707107    0.000000    0.707107    0.000000 Ang=  90.00 deg.
 Guess basis will be translated and rotated to current coordinates.
 JPrj=2 DoOrth=T DoCkMO=T.
 Initial guess orbital symmetries:
       Occupied  (B1) (A) (B2) (A) (B1) (B3) (A) (B2) (B1) (A)
                 (B3) (A) (B1) (B3) (B2) (B2) (B2) (B1) (A) (B3)
                 (B1) (B3)
       Virtual   (A) (B2) (A) (B1) (B2) (B3) (A) (B2) (B1) (B3)
                 (A) (B2) (B3) (B1) (B1) (B3) (B2) (A) (B3) (A)
                 (B2) (B1) (A) (B3) (B1) (B2) (A) (B3) (B2) (B3)
                 (A) (B2) (B1) (B1) (B3) (A) (B2) (B1) (B3) (A)
                 (B1) (B2) (B1) (A) (B3) (B2) (B3) (B1) (B1) (B3)
                 (A) (B1) (A) (B2) (B1) (B3) (A) (B2) (B1) (B2)
                 (A) (A) (B3) (A) (B3) (B2) (B2) (B3) (A) (B1)
                 (B2) (B1) (B2) (B3) (B1) (A) (B3) (B2) (B3) (B2)
                 (B3) (A) (B1) (B1) (B2) (B3) (A) (B2) (A) (B1)
                 (A) (B1) (B2) (B1) (B3) (A) (B3) (B2) (B1) (A)
                 (B3) (B1)
 The electronic state of the initial guess is 1-A.
 Generating alternative initial guess.
 ExpMin= 1.22D-01 ExpMax= 6.67D+03 ExpMxC= 2.28D+02 IAcc=3 IRadAn=         5 AccDes= 0.00D+00
 Harris functional with IExCor= 1009 and IRadAn=       5 diagonalized for initial guess.
 HarFok:  IExCor= 1009 AccDes= 0.00D+00 IRadAn=         5 IDoV= 1 UseB2=F ITyADJ=14
 ICtDFT=  3500011 ScaDFX=  1.000000  1.000000  1.000000  1.000000
 FoFCou: FMM=F IPFlag=           0 FMFlag=      100000 FMFlg1=           0
         NFxFlg=           0 DoJE=T BraDBF=F KetDBF=T FulRan=T
         wScrn=  0.000000 ICntrl=       500 IOpCl=  0 I1Cent=   200000004 NGrid=           0
         NMat0=    1 NMatS0=      1 NMatT0=    0 NMatD0=    1 NMtDS0=    0 NMtDT0=    0
 Petite list used in FoFCou.
 Harris En= -233.236971359578    
 Leave Link  401 at Fri May 26 09:56:18 2023, MaxMem=  2147483648 cpu:               2.0 elap:               1.7
 (Enter C:\G16W\l502.exe)
 Keep R1 ints in memory in symmetry-blocked form, NReq=45361255.
 FoFCou: FMM=F IPFlag=           0 FMFlag=           0 FMFlg1=           0
         NFxFlg=           0 DoJE=F BraDBF=F KetDBF=F FulRan=T
         wScrn=  0.000000 ICntrl=       600 IOpCl=  0 I1Cent=           0 NGrid=           0
         NMat0=    1 NMatS0=   7750 NMatT0=    0 NMatD0=    1 NMtDS0=    0 NMtDT0=    0
 Petite list used in FoFCou.
 Closed shell SCF:
 Using DIIS extrapolation, IDIIS=  1040.
 NGot=  2147483648 LenX=  2139914579 LenY=  2139897238
 Requested convergence on RMS density matrix=1.00D-08 within 128 cycles.
 Requested convergence on MAX density matrix=1.00D-06.
 Requested convergence on             energy=1.00D-06.
 No special actions if energy rises.

 Cycle   1  Pass 1  IDiag  1:
 Inv3:  Mode=1 IEnd=     3643212.
 Iteration    1 A*A^-1 deviation from unit magnitude is 4.44D-15 for      6.
 Iteration    1 A*A^-1 deviation from orthogonality  is 2.70D-15 for    828     79.
 Iteration    1 A^-1*A deviation from unit magnitude is 3.77D-15 for      6.
 Iteration    1 A^-1*A deviation from orthogonality  is 2.07D-15 for    603    247.
 E= -233.212762404474    
 DIIS: error= 7.28D-03 at cycle   1 NSaved=   1.
 NSaved= 1 IEnMin= 1 EnMin= -233.212762404474     IErMin= 1 ErrMin= 7.28D-03
 ErrMax= 7.28D-03  0.00D+00 EMaxC= 1.00D-01 BMatC= 4.67D-03 BMatP= 4.67D-03
 IDIUse=3 WtCom= 9.27D-01 WtEn= 7.28D-02
 Coeff-Com:  0.100D+01
 Coeff-En:   0.100D+01
 Coeff:      0.100D+01
 Gap=     0.280 Goal=   None    Shift=    0.000
 GapD=    0.280 DampG=1.000 DampE=1.000 DampFc=1.0000 IDamp=-1.
 RMSDP=1.18D-03 MaxDP=1.65D-02              OVMax= 3.59D-02

 Cycle   2  Pass 1  IDiag  1:
 E= -233.222338443493     Delta-E=       -0.009576039019 Rises=F Damp=F
 DIIS: error= 1.38D-03 at cycle   2 NSaved=   2.
 NSaved= 2 IEnMin= 2 EnMin= -233.222338443493     IErMin= 2 ErrMin= 1.38D-03
 ErrMax= 1.38D-03  0.00D+00 EMaxC= 1.00D-01 BMatC= 1.46D-04 BMatP= 4.67D-03
 IDIUse=3 WtCom= 9.86D-01 WtEn= 1.38D-02
 Coeff-Com: -0.329D-01 0.103D+01
 Coeff-En:   0.000D+00 0.100D+01
 Coeff:     -0.325D-01 0.103D+01
 Gap=     0.245 Goal=   None    Shift=    0.000
 RMSDP=2.14D-04 MaxDP=2.64D-03 DE=-9.58D-03 OVMax= 8.48D-03

 Cycle   3  Pass 1  IDiag  1:
 E= -233.222545616585     Delta-E=       -0.000207173092 Rises=F Damp=F
 DIIS: error= 1.07D-03 at cycle   3 NSaved=   3.
 NSaved= 3 IEnMin= 3 EnMin= -233.222545616585     IErMin= 3 ErrMin= 1.07D-03
 ErrMax= 1.07D-03  0.00D+00 EMaxC= 1.00D-01 BMatC= 7.08D-05 BMatP= 1.46D-04
 IDIUse=3 WtCom= 9.89D-01 WtEn= 1.07D-02
 Coeff-Com: -0.405D-01 0.424D+00 0.617D+00
 Coeff-En:   0.000D+00 0.000D+00 0.100D+01
 Coeff:     -0.401D-01 0.419D+00 0.621D+00
 Gap=     0.245 Goal=   None    Shift=    0.000
 RMSDP=8.03D-05 MaxDP=1.12D-03 DE=-2.07D-04 OVMax= 2.61D-03

 Cycle   4  Pass 1  IDiag  1:
 E= -233.222619211836     Delta-E=       -0.000073595251 Rises=F Damp=F
 DIIS: error= 1.89D-04 at cycle   4 NSaved=   4.
 NSaved= 4 IEnMin= 4 EnMin= -233.222619211836     IErMin= 4 ErrMin= 1.89D-04
 ErrMax= 1.89D-04  0.00D+00 EMaxC= 1.00D-01 BMatC= 4.50D-06 BMatP= 7.08D-05
 IDIUse=3 WtCom= 9.98D-01 WtEn= 1.89D-03
 Coeff-Com: -0.842D-02 0.380D-01 0.215D+00 0.756D+00
 Coeff-En:   0.000D+00 0.000D+00 0.000D+00 0.100D+01
 Coeff:     -0.840D-02 0.380D-01 0.214D+00 0.756D+00
 Gap=     0.245 Goal=   None    Shift=    0.000
 RMSDP=2.03D-05 MaxDP=2.97D-04 DE=-7.36D-05 OVMax= 7.83D-04

 Cycle   5  Pass 1  IDiag  1:
 E= -233.222624951134     Delta-E=       -0.000005739298 Rises=F Damp=F
 DIIS: error= 3.13D-05 at cycle   5 NSaved=   5.
 NSaved= 5 IEnMin= 5 EnMin= -233.222624951134     IErMin= 5 ErrMin= 3.13D-05
 ErrMax= 3.13D-05  0.00D+00 EMaxC= 1.00D-01 BMatC= 1.33D-07 BMatP= 4.50D-06
 IDIUse=1 WtCom= 1.00D+00 WtEn= 0.00D+00
 Coeff-Com:  0.116D-02-0.240D-01-0.324D-02 0.150D+00 0.876D+00
 Coeff:      0.116D-02-0.240D-01-0.324D-02 0.150D+00 0.876D+00
 Gap=     0.245 Goal=   None    Shift=    0.000
 RMSDP=4.30D-06 MaxDP=5.91D-05 DE=-5.74D-06 OVMax= 2.64D-04

 Cycle   6  Pass 1  IDiag  1:
 E= -233.222625184529     Delta-E=       -0.000000233396 Rises=F Damp=F
 DIIS: error= 5.12D-06 at cycle   6 NSaved=   6.
 NSaved= 6 IEnMin= 6 EnMin= -233.222625184529     IErMin= 6 ErrMin= 5.12D-06
 ErrMax= 5.12D-06  0.00D+00 EMaxC= 1.00D-01 BMatC= 2.40D-09 BMatP= 1.33D-07
 IDIUse=1 WtCom= 1.00D+00 WtEn= 0.00D+00
 Coeff-Com:  0.352D-03-0.212D-02-0.869D-02-0.261D-01 0.246D-01 0.101D+01
 Coeff:      0.352D-03-0.212D-02-0.869D-02-0.261D-01 0.246D-01 0.101D+01
 Gap=     0.245 Goal=   None    Shift=    0.000
 RMSDP=9.62D-07 MaxDP=1.40D-05 DE=-2.33D-07 OVMax= 5.25D-05

 Cycle   7  Pass 1  IDiag  1:
 E= -233.222625190188     Delta-E=       -0.000000005659 Rises=F Damp=F
 DIIS: error= 2.15D-06 at cycle   7 NSaved=   7.
 NSaved= 7 IEnMin= 7 EnMin= -233.222625190188     IErMin= 7 ErrMin= 2.15D-06
 ErrMax= 2.15D-06  0.00D+00 EMaxC= 1.00D-01 BMatC= 4.33D-10 BMatP= 2.40D-09
 IDIUse=1 WtCom= 1.00D+00 WtEn= 0.00D+00
 Coeff-Com:  0.795D-04 0.691D-04-0.295D-02-0.138D-01-0.171D-01 0.362D+00
 Coeff-Com:  0.672D+00
 Coeff:      0.795D-04 0.691D-04-0.295D-02-0.138D-01-0.171D-01 0.362D+00
 Coeff:      0.672D+00
 Gap=     0.245 Goal=   None    Shift=    0.000
 RMSDP=1.91D-07 MaxDP=4.78D-06 DE=-5.66D-09 OVMax= 6.48D-06

 Cycle   8  Pass 1  IDiag  1:
 E= -233.222625190598     Delta-E=       -0.000000000410 Rises=F Damp=F
 DIIS: error= 8.26D-07 at cycle   8 NSaved=   8.
 NSaved= 8 IEnMin= 8 EnMin= -233.222625190598     IErMin= 8 ErrMin= 8.26D-07
 ErrMax= 8.26D-07  0.00D+00 EMaxC= 1.00D-01 BMatC= 6.27D-11 BMatP= 4.33D-10
 IDIUse=1 WtCom= 1.00D+00 WtEn= 0.00D+00
 Coeff-Com: -0.130D-04 0.297D-03 0.599D-04-0.164D-02-0.969D-02 0.234D-03
 Coeff-Com:  0.282D+00 0.729D+00
 Coeff:     -0.130D-04 0.297D-03 0.599D-04-0.164D-02-0.969D-02 0.234D-03
 Coeff:      0.282D+00 0.729D+00
 Gap=     0.245 Goal=   None    Shift=    0.000
 RMSDP=6.37D-08 MaxDP=1.42D-06 DE=-4.10D-10 OVMax= 2.01D-06

 Cycle   9  Pass 1  IDiag  1:
 E= -233.222625190666     Delta-E=       -0.000000000067 Rises=F Damp=F
 DIIS: error= 4.72D-08 at cycle   9 NSaved=   9.
 NSaved= 9 IEnMin= 9 EnMin= -233.222625190666     IErMin= 9 ErrMin= 4.72D-08
 ErrMax= 4.72D-08  0.00D+00 EMaxC= 1.00D-01 BMatC= 2.61D-13 BMatP= 6.27D-11
 IDIUse=1 WtCom= 1.00D+00 WtEn= 0.00D+00
 Coeff-Com: -0.410D-05 0.244D-04 0.119D-03 0.331D-03-0.312D-03-0.121D-01
 Coeff-Com:  0.453D-02 0.698D-01 0.938D+00
 Coeff:     -0.410D-05 0.244D-04 0.119D-03 0.331D-03-0.312D-03-0.121D-01
 Coeff:      0.453D-02 0.698D-01 0.938D+00
 Gap=     0.245 Goal=   None    Shift=    0.000
 RMSDP=9.26D-09 MaxDP=9.50D-08 DE=-6.73D-11 OVMax= 2.47D-07

 Error on total polarization charges =  0.03060
 SCF Done:  E(RM06) =  -233.222625191     A.U. after    9 cycles
            NFock=  9  Conv=0.93D-08     -V/T= 2.0077
 KE= 2.314310822844D+02 PE=-9.753356239054D+02 EE= 2.930708049453D+02
 SMD-CDS (non-electrostatic) energy       (kcal/mol) =      -3.33
 (included in total energy above)
 Leave Link  502 at Fri May 26 09:56:43 2023, MaxMem=  2147483648 cpu:              25.0 elap:              24.4
 (Enter C:\G16W\l701.exe)
 ... and contract with generalized density number  0.
 Compute integral first derivatives.
 D1PCM: PCM CHGder 1st derivatives, ID1Alg=3 FixD1E=F DoIter=F DoCFld=F I1PDM=0.
 GePol: Maximum number of non-zero 1st derivatives   =     203
 Leave Link  701 at Fri May 26 09:56:47 2023, MaxMem=  2147483648 cpu:               4.0 elap:               3.8
 (Enter C:\G16W\l702.exe)
 L702 exits ... SP integral derivatives will be done elsewhere.
 Leave Link  702 at Fri May 26 09:56:48 2023, MaxMem=  2147483648 cpu:               1.0 elap:               0.3
 (Enter C:\G16W\l703.exe)
 Integral derivatives from FoFJK, PRISM(SPDF).
 Compute integral first derivatives, UseDBF=F ICtDFT=           0.
 Calling FoFJK, ICntrl=      2127 FMM=F ISym2X=1 I1Cent= 0 IOpClX= 0 NMat=1 NMatS=1 NMatT=0.
 FoFJK:  IHMeth= 1 ICntrl=    2127 DoSepK=F KAlg= 0 I1Cent=           0 FoldK=F
 IRaf=         0 NMat=       1 IRICut=       1 DoRegI=T DoRafI=F ISym2E= 1 IDoP0=0 IntGTp=1.
 FoFCou: FMM=F IPFlag=           0 FMFlag=      100000 FMFlg1=         800
         NFxFlg=           0 DoJE=F BraDBF=F KetDBF=F FulRan=T
         wScrn=  0.000000 ICntrl=      2127 IOpCl=  0 I1Cent=           0 NGrid=           0
         NMat0=    1 NMatS0=      1 NMatT0=    0 NMatD0=    1 NMtDS0=    0 NMtDT0=    0
 Petite list used in FoFCou.
 Leave Link  703 at Fri May 26 09:56:49 2023, MaxMem=  2147483648 cpu:               1.0 elap:               1.2
 (Enter C:\G16W\l716.exe)
 Dipole        =-4.44089210D-16-7.99360578D-15 3.55271368D-15
 ***** Axes restored to original set *****
 -------------------------------------------------------------------
 Center     Atomic                   Forces (Hartrees/Bohr)
 Number     Number              X              Y              Z
 -------------------------------------------------------------------
      1        6           0.004028239    0.004898430   -0.001071583
      2        6          -0.009600523    0.014376495   -0.000032896
      3        6          -0.006070341   -0.001840444    0.001064585
      4        6          -0.002667420   -0.004001908   -0.004270739
      5        6           0.009600523   -0.014376495    0.000032896
      6        6           0.004709522    0.000943922    0.004277737
      7        1           0.000768970   -0.002488165    0.010638274
      8        1           0.005844414   -0.003057473    0.000840544
      9        1           0.000586426   -0.006572517   -0.000818509
     10        1           0.003035541    0.005031985   -0.009242281
     11        1          -0.000649384    0.006531039    0.001065672
     12        1          -0.005781455    0.003098950   -0.001087707
     13        1          -0.005830590   -0.000846482    0.009232704
     14        1           0.002026080   -0.001697338   -0.010628697
 -------------------------------------------------------------------
 Cartesian Forces:  Max     0.014376495 RMS     0.005814301
 Leave Link  716 at Fri May 26 09:56:50 2023, MaxMem=  2147483648 cpu:               0.0 elap:               0.3
 (Enter C:\G16W\l103.exe)

 GradGradGradGradGradGradGradGradGradGradGradGradGradGradGradGradGradGrad
 Berny optimization.
 Using GEDIIS/GDIIS optimizer.
 FormGI is forming the generalized inverse of G from B-inverse, IUseBI=4.
 Internal  Forces:  Max     0.005668998 RMS     0.003122349
 Search for a local minimum.
 Step number   2 out of a maximum of   80
 All quantities printed in internal units (Hartrees-Bohrs-Radians)
 RMS Force = .31223D-02 SwitMx=.10000D-02 MixMth= 1
 Mixed Optimization -- RFO/linear search
 Update second derivatives using D2CorX and points    1    2
 DE= -2.62D-02 DEPred=-2.58D-02 R= 1.02D+00
 TightC=F SS=  1.41D+00  RLast= 6.39D-01 DXNew= 5.0454D-01 1.9172D+00
 Trust test= 1.02D+00 RLast= 6.39D-01 DXMaxT set to 5.05D-01
 ITU=  1  0
 Use linear search instead of GDIIS.
     Eigenvalues ---    0.00230   0.00709   0.00889   0.01287   0.01352
     Eigenvalues ---    0.01552   0.01783   0.04089   0.04678   0.06229
     Eigenvalues ---    0.06571   0.09742   0.09742   0.10769   0.11256
     Eigenvalues ---    0.16000   0.16000   0.16000   0.16043   0.21427
     Eigenvalues ---    0.21702   0.22000   0.27000   0.27099   0.27592
     Eigenvalues ---    0.28166   0.36614   0.37230   0.37230   0.37230
     Eigenvalues ---    0.37230   0.37230   0.37230   0.37923   0.52067
     Eigenvalues ---    0.55442
 RFO step:  Lambda=-1.16652626D-02 EMin= 2.30000000D-03
 Quartic linear search produced a step of  0.76583.
 Iteration  1 RMS(Cart)=  0.10077796 RMS(Int)=  0.01263947
 Iteration  2 RMS(Cart)=  0.01522248 RMS(Int)=  0.00270489
 Iteration  3 RMS(Cart)=  0.00015570 RMS(Int)=  0.00270130
 Iteration  4 RMS(Cart)=  0.00000008 RMS(Int)=  0.00270130
 ITry= 1 IFail=0 DXMaxC= 4.29D-01 DCOld= 1.00D+10 DXMaxT= 5.05D-01 DXLimC= 3.00D+00 Rises=F
 ClnCor:  largest displacement from symmetrization is 6.78D-09 for atom    12.
 Variable       Old X    -DE/DX   Delta X   Delta X   Delta X     New X
                                 (Linear)    (Quad)   (Total)
    R1        2.84865  -0.00437  -0.05293   0.03048  -0.02245   2.82620
    R2        2.53232  -0.00345  -0.00861   0.00048  -0.00812   2.52420
    R3        2.06943   0.00114   0.03632  -0.03300   0.00332   2.07275
    R4        2.84865  -0.00437  -0.05293   0.03048  -0.02245   2.82620
    R5        2.08155   0.00349   0.04560  -0.03271   0.01289   2.09444
    R6        2.08155   0.00349   0.04560  -0.03271   0.01289   2.09444
    R7        2.53232  -0.00345  -0.00861   0.00048  -0.00812   2.52420
    R8        2.06943   0.00114   0.03632  -0.03300   0.00332   2.07275
    R9        2.84865  -0.00437  -0.05293   0.03048  -0.02245   2.82620
   R10        2.06943   0.00114   0.03632  -0.03300   0.00332   2.07275
   R11        2.84865  -0.00437  -0.05293   0.03048  -0.02245   2.82620
   R12        2.08155   0.00349   0.04560  -0.03271   0.01289   2.09444
   R13        2.08155   0.00349   0.04560  -0.03271   0.01289   2.09444
   R14        2.06943   0.00114   0.03632  -0.03300   0.00332   2.07275
    A1        2.14588   0.00067   0.01185   0.00483   0.00922   2.15511
    A2        2.04841  -0.00098  -0.02125   0.00840  -0.00912   2.03929
    A3        2.08889   0.00031   0.00941  -0.01324  -0.00011   2.08878
    A4        1.96016  -0.00021   0.00492   0.01407   0.01071   1.97087
    A5        1.90437   0.00122   0.02491  -0.00027   0.02685   1.93122
    A6        1.90611   0.00045  -0.01432   0.01000  -0.00249   1.90362
    A7        1.90611   0.00045  -0.01432   0.01000  -0.00249   1.90362
    A8        1.90437   0.00122   0.02491  -0.00027   0.02685   1.93122
    A9        1.88108  -0.00327  -0.02767  -0.03572  -0.06382   1.81726
   A10        2.14588   0.00067   0.01185   0.00483   0.00922   2.15511
   A11        2.04841  -0.00098  -0.02125   0.00840  -0.00912   2.03929
   A12        2.08889   0.00031   0.00941  -0.01324  -0.00011   2.08878
[...]
                1             2             3             4             5 
      1  0.000000D+00
      2 -0.124094D+01  0.000000D+00
      3  0.354320D-01 -0.124094D+01  0.000000D+00
      4 -0.528841D-01 -0.296464D+00 -0.966596D+01  0.000000D+00
      5 -0.296464D+00 -0.118988D+00 -0.296464D+00 -0.124094D+01  0.000000D+00
      6 -0.966596D+01 -0.296464D+00 -0.528841D-01  0.354320D-01 -0.124094D+01
      7  0.242040D+00  0.456398D-01  0.230289D+00 -0.144359D+01  0.196973D+00
      8  0.400398D-01  0.907421D+00  0.400488D-01  0.138889D+00  0.150395D+00
      9  0.400488D-01  0.907421D+00  0.400398D-01  0.138890D+00  0.150395D+00
     10  0.192654D+00  0.196973D+00 -0.144359D+01  0.230289D+00  0.456398D-01
     11  0.138890D+00  0.150395D+00  0.138889D+00  0.400488D-01  0.907421D+00
     12  0.138889D+00  0.150395D+00  0.138890D+00  0.400398D-01  0.907421D+00
     13 -0.144359D+01  0.196973D+00  0.192654D+00  0.242040D+00  0.456398D-01
     14  0.230289D+00  0.456398D-01  0.242040D+00  0.192654D+00  0.196973D+00
                6             7             8             9            10 
      6  0.000000D+00
      7  0.192654D+00  0.000000D+00
      8  0.138890D+00  0.484674D+00  0.000000D+00
      9  0.138889D+00  0.484642D+00  0.160530D+01  0.000000D+00
     10  0.242040D+00 -0.266234D-02  0.107483D+01  0.107482D+01  0.000000D+00
     11  0.400398D-01  0.107483D+01  0.113203D+01  0.678102D+00  0.484674D+00
     12  0.400488D-01  0.107482D+01  0.678102D+00  0.113203D+01  0.484642D+00
     13  0.230289D+00  0.115666D+01  0.107482D+01  0.107483D+01  0.122928D+01
     14 -0.144359D+01  0.122928D+01  0.484642D+00  0.484674D+00  0.115666D+01
               11            12            13            14 
     11  0.000000D+00
     12  0.160530D+01  0.000000D+00
     13  0.484642D+00  0.484674D+00  0.000000D+00
     14  0.107482D+01  0.107483D+01 -0.266234D-02  0.000000D+00
 Diamagnetic spin-orbit (DSO) contribution to K (Hz):
                1             2             3             4             5 
      1  0.000000D+00
      2  0.114888D+00  0.000000D+00
      3  0.864049D-02  0.114888D+00  0.000000D+00
      4  0.201549D-02 -0.114741D-01  0.101053D+00  0.000000D+00
      5 -0.114741D-01 -0.290456D-02 -0.114741D-01  0.114888D+00  0.000000D+00
      6  0.101053D+00 -0.114741D-01  0.201549D-02  0.864049D-02  0.114888D+00
      7 -0.554512D-01 -0.297286D-01  0.112143D+00 -0.516342D-01 -0.593459D-01
      8 -0.113952D-01  0.113245D+00 -0.113968D-01 -0.462927D-01 -0.363311D-01
      9 -0.113968D-01  0.113245D+00 -0.113952D-01 -0.462920D-01 -0.363311D-01
     10 -0.524269D-01 -0.593459D-01 -0.516342D-01  0.112143D+00 -0.297286D-01
     11 -0.462920D-01 -0.363311D-01 -0.462927D-01 -0.113968D-01  0.113245D+00
     12 -0.462927D-01 -0.363311D-01 -0.462920D-01 -0.113952D-01  0.113245D+00
     13 -0.516342D-01 -0.593459D-01 -0.524269D-01 -0.554512D-01 -0.297286D-01
     14  0.112143D+00 -0.297286D-01 -0.554512D-01 -0.524269D-01 -0.593459D-01
                6             7             8             9            10 
      6  0.000000D+00
      7 -0.524269D-01  0.000000D+00
      8 -0.462920D-01 -0.174133D-01  0.000000D+00
      9 -0.462927D-01 -0.174118D-01 -0.554079D-01  0.000000D+00
     10 -0.554512D-01 -0.116192D-01 -0.518712D-01 -0.518708D-01  0.000000D+00
     11 -0.113952D-01 -0.518712D-01 -0.529846D-01 -0.325089D-01 -0.174133D-01
     12 -0.113968D-01 -0.518708D-01 -0.325089D-01 -0.529846D-01 -0.174118D-01
     13  0.112143D+00 -0.565753D-01 -0.518708D-01 -0.518712D-01 -0.564833D-01
     14 -0.516342D-01 -0.564833D-01 -0.174118D-01 -0.174133D-01 -0.565753D-01
               11            12            13            14 
     11  0.000000D+00
     12 -0.554079D-01  0.000000D+00
     13 -0.174118D-01 -0.174133D-01  0.000000D+00
     14 -0.518708D-01 -0.518712D-01 -0.116192D-01  0.000000D+00
 Diamagnetic spin-orbit (DSO) contribution to J (Hz):
                1             2             3             4             5 
      1  0.000000D+00
      2  0.226734D+00  0.000000D+00
      3  0.170522D-01  0.226734D+00  0.000000D+00
      4  0.397762D-02 -0.226443D-01  0.199431D+00  0.000000D+00
      5 -0.226443D-01 -0.573222D-02 -0.226443D-01  0.226734D+00  0.000000D+00
      6  0.199431D+00 -0.226443D-01  0.397762D-02  0.170522D-01  0.226734D+00
      7 -0.435120D+00 -0.233277D+00  0.879976D+00 -0.405168D+00 -0.465681D+00
      8 -0.894170D-01  0.888622D+00 -0.894296D-01 -0.363254D+00 -0.285087D+00
      9 -0.894296D-01  0.888622D+00 -0.894170D-01 -0.363249D+00 -0.285087D+00
     10 -0.411389D+00 -0.465681D+00 -0.405168D+00  0.879976D+00 -0.233277D+00
     11 -0.363249D+00 -0.285087D+00 -0.363254D+00 -0.894296D-01  0.888622D+00
     12 -0.363254D+00 -0.285087D+00 -0.363249D+00 -0.894170D-01  0.888622D+00
     13 -0.405168D+00 -0.465681D+00 -0.411389D+00 -0.435120D+00 -0.233277D+00
     14  0.879976D+00 -0.233277D+00 -0.435120D+00 -0.411389D+00 -0.465681D+00
                6             7             8             9            10 
      6  0.000000D+00
      7 -0.411389D+00  0.000000D+00
      8 -0.363249D+00 -0.543295D+00  0.000000D+00
      9 -0.363254D+00 -0.543247D+00 -0.172872D+01  0.000000D+00
     10 -0.435120D+00 -0.362519D+00 -0.161838D+01 -0.161837D+01  0.000000D+00
     11 -0.894170D-01 -0.161838D+01 -0.165312D+01 -0.101427D+01 -0.543295D+00
     12 -0.894296D-01 -0.161837D+01 -0.101427D+01 -0.165312D+01 -0.543247D+00
     13  0.879976D+00 -0.176515D+01 -0.161837D+01 -0.161838D+01 -0.176228D+01
     14 -0.405168D+00 -0.176228D+01 -0.543247D+00 -0.543295D+00 -0.176515D+01
               11            12            13            14 
     11  0.000000D+00
     12 -0.172872D+01  0.000000D+00
     13 -0.543247D+00 -0.543295D+00  0.000000D+00
     14 -0.161837D+01 -0.161838D+01 -0.362519D+00  0.000000D+00
 Total nuclear spin-spin coupling K (Hz): 
                1             2             3             4             5 
      1  0.000000D+00
      2  0.215284D+02  0.000000D+00
      3 -0.116881D+01  0.215282D+02  0.000000D+00
      4  0.374317D+01 -0.114387D+01  0.383878D+02  0.000000D+00
      5 -0.114387D+01  0.339464D+01 -0.114387D+01  0.215282D+02  0.000000D+00
      6  0.383878D+02 -0.114387D+01  0.374317D+01 -0.116881D+01  0.215284D+02
      7  0.835623D+00  0.323407D+00  0.227796D+02 -0.723580D+00  0.103809D+01
      8 -0.125426D+01  0.176433D+02 -0.125415D+01  0.864500D+00 -0.421400D+00
      9 -0.125415D+01  0.176433D+02 -0.125426D+01  0.864481D+00 -0.421400D+00
     10 -0.101589D+00  0.103809D+01 -0.723580D+00  0.227796D+02  0.323407D+00
     11  0.864481D+00 -0.421400D+00  0.864500D+00 -0.125415D+01  0.176433D+02
     12  0.864500D+00 -0.421400D+00  0.864481D+00 -0.125426D+01  0.176433D+02
     13 -0.723580D+00  0.103809D+01 -0.101589D+00  0.835623D+00  0.323399D+00
     14  0.227796D+02  0.323399D+00  0.835623D+00 -0.101589D+00  0.103809D+01
                6             7             8             9            10 
      6  0.000000D+00
      7 -0.101589D+00  0.000000D+00
      8  0.864481D+00  0.162794D+00  0.000000D+00
      9  0.864500D+00  0.162804D+00 -0.123405D+01  0.000000D+00
     10  0.835623D+00  0.466362D+00 -0.160966D+00 -0.160969D+00  0.000000D+00
     11 -0.125426D+01 -0.160966D+00  0.344358D+00  0.398130D+00  0.162794D+00
     12 -0.125415D+01 -0.160969D+00  0.398130D+00  0.344358D+00  0.162804D+00
     13  0.227796D+02  0.167706D-02 -0.160969D+00 -0.160966D+00  0.779624D-02
     14 -0.723580D+00  0.779624D-02  0.162804D+00  0.162794D+00  0.167706D-02
               11            12            13            14 
     11  0.000000D+00
     12 -0.123405D+01  0.000000D+00
     13  0.162804D+00  0.162794D+00  0.000000D+00
     14 -0.160969D+00 -0.160966D+00  0.466362D+00  0.000000D+00
 Total nuclear spin-spin coupling J (Hz): 
                1             2             3             4             5 
      1  0.000000D+00
      2  0.424868D+02  0.000000D+00
      3 -0.230667D+01  0.424865D+02  0.000000D+00
      4  0.738724D+01 -0.225745D+01  0.757593D+02  0.000000D+00
      5 -0.225745D+01  0.669940D+01 -0.225745D+01  0.424865D+02  0.000000D+00
      6  0.757593D+02 -0.225745D+01  0.738724D+01 -0.230667D+01  0.424868D+02
      7  0.655705D+01  0.253774D+01  0.178749D+03 -0.567787D+01  0.814576D+01
      8 -0.984203D+01  0.138445D+03 -0.984118D+01  0.678365D+01 -0.330669D+01
      9 -0.984118D+01  0.138446D+03 -0.984203D+01  0.678350D+01 -0.330669D+01
     10 -0.797155D+00  0.814576D+01 -0.567787D+01  0.178749D+03  0.253774D+01
     11  0.678350D+01 -0.330669D+01  0.678365D+01 -0.984118D+01  0.138445D+03
     12  0.678365D+01 -0.330669D+01  0.678350D+01 -0.984203D+01  0.138446D+03
     13 -0.567787D+01  0.814576D+01 -0.797155D+00  0.655705D+01  0.253768D+01
     14  0.178749D+03  0.253768D+01  0.655705D+01 -0.797155D+00  0.814576D+01
                6             7             8             9            10 
      6  0.000000D+00
      7 -0.797155D+00  0.000000D+00
      8  0.678350D+01  0.507918D+01  0.000000D+00
      9  0.678365D+01  0.507946D+01 -0.385022D+02  0.000000D+00
     10  0.655705D+01  0.145505D+02 -0.502213D+01 -0.502221D+01  0.000000D+00
     11 -0.984203D+01 -0.502213D+01  0.107439D+02  0.124216D+02  0.507918D+01
     12 -0.984118D+01 -0.502221D+01  0.124216D+02  0.107439D+02  0.507946D+01
     13  0.178749D+03  0.523242D-01 -0.502221D+01 -0.502213D+01  0.243242D+00
     14 -0.567787D+01  0.243242D+00  0.507946D+01  0.507918D+01  0.523242D-01
               11            12            13            14 
     11  0.000000D+00
     12 -0.385022D+02  0.000000D+00
     13  0.507946D+01  0.507918D+01  0.000000D+00
     14 -0.502221D+01 -0.502213D+01  0.145505D+02  0.000000D+00
 End of Minotr F.D. properties file   721 does not exist.
 End of Minotr F.D. properties file   722 does not exist.
 End of Minotr F.D. properties file   788 does not exist.
 Leave Link 1002 at Fri May 26 10:32:21 2023, MaxMem=  2147483648 cpu:             488.0 elap:             487.8
 (Enter C:\G16W\l601.exe)
 Copying SCF densities to generalized density rwf, IOpCl= 0 IROHF=0.

 **********************************************************************

            Population analysis using the SCF Density.

 **********************************************************************

 Orbital symmetries:
       Occupied  (B1) (A) (B2) (A) (B1) (B3) (A) (B1) (B2) (A)
                 (B3) (A) (B1) (B3) (B2) (B2) (B2) (B1) (A) (B3)
                 (B1) (B3)
       Virtual   (A) (B2) (A) (B1) (B2) (A) (B3) (B3) (B2) (B1)
                 (A) (B2) (B3) (B1) (B1) (B2) (A) (B3) (A) (B2)
                 (B3) (B1) (B1) (A) (B3) (B2) (B3) (A) (B3) (B2)
                 (A) (B3) (B1) (A) (B2) (B1) (B1) (B2) (A) (B3)
                 (B2) (B1) (A) (B2) (B3) (B1) (B1) (B3) (B1) (A)
                 (B3) (A) (B1) (B3) (B1) (A) (B2) (B2) (B1) (A)
                 (B2) (A) (B2) (B3) (A) (B2) (B3) (A) (B3) (B2)
                 (B1) (B1) (B3) (A) (B2) (B3) (B1) (B2) (B2) (B3)
                 (B3) (A) (B1) (B1) (B2) (A) (B3) (B1) (A) (B2)
                 (B1) (A) (B2) (B3) (A) (B1) (B2) (B3) (A) (B1)
                 (B3) (B1)
 The electronic state is 1-A.
 Alpha  occ. eigenvalues --  -10.25001 -10.24998 -10.24421 -10.24419 -10.24344
 Alpha  occ. eigenvalues --  -10.24342  -0.84408  -0.75093  -0.74758  -0.63431
 Alpha  occ. eigenvalues --   -0.58143  -0.50690  -0.47035  -0.44021  -0.43855
 Alpha  occ. eigenvalues --   -0.41293  -0.40927  -0.38831  -0.34919  -0.31592
 Alpha  occ. eigenvalues --   -0.27040  -0.23784
 Alpha virt. eigenvalues --    0.02259   0.04215   0.07257   0.10780   0.11150
 Alpha virt. eigenvalues --    0.13052   0.13749   0.14653   0.15829   0.16012
 Alpha virt. eigenvalues --    0.22180   0.24856   0.27543   0.29261   0.42099
 Alpha virt. eigenvalues --    0.42709   0.43252   0.44888   0.48509   0.49530
 Alpha virt. eigenvalues --    0.49586   0.51181   0.53936   0.54251   0.54921
 Alpha virt. eigenvalues --    0.54992   0.57631   0.59028   0.61875   0.62934
 Alpha virt. eigenvalues --    0.63376   0.64236   0.64490   0.64895   0.65433
 Alpha virt. eigenvalues --    0.66624   0.71182   0.72689   0.82277   0.82343
 Alpha virt. eigenvalues --    0.84414   0.85604   0.97323   0.97831   0.98896
 Alpha virt. eigenvalues --    1.00488   1.00522   1.01423   1.09697   1.22157
 Alpha virt. eigenvalues --    1.23017   1.26324   1.29563   1.31838   1.34631
 Alpha virt. eigenvalues --    1.36511   1.36948   1.43504   1.52329   1.56471
 Alpha virt. eigenvalues --    1.56793   1.57683   1.59068   1.59114   1.62944
 Alpha virt. eigenvalues --    1.65010   1.65166   1.66770   1.66969   1.70599
 Alpha virt. eigenvalues --    1.71012   1.73566   1.82283   1.83370   1.83637
 Alpha virt. eigenvalues --    1.84823   1.85108   1.87041   1.88031   1.89483
 Alpha virt. eigenvalues --    1.97761   2.00052   2.04665   2.05088   2.10076
 Alpha virt. eigenvalues --    2.11709   2.17952   2.20742   2.23379   2.25456
 Alpha virt. eigenvalues --    2.36883   2.37771   2.39572   2.42764   2.44344
 Alpha virt. eigenvalues --    2.47236   2.56010   2.61217   2.63807   2.65957
 Alpha virt. eigenvalues --    2.82240   3.09253
          Condensed to atoms (all electrons):
               1          2          3          4          5          6
     1  C    4.758179   0.397358  -0.030352  -0.024093  -0.034659   0.709796
     2  C    0.397358   4.661565   0.397358  -0.034659  -0.054582  -0.034659
     3  C   -0.030352   0.397358   4.758179   0.709796  -0.034659  -0.024093
     4  C   -0.024093  -0.034659   0.709796   4.758179   0.397358  -0.030352
     5  C   -0.034659  -0.054582  -0.034659   0.397358   4.661565   0.397358
     6  C    0.709796  -0.034659  -0.024093  -0.030352   0.397358   4.758179
     7  H    0.006170  -0.046327   0.381676  -0.028170   0.009407  -0.000096
     8  H   -0.021759   0.361874  -0.021758  -0.001180   0.001152  -0.001180
     9  H   -0.021758   0.361874  -0.021759  -0.001180   0.001152  -0.001180
    10  H   -0.000096   0.009407  -0.028170   0.381676  -0.046327   0.006170
    11  H   -0.001180   0.001152  -0.001180  -0.021758   0.361874  -0.021759
    12  H   -0.001180   0.001152  -0.001180  -0.021759   0.361874  -0.021758
    13  H   -0.028170   0.009407  -0.000096   0.006170  -0.046327   0.381676
    14  H    0.381676  -0.046327   0.006170  -0.000096   0.009407  -0.028170
               7          8          9         10         11         12
     1  C    0.006170  -0.021759  -0.021758  -0.000096  -0.001180  -0.001180
     2  C   -0.046327   0.361874   0.361874   0.009407   0.001152   0.001152
     3  C    0.381676  -0.021758  -0.021759  -0.028170  -0.001180  -0.001180
     4  C   -0.028170  -0.001180  -0.001180   0.381676  -0.021758  -0.021759
     5  C    0.009407   0.001152   0.001152  -0.046327   0.361874   0.361874
     6  C   -0.000096  -0.001180  -0.001180   0.006170  -0.021759  -0.021758
     7  H    0.688333  -0.002797  -0.002797  -0.018771  -0.000258  -0.000258
     8  H   -0.002797   0.660288  -0.039723  -0.000258  -0.000184   0.000519
     9  H   -0.002797  -0.039723   0.660288  -0.000258   0.000519  -0.000184
    10  H   -0.018771  -0.000258  -0.000258   0.688333  -0.002797  -0.002797
    11  H   -0.000258  -0.000184   0.000519  -0.002797   0.660288  -0.039723
    12  H   -0.000258   0.000519  -0.000184  -0.002797  -0.039723   0.660288
    13  H    0.000059  -0.000258  -0.000258  -0.000340  -0.002797  -0.002797
    14  H   -0.000340  -0.002797  -0.002797   0.000059  -0.000258  -0.000258
              13         14
     1  C   -0.028170   0.381676
     2  C    0.009407  -0.046327
     3  C   -0.000096   0.006170
     4  C    0.006170  -0.000096
     5  C   -0.046327   0.009407
     6  C    0.381676  -0.028170
     7  H    0.000059  -0.000340
     8  H   -0.000258  -0.002797
     9  H   -0.000258  -0.002797
    10  H   -0.000340   0.000059
    11  H   -0.002797  -0.000258
    12  H   -0.002797  -0.000258
    13  H    0.688333  -0.018771
    14  H   -0.018771   0.688333
 Mulliken charges:
               1
     1  C   -0.089933
     2  C    0.015405
     3  C   -0.089933
     4  C   -0.089933
     5  C    0.015405
     6  C   -0.089933
     7  H    0.014169
     8  H    0.068061
     9  H    0.068061
    10  H    0.014169
    11  H    0.068061
    12  H    0.068061
    13  H    0.014169
    14  H    0.014169
 Sum of Mulliken charges =   0.00000
 Mulliken charges with hydrogens summed into heavy atoms:
               1
     1  C   -0.075763
     2  C    0.151527
     3  C   -0.075763
     4  C   -0.075763
     5  C    0.151527
     6  C   -0.075763
 Electronic spatial extent (au):  <R**2>=            515.3437
 Charge=              0.0000 electrons
 Dipole moment (field-independent basis, Debye):
    X=              0.0000    Y=              0.0000    Z=              0.0000  Tot=              0.0000
 Quadrupole moment (field-independent basis, Debye-Ang):
   XX=            -38.8678   YY=            -35.5361   ZZ=            -32.4312
   XY=              0.0000   XZ=              0.0000   YZ=              0.0000
 Traceless Quadrupole moment (field-independent basis, Debye-Ang):
   XX=             -3.2561   YY=              0.0756   ZZ=              3.1805
   XY=              0.0000   XZ=              0.0000   YZ=              0.0000
 Octapole moment (field-independent basis, Debye-Ang**2):
  XXX=              0.0000  YYY=              0.0000  ZZZ=              0.0000  XYY=              0.0000
  XXY=              0.0000  XXZ=              0.0000  XZZ=              0.0000  YZZ=              0.0000
  YYZ=              0.0000  XYZ=              0.0001
 Hexadecapole moment (field-independent basis, Debye-Ang**3):
 XXXX=            -55.0904 YYYY=           -296.8315 ZZZZ=           -327.3826 XXXY=              0.0000
 XXXZ=              0.0000 YYYX=              0.0000 YYYZ=              0.0000 ZZZX=              0.0000
 ZZZY=              0.0000 XXYY=            -68.8674 XXZZ=            -61.3421 YYZZ=           -101.6782
 XXYZ=              0.0000 YYXZ=              0.0000 ZZXY=              0.0000
 N-N= 2.181484464417D+02 E-N=-9.764456902285D+02  KE= 2.314733963622D+02
 Symmetry A    KE= 7.415935851273D+01
 Symmetry B1   KE= 7.382933431051D+01
 Symmetry B2   KE= 4.219002199278D+01
 Symmetry B3   KE= 4.129468154614D+01
 Calculating spin-rotation constants.
 Leave Link  601 at Fri May 26 10:32:24 2023, MaxMem=  2147483648 cpu:               3.0 elap:               2.6
 (Enter C:\G16W\l9999.exe)

 Test job not archived.
 1|1|UNPC-KYNARETH|SP|RM06|Gen|C6H8|ADMINISTRATOR|26-May-2023|0||#P Geo
 m=AllCheck Guess=TCheck SCRF=Check GenChk RM06/ChkBas NMR=ReadFC IOp(3
 /6=22)||Magnetic properties||0,1|C,0,-2.2320299432,-1.0104926274,-0.36
 0969907|C,0,-0.7815879276,-1.0355156207,0.0042991742|C,0,-0.2496950768
 ,0.3149611648,0.3664208934|C,0,-0.9913980735,1.4256446608,0.3638693886
 |C,0,-2.4418426588,1.4506659611,-0.0013896042|C,0,-2.9737380793,0.1001
 874826,-0.363501235|H,0,0.8085916327,0.3742418954,0.6459414535|H,0,-0.
 6130090781,-1.7456754015,0.8388993471|H,0,-0.1884650548,-1.4659812856,
 -0.8276910664|H,0,-0.5317199156,2.3813247654,0.6413369306|H,0,-2.61044
 25223,2.1608116913,-0.8359974878|H,0,-3.0349445175,1.8811456767,0.8306
 083471|H,0,-4.0320252765,0.0409064307,-0.6430198805|H,0,-2.6917076133,
 -1.9661724107,-0.6384393636||Version=EM64W-G16RevC.01|State=1-A|HF=-23
 3.2364693|RMSD=3.204e-009|Dipole=0.,0.,0.|Quadrupole=0.6211153,1.58884
 92,-2.2099644,-1.1629656,0.5796954,0.3766492|PG=D02 [C2(C1.C1),X(C4H8)
 ]||@


 I WANT TO KNOW HOW GOD CREATED THE WORLD.  I AM NOT INTERESTED IN
 THIS OR THAT PHENOMENON, IN THE SPECTRUM OF THIS OR THAT ELEMENT.
 I WANT TO KNOW HIS THOUGHTS, THE REST ARE DETAILS.
     -- ALBERT EINSTEIN
 Job cpu time:       0 days  0 hours  9 minutes 33.0 seconds.
 Elapsed time:       0 days  0 hours  9 minutes 26.8 seconds.
 File lengths (MBytes):  RWF=     53 Int=      0 D2E=      0 Chk=      7 Scr=      1
 Normal termination of Gaussian 16 at Fri May 26 10:32:24 2023.
