 Entering Link 1 = C:\G09W\l1.exe PID=     10040.
  
 Copyright (c) 1988,1990,1992,1993,1995,1998,2003,2009,2011,
            Gaussian, Inc.  All Rights Reserved.
  
 This is part of the Gaussian(R) 09 program.  It is based on
 the Gaussian(R) 03 system (copyright 2003, Gaussian, Inc.),
 the Gaussian(R) 98 system (copyright 1998, Gaussian, Inc.),
 the Gaussian(R) 94 system (copyright 1995, Gaussian, Inc.),
 the Gaussian 92(TM) system (copyright 1992, Gaussian, Inc.),
 the Gaussian 90(TM) system (copyright 1990, Gaussian, Inc.),
 the Gaussian 88(TM) system (copyright 1988, Gaussian, Inc.),
 the Gaussian 86(TM) system (copyright 1986, Carnegie Mellon
 University), and the Gaussian 82(TM) system (copyright 1983,
 Carnegie Mellon University). Gaussian is a federally registered
 trademark of Gaussian, Inc.
  
 This software contains proprietary and confidential information,
 including trade secrets, belonging to Gaussian, Inc.
  
 This software is provided under written license and may be
 used, copied, transmitted, or stored only in accord with that
 written license.
  
 The following legend is applicable only to US Government
 contracts under FAR:
  
                    RESTRICTED RIGHTS LEGEND
  
 Use, reproduction and disclosure by the US Government is
 subject to restrictions as set forth in subparagraphs (a)
 and (c) of the Commercial Computer Software - Restricted
 Rights clause in FAR 52.227-19.
  
 Gaussian, Inc.
 340 Quinnipiac St., Bldg. 40, Wallingford CT 06492
  
  
 ---------------------------------------------------------------
 Warning -- This program may not be used in any manner that
 competes with the business of Gaussian, Inc. or will provide
 assistance to any competitor of Gaussian, Inc.  The licensee
 of this program is prohibited from giving any competitor of
 Gaussian, Inc. access to this program.  By using this program,
 the user acknowledges that Gaussian, Inc. is engaged in the
 business of creating and licensing software in the field of
 computational chemistry and represents and warrants to the
 licensee that it is not a competitor of Gaussian, Inc. and that
 it will not use this program in any manner prohibited above.
 ---------------------------------------------------------------
  

 Cite this work as:
 Gaussian 09, Revision C.01,
 M. J. Frisch, G. W. Trucks, H. B. Schlegel, G. E. Scuseria, 
 M. A. Robb, J. R. Cheeseman, G. Scalmani, V. Barone, B. Mennucci, 
 G. A. Petersson, H. Nakatsuji, M. Caricato, X. Li, H. P. Hratchian, 
 A. F. Izmaylov, J. Bloino, G. Zheng, J. L. Sonnenberg, M. Hada, 
 M. Ehara, K. Toyota, R. Fukuda, J. Hasegawa, M. Ishida, T. Nakajima, 
 Y. Honda, O. Kitao, H. Nakai, T. Vreven, J. A. Montgomery, Jr., 
 J. E. Peralta, F. Ogliaro, M. Bearpark, J. J. Heyd, E. Brothers, 
 K. N. Kudin, V. N. Staroverov, T. Keith, R. Kobayashi, J. Normand, 
 K. Raghavachari, A. Rendell, J. C. Burant, S. S. Iyengar, J. Tomasi, 
 M. Cossi, N. Rega, J. M. Millam, M. Klene, J. E. Knox, J. B. Cross, 
 V. Bakken, C. Adamo, J. Jaramillo, R. Gomperts, R. E. Stratmann, 
 O. Yazyev, A. J. Austin, R. Cammi, C. Pomelli, J. W. Ochterski, 
 R. L. Martin, K. Morokuma, V. G. Zakrzewski, G. A. Voth, 
 P. Salvador, J. J. Dannenberg, S. Dapprich, A. D. Daniels, 
 O. Farkas, J. B. Foresman, J. V. Ortiz, J. Cioslowski, 
 and D. J. Fox, Gaussian, Inc., Wallingford CT, 2010.
 
 ******************************************
 Gaussian 09:  EM64W-G09RevC.01 23-Sep-2011
                31-Oct-2018 
 ******************************************
 %mem=10GB
 %nprocshared=16
 Will use up to   16 processors via shared memory.
 %chk=C:\Temp\nh4_nmr.chk
 ----------------------------------------------------------------------
 # nmr=(giao,spinspin,mixed) b3lyp/cc-pvtz scrf=(smd,solvent=water) geo
 m=connectivity
 ----------------------------------------------------------------------
 1/38=1,57=2/1;
 2/12=2,17=6,18=5,40=1/2;
 3/5=16,6=1,10=1100000,11=2,16=1,25=1,30=1,70=32201,72=1,74=-5/1,2,8,3;
 4//1;
 5/5=2,38=5,53=1/2;
 8/6=1,10=90,11=11/1;
 10/13=100,45=16,47=3/2;
 6/7=2,8=2,9=2,10=2,28=1/1;
 99/9=1/99;
 -------------------
 Title Card Required
 -------------------
 Charge =  1 Multiplicity = 1
 Symbolic Z-Matrix:
 N                     0.00006  -0.00005  -0.00047 
 H                     0.09464   0.14444   1.00534 
 H                    -0.61826   0.71333  -0.38803 
 H                     0.91857   0.06725  -0.43977 
 H                    -0.39535  -0.92469  -0.17428 
 
                          Input orientation:                          
 ---------------------------------------------------------------------
 Center     Atomic      Atomic             Coordinates (Angstroms)
 Number     Number       Type             X           Y           Z
 ---------------------------------------------------------------------
      1          7           0        0.000058   -0.000047   -0.000466
      2          1           0        0.094641    0.144439    1.005343
      3          1           0       -0.618262    0.713333   -0.388029
      4          1           0        0.918567    0.067255   -0.439765
      5          1           0       -0.395351   -0.924694   -0.174285
 ---------------------------------------------------------------------
                    Distance matrix (angstroms):
                    1          2          3          4          5
     1  N    0.000000
     2  H    1.020526   0.000000
     3  H    1.020508   1.665340   0.000000
     4  H    1.020379   1.665277   1.667914   0.000000
     5  H    1.020555   1.665730   1.666886   1.667580   0.000000
 Stoichiometry    H4N(1+)
 Framework group  C1[X(H4N)]
 Deg. of freedom     9
 Full point group                 C1      NOp   1
 Largest Abelian subgroup         C1      NOp   1
 Largest concise Abelian subgroup C1      NOp   1
                         Standard orientation:                         
 ---------------------------------------------------------------------
 Center     Atomic      Atomic             Coordinates (Angstroms)
 Number     Number       Type             X           Y           Z
 ---------------------------------------------------------------------
      1          7           0       -0.000058    0.000047   -0.000466
      2          1           0       -0.094641   -0.144439    1.005343
      3          1           0        0.618263   -0.713332   -0.388029
      4          1           0       -0.918567   -0.067257   -0.439765
      5          1           0        0.395349    0.924695   -0.174285
 ---------------------------------------------------------------------
 Rotational constants (GHZ):    180.7475286    180.6183476    180.3431050
 Standard basis: CC-pVTZ (5D, 7F)
 Converting basis for Fermi contact spin-spin IFCMod=1.
 AO basis functions are being uncontracted.
 There are   132 symmetry adapted basis functions of A   symmetry.
 Integral buffers will be    131072 words long.
 Raffenetti 2 integral format.
 Two-electron integral symmetry is turned on.
   132 basis functions,   141 primitive gaussians,   141 cartesian basis functions
     5 alpha electrons        5 beta electrons
       nuclear repulsion energy        16.4247132576 Hartrees.
 NAtoms=    5 NActive=    5 NUniq=    5 SFac= 1.00D+00 NAtFMM=   60 NAOKFM=F Big=F
 ------------------------------------------------------------------------------
 Polarizable Continuum Model (PCM)
 =================================
 Model                : PCM.
 Atomic radii         : SMD-Coulomb.
 Polarization charges : Total charges.
 Charge compensation  : None.
 Solution method      : Matrix inversion.
 Cavity type          : VdW (van der Waals Surface) (Alpha=1.000).
 Cavity algorithm     : GePol (No added spheres)
                        Default sphere list used, NSphG=    5.
                        Lebedev-Laikov grids with approx.  5.0 points / Ang**2.
                        Smoothing algorithm: Karplus/York (Gamma=1.0000).
                        Polarization charges: spherical gaussians, with
                                              point-specific exponents (IZeta= 3).
                        Self-potential: point-specific (ISelfS= 7).
                        Self-field    : sphere-specific E.n sum rule (ISelfD= 2).
 Solvent              : Water, Eps=  78.355300 Eps(inf)=   1.777849
 ------------------------------------------------------------------------------
 Spheres list:
 ISph  on   Nord    Re0     Alpha      Xe            Ye            Ze
    1   N      1    1.890   1.000     -0.000058      0.000047     -0.000466
    2   H      2    1.200   1.000     -0.094641     -0.144439      1.005343
    3   H      3    1.200   1.000      0.618263     -0.713332     -0.388029
    4   H      4    1.200   1.000     -0.918567     -0.067257     -0.439765
    5   H      5    1.200   1.000      0.395349      0.924695     -0.174285
 ------------------------------------------------------------------------------
 ------------------------------------------------------------------------------
 Atomic radii for non-electrostatic terms: SMD-CDS.
 ------------------------------------------------------------------------------
 Nuclear repulsion after PCM non-electrostatic terms =       16.4293540601 Hartrees.
 One-electron integrals computed using PRISM.
 NBasis=   132 RedAO= T  NBF=   132
 NBsUse=   124 1.00D-06 NBFU=   124
 Harris functional with IExCor=  402 diagonalized for initial guess.
 ExpMin= 1.03D-01 ExpMax= 1.03D+05 ExpMxC= 1.03D+05 IAcc=4 IRadAn=    199590 AccDes= 0.00D+00
 HarFok:  IExCor=  402 AccDes= 0.00D+00 IRadAn=    199590 IDoV= 1
 ScaDFX=  1.000000  1.000000  1.000000  1.000000
 FoFCou: FMM=F IPFlag=           0 FMFlag=      100000 FMFlg1=           0
         NFxFlg=           0 DoJE=T BraDBF=F KetDBF=T FulRan=T
         Omega=  0.000000  0.000000  1.000000  0.000000  0.000000 ICntrl=     500 IOpCl=  0
         NMat0=    1 NMatS0=    1 NMatT0=    0 NMatD0=    1 NMtDS0=    0 NMtDT0=    0
         I1Cent=           4 NGrid=           0.
 Petite list used in FoFCou.
 Initial guess orbital symmetries:
       Occupied  (A) (A) (A) (A) (A)
       Virtual   (A) (A) (A) (A) (A) (A) (A) (A) (A) (A) (A) (A)
                 (A) (A) (A) (A) (A) (A) (A) (A) (A) (A) (A) (A)
                 (A) (A) (A) (A) (A) (A) (A) (A) (A) (A) (A) (A)
                 (A) (A) (A) (A) (A) (A) (A) (A) (A) (A) (A) (A)
                 (A) (A) (A) (A) (A) (A) (A) (A) (A) (A) (A) (A)
                 (A) (A) (A) (A) (A) (A) (A) (A) (A) (A) (A) (A)
                 (A) (A) (A) (A) (A) (A) (A) (A) (A) (A) (A) (A)
                 (A) (A) (A) (A) (A) (A) (A) (A) (A) (A) (A) (A)
                 (A) (A) (A) (A) (A) (A) (A) (A) (A) (A) (A) (A)
                 (A) (A) (A) (A) (A) (A) (A) (A) (A) (A) (A)
 The electronic state of the initial guess is 1-A.
 Requested convergence on RMS density matrix=1.00D-08 within 128 cycles.
 Requested convergence on MAX density matrix=1.00D-06.
 Requested convergence on             energy=1.00D-06.
 No special actions if energy rises.
 Keep R1 ints in memory in canonical form, NReq=54789674.
 Error on total polarization charges =  0.00542
 SCF Done:  E(RB3LYP) =  -57.0579505853     A.U. after    7 cycles
             Convg  =    0.1321D-08             -V/T =  2.0072
 SMD-CDS (non-electrostatic) energy       (kcal/mol) =       2.91
 (included in total energy above)
 Range of M.O.s used for correlation:     1   124
 NBasis=   132 NAE=     5 NBE=     5 NFC=     0 NFV=     0
 NROrb=    124 NOA=     5 NOB=     5 NVA=   119 NVB=   119

 **** Warning!!: The largest alpha MO coefficient is  0.12319209D+02

          IDoAtm=11111
 NEqPCM:  Using equilibrium solvation (IEInf=0, Eps=  78.3553, EpsInf=   1.7778)
          Differentiating once with respect to Fermi-contact.
          Electric field/nuclear overlap derivatives assumed to be zero.
          Keep R1, R2, and R3 ints in memory in canonical form, NReq=152539057.
          There are     5 degrees of freedom in the 1st order CPHF.  IDoFFX=0.
      5 vectors produced by pass  0 Test12= 1.19D-18 2.00D-10 XBig12= 2.84D+01 2.29D+00.
 AX will form     5 AO Fock derivatives at one time.
      5 vectors produced by pass  1 Test12= 1.19D-18 2.00D-10 XBig12= 1.29D-01 1.81D-01.
      5 vectors produced by pass  2 Test12= 1.19D-18 2.00D-10 XBig12= 1.37D-03 1.14D-02.
      5 vectors produced by pass  3 Test12= 1.19D-18 2.00D-10 XBig12= 2.06D-06 4.87D-04.
      5 vectors produced by pass  4 Test12= 1.19D-18 2.00D-10 XBig12= 3.53D-09 1.73D-05.
      5 vectors produced by pass  5 Test12= 1.19D-18 2.00D-10 XBig12= 2.17D-12 3.24D-07.
      5 vectors produced by pass  6 Test12= 1.19D-18 2.00D-10 XBig12= 8.51D-16 1.21D-08.
      4 vectors produced by pass  7 Test12= 1.19D-18 2.00D-10 XBig12= 2.88D-18 5.75D-10.
 Inverted reduced A of dimension    39 with in-core refinement.
 Fermi Contact (FC) contribution to K (Hz):
                1             2             3             4             5 
      1  0.123400D+11
      2  0.244898D+02  0.123400D+11
      3  0.246013D+02 -0.436544D+00  0.123400D+11
      4  0.246261D+02 -0.436387D+00 -0.429062D+00  0.123400D+11
      5  0.245926D+02 -0.435594D+00 -0.432222D+00 -0.430030D+00  0.123400D+11
 Fermi Contact (FC) contribution to J (Hz):
                1             2             3             4             5 
      1  0.201170D+10
      2  0.552314D+02  0.385007D+12
      3  0.554830D+02 -0.136202D+02  0.385007D+12
      4  0.555388D+02 -0.136153D+02 -0.133867D+02  0.385007D+12
      5  0.554633D+02 -0.135905D+02 -0.134853D+02 -0.134169D+02  0.385007D+12
 End of Minotr Frequency-dependent properties file   721 does not exist.
 End of Minotr Frequency-dependent properties file   722 does not exist.

 **********************************************************************

            Population analysis using the SCF density.

 **********************************************************************

 Orbital symmetries:
       Occupied  (A) (A) (A) (A) (A)
       Virtual   (A) (A) (A) (A) (A) (A) (A) (A) (A) (A) (A) (A)
                 (A) (A) (A) (A) (A) (A) (A) (A) (A) (A) (A) (A)
                 (A) (A) (A) (A) (A) (A) (A) (A) (A) (A) (A) (A)
                 (A) (A) (A) (A) (A) (A) (A) (A) (A) (A) (A) (A)
                 (A) (A) (A) (A) (A) (A) (A) (A) (A) (A) (A) (A)
                 (A) (A) (A) (A) (A) (A) (A) (A) (A) (A) (A) (A)
                 (A) (A) (A) (A) (A) (A) (A) (A) (A) (A) (A) (A)
                 (A) (A) (A) (A) (A) (A) (A) (A) (A) (A) (A) (A)
                 (A) (A) (A) (A) (A) (A) (A) (A) (A) (A) (A) (A)
                 (A) (A) (A) (A) (A) (A) (A) (A) (A) (A) (A)
 The electronic state is 1-A.
 Alpha  occ. eigenvalues --  -14.42699  -0.98609  -0.56332  -0.56308  -0.56268
 Alpha virt. eigenvalues --    0.01218   0.09603   0.09606   0.09614   0.26261
 Alpha virt. eigenvalues --    0.26284   0.26303   0.42066   0.46264   0.46287
 Alpha virt. eigenvalues --    0.47405   0.47408   0.47413   0.67792   0.88898
 Alpha virt. eigenvalues --    0.88954   0.88963   1.13927   1.13932   1.13975
 Alpha virt. eigenvalues --    1.18681   1.18874   1.18894   1.34338   1.43107
 Alpha virt. eigenvalues --    1.43126   1.43183   1.49011   1.49014   1.87770
 Alpha virt. eigenvalues --    1.87830   1.87840   1.99266   3.06689   3.06727
 Alpha virt. eigenvalues --    3.06926   3.10975   3.11005   3.12149   3.12189
 Alpha virt. eigenvalues --    3.12205   3.28086   3.28167   3.28206   3.29648
 Alpha virt. eigenvalues --    3.29799   3.29827   3.57263   3.57319   3.60149
 Alpha virt. eigenvalues --    3.81081   3.81111   3.81132   3.83857   3.95878
 Alpha virt. eigenvalues --    3.96072   3.96134   4.15771   4.16077   4.16116
 Alpha virt. eigenvalues --    4.37450   4.37725   4.37785   4.63075   4.63118
 Alpha virt. eigenvalues --    4.98528   4.98534   4.98561   5.14427   5.51548
 Alpha virt. eigenvalues --    5.51680   5.54254   5.54270   5.54377   5.92853
 Alpha virt. eigenvalues --    5.92958   5.93626   6.58632   6.58702   6.58998
 Alpha virt. eigenvalues --    6.95664  10.41301  10.41506  10.41513  10.41578
 Alpha virt. eigenvalues --   12.23787  12.23898  12.24012  16.36207  55.69026
 Alpha virt. eigenvalues --   55.69067  55.69101  55.71024  57.75464  57.75530
 Alpha virt. eigenvalues --   57.75592  63.98771 232.13221 233.64624 233.64667
 Alpha virt. eigenvalues --  233.64700 233.68664 789.15667 789.15705 789.15736
 Alpha virt. eigenvalues --  789.17849 867.217702505.045572505.045902505.04620
 Alpha virt. eigenvalues -- 2505.066763700.669438145.835848145.836128145.83644
 Alpha virt. eigenvalues -- 8145.85579******************************
          Condensed to atoms (all electrons):
              1          2          3          4          5
     1  N    5.398440   0.383923   0.384176   0.384243   0.384174
     2  H    0.383923   0.420199  -0.012545  -0.012566  -0.012538
     3  H    0.384176  -0.012545   0.419608  -0.012538  -0.012576
     4  H    0.384243  -0.012566  -0.012538   0.419526  -0.012565
     5  H    0.384174  -0.012538  -0.012576  -0.012565   0.419851
 Mulliken atomic charges:
              1
     1  N    0.065045
     2  H    0.233526
     3  H    0.233875
     4  H    0.233900
     5  H    0.233654
 Sum of Mulliken atomic charges =   1.00000
 Mulliken charges with hydrogens summed into heavy atoms:
              1
     1  N    1.000000
 Sum of Mulliken charges with hydrogens summed into heavy atoms =   1.00000
 Electronic spatial extent (au):  <R**2>=             24.6524
 Charge=              1.0000 electrons
 Dipole moment (field-independent basis, Debye):
    X=              0.0004    Y=             -0.0016    Z=              0.0054  Tot=              0.0056
 Quadrupole moment (field-independent basis, Debye-Ang):
   XX=             -4.3756   YY=             -4.3814   ZZ=             -4.3929
   XY=              0.0000   XZ=              0.0002   YZ=              0.0002
 Traceless Quadrupole moment (field-independent basis, Debye-Ang):
   XX=              0.0077   YY=              0.0019   ZZ=             -0.0096
   XY=              0.0000   XZ=              0.0002   YZ=              0.0002
 Octapole moment (field-independent basis, Debye-Ang**2):
  XXX=             -1.0420  YYY=              0.9232  ZZZ=              1.8921  XYY=              1.4093
  XXY=             -0.4067  XXZ=             -1.1707  XZZ=             -0.3666  YZZ=             -0.5198
  YYZ=             -0.7123  XYZ=              0.2048
 Hexadecapole moment (field-independent basis, Debye-Ang**3):
 XXXX=             -6.5650 YYYY=             -6.2766 ZZZZ=             -6.0262 XXXY=             -0.1579
 XXXZ=              0.6341 YYYX=              0.2366 YYYZ=              0.0008 ZZZX=             -0.1500
 ZZZY=             -0.2782 XXYY=             -2.0868 XXZZ=             -2.3469 YYZZ=             -2.6402
 XXYZ=              0.2785 YYXZ=             -0.4832 ZZXY=             -0.0787
 N-N= 1.642935406012D+01 E-N=-1.617478675407D+02  KE= 5.664969254730D+01
 1|1|UNPC-KYNARETH|SP|RB3LYP|Gen|H4N1(1+)|ADMINISTRATOR|31-Oct-2018|0||
 # nmr=(giao,spinspin,mixed) b3lyp/cc-pvtz scrf=(smd,solvent=water) geo
 m=connectivity||Title Card Required||1,1|N,0,0.00005772,-0.00004747,-0
 .00046625|H,0,0.09464115,0.14443857,1.00534264|H,0,-0.61826173,0.71333
 292,-0.38802926|H,0,0.9185674,0.06725482,-0.43976501|H,0,-0.39535082,-
 0.92469403,-0.17428463||Version=EM64W-G09RevC.01|State=1-A|HF=-57.0579
 506|RMSD=1.321e-009|Dipole=-0.0001454,0.0006441,0.0021149|Quadrupole=0
 .005738,0.0014128,-0.0071507,0.0000227,-0.0001117,-0.0001636|PG=C01 [X
 (H4N1)]||@


 BRING ME INTO THE COMPANY OF THOSE WHO SEEK TRUTH,
 AND DELIVER ME FROM THOSE WHO HAVE FOUND IT.
 Job cpu time:  0 days  0 hours  0 minutes 55.0 seconds.
 File lengths (MBytes):  RWF=     18 Int=      0 D2E=      0 Chk=      2 Scr=      1
 Normal termination of Gaussian 09 at Wed Oct 31 09:49:45 2018.
 Link1:  Proceeding to internal job step number  2.
 ----------------------------------------------------------------------
 #N Geom=AllCheck Guess=TCheck SCRF=Check GenChk RB3LYP/ChkBas NMR=Read
 FC IOp(3/6=22)
 ----------------------------------------------------------------------
 1/29=7,38=1,40=1/1;
 2/12=2,40=1/2;
 3/5=7,6=22,11=2,14=-4,16=1,25=1,30=1,67=1,70=2,72=1,74=-5,82=7,116=1/1,2,8,3;
 4/5=101/1;
 5/5=2,53=1/2;
 8/6=1,10=90,11=11/1;
 10/13=100,45=16,47=4/2;
 6/7=2,8=2,9=2,10=2,28=1/1;
 99/9=1/99;
 Structure from the checkpoint file:  C:\Temp\nh4_nmr.chk
 -------------------
 Title Card Required
 -------------------
 Charge =  1 Multiplicity = 1
 Z-Matrix found in file.
 N,0,0.00005772,-0.00004747,-0.00046625
 H,0,0.09464115,0.14443857,1.00534264
 H,0,-0.61826173,0.71333292,-0.38802926
 H,0,0.9185674,0.06725482,-0.43976501
 H,0,-0.39535082,-0.92469403,-0.17428463
 Recover connectivity data from disk.
                          Input orientation:                          
 ---------------------------------------------------------------------
 Center     Atomic      Atomic             Coordinates (Angstroms)
 Number     Number       Type             X           Y           Z
 ---------------------------------------------------------------------
      1          7           0        0.000058   -0.000047   -0.000466
      2          1           0        0.094641    0.144439    1.005343
      3          1           0       -0.618262    0.713333   -0.388029
      4          1           0        0.918567    0.067255   -0.439765
      5          1           0       -0.395351   -0.924694   -0.174285
 ---------------------------------------------------------------------
                    Distance matrix (angstroms):
                    1          2          3          4          5
     1  N    0.000000
     2  H    1.020526   0.000000
     3  H    1.020508   1.665340   0.000000
     4  H    1.020379   1.665277   1.667914   0.000000
     5  H    1.020555   1.665730   1.666886   1.667580   0.000000
 Stoichiometry    H4N(1+)
 Framework group  C1[X(H4N)]
 Deg. of freedom     9
 Full point group                 C1      NOp   1
 Largest Abelian subgroup         C1      NOp   1
 Largest concise Abelian subgroup C1      NOp   1
                         Standard orientation:                         
 ---------------------------------------------------------------------
 Center     Atomic      Atomic             Coordinates (Angstroms)
 Number     Number       Type             X           Y           Z
 ---------------------------------------------------------------------
      1          7           0       -0.000058    0.000047   -0.000466
      2          1           0       -0.094641   -0.144439    1.005343
      3          1           0        0.618263   -0.713332   -0.388029
      4          1           0       -0.918567   -0.067257   -0.439765
      5          1           0        0.395349    0.924695   -0.174285
 ---------------------------------------------------------------------
 Rotational constants (GHZ):    180.7475286    180.6183476    180.3431050
 Basis read from chk: C:\Temp\nh4_nmr.chk (5D, 7F)
 There are    86 symmetry adapted basis functions of A   symmetry.
 Integral buffers will be    131072 words long.
 Raffenetti 2 integral format.
 Two-electron integral symmetry is turned on.
    86 basis functions,   123 primitive gaussians,    95 cartesian basis functions
     5 alpha electrons        5 beta electrons
       nuclear repulsion energy        16.4247132576 Hartrees.
 NAtoms=    5 NActive=    5 NUniq=    5 SFac= 1.00D+00 NAtFMM=   60 NAOKFM=F Big=F
 ------------------------------------------------------------------------------
 Polarizable Continuum Model (PCM)
 =================================
 Model                : PCM.
 Atomic radii         : SMD-Coulomb.
 Polarization charges : Total charges.
 Charge compensation  : None.
 Solution method      : Matrix inversion.
 Cavity type          : VdW (van der Waals Surface) (Alpha=1.000).
 Cavity algorithm     : GePol (No added spheres)
                        Default sphere list used, NSphG=    5.
                        Lebedev-Laikov grids with approx.  5.0 points / Ang**2.
                        Smoothing algorithm: Karplus/York (Gamma=1.0000).
                        Polarization charges: spherical gaussians, with
                                              point-specific exponents (IZeta= 3).
                        Self-potential: point-specific (ISelfS= 7).
                        Self-field    : sphere-specific E.n sum rule (ISelfD= 2).
 Solvent              : Water, Eps=  78.355300 Eps(inf)=   1.777849
 ------------------------------------------------------------------------------
 Spheres list:
 ISph  on   Nord    Re0     Alpha      Xe            Ye            Ze
    1   N      1    1.890   1.000     -0.000058      0.000047     -0.000466
    2   H      2    1.200   1.000     -0.094641     -0.144439      1.005343
    3   H      3    1.200   1.000      0.618263     -0.713332     -0.388029
    4   H      4    1.200   1.000     -0.918567     -0.067257     -0.439765
    5   H      5    1.200   1.000      0.395349      0.924695     -0.174285
 ------------------------------------------------------------------------------
 ------------------------------------------------------------------------------
 Atomic radii for non-electrostatic terms: SMD-CDS.
 ------------------------------------------------------------------------------
 Nuclear repulsion after PCM non-electrostatic terms =       16.4293540601 Hartrees.
 One-electron integrals computed using PRISM.
 NBasis=    86 RedAO= T  NBF=    86
 NBsUse=    86 1.00D-06 NBFU=    86
 Initial guess read from the checkpoint file:  C:\Temp\nh4_nmr.chk
 B after Tr=     0.000000    0.000000    0.000000
         Rot=    1.000000    0.000000    0.000000    0.000000 Ang=   0.00 deg.
 Initial guess orbital symmetries:
       Occupied  (A) (A) (A) (A) (A)
       Virtual   (A) (A) (A) (A) (A) (A) (A) (A) (A) (A) (A) (A)
                 (A) (A) (A) (A) (A) (A) (A) (A) (A) (A) (A) (A)
                 (A) (A) (A) (A) (A) (A) (A) (A) (A) (A) (A) (A)
                 (A) (A) (A) (A) (A) (A) (A) (A) (A) (A) (A) (A)
                 (A) (A) (A) (A) (A) (A) (A) (A) (A) (A) (A) (A)
                 (A) (A) (A) (A) (A) (A) (A) (A) (A) (A) (A) (A)
                 (A) (A) (A) (A) (A) (A) (A) (A) (A)
 Requested convergence on RMS density matrix=1.00D-08 within 128 cycles.
 Requested convergence on MAX density matrix=1.00D-06.
 Requested convergence on             energy=1.00D-06.
 No special actions if energy rises.
 Keep R1 ints in memory in canonical form, NReq=14712509.
 Error on total polarization charges =  0.00543
 SCF Done:  E(RB3LYP) =  -57.0562552506     A.U. after    6 cycles
             Convg  =    0.1696D-08             -V/T =  2.0088
 SMD-CDS (non-electrostatic) energy       (kcal/mol) =       2.91
 (included in total energy above)
 Range of M.O.s used for correlation:     1    86
 NBasis=    86 NAE=     5 NBE=     5 NFC=     0 NFV=     0
 NROrb=     86 NOA=     5 NOB=     5 NVA=    81 NVB=    81

 **** Warning!!: The largest alpha MO coefficient is  0.10538724D+02

          IDoAtm=11111
 NEqPCM:  Using equilibrium solvation (IEInf=0, Eps=  78.3553, EpsInf=   1.7778)
          Differentiating once with respect to magnetic field using GIAOs.
          Differentiating once with respect to nuclear magnetic moments.
          Differentiating once with respect to Fermi-contact and electric field gradient.
          Electric field/nuclear overlap derivatives assumed to be zero.
          Keep R1, R2, and R3 ints in memory in canonical form, NReq=33140484.
 FoFCou: FMM=F IPFlag=           0 FMFlag=    10101102 FMFlg1=           0
         NFxFlg=    40000000 DoJE=F BraDBF=F KetDBF=T FulRan=T
         Omega=  0.000000  0.000000  1.000000  0.000000  0.000000 ICntrl=    6100 IOpCl=  0
         NMat0=    1 NMatS0=    1 NMatT0=    0 NMatD0=    1 NMtDS0=    0 NMtDT0=    0
         I1Cent=           7 NGrid=         413.
 Symmetry not used in FoFCou.
          There are    18 degrees of freedom in the 1st order CPHF.  IDoFFX=0.
     18 vectors produced by pass  0 Test12= 2.25D-15 5.56D-09 XBig12= 1.71D+01 1.87D+00.
 AX will form    18 AO Fock derivatives at one time.
     18 vectors produced by pass  1 Test12= 2.25D-15 5.56D-09 XBig12= 1.10D-03 9.58D-03.
     18 vectors produced by pass  2 Test12= 2.25D-15 5.56D-09 XBig12= 1.08D-07 1.16D-04.
     18 vectors produced by pass  3 Test12= 2.25D-15 5.56D-09 XBig12= 5.22D-11 1.89D-06.
      6 vectors produced by pass  4 Test12= 2.25D-15 5.56D-09 XBig12= 1.88D-14 4.41D-08.
 Inverted reduced A of dimension    78 with in-core refinement.
 Calculating GIAO nuclear magnetic shielding tensors.
 SCF GIAO Magnetic shielding tensor (ppm):
      1  N    Isotropic =   236.4389   Anisotropy =     0.1207
   XX=   236.4664   YX=     0.0018   ZX=     0.0484
   XY=    -0.0004   YY=   236.4994   ZY=     0.0497
   XZ=     0.0473   YZ=     0.0490   ZZ=   236.3509
   Eigenvalues:   236.3215   236.4758   236.5194
      2  H    Isotropic =    26.8372   Anisotropy =    16.1015
   XX=    21.6094   YX=     0.2107   ZX=    -1.4680
   XY=     0.2110   YY=    21.7917   ZY=    -2.2457
   XZ=    -1.4726   YZ=    -2.2487   ZZ=    37.1105
   Eigenvalues:    21.4688    21.4712    37.5716
      3  H    Isotropic =    26.8266   Anisotropy =    16.1038
   XX=    27.3674   YX=    -6.8188   ZX=    -3.7081
   XY=    -6.8220   YY=    29.3305   ZY=     4.2775
   XZ=    -3.7049   YZ=     4.2719   ZZ=    23.7819
   Eigenvalues:    21.4566    21.4607    37.5625
      4  H    Isotropic =    26.8288   Anisotropy =    16.1058
   XX=    34.5095   YX=     0.9577   ZX=     6.2431
   XY=     0.9600   YY=    21.5288   ZY=     0.4577
   XZ=     6.2406   YZ=     0.4564   ZZ=    24.4480
   Eigenvalues:    21.4579    21.4625    37.5660
      5  H    Isotropic =    26.8292   Anisotropy =    16.1002
   XX=    23.8789   YX=     5.6505   ZX=    -1.0647
   XY=     5.6516   YY=    34.6799   ZY=    -2.4883
   XZ=    -1.0605   YZ=    -2.4779   ZZ=    21.9287
   Eigenvalues:    21.4615    21.4633    37.5626
          There are    30 degrees of freedom in the 1st order CPHF.  IDoFFX=0.
     25 vectors produced by pass  0 Test12= 1.35D-15 3.33D-09 XBig12= 8.17D+00 1.47D+00.
     25 vectors produced by pass  1 Test12= 1.35D-15 3.33D-09 XBig12= 5.51D-02 7.99D-02.
     25 vectors produced by pass  2 Test12= 1.35D-15 3.33D-09 XBig12= 2.16D-04 4.10D-03.
     25 vectors produced by pass  3 Test12= 1.35D-15 3.33D-09 XBig12= 4.27D-07 2.32D-04.
     25 vectors produced by pass  4 Test12= 1.35D-15 3.33D-09 XBig12= 9.71D-11 2.60D-06.
      6 vectors produced by pass  5 Test12= 1.35D-15 3.33D-09 XBig12= 2.01D-14 3.45D-08.
 Inverted reduced A of dimension   131 with in-core refinement.
 Fermi Contact contribution taken from checkpoint file:
 C:\Temp\nh4_nmr.chk
 There are a total of       38674 grid points.
 ElSum from          density=       20.0000139204
 Fermi Contact (FC) contribution to K (Hz):
                1             2             3             4             5 
      1  0.000000D+00
      2  0.244898D+02  0.000000D+00
      3  0.246013D+02 -0.436544D+00  0.000000D+00
      4  0.246261D+02 -0.436387D+00 -0.429062D+00  0.000000D+00
      5  0.245926D+02 -0.435594D+00 -0.432222D+00 -0.430030D+00  0.000000D+00
 Fermi Contact (FC) contribution to J (Hz):
                1             2             3             4             5 
      1  0.000000D+00
      2  0.552314D+02  0.000000D+00
      3  0.554830D+02 -0.136202D+02  0.000000D+00
      4  0.555388D+02 -0.136153D+02 -0.133867D+02  0.000000D+00
      5  0.554633D+02 -0.135905D+02 -0.134853D+02 -0.134169D+02  0.000000D+00
 Spin-dipolar (SD) contribution to K (Hz):
                1             2             3             4             5 
      1  0.000000D+00
      2 -0.120483D-01  0.000000D+00
      3 -0.115742D-01  0.196199D-01  0.000000D+00
      4 -0.113327D-01  0.196190D-01  0.193600D-01  0.000000D+00
      5 -0.116932D-01  0.195852D-01  0.194671D-01  0.193950D-01  0.000000D+00
 Spin-dipolar (SD) contribution to J (Hz):
                1             2             3             4             5 
      1  0.000000D+00
      2 -0.271724D-01  0.000000D+00
      3 -0.261031D-01  0.612140D+00  0.000000D+00
      4 -0.255584D-01  0.612111D+00  0.604032D+00  0.000000D+00
      5 -0.263716D-01  0.611058D+00  0.607373D+00  0.605122D+00  0.000000D+00
 Paramagnetic spin-orbit (PSO) contribution to K (Hz):
                1             2             3             4             5 
      1  0.000000D+00
      2  0.593682D+00  0.000000D+00
      3  0.592070D+00  0.167232D+00  0.000000D+00
      4  0.591801D+00  0.167278D+00  0.168063D+00  0.000000D+00
      5  0.592369D+00  0.167330D+00  0.167675D+00  0.167949D+00  0.000000D+00
 Paramagnetic spin-orbit (PSO) contribution to J (Hz):
                1             2             3             4             5 
      1  0.000000D+00
      2  0.133892D+01  0.000000D+00
      3  0.133529D+01  0.521763D+01  0.000000D+00
      4  0.133468D+01  0.521907D+01  0.524356D+01  0.000000D+00
      5  0.133596D+01  0.522070D+01  0.523144D+01  0.523999D+01  0.000000D+00
 Diamagnetic spin-orbit (DSO) contribution to K (Hz):
                1             2             3             4             5 
      1  0.000000D+00
      2  0.199051D-01  0.000000D+00
      3  0.199705D-01 -0.180197D+00  0.000000D+00
      4  0.199816D-01 -0.180245D+00 -0.181264D+00  0.000000D+00
      5  0.199819D-01 -0.180322D+00 -0.180761D+00 -0.181108D+00  0.000000D+00
 Diamagnetic spin-orbit (DSO) contribution to J (Hz):
                1             2             3             4             5 
      1  0.000000D+00
      2  0.448916D-01  0.000000D+00
      3  0.450391D-01 -0.562212D+01  0.000000D+00
      4  0.450641D-01 -0.562364D+01 -0.565542D+01  0.000000D+00
      5  0.450649D-01 -0.562603D+01 -0.563974D+01 -0.565056D+01  0.000000D+00
 Total nuclear spin-spin coupling K (Hz): 
                1             2             3             4             5 
      1  0.000000D+00
      2  0.250913D+02  0.000000D+00
      3  0.252018D+02 -0.429889D+00  0.000000D+00
      4  0.252265D+02 -0.429735D+00 -0.422902D+00  0.000000D+00
      5  0.251932D+02 -0.429000D+00 -0.425842D+00 -0.423794D+00  0.000000D+00
 Total nuclear spin-spin coupling J (Hz): 
                1             2             3             4             5 
      1  0.000000D+00
      2  0.565881D+02  0.000000D+00
      3  0.568372D+02 -0.134125D+02  0.000000D+00
      4  0.568930D+02 -0.134077D+02 -0.131945D+02  0.000000D+00
      5  0.568179D+02 -0.133848D+02 -0.132862D+02 -0.132224D+02  0.000000D+00
 End of Minotr Frequency-dependent properties file   721 does not exist.
 End of Minotr Frequency-dependent properties file   722 does not exist.

 **********************************************************************

            Population analysis using the SCF density.

 **********************************************************************

 Orbital symmetries:
       Occupied  (A) (A) (A) (A) (A)
       Virtual   (A) (A) (A) (A) (A) (A) (A) (A) (A) (A) (A) (A)
                 (A) (A) (A) (A) (A) (A) (A) (A) (A) (A) (A) (A)
                 (A) (A) (A) (A) (A) (A) (A) (A) (A) (A) (A) (A)
                 (A) (A) (A) (A) (A) (A) (A) (A) (A) (A) (A) (A)
                 (A) (A) (A) (A) (A) (A) (A) (A) (A) (A) (A) (A)
                 (A) (A) (A) (A) (A) (A) (A) (A) (A) (A) (A) (A)
                 (A) (A) (A) (A) (A) (A) (A) (A) (A)
 The electronic state is 1-A.
 Alpha  occ. eigenvalues --  -14.42738  -0.98598  -0.56312  -0.56288  -0.56247
 Alpha virt. eigenvalues --    0.01263   0.09616   0.09619   0.09626   0.26511
 Alpha virt. eigenvalues --    0.26535   0.26554   0.42173   0.46263   0.46286
 Alpha virt. eigenvalues --    0.47495   0.47497   0.47503   0.69023   0.88894
 Alpha virt. eigenvalues --    0.88949   0.88959   1.14313   1.14321   1.14366
 Alpha virt. eigenvalues --    1.19432   1.19621   1.19641   1.44969   1.44990
 Alpha virt. eigenvalues --    1.45043   1.48221   1.49023   1.49027   2.16313
 Alpha virt. eigenvalues --    2.16364   2.16379   2.53369   3.10951   3.10976
 Alpha virt. eigenvalues --    3.11203   3.11244   3.11415   3.12153   3.12195
 Alpha virt. eigenvalues --    3.12211   3.29640   3.29790   3.29818   3.41985
 Alpha virt. eigenvalues --    3.42097   3.42135   3.57260   3.57316   3.81236
 Alpha virt. eigenvalues --    3.86184   3.86217   3.86246   4.01473   4.01613
 Alpha virt. eigenvalues --    4.01670   4.15773   4.16079   4.16119   4.37801
 Alpha virt. eigenvalues --    4.38084   4.38144   4.57372   4.63072   4.63116
 Alpha virt. eigenvalues --    5.15362   5.15398   5.15436   5.51558   5.51685
 Alpha virt. eigenvalues --    5.74012   5.74043   5.74220   5.87410   5.92861
 Alpha virt. eigenvalues --    5.92966   5.93634   6.68811   6.68883   6.69147
 Alpha virt. eigenvalues --   15.27752
          Condensed to atoms (all electrons):
              1          2          3          4          5
     1  N    5.454384   0.375837   0.376013   0.376074   0.376022
     2  H    0.375837   0.436595  -0.017281  -0.017303  -0.017275
     3  H    0.376013  -0.017281   0.436094  -0.017233  -0.017285
     4  H    0.376074  -0.017303  -0.017233   0.436014  -0.017266
     5  H    0.376022  -0.017275  -0.017285  -0.017266   0.436306
 Mulliken atomic charges:
              1
     1  N    0.041670
     2  H    0.239427
     3  H    0.239692
     4  H    0.239714
     5  H    0.239497
 Sum of Mulliken atomic charges =   1.00000
 Mulliken charges with hydrogens summed into heavy atoms:
              1
     1  N    1.000000
 Sum of Mulliken charges with hydrogens summed into heavy atoms =   1.00000
 Electronic spatial extent (au):  <R**2>=             24.6532
 Charge=              1.0000 electrons
 Dipole moment (field-independent basis, Debye):
    X=              0.0004    Y=             -0.0016    Z=              0.0054  Tot=              0.0056
 Quadrupole moment (field-independent basis, Debye-Ang):
   XX=             -4.3760   YY=             -4.3818   ZZ=             -4.3933
   XY=              0.0000   XZ=              0.0001   YZ=              0.0002
 Traceless Quadrupole moment (field-independent basis, Debye-Ang):
   XX=              0.0077   YY=              0.0019   ZZ=             -0.0096
   XY=              0.0000   XZ=              0.0001   YZ=              0.0002
 Octapole moment (field-independent basis, Debye-Ang**2):
  XXX=             -1.0430  YYY=              0.9241  ZZZ=              1.8938  XYY=              1.4106
  XXY=             -0.4071  XXZ=             -1.1718  XZZ=             -0.3669  YZZ=             -0.5203
  YYZ=             -0.7129  XYZ=              0.2050
 Hexadecapole moment (field-independent basis, Debye-Ang**3):
 XXXX=             -6.5674 YYYY=             -6.2788 ZZZZ=             -6.0282 XXXY=             -0.1580
 XXXZ=              0.6346 YYYX=              0.2368 YYYZ=              0.0008 ZZZX=             -0.1501
 ZZZY=             -0.2784 XXYY=             -2.0876 XXZZ=             -2.3479 YYZZ=             -2.6414
 XXYZ=              0.2787 YYXZ=             -0.4836 ZZXY=             -0.0788
 N-N= 1.642935406012D+01 E-N=-1.616530647708D+02  KE= 5.655655729333D+01

 Test job not archived.
 1|1|UNPC-KYNARETH|SP|RB3LYP|Gen|H4N1(1+)|ADMINISTRATOR|31-Oct-2018|0||
 #N Geom=AllCheck Guess=TCheck SCRF=Check GenChk RB3LYP/ChkBas NMR=Read
 FC IOp(3/6=22)||Title Card Required||1,1|N,0,0.00005772,-0.00004747,-0
 .00046625|H,0,0.09464115,0.14443857,1.00534264|H,0,-0.61826173,0.71333
 292,-0.38802926|H,0,0.9185674,0.06725482,-0.43976501|H,0,-0.39535082,-
 0.92469403,-0.17428463||Version=EM64W-G09RevC.01|State=1-A|HF=-57.0562
 553|RMSD=1.696e-009|Dipole=-0.0001443,0.0006426,0.0021097|Quadrupole=0
 .0057356,0.0014127,-0.0071484,0.000021,-0.0001089,-0.0001617|PG=C01 [X
 (H4N1)]||@


 A CHEMICAL PHYSICIST MAKES PRECISE MEASUREMENTS ON IMPURE COMPOUNDS.
 A THEORETICAL PHYSICAL CHEMIST MAKES IMPRECISE
     MEASUREMENTS ON PURE COMPOUNDS.
 AN EXPERIMENTAL PHYSICAL CHEMIST MAKES IMPRECISE
     MEASUREMENTS ON IMPURE COMPOUNDS.
 Job cpu time:  0 days  0 hours  0 minutes 29.0 seconds.
 File lengths (MBytes):  RWF=     18 Int=      0 D2E=      0 Chk=      2 Scr=      1
 Normal termination of Gaussian 09 at Wed Oct 31 09:50:15 2018.
