 Entering Gaussian System, Link 0=g09
 Input=3_fluoro_tyr.gjf
 Output=3_fluoro_tyr.log
 Initial command:
 /home/ik1r11/g09-64-D01/l1.exe "/scratch/ik1r11/Gau-20694.inp" -scrdir="/scratch/ik1r11/"
 Entering Link 1 = /home/ik1r11/g09-64-D01/l1.exe PID=     20695.
  
 Copyright (c) 1988,1990,1992,1993,1995,1998,2003,2009,2013,
            Gaussian, Inc.  All Rights Reserved.
  
 This is part of the Gaussian(R) 09 program.  It is based on
 the Gaussian(R) 03 system (copyright 2003, Gaussian, Inc.),
 the Gaussian(R) 98 system (copyright 1998, Gaussian, Inc.),
 the Gaussian(R) 94 system (copyright 1995, Gaussian, Inc.),
 the Gaussian 92(TM) system (copyright 1992, Gaussian, Inc.),
 the Gaussian 90(TM) system (copyright 1990, Gaussian, Inc.),
 the Gaussian 88(TM) system (copyright 1988, Gaussian, Inc.),
 the Gaussian 86(TM) system (copyright 1986, Carnegie Mellon
 University), and the Gaussian 82(TM) system (copyright 1983,
 Carnegie Mellon University). Gaussian is a federally registered
 trademark of Gaussian, Inc.
  
 This software contains proprietary and confidential information,
 including trade secrets, belonging to Gaussian, Inc.
  
 This software is provided under written license and may be
 used, copied, transmitted, or stored only in accord with that
 written license.
  
 The following legend is applicable only to US Government
 contracts under FAR:
  
                    RESTRICTED RIGHTS LEGEND
  
 Use, reproduction and disclosure by the US Government is
 subject to restrictions as set forth in subparagraphs (a)
 and (c) of the Commercial Computer Software - Restricted
 Rights clause in FAR 52.227-19.
  
 Gaussian, Inc.
 340 Quinnipiac St., Bldg. 40, Wallingford CT 06492
  
  
 ---------------------------------------------------------------
 Warning -- This program may not be used in any manner that
 competes with the business of Gaussian, Inc. or will provide
 assistance to any competitor of Gaussian, Inc.  The licensee
 of this program is prohibited from giving any competitor of
 Gaussian, Inc. access to this program.  By using this program,
 the user acknowledges that Gaussian, Inc. is engaged in the
 business of creating and licensing software in the field of
 computational chemistry and represents and warrants to the
 licensee that it is not a competitor of Gaussian, Inc. and that
 it will not use this program in any manner prohibited above.
 ---------------------------------------------------------------
  

 Cite this work as:
 Gaussian 09, Revision D.01,
 M. J. Frisch, G. W. Trucks, H. B. Schlegel, G. E. Scuseria, 
 M. A. Robb, J. R. Cheeseman, G. Scalmani, V. Barone, B. Mennucci, 
 G. A. Petersson, H. Nakatsuji, M. Caricato, X. Li, H. P. Hratchian, 
 A. F. Izmaylov, J. Bloino, G. Zheng, J. L. Sonnenberg, M. Hada, 
 M. Ehara, K. Toyota, R. Fukuda, J. Hasegawa, M. Ishida, T. Nakajima, 
 Y. Honda, O. Kitao, H. Nakai, T. Vreven, J. A. Montgomery, Jr., 
 J. E. Peralta, F. Ogliaro, M. Bearpark, J. J. Heyd, E. Brothers, 
 K. N. Kudin, V. N. Staroverov, T. Keith, R. Kobayashi, J. Normand, 
 K. Raghavachari, A. Rendell, J. C. Burant, S. S. Iyengar, J. Tomasi, 
 M. Cossi, N. Rega, J. M. Millam, M. Klene, J. E. Knox, J. B. Cross, 
 V. Bakken, C. Adamo, J. Jaramillo, R. Gomperts, R. E. Stratmann, 
 O. Yazyev, A. J. Austin, R. Cammi, C. Pomelli, J. W. Ochterski, 
 R. L. Martin, K. Morokuma, V. G. Zakrzewski, G. A. Voth, 
 P. Salvador, J. J. Dannenberg, S. Dapprich, A. D. Daniels, 
 O. Farkas, J. B. Foresman, J. V. Ortiz, J. Cioslowski, 
 and D. J. Fox, Gaussian, Inc., Wallingford CT, 2013.
 
 ******************************************
 Gaussian 09:  ES64L-G09RevD.01 24-Apr-2013
                 6-Jan-2017 
 ******************************************
 %Mem=16GB
 %NProcShared=16
 Will use up to   16 processors via shared memory.
 %Chk=3_fluoro_tyr.chk
 ----------------------------------------------------------------------
 #p opt=tight m06/cc-pVTZ scrf=(smd,solvent=water) integral=(grid=ultra
 fine) scf=tight
 ----------------------------------------------------------------------
 1/7=10,14=-1,18=20,19=15,26=4,38=1/1,3;
 2/9=110,12=2,17=6,18=5,40=1/2;
 3/5=16,6=1,11=2,16=1,25=1,30=1,70=32201,71=1,72=1,74=-54,75=-5/1,2,3;
 4//1;
 5/5=2,32=2,38=5,53=1/2;
 6/7=2,8=2,9=2,10=2,28=1/1;
 7//1,2,3,16;
 1/7=10,14=-1,18=20,19=15,26=4/3(2);
 2/9=110/2;
 99//99;
 2/9=110/2;
 3/5=16,6=1,11=2,16=1,25=1,30=1,70=32205,71=1,72=1,74=-54,75=-5/1,2,3;
 4/5=5,16=3,69=1/1;
 5/5=2,32=2,38=5,53=1/2;
 7//1,2,3,16;
 1/7=10,14=-1,18=20,19=15,26=4/3(-5);
 2/9=110/2;
 6/7=2,8=2,9=2,10=2,19=2,28=1/1;
 99/9=1/99;
 Leave Link    1 at Fri Jan  6 23:21:39 2017, MaxMem=  2147483648 cpu:        10.3
 (Enter /home/ik1r11/g09-64-D01/l101.exe)
 -------------------------
 3-fluorotyrosine geometry
 -------------------------
 Symbolic Z-matrix:
 Charge =  0 Multiplicity = 1
 C                    -1.91856  -1.58382   0.16205 
 C                    -0.62577  -1.71523  -0.35428 
 C                     0.05494  -0.57983  -0.80935 
 C                     1.47913  -0.71303  -1.37992 
 C                    -0.56028   0.67946  -0.74565 
 C                     2.50481  -0.55545  -0.24205 
 C                    -1.81614   0.80711  -0.24407 
 F                    -2.39559   2.02518  -0.18894 
 C                    -2.51504  -0.3186    0.21708 
 O                    -3.83675  -0.17353   0.74333 
 N                     2.28151  -1.6007    0.76715 
 C                     2.34023   0.83036   0.40914 
 O                     3.08035   1.94742  -0.09015 
 O                     1.55443   0.97975   1.38062 
 H                    -2.44843  -2.4447    0.5128 
 H                    -0.15986  -2.67732  -0.40123 
 H                     1.64166   0.0478   -2.11451 
 H                     1.59348  -1.6759   -1.83237 
 H                    -0.03677   1.545    -1.09446 
 H                     3.49434  -0.648    -0.63848 
 H                    -3.9934   -0.85024   1.406 
 H                     2.38838  -2.50058   0.3443 
 H                     1.35672  -1.51421   1.13765 
 H                     2.94754  -1.49838   1.50603 
 
 NAtoms=     24 NQM=       24 NQMF=       0 NMMI=      0 NMMIF=      0
                NMic=       0 NMicF=      0.
                    Isotopes and Nuclear Properties:
 (Nuclear quadrupole moments (NQMom) in fm**2, nuclear magnetic moments (NMagM)
  in nuclear magnetons)

  Atom         1           2           3           4           5           6           7           8           9          10
 IAtWgt=          12          12          12          12          12          12          12          19          12          16
 AtmWgt=  12.0000000  12.0000000  12.0000000  12.0000000  12.0000000  12.0000000  12.0000000  18.9984033  12.0000000  15.9949146
 NucSpn=           0           0           0           0           0           0           0           1           0           0
 AtZEff=   0.0000000   0.0000000   0.0000000   0.0000000   0.0000000   0.0000000   0.0000000   0.0000000   0.0000000   0.0000000
 NQMom=    0.0000000   0.0000000   0.0000000   0.0000000   0.0000000   0.0000000   0.0000000   0.0000000   0.0000000   0.0000000
 NMagM=    0.0000000   0.0000000   0.0000000   0.0000000   0.0000000   0.0000000   0.0000000   2.6288670   0.0000000   0.0000000
 AtZNuc=   6.0000000   6.0000000   6.0000000   6.0000000   6.0000000   6.0000000   6.0000000   9.0000000   6.0000000   8.0000000

  Atom        11          12          13          14          15          16          17          18          19          20
 IAtWgt=          14          12          16          16           1           1           1           1           1           1
 AtmWgt=  14.0030740  12.0000000  15.9949146  15.9949146   1.0078250   1.0078250   1.0078250   1.0078250   1.0078250   1.0078250
 NucSpn=           2           0           0           0           1           1           1           1           1           1
 AtZEff=   0.0000000   0.0000000   0.0000000   0.0000000   0.0000000   0.0000000   0.0000000   0.0000000   0.0000000   0.0000000
 NQMom=    2.0440000   0.0000000   0.0000000   0.0000000   0.0000000   0.0000000   0.0000000   0.0000000   0.0000000   0.0000000
 NMagM=    0.4037610   0.0000000   0.0000000   0.0000000   2.7928460   2.7928460   2.7928460   2.7928460   2.7928460   2.7928460
 AtZNuc=   7.0000000   6.0000000   8.0000000   8.0000000   1.0000000   1.0000000   1.0000000   1.0000000   1.0000000   1.0000000

  Atom        21          22          23          24
 IAtWgt=           1           1           1           1
 AtmWgt=   1.0078250   1.0078250   1.0078250   1.0078250
 NucSpn=           1           1           1           1
 AtZEff=   0.0000000   0.0000000   0.0000000   0.0000000
 NQMom=    0.0000000   0.0000000   0.0000000   0.0000000
 NMagM=    2.7928460   2.7928460   2.7928460   2.7928460
 AtZNuc=   1.0000000   1.0000000   1.0000000   1.0000000
 Leave Link  101 at Fri Jan  6 23:21:39 2017, MaxMem=  2147483648 cpu:         5.1
 (Enter /home/ik1r11/g09-64-D01/l103.exe)

 GradGradGradGradGradGradGradGradGradGradGradGradGradGradGradGradGradGrad
 Berny optimization.
 Initialization pass.
                           ----------------------------
                           !    Initial Parameters    !
                           ! (Angstroms and Degrees)  !
 --------------------------                            --------------------------
 ! Name  Definition              Value          Derivative Info.                !
 --------------------------------------------------------------------------------
 ! R1    R(1,2)                  1.3983         estimate D2E/DX2                !
 ! R2    R(1,9)                  1.3999         estimate D2E/DX2                !
 ! R3    R(1,15)                 1.07           estimate D2E/DX2                !
 ! R4    R(2,3)                  1.3999         estimate D2E/DX2                !
 ! R5    R(2,16)                 1.07           estimate D2E/DX2                !
 ! R6    R(3,4)                  1.54           estimate D2E/DX2                !
 ! R7    R(3,5)                  1.403          estimate D2E/DX2                !
 ! R8    R(4,6)                  1.54           estimate D2E/DX2                !
 ! R9    R(4,17)                 1.07           estimate D2E/DX2                !
 ! R10   R(4,18)                 1.07           estimate D2E/DX2                !
 ! R11   R(5,7)                  1.3583         estimate D2E/DX2                !
 ! R12   R(5,19)                 1.07           estimate D2E/DX2                !
 ! R13   R(6,11)                 1.47           estimate D2E/DX2                !
 ! R14   R(6,12)                 1.54           estimate D2E/DX2                !
 ! R15   R(6,20)                 1.07           estimate D2E/DX2                !
 ! R16   R(7,8)                  1.35           estimate D2E/DX2                !
 ! R17   R(7,9)                  1.403          estimate D2E/DX2                !
 ! R18   R(9,10)                 1.43           estimate D2E/DX2                !
 ! R19   R(10,21)                0.96           estimate D2E/DX2                !
 ! R20   R(11,22)                1.0            estimate D2E/DX2                !
 ! R21   R(11,23)                1.0            estimate D2E/DX2                !
 ! R22   R(11,24)                1.0            estimate D2E/DX2                !
 ! R23   R(12,13)                1.43           estimate D2E/DX2                !
 ! R24   R(12,14)                1.2584         estimate D2E/DX2                !
 ! A1    A(2,1,9)              119.5649         estimate D2E/DX2                !
 ! A2    A(2,1,15)             120.2175         estimate D2E/DX2                !
 ! A3    A(9,1,15)             120.2175         estimate D2E/DX2                !
 ! A4    A(1,2,3)              119.5649         estimate D2E/DX2                !
 ! A5    A(1,2,16)             120.2175         estimate D2E/DX2                !
 ! A6    A(3,2,16)             120.2175         estimate D2E/DX2                !
 ! A7    A(2,3,4)              119.9995         estimate D2E/DX2                !
 ! A8    A(2,3,5)              120.0009         estimate D2E/DX2                !
 ! A9    A(4,3,5)              119.9995         estimate D2E/DX2                !
 ! A10   A(3,4,6)              109.4712         estimate D2E/DX2                !
 ! A11   A(3,4,17)             109.4712         estimate D2E/DX2                !
 ! A12   A(3,4,18)             109.4712         estimate D2E/DX2                !
 ! A13   A(6,4,17)             109.4712         estimate D2E/DX2                !
 ! A14   A(6,4,18)             109.4712         estimate D2E/DX2                !
 ! A15   A(17,4,18)            109.4712         estimate D2E/DX2                !
 ! A16   A(3,5,7)              120.4341         estimate D2E/DX2                !
 ! A17   A(3,5,19)             119.7829         estimate D2E/DX2                !
 ! A18   A(7,5,19)             119.7829         estimate D2E/DX2                !
 ! A19   A(4,6,11)             109.4712         estimate D2E/DX2                !
 ! A20   A(4,6,12)             109.4712         estimate D2E/DX2                !
 ! A21   A(4,6,20)             109.4712         estimate D2E/DX2                !
 ! A22   A(11,6,12)            109.4712         estimate D2E/DX2                !
 ! A23   A(11,6,20)            109.4712         estimate D2E/DX2                !
 ! A24   A(12,6,20)            109.4712         estimate D2E/DX2                !
 ! A25   A(5,7,8)              119.7829         estimate D2E/DX2                !
 ! A26   A(5,7,9)              120.4341         estimate D2E/DX2                !
 ! A27   A(8,7,9)              119.7829         estimate D2E/DX2                !
 ! A28   A(1,9,7)              120.0009         estimate D2E/DX2                !
 ! A29   A(1,9,10)             119.9995         estimate D2E/DX2                !
 ! A30   A(7,9,10)             119.9995         estimate D2E/DX2                !
 ! A31   A(9,10,21)            109.4712         estimate D2E/DX2                !
 ! A32   A(6,11,22)            109.4712         estimate D2E/DX2                !
 ! A33   A(6,11,23)            109.4712         estimate D2E/DX2                !
 ! A34   A(6,11,24)            109.4712         estimate D2E/DX2                !
 ! A35   A(22,11,23)           109.4712         estimate D2E/DX2                !
 ! A36   A(22,11,24)           109.4712         estimate D2E/DX2                !
 ! A37   A(23,11,24)           109.4712         estimate D2E/DX2                !
 ! A38   A(6,12,13)            120.0            estimate D2E/DX2                !
 ! A39   A(6,12,14)            120.0            estimate D2E/DX2                !
 ! A40   A(13,12,14)           120.0            estimate D2E/DX2                !
 ! D1    D(9,1,2,3)              0.0            estimate D2E/DX2                !
 ! D2    D(9,1,2,16)           179.9997         estimate D2E/DX2                !
 ! D3    D(15,1,2,3)          -179.9998         estimate D2E/DX2                !
 ! D4    D(15,1,2,16)           -0.0001         estimate D2E/DX2                !
 ! D5    D(2,1,9,7)              0.0001         estimate D2E/DX2                !
 ! D6    D(2,1,9,10)          -179.9999         estimate D2E/DX2                !
 ! D7    D(15,1,9,7)           179.9999         estimate D2E/DX2                !
 ! D8    D(15,1,9,10)           -0.0001         estimate D2E/DX2                !
 ! D9    D(1,2,3,4)            180.0            estimate D2E/DX2                !
 ! D10   D(1,2,3,5)              0.0            estimate D2E/DX2                !
 ! D11   D(16,2,3,4)             0.0003         estimate D2E/DX2                !
 ! D12   D(16,2,3,5)          -179.9997         estimate D2E/DX2                !
 ! D13   D(2,3,4,6)            -90.0            estimate D2E/DX2                !
 ! D14   D(2,3,4,17)           150.0            estimate D2E/DX2                !
 ! D15   D(2,3,4,18)            30.0            estimate D2E/DX2                !
 ! D16   D(5,3,4,6)             90.0            estimate D2E/DX2                !
 ! D17   D(5,3,4,17)           -30.0            estimate D2E/DX2                !
 ! D18   D(5,3,4,18)          -150.0            estimate D2E/DX2                !
 ! D19   D(2,3,5,7)             -0.0001         estimate D2E/DX2                !
 ! D20   D(2,3,5,19)           179.9999         estimate D2E/DX2                !
 ! D21   D(4,3,5,7)            179.9999         estimate D2E/DX2                !
 ! D22   D(4,3,5,19)            -0.0001         estimate D2E/DX2                !
 ! D23   D(3,4,6,11)            60.0            estimate D2E/DX2                !
 ! D24   D(3,4,6,12)           -60.0            estimate D2E/DX2                !
 ! D25   D(3,4,6,20)          -180.0            estimate D2E/DX2                !
 ! D26   D(17,4,6,11)         -180.0            estimate D2E/DX2                !
 ! D27   D(17,4,6,12)           60.0            estimate D2E/DX2                !
 ! D28   D(17,4,6,20)          -60.0            estimate D2E/DX2                !
 ! D29   D(18,4,6,11)          -60.0            estimate D2E/DX2                !
 ! D30   D(18,4,6,12)         -180.0            estimate D2E/DX2                !
 ! D31   D(18,4,6,20)           60.0            estimate D2E/DX2                !
 ! D32   D(3,5,7,8)           -179.9998         estimate D2E/DX2                !
 ! D33   D(3,5,7,9)              0.0003         estimate D2E/DX2                !
 ! D34   D(19,5,7,8)             0.0002         estimate D2E/DX2                !
 ! D35   D(19,5,7,9)          -179.9998         estimate D2E/DX2                !
 ! D36   D(4,6,11,22)           60.0            estimate D2E/DX2                !
 ! D37   D(4,6,11,23)          -60.0            estimate D2E/DX2                !
 ! D38   D(4,6,11,24)          180.0            estimate D2E/DX2                !
 ! D39   D(12,6,11,22)        -180.0            estimate D2E/DX2                !
 ! D40   D(12,6,11,23)          60.0            estimate D2E/DX2                !
 ! D41   D(12,6,11,24)         -60.0            estimate D2E/DX2                !
 ! D42   D(20,6,11,22)         -60.0            estimate D2E/DX2                !
 ! D43   D(20,6,11,23)         180.0            estimate D2E/DX2                !
 ! D44   D(20,6,11,24)          60.0            estimate D2E/DX2                !
 ! D45   D(4,6,12,13)          -90.0            estimate D2E/DX2                !
 ! D46   D(4,6,12,14)           90.0            estimate D2E/DX2                !
 ! D47   D(11,6,12,13)         150.0            estimate D2E/DX2                !
 ! D48   D(11,6,12,14)         -30.0            estimate D2E/DX2                !
 ! D49   D(20,6,12,13)          30.0            estimate D2E/DX2                !
 ! D50   D(20,6,12,14)        -150.0            estimate D2E/DX2                !
 ! D51   D(5,7,9,1)             -0.0003         estimate D2E/DX2                !
 ! D52   D(5,7,9,10)           179.9997         estimate D2E/DX2                !
 ! D53   D(8,7,9,1)            179.9998         estimate D2E/DX2                !
 ! D54   D(8,7,9,10)            -0.0002         estimate D2E/DX2                !
 ! D55   D(1,9,10,21)           30.0            estimate D2E/DX2                !
 ! D56   D(7,9,10,21)         -150.0            estimate D2E/DX2                !
 --------------------------------------------------------------------------------
 Trust Radius=3.00D-01 FncErr=1.00D-07 GrdErr=1.00D-06
 Number of steps in this run=    130 maximum allowed number of steps=    144.
 GradGradGradGradGradGradGradGradGradGradGradGradGradGradGradGradGradGrad

 Leave Link  103 at Fri Jan  6 23:21:40 2017, MaxMem=  2147483648 cpu:         1.5
 (Enter /home/ik1r11/g09-64-D01/l202.exe)
                          Input orientation:                          
 ---------------------------------------------------------------------
 Center     Atomic      Atomic             Coordinates (Angstroms)
 Number     Number       Type             X           Y           Z
 ---------------------------------------------------------------------
      1          6           0       -1.918562   -1.583823    0.162055
      2          6           0       -0.625771   -1.715227   -0.354277
      3          6           0        0.054942   -0.579825   -0.809352
      4          6           0        1.479130   -0.713029   -1.379920
      5          6           0       -0.560280    0.679462   -0.745647
      6          6           0        2.504807   -0.555449   -0.242048
      7          6           0       -1.816135    0.807112   -0.244070
      8          9           0       -2.395587    2.025183   -0.188940
      9          6           0       -2.515042   -0.318601    0.217082
     10          8           0       -3.836750   -0.173525    0.743334
     11          7           0        2.281512   -1.600703    0.767151
     12          6           0        2.340227    0.830362    0.409136
     13          8           0        3.080353    1.947424   -0.090150
     14          8           0        1.554431    0.979753    1.380618
     15          1           0       -2.448432   -2.444701    0.512804
     16          1           0       -0.159862   -2.677321   -0.401234
     17          1           0        1.641664    0.047802   -2.114508
     18          1           0        1.593481   -1.675897   -1.832366
     19          1           0       -0.036766    1.545003   -1.094464
     20          1           0        3.494340   -0.648000   -0.638482
     21          1           0       -3.993401   -0.850236    1.405997
     22          1           0        2.388382   -2.500580    0.344304
     23          1           0        1.356715   -1.514207    1.137650
     24          1           0        2.947537   -1.498379    1.506029
 ---------------------------------------------------------------------
                    Distance matrix (angstroms):
                    1          2          3          4          5
     1  C    0.000000
     2  C    1.398275   0.000000
     3  C    2.417925   1.399858   0.000000
     4  C    3.831484   2.546950   1.540000   0.000000
     5  C    2.791292   2.427344   1.402983   2.549613   0.000000
     6  C    4.559281   3.340390   2.514809   1.540000   3.342660
     7  C    2.427344   2.791292   2.396679   3.802599   1.358325
     8  F    3.657276   4.141286   3.629886   4.891796   2.342913
     9  C    1.399858   2.417925   2.779681   4.319652   2.396679
    10  O    2.450769   3.727195   4.209654   5.749595   3.698636
    11  N    4.243471   3.118175   2.912931   2.457987   3.945059
    12  C    4.901695   3.982458   2.948875   2.514809   3.125578
    13  O    6.125557   5.217292   4.007162   3.362355   3.910449
    14  O    4.485364   3.876346   3.078428   3.239097   3.013831
    15  H    1.070000   2.146172   3.390095   4.691144   3.861245
    16  H    2.146172   1.070000   2.147601   2.739081   3.398080
    17  H    4.529917   3.368672   2.148263   1.070000   2.668582
    18  H    4.039881   2.666716   2.148263   1.070000   3.371552
    19  H    3.861287   3.394687   2.145831   2.734617   1.070000
    20  H    5.551227   4.265567   3.444314   2.148263   4.267737
    21  H    2.527944   3.897140   4.622767   6.142373   4.330805
    22  H    4.407202   3.192165   3.234991   2.644813   4.471608
    23  H    3.418197   2.489279   2.521607   2.644813   3.468986
    24  H    5.049008   4.034389   3.817307   3.331921   4.702958
                    6          7          8          9         10
     6  C    0.000000
     7  C    4.530687   0.000000
     8  F    5.538623   1.350000   0.000000
     9  C    5.046364   1.402983   2.381690   0.000000
    10  O    6.429012   2.453467   2.789337   1.430000   0.000000
    11  N    1.470000   4.859100   5.994699   4.995327   6.282558
    12  C    1.540000   4.207442   4.920694   4.993059   6.266939
    13  O    2.572683   5.029871   5.477383   6.044642   7.282817
    14  O    2.427572   3.745682   4.377108   4.427205   5.549866
    15  H    5.354779   3.398080   4.524942   2.147601   2.671855
    16  H    3.410007   3.861245   5.211245   3.390095   4.593314
    17  H    2.148263   4.003932   4.890526   4.780039   6.182982
    18  H    2.148263   4.507051   5.684321   4.787740   6.195059
    19  H    3.405599   2.105661   2.571883   3.366752   4.557490
    20  H    1.070000   5.520332   6.483767   6.078911   7.475254
    21  H    6.710414   3.195310   3.655799   1.970203   0.960000
    22  H    2.034920   5.381913   6.607061   5.368500   6.657829
    23  H    2.034920   4.167092   5.326058   4.155409   5.378196
    24  H    2.034920   5.574110   6.620980   5.735244   6.954386
                   11         12         13         14         15
    11  N    0.000000
    12  C    2.457987   0.000000
    13  O    3.736619   1.430000   0.000000
    14  O    2.750226   1.258400   2.329803   0.000000
    15  H    4.811382   5.802417   7.086733   5.338811   0.000000
    16  H    2.912823   4.383034   5.655443   4.414520   2.475304
    17  H    3.380966   2.732978   3.126725   3.618293   5.462987
    18  H    2.690081   3.444314   4.286557   4.168606   4.735815
    19  H    4.328451   2.902002   3.299548   2.996238   4.931245
    20  H    2.086720   2.148263   2.684824   3.238764   6.314280
    21  H    6.351839   6.628196   7.752635   5.841912   2.393124
    22  H    1.000000   3.331921   4.522424   3.725875   4.840071
    23  H    1.000000   2.644813   4.057254   2.513556   3.966787
    24  H    1.000000   2.644813   3.799866   2.845630   5.567630
                   16         17         18         19         20
    16  H    0.000000
    17  H    3.688781   0.000000
    18  H    2.474915   1.747303   0.000000
    19  H    4.280623   2.469661   3.684617   0.000000
    20  H    4.186601   2.468846   2.468846   4.181613   0.000000
    21  H    4.615229   6.704803   6.510143   5.257797   7.764474
    22  H    2.660943   3.619061   2.459648   4.931343   2.370879
    23  H    2.453774   3.619061   2.983823   4.035206   2.911082
    24  H    3.831904   4.147803   3.606919   4.993075   2.370879
                   21         22         23         24
    21  H    0.000000
    22  H    6.676675   0.000000
    23  H    5.397834   1.632993   0.000000
    24  H    6.971851   1.632993   1.632993   0.000000
 Stoichiometry    C9H10FNO3
 Framework group  C1[X(C9H10FNO3)]
 Deg. of freedom    66
 Full point group                 C1      NOp   1
 Largest Abelian subgroup         C1      NOp   1
 Largest concise Abelian subgroup C1      NOp   1
                         Standard orientation:                         
 ---------------------------------------------------------------------
 Center     Atomic      Atomic             Coordinates (Angstroms)
 Number     Number       Type             X           Y           Z
 ---------------------------------------------------------------------
      1          6           0        1.950538   -1.541236   -0.128632
      2          6           0        0.649330   -1.691343    0.360755
      3          6           0       -0.052939   -0.567485    0.811714
      4          6           0       -1.486563   -0.721308    1.352694
      5          6           0        0.549277    0.699017    0.770838
      6          6           0       -2.491210   -0.565256    0.196003
      7          6           0        1.813309    0.844834    0.295436
      8          9           0        2.380056    2.069655    0.262075
      9          6           0        2.533778   -0.269082   -0.161155
     10          8           0        3.863939   -0.104901   -0.659769
     11          7           0       -2.236278   -1.599247   -0.817294
     12          6           0       -2.329303    0.827847   -0.440118
     13          8           0       -3.091639    1.932330    0.053705
     14          8           0       -1.526147    0.994266   -1.394485
     15          1           0        2.496862   -2.393161   -0.475985
     16          1           0        0.193391   -2.658888    0.390352
     17          1           0       -1.672126    0.031325    2.090265
     18          1           0       -1.599057   -1.689243    1.794675
     19          1           0        0.009294    1.555690    1.116424
     20          1           0       -3.487299   -0.672133    0.571880
     21          1           0        4.041253   -0.774107   -1.324843
     22          1           0       -2.341412   -2.503859   -0.404228
     23          1           0       -1.305353   -1.499362   -1.168581
     24          1           0       -2.888645   -1.497915   -1.568392
 ---------------------------------------------------------------------
 Rotational constants (GHZ):      1.1772036      0.4568360      0.3823641
 Leave Link  202 at Fri Jan  6 23:21:40 2017, MaxMem=  2147483648 cpu:         1.8
 (Enter /home/ik1r11/g09-64-D01/l301.exe)
 Standard basis: CC-pVTZ (5D, 7F)
 Ernie: Thresh=  0.10000D-02 Tol=  0.10000D-05 Strict=F.
 Ernie:  42 primitive shells out of 444 were deleted.
 There are   640 symmetry adapted cartesian basis functions of A   symmetry.
 There are   560 symmetry adapted basis functions of A   symmetry.
   560 basis functions,   898 primitive gaussians,   640 cartesian basis functions
    52 alpha electrons       52 beta electrons
       nuclear repulsion energy       907.0231086310 Hartrees.
 IExCor= 4235 DFT=T Ex+Corr=M06 ExCW=0 ScaHFX=  0.270000
 ScaDFX=  1.000000  1.000000  1.000000  1.000000 ScalE2=  1.000000  1.000000
 IRadAn=      5 IRanWt=     -1 IRanGd=            0 ICorTp=0 IEmpDi=  4
 NAtoms=   24 NActive=   24 NUniq=   24 SFac= 1.00D+00 NAtFMM=   60 NAOKFM=F Big=F
 Integral buffers will be    131072 words long.
 Raffenetti 2 integral format.
 Two-electron integral symmetry is turned on.
 ------------------------------------------------------------------------------
 Polarizable Continuum Model (PCM)
 =================================
 Model                : PCM (using non-symmetric T matrix).
 Atomic radii         : SMD-Coulomb.
 Polarization charges : Total charges.
 Charge compensation  : None.
 Solution method      : On-the-fly selection.
 Cavity type          : VdW (van der Waals Surface) (Alpha=1.000).
 Cavity algorithm     : GePol (No added spheres)
                        Default sphere list used, NSphG=   24.
                        Lebedev-Laikov grids with approx.  5.0 points / Ang**2.
                        Smoothing algorithm: Karplus/York (Gamma=1.0000).
                        Polarization charges: spherical gaussians, with
                                              point-specific exponents (IZeta= 3).
                        Self-potential: point-specific (ISelfS= 7).
                        Self-field    : sphere-specific E.n sum rule (ISelfD= 2).
 1st derivatives      : Analytical E(r).r(x)/FMM algorithm (CHGder, D1EAlg=3).
                        Cavity 1st derivative terms included.
 Solvent              : Water, Eps=  78.355300 Eps(inf)=   1.777849
 ------------------------------------------------------------------------------
 GePol: Number of generator spheres                  =      24
 GePol: Total number of spheres                      =      24
 GePol: Number of exposed spheres                    =      24 (100.00%)
 GePol: Number of points                             =    1766
 GePol: Average weight of points                     =       0.12
 GePol: Minimum weight of points                     =   0.35D-09
 GePol: Maximum weight of points                     =    0.21991
 GePol: Number of points with low weight             =      90
 GePol: Fraction of low-weight points (<1% of avg)   =       5.10%
 GePol: Cavity surface area                          =    211.633 Ang**2
 GePol: Cavity volume                                =    187.225 Ang**3
 ------------------------------------------------------------------------------
 Atomic radii for non-electrostatic terms: SMD-CDS.
 ------------------------------------------------------------------------------
 PCM non-electrostatic energy =         0.0090317702 Hartrees.
 Nuclear repulsion after PCM non-electrostatic terms =      907.0321404011 Hartrees.
 Leave Link  301 at Fri Jan  6 23:21:40 2017, MaxMem=  2147483648 cpu:         5.4
 (Enter /home/ik1r11/g09-64-D01/l302.exe)
 NPDir=0 NMtPBC=     1 NCelOv=     1 NCel=       1 NClECP=     1 NCelD=      1
         NCelK=      1 NCelE2=     1 NClLst=     1 CellRange=     0.0.
 One-electron integrals computed using PRISM.
 NBasis=   560 RedAO= T EigKep=  3.62D-05  NBF=   560
 NBsUse=   560 1.00D-06 EigRej= -1.00D+00 NBFU=   560
 Precomputing XC quadrature grid using
 IXCGrd= 4 IRadAn=           5 IRanWt=          -1 IRanGd=           0 AccXCQ= 0.00D+00.
 Generated NRdTot=       0 NPtTot=           0 NUsed=           0 NTot=          32
 NSgBfM=   639   639   639   639   639 MxSgAt=    24 MxSgA2=    24.
 Leave Link  302 at Fri Jan  6 23:21:41 2017, MaxMem=  2147483648 cpu:        15.9
 (Enter /home/ik1r11/g09-64-D01/l303.exe)
 DipDrv:  MaxL=1.
 Leave Link  303 at Fri Jan  6 23:21:41 2017, MaxMem=  2147483648 cpu:         1.3
 (Enter /home/ik1r11/g09-64-D01/l401.exe)
 ExpMin= 1.03D-01 ExpMax= 1.95D+04 ExpMxC= 6.65D+02 IAcc=3 IRadAn=         5 AccDes= 0.00D+00
 Harris functional with IExCor= 1009 and IRadAn=       5 diagonalized for initial guess.
 HarFok:  IExCor= 1009 AccDes= 0.00D+00 IRadAn=         5 IDoV= 1 UseB2=F ITyADJ=14
 ICtDFT=  3500011 ScaDFX=  1.000000  1.000000  1.000000  1.000000
 FoFCou: FMM=F IPFlag=           0 FMFlag=      100000 FMFlg1=           0
         NFxFlg=           0 DoJE=T BraDBF=F KetDBF=T FulRan=T
         wScrn=  0.000000 ICntrl=     500 IOpCl=  0 I1Cent=   200000004 NGrid=           0
         NMat0=    1 NMatS0=      1 NMatT0=    0 NMatD0=    1 NMtDS0=    0 NMtDT0=    0
 Petite list used in FoFCou.
 Harris En= -728.851214397153    
 JPrj=0 DoOrth=F DoCkMO=F.
 Leave Link  401 at Fri Jan  6 23:21:45 2017, MaxMem=  2147483648 cpu:        51.0
 (Enter /home/ik1r11/g09-64-D01/l502.exe)
 Closed shell SCF:
 Using DIIS extrapolation, IDIIS=  1040.
 Integral symmetry usage will be decided dynamically.
 IVT=     1262238 IEndB=     1262238 NGot=  2147483648 MDV=  2146648291
 LenX=  2146648291 LenY=  2146238051
 Requested convergence on RMS density matrix=1.00D-08 within 128 cycles.
 Requested convergence on MAX density matrix=1.00D-06.
 Requested convergence on             energy=1.00D-06.
 No special actions if energy rises.
 Fock matrices will be formed incrementally for  20 cycles.

 Cycle   1  Pass 1  IDiag  1:
 FoFJK:  IHMeth= 1 ICntrl=       0 DoSepK=F KAlg= 0 I1Cent=   0 FoldK=F
 IRaf= 860000000 NMat=   1 IRICut=       1 DoRegI=T DoRafI=F ISym2E= 0.
 FoFCou: FMM=F IPFlag=           0 FMFlag=      100000 FMFlg1=           0
         NFxFlg=           0 DoJE=F BraDBF=F KetDBF=F FulRan=T
         wScrn=  0.000000 ICntrl=       0 IOpCl=  0 I1Cent=           0 NGrid=           0
         NMat0=    1 NMatS0=      1 NMatT0=    0 NMatD0=    1 NMtDS0=    0 NMtDT0=    0
 Symmetry not used in FoFCou.
 Inv3:  Mode=1 IEnd=     9356268.
 Iteration    1 A*A^-1 deviation from unit magnitude is 4.11D-15 for   1758.
 Iteration    1 A*A^-1 deviation from orthogonality  is 2.86D-15 for   1514   1264.
 Iteration    1 A^-1*A deviation from unit magnitude is 4.00D-15 for   1738.
 Iteration    1 A^-1*A deviation from orthogonality  is 4.62D-12 for   1751   1750.
 E= -728.763656218938    
 DIIS: error= 2.17D-02 at cycle   1 NSaved=   1.
 NSaved= 1 IEnMin= 1 EnMin= -728.763656218938     IErMin= 1 ErrMin= 2.17D-02
 ErrMax= 2.17D-02  0.00D+00 EMaxC= 1.00D-01 BMatC= 3.79D-01 BMatP= 3.79D-01
 IDIUse=3 WtCom= 7.83D-01 WtEn= 2.17D-01
 Coeff-Com:  0.100D+01
 Coeff-En:   0.100D+01
 Coeff:      0.100D+01
 Gap=     0.248 Goal=   None    Shift=    0.000
 GapD=    0.248 DampG=1.000 DampE=0.500 DampFc=0.5000 IDamp=-1.
 Damping current iteration by 5.00D-01
 RMSDP=4.18D-03 MaxDP=7.52D-01              OVMax= 2.01D-01

 Cycle   2  Pass 1  IDiag  1:
 RMSU=  2.09D-03    CP:  1.02D+00
 E= -728.869156796597     Delta-E=       -0.105500577660 Rises=F Damp=T
 DIIS: error= 9.51D-03 at cycle   2 NSaved=   2.
 NSaved= 2 IEnMin= 2 EnMin= -728.869156796597     IErMin= 2 ErrMin= 9.51D-03
 ErrMax= 9.51D-03  0.00D+00 EMaxC= 1.00D-01 BMatC= 3.66D-02 BMatP= 3.79D-01
 IDIUse=3 WtCom= 9.05D-01 WtEn= 9.51D-02
 Coeff-Com:  0.156D+00 0.844D+00
 Coeff-En:   0.255D+00 0.745D+00
 Coeff:      0.166D+00 0.834D+00
 Gap=     0.286 Goal=   None    Shift=    0.000
 RMSDP=1.04D-03 MaxDP=1.68D-01 DE=-1.06D-01 OVMax= 1.52D-01

 Cycle   3  Pass 1  IDiag  1:
 RMSU=  8.54D-04    CP:  1.02D+00  7.11D-01
 E= -729.038192156119     Delta-E=       -0.169035359522 Rises=F Damp=F
 DIIS: error= 1.05D-02 at cycle   3 NSaved=   3.
 NSaved= 3 IEnMin= 3 EnMin= -729.038192156119     IErMin= 2 ErrMin= 9.51D-03
 ErrMax= 1.05D-02  0.00D+00 EMaxC= 1.00D-01 BMatC= 2.60D-02 BMatP= 3.66D-02
 IDIUse=3 WtCom= 8.95D-01 WtEn= 1.05D-01
 Coeff-Com:  0.257D-01 0.456D+00 0.519D+00
 Coeff-En:   0.000D+00 0.000D+00 0.100D+01
 Coeff:      0.230D-01 0.408D+00 0.569D+00
 Gap=     0.231 Goal=   None    Shift=    0.000
 RMSDP=3.83D-04 MaxDP=4.15D-02 DE=-1.69D-01 OVMax= 5.31D-02

 Cycle   4  Pass 1  IDiag  1:
 RMSU=  3.01D-04    CP:  1.02D+00  7.84D-01  7.87D-01
 E= -729.055105778779     Delta-E=       -0.016913622660 Rises=F Damp=F
 DIIS: error= 3.58D-03 at cycle   4 NSaved=   4.
 NSaved= 4 IEnMin= 4 EnMin= -729.055105778779     IErMin= 4 ErrMin= 3.58D-03
 ErrMax= 3.58D-03  0.00D+00 EMaxC= 1.00D-01 BMatC= 5.03D-03 BMatP= 2.60D-02
 IDIUse=3 WtCom= 9.64D-01 WtEn= 3.58D-02
 Coeff-Com:  0.186D-02 0.132D+00 0.331D+00 0.535D+00
 Coeff-En:   0.000D+00 0.000D+00 0.158D+00 0.842D+00
 Coeff:      0.180D-02 0.127D+00 0.325D+00 0.546D+00
 Gap=     0.239 Goal=   None    Shift=    0.000
 RMSDP=1.57D-04 MaxDP=1.75D-02 DE=-1.69D-02 OVMax= 2.41D-02

 Cycle   5  Pass 1  IDiag  1:
 RMSU=  8.72D-05    CP:  1.02D+00  7.54D-01  8.56D-01  6.75D-01
 E= -729.058369822223     Delta-E=       -0.003264043444 Rises=F Damp=F
 DIIS: error= 1.22D-03 at cycle   5 NSaved=   5.
 NSaved= 5 IEnMin= 5 EnMin= -729.058369822223     IErMin= 5 ErrMin= 1.22D-03
 ErrMax= 1.22D-03  0.00D+00 EMaxC= 1.00D-01 BMatC= 7.57D-04 BMatP= 5.03D-03
 IDIUse=3 WtCom= 9.88D-01 WtEn= 1.22D-02
 Coeff-Com: -0.133D-02 0.221D-01 0.137D+00 0.358D+00 0.484D+00
 Coeff-En:   0.000D+00 0.000D+00 0.000D+00 0.103D+00 0.897D+00
 Coeff:     -0.131D-02 0.218D-01 0.136D+00 0.355D+00 0.489D+00
 Gap=     0.231 Goal=   None    Shift=    0.000
 RMSDP=6.58D-05 MaxDP=6.74D-03 DE=-3.26D-03 OVMax= 6.59D-03

 Cycle   6  Pass 1  IDiag  1:
 RMSU=  3.33D-05    CP:  1.02D+00  7.72D-01  8.56D-01  7.07D-01  5.43D-01
 E= -729.058914333271     Delta-E=       -0.000544511048 Rises=F Damp=F
 DIIS: error= 1.64D-04 at cycle   6 NSaved=   6.
 NSaved= 6 IEnMin= 6 EnMin= -729.058914333271     IErMin= 6 ErrMin= 1.64D-04
 ErrMax= 1.64D-04  0.00D+00 EMaxC= 1.00D-01 BMatC= 2.83D-05 BMatP= 7.57D-04
 IDIUse=3 WtCom= 9.98D-01 WtEn= 1.64D-03
 Coeff-Com: -0.659D-03-0.219D-02 0.315D-01 0.114D+00 0.228D+00 0.629D+00
 Coeff-En:   0.000D+00 0.000D+00 0.000D+00 0.000D+00 0.000D+00 0.100D+01
 Coeff:     -0.658D-03-0.219D-02 0.314D-01 0.114D+00 0.227D+00 0.630D+00
 Gap=     0.231 Goal=   None    Shift=    0.000
 RMSDP=1.64D-05 MaxDP=2.23D-03 DE=-5.45D-04 OVMax= 1.27D-03

 Cycle   7  Pass 1  IDiag  1:
 RMSU=  1.29D-05    CP:  1.02D+00  7.75D-01  8.62D-01  6.94D-01  5.30D-01
                    CP:  1.16D+00
 E= -729.058932393660     Delta-E=       -0.000018060389 Rises=F Damp=F
 DIIS: error= 4.59D-05 at cycle   7 NSaved=   7.
 NSaved= 7 IEnMin= 7 EnMin= -729.058932393660     IErMin= 7 ErrMin= 4.59D-05
 ErrMax= 4.59D-05  0.00D+00 EMaxC= 1.00D-01 BMatC= 4.51D-06 BMatP= 2.83D-05
 IDIUse=1 WtCom= 1.00D+00 WtEn= 0.00D+00
 Coeff-Com: -0.272D-04-0.317D-02 0.327D-02 0.257D-01 0.726D-01 0.340D+00
 Coeff-Com:  0.562D+00
 Coeff:     -0.272D-04-0.317D-02 0.327D-02 0.257D-01 0.726D-01 0.340D+00
 Coeff:      0.562D+00
 Gap=     0.231 Goal=   None    Shift=    0.000
 RMSDP=4.71D-06 MaxDP=3.14D-04 DE=-1.81D-05 OVMax= 6.71D-04

 Cycle   8  Pass 1  IDiag  1:
 RMSU=  3.07D-06    CP:  1.02D+00  7.75D-01  8.61D-01  6.97D-01  5.45D-01
                    CP:  1.20D+00  7.73D-01
 E= -729.058935808807     Delta-E=       -0.000003415146 Rises=F Damp=F
 DIIS: error= 1.64D-05 at cycle   8 NSaved=   8.
 NSaved= 8 IEnMin= 8 EnMin= -729.058935808807     IErMin= 8 ErrMin= 1.64D-05
 ErrMax= 1.64D-05  0.00D+00 EMaxC= 1.00D-01 BMatC= 2.48D-07 BMatP= 4.51D-06
 IDIUse=1 WtCom= 1.00D+00 WtEn= 0.00D+00
 Coeff-Com:  0.101D-03-0.944D-03-0.230D-02-0.337D-02-0.311D-03 0.485D-01
 Coeff-Com:  0.213D+00 0.745D+00
 Coeff:      0.101D-03-0.944D-03-0.230D-02-0.337D-02-0.311D-03 0.485D-01
 Coeff:      0.213D+00 0.745D+00
 Gap=     0.231 Goal=   None    Shift=    0.000
 RMSDP=1.65D-06 MaxDP=1.70D-04 DE=-3.42D-06 OVMax= 2.38D-04

 Cycle   9  Pass 1  IDiag  1:
 RMSU=  9.21D-07    CP:  1.02D+00  7.75D-01  8.62D-01  6.98D-01  5.46D-01
                    CP:  1.22D+00  8.20D-01  9.89D-01
 E= -729.058936000748     Delta-E=       -0.000000191941 Rises=F Damp=F
 DIIS: error= 6.81D-06 at cycle   9 NSaved=   9.
 NSaved= 9 IEnMin= 9 EnMin= -729.058936000748     IErMin= 9 ErrMin= 6.81D-06
 ErrMax= 6.81D-06  0.00D+00 EMaxC= 1.00D-01 BMatC= 7.64D-08 BMatP= 2.48D-07
 IDIUse=1 WtCom= 1.00D+00 WtEn= 0.00D+00
 Coeff-Com:  0.570D-04-0.222D-03-0.171D-02-0.473D-02-0.884D-02-0.121D-01
 Coeff-Com:  0.598D-01 0.430D+00 0.538D+00
 Coeff:      0.570D-04-0.222D-03-0.171D-02-0.473D-02-0.884D-02-0.121D-01
 Coeff:      0.598D-01 0.430D+00 0.538D+00
 Gap=     0.231 Goal=   None    Shift=    0.000
 RMSDP=7.26D-07 MaxDP=9.28D-05 DE=-1.92D-07 OVMax= 9.14D-05

 Cycle  10  Pass 1  IDiag  1:
 RMSU=  3.51D-07    CP:  1.02D+00  7.75D-01  8.62D-01  6.97D-01  5.44D-01
                    CP:  1.24D+00  8.42D-01  1.01D+00  8.74D-01
 E= -729.058936067255     Delta-E=       -0.000000066508 Rises=F Damp=F
 DIIS: error= 1.63D-06 at cycle  10 NSaved=  10.
 NSaved=10 IEnMin=10 EnMin= -729.058936067255     IErMin=10 ErrMin= 1.63D-06
 ErrMax= 1.63D-06  0.00D+00 EMaxC= 1.00D-01 BMatC= 2.63D-09 BMatP= 7.64D-08
 IDIUse=1 WtCom= 1.00D+00 WtEn= 0.00D+00
 Coeff-Com:  0.783D-05 0.299D-04-0.354D-03-0.116D-02-0.320D-02-0.918D-02
 Coeff-Com: -0.916D-04 0.670D-01 0.170D+00 0.777D+00
 Coeff:      0.783D-05 0.299D-04-0.354D-03-0.116D-02-0.320D-02-0.918D-02
 Coeff:     -0.916D-04 0.670D-01 0.170D+00 0.777D+00
 Gap=     0.231 Goal=   None    Shift=    0.000
 RMSDP=1.84D-07 MaxDP=1.42D-05 DE=-6.65D-08 OVMax= 3.15D-05

 Cycle  11  Pass 1  IDiag  1:
 RMSU=  9.76D-08    CP:  1.02D+00  7.75D-01  8.62D-01  6.97D-01  5.44D-01
                    CP:  1.24D+00  8.43D-01  1.04D+00  9.40D-01  9.44D-01
 E= -729.058936069863     Delta-E=       -0.000000002608 Rises=F Damp=F
 DIIS: error= 5.35D-07 at cycle  11 NSaved=  11.
 NSaved=11 IEnMin=11 EnMin= -729.058936069863     IErMin=11 ErrMin= 5.35D-07
 ErrMax= 5.35D-07  0.00D+00 EMaxC= 1.00D-01 BMatC= 4.98D-10 BMatP= 2.63D-09
 IDIUse=1 WtCom= 1.00D+00 WtEn= 0.00D+00
 Coeff-Com: -0.305D-05 0.360D-04 0.190D-04-0.483D-05-0.563D-03-0.281D-02
 Coeff-Com: -0.584D-02-0.163D-01 0.119D-01 0.339D+00 0.675D+00
 Coeff:     -0.305D-05 0.360D-04 0.190D-04-0.483D-05-0.563D-03-0.281D-02
 Coeff:     -0.584D-02-0.163D-01 0.119D-01 0.339D+00 0.675D+00
 Gap=     0.231 Goal=   None    Shift=    0.000
 RMSDP=7.80D-08 MaxDP=7.75D-06 DE=-2.61D-09 OVMax= 9.16D-06

 Cycle  12  Pass 1  IDiag  1:
 RMSU=  4.42D-08    CP:  1.02D+00  7.75D-01  8.62D-01  6.97D-01  5.44D-01
                    CP:  1.24D+00  8.45D-01  1.04D+00  9.46D-01  1.01D+00
                    CP:  9.43D-01
 E= -729.058936070372     Delta-E=       -0.000000000509 Rises=F Damp=F
 DIIS: error= 1.81D-07 at cycle  12 NSaved=  12.
 NSaved=12 IEnMin=12 EnMin= -729.058936070372     IErMin=12 ErrMin= 1.81D-07
 ErrMax= 1.81D-07  0.00D+00 EMaxC= 1.00D-01 BMatC= 5.81D-11 BMatP= 4.98D-10
 IDIUse=1 WtCom= 1.00D+00 WtEn= 0.00D+00
 Coeff-Com: -0.195D-05 0.105D-04 0.608D-04 0.176D-03 0.227D-03 0.177D-03
 Coeff-Com: -0.232D-02-0.166D-01-0.210D-01 0.303D-01 0.291D+00 0.718D+00
 Coeff:     -0.195D-05 0.105D-04 0.608D-04 0.176D-03 0.227D-03 0.177D-03
 Coeff:     -0.232D-02-0.166D-01-0.210D-01 0.303D-01 0.291D+00 0.718D+00
 Gap=     0.231 Goal=   None    Shift=    0.000
 RMSDP=2.18D-08 MaxDP=1.55D-06 DE=-5.09D-10 OVMax= 4.52D-06

 Cycle  13  Pass 1  IDiag  1:
 RMSU=  1.26D-08    CP:  1.02D+00  7.75D-01  8.62D-01  6.97D-01  5.44D-01
                    CP:  1.24D+00  8.45D-01  1.05D+00  9.49D-01  1.01D+00
                    CP:  1.06D+00  1.06D+00
 E= -729.058936070445     Delta-E=       -0.000000000072 Rises=F Damp=F
 DIIS: error= 4.84D-08 at cycle  13 NSaved=  13.
 NSaved=13 IEnMin=13 EnMin= -729.058936070445     IErMin=13 ErrMin= 4.84D-08
 ErrMax= 4.84D-08  0.00D+00 EMaxC= 1.00D-01 BMatC= 2.81D-12 BMatP= 5.81D-11
 IDIUse=1 WtCom= 1.00D+00 WtEn= 0.00D+00
 Coeff-Com: -0.313D-07 0.153D-07 0.148D-04 0.448D-04 0.997D-04 0.236D-03
 Coeff-Com: -0.199D-03-0.293D-02-0.667D-02-0.145D-01 0.277D-01 0.195D+00
 Coeff-Com:  0.801D+00
 Coeff:     -0.313D-07 0.153D-07 0.148D-04 0.448D-04 0.997D-04 0.236D-03
 Coeff:     -0.199D-03-0.293D-02-0.667D-02-0.145D-01 0.277D-01 0.195D+00
 Coeff:      0.801D+00
 Gap=     0.231 Goal=   None    Shift=    0.000
 RMSDP=6.02D-09 MaxDP=3.16D-07 DE=-7.23D-11 OVMax= 1.09D-06

 Error on total polarization charges =  0.04255
 SCF Done:  E(RM06) =  -729.058936070     A.U. after   13 cycles
            NFock= 13  Conv=0.60D-08     -V/T= 2.0077
 KE= 7.235232381729D+02 PE=-3.521845313404D+03 EE= 1.162230998760D+03
 SMD-CDS (non-electrostatic) energy       (kcal/mol) =       5.67
 (included in total energy above)
 Leave Link  502 at Fri Jan  6 23:26:23 2017, MaxMem=  2147483648 cpu:      4448.0
 (Enter /home/ik1r11/g09-64-D01/l601.exe)
 Copying SCF densities to generalized density rwf, IOpCl= 0 IROHF=0.

 **********************************************************************

            Population analysis using the SCF density.

 **********************************************************************

 Orbital symmetries:
       Occupied  (A) (A) (A) (A) (A) (A) (A) (A) (A) (A) (A) (A)
                 (A) (A) (A) (A) (A) (A) (A) (A) (A) (A) (A) (A)
                 (A) (A) (A) (A) (A) (A) (A) (A) (A) (A) (A) (A)
                 (A) (A) (A) (A) (A) (A) (A) (A) (A) (A) (A) (A)
                 (A) (A) (A) (A)
       Virtual   (A) (A) (A) (A) (A) (A) (A) (A) (A) (A) (A) (A)
                 (A) (A) (A) (A) (A) (A) (A) (A) (A) (A) (A) (A)
                 (A) (A) (A) (A) (A) (A) (A) (A) (A) (A) (A) (A)
                 (A) (A) (A) (A) (A) (A) (A) (A) (A) (A) (A) (A)
                 (A) (A) (A) (A) (A) (A) (A) (A) (A) (A) (A) (A)
                 (A) (A) (A) (A) (A) (A) (A) (A) (A) (A) (A) (A)
                 (A) (A) (A) (A) (A) (A) (A) (A) (A) (A) (A) (A)
                 (A) (A) (A) (A) (A) (A) (A) (A) (A) (A) (A) (A)
                 (A) (A) (A) (A) (A) (A) (A) (A) (A) (A) (A) (A)
                 (A) (A) (A) (A) (A) (A) (A) (A) (A) (A) (A) (A)
                 (A) (A) (A) (A) (A) (A) (A) (A) (A) (A) (A) (A)
                 (A) (A) (A) (A) (A) (A) (A) (A) (A) (A) (A) (A)
                 (A) (A) (A) (A) (A) (A) (A) (A) (A) (A) (A) (A)
                 (A) (A) (A) (A) (A) (A) (A) (A) (A) (A) (A) (A)
                 (A) (A) (A) (A) (A) (A) (A) (A) (A) (A) (A) (A)
                 (A) (A) (A) (A) (A) (A) (A) (A) (A) (A) (A) (A)
                 (A) (A) (A) (A) (A) (A) (A) (A) (A) (A) (A) (A)
                 (A) (A) (A) (A) (A) (A) (A) (A) (A) (A) (A) (A)
                 (A) (A) (A) (A) (A) (A) (A) (A) (A) (A) (A) (A)
                 (A) (A) (A) (A) (A) (A) (A) (A) (A) (A) (A) (A)
                 (A) (A) (A) (A) (A) (A) (A) (A) (A) (A) (A) (A)
                 (A) (A) (A) (A) (A) (A) (A) (A) (A) (A) (A) (A)
                 (A) (A) (A) (A) (A) (A) (A) (A) (A) (A) (A) (A)
                 (A) (A) (A) (A) (A) (A) (A) (A) (A) (A) (A) (A)
                 (A) (A) (A) (A) (A) (A) (A) (A) (A) (A) (A) (A)
                 (A) (A) (A) (A) (A) (A) (A) (A) (A) (A) (A) (A)
                 (A) (A) (A) (A) (A) (A) (A) (A) (A) (A) (A) (A)
                 (A) (A) (A) (A) (A) (A) (A) (A) (A) (A) (A) (A)
                 (A) (A) (A) (A) (A) (A) (A) (A) (A) (A) (A) (A)
                 (A) (A) (A) (A) (A) (A) (A) (A) (A) (A) (A) (A)
                 (A) (A) (A) (A) (A) (A) (A) (A) (A) (A) (A) (A)
                 (A) (A) (A) (A) (A) (A) (A) (A) (A) (A) (A) (A)
                 (A) (A) (A) (A) (A) (A) (A) (A) (A) (A) (A) (A)
                 (A) (A) (A) (A) (A) (A) (A) (A) (A) (A) (A) (A)
                 (A) (A) (A) (A) (A) (A) (A) (A) (A) (A) (A) (A)
                 (A) (A) (A) (A) (A) (A) (A) (A) (A) (A) (A) (A)
                 (A) (A) (A) (A) (A) (A) (A) (A) (A) (A) (A) (A)
                 (A) (A) (A) (A) (A) (A) (A) (A) (A) (A) (A) (A)
                 (A) (A) (A) (A) (A) (A) (A) (A) (A) (A) (A) (A)
                 (A) (A) (A) (A) (A) (A) (A) (A) (A) (A) (A) (A)
                 (A) (A) (A) (A) (A) (A) (A) (A) (A) (A) (A) (A)
                 (A) (A) (A) (A) (A) (A) (A) (A) (A) (A) (A) (A)
                 (A) (A) (A) (A)
 The electronic state is 1-A.
 Alpha  occ. eigenvalues --  -24.80166 -19.24334 -19.19310 -19.16455 -14.49933
 Alpha  occ. eigenvalues --  -10.36467 -10.33365 -10.31958 -10.31361 -10.26378
 Alpha  occ. eigenvalues --  -10.25745 -10.25200 -10.24973 -10.24928  -1.27073
 Alpha  occ. eigenvalues --   -1.06610  -1.05605  -1.02158  -0.92754  -0.88365
 Alpha  occ. eigenvalues --   -0.81443  -0.77430  -0.75501  -0.68460  -0.64422
 Alpha  occ. eigenvalues --   -0.62918  -0.60902  -0.59624  -0.56304  -0.55356
 Alpha  occ. eigenvalues --   -0.54380  -0.52167  -0.50196  -0.49775  -0.47431
 Alpha  occ. eigenvalues --   -0.46419  -0.45704  -0.44096  -0.42959  -0.42498
 Alpha  occ. eigenvalues --   -0.41435  -0.41199  -0.39066  -0.38960  -0.37362
 Alpha  occ. eigenvalues --   -0.35904  -0.34960  -0.28721  -0.27931  -0.27047
 Alpha  occ. eigenvalues --   -0.25894  -0.24732
 Alpha virt. eigenvalues --   -0.01601  -0.00650   0.00804   0.02505   0.04808
 Alpha virt. eigenvalues --    0.05998   0.06800   0.07044   0.08546   0.10388
 Alpha virt. eigenvalues --    0.11105   0.11765   0.12705   0.13844   0.14025
 Alpha virt. eigenvalues --    0.15576   0.17042   0.18825   0.20438   0.21307
 Alpha virt. eigenvalues --    0.22598   0.23734   0.25200   0.25859   0.26589
 Alpha virt. eigenvalues --    0.26895   0.28044   0.28891   0.30480   0.31364
 Alpha virt. eigenvalues --    0.31797   0.31930   0.32817   0.33859   0.34037
 Alpha virt. eigenvalues --    0.34842   0.36125   0.36908   0.37173   0.37693
 Alpha virt. eigenvalues --    0.38168   0.38962   0.39932   0.40321   0.40832
 Alpha virt. eigenvalues --    0.41025   0.42221   0.42753   0.43544   0.43901
 Alpha virt. eigenvalues --    0.44669   0.45236   0.45465   0.46492   0.46669
 Alpha virt. eigenvalues --    0.47497   0.48783   0.49371   0.50320   0.51751
 Alpha virt. eigenvalues --    0.51883   0.53403   0.54750   0.55475   0.57414
 Alpha virt. eigenvalues --    0.58584   0.58823   0.59757   0.60609   0.61670
 Alpha virt. eigenvalues --    0.62256   0.62560   0.63199   0.64710   0.66507
 Alpha virt. eigenvalues --    0.67063   0.68818   0.70243   0.70465   0.71523
 Alpha virt. eigenvalues --    0.72512   0.73520   0.74553   0.75288   0.75513
 Alpha virt. eigenvalues --    0.76370   0.77607   0.78882   0.79813   0.81078
 Alpha virt. eigenvalues --    0.83297   0.84388   0.85005   0.85912   0.86217
 Alpha virt. eigenvalues --    0.88230   0.90107   0.91174   0.91998   0.92997
 Alpha virt. eigenvalues --    0.94859   0.95382   0.97381   0.97986   0.98378
 Alpha virt. eigenvalues --    0.98769   1.01504   1.01625   1.03743   1.05377
 Alpha virt. eigenvalues --    1.05643   1.06776   1.07073   1.07911   1.08852
 Alpha virt. eigenvalues --    1.10022   1.11503   1.12227   1.13565   1.14136
 Alpha virt. eigenvalues --    1.15213   1.15429   1.17759   1.19074   1.19361
 Alpha virt. eigenvalues --    1.19911   1.21898   1.22419   1.23212   1.23777
 Alpha virt. eigenvalues --    1.24819   1.26141   1.26950   1.27778   1.29043
 Alpha virt. eigenvalues --    1.30945   1.32473   1.32604   1.33371   1.34788
 Alpha virt. eigenvalues --    1.35012   1.35825   1.37757   1.41125   1.41691
 Alpha virt. eigenvalues --    1.42361   1.42956   1.43402   1.45552   1.47977
 Alpha virt. eigenvalues --    1.49091   1.49624   1.52327   1.54196   1.54637
 Alpha virt. eigenvalues --    1.56407   1.58212   1.58458   1.60174   1.61275
 Alpha virt. eigenvalues --    1.63223   1.63989   1.64358   1.66702   1.67895
 Alpha virt. eigenvalues --    1.70033   1.71631   1.72338   1.74646   1.75446
 Alpha virt. eigenvalues --    1.78496   1.80594   1.83006   1.84344   1.87507
 Alpha virt. eigenvalues --    1.87934   1.93064   1.95869   1.98620   2.00086
 Alpha virt. eigenvalues --    2.01286   2.02670   2.03184   2.05006   2.06019
 Alpha virt. eigenvalues --    2.07078   2.08686   2.10246   2.11905   2.12886
 Alpha virt. eigenvalues --    2.15868   2.18524   2.19923   2.22550   2.24037
 Alpha virt. eigenvalues --    2.25548   2.26701   2.28904   2.31365   2.31381
 Alpha virt. eigenvalues --    2.31595   2.33858   2.34575   2.36839   2.36969
 Alpha virt. eigenvalues --    2.40277   2.41726   2.42335   2.44345   2.45376
 Alpha virt. eigenvalues --    2.46888   2.48108   2.49363   2.50825   2.52530
 Alpha virt. eigenvalues --    2.53071   2.54414   2.55307   2.56537   2.58748
 Alpha virt. eigenvalues --    2.59094   2.61353   2.62993   2.64002   2.64549
 Alpha virt. eigenvalues --    2.68132   2.68562   2.69138   2.70801   2.71659
 Alpha virt. eigenvalues --    2.72292   2.73576   2.74525   2.75616   2.76608
 Alpha virt. eigenvalues --    2.78111   2.79010   2.80801   2.82170   2.84490
 Alpha virt. eigenvalues --    2.85195   2.86235   2.86346   2.86721   2.88695
 Alpha virt. eigenvalues --    2.91042   2.91137   2.92545   2.93243   2.94043
 Alpha virt. eigenvalues --    2.95415   2.96263   2.96952   2.97618   2.98834
 Alpha virt. eigenvalues --    3.00043   3.01033   3.02126   3.03193   3.03698
 Alpha virt. eigenvalues --    3.05150   3.05656   3.06076   3.06401   3.07581
 Alpha virt. eigenvalues --    3.08693   3.09200   3.10337   3.11471   3.12102
 Alpha virt. eigenvalues --    3.13383   3.14622   3.16524   3.17666   3.18482
 Alpha virt. eigenvalues --    3.19795   3.20759   3.21875   3.23000   3.23537
 Alpha virt. eigenvalues --    3.25448   3.25569   3.25890   3.26587   3.28482
 Alpha virt. eigenvalues --    3.29218   3.30536   3.32805   3.33479   3.34278
 Alpha virt. eigenvalues --    3.34986   3.35416   3.36266   3.37556   3.39443
 Alpha virt. eigenvalues --    3.41876   3.42689   3.43860   3.44401   3.45257
 Alpha virt. eigenvalues --    3.46067   3.48353   3.49284   3.50596   3.50708
 Alpha virt. eigenvalues --    3.51248   3.52473   3.55098   3.55996   3.56359
 Alpha virt. eigenvalues --    3.59007   3.59755   3.61326   3.63097   3.64529
 Alpha virt. eigenvalues --    3.65737   3.66897   3.68065   3.68870   3.69701
 Alpha virt. eigenvalues --    3.71804   3.72693   3.73178   3.74173   3.75351
 Alpha virt. eigenvalues --    3.76172   3.77524   3.79269   3.79611   3.81085
 Alpha virt. eigenvalues --    3.81627   3.82605   3.84288   3.87400   3.88307
 Alpha virt. eigenvalues --    3.90018   3.91074   3.91970   3.93577   3.93751
 Alpha virt. eigenvalues --    3.94640   3.96054   3.97893   3.98824   4.01031
 Alpha virt. eigenvalues --    4.01256   4.02198   4.02840   4.03987   4.06114
 Alpha virt. eigenvalues --    4.06131   4.07628   4.07980   4.09246   4.10985
 Alpha virt. eigenvalues --    4.11891   4.14281   4.15210   4.17122   4.17862
 Alpha virt. eigenvalues --    4.19002   4.20538   4.22266   4.22803   4.23485
 Alpha virt. eigenvalues --    4.24897   4.25626   4.27886   4.28233   4.29437
 Alpha virt. eigenvalues --    4.29918   4.30430   4.31485   4.32411   4.34181
 Alpha virt. eigenvalues --    4.34667   4.36060   4.36504   4.38406   4.40638
 Alpha virt. eigenvalues --    4.40887   4.43021   4.43261   4.47969   4.48778
 Alpha virt. eigenvalues --    4.51703   4.56142   4.60447   4.61745   4.64401
 Alpha virt. eigenvalues --    4.65284   4.66608   4.68103   4.69074   4.72995
 Alpha virt. eigenvalues --    4.74972   4.75855   4.77237   4.78095   4.81888
 Alpha virt. eigenvalues --    4.84320   4.87028   4.88952   4.89668   4.92073
 Alpha virt. eigenvalues --    4.92928   4.94601   4.96289   4.98539   5.00038
 Alpha virt. eigenvalues --    5.01654   5.03862   5.04181   5.07374   5.12218
 Alpha virt. eigenvalues --    5.12825   5.14718   5.18661   5.20523   5.21358
 Alpha virt. eigenvalues --    5.22460   5.23325   5.23462   5.24138   5.25329
 Alpha virt. eigenvalues --    5.26624   5.29160   5.32488   5.33526   5.39973
 Alpha virt. eigenvalues --    5.42512   5.43247   5.45233   5.49174   5.51146
 Alpha virt. eigenvalues --    5.52986   5.54924   5.58651   5.63090   5.66964
 Alpha virt. eigenvalues --    5.69587   5.71087   5.73278   5.74726   5.80259
 Alpha virt. eigenvalues --    5.83526   5.86167   5.87115   5.92040   5.95353
 Alpha virt. eigenvalues --    5.97655   5.98309   5.99090   6.01844   6.02141
 Alpha virt. eigenvalues --    6.05615   6.09424   6.11168   6.16872   6.29325
 Alpha virt. eigenvalues --    6.41714   6.45606   6.47830   6.51480   6.52268
 Alpha virt. eigenvalues --    6.53257   6.61719   6.64645   6.69806   6.74643
 Alpha virt. eigenvalues --    6.82024   6.84342   6.88030   6.89199   6.89415
 Alpha virt. eigenvalues --    6.90453   6.94686   6.98133   6.98757   7.00080
 Alpha virt. eigenvalues --    7.00862   7.06308   7.08527   7.11953   7.13589
 Alpha virt. eigenvalues --    7.28365   7.37612   7.47342   7.69812   8.21637
 Alpha virt. eigenvalues --    8.42196   8.50818   8.83623   8.84992   9.05308
 Alpha virt. eigenvalues --    9.19546  10.10686  11.46319  11.72623  11.76685
 Alpha virt. eigenvalues --   12.00815  12.05278  12.39388  12.52534  13.42373
 Alpha virt. eigenvalues --   13.44977  14.91776  15.28382
          Condensed to atoms (all electrons):
               1          2          3          4          5          6
     1  C    5.411132   0.216065  -0.016520   0.006767   0.022815   0.000042
     2  C    0.216065   5.536553   0.220281  -0.068106  -0.076684   0.023710
     3  C   -0.016520   0.220281   5.716375   0.182885   0.065625  -0.009625
     4  C    0.006767  -0.068106   0.182885   5.259076  -0.038666   0.173022
     5  C    0.022815  -0.076684   0.065625  -0.038666   5.873089  -0.013455
     6  C    0.000042   0.023710  -0.009625   0.173022  -0.013455   5.912061
     7  C   -0.009151  -0.025373   0.059794   0.006313   0.221862  -0.002153
     8  F    0.008100  -0.000662   0.010091  -0.000135  -0.072108   0.000004
     9  C    0.218525   0.041812  -0.066599  -0.003472  -0.087496   0.000211
    10  O   -0.080191   0.011317  -0.000484  -0.000003   0.005857   0.000001
    11  N   -0.000552  -0.007956  -0.005395  -0.010568   0.001021   0.047155
    12  C    0.000213  -0.011069  -0.025888  -0.002763   0.004302  -0.056795
    13  O    0.000003  -0.000398  -0.007712   0.006130  -0.003689  -0.140396
    14  O    0.000923  -0.004806   0.016268   0.000891  -0.009725  -0.175342
    15  H    0.462880  -0.053257   0.011274  -0.000121  -0.001815   0.000020
    16  H   -0.025141   0.449680  -0.075254   0.000459   0.006821  -0.000569
    17  H   -0.000359   0.001994  -0.037462   0.410283  -0.005983  -0.055076
    18  H    0.000168  -0.003497  -0.041822   0.424803   0.006494  -0.033092
    19  H   -0.004511   0.009149  -0.101768  -0.006585   0.425380  -0.001983
    20  H    0.000018   0.000006   0.006680  -0.034134  -0.000515   0.431287
    21  H   -0.002494   0.001842  -0.000099  -0.000005  -0.000872   0.000000
    22  H    0.000097   0.002383  -0.001391  -0.004470   0.000280  -0.000779
    23  H    0.002299  -0.001028   0.008679  -0.000885  -0.002078  -0.039693
    24  H   -0.000046  -0.000410   0.000679   0.005325   0.000113  -0.027699
               7          8          9         10         11         12
     1  C   -0.009151   0.008100   0.218525  -0.080191  -0.000552   0.000213
     2  C   -0.025373  -0.000662   0.041812   0.011317  -0.007956  -0.011069
     3  C    0.059794   0.010091  -0.066599  -0.000484  -0.005395  -0.025888
     4  C    0.006313  -0.000135  -0.003472  -0.000003  -0.010568  -0.002763
     5  C    0.221862  -0.072108  -0.087496   0.005857   0.001021   0.004302
     6  C   -0.002153   0.000004   0.000211   0.000001   0.047155  -0.056795
     7  C    4.891083   0.348127   0.241100  -0.030810   0.000142   0.000471
     8  F    0.348127   9.000287  -0.068307  -0.000289   0.000000   0.000006
     9  C    0.241100  -0.068307   5.291849   0.347865   0.000039  -0.000037
    10  O   -0.030810  -0.000289   0.347865   7.792569   0.000000   0.000000
    11  N    0.000142   0.000000   0.000039   0.000000   5.521415   0.021665
    12  C    0.000471   0.000006  -0.000037   0.000000   0.021665   4.453158
    13  O    0.000234   0.000000  -0.000001   0.000000   0.003777   0.632433
    14  O    0.002738  -0.000004  -0.000614   0.000000   0.015147   0.669821
    15  H    0.005970   0.000023  -0.062919  -0.002855  -0.000003   0.000008
    16  H   -0.002508   0.000004   0.007783  -0.000103  -0.000037  -0.000065
    17  H    0.000155  -0.000002  -0.000017   0.000000   0.007741   0.009994
    18  H   -0.000446   0.000002   0.000133   0.000000  -0.005270   0.003543
    19  H   -0.059161   0.003539   0.018990  -0.000084   0.000157   0.013768
    20  H   -0.000018   0.000000  -0.000003   0.000000  -0.009662  -0.021684
    21  H   -0.000482  -0.000224  -0.032291   0.352776   0.000000   0.000000
    22  H   -0.000070   0.000000   0.000026   0.000000   0.363735  -0.000131
    23  H    0.000423   0.000002  -0.000414   0.000003   0.385681   0.006561
    24  H   -0.000002   0.000000  -0.000001   0.000000   0.386070   0.002918
              13         14         15         16         17         18
     1  C    0.000003   0.000923   0.462880  -0.025141  -0.000359   0.000168
     2  C   -0.000398  -0.004806  -0.053257   0.449680   0.001994  -0.003497
     3  C   -0.007712   0.016268   0.011274  -0.075254  -0.037462  -0.041822
     4  C    0.006130   0.000891  -0.000121   0.000459   0.410283   0.424803
     5  C   -0.003689  -0.009725  -0.001815   0.006821  -0.005983   0.006494
     6  C   -0.140396  -0.175342   0.000020  -0.000569  -0.055076  -0.033092
     7  C    0.000234   0.002738   0.005970  -0.002508   0.000155  -0.000446
     8  F    0.000000  -0.000004   0.000023   0.000004  -0.000002   0.000002
     9  C   -0.000001  -0.000614  -0.062919   0.007783  -0.000017   0.000133
    10  O    0.000000   0.000000  -0.002855  -0.000103   0.000000   0.000000
    11  N    0.003777   0.015147  -0.000003  -0.000037   0.007741  -0.005270
    12  C    0.632433   0.669821   0.000008  -0.000065   0.009994   0.003543
    13  O    8.328812  -0.120009   0.000000  -0.000008   0.009731  -0.000038
    14  O   -0.120009   8.097330   0.000008  -0.000141   0.000637  -0.000655
    15  H    0.000000   0.000008   0.483721  -0.005580   0.000007  -0.000032
    16  H   -0.000008  -0.000141  -0.005580   0.449854  -0.000116   0.000870
    17  H    0.009731   0.000637   0.000007  -0.000116   0.480870  -0.005014
    18  H   -0.000038  -0.000655  -0.000032   0.000870  -0.005014   0.463006
    19  H    0.010162  -0.012330  -0.000010   0.000041   0.000020   0.001106
    20  H    0.006107   0.003067  -0.000001  -0.000094  -0.001269  -0.005504
    21  H    0.000000   0.000000   0.000992   0.000002   0.000000   0.000000
    22  H   -0.000341  -0.000484  -0.000012   0.000839  -0.000253   0.003665
    23  H    0.001172   0.023165   0.000011  -0.001031  -0.000205  -0.000753
    24  H    0.000263   0.002697   0.000000   0.000029  -0.000173  -0.000024
              19         20         21         22         23         24
     1  C   -0.004511   0.000018  -0.002494   0.000097   0.002299  -0.000046
     2  C    0.009149   0.000006   0.001842   0.002383  -0.001028  -0.000410
     3  C   -0.101768   0.006680  -0.000099  -0.001391   0.008679   0.000679
     4  C   -0.006585  -0.034134  -0.000005  -0.004470  -0.000885   0.005325
     5  C    0.425380  -0.000515  -0.000872   0.000280  -0.002078   0.000113
     6  C   -0.001983   0.431287   0.000000  -0.000779  -0.039693  -0.027699
     7  C   -0.059161  -0.000018  -0.000482  -0.000070   0.000423  -0.000002
     8  F    0.003539   0.000000  -0.000224   0.000000   0.000002   0.000000
     9  C    0.018990  -0.000003  -0.032291   0.000026  -0.000414  -0.000001
    10  O   -0.000084   0.000000   0.352776   0.000000   0.000003   0.000000
    11  N    0.000157  -0.009662   0.000000   0.363735   0.385681   0.386070
    12  C    0.013768  -0.021684   0.000000  -0.000131   0.006561   0.002918
    13  O    0.010162   0.006107   0.000000  -0.000341   0.001172   0.000263
    14  O   -0.012330   0.003067   0.000000  -0.000484   0.023165   0.002697
    15  H   -0.000010  -0.000001   0.000992  -0.000012   0.000011   0.000000
    16  H    0.000041  -0.000094   0.000002   0.000839  -0.001031   0.000029
    17  H    0.000020  -0.001269   0.000000  -0.000253  -0.000205  -0.000173
    18  H    0.001106  -0.005504   0.000000   0.003665  -0.000753  -0.000024
    19  H    0.521872  -0.000704   0.000022   0.000073  -0.000208   0.000014
    20  H   -0.000704   0.458040   0.000000  -0.005132   0.002747  -0.003424
    21  H    0.000022   0.000000   0.422823   0.000000   0.000000   0.000000
    22  H    0.000073  -0.005132   0.000000   0.541643  -0.027752  -0.021928
    23  H   -0.000208   0.002747   0.000000  -0.027752   0.499958  -0.022879
    24  H    0.000014  -0.003424   0.000000  -0.021928  -0.022879   0.536093
 Mulliken charges:
               1
     1  C   -0.211081
     2  C   -0.261547
     3  C    0.091388
     4  C   -0.306040
     5  C   -0.320571
     6  C   -0.030854
     7  C    0.351759
     8  F   -0.228453
     9  C    0.153835
    10  O   -0.395567
    11  N    0.285700
    12  C    0.299572
    13  O   -0.726232
    14  O   -0.508582
    15  H    0.161692
    16  H    0.194264
    17  H    0.184496
    18  H    0.192357
    19  H    0.183052
    20  H    0.174192
    21  H    0.258011
    22  H    0.150001
    23  H    0.166224
    24  H    0.142384
 Sum of Mulliken charges =   0.00000
 Mulliken charges with hydrogens summed into heavy atoms:
               1
     1  C   -0.049389
     2  C   -0.067283
     3  C    0.091388
     4  C    0.070814
     5  C   -0.137520
     6  C    0.143338
     7  C    0.351759
     8  F   -0.228453
     9  C    0.153835
    10  O   -0.137556
    11  N    0.744309
    12  C    0.299572
    13  O   -0.726232
    14  O   -0.508582
 Electronic spatial extent (au):  <R**2>=           2894.7424
 Charge=              0.0000 electrons
 Dipole moment (field-independent basis, Debye):
    X=             -0.5600    Y=            -19.5120    Z=             -0.6382  Tot=             19.5305
 Quadrupole moment (field-independent basis, Debye-Ang):
   XX=            -87.7515   YY=            -77.9199   ZZ=            -76.9174
   XY=             30.2331   XZ=             -3.5758   YZ=             11.7160
 Traceless Quadrupole moment (field-independent basis, Debye-Ang):
   XX=             -6.8885   YY=              2.9430   ZZ=              3.9455
   XY=             30.2331   XZ=             -3.5758   YZ=             11.7160
 Octapole moment (field-independent basis, Debye-Ang**2):
  XXX=             18.3416  YYY=            -78.2117  ZZZ=            -10.6074  XYY=             17.5686
  XXY=           -149.4462  XXZ=            -43.3427  XZZ=              2.6361  YZZ=            -14.2217
  YYZ=            -10.2203  XYZ=             -4.4412
 Hexadecapole moment (field-independent basis, Debye-Ang**3):
 XXXX=          -2516.7038 YYYY=           -775.0843 ZZZZ=           -337.0785 XXXY=            248.3120
 XXXZ=            -33.5872 YYYX=            180.5320 YYYZ=             36.7201 ZZZX=            -15.4320
 ZZZY=             37.5938 XXYY=           -573.6293 XXZZ=           -381.9898 YYZZ=           -185.0323
 XXYZ=             80.0379 YYXZ=              1.0359 ZZXY=             38.4478
 N-N= 9.070321404011D+02 E-N=-3.521845316661D+03  KE= 7.235232381729D+02
 No NMR shielding tensors so no spin-rotation constants.
 Leave Link  601 at Fri Jan  6 23:26:24 2017, MaxMem=  2147483648 cpu:         5.8
 (Enter /home/ik1r11/g09-64-D01/l701.exe)
 Compute integral first derivatives.
 ... and contract with generalized density number  0.
 D1PCM: PCM CHGder 1st derivatives, ID1Alg=3 FixD1E=F DoIter=F DoCFld=F I1PDM=0.
 GePol: Maximum number of non-zero 1st derivatives   =     247
 Leave Link  701 at Fri Jan  6 23:26:27 2017, MaxMem=  2147483648 cpu:        42.3
 (Enter /home/ik1r11/g09-64-D01/l702.exe)
 L702 exits ... SP integral derivatives will be done elsewhere.
 Leave Link  702 at Fri Jan  6 23:26:27 2017, MaxMem=  2147483648 cpu:         0.2
 (Enter /home/ik1r11/g09-64-D01/l703.exe)
 Compute integral first derivatives, UseDBF=F ICtDFT=           0.
 Integral derivatives from FoFJK, PRISM(SPDF).
 Calling FoFJK, ICntrl=      2127 FMM=F ISym2X=0 I1Cent= 0 IOpClX= 0 NMat=1 NMatS=1 NMatT=0.
 FoFJK:  IHMeth= 1 ICntrl=    2127 DoSepK=F KAlg= 0 I1Cent=   0 FoldK=F
 IRaf=         0 NMat=   1 IRICut=       1 DoRegI=T DoRafI=F ISym2E= 0.
 FoFCou: FMM=F IPFlag=           0 FMFlag=      100000 FMFlg1=         800
         NFxFlg=           0 DoJE=F BraDBF=F KetDBF=F FulRan=T
         wScrn=  0.000000 ICntrl=    2127 IOpCl=  0 I1Cent=           0 NGrid=           0
         NMat0=    1 NMatS0=      1 NMatT0=    0 NMatD0=    1 NMtDS0=    0 NMtDT0=    0
 Symmetry not used in FoFCou.
 Leave Link  703 at Fri Jan  6 23:27:24 2017, MaxMem=  2147483648 cpu:       919.5
 (Enter /home/ik1r11/g09-64-D01/l716.exe)
 Dipole        =-2.20321232D-01-7.67662135D+00-2.51084738D-01
 ***** Axes restored to original set *****
 -------------------------------------------------------------------
 Center     Atomic                   Forces (Hartrees/Bohr)
 Number     Number              X              Y              Z
 -------------------------------------------------------------------
      1        6           0.011582368    0.022592841   -0.007301520
      2        6          -0.010704169    0.025007560    0.000344621
      3        6           0.005425396   -0.006395161   -0.010983317
      4        6          -0.023488669    0.007216698    0.033289862
      5        6           0.010852793   -0.018112734   -0.004971445
      6        6          -0.011294764    0.030739043   -0.011933545
      7        6          -0.022167266   -0.004082933    0.008977507
      8        9           0.003631822   -0.012927760    0.000601381
      9        6          -0.033471494   -0.010204399    0.019492277
     10        8           0.041110579    0.009907214   -0.021502331
     11        7           0.009065025    0.012134779   -0.010236788
     12        6           0.035991982    0.103670843    0.004401468
     13        8          -0.059909919   -0.107655094    0.029023973
     14        8           0.026408950   -0.017496912   -0.032102153
     15        1          -0.006410811   -0.005119832    0.003424686
     16        1           0.003200399   -0.008692419   -0.001619104
     17        1           0.005261597    0.008912819   -0.008059300
     18        1           0.003172693   -0.012322767   -0.005904271
     19        1           0.003794386    0.008468084   -0.003044104
     20        1           0.011423367   -0.003184456   -0.001402381
     21        1           0.002935278   -0.005201478   -0.000080559
     22        1           0.001032714   -0.017560796   -0.005654211
     23        1          -0.017148996    0.000940668    0.010404908
     24        1           0.009706737   -0.000633806    0.014834345
 -------------------------------------------------------------------
 Cartesian Forces:  Max     0.107655094 RMS     0.024144248
 Leave Link  716 at Fri Jan  6 23:27:24 2017, MaxMem=  2147483648 cpu:         0.3
 (Enter /home/ik1r11/g09-64-D01/l103.exe)

 GradGradGradGradGradGradGradGradGradGradGradGradGradGradGradGradGradGrad
 Berny optimization.
 FormGI is forming the generalized inverse of G from B-inverse, IUseBI=4.
 Internal  Forces:  Max     0.125239950 RMS     0.014921388
 Search for a local minimum.
 Step number   1 out of a maximum of  130
 All quantities printed in internal units (Hartrees-Bohrs-Radians)
 RMS Force = .14921D-01 SwitMx=.10000D-02 MixMth= 1
 Mixed Optimization -- RFO/linear search
 Second derivative matrix not updated -- first step.
 ITU=  0
     Eigenvalues ---    0.00237   0.00237   0.00237   0.00237   0.00766
     Eigenvalues ---    0.01295   0.01345   0.01939   0.02066   0.02092
     Eigenvalues ---    0.02098   0.02103   0.02298   0.02301   0.02422
     Eigenvalues ---    0.04356   0.04432   0.04803   0.05410   0.05544
     Eigenvalues ---    0.06065   0.06065   0.08669   0.12376   0.16000
     Eigenvalues ---    0.16000   0.16000   0.16000   0.16000   0.16000
     Eigenvalues ---    0.16000   0.16156   0.17438   0.21983   0.22384
     Eigenvalues ---    0.23481   0.24612   0.25000   0.25000   0.25000
     Eigenvalues ---    0.25000   0.25000   0.28519   0.28519   0.28519
     Eigenvalues ---    0.35740   0.37230   0.37230   0.37230   0.37230
     Eigenvalues ---    0.37230   0.37230   0.40989   0.40989   0.41590
     Eigenvalues ---    0.42410   0.45320   0.45399   0.45745   0.47688
     Eigenvalues ---    0.47688   0.47688   0.52028   0.55021   0.55473
     Eigenvalues ---    0.80209
 RFO step:  Lambda=-6.03275444D-02 EMin= 2.36824088D-03
 Linear search not attempted -- first point.
 Maximum step size (   0.300) exceeded in Quadratic search.
    -- Step size scaled by   0.810
 Iteration  1 RMS(Cart)=  0.08911569 RMS(Int)=  0.00365408
 Iteration  2 RMS(Cart)=  0.00432668 RMS(Int)=  0.00015767
 Iteration  3 RMS(Cart)=  0.00002648 RMS(Int)=  0.00015667
 Iteration  4 RMS(Cart)=  0.00000000 RMS(Int)=  0.00015667
 ITry= 1 IFail=0 DXMaxC= 4.18D-01 DCOld= 1.00D+10 DXMaxT= 3.00D-01 DXLimC= 3.00D+00 Rises=F
 Variable       Old X    -DE/DX   Delta X   Delta X   Delta X     New X
                                 (Linear)    (Quad)   (Total)
    R1        2.64236  -0.00757   0.00000  -0.01284  -0.01283   2.62953
    R2        2.64535  -0.01974   0.00000  -0.03188  -0.03188   2.61347
    R3        2.02201   0.00842   0.00000   0.01576   0.01576   2.03776
    R4        2.64535  -0.01117   0.00000  -0.01760  -0.01758   2.62777
    R5        2.02201   0.00928   0.00000   0.01737   0.01737   2.03938
    R6        2.91018  -0.01562   0.00000  -0.03662  -0.03662   2.87356
    R7        2.65125  -0.01219   0.00000  -0.01834  -0.01834   2.63292
    R8        2.91018   0.00163   0.00000   0.00383   0.00383   2.91401
    R9        2.02201   0.01267   0.00000   0.02373   0.02373   2.04573
   R10        2.02201   0.01392   0.00000   0.02606   0.02606   2.04807
   R11        2.56686   0.01102   0.00000   0.01595   0.01593   2.58279
   R12        2.02201   0.00970   0.00000   0.01816   0.01816   2.04017
   R13        2.77790   0.00965   0.00000   0.01871   0.01871   2.79661
   R14        2.91018  -0.01904   0.00000  -0.04463  -0.04463   2.86555
   R15        2.02201   0.01136   0.00000   0.02127   0.02127   2.04327
   R16        2.55113  -0.01320   0.00000  -0.01751  -0.01751   2.53362
   R17        2.65125  -0.01812   0.00000  -0.02858  -0.02860   2.62266
   R18        2.70231  -0.04818   0.00000  -0.08298  -0.08298   2.61933
   R19        1.81414   0.00313   0.00000   0.00413   0.00413   1.81827
   R20        1.88973   0.01831   0.00000   0.02760   0.02760   1.91733
   R21        1.88973   0.01979   0.00000   0.02984   0.02984   1.91957
   R22        1.88973   0.01736   0.00000   0.02617   0.02617   1.91589
   R23        2.70231  -0.12524   0.00000  -0.21572  -0.21572   2.48659
   R24        2.37803  -0.04335   0.00000  -0.04071  -0.04071   2.33732
    A1        2.08680   0.00252   0.00000   0.00340   0.00340   2.09021
    A2        2.09819   0.00163   0.00000   0.00894   0.00893   2.10713
    A3        2.09819  -0.00416   0.00000  -0.01234  -0.01234   2.08585
    A4        2.08680   0.00557   0.00000   0.01377   0.01380   2.10061
    A5        2.09819  -0.00313   0.00000  -0.00816  -0.00817   2.09002
    A6        2.09819  -0.00244   0.00000  -0.00562  -0.00564   2.09255
    A7        2.09439   0.00466   0.00000   0.01153   0.01151   2.10590
    A8        2.09441  -0.00539   0.00000  -0.01279  -0.01278   2.08163
    A9        2.09439   0.00073   0.00000   0.00126   0.00125   2.09563
   A10        1.91063   0.02692   0.00000   0.08192   0.08200   1.99263
   A11        1.91063  -0.00585   0.00000  -0.00955  -0.00919   1.90144
   A12        1.91063  -0.00717   0.00000  -0.01487  -0.01477   1.89586
   A13        1.91063  -0.00967   0.00000  -0.03155  -0.03203   1.87861
   A14        1.91063  -0.00786   0.00000  -0.02314  -0.02360   1.88703
   A15        1.91063   0.00363   0.00000  -0.00281  -0.00362   1.90701
   A16        2.10197  -0.00375   0.00000  -0.00732  -0.00733   2.09464
   A17        2.09061   0.00302   0.00000   0.00787   0.00788   2.09848
   A18        2.09061   0.00073   0.00000  -0.00056  -0.00055   2.09005
   A19        1.91063   0.00477   0.00000   0.02133   0.02139   1.93203
   A20        1.91063   0.00577   0.00000   0.02806   0.02814   1.93878
   A21        1.91063  -0.00391   0.00000  -0.01551  -0.01538   1.89525
   A22        1.91063  -0.00629   0.00000  -0.01820  -0.01875   1.89189
   A23        1.91063  -0.00070   0.00000  -0.01197  -0.01202   1.89861
   A24        1.91063   0.00036   0.00000  -0.00371  -0.00383   1.90680
   A25        2.09061   0.00134   0.00000   0.00261   0.00262   2.09323
   A26        2.10197   0.00381   0.00000   0.01172   0.01169   2.11366
   A27        2.09061  -0.00515   0.00000  -0.01433  -0.01431   2.07630
   A28        2.09441  -0.00276   0.00000  -0.00879  -0.00883   2.08558
   A29        2.09439   0.01105   0.00000   0.02964   0.02964   2.12402
   A30        2.09439  -0.00829   0.00000  -0.02085  -0.02085   2.07353
   A31        1.91063  -0.00830   0.00000  -0.03053  -0.03053   1.88011
   A32        1.91063   0.00241   0.00000   0.00976   0.00969   1.92032
   A33        1.91063   0.00216   0.00000   0.00740   0.00736   1.91799
   A34        1.91063   0.00365   0.00000   0.01305   0.01299   1.92363
   A35        1.91063  -0.00198   0.00000  -0.00656  -0.00661   1.90402
   A36        1.91063  -0.00259   0.00000  -0.00843  -0.00852   1.90212
   A37        1.91063  -0.00365   0.00000  -0.01521  -0.01524   1.89539
   A38        2.09440  -0.02283   0.00000  -0.05957  -0.05959   2.03481
   A39        2.09440  -0.00296   0.00000  -0.00773  -0.00775   2.08665
   A40        2.09440   0.02579   0.00000   0.06730   0.06729   2.16168
    D1        0.00000   0.00018   0.00000   0.00196   0.00194   0.00194
    D2        3.14159   0.00056   0.00000   0.00567   0.00566  -3.13594
    D3       -3.14159  -0.00009   0.00000  -0.00082  -0.00086   3.14073
    D4        0.00000   0.00029   0.00000   0.00290   0.00285   0.00285
    D5        0.00000   0.00035   0.00000   0.00364   0.00366   0.00367
    D6       -3.14159  -0.00067   0.00000  -0.00680  -0.00691   3.13468
    D7        3.14159   0.00062   0.00000   0.00641   0.00643  -3.13516
    D8        0.00000  -0.00039   0.00000  -0.00403  -0.00414  -0.00414
    D9        3.14159  -0.00016   0.00000  -0.00128  -0.00130   3.14029
   D10        0.00000  -0.00082   0.00000  -0.00853  -0.00854  -0.00854
   D11        0.00000  -0.00054   0.00000  -0.00499  -0.00503  -0.00502
   D12       -3.14159  -0.00120   0.00000  -0.01224  -0.01226   3.12934
   D13       -1.57080  -0.00080   0.00000  -0.00596  -0.00589  -1.57668
   D14        2.61799  -0.00186   0.00000  -0.01164  -0.01183   2.60616
   D15        0.52360   0.00167   0.00000   0.00675   0.00681   0.53041
   D16        1.57080  -0.00014   0.00000   0.00129   0.00140   1.57220
[...]
 Alpha virt. eigenvalues --    0.23970   0.24336   0.26370   0.26598   0.27321
 Alpha virt. eigenvalues --    0.27815   0.28485   0.29283   0.31095   0.31442
 Alpha virt. eigenvalues --    0.32053   0.32199   0.33326   0.33797   0.34707
 Alpha virt. eigenvalues --    0.35565   0.36406   0.36806   0.37624   0.38166
 Alpha virt. eigenvalues --    0.38320   0.38873   0.39725   0.40553   0.41574
 Alpha virt. eigenvalues --    0.42540   0.43125   0.43459   0.43916   0.44731
 Alpha virt. eigenvalues --    0.45502   0.45804   0.46152   0.46791   0.47600
 Alpha virt. eigenvalues --    0.48114   0.48431   0.50946   0.51897   0.51949
 Alpha virt. eigenvalues --    0.53715   0.55148   0.55977   0.56492   0.57515
 Alpha virt. eigenvalues --    0.58629   0.59408   0.60905   0.61089   0.62120
 Alpha virt. eigenvalues --    0.62954   0.63398   0.64140   0.65855   0.66241
 Alpha virt. eigenvalues --    0.67026   0.68638   0.70427   0.70892   0.71176
 Alpha virt. eigenvalues --    0.72849   0.73780   0.74632   0.74684   0.75452
 Alpha virt. eigenvalues --    0.77262   0.78559   0.79366   0.80160   0.81872
 Alpha virt. eigenvalues --    0.82436   0.83860   0.84539   0.85889   0.87220
 Alpha virt. eigenvalues --    0.88064   0.89531   0.90854   0.91953   0.93346
 Alpha virt. eigenvalues --    0.94533   0.95432   0.96218   0.96817   0.97759
 Alpha virt. eigenvalues --    0.99575   1.01036   1.03192   1.03546   1.05354
 Alpha virt. eigenvalues --    1.06064   1.06523   1.07340   1.07919   1.09549
 Alpha virt. eigenvalues --    1.10423   1.12196   1.12600   1.13110   1.13613
 Alpha virt. eigenvalues --    1.14622   1.16628   1.18041   1.19634   1.20351
 Alpha virt. eigenvalues --    1.20893   1.21506   1.22490   1.22888   1.25266
 Alpha virt. eigenvalues --    1.26085   1.26772   1.27701   1.28992   1.30717
 Alpha virt. eigenvalues --    1.30818   1.31620   1.32550   1.33490   1.34361
 Alpha virt. eigenvalues --    1.35288   1.37805   1.38833   1.40388   1.40869
 Alpha virt. eigenvalues --    1.41875   1.44214   1.45412   1.46634   1.48610
 Alpha virt. eigenvalues --    1.49466   1.51232   1.52397   1.54433   1.55896
 Alpha virt. eigenvalues --    1.57480   1.59400   1.60589   1.62178   1.62472
 Alpha virt. eigenvalues --    1.63695   1.64430   1.65443   1.66591   1.68911
 Alpha virt. eigenvalues --    1.70677   1.72546   1.76063   1.76409   1.77004
 Alpha virt. eigenvalues --    1.81035   1.82576   1.83395   1.84504   1.88244
 Alpha virt. eigenvalues --    1.88792   1.94646   1.96224   1.99931   2.01010
 Alpha virt. eigenvalues --    2.01956   2.03743   2.06095   2.07963   2.09170
 Alpha virt. eigenvalues --    2.11229   2.13182   2.13626   2.15212   2.16310
 Alpha virt. eigenvalues --    2.17925   2.18655   2.20217   2.22545   2.24860
 Alpha virt. eigenvalues --    2.26542   2.28035   2.30544   2.31459   2.32388
 Alpha virt. eigenvalues --    2.32557   2.34595   2.37075   2.38789   2.41308
 Alpha virt. eigenvalues --    2.41809   2.42261   2.44350   2.45383   2.48307
 Alpha virt. eigenvalues --    2.49152   2.49627   2.51319   2.51501   2.52913
 Alpha virt. eigenvalues --    2.53647   2.54258   2.57180   2.58172   2.60247
 Alpha virt. eigenvalues --    2.61170   2.62119   2.62525   2.63721   2.67047
 Alpha virt. eigenvalues --    2.67389   2.68930   2.71018   2.71851   2.72501
 Alpha virt. eigenvalues --    2.72595   2.73797   2.75248   2.76639   2.79754
 Alpha virt. eigenvalues --    2.79854   2.80600   2.82073   2.83198   2.84264
 Alpha virt. eigenvalues --    2.86149   2.86709   2.88449   2.88612   2.90201
 Alpha virt. eigenvalues --    2.90649   2.90775   2.93156   2.94205   2.94374
 Alpha virt. eigenvalues --    2.96150   2.97242   2.98086   2.98290   3.00184
 Alpha virt. eigenvalues --    3.00631   3.01365   3.02839   3.03551   3.04706
 Alpha virt. eigenvalues --    3.05269   3.06127   3.07030   3.07646   3.09155
 Alpha virt. eigenvalues --    3.09390   3.10101   3.10846   3.12606   3.14187
 Alpha virt. eigenvalues --    3.14470   3.15277   3.17547   3.18649   3.19607
 Alpha virt. eigenvalues --    3.21252   3.22265   3.23401   3.24308   3.24978
 Alpha virt. eigenvalues --    3.26523   3.27230   3.27869   3.28046   3.29004
 Alpha virt. eigenvalues --    3.30767   3.33392   3.34383   3.35017   3.35608
 Alpha virt. eigenvalues --    3.36770   3.38087   3.38539   3.40038   3.40316
 Alpha virt. eigenvalues --    3.41319   3.42574   3.43639   3.44656   3.45422
 Alpha virt. eigenvalues --    3.45927   3.46318   3.47483   3.50520   3.51767
 Alpha virt. eigenvalues --    3.52465   3.52777   3.55650   3.57325   3.59312
 Alpha virt. eigenvalues --    3.59810   3.60738   3.61954   3.63036   3.65785
 Alpha virt. eigenvalues --    3.66293   3.67534   3.68576   3.68779   3.70975
 Alpha virt. eigenvalues --    3.72544   3.72756   3.74203   3.75087   3.76072
 Alpha virt. eigenvalues --    3.78233   3.78464   3.79211   3.80492   3.81369
 Alpha virt. eigenvalues --    3.82295   3.84850   3.85438   3.86413   3.87581
 Alpha virt. eigenvalues --    3.89722   3.89768   3.92702   3.93306   3.95603
 Alpha virt. eigenvalues --    3.96940   3.97910   3.98292   3.99467   4.00634
 Alpha virt. eigenvalues --    4.01959   4.03081   4.04358   4.06355   4.06795
 Alpha virt. eigenvalues --    4.08176   4.09361   4.10958   4.12120   4.13276
 Alpha virt. eigenvalues --    4.14503   4.15484   4.16108   4.17141   4.18299
 Alpha virt. eigenvalues --    4.18557   4.19535   4.21476   4.23762   4.24300
 Alpha virt. eigenvalues --    4.25082   4.26590   4.27114   4.28524   4.29607
 Alpha virt. eigenvalues --    4.31053   4.32193   4.32657   4.33108   4.34881
 Alpha virt. eigenvalues --    4.35833   4.36510   4.37980   4.39238   4.41467
 Alpha virt. eigenvalues --    4.43604   4.44265   4.47247   4.49694   4.52164
 Alpha virt. eigenvalues --    4.54076   4.57546   4.59970   4.63094   4.63793
 Alpha virt. eigenvalues --    4.65099   4.66604   4.68106   4.69633   4.72048
 Alpha virt. eigenvalues --    4.74592   4.76195   4.77479   4.79853   4.81272
 Alpha virt. eigenvalues --    4.82947   4.83826   4.89019   4.89776   4.91941
 Alpha virt. eigenvalues --    4.93540   4.94863   4.98153   4.99958   5.01118
 Alpha virt. eigenvalues --    5.03387   5.05477   5.06755   5.10311   5.11803
 Alpha virt. eigenvalues --    5.13480   5.14982   5.18303   5.20874   5.22430
 Alpha virt. eigenvalues --    5.23743   5.24958   5.25432   5.26439   5.26937
 Alpha virt. eigenvalues --    5.31221   5.31854   5.35759   5.37383   5.40502
 Alpha virt. eigenvalues --    5.42739   5.48261   5.50999   5.51874   5.57613
 Alpha virt. eigenvalues --    5.59670   5.60150   5.62095   5.63471   5.67114
 Alpha virt. eigenvalues --    5.69529   5.74435   5.75681   5.78480   5.85568
 Alpha virt. eigenvalues --    5.88495   5.89374   5.90644   5.93490   5.94836
 Alpha virt. eigenvalues --    5.97197   6.02926   6.04213   6.04578   6.15286
 Alpha virt. eigenvalues --    6.16219   6.22284   6.25093   6.28589   6.38818
 Alpha virt. eigenvalues --    6.44746   6.47277   6.50772   6.53420   6.56625
 Alpha virt. eigenvalues --    6.59240   6.61451   6.73382   6.80830   6.84394
 Alpha virt. eigenvalues --    6.84707   6.86677   6.89386   6.90694   6.91531
 Alpha virt. eigenvalues --    6.92689   6.95706   7.00540   7.01930   7.04516
 Alpha virt. eigenvalues --    7.10982   7.12572   7.21084   7.24999   7.27813
 Alpha virt. eigenvalues --    7.29972   7.42316   7.50242   7.74295   8.26773
 Alpha virt. eigenvalues --    8.42751   8.52256   8.85444   8.89720   9.07910
 Alpha virt. eigenvalues --    9.20984  11.60783  11.69049  11.71179  12.09260
 Alpha virt. eigenvalues --   12.23224  12.71636  12.80673  12.90396  13.50225
 Alpha virt. eigenvalues --   13.58062  14.29119  15.49159
          Condensed to atoms (all electrons):
               1          2          3          4          5          6
     1  C    5.473226   0.206078  -0.007437   0.008909   0.012675  -0.001056
     2  C    0.206078   5.545505   0.211803  -0.081494  -0.065689   0.019702
     3  C   -0.007437   0.211803   5.679342   0.204250   0.129382  -0.003914
     4  C    0.008909  -0.081494   0.204250   5.274630  -0.050262   0.176195
     5  C    0.012675  -0.065689   0.129382  -0.050262   5.769825  -0.011369
     6  C   -0.001056   0.019702  -0.003914   0.176195  -0.011369   6.059263
     7  C   -0.007119  -0.036598   0.007202   0.005813   0.346339  -0.004093
     8  F    0.008961  -0.000669   0.010269  -0.000129  -0.072869   0.000005
     9  C    0.210367   0.053568  -0.054018  -0.003471  -0.112292   0.000583
    10  O   -0.088447   0.011907  -0.000249   0.000000   0.004328   0.000000
    11  N   -0.000104  -0.007142   0.000215  -0.014449   0.000504   0.072994
    12  C    0.000506  -0.007872  -0.008548  -0.003984   0.001034  -0.036449
    13  O    0.000015  -0.000833  -0.016590   0.009870  -0.004151  -0.201348
    14  O    0.000230  -0.001718   0.007725   0.000013  -0.001396  -0.236079
    15  H    0.464297  -0.054451   0.010439  -0.000198  -0.000815   0.000006
    16  H   -0.026145   0.449531  -0.083521   0.001033   0.007356   0.000248
    17  H   -0.000097   0.000896  -0.045863   0.419222  -0.004493  -0.059421
    18  H    0.000049  -0.001853  -0.055466   0.432734   0.007069  -0.034324
    19  H   -0.005302   0.011985  -0.094792  -0.002986   0.408524   0.004646
    20  H    0.000015  -0.000451   0.008089  -0.039713  -0.000188   0.428190
    21  H   -0.001973   0.002571  -0.000068  -0.000005  -0.001327   0.000000
    22  H    0.000027   0.002682  -0.002633  -0.003010   0.000299  -0.005357
    23  H    0.001528  -0.002632   0.008573  -0.004312  -0.001741  -0.038926
    24  H   -0.000004  -0.000225   0.000417   0.004988   0.000015  -0.021750
               7          8          9         10         11         12
     1  C   -0.007119   0.008961   0.210367  -0.088447  -0.000104   0.000506
     2  C   -0.036598  -0.000669   0.053568   0.011907  -0.007142  -0.007872
     3  C    0.007202   0.010269  -0.054018  -0.000249   0.000215  -0.008548
     4  C    0.005813  -0.000129  -0.003471   0.000000  -0.014449  -0.003984
     5  C    0.346339  -0.072869  -0.112292   0.004328   0.000504   0.001034
     6  C   -0.004093   0.000005   0.000583   0.000000   0.072994  -0.036449
     7  C    4.776640   0.348275   0.282455  -0.038905   0.000305   0.001662
     8  F    0.348275   9.006201  -0.074748  -0.000919   0.000000   0.000004
     9  C    0.282455  -0.074748   5.214149   0.382645  -0.000046  -0.000332
    10  O   -0.038905  -0.000919   0.382645   7.721323   0.000000   0.000000
    11  N    0.000305   0.000000  -0.000046   0.000000   5.585317   0.010300
    12  C    0.001662   0.000004  -0.000332   0.000000   0.010300   4.229011
    13  O    0.000956   0.000000  -0.000026   0.000000   0.007492   0.746841
    14  O   -0.000358  -0.000001  -0.000052   0.000000   0.014018   0.739877
    15  H    0.003041   0.000012  -0.059428  -0.004955   0.000008   0.000005
    16  H   -0.002259   0.000004   0.007867  -0.000110  -0.000791  -0.000195
    17  H    0.001040  -0.000007  -0.000082   0.000000   0.007043   0.005960
    18  H   -0.000129   0.000002   0.000066   0.000000  -0.006932   0.000539
    19  H   -0.043716   0.003872   0.017412  -0.000088  -0.000341   0.003077
    20  H   -0.000030   0.000000  -0.000006   0.000000  -0.013783  -0.015128
    21  H    0.001366  -0.000352  -0.039296   0.357581   0.000000   0.000000
    22  H   -0.000073   0.000000   0.000034   0.000000   0.362761   0.000587
    23  H    0.000091   0.000001  -0.000392   0.000001   0.383181   0.003035
    24  H    0.000019   0.000000  -0.000005   0.000000   0.377278   0.002941
              13         14         15         16         17         18
     1  C    0.000015   0.000230   0.464297  -0.026145  -0.000097   0.000049
     2  C   -0.000833  -0.001718  -0.054451   0.449531   0.000896  -0.001853
     3  C   -0.016590   0.007725   0.010439  -0.083521  -0.045863  -0.055466
     4  C    0.009870   0.000013  -0.000198   0.001033   0.419222   0.432734
     5  C   -0.004151  -0.001396  -0.000815   0.007356  -0.004493   0.007069
     6  C   -0.201348  -0.236079   0.000006   0.000248  -0.059421  -0.034324
     7  C    0.000956  -0.000358   0.003041  -0.002259   0.001040  -0.000129
     8  F    0.000000  -0.000001   0.000012   0.000004  -0.000007   0.000002
     9  C   -0.000026  -0.000052  -0.059428   0.007867  -0.000082   0.000066
    10  O    0.000000   0.000000  -0.004955  -0.000110   0.000000   0.000000
    11  N    0.007492   0.014018   0.000008  -0.000791   0.007043  -0.006932
    12  C    0.746841   0.739877   0.000005  -0.000195   0.005960   0.000539
    13  O    8.128305  -0.131475   0.000000  -0.000017   0.016445   0.000058
    14  O   -0.131475   8.148366   0.000001  -0.000056   0.001617  -0.000666
    15  H    0.000000   0.000001   0.485429  -0.005863   0.000014  -0.000038
    16  H   -0.000017  -0.000056  -0.005863   0.458804  -0.000212   0.001333
    17  H    0.016445   0.001617   0.000014  -0.000212   0.485350  -0.004730
    18  H    0.000058  -0.000666  -0.000038   0.001333  -0.004730   0.465106
    19  H    0.017370  -0.005747  -0.000002   0.000016  -0.002696   0.000976
    20  H    0.000403   0.000694  -0.000001  -0.000074  -0.002176  -0.004978
    21  H    0.000000   0.000000   0.003474  -0.000017   0.000000   0.000000
    22  H   -0.000374  -0.000376  -0.000014   0.001153  -0.000497   0.003616
    23  H    0.000851   0.023520   0.000018  -0.000257   0.000111  -0.001033
    24  H    0.000218   0.008583   0.000001  -0.000023  -0.000334  -0.000038
              19         20         21         22         23         24
     1  C   -0.005302   0.000015  -0.001973   0.000027   0.001528  -0.000004
     2  C    0.011985  -0.000451   0.002571   0.002682  -0.002632  -0.000225
     3  C   -0.094792   0.008089  -0.000068  -0.002633   0.008573   0.000417
     4  C   -0.002986  -0.039713  -0.000005  -0.003010  -0.004312   0.004988
     5  C    0.408524  -0.000188  -0.001327   0.000299  -0.001741   0.000015
     6  C    0.004646   0.428190   0.000000  -0.005357  -0.038926  -0.021750
     7  C   -0.043716  -0.000030   0.001366  -0.000073   0.000091   0.000019
     8  F    0.003872   0.000000  -0.000352   0.000000   0.000001   0.000000
     9  C    0.017412  -0.000006  -0.039296   0.000034  -0.000392  -0.000005
    10  O   -0.000088   0.000000   0.357581   0.000000   0.000001   0.000000
    11  N   -0.000341  -0.013783   0.000000   0.362761   0.383181   0.377278
    12  C    0.003077  -0.015128   0.000000   0.000587   0.003035   0.002941
    13  O    0.017370   0.000403   0.000000  -0.000374   0.000851   0.000218
    14  O   -0.005747   0.000694   0.000000  -0.000376   0.023520   0.008583
    15  H   -0.000002  -0.000001   0.003474  -0.000014   0.000018   0.000001
    16  H    0.000016  -0.000074  -0.000017   0.001153  -0.000257  -0.000023
    17  H   -0.002696  -0.002176   0.000000  -0.000497   0.000111  -0.000334
    18  H    0.000976  -0.004978   0.000000   0.003616  -0.001033  -0.000038
    19  H    0.501984  -0.000316   0.000030   0.000077  -0.000476   0.000028
    20  H   -0.000316   0.460738   0.000000  -0.003384   0.004874  -0.004314
    21  H    0.000030   0.000000   0.423769   0.000000   0.000000   0.000000
    22  H    0.000077  -0.003384   0.000000   0.522614  -0.026022  -0.016614
    23  H   -0.000476   0.004874   0.000000  -0.026022   0.505220  -0.025167
    24  H    0.000028  -0.004314   0.000000  -0.016614  -0.025167   0.522564
 Mulliken charges:
               1
     1  C   -0.249201
     2  C   -0.254604
     3  C    0.095394
     4  C   -0.333647
     5  C   -0.360759
     6  C   -0.107747
     7  C    0.358075
     8  F   -0.227912
     9  C    0.175049
    10  O   -0.344113
    11  N    0.222172
    12  C    0.327131
    13  O   -0.574009
    14  O   -0.566720
    15  H    0.159021
    16  H    0.192195
    17  H    0.182911
    18  H    0.198636
    19  H    0.186465
    20  H    0.181537
    21  H    0.254246
    22  H    0.164506
    23  H    0.169952
    24  H    0.151422
 Sum of Mulliken charges =   0.00000
 Mulliken charges with hydrogens summed into heavy atoms:
               1
     1  C   -0.090180
     2  C   -0.062409
     3  C    0.095394
     4  C    0.047900
     5  C   -0.174294
     6  C    0.073790
     7  C    0.358075
     8  F   -0.227912
     9  C    0.175049
    10  O   -0.089867
    11  N    0.708052
    12  C    0.327131
    13  O   -0.574009
    14  O   -0.566720
 Electronic spatial extent (au):  <R**2>=           2899.3203
 Charge=              0.0000 electrons
 Dipole moment (field-independent basis, Debye):
    X=              0.0314    Y=            -17.9065    Z=             -0.8003  Tot=             17.9244
 Quadrupole moment (field-independent basis, Debye-Ang):
   XX=            -73.1022   YY=            -76.9237   ZZ=            -82.0369
   XY=             22.0902   XZ=             -0.7303   YZ=             10.0438
 Traceless Quadrupole moment (field-independent basis, Debye-Ang):
   XX=              4.2521   YY=              0.4305   ZZ=             -4.6826
   XY=             22.0902   XZ=             -0.7303   YZ=             10.0438
 Octapole moment (field-independent basis, Debye-Ang**2):
  XXX=             18.9892  YYY=            -63.1483  ZZZ=             -6.0458  XYY=             10.8140
  XXY=           -134.9122  XXZ=            -34.9566  XZZ=              4.5107  YZZ=            -15.8340
  YYZ=            -13.2774  XYZ=             -4.8924
 Hexadecapole moment (field-independent basis, Debye-Ang**3):
 XXXX=          -2137.3801 YYYY=           -742.7342 ZZZZ=           -369.7712 XXXY=             94.1148
 XXXZ=             -2.2876 YYYX=            135.1056 YYYZ=             27.9708 ZZZX=            -10.5846
 ZZZY=             39.0468 XXYY=           -519.4277 XXZZ=           -441.8691 YYZZ=           -190.7293
 XXYZ=             75.5435 YYXZ=             12.6511 ZZXY=             54.9522
 N-N= 9.119485466864D+02 E-N=-3.532661952407D+03  KE= 7.241444105821D+02
 Calculating spin-rotation constants.
 Leave Link  601 at Sat Jan  7 00:38:51 2017, MaxMem=  2147483648 cpu:        36.1
 (Enter /home/ik1r11/g09-64-D01/l9999.exe)
 1\1\GINC-GREEN0706\SP\RM06\CC-pVTZ\C9H10F1N1O3\IK1R11\07-Jan-2017\0\\#
 p nmr=giao m06/cc-pVTZ scrf=(smd,solvent=water) integral=(grid=ultrafi
 ne) scf=tight geom=check\\3-fluorotyrosine NMR\\0,1\C,0,-1.9876960133,
 -1.5757237492,0.0967468367\C,0,-0.7081407274,-1.7036781338,-0.41876240
 21\C,0,0.031250356,-0.5922385845,-0.7985880566\C,0,1.4318545029,-0.739
 7267744,-1.315546663\C,0,-0.5477186621,0.6661884913,-0.6536974021\C,0,
 2.5023392525,-0.5117654609,-0.2565232691\C,0,-1.8160084599,0.781638053
 7,-0.1423498529\F,0,-2.3681514647,1.9929771262,-0.0093006561\C,0,-2.56
 07743779,-0.3253331118,0.2458620286\O,0,-3.8044426684,-0.1131230616,0.
 740040384\N,0,2.3649967722,-1.5253149822,0.8314596902\C,0,2.4379781283
 ,0.8917089197,0.3535121977\O,0,2.6994184594,1.8214172137,-0.4339679562
 \O,0,2.123961114,0.9760863741,1.5577306058\H,0,-2.5580278642,-2.449495
 6595,0.3890837241\H,0,-0.277072634,-2.692084449,-0.5322773858\H,0,1.62
 62915467,-0.0224271739,-2.1137185305\H,0,1.567090649,-1.7390377679,-1.
 7361972487\H,0,-0.0158896935,1.5661024166,-0.9404073648\H,0,3.48676905
 09,-0.6601853229,-0.6973792788\H,0,-4.2027446814,-0.9593526878,0.97489
 18913\H,0,2.3367441738,-2.4742475884,0.4578561109\H,0,1.5097991107,-1.
 350128091,1.3624627429\H,0,3.1391062003,-1.4496585064,1.4897727243\\Ve
 rsion=ES64L-G09RevD.01\State=1-A\HF=-729.1035375\RMSD=4.970e-09\Dipole
 =0.0743812,-7.0512974,0.0644464\Quadrupole=3.5283862,0.4445606,-3.9729
 468,-16.4652728,-1.1433037,-7.0899222\PG=C01 [X(C9H10F1N1O3)]\\@


 HAPPINESS IS NOT HAVING WHAT YOU WANT --
 HAPPINESS IS WANTING WHAT YOU HAVE!

              -- FROM MRS. SEVERN'S DESK
 Job cpu time:       0 days  2 hours 17 minutes 59.4 seconds.
 File lengths (MBytes):  RWF=    616 Int=      0 D2E=      0 Chk=     32 Scr=      8
 Normal termination of Gaussian 09 at Sat Jan  7 00:38:52 2017.
