 Entering Link 1 = C:\G09W\l1.exe PID=     33292.
  
 Copyright (c) 1988,1990,1992,1993,1995,1998,2003,2009,2011,
            Gaussian, Inc.  All Rights Reserved.
  
 This is part of the Gaussian(R) 09 program.  It is based on
 the Gaussian(R) 03 system (copyright 2003, Gaussian, Inc.),
 the Gaussian(R) 98 system (copyright 1998, Gaussian, Inc.),
 the Gaussian(R) 94 system (copyright 1995, Gaussian, Inc.),
 the Gaussian 92(TM) system (copyright 1992, Gaussian, Inc.),
 the Gaussian 90(TM) system (copyright 1990, Gaussian, Inc.),
 the Gaussian 88(TM) system (copyright 1988, Gaussian, Inc.),
 the Gaussian 86(TM) system (copyright 1986, Carnegie Mellon
 University), and the Gaussian 82(TM) system (copyright 1983,
 Carnegie Mellon University). Gaussian is a federally registered
 trademark of Gaussian, Inc.
  
 This software contains proprietary and confidential information,
 including trade secrets, belonging to Gaussian, Inc.
  
 This software is provided under written license and may be
 used, copied, transmitted, or stored only in accord with that
 written license.
  
 The following legend is applicable only to US Government
 contracts under FAR:
  
                    RESTRICTED RIGHTS LEGEND
  
 Use, reproduction and disclosure by the US Government is
 subject to restrictions as set forth in subparagraphs (a)
 and (c) of the Commercial Computer Software - Restricted
 Rights clause in FAR 52.227-19.
  
 Gaussian, Inc.
 340 Quinnipiac St., Bldg. 40, Wallingford CT 06492
  
  
 ---------------------------------------------------------------
 Warning -- This program may not be used in any manner that
 competes with the business of Gaussian, Inc. or will provide
 assistance to any competitor of Gaussian, Inc.  The licensee
 of this program is prohibited from giving any competitor of
 Gaussian, Inc. access to this program.  By using this program,
 the user acknowledges that Gaussian, Inc. is engaged in the
 business of creating and licensing software in the field of
 computational chemistry and represents and warrants to the
 licensee that it is not a competitor of Gaussian, Inc. and that
 it will not use this program in any manner prohibited above.
 ---------------------------------------------------------------
  

 Cite this work as:
 Gaussian 09, Revision C.01,
 M. J. Frisch, G. W. Trucks, H. B. Schlegel, G. E. Scuseria, 
 M. A. Robb, J. R. Cheeseman, G. Scalmani, V. Barone, B. Mennucci, 
 G. A. Petersson, H. Nakatsuji, M. Caricato, X. Li, H. P. Hratchian, 
 A. F. Izmaylov, J. Bloino, G. Zheng, J. L. Sonnenberg, M. Hada, 
 M. Ehara, K. Toyota, R. Fukuda, J. Hasegawa, M. Ishida, T. Nakajima, 
 Y. Honda, O. Kitao, H. Nakai, T. Vreven, J. A. Montgomery, Jr., 
 J. E. Peralta, F. Ogliaro, M. Bearpark, J. J. Heyd, E. Brothers, 
 K. N. Kudin, V. N. Staroverov, T. Keith, R. Kobayashi, J. Normand, 
 K. Raghavachari, A. Rendell, J. C. Burant, S. S. Iyengar, J. Tomasi, 
 M. Cossi, N. Rega, J. M. Millam, M. Klene, J. E. Knox, J. B. Cross, 
 V. Bakken, C. Adamo, J. Jaramillo, R. Gomperts, R. E. Stratmann, 
 O. Yazyev, A. J. Austin, R. Cammi, C. Pomelli, J. W. Ochterski, 
 R. L. Martin, K. Morokuma, V. G. Zakrzewski, G. A. Voth, 
 P. Salvador, J. J. Dannenberg, S. Dapprich, A. D. Daniels, 
 O. Farkas, J. B. Foresman, J. V. Ortiz, J. Cioslowski, 
 and D. J. Fox, Gaussian, Inc., Wallingford CT, 2010.
 
 ******************************************
 Gaussian 09:  EM64W-G09RevC.01 23-Sep-2011
                30-Mar-2018 
 ******************************************
 %Mem=30GB
 %NProcShared=30
 Will use up to   30 processors via shared memory.
 %Chk=4_fluoro_phe.chk
 ----------------------------------------------------------------------
 #p opt=tight m06/cc-pVTZ scrf=(smd,solvent=water) integral=(grid=ultra
 fine) scf=tight
 ----------------------------------------------------------------------
 1/7=10,14=-1,18=20,19=15,26=3,38=1/1,3;
 2/9=110,12=2,17=6,18=5,40=1/2;
 3/5=16,6=1,11=2,16=1,25=1,30=1,70=32201,71=1,72=1,74=-54,75=-5/1,2,3;
 4//1;
 5/5=2,32=2,38=5,53=1/2;
 6/7=2,8=2,9=2,10=2,28=1/1;
 7//1,2,3,16;
 1/7=10,14=-1,18=20,19=15/3(2);
 2/9=110/2;
 99//99;
 2/9=110/2;
 3/5=16,6=1,11=2,16=1,25=1,30=1,70=32205,71=1,72=1,74=-54,75=-5/1,2,3;
 4/5=5,16=3/1;
 5/5=2,32=2,38=5,53=1/2;
 7//1,2,3,16;
 1/7=10,14=-1,18=20,19=15/3(-5);
 2/9=110/2;
 6/7=2,8=2,9=2,10=2,19=2,28=1/1;
 99/9=1/99;
 Leave Link    1 at Fri Mar 30 14:23:50 2018, MaxMem= 4026531840 cpu:       0.0
 (Enter C:\G09W\l101.exe)
 ------------------------------
 4-fluorophenylalanine geometry
 ------------------------------
 Charge =  0 Multiplicity = 1
 Symbolic Z-Matrix:
 C                    -1.91856  -1.58382   0.16205 
 C                    -0.62577  -1.71523  -0.35428 
 C                     0.05494  -0.57983  -0.80935 
 C                     1.47913  -0.71303  -1.37992 
 C                    -0.56028   0.67946  -0.74565 
 C                     2.50481  -0.55545  -0.24205 
 C                    -1.81614   0.80711  -0.24407 
 C                    -2.51504  -0.3186    0.21708 
 N                     2.28151  -1.6007    0.76715 
 C                     2.34023   0.83036   0.40914 
 O                     3.08035   1.94742  -0.09015 
 O                     1.55443   0.97975   1.38062 
 H                    -2.44843  -2.4447    0.5128 
 H                    -0.15986  -2.67732  -0.40123 
 H                     1.64166   0.0478   -2.11451 
 H                     1.59348  -1.6759   -1.83237 
 H                     3.49434  -0.648    -0.63848 
 H                     2.38838  -2.50058   0.3443 
 H                     1.35672  -1.51421   1.13765 
 H                     2.94754  -1.49838   1.50603 
 H                    -0.03677   1.545    -1.09446 
 F                    -3.76281  -0.18164   0.71389 
 H                    -2.2754    1.77255  -0.20037 
 
 NAtoms=     23 NQM=        0 NQMF=       0 NMMI=     23 NMMIF=      0
                NMic=       0 NMicF=      0.
                    Isotopes and Nuclear Properties:
 (Nuclear quadrupole moments (NQMom) in fm**2, nuclear magnetic moments (NMagM)
  in nuclear magnetons)

  Atom         1           2           3           4           5           6           7           8           9          10
 IAtWgt=          12          12          12          12          12          12          12          12          14          12
 AtmWgt=  12.0000000  12.0000000  12.0000000  12.0000000  12.0000000  12.0000000  12.0000000  12.0000000  14.0030740  12.0000000
 NucSpn=           0           0           0           0           0           0           0           0           2           0
 AtZEff=   0.0000000   0.0000000   0.0000000   0.0000000   0.0000000   0.0000000   0.0000000   0.0000000   0.0000000   0.0000000
 NQMom=    0.0000000   0.0000000   0.0000000   0.0000000   0.0000000   0.0000000   0.0000000   0.0000000   2.0440000   0.0000000
 NMagM=    0.0000000   0.0000000   0.0000000   0.0000000   0.0000000   0.0000000   0.0000000   0.0000000   0.4037610   0.0000000

  Atom        11          12          13          14          15          16          17          18          19          20
 IAtWgt=          16          16           1           1           1           1           1           1           1           1
 AtmWgt=  15.9949146  15.9949146   1.0078250   1.0078250   1.0078250   1.0078250   1.0078250   1.0078250   1.0078250   1.0078250
 NucSpn=           0           0           1           1           1           1           1           1           1           1
 AtZEff=   0.0000000   0.0000000   0.0000000   0.0000000   0.0000000   0.0000000   0.0000000   0.0000000   0.0000000   0.0000000
 NQMom=    0.0000000   0.0000000   0.0000000   0.0000000   0.0000000   0.0000000   0.0000000   0.0000000   0.0000000   0.0000000
 NMagM=    0.0000000   0.0000000   2.7928460   2.7928460   2.7928460   2.7928460   2.7928460   2.7928460   2.7928460   2.7928460

  Atom        21          22          23
 IAtWgt=           1          19           1
 AtmWgt=   1.0078250  18.9984033   1.0078250
 NucSpn=           1           1           1
 AtZEff=   0.0000000   0.0000000   0.0000000
 NQMom=    0.0000000   0.0000000   0.0000000
 NMagM=    2.7928460   2.6288670   2.7928460
 Leave Link  101 at Fri Mar 30 14:23:50 2018, MaxMem= 4026531840 cpu:       0.0
 (Enter C:\G09W\l103.exe)

 GradGradGradGradGradGradGradGradGradGradGradGradGradGradGradGradGradGrad
 Berny optimization.
 Initialization pass.
                           ----------------------------
                           !    Initial Parameters    !
                           ! (Angstroms and Degrees)  !
 --------------------------                            --------------------------
 ! Name  Definition              Value          Derivative Info.                !
 --------------------------------------------------------------------------------
 ! R1    R(1,2)                  1.3983         estimate D2E/DX2                !
 ! R2    R(1,8)                  1.3999         estimate D2E/DX2                !
 ! R3    R(1,13)                 1.07           estimate D2E/DX2                !
 ! R4    R(2,3)                  1.3999         estimate D2E/DX2                !
 ! R5    R(2,14)                 1.07           estimate D2E/DX2                !
 ! R6    R(3,4)                  1.54           estimate D2E/DX2                !
 ! R7    R(3,5)                  1.403          estimate D2E/DX2                !
 ! R8    R(4,6)                  1.54           estimate D2E/DX2                !
 ! R9    R(4,15)                 1.07           estimate D2E/DX2                !
 ! R10   R(4,16)                 1.07           estimate D2E/DX2                !
 ! R11   R(5,7)                  1.3583         estimate D2E/DX2                !
 ! R12   R(5,21)                 1.07           estimate D2E/DX2                !
 ! R13   R(6,9)                  1.47           estimate D2E/DX2                !
 ! R14   R(6,10)                 1.54           estimate D2E/DX2                !
 ! R15   R(6,17)                 1.07           estimate D2E/DX2                !
 ! R16   R(7,8)                  1.403          estimate D2E/DX2                !
 ! R17   R(7,23)                 1.07           estimate D2E/DX2                !
 ! R18   R(8,22)                 1.35           estimate D2E/DX2                !
 ! R19   R(9,18)                 1.0            estimate D2E/DX2                !
 ! R20   R(9,19)                 1.0            estimate D2E/DX2                !
 ! R21   R(9,20)                 1.0            estimate D2E/DX2                !
 ! R22   R(10,11)                1.43           estimate D2E/DX2                !
 ! R23   R(10,12)                1.2584         estimate D2E/DX2                !
 ! A1    A(2,1,8)              119.5649         estimate D2E/DX2                !
 ! A2    A(2,1,13)             120.2175         estimate D2E/DX2                !
 ! A3    A(8,1,13)             120.2175         estimate D2E/DX2                !
 ! A4    A(1,2,3)              119.5649         estimate D2E/DX2                !
 ! A5    A(1,2,14)             120.2175         estimate D2E/DX2                !
 ! A6    A(3,2,14)             120.2175         estimate D2E/DX2                !
 ! A7    A(2,3,4)              119.9995         estimate D2E/DX2                !
 ! A8    A(2,3,5)              120.0009         estimate D2E/DX2                !
 ! A9    A(4,3,5)              119.9995         estimate D2E/DX2                !
 ! A10   A(3,4,6)              109.4712         estimate D2E/DX2                !
 ! A11   A(3,4,15)             109.4712         estimate D2E/DX2                !
 ! A12   A(3,4,16)             109.4712         estimate D2E/DX2                !
 ! A13   A(6,4,15)             109.4712         estimate D2E/DX2                !
 ! A14   A(6,4,16)             109.4712         estimate D2E/DX2                !
 ! A15   A(15,4,16)            109.4712         estimate D2E/DX2                !
 ! A16   A(3,5,7)              120.4341         estimate D2E/DX2                !
 ! A17   A(3,5,21)             119.7829         estimate D2E/DX2                !
 ! A18   A(7,5,21)             119.7829         estimate D2E/DX2                !
 ! A19   A(4,6,9)              109.4712         estimate D2E/DX2                !
 ! A20   A(4,6,10)             109.4712         estimate D2E/DX2                !
 ! A21   A(4,6,17)             109.4712         estimate D2E/DX2                !
 ! A22   A(9,6,10)             109.4712         estimate D2E/DX2                !
 ! A23   A(9,6,17)             109.4712         estimate D2E/DX2                !
 ! A24   A(10,6,17)            109.4712         estimate D2E/DX2                !
 ! A25   A(5,7,8)              120.4341         estimate D2E/DX2                !
 ! A26   A(5,7,23)             119.7829         estimate D2E/DX2                !
 ! A27   A(8,7,23)             119.7829         estimate D2E/DX2                !
 ! A28   A(1,8,7)              120.0009         estimate D2E/DX2                !
 ! A29   A(1,8,22)             119.9995         estimate D2E/DX2                !
 ! A30   A(7,8,22)             119.9995         estimate D2E/DX2                !
 ! A31   A(6,9,18)             109.4712         estimate D2E/DX2                !
 ! A32   A(6,9,19)             109.4712         estimate D2E/DX2                !
 ! A33   A(6,9,20)             109.4712         estimate D2E/DX2                !
 ! A34   A(18,9,19)            109.4712         estimate D2E/DX2                !
 ! A35   A(18,9,20)            109.4712         estimate D2E/DX2                !
 ! A36   A(19,9,20)            109.4712         estimate D2E/DX2                !
 ! A37   A(6,10,11)            120.0            estimate D2E/DX2                !
 ! A38   A(6,10,12)            120.0            estimate D2E/DX2                !
 ! A39   A(11,10,12)           120.0            estimate D2E/DX2                !
 ! D1    D(8,1,2,3)              0.0            estimate D2E/DX2                !
 ! D2    D(8,1,2,14)           179.9997         estimate D2E/DX2                !
 ! D3    D(13,1,2,3)          -179.9998         estimate D2E/DX2                !
 ! D4    D(13,1,2,14)           -0.0001         estimate D2E/DX2                !
 ! D5    D(2,1,8,7)              0.0001         estimate D2E/DX2                !
 ! D6    D(2,1,8,22)          -179.9999         estimate D2E/DX2                !
 ! D7    D(13,1,8,7)           179.9999         estimate D2E/DX2                !
 ! D8    D(13,1,8,22)           -0.0001         estimate D2E/DX2                !
 ! D9    D(1,2,3,4)            180.0            estimate D2E/DX2                !
 ! D10   D(1,2,3,5)              0.0            estimate D2E/DX2                !
 ! D11   D(14,2,3,4)             0.0003         estimate D2E/DX2                !
 ! D12   D(14,2,3,5)          -179.9997         estimate D2E/DX2                !
 ! D13   D(2,3,4,6)            -90.0            estimate D2E/DX2                !
 ! D14   D(2,3,4,15)           150.0            estimate D2E/DX2                !
 ! D15   D(2,3,4,16)            30.0            estimate D2E/DX2                !
 ! D16   D(5,3,4,6)             90.0            estimate D2E/DX2                !
 ! D17   D(5,3,4,15)           -30.0            estimate D2E/DX2                !
 ! D18   D(5,3,4,16)          -150.0            estimate D2E/DX2                !
 ! D19   D(2,3,5,7)             -0.0001         estimate D2E/DX2                !
 ! D20   D(2,3,5,21)           179.9999         estimate D2E/DX2                !
 ! D21   D(4,3,5,7)            179.9999         estimate D2E/DX2                !
 ! D22   D(4,3,5,21)            -0.0001         estimate D2E/DX2                !
 ! D23   D(3,4,6,9)             60.0            estimate D2E/DX2                !
 ! D24   D(3,4,6,10)           -60.0            estimate D2E/DX2                !
 ! D25   D(3,4,6,17)          -180.0            estimate D2E/DX2                !
 ! D26   D(15,4,6,9)          -180.0            estimate D2E/DX2                !
 ! D27   D(15,4,6,10)           60.0            estimate D2E/DX2                !
 ! D28   D(15,4,6,17)          -60.0            estimate D2E/DX2                !
 ! D29   D(16,4,6,9)           -60.0            estimate D2E/DX2                !
 ! D30   D(16,4,6,10)         -180.0            estimate D2E/DX2                !
 ! D31   D(16,4,6,17)           60.0            estimate D2E/DX2                !
 ! D32   D(3,5,7,8)              0.0003         estimate D2E/DX2                !
 ! D33   D(3,5,7,23)          -179.9998         estimate D2E/DX2                !
 ! D34   D(21,5,7,8)          -179.9998         estimate D2E/DX2                !
 ! D35   D(21,5,7,23)            0.0002         estimate D2E/DX2                !
 ! D36   D(4,6,9,18)            60.0            estimate D2E/DX2                !
 ! D37   D(4,6,9,19)           -60.0            estimate D2E/DX2                !
 ! D38   D(4,6,9,20)           180.0            estimate D2E/DX2                !
 ! D39   D(10,6,9,18)         -180.0            estimate D2E/DX2                !
 ! D40   D(10,6,9,19)           60.0            estimate D2E/DX2                !
 ! D41   D(10,6,9,20)          -60.0            estimate D2E/DX2                !
 ! D42   D(17,6,9,18)          -60.0            estimate D2E/DX2                !
 ! D43   D(17,6,9,19)          180.0            estimate D2E/DX2                !
 ! D44   D(17,6,9,20)           60.0            estimate D2E/DX2                !
 ! D45   D(4,6,10,11)          -90.0            estimate D2E/DX2                !
 ! D46   D(4,6,10,12)           90.0            estimate D2E/DX2                !
 ! D47   D(9,6,10,11)          150.0            estimate D2E/DX2                !
 ! D48   D(9,6,10,12)          -30.0            estimate D2E/DX2                !
 ! D49   D(17,6,10,11)          30.0            estimate D2E/DX2                !
 ! D50   D(17,6,10,12)        -150.0            estimate D2E/DX2                !
 ! D51   D(5,7,8,1)             -0.0003         estimate D2E/DX2                !
 ! D52   D(5,7,8,22)           179.9997         estimate D2E/DX2                !
 ! D53   D(23,7,8,1)           179.9998         estimate D2E/DX2                !
 ! D54   D(23,7,8,22)           -0.0002         estimate D2E/DX2                !
 --------------------------------------------------------------------------------
 Trust Radius=3.00D-01 FncErr=1.00D-07 GrdErr=1.00D-06
 Number of steps in this run=    126 maximum allowed number of steps=    138.
 GradGradGradGradGradGradGradGradGradGradGradGradGradGradGradGradGradGrad

 Leave Link  103 at Fri Mar 30 14:23:51 2018, MaxMem= 4026531840 cpu:       0.0
 (Enter C:\G09W\l202.exe)
                          Input orientation:                          
 ---------------------------------------------------------------------
 Center     Atomic      Atomic             Coordinates (Angstroms)
 Number     Number       Type             X           Y           Z
 ---------------------------------------------------------------------
      1          6           0       -1.918562   -1.583823    0.162055
      2          6           0       -0.625771   -1.715227   -0.354277
      3          6           0        0.054942   -0.579825   -0.809352
      4          6           0        1.479130   -0.713029   -1.379920
      5          6           0       -0.560280    0.679462   -0.745647
      6          6           0        2.504807   -0.555449   -0.242048
      7          6           0       -1.816135    0.807112   -0.244070
      8          6           0       -2.515042   -0.318601    0.217082
      9          7           0        2.281512   -1.600703    0.767151
     10          6           0        2.340227    0.830362    0.409136
     11          8           0        3.080353    1.947424   -0.090150
     12          8           0        1.554431    0.979753    1.380618
     13          1           0       -2.448432   -2.444701    0.512804
     14          1           0       -0.159862   -2.677321   -0.401234
     15          1           0        1.641664    0.047802   -2.114508
     16          1           0        1.593481   -1.675897   -1.832366
     17          1           0        3.494340   -0.648000   -0.638482
     18          1           0        2.388382   -2.500580    0.344304
     19          1           0        1.356715   -1.514207    1.137650
     20          1           0        2.947537   -1.498379    1.506029
     21          1           0       -0.036766    1.545003   -1.094464
     22          9           0       -3.762808   -0.181641    0.713893
     23          1           0       -2.275405    1.772546   -0.200374
 ---------------------------------------------------------------------
                    Distance matrix (angstroms):
                    1          2          3          4          5
     1  C    0.000000
     2  C    1.398275   0.000000
     3  C    2.417925   1.399858   0.000000
     4  C    3.831484   2.546950   1.540000   0.000000
     5  C    2.791292   2.427344   1.402983   2.549613   0.000000
     6  C    4.559281   3.340390   2.514809   1.540000   3.342660
     7  C    2.427344   2.791292   2.396679   3.802599   1.358325
     8  C    1.399858   2.417925   2.779681   4.319652   2.396679
     9  N    4.243471   3.118175   2.912931   2.457987   3.945059
    10  C    4.901695   3.982458   2.948875   2.514809   3.125578
    11  O    6.125557   5.217292   4.007162   3.362355   3.910449
    12  O    4.485364   3.876346   3.078428   3.239097   3.013831
    13  H    1.070000   2.146172   3.390095   4.691144   3.861245
    14  H    2.146172   1.070000   2.147601   2.739081   3.398080
    15  H    4.529917   3.368672   2.148263   1.070000   2.668582
    16  H    4.039881   2.666716   2.148263   1.070000   3.371552
    17  H    5.551227   4.265567   3.444314   2.148263   4.267737
    18  H    4.407202   3.192165   3.234991   2.644813   4.471608
    19  H    3.418197   2.489279   2.521607   2.644813   3.468986
    20  H    5.049008   4.034389   3.817307   3.331921   4.702958
    21  H    3.861287   3.394687   2.145831   2.734617   1.070000
    22  F    2.381572   3.651558   4.129655   5.669598   3.623250
    23  H    3.394687   3.861287   3.366752   4.654668   2.105661
                    6          7          8          9         10
     6  C    0.000000
     7  C    4.530687   0.000000
     8  C    5.046364   1.402983   0.000000
     9  N    1.470000   4.859100   4.995327   0.000000
    10  C    1.540000   4.207442   4.993059   2.457987   0.000000
    11  O    2.572683   5.029871   6.044642   3.736619   1.430000
    12  O    2.427572   3.745682   4.427205   2.750226   1.258400
    13  H    5.354779   3.398080   2.147601   4.811382   5.802417
    14  H    3.410007   3.861245   3.390095   2.912823   4.383034
    15  H    2.148263   4.003932   4.780039   3.380966   2.732978
    16  H    2.148263   4.507051   4.787740   2.690081   3.444314
    17  H    1.070000   5.520332   6.078911   2.086720   2.148263
    18  H    2.034920   5.381913   5.368500   1.000000   3.331921
    19  H    2.034920   4.167092   4.155409   1.000000   2.644813
    20  H    2.034920   5.574110   5.735244   1.000000   2.644813
    21  H    3.405599   2.105661   3.366752   4.328451   2.902002
    22  F    6.351107   2.384295   1.350000   6.208895   6.193873
    23  H    5.317116   1.070000   2.145831   5.751557   4.750081
                   11         12         13         14         15
    11  O    0.000000
    12  O    2.329803   0.000000
    13  H    7.086733   5.338811   0.000000
    14  H    5.655443   4.414520   2.475304   0.000000
    15  H    3.126725   3.618293   5.462987   3.688781   0.000000
    16  H    4.286557   4.168606   4.735815   2.474915   1.747303
    17  H    2.684824   3.238764   6.314280   4.186601   2.468846
    18  H    4.522424   3.725875   4.840071   2.660943   3.619061
    19  H    4.057254   2.513556   3.966787   2.453774   3.619061
    20  H    3.799866   2.845630   5.567630   3.831904   4.147803
    21  H    3.299548   2.996238   4.931245   4.280623   2.469661
    22  F    7.211675   5.483283   2.624778   4.522515   6.104164
    23  H    5.359745   4.218494   4.280623   4.931245   4.688505
                   16         17         18         19         20
    16  H    0.000000
    17  H    2.468846   0.000000
    18  H    2.459648   2.370879   0.000000
    19  H    2.983823   2.911082   1.632993   0.000000
    20  H    3.606919   2.370879   1.632993   1.632993   0.000000
    21  H    3.684617   4.181613   4.931343   4.035206   4.993075
    22  F    6.116050   7.396797   6.584164   5.307054   6.884040
    23  H    5.433547   6.272235   6.348795   5.077928   6.394519
                   21         22         23
    21  H    0.000000
    22  F    4.487187   0.000000
    23  H    2.421296   2.620516   0.000000
 Stoichiometry    C9H10FNO2
 Framework group  C1[X(C9H10FNO2)]
 Deg. of freedom    63
 Full point group                 C1      NOp   1
 Largest Abelian subgroup         C1      NOp   1
 Largest concise Abelian subgroup C1      NOp   1
                         Standard orientation:                         
 ---------------------------------------------------------------------
 Center     Atomic      Atomic             Coordinates (Angstroms)
 Number     Number       Type             X           Y           Z
 ---------------------------------------------------------------------
      1          6           0       -2.309213    1.088765   -0.199094
      2          6           0       -1.035288    1.432058    0.263979
      3          6           0       -0.201775    0.439334    0.792524
      4          6           0        1.203191    0.806260    1.305394
      5          6           0       -0.646347   -0.889881    0.855016
      6          6           0        2.218288    0.683515    0.153825
      7          6           0       -1.883877   -1.223365    0.405176
      8          6           0       -2.734258   -0.243110   -0.128035
      9          7           0        1.839190    1.597755   -0.933074
     10          6           0        2.225569   -0.763931   -0.371958
     11          8           0        3.116401   -1.726923    0.197222
     12          8           0        1.447587   -1.099268   -1.302476
     13          1           0       -2.954926    1.839174   -0.605100
     14          1           0       -0.699752    2.446889    0.214656
     15          1           0        1.479133    0.140793    2.096539
     16          1           0        1.198132    1.811953    1.670711
     17          1           0        3.194466    0.938457    0.510170
     18          1           0        1.834462    2.537655   -0.591657
     19          1           0        0.926874    1.359491   -1.266107
     20          1           0        2.498344    1.518050   -1.680846
     21          1           0       -0.006356   -1.645890    1.259690
     22          9           0       -3.962447   -0.584317   -0.572589
     23          1           0       -2.212328   -2.240345    0.457826
 ---------------------------------------------------------------------
 Rotational constants (GHZ):      1.5160617      0.4925445      0.4378584
 Leave Link  202 at Fri Mar 30 14:23:51 2018, MaxMem= 4026531840 cpu:       0.0
 (Enter C:\G09W\l301.exe)
 Standard basis: CC-pVTZ (5D, 7F)
 Ernie: Thresh=  0.10000D-02 Tol=  0.10000D-05 Strict=F.
 Ernie:  39 primitive shells out of 418 were deleted.
 There are   530 symmetry adapted basis functions of A   symmetry.
 Integral buffers will be    131072 words long.
 Raffenetti 2 integral format.
 Two-electron integral symmetry is turned on.
   530 basis functions,   846 primitive gaussians,   605 cartesian basis functions
    48 alpha electrons       48 beta electrons
       nuclear repulsion energy       793.0029070407 Hartrees.
 IExCor= 4235 DFT=T Ex+Corr=M06 ExCW=0 ScaHFX=  0.270000
 ScaDFX=  1.000000  1.000000  1.000000  1.000000 ScalE2=  1.000000  1.000000
 IRadAn=      5 IRanWt=     -1 IRanGd=            0 ICorTp=0
 NAtoms=   23 NActive=   23 NUniq=   23 SFac= 1.00D+00 NAtFMM=   60 NAOKFM=F Big=F
 ------------------------------------------------------------------------------
 Polarizable Continuum Model (PCM)
 =================================
 Model                : PCM.
 Atomic radii         : SMD-Coulomb.
 Polarization charges : Total charges.
 Charge compensation  : None.
 Solution method      : Matrix inversion.
 Cavity type          : VdW (van der Waals Surface) (Alpha=1.000).
 Cavity algorithm     : GePol (No added spheres)
                        Default sphere list used, NSphG=   23.
                        Lebedev-Laikov grids with approx.  5.0 points / Ang**2.
                        Smoothing algorithm: Karplus/York (Gamma=1.0000).
                        Polarization charges: spherical gaussians, with
                                              point-specific exponents (IZeta= 3).
                        Self-potential: point-specific (ISelfS= 7).
                        Self-field    : sphere-specific E.n sum rule (ISelfD= 2).
 1st derivatives      : Analytical E(r).r(x)/FMM algorithm (CHGder, D1EAlg=3).
                        Cavity 1st derivative terms included.
 Solvent              : Water, Eps=  78.355300 Eps(inf)=   1.777849
 ------------------------------------------------------------------------------
 GePol: Number of generator spheres                  =      23
 GePol: Total number of spheres                      =      23
 GePol: Number of exposed spheres                    =      23 (100.00%)
 GePol: Number of points                             =    1699
 GePol: Average weight of points                     =       0.12
 GePol: Minimum weight of points                     =   0.14D-07
 GePol: Maximum weight of points                     =    0.21991
 GePol: Number of points with low weight             =      82
 GePol: Fraction of low-weight points (<1% of avg)   =       4.83%
 GePol: Cavity surface area                          =    201.577 Ang**2
 GePol: Cavity volume                                =    178.925 Ang**3
 ------------------------------------------------------------------------------
 Atomic radii for non-electrostatic terms: SMD-CDS.
 ------------------------------------------------------------------------------
 PCM non-electrostatic energy =         0.0084851018 Hartrees.
 Nuclear repulsion after PCM non-electrostatic terms =      793.0113921425 Hartrees.
 Leave Link  301 at Fri Mar 30 14:23:51 2018, MaxMem= 4026531840 cpu:       0.0
 (Enter C:\G09W\l302.exe)
 NPDir=0 NMtPBC=     1 NCelOv=     1 NCel=       1 NClECP=     1 NCelD=      1
         NCelK=      1 NCelE2=     1 NClLst=     1 CellRange=     0.0.
 One-electron integrals computed using PRISM.
 NBasis=   530 RedAO= T  NBF=   530
 NBsUse=   530 1.00D-06 NBFU=   530
 Precomputing XC quadrature grid using
 IXCGrd= 2 IRadAn=           5 IRanWt=          -1 IRanGd=           0 AccXCQ= 0.00D+00.
 NRdTot=    1920 NPtTot=      515512 NUsed=      529264 NTot=      529296
 NSgBfM=   604   604   604   604   604 NAtAll=    23    23.
 Leave Link  302 at Fri Mar 30 14:23:53 2018, MaxMem= 4026531840 cpu:       2.0
 (Enter C:\G09W\l303.exe)
 DipDrv:  MaxL=1.
 Leave Link  303 at Fri Mar 30 14:23:53 2018, MaxMem= 4026531840 cpu:       0.0
 (Enter C:\G09W\l401.exe)
 Harris functional with IExCor= 1009 diagonalized for initial guess.
 ExpMin= 1.03D-01 ExpMax= 1.95D+04 ExpMxC= 6.65D+02 IAcc=3 IRadAn=         5 AccDes= 0.00D+00
 HarFok:  IExCor= 1009 AccDes= 0.00D+00 IRadAn=         5 IDoV= 1
 ScaDFX=  1.000000  1.000000  1.000000  1.000000
 FoFCou: FMM=F IPFlag=           0 FMFlag=      100000 FMFlg1=           0
         NFxFlg=           0 DoJE=T BraDBF=F KetDBF=T FulRan=T
         Omega=  0.000000  0.000000  1.000000  0.000000  0.000000 ICntrl=     500 IOpCl=  0
         NMat0=    1 NMatS0=    1 NMatT0=    0 NMatD0=    1 NMtDS0=    0 NMtDT0=    0
         I1Cent=           4 NGrid=           0.
 Petite list used in FoFCou.
 Harris En= -653.648797002188    
 Initial guess orbital symmetries:
       Occupied  (A) (A) (A) (A) (A) (A) (A) (A) (A) (A) (A) (A)
                 (A) (A) (A) (A) (A) (A) (A) (A) (A) (A) (A) (A)
                 (A) (A) (A) (A) (A) (A) (A) (A) (A) (A) (A) (A)
                 (A) (A) (A) (A) (A) (A) (A) (A) (A) (A) (A) (A)
       Virtual   (A) (A) (A) (A) (A) (A) (A) (A) (A) (A) (A) (A)
                 (A) (A) (A) (A) (A) (A) (A) (A) (A) (A) (A) (A)
                 (A) (A) (A) (A) (A) (A) (A) (A) (A) (A) (A) (A)
                 (A) (A) (A) (A) (A) (A) (A) (A) (A) (A) (A) (A)
                 (A) (A) (A) (A) (A) (A) (A) (A) (A) (A) (A) (A)
                 (A) (A) (A) (A) (A) (A) (A) (A) (A) (A) (A) (A)
                 (A) (A) (A) (A) (A) (A) (A) (A) (A) (A) (A) (A)
                 (A) (A) (A) (A) (A) (A) (A) (A) (A) (A) (A) (A)
                 (A) (A) (A) (A) (A) (A) (A) (A) (A) (A) (A) (A)
                 (A) (A) (A) (A) (A) (A) (A) (A) (A) (A) (A) (A)
                 (A) (A) (A) (A) (A) (A) (A) (A) (A) (A) (A) (A)
                 (A) (A) (A) (A) (A) (A) (A) (A) (A) (A) (A) (A)
                 (A) (A) (A) (A) (A) (A) (A) (A) (A) (A) (A) (A)
                 (A) (A) (A) (A) (A) (A) (A) (A) (A) (A) (A) (A)
                 (A) (A) (A) (A) (A) (A) (A) (A) (A) (A) (A) (A)
                 (A) (A) (A) (A) (A) (A) (A) (A) (A) (A) (A) (A)
                 (A) (A) (A) (A) (A) (A) (A) (A) (A) (A) (A) (A)
                 (A) (A) (A) (A) (A) (A) (A) (A) (A) (A) (A) (A)
                 (A) (A) (A) (A) (A) (A) (A) (A) (A) (A) (A) (A)
                 (A) (A) (A) (A) (A) (A) (A) (A) (A) (A) (A) (A)
                 (A) (A) (A) (A) (A) (A) (A) (A) (A) (A) (A) (A)
                 (A) (A) (A) (A) (A) (A) (A) (A) (A) (A) (A) (A)
                 (A) (A) (A) (A) (A) (A) (A) (A) (A) (A) (A) (A)
                 (A) (A) (A) (A) (A) (A) (A) (A) (A) (A) (A) (A)
                 (A) (A) (A) (A) (A) (A) (A) (A) (A) (A) (A) (A)
                 (A) (A) (A) (A) (A) (A) (A) (A) (A) (A) (A) (A)
                 (A) (A) (A) (A) (A) (A) (A) (A) (A) (A) (A) (A)
                 (A) (A) (A) (A) (A) (A) (A) (A) (A) (A) (A) (A)
                 (A) (A) (A) (A) (A) (A) (A) (A) (A) (A) (A) (A)
                 (A) (A) (A) (A) (A) (A) (A) (A) (A) (A) (A) (A)
                 (A) (A) (A) (A) (A) (A) (A) (A) (A) (A) (A) (A)
                 (A) (A) (A) (A) (A) (A) (A) (A) (A) (A) (A) (A)
                 (A) (A) (A) (A) (A) (A) (A) (A) (A) (A) (A) (A)
                 (A) (A) (A) (A) (A) (A) (A) (A) (A) (A) (A) (A)
                 (A) (A) (A) (A) (A) (A) (A) (A) (A) (A) (A) (A)
                 (A) (A) (A) (A) (A) (A) (A) (A) (A) (A) (A) (A)
                 (A) (A) (A) (A) (A) (A) (A) (A) (A) (A) (A) (A)
                 (A) (A) (A) (A) (A) (A) (A) (A) (A) (A) (A) (A)
                 (A) (A) (A) (A) (A) (A) (A) (A) (A) (A) (A) (A)
                 (A) (A) (A) (A) (A) (A) (A) (A) (A) (A) (A) (A)
                 (A) (A)
 The electronic state of the initial guess is 1-A.
 Leave Link  401 at Fri Mar 30 14:24:00 2018, MaxMem= 4026531840 cpu:       6.0
 (Enter C:\G09W\l502.exe)
 Closed shell SCF:
 Requested convergence on RMS density matrix=1.00D-08 within 128 cycles.
 Requested convergence on MAX density matrix=1.00D-06.
 Requested convergence on             energy=1.00D-06.
 No special actions if energy rises.
 Using DIIS extrapolation, IDIIS=  1040.
 Integral symmetry usage will be decided dynamically.
       529044 words used for storage of precomputed grid.
 IEnd=     1667811 IEndB=     1667811 NGot=  4026531840 MDV=  4025247300
 LenX=  4025247300 LenY=  4024880670
 Fock matrices will be formed incrementally for  20 cycles.

 Cycle   1  Pass 1  IDiag  1:
 FoFCou: FMM=F IPFlag=           0 FMFlag=      100000 FMFlg1=           0
         NFxFlg=           0 DoJE=F BraDBF=F KetDBF=F FulRan=T
         Omega=  0.000000  0.000000  1.000000  0.000000  0.000000 ICntrl=       0 IOpCl=  0
         NMat0=    1 NMatS0=    1 NMatT0=    0 NMatD0=    1 NMtDS0=    0 NMtDT0=    0
         I1Cent=           0 NGrid=           0.
 Symmetry not used in FoFCou.
 E= -653.578054839490    
 DIIS: error= 1.74D-02 at cycle   1 NSaved=   1.
 NSaved= 1 IEnMin= 1 EnMin= -653.578054839490     IErMin= 1 ErrMin= 1.74D-02
 ErrMax= 1.74D-02 EMaxC= 1.00D-01 BMatC= 3.14D-01 BMatP= 3.14D-01
 IDIUse=3 WtCom= 8.26D-01 WtEn= 1.74D-01
 Coeff-Com:  0.100D+01
 Coeff-En:   0.100D+01
 Coeff:      0.100D+01
 Gap=     0.270 Goal=   None    Shift=    0.000
 GapD=    0.270 DampG=1.000 DampE=0.500 DampFc=0.5000 IDamp=-1.
 Damping current iteration by 5.00D-01
 RMSDP=4.51D-03 MaxDP=6.87D-01              OVMax= 1.87D-01

 Cycle   2  Pass 1  IDiag  1:
 RMSU=  1.59D-03    CP:  1.03D+00
 E= -653.672893146447     Delta-E=       -0.094838306957 Rises=F Damp=T
 DIIS: error= 9.28D-03 at cycle   2 NSaved=   2.
 NSaved= 2 IEnMin= 2 EnMin= -653.672893146447     IErMin= 2 ErrMin= 9.28D-03
 ErrMax= 9.28D-03 EMaxC= 1.00D-01 BMatC= 3.28D-02 BMatP= 3.14D-01
 IDIUse=3 WtCom= 9.07D-01 WtEn= 9.28D-02
 Coeff-Com:  0.162D+00 0.838D+00
 Coeff-En:   0.245D+00 0.755D+00
 Coeff:      0.169D+00 0.831D+00
 Gap=     0.286 Goal=   None    Shift=    0.000
 RMSDP=1.07D-03 MaxDP=1.38D-01 DE=-9.48D-02 OVMax= 1.44D-01

 Cycle   3  Pass 1  IDiag  1:
 RMSU=  6.22D-04    CP:  1.03D+00  7.28D-01
 E= -653.821841941540     Delta-E=       -0.148948795093 Rises=F Damp=F
 DIIS: error= 9.97D-03 at cycle   3 NSaved=   3.
 NSaved= 3 IEnMin= 3 EnMin= -653.821841941540     IErMin= 2 ErrMin= 9.28D-03
 ErrMax= 9.97D-03 EMaxC= 1.00D-01 BMatC= 2.25D-02 BMatP= 3.28D-02
 IDIUse=3 WtCom= 9.00D-01 WtEn= 9.97D-02
 Coeff-Com:  0.294D-01 0.449D+00 0.521D+00
 Coeff-En:   0.000D+00 0.000D+00 0.100D+01
 Coeff:      0.264D-01 0.405D+00 0.569D+00
 Gap=     0.239 Goal=   None    Shift=    0.000
 RMSDP=4.03D-04 MaxDP=4.03D-02 DE=-1.49D-01 OVMax= 5.02D-02

 Cycle   4  Pass 1  IDiag  1:
 RMSU=  2.31D-04    CP:  1.03D+00  8.01D-01  8.03D-01
 E= -653.836177254821     Delta-E=       -0.014335313281 Rises=F Damp=F
 DIIS: error= 3.46D-03 at cycle   4 NSaved=   4.
 NSaved= 4 IEnMin= 4 EnMin= -653.836177254821     IErMin= 4 ErrMin= 3.46D-03
 ErrMax= 3.46D-03 EMaxC= 1.00D-01 BMatC= 4.56D-03 BMatP= 2.25D-02
 IDIUse=3 WtCom= 9.65D-01 WtEn= 3.46D-02
 Coeff-Com:  0.399D-02 0.123D+00 0.332D+00 0.540D+00
 Coeff-En:   0.000D+00 0.000D+00 0.171D+00 0.829D+00
 Coeff:      0.385D-02 0.119D+00 0.327D+00 0.550D+00
 Gap=     0.245 Goal=   None    Shift=    0.000
 RMSDP=1.61D-04 MaxDP=1.58D-02 DE=-1.43D-02 OVMax= 2.18D-02

 Cycle   5  Pass 1  IDiag  1:
 RMSU=  6.50D-05    CP:  1.02D+00  7.66D-01  8.65D-01  7.24D-01
 E= -653.839190816330     Delta-E=       -0.003013561509 Rises=F Damp=F
 DIIS: error= 1.35D-03 at cycle   5 NSaved=   5.
 NSaved= 5 IEnMin= 5 EnMin= -653.839190816330     IErMin= 5 ErrMin= 1.35D-03
 ErrMax= 1.35D-03 EMaxC= 1.00D-01 BMatC= 6.56D-04 BMatP= 4.56D-03
 IDIUse=3 WtCom= 9.87D-01 WtEn= 1.35D-02
 Coeff-Com: -0.213D-03 0.192D-01 0.141D+00 0.358D+00 0.482D+00
 Coeff-En:   0.000D+00 0.000D+00 0.000D+00 0.867D-01 0.913D+00
 Coeff:     -0.210D-03 0.189D-01 0.139D+00 0.355D+00 0.488D+00
 Gap=     0.239 Goal=   None    Shift=    0.000
 RMSDP=7.18D-05 MaxDP=6.28D-03 DE=-3.01D-03 OVMax= 6.86D-03

 Cycle   6  Pass 1  IDiag  1:
 RMSU=  2.29D-05    CP:  1.03D+00  7.86D-01  8.67D-01  7.48D-01  5.30D-01
 E= -653.839654778426     Delta-E=       -0.000463962095 Rises=F Damp=F
 DIIS: error= 1.79D-04 at cycle   6 NSaved=   6.
 NSaved= 6 IEnMin= 6 EnMin= -653.839654778426     IErMin= 6 ErrMin= 1.79D-04
 ErrMax= 1.79D-04 EMaxC= 1.00D-01 BMatC= 2.72D-05 BMatP= 6.56D-04
 IDIUse=3 WtCom= 9.98D-01 WtEn= 1.79D-03
 Coeff-Com: -0.262D-03-0.303D-02 0.328D-01 0.114D+00 0.232D+00 0.624D+00
 Coeff-En:   0.000D+00 0.000D+00 0.000D+00 0.000D+00 0.000D+00 0.100D+01
 Coeff:     -0.262D-03-0.302D-02 0.327D-01 0.114D+00 0.232D+00 0.625D+00
 Gap=     0.239 Goal=   None    Shift=    0.000
 RMSDP=1.67D-05 MaxDP=1.93D-03 DE=-4.64D-04 OVMax= 1.24D-03

 Cycle   7  Pass 1  IDiag  1:
 RMSU=  8.63D-06    CP:  1.03D+00  7.89D-01  8.74D-01  7.38D-01  5.26D-01
                    CP:  1.15D+00
 E= -653.839672804210     Delta-E=       -0.000018025784 Rises=F Damp=F
 DIIS: error= 4.79D-05 at cycle   7 NSaved=   7.
 NSaved= 7 IEnMin= 7 EnMin= -653.839672804210     IErMin= 7 ErrMin= 4.79D-05
 ErrMax= 4.79D-05 EMaxC= 1.00D-01 BMatC= 3.68D-06 BMatP= 2.72D-05
 IDIUse=1 WtCom= 1.00D+00 WtEn= 0.00D+00
 Coeff-Com:  0.144D-03-0.330D-02 0.369D-02 0.258D-01 0.752D-01 0.328D+00
 Coeff-Com:  0.570D+00
 Coeff:      0.144D-03-0.330D-02 0.369D-02 0.258D-01 0.752D-01 0.328D+00
 Coeff:      0.570D+00
 Gap=     0.239 Goal=   None    Shift=    0.000
 RMSDP=4.77D-06 MaxDP=2.92D-04 DE=-1.80D-05 OVMax= 8.11D-04

 Cycle   8  Pass 1  IDiag  1:
 RMSU=  2.17D-06    CP:  1.03D+00  7.89D-01  8.73D-01  7.43D-01  5.42D-01
                    CP:  1.17D+00  7.68D-01
 E= -653.839675630425     Delta-E=       -0.000002826215 Rises=F Damp=F
 DIIS: error= 1.88D-05 at cycle   8 NSaved=   8.
 NSaved= 8 IEnMin= 8 EnMin= -653.839675630425     IErMin= 8 ErrMin= 1.88D-05
 ErrMax= 1.88D-05 EMaxC= 1.00D-01 BMatC= 2.23D-07 BMatP= 3.68D-06
 IDIUse=1 WtCom= 1.00D+00 WtEn= 0.00D+00
 Coeff-Com:  0.128D-03-0.950D-03-0.285D-02-0.481D-02-0.338D-02 0.341D-01
 Coeff-Com:  0.216D+00 0.762D+00
 Coeff:      0.128D-03-0.950D-03-0.285D-02-0.481D-02-0.338D-02 0.341D-01
 Coeff:      0.216D+00 0.762D+00
 Gap=     0.239 Goal=   None    Shift=    0.000
 RMSDP=2.08D-06 MaxDP=2.54D-04 DE=-2.83D-06 OVMax= 1.68D-04

 Cycle   9  Pass 1  IDiag  1:
 RMSU=  6.32D-07    CP:  1.03D+00  7.89D-01  8.74D-01  7.43D-01  5.40D-01
                    CP:  1.20D+00  8.46D-01  1.01D+00
 E= -653.839675805361     Delta-E=       -0.000000174936 Rises=F Damp=F
 DIIS: error= 7.95D-06 at cycle   9 NSaved=   9.
 NSaved= 9 IEnMin= 9 EnMin= -653.839675805361     IErMin= 9 ErrMin= 7.95D-06
 ErrMax= 7.95D-06 EMaxC= 1.00D-01 BMatC= 5.21D-08 BMatP= 2.23D-07
 IDIUse=1 WtCom= 1.00D+00 WtEn= 0.00D+00
 Coeff-Com:  0.661D-04-0.293D-03-0.187D-02-0.455D-02-0.830D-02-0.921D-02
 Coeff-Com:  0.745D-01 0.417D+00 0.533D+00
 Coeff:      0.661D-04-0.293D-03-0.187D-02-0.455D-02-0.830D-02-0.921D-02
 Coeff:      0.745D-01 0.417D+00 0.533D+00
 Gap=     0.239 Goal=   None    Shift=    0.000
 RMSDP=5.69D-07 MaxDP=5.56D-05 DE=-1.75D-07 OVMax= 8.47D-05

 Cycle  10  Pass 1  IDiag  1:
 RMSU=  2.40D-07    CP:  1.03D+00  7.89D-01  8.74D-01  7.43D-01  5.40D-01
                    CP:  1.21D+00  8.57D-01  1.04D+00  9.61D-01
 E= -653.839675852998     Delta-E=       -0.000000047637 Rises=F Damp=F
 DIIS: error= 1.81D-06 at cycle  10 NSaved=  10.
 NSaved=10 IEnMin=10 EnMin= -653.839675852998     IErMin=10 ErrMin= 1.81D-06
 ErrMax= 1.81D-06 EMaxC= 1.00D-01 BMatC= 3.09D-09 BMatP= 5.21D-08
 IDIUse=1 WtCom= 1.00D+00 WtEn= 0.00D+00
 Coeff-Com:  0.128D-04 0.267D-04-0.342D-03-0.103D-02-0.312D-02-0.874D-02
 Coeff-Com:  0.253D-02 0.540D-01 0.203D+00 0.754D+00
 Coeff:      0.128D-04 0.267D-04-0.342D-03-0.103D-02-0.312D-02-0.874D-02
 Coeff:      0.253D-02 0.540D-01 0.203D+00 0.754D+00
 Gap=     0.239 Goal=   None    Shift=    0.000
 RMSDP=1.85D-07 MaxDP=1.49D-05 DE=-4.76D-08 OVMax= 2.04D-05

 Cycle  11  Pass 1  IDiag  1:
 RMSU=  6.89D-08    CP:  1.03D+00  7.89D-01  8.74D-01  7.44D-01  5.40D-01
                    CP:  1.21D+00  8.59D-01  1.07D+00  1.05D+00  9.77D-01
 E= -653.839675855894     Delta-E=       -0.000000002896 Rises=F Damp=F
 DIIS: error= 7.02D-07 at cycle  11 NSaved=  11.
 NSaved=11 IEnMin=11 EnMin= -653.839675855894     IErMin=11 ErrMin= 7.02D-07
 ErrMax= 7.02D-07 EMaxC= 1.00D-01 BMatC= 3.72D-10 BMatP= 3.09D-09
 IDIUse=1 WtCom= 1.00D+00 WtEn= 0.00D+00
 Coeff-Com: -0.156D-05 0.330D-04 0.146D-04-0.221D-04-0.694D-03-0.304D-02
 Coeff-Com: -0.484D-02-0.163D-01 0.362D-01 0.316D+00 0.673D+00
 Coeff:     -0.156D-05 0.330D-04 0.146D-04-0.221D-04-0.694D-03-0.304D-02
 Coeff:     -0.484D-02-0.163D-01 0.362D-01 0.316D+00 0.673D+00
 Gap=     0.239 Goal=   None    Shift=    0.000
 RMSDP=7.75D-08 MaxDP=7.70D-06 DE=-2.90D-09 OVMax= 5.07D-06

 Cycle  12  Pass 1  IDiag  1:
 RMSU=  2.54D-08    CP:  1.03D+00  7.89D-01  8.74D-01  7.43D-01  5.40D-01
                    CP:  1.21D+00  8.61D-01  1.08D+00  1.06D+00  1.03D+00
                    CP:  9.71D-01
 E= -653.839675856196     Delta-E=       -0.000000000302 Rises=F Damp=F
 DIIS: error= 2.22D-07 at cycle  12 NSaved=  12.
 NSaved=12 IEnMin=12 EnMin= -653.839675856196     IErMin=12 ErrMin= 2.22D-07
 ErrMax= 2.22D-07 EMaxC= 1.00D-01 BMatC= 5.62D-11 BMatP= 3.72D-10
 IDIUse=1 WtCom= 1.00D+00 WtEn= 0.00D+00
 Coeff-Com: -0.182D-05 0.123D-04 0.589D-04 0.152D-03 0.132D-03-0.922D-04
 Coeff-Com: -0.233D-02-0.156D-01-0.137D-01 0.309D-01 0.323D+00 0.678D+00
 Coeff:     -0.182D-05 0.123D-04 0.589D-04 0.152D-03 0.132D-03-0.922D-04
 Coeff:     -0.233D-02-0.156D-01-0.137D-01 0.309D-01 0.323D+00 0.678D+00
 Gap=     0.239 Goal=   None    Shift=    0.000
 RMSDP=2.10D-08 MaxDP=1.03D-06 DE=-3.02D-10 OVMax= 1.67D-06

 Cycle  13  Pass 1  IDiag  1:
 RMSU=  7.68D-09    CP:  1.03D+00  7.89D-01  8.74D-01  7.43D-01  5.40D-01
                    CP:  1.21D+00  8.61D-01  1.08D+00  1.07D+00  1.04D+00
                    CP:  1.08D+00  1.06D+00
 E= -653.839675856246     Delta-E=       -0.000000000050 Rises=F Damp=F
 DIIS: error= 4.37D-08 at cycle  13 NSaved=  13.
 NSaved=13 IEnMin=13 EnMin= -653.839675856246     IErMin=13 ErrMin= 4.37D-08
 ErrMax= 4.37D-08 EMaxC= 1.00D-01 BMatC= 1.99D-12 BMatP= 5.62D-11
 IDIUse=1 WtCom= 1.00D+00 WtEn= 0.00D+00
 Coeff-Com: -0.374D-06 0.136D-05 0.174D-04 0.478D-04 0.762D-04 0.149D-03
 Coeff-Com: -0.324D-03-0.356D-02-0.561D-02-0.767D-02 0.590D-01 0.206D+00
 Coeff-Com:  0.752D+00
 Coeff:     -0.374D-06 0.136D-05 0.174D-04 0.478D-04 0.762D-04 0.149D-03
 Coeff:     -0.324D-03-0.356D-02-0.561D-02-0.767D-02 0.590D-01 0.206D+00
 Coeff:      0.752D+00
 Gap=     0.239 Goal=   None    Shift=    0.000
 RMSDP=5.06D-09 MaxDP=3.00D-07 DE=-5.02D-11 OVMax= 5.29D-07

 Error on total polarization charges =  0.04141
 SCF Done:  E(RM06) =  -653.839675856     A.U. after   13 cycles
             Convg  =    0.5058D-08             -V/T =  2.0076
 KE= 6.489180324267D+02 PE=-3.115766123611D+03 EE= 1.019997023185D+03
 SMD-CDS (non-electrostatic) energy       (kcal/mol) =       5.32
 (included in total energy above)
 Leave Link  502 at Fri Mar 30 14:30:22 2018, MaxMem= 4026531840 cpu:     382.0
 (Enter C:\G09W\l601.exe)
 Copying SCF densities to generalized density rwf, IOpCl= 0 IROHF=0.

 **********************************************************************

            Population analysis using the SCF density.

 **********************************************************************

 Orbital symmetries:
       Occupied  (A) (A) (A) (A) (A) (A) (A) (A) (A) (A) (A) (A)
                 (A) (A) (A) (A) (A) (A) (A) (A) (A) (A) (A) (A)
                 (A) (A) (A) (A) (A) (A) (A) (A) (A) (A) (A) (A)
                 (A) (A) (A) (A) (A) (A) (A) (A) (A) (A) (A) (A)
       Virtual   (A) (A) (A) (A) (A) (A) (A) (A) (A) (A) (A) (A)
                 (A) (A) (A) (A) (A) (A) (A) (A) (A) (A) (A) (A)
                 (A) (A) (A) (A) (A) (A) (A) (A) (A) (A) (A) (A)
                 (A) (A) (A) (A) (A) (A) (A) (A) (A) (A) (A) (A)
                 (A) (A) (A) (A) (A) (A) (A) (A) (A) (A) (A) (A)
                 (A) (A) (A) (A) (A) (A) (A) (A) (A) (A) (A) (A)
                 (A) (A) (A) (A) (A) (A) (A) (A) (A) (A) (A) (A)
                 (A) (A) (A) (A) (A) (A) (A) (A) (A) (A) (A) (A)
                 (A) (A) (A) (A) (A) (A) (A) (A) (A) (A) (A) (A)
                 (A) (A) (A) (A) (A) (A) (A) (A) (A) (A) (A) (A)
                 (A) (A) (A) (A) (A) (A) (A) (A) (A) (A) (A) (A)
                 (A) (A) (A) (A) (A) (A) (A) (A) (A) (A) (A) (A)
                 (A) (A) (A) (A) (A) (A) (A) (A) (A) (A) (A) (A)
                 (A) (A) (A) (A) (A) (A) (A) (A) (A) (A) (A) (A)
                 (A) (A) (A) (A) (A) (A) (A) (A) (A) (A) (A) (A)
                 (A) (A) (A) (A) (A) (A) (A) (A) (A) (A) (A) (A)
                 (A) (A) (A) (A) (A) (A) (A) (A) (A) (A) (A) (A)
                 (A) (A) (A) (A) (A) (A) (A) (A) (A) (A) (A) (A)
                 (A) (A) (A) (A) (A) (A) (A) (A) (A) (A) (A) (A)
                 (A) (A) (A) (A) (A) (A) (A) (A) (A) (A) (A) (A)
                 (A) (A) (A) (A) (A) (A) (A) (A) (A) (A) (A) (A)
                 (A) (A) (A) (A) (A) (A) (A) (A) (A) (A) (A) (A)
                 (A) (A) (A) (A) (A) (A) (A) (A) (A) (A) (A) (A)
                 (A) (A) (A) (A) (A) (A) (A) (A) (A) (A) (A) (A)
                 (A) (A) (A) (A) (A) (A) (A) (A) (A) (A) (A) (A)
                 (A) (A) (A) (A) (A) (A) (A) (A) (A) (A) (A) (A)
                 (A) (A) (A) (A) (A) (A) (A) (A) (A) (A) (A) (A)
                 (A) (A) (A) (A) (A) (A) (A) (A) (A) (A) (A) (A)
                 (A) (A) (A) (A) (A) (A) (A) (A) (A) (A) (A) (A)
                 (A) (A) (A) (A) (A) (A) (A) (A) (A) (A) (A) (A)
                 (A) (A) (A) (A) (A) (A) (A) (A) (A) (A) (A) (A)
                 (A) (A) (A) (A) (A) (A) (A) (A) (A) (A) (A) (A)
                 (A) (A) (A) (A) (A) (A) (A) (A) (A) (A) (A) (A)
                 (A) (A) (A) (A) (A) (A) (A) (A) (A) (A) (A) (A)
                 (A) (A) (A) (A) (A) (A) (A) (A) (A) (A) (A) (A)
                 (A) (A) (A) (A) (A) (A) (A) (A) (A) (A) (A) (A)
                 (A) (A) (A) (A) (A) (A) (A) (A) (A) (A) (A) (A)
                 (A) (A) (A) (A) (A) (A) (A) (A) (A) (A) (A) (A)
                 (A) (A) (A) (A) (A) (A) (A) (A) (A) (A) (A) (A)
                 (A) (A) (A) (A) (A) (A) (A) (A) (A) (A) (A) (A)
                 (A) (A)
 The electronic state is 1-A.
 Alpha  occ. eigenvalues --  -24.79980 -19.19298 -19.16444 -14.49934 -10.36454
 Alpha  occ. eigenvalues --  -10.33428 -10.31331 -10.25982 -10.25603 -10.25179
 Alpha  occ. eigenvalues --  -10.25061 -10.24669 -10.24591  -1.26854  -1.05593
 Alpha  occ. eigenvalues --   -1.02152  -0.92743  -0.88174  -0.81415  -0.77307
 Alpha  occ. eigenvalues --   -0.75455  -0.68166  -0.63792  -0.62318  -0.60580
 Alpha  occ. eigenvalues --   -0.59361  -0.56630  -0.55313  -0.51390  -0.51112
 Alpha  occ. eigenvalues --   -0.49231  -0.47976  -0.45975  -0.45349  -0.44367
 Alpha  occ. eigenvalues --   -0.43893  -0.43287  -0.41705  -0.39941  -0.39081
 Alpha  occ. eigenvalues --   -0.37626  -0.36122  -0.35503  -0.28777  -0.28117
 Alpha  occ. eigenvalues --   -0.27424  -0.25955  -0.25400
 Alpha virt. eigenvalues --   -0.01519  -0.00979   0.00843   0.02507   0.05961
 Alpha virt. eigenvalues --    0.06227   0.06917   0.08586   0.08990   0.10046
 Alpha virt. eigenvalues --    0.11552   0.12188   0.13227   0.13882   0.14239
 Alpha virt. eigenvalues --    0.14905   0.16396   0.18360   0.21187   0.22590
 Alpha virt. eigenvalues --    0.22962   0.24174   0.25152   0.25882   0.26902
 Alpha virt. eigenvalues --    0.27496   0.29571   0.30257   0.30857   0.31349
 Alpha virt. eigenvalues --    0.32307   0.33053   0.33340   0.34580   0.35148
 Alpha virt. eigenvalues --    0.36170   0.36357   0.37074   0.38166   0.38278
 Alpha virt. eigenvalues --    0.39160   0.40026   0.40209   0.40766   0.41164
 Alpha virt. eigenvalues --    0.42143   0.42968   0.43247   0.44030   0.44659
 Alpha virt. eigenvalues --    0.45276   0.45509   0.46479   0.47165   0.47830
 Alpha virt. eigenvalues --    0.48739   0.49202   0.50290   0.51811   0.53092
 Alpha virt. eigenvalues --    0.54002   0.56090   0.56829   0.56957   0.57645
 Alpha virt. eigenvalues --    0.59345   0.60265   0.61322   0.62682   0.63743
 Alpha virt. eigenvalues --    0.63816   0.64845   0.67294   0.68973   0.69721
 Alpha virt. eigenvalues --    0.70191   0.72079   0.73301   0.73891   0.74444
 Alpha virt. eigenvalues --    0.74773   0.76082   0.76400   0.78987   0.80051
 Alpha virt. eigenvalues --    0.82150   0.83010   0.83587   0.83920   0.85966
 Alpha virt. eigenvalues --    0.86560   0.88750   0.89785   0.91646   0.91832
 Alpha virt. eigenvalues --    0.94401   0.95328   0.97315   0.97840   0.98595
 Alpha virt. eigenvalues --    1.00247   1.00823   1.01637   1.03120   1.04093
 Alpha virt. eigenvalues --    1.04882   1.05399   1.05813   1.07215   1.08072
 Alpha virt. eigenvalues --    1.09410   1.10341   1.11616   1.12195   1.13767
 Alpha virt. eigenvalues --    1.14257   1.15923   1.16756   1.18270   1.18694
 Alpha virt. eigenvalues --    1.20187   1.21250   1.22484   1.22719   1.23530
 Alpha virt. eigenvalues --    1.24568   1.25650   1.27148   1.27793   1.29472
 Alpha virt. eigenvalues --    1.30030   1.31359   1.31961   1.32534   1.33918
 Alpha virt. eigenvalues --    1.34620   1.35259   1.36075   1.38778   1.39717
 Alpha virt. eigenvalues --    1.42531   1.42932   1.43818   1.45743   1.47004
 Alpha virt. eigenvalues --    1.48933   1.50312   1.50707   1.51658   1.54775
 Alpha virt. eigenvalues --    1.56727   1.58549   1.59070   1.60341   1.61921
 Alpha virt. eigenvalues --    1.63619   1.63961   1.65946   1.67025   1.68468
 Alpha virt. eigenvalues --    1.69441   1.70695   1.71855   1.74018   1.76805
 Alpha virt. eigenvalues --    1.78914   1.83386   1.86966   1.89948   1.91654
 Alpha virt. eigenvalues --    1.93797   1.95702   1.98984   2.00341   2.01997
 Alpha virt. eigenvalues --    2.06685   2.08360   2.08617   2.08919   2.11704
 Alpha virt. eigenvalues --    2.12159   2.12319   2.14697   2.17047   2.19256
 Alpha virt. eigenvalues --    2.20930   2.24896   2.25739   2.28358   2.29943
 Alpha virt. eigenvalues --    2.31109   2.33089   2.34021   2.36258   2.37486
 Alpha virt. eigenvalues --    2.41181   2.41344   2.41912   2.43212   2.44629
 Alpha virt. eigenvalues --    2.45652   2.46508   2.48067   2.48462   2.51163
 Alpha virt. eigenvalues --    2.52605   2.53090   2.53907   2.55138   2.58518
 Alpha virt. eigenvalues --    2.58886   2.60685   2.61383   2.63317   2.65113
 Alpha virt. eigenvalues --    2.66724   2.68438   2.69016   2.69834   2.70371
 Alpha virt. eigenvalues --    2.72195   2.72759   2.73372   2.74457   2.75503
 Alpha virt. eigenvalues --    2.76726   2.78361   2.79314   2.82469   2.83541
 Alpha virt. eigenvalues --    2.84797   2.85010   2.85417   2.86292   2.87282
 Alpha virt. eigenvalues --    2.89935   2.90608   2.92190   2.93055   2.93576
 Alpha virt. eigenvalues --    2.94600   2.96139   2.97752   2.98587   2.99024
 Alpha virt. eigenvalues --    3.00650   3.01338   3.01648   3.02007   3.02977
 Alpha virt. eigenvalues --    3.04128   3.05324   3.06113   3.06818   3.07535
 Alpha virt. eigenvalues --    3.08501   3.09340   3.09942   3.12368   3.12933
 Alpha virt. eigenvalues --    3.13258   3.14319   3.16049   3.17237   3.19057
 Alpha virt. eigenvalues --    3.20111   3.20599   3.21367   3.22555   3.23730
 Alpha virt. eigenvalues --    3.25355   3.26160   3.28245   3.28424   3.28656
 Alpha virt. eigenvalues --    3.29999   3.31680   3.32024   3.33084   3.33661
 Alpha virt. eigenvalues --    3.34681   3.36387   3.37949   3.39413   3.40188
 Alpha virt. eigenvalues --    3.40892   3.43091   3.44814   3.46157   3.46868
 Alpha virt. eigenvalues --    3.47734   3.48936   3.49880   3.51324   3.52466
 Alpha virt. eigenvalues --    3.53837   3.55574   3.56493   3.58142   3.60396
 Alpha virt. eigenvalues --    3.61543   3.62701   3.63310   3.64615   3.67727
 Alpha virt. eigenvalues --    3.68277   3.69152   3.71660   3.72337   3.73575
 Alpha virt. eigenvalues --    3.74465   3.75736   3.76288   3.77428   3.77655
 Alpha virt. eigenvalues --    3.78862   3.79729   3.81344   3.82501   3.85076
 Alpha virt. eigenvalues --    3.86409   3.87423   3.89252   3.89443   3.90260
 Alpha virt. eigenvalues --    3.93129   3.93870   3.95601   3.96930   3.97772
 Alpha virt. eigenvalues --    3.98958   4.00485   4.02094   4.03434   4.05005
 Alpha virt. eigenvalues --    4.05906   4.06988   4.07261   4.08034   4.09242
 Alpha virt. eigenvalues --    4.10304   4.11888   4.12865   4.15000   4.16527
 Alpha virt. eigenvalues --    4.18173   4.19067   4.20477   4.20627   4.20849
 Alpha virt. eigenvalues --    4.23266   4.23508   4.25574   4.25869   4.27292
 Alpha virt. eigenvalues --    4.28060   4.29943   4.30210   4.31308   4.32524
 Alpha virt. eigenvalues --    4.34104   4.34606   4.35144   4.37357   4.39431
 Alpha virt. eigenvalues --    4.40848   4.43067   4.43468   4.46527   4.47431
 Alpha virt. eigenvalues --    4.49425   4.52097   4.57364   4.63323   4.63516
 Alpha virt. eigenvalues --    4.66043   4.66962   4.67148   4.68454   4.69114
 Alpha virt. eigenvalues --    4.72630   4.74555   4.77208   4.80577   4.81429
 Alpha virt. eigenvalues --    4.83948   4.84710   4.87333   4.89200   4.91402
 Alpha virt. eigenvalues --    4.92757   4.93646   4.95898   4.97839   4.99558
 Alpha virt. eigenvalues --    5.01496   5.02628   5.03248   5.04769   5.08567
 Alpha virt. eigenvalues --    5.09844   5.13375   5.16515   5.19258   5.20327
 Alpha virt. eigenvalues --    5.21036   5.21594   5.22205   5.23330   5.23851
 Alpha virt. eigenvalues --    5.25181   5.28914   5.30873   5.31672   5.40228
 Alpha virt. eigenvalues --    5.41032   5.43248   5.45232   5.49423   5.51072
 Alpha virt. eigenvalues --    5.52626   5.53746   5.59399   5.66221   5.70985
 Alpha virt. eigenvalues --    5.73017   5.77620   5.79069   5.80450   5.83582
 Alpha virt. eigenvalues --    5.85037   5.88175   5.90116   5.92934   5.96481
 Alpha virt. eigenvalues --    5.98050   5.99050   6.02395   6.04542   6.05815
 Alpha virt. eigenvalues --    6.10704   6.16724   6.24186   6.41729   6.47841
 Alpha virt. eigenvalues --    6.51593   6.53056   6.54305   6.61731   6.82071
 Alpha virt. eigenvalues --    6.88236   6.89251   6.89458   6.91602   6.94685
 Alpha virt. eigenvalues --    6.98564   7.00097   7.00606   7.06255   7.08617
 Alpha virt. eigenvalues --    7.12052   7.28281   7.41406   7.68719   8.41848
 Alpha virt. eigenvalues --    8.43416   8.51829   8.83700   8.84468   9.05584
 Alpha virt. eigenvalues --    9.25748  10.10744  11.51202  11.88210  12.02742
 Alpha virt. eigenvalues --   12.08905  12.48107  12.53068  13.41258  13.49796
 Alpha virt. eigenvalues --   14.92195  15.42201
          Condensed to atoms (all electrons):
              1          2          3          4          5          6
     1  C    5.478188   0.167153   0.025753   0.005999  -0.056077   0.000639
     2  C    0.167153   5.549183   0.166172  -0.066342   0.019911   0.023546
     3  C    0.025753   0.166172   5.708916   0.197322   0.090384  -0.006155
     4  C    0.005999  -0.066342   0.197322   5.255650  -0.055037   0.173111
     5  C   -0.056077   0.019911   0.090384  -0.055037   5.713493  -0.017090
     6  C    0.000639   0.023546  -0.006155   0.173111  -0.017090   5.914592
     7  C   -0.039119  -0.055733   0.086709   0.012722   0.050351  -0.001528
     8  C    0.278717   0.066357  -0.118035  -0.002720   0.101838  -0.000105
     9  N   -0.000695  -0.008047  -0.005297  -0.010037   0.001501   0.047163
    10  C   -0.000137  -0.010541  -0.028130  -0.003169   0.007258  -0.057570
    11  O    0.000000  -0.000375  -0.007952   0.006403  -0.004544  -0.140645
    12  O    0.001266  -0.005474   0.020426   0.000371  -0.013783  -0.175134
    13  H    0.456998  -0.061205   0.013566  -0.000103  -0.006075   0.000012
    14  H   -0.028898   0.452697  -0.072740  -0.000244   0.008511  -0.000559
    15  H   -0.000527   0.002569  -0.039044   0.411510  -0.005511  -0.055558
    16  H    0.000040  -0.003007  -0.043340   0.425022   0.007354  -0.033011
    17  H    0.000032   0.000012   0.006760  -0.034321  -0.000700   0.431443
    18  H    0.000050   0.002498  -0.001659  -0.004314   0.000329  -0.000932
    19  H    0.002581  -0.001851   0.008884  -0.001203  -0.002085  -0.039287
    20  H   -0.000060  -0.000419   0.000613   0.005267   0.000163  -0.027957
    21  H   -0.004553   0.009400  -0.114342  -0.006179   0.449072  -0.002752
    22  F   -0.073058   0.010355  -0.001821  -0.000001   0.011242   0.000000
    23  H    0.014770  -0.005838   0.017241  -0.000058  -0.069579   0.000095
              7          8          9         10         11         12
     1  C   -0.039119   0.278717  -0.000695  -0.000137   0.000000   0.001266
     2  C   -0.055733   0.066357  -0.008047  -0.010541  -0.000375  -0.005474
     3  C    0.086709  -0.118035  -0.005297  -0.028130  -0.007952   0.020426
     4  C    0.012722  -0.002720  -0.010037  -0.003169   0.006403   0.000371
     5  C    0.050351   0.101838   0.001501   0.007258  -0.004544  -0.013783
     6  C   -0.001528  -0.000105   0.047163  -0.057570  -0.140645  -0.175134
     7  C    5.590548   0.221531   0.000014  -0.000733   0.000123   0.005067
     8  C    0.221531   4.856818   0.000079   0.000358   0.000010  -0.001439
     9  N    0.000014   0.000079   5.520237   0.021722   0.003761   0.014942
    10  C   -0.000733   0.000358   0.021722   4.453895   0.632600   0.668842
    11  O    0.000123   0.000010   0.003761   0.632600   8.328532  -0.120018
    12  O    0.005067  -0.001439   0.014942   0.668842  -0.120018   8.098841
    13  H    0.015116  -0.065360  -0.000004   0.000002   0.000000   0.000009
    14  H   -0.003324   0.006893  -0.000065   0.000003  -0.000007  -0.000160
    15  H   -0.000258   0.000129   0.007777   0.009941   0.009601   0.000665
    16  H   -0.000795   0.000143  -0.005283   0.003620  -0.000034  -0.000668
    17  H    0.000053  -0.000014  -0.009466  -0.021835   0.006148   0.003077
    18  H   -0.000089   0.000028   0.363886  -0.000107  -0.000341  -0.000487
    19  H    0.000571  -0.000476   0.385455   0.006460   0.001178   0.023286
    20  H   -0.000015   0.000006   0.386700   0.002998   0.000262   0.002730
    21  H   -0.055000   0.013510   0.000198   0.015217   0.011499  -0.013837
    22  F   -0.071653   0.347677   0.000000   0.000000   0.000000   0.000000
    23  H    0.463702  -0.068076  -0.000005  -0.000246  -0.000042   0.000461
             13         14         15         16         17         18
     1  C    0.456998  -0.028898  -0.000527   0.000040   0.000032   0.000050
     2  C   -0.061205   0.452697   0.002569  -0.003007   0.000012   0.002498
     3  C    0.013566  -0.072740  -0.039044  -0.043340   0.006760  -0.001659
     4  C   -0.000103  -0.000244   0.411510   0.425022  -0.034321  -0.004314
     5  C   -0.006075   0.008511  -0.005511   0.007354  -0.000700   0.000329
     6  C    0.000012  -0.000559  -0.055558  -0.033011   0.431443  -0.000932
     7  C    0.015116  -0.003324  -0.000258  -0.000795   0.000053  -0.000089
     8  C   -0.065360   0.006893   0.000129   0.000143  -0.000014   0.000028
     9  N   -0.000004  -0.000065   0.007777  -0.005283  -0.009466   0.363886
    10  C    0.000002   0.000003   0.009941   0.003620  -0.021835  -0.000107
    11  O    0.000000  -0.000007   0.009601  -0.000034   0.006148  -0.000341
    12  O    0.000009  -0.000160   0.000665  -0.000668   0.003077  -0.000487
    13  H    0.501076  -0.006727   0.000010  -0.000027  -0.000001  -0.000007
    14  H   -0.006727   0.448433  -0.000107   0.001027  -0.000118   0.000910
    15  H    0.000010  -0.000107   0.480016  -0.005063  -0.001201  -0.000260
    16  H   -0.000027   0.001027  -0.005063   0.463855  -0.005663   0.003686
    17  H   -0.000001  -0.000118  -0.001201  -0.005663   0.457931  -0.005182
    18  H   -0.000007   0.000910  -0.000260   0.003686  -0.005182   0.541436
    19  H    0.000014  -0.000984  -0.000206  -0.000781   0.002749  -0.027703
    20  H    0.000000   0.000032  -0.000178  -0.000026  -0.003476  -0.021965
    21  H   -0.000013   0.000035   0.000832   0.001199  -0.000754   0.000078
    22  F    0.001566  -0.000010   0.000000   0.000000   0.000000   0.000000
    23  H    0.000019  -0.000001  -0.000066   0.000004   0.000002   0.000000
             19         20         21         22         23
     1  C    0.002581  -0.000060  -0.004553  -0.073058   0.014770
     2  C   -0.001851  -0.000419   0.009400   0.010355  -0.005838
     3  C    0.008884   0.000613  -0.114342  -0.001821   0.017241
     4  C   -0.001203   0.005267  -0.006179  -0.000001  -0.000058
     5  C   -0.002085   0.000163   0.449072   0.011242  -0.069579
     6  C   -0.039287  -0.027957  -0.002752   0.000000   0.000095
     7  C    0.000571  -0.000015  -0.055000  -0.071653   0.463702
     8  C   -0.000476   0.000006   0.013510   0.347677  -0.068076
     9  N    0.385455   0.386700   0.000198   0.000000  -0.000005
    10  C    0.006460   0.002998   0.015217   0.000000  -0.000246
    11  O    0.001178   0.000262   0.011499   0.000000  -0.000042
    12  O    0.023286   0.002730  -0.013837   0.000000   0.000461
    13  H    0.000014   0.000000  -0.000013   0.001566   0.000019
    14  H   -0.000984   0.000032   0.000035  -0.000010  -0.000001
    15  H   -0.000206  -0.000178   0.000832   0.000000  -0.000066
    16  H   -0.000781  -0.000026   0.001199   0.000000   0.000004
    17  H    0.002749  -0.003476  -0.000754   0.000000   0.000002
    18  H   -0.027703  -0.021965   0.000078   0.000000   0.000000
    19  H    0.500561  -0.022950  -0.000244   0.000001   0.000008
    20  H   -0.022950   0.535731   0.000019   0.000000  -0.000001
    21  H   -0.000244   0.000019   0.516950  -0.000024  -0.011895
    22  F    0.000001   0.000000  -0.000024   9.004639   0.001520
    23  H    0.000008  -0.000001  -0.011895   0.001520   0.512104
 Mulliken atomic charges:
              1
     1  C   -0.229064
     2  C   -0.251017
     3  C    0.095771
     4  C   -0.309649
     5  C   -0.230928
     6  C   -0.032320
     7  C   -0.218259
     8  C    0.362132
     9  N    0.285468
    10  C    0.299549
    11  O   -0.726161
    12  O   -0.508983
    13  H    0.151134
    14  H    0.195403
    15  H    0.184929
    16  H    0.191747
    17  H    0.174522
    18  H    0.150144
    19  H    0.166024
    20  H    0.142526
    21  H    0.191583
    22  F   -0.230434
    23  H    0.145882
 Sum of Mulliken atomic charges =   0.00000
 Mulliken charges with hydrogens summed into heavy atoms:
              1
     1  C   -0.077929
     2  C   -0.055615
     3  C    0.095771
     4  C    0.067028
     5  C   -0.039345
     6  C    0.142203
     7  C   -0.072377
     8  C    0.362132
     9  N    0.744162
    10  C    0.299549
    11  O   -0.726161
    12  O   -0.508983
    22  F   -0.230434
 Sum of Mulliken charges with hydrogens summed into heavy atoms =   0.00000
 Electronic spatial extent (au):  <R**2>=           2542.0631
 Charge=              0.0000 electrons
 Dipole moment (field-independent basis, Debye):
    X=             -1.2322    Y=             16.3665    Z=             -0.3195  Tot=             16.4159
 Quadrupole moment (field-independent basis, Debye-Ang):
   XX=            -94.8486   YY=            -67.4838   ZZ=            -73.3897
   XY=             34.8749   XZ=             -5.0413   YZ=            -10.6709
 Traceless Quadrupole moment (field-independent basis, Debye-Ang):
   XX=            -16.2746   YY=             11.0902   ZZ=              5.1844
   XY=             34.8749   XZ=             -5.0413   YZ=            -10.6709
 Octapole moment (field-independent basis, Debye-Ang**2):
  XXX=            -29.4213  YYY=             64.9326  ZZZ=            -13.8742  XYY=            -22.4593
  XXY=            106.2413  XXZ=            -20.6544  XZZ=             10.0846  YZZ=             17.2055
  YYZ=             -9.8763  XYZ=             -8.5273
 Hexadecapole moment (field-independent basis, Debye-Ang**3):
 XXXX=          -2482.5639 YYYY=           -582.1591 ZZZZ=           -322.9824 XXXY=            267.6100
 XXXZ=            -72.6442 YYYX=            166.2349 YYYZ=            -36.5978 ZZZX=              2.6029
 ZZZY=            -26.6598 XXYY=           -499.7750 XXZZ=           -394.2423 YYZZ=           -155.8651
 XXYZ=            -35.5436 YYXZ=            -15.7080 ZZXY=             42.1890
 N-N= 7.930113921425D+02 E-N=-3.115766131615D+03  KE= 6.489180324267D+02
 No NMR shielding tensors so no spin-rotation constants.
 Leave Link  601 at Fri Mar 30 14:30:23 2018, MaxMem= 4026531840 cpu:       0.0
 (Enter C:\G09W\l701.exe)
 Compute integral first derivatives.
 ... and contract with generalized density number  0.
 D1PCM: PCM CHGder 1st derivatives, ID1Alg=3 FixD1E=F DoIter=F DoCFld=F I1PDM=0.
 GePol: Maximum number of non-zero 1st derivatives   =     246
 Leave Link  701 at Fri Mar 30 14:30:27 2018, MaxMem= 4026531840 cpu:       3.0
 (Enter C:\G09W\l702.exe)
 L702 exits ... SP integral derivatives will be done elsewhere.
 Leave Link  702 at Fri Mar 30 14:30:27 2018, MaxMem= 4026531840 cpu:       0.0
 (Enter C:\G09W\l703.exe)
 Compute integral first derivatives, UseDBF=F ICtDFT=           0.
 Integral derivatives from FoFDir, PRISM(SPDF).
 Calling FoFJK, ICntrl=      2127 FMM=F ISym2X=0 I1Cent= 0 IOpClX= 0 NMat=1 NMatS=1 NMatT=0.
 FoFCou: FMM=F IPFlag=           0 FMFlag=      100000 FMFlg1=         800
         NFxFlg=           0 DoJE=F BraDBF=F KetDBF=F FulRan=T
         Omega=  0.000000  0.000000  1.000000  0.000000  0.000000 ICntrl=    2127 IOpCl=  0
         NMat0=    1 NMatS0=    1 NMatT0=    0 NMatD0=    1 NMtDS0=    0 NMtDT0=    0
         I1Cent=           0 NGrid=           0.
 Symmetry not used in FoFCou.
 Leave Link  703 at Fri Mar 30 14:31:20 2018, MaxMem= 4026531840 cpu:      53.0
 (Enter C:\G09W\l716.exe)
 Dipole        =-4.84775367D-01 6.43908414D+00-1.25684952D-01
 ***** Axes restored to original set *****
 -------------------------------------------------------------------
 Center     Atomic                   Forces (Hartrees/Bohr)
 Number     Number              X              Y              Z
 -------------------------------------------------------------------
      1        6          -0.001919445    0.018351146   -0.001065408
      2        6          -0.010927828    0.028836443   -0.000668109
      3        6           0.009076795   -0.005864726   -0.012418376
      4        6          -0.023489812    0.005996499    0.033268966
      5        6           0.012326639   -0.024776389   -0.003386228
      6        6          -0.011352165    0.030751100   -0.012386661
      7        6          -0.027432277   -0.010749027    0.013053179
      8        6           0.018494712   -0.007182191   -0.006156796
      9        7           0.009510901    0.011777350   -0.009660416
     10        6           0.035543865    0.103798492    0.004363416
     11        8          -0.059833525   -0.107491842    0.029041191
     12        8           0.026619027   -0.017803943   -0.032254269
     13        1          -0.005629859   -0.005920406    0.003142425
     14        1           0.002863699   -0.008893261   -0.001331459
     15        1           0.005153250    0.008971057   -0.008044697
     16        1           0.003592960   -0.012341469   -0.006042340
     17        1           0.011320491   -0.003009752   -0.001505626
     18        1           0.001069791   -0.017607656   -0.005583553
     19        1          -0.017212682    0.000666382    0.010565377
     20        1           0.009788473   -0.000612825    0.014858300
     21        1           0.005049095    0.007199038   -0.003449058
     22        9           0.013418579   -0.001138849   -0.005632047
     23        1          -0.006030684    0.007044828    0.001292191
 -------------------------------------------------------------------
 Cartesian Forces:  Max     0.107491842 RMS     0.023863400
 Leave Link  716 at Fri Mar 30 14:31:21 2018, MaxMem= 4026531840 cpu:       0.0
 (Enter C:\G09W\l103.exe)

 GradGradGradGradGradGradGradGradGradGradGradGradGradGradGradGradGradGrad
 Berny optimization.
 Internal  Forces:  Max     0.125078568 RMS     0.014653099
 Search for a local minimum.
 Step number   1 out of a maximum of  126
 All quantities printed in internal units (Hartrees-Bohrs-Radians)
 RMS Force = .14653D-01 SwitMx=.10000D-02 MixMth= 1
 Mixed Optimization -- RFO/linear search
 Second derivative matrix not updated -- first step.
 ITU=  0
     Eigenvalues ---    0.00237   0.00237   0.00237   0.00237   0.00766
     Eigenvalues ---    0.01345   0.02066   0.02069   0.02094   0.02098
     Eigenvalues ---    0.02103   0.02301   0.02304   0.02426   0.04356
     Eigenvalues ---    0.04432   0.04803   0.05410   0.05544   0.06065
     Eigenvalues ---    0.06065   0.08669   0.12376   0.16000   0.16000
     Eigenvalues ---    0.16000   0.16000   0.16000   0.16000   0.16000
     Eigenvalues ---    0.16156   0.17438   0.21983   0.22000   0.22970
     Eigenvalues ---    0.24000   0.25000   0.25000   0.25000   0.25000
     Eigenvalues ---    0.28519   0.28519   0.28519   0.35740   0.37230
     Eigenvalues ---    0.37230   0.37230   0.37230   0.37230   0.37230
     Eigenvalues ---    0.37230   0.40989   0.41559   0.42281   0.45319
     Eigenvalues ---    0.45399   0.45745   0.47688   0.47688   0.47688
     Eigenvalues ---    0.52009   0.55021   0.80209
 RFO step:  Lambda=-5.67909632D-02 EMin= 2.36824088D-03
 Linear search not attempted -- first point.
 Maximum step size (   0.300) exceeded in Quadratic search.
    -- Step size scaled by   0.830
 Iteration  1 RMS(Cart)=  0.09590794 RMS(Int)=  0.00436882
 Iteration  2 RMS(Cart)=  0.00499048 RMS(Int)=  0.00019128
 Iteration  3 RMS(Cart)=  0.00003295 RMS(Int)=  0.00019004
 Iteration  4 RMS(Cart)=  0.00000000 RMS(Int)=  0.00019004
 Variable       Old X    -DE/DX   Delta X   Delta X   Delta X     New X
                                 (Linear)    (Quad)   (Total)
    R1        2.64236  -0.00785   0.00000  -0.01411  -0.01409   2.62827
    R2        2.64535  -0.02366   0.00000  -0.03947  -0.03942   2.60593
    R3        2.02201   0.00858   0.00000   0.01660   0.01660   2.03861
    R4        2.64535  -0.01153   0.00000  -0.01892  -0.01895   2.62640
    R5        2.02201   0.00930   0.00000   0.01800   0.01800   2.04000
    R6        2.91018  -0.01503   0.00000  -0.03649  -0.03649   2.87369
    R7        2.65125  -0.00995   0.00000  -0.01504  -0.01509   2.63616
    R8        2.91018   0.00180   0.00000   0.00437   0.00437   2.91455
    R9        2.02201   0.01268   0.00000   0.02454   0.02454   2.04655
   R10        2.02201   0.01405   0.00000   0.02718   0.02718   2.04918
   R11        2.56686   0.01800   0.00000   0.02664   0.02662   2.59348
   R12        2.02201   0.00942   0.00000   0.01823   0.01823   2.04024
   R13        2.77790   0.01063   0.00000   0.02131   0.02131   2.79921
   R14        2.91018  -0.01911   0.00000  -0.04639  -0.04639   2.86379
   R15        2.02201   0.01129   0.00000   0.02184   0.02184   2.04385
   R16        2.65125  -0.01987   0.00000  -0.03217  -0.03214   2.61911
   R17        2.02201   0.00900   0.00000   0.01741   0.01741   2.03942
   R18        2.55113  -0.01459   0.00000  -0.01996  -0.01996   2.53117
   R19        1.88973   0.01832   0.00000   0.02850   0.02850   1.91823
   R20        1.88973   0.01989   0.00000   0.03095   0.03095   1.92068
   R21        1.88973   0.01744   0.00000   0.02713   0.02713   1.91685
   R22        2.70231  -0.12508   0.00000  -0.22253  -0.22253   2.47978
   R23        2.37803  -0.04363   0.00000  -0.04218  -0.04218   2.33585
    A1        2.08680  -0.00226   0.00000  -0.01168  -0.01161   2.07519
    A2        2.09819   0.00288   0.00000   0.01253   0.01249   2.11068
    A3        2.09819  -0.00062   0.00000  -0.00085  -0.00088   2.09731
    A4        2.08680   0.00666   0.00000   0.01680   0.01679   2.10359
    A5        2.09819  -0.00416   0.00000  -0.01157  -0.01156   2.08663
    A6        2.09819  -0.00250   0.00000  -0.00523  -0.00523   2.09296
    A7        2.09439   0.00432   0.00000   0.01082   0.01085   2.10524
    A8        2.09441  -0.00609   0.00000  -0.01475  -0.01485   2.07956
    A9        2.09439   0.00177   0.00000   0.00393   0.00396   2.09835
   A10        1.91063   0.02775   0.00000   0.08789   0.08796   1.99859
   A11        1.91063  -0.00661   0.00000  -0.01360  -0.01310   1.89753
   A12        1.91063  -0.00673   0.00000  -0.01159  -0.01157   1.89906
   A13        1.91063  -0.00985   0.00000  -0.03423  -0.03464   1.87600
   A14        1.91063  -0.00828   0.00000  -0.02479  -0.02550   1.88513
   A15        1.91063   0.00372   0.00000  -0.00368  -0.00462   1.90601
   A16        2.10197   0.00003   0.00000   0.00532   0.00524   2.10722
   A17        2.09061  -0.00070   0.00000  -0.00529  -0.00525   2.08535
   A18        2.09061   0.00067   0.00000  -0.00003   0.00001   2.09061
   A19        1.91063   0.00587   0.00000   0.02670   0.02677   1.93740
   A20        1.91063   0.00521   0.00000   0.02770   0.02779   1.93842
   A21        1.91063  -0.00417   0.00000  -0.01747  -0.01729   1.89334
   A22        1.91063  -0.00653   0.00000  -0.01928  -0.01996   1.89067
   A23        1.91063  -0.00108   0.00000  -0.01431  -0.01435   1.89629
   A24        1.91063   0.00069   0.00000  -0.00333  -0.00348   1.90715
   A25        2.10197  -0.00789   0.00000  -0.02013  -0.02013   2.08185
   A26        2.09061   0.00656   0.00000   0.02007   0.02006   2.11067
   A27        2.09061   0.00134   0.00000   0.00007   0.00006   2.09067
   A28        2.09441   0.00955   0.00000   0.02445   0.02452   2.11894
   A29        2.09439  -0.00429   0.00000  -0.01090  -0.01095   2.08344
   A30        2.09439  -0.00526   0.00000  -0.01354  -0.01359   2.08080
   A31        1.91063   0.00246   0.00000   0.01032   0.01024   1.92088
   A32        1.91063   0.00258   0.00000   0.00941   0.00936   1.91999
   A33        1.91063   0.00351   0.00000   0.01300   0.01294   1.92358
   A34        1.91063  -0.00217   0.00000  -0.00743  -0.00749   1.90314
   A35        1.91063  -0.00262   0.00000  -0.00911  -0.00919   1.90144
   A36        1.91063  -0.00375   0.00000  -0.01620  -0.01624   1.89440
   A37        2.09440  -0.02250   0.00000  -0.06088  -0.06089   2.03350
   A38        2.09440  -0.00343   0.00000  -0.00927  -0.00929   2.08511
   A39        2.09440   0.02592   0.00000   0.07015   0.07014   2.16453
    D1        0.00000   0.00046   0.00000   0.00511   0.00517   0.00517
    D2        3.14159   0.00069   0.00000   0.00752   0.00754  -3.13406
    D3       -3.14159   0.00008   0.00000   0.00097   0.00101  -3.14058
    D4        0.00000   0.00031   0.00000   0.00338   0.00339   0.00338
    D5        0.00000   0.00011   0.00000   0.00127   0.00132   0.00133
    D6       -3.14159  -0.00032   0.00000  -0.00349  -0.00347   3.13813
    D7        3.14159   0.00049   0.00000   0.00541   0.00545  -3.13615
    D8        0.00000   0.00006   0.00000   0.00065   0.00065   0.00065
    D9        3.14159  -0.00006   0.00000  -0.00019  -0.00023   3.14136
   D10        0.00000  -0.00086   0.00000  -0.00964  -0.00962  -0.00962
   D11        0.00000  -0.00029   0.00000  -0.00260  -0.00261  -0.00261
   D12       -3.14159  -0.00109   0.00000  -0.01205  -0.01201   3.12959
   D13       -1.57080  -0.00101   0.00000  -0.00897  -0.00902  -1.57982
   D14        2.61799  -0.00190   0.00000  -0.01255  -0.01272   2.60527
   D15        0.52360   0.00171   0.00000   0.00738   0.00753   0.53113
   D16        1.57080  -0.00021   0.00000   0.00047   0.00048   1.57127
   D17       -0.52360  -0.00110   0.00000  -0.00310  -0.00323  -0.52683
   D18       -2.61799   0.00251   0.00000   0.01683   0.01703  -2.60096
   D19        0.00000   0.00069   0.00000   0.00781   0.00774   0.00774
   D20        3.14159   0.00061   0.00000   0.00687   0.00679  -3.13480
   D21        3.14159  -0.00011   0.00000  -0.00163  -0.00162   3.13997
   D22        0.00000  -0.00019   0.00000  -0.00258  -0.00257  -0.00257
   D23        1.04720   0.00024   0.00000   0.01386   0.01423   1.06142
   D24       -1.04720   0.00145   0.00000   0.00417   0.00401  -1.04319
   D25       -3.14159  -0.00004   0.00000   0.00198   0.00213  -3.13947
   D26       -3.14159   0.00311   0.00000   0.03007   0.02986  -3.11174
   D27        1.04720   0.00432   0.00000   0.02037   0.01964   1.06684
   D28       -1.04720   0.00284   0.00000   0.01819   0.01776  -1.02944
   D29       -1.04720  -0.00344   0.00000  -0.01058  -0.00999  -1.05719
   D30       -3.14159  -0.00223   0.00000  -0.02027  -0.02021   3.12138
   D31        1.04720  -0.00372   0.00000  -0.02246  -0.02209   1.02511
   D32        0.00000  -0.00011   0.00000  -0.00136  -0.00141  -0.00140
[...]
 Alpha  occ. eigenvalues --   -1.00392  -0.98179  -0.88498  -0.81227  -0.77063
 Alpha  occ. eigenvalues --   -0.75148  -0.67452  -0.63967  -0.61552  -0.58708
 Alpha  occ. eigenvalues --   -0.57562  -0.56389  -0.53882  -0.51464  -0.50615
 Alpha  occ. eigenvalues --   -0.49389  -0.47716  -0.46105  -0.45051  -0.44409
 Alpha  occ. eigenvalues --   -0.43888  -0.42901  -0.42577  -0.40669  -0.38944
 Alpha  occ. eigenvalues --   -0.37313  -0.36418  -0.35336  -0.29197  -0.27850
 Alpha  occ. eigenvalues --   -0.27570  -0.27344  -0.25737
 Alpha virt. eigenvalues --   -0.01532  -0.00353   0.02509   0.04269   0.05708
 Alpha virt. eigenvalues --    0.06524   0.07140   0.08357   0.09055   0.10499
 Alpha virt. eigenvalues --    0.11944   0.12221   0.13750   0.14513   0.15208
 Alpha virt. eigenvalues --    0.15843   0.17283   0.19835   0.21983   0.23107
 Alpha virt. eigenvalues --    0.24088   0.24969   0.25732   0.26833   0.27265
 Alpha virt. eigenvalues --    0.28780   0.29065   0.30300   0.31267   0.31473
 Alpha virt. eigenvalues --    0.32174   0.33129   0.33565   0.35471   0.35808
 Alpha virt. eigenvalues --    0.36043   0.36540   0.37440   0.37850   0.38417
 Alpha virt. eigenvalues --    0.39165   0.40052   0.40695   0.41174   0.42031
 Alpha virt. eigenvalues --    0.42591   0.43564   0.43985   0.44453   0.44652
 Alpha virt. eigenvalues --    0.45695   0.46054   0.46420   0.47776   0.48330
 Alpha virt. eigenvalues --    0.48552   0.50855   0.51781   0.52769   0.53835
 Alpha virt. eigenvalues --    0.55686   0.56475   0.57108   0.57635   0.58513
 Alpha virt. eigenvalues --    0.59799   0.59951   0.62183   0.62770   0.63883
 Alpha virt. eigenvalues --    0.64311   0.64883   0.66797   0.68899   0.70429
 Alpha virt. eigenvalues --    0.70768   0.72077   0.72225   0.73022   0.74162
 Alpha virt. eigenvalues --    0.75345   0.76200   0.78241   0.78622   0.80510
 Alpha virt. eigenvalues --    0.81619   0.83030   0.83984   0.84972   0.85758
 Alpha virt. eigenvalues --    0.86611   0.88803   0.91080   0.91758   0.93196
 Alpha virt. eigenvalues --    0.94220   0.94908   0.96740   0.97306   0.98690
 Alpha virt. eigenvalues --    0.99437   1.00395   1.03191   1.03549   1.04342
 Alpha virt. eigenvalues --    1.05398   1.05589   1.06317   1.06642   1.08447
 Alpha virt. eigenvalues --    1.09884   1.11728   1.11940   1.12469   1.14049
 Alpha virt. eigenvalues --    1.14376   1.15102   1.17442   1.18054   1.18432
 Alpha virt. eigenvalues --    1.20349   1.20977   1.21482   1.22597   1.24408
 Alpha virt. eigenvalues --    1.25038   1.26610   1.27024   1.29033   1.29833
 Alpha virt. eigenvalues --    1.30610   1.31014   1.31540   1.32390   1.33539
 Alpha virt. eigenvalues --    1.34376   1.34857   1.37289   1.38057   1.39984
 Alpha virt. eigenvalues --    1.42077   1.43129   1.45284   1.45552   1.47038
 Alpha virt. eigenvalues --    1.47475   1.50638   1.51302   1.52718   1.54126
 Alpha virt. eigenvalues --    1.57138   1.59923   1.60421   1.61428   1.61775
 Alpha virt. eigenvalues --    1.62161   1.64139   1.65910   1.69050   1.70231
 Alpha virt. eigenvalues --    1.70523   1.71354   1.74000   1.76879   1.77180
 Alpha virt. eigenvalues --    1.82245   1.84087   1.87998   1.88998   1.90563
 Alpha virt. eigenvalues --    1.95681   1.97189   1.98761   2.00875   2.06108
 Alpha virt. eigenvalues --    2.07736   2.08945   2.10108   2.10962   2.11740
 Alpha virt. eigenvalues --    2.13490   2.14876   2.15895   2.17180   2.18496
 Alpha virt. eigenvalues --    2.22242   2.26244   2.27974   2.29041   2.31170
 Alpha virt. eigenvalues --    2.32085   2.34235   2.35226   2.37996   2.41102
 Alpha virt. eigenvalues --    2.41787   2.42583   2.43034   2.43763   2.45181
 Alpha virt. eigenvalues --    2.46312   2.48133   2.49153   2.51099   2.51445
 Alpha virt. eigenvalues --    2.53762   2.54801   2.54994   2.56896   2.58906
 Alpha virt. eigenvalues --    2.60624   2.61158   2.61959   2.63267   2.65142
 Alpha virt. eigenvalues --    2.65480   2.68109   2.68792   2.69388   2.71020
 Alpha virt. eigenvalues --    2.71469   2.73749   2.75334   2.75833   2.76691
 Alpha virt. eigenvalues --    2.78868   2.79164   2.79831   2.83271   2.84885
 Alpha virt. eigenvalues --    2.85070   2.86278   2.86726   2.87983   2.88650
 Alpha virt. eigenvalues --    2.89613   2.92160   2.92707   2.93460   2.94174
 Alpha virt. eigenvalues --    2.94869   2.95689   2.96940   2.98762   2.99755
 Alpha virt. eigenvalues --    3.01223   3.01748   3.02143   3.02743   3.03312
 Alpha virt. eigenvalues --    3.04303   3.05499   3.06038   3.07652   3.08113
 Alpha virt. eigenvalues --    3.08550   3.09691   3.10898   3.11855   3.12475
 Alpha virt. eigenvalues --    3.12856   3.15742   3.16748   3.19528   3.20618
 Alpha virt. eigenvalues --    3.20919   3.21822   3.22227   3.23398   3.25170
 Alpha virt. eigenvalues --    3.26165   3.26785   3.28020   3.28722   3.29341
 Alpha virt. eigenvalues --    3.30859   3.32034   3.32971   3.34328   3.35724
 Alpha virt. eigenvalues --    3.37353   3.37887   3.39368   3.39567   3.41049
 Alpha virt. eigenvalues --    3.41413   3.42950   3.44203   3.45006   3.45439
 Alpha virt. eigenvalues --    3.46622   3.47685   3.50305   3.52351   3.53588
 Alpha virt. eigenvalues --    3.54221   3.55564   3.55835   3.58598   3.60361
 Alpha virt. eigenvalues --    3.62826   3.64022   3.64560   3.66296   3.67182
 Alpha virt. eigenvalues --    3.67690   3.69036   3.71446   3.73189   3.73561
 Alpha virt. eigenvalues --    3.74823   3.75950   3.76618   3.78211   3.79227
 Alpha virt. eigenvalues --    3.80022   3.80278   3.80973   3.84046   3.85050
 Alpha virt. eigenvalues --    3.85571   3.86070   3.88102   3.90449   3.91929
 Alpha virt. eigenvalues --    3.92530   3.94874   3.96619   3.97239   3.98651
 Alpha virt. eigenvalues --    4.01313   4.02585   4.04112   4.04220   4.05654
 Alpha virt. eigenvalues --    4.06622   4.08679   4.08782   4.10024   4.10529
 Alpha virt. eigenvalues --    4.11475   4.12087   4.13321   4.14539   4.16933
 Alpha virt. eigenvalues --    4.18068   4.18664   4.19509   4.21682   4.22188
 Alpha virt. eigenvalues --    4.22578   4.24121   4.25041   4.26221   4.27927
 Alpha virt. eigenvalues --    4.28499   4.30248   4.31045   4.31700   4.32572
 Alpha virt. eigenvalues --    4.33403   4.35311   4.35939   4.37228   4.37510
 Alpha virt. eigenvalues --    4.40042   4.43370   4.46056   4.47520   4.48690
 Alpha virt. eigenvalues --    4.52426   4.54276   4.57565   4.61557   4.64010
 Alpha virt. eigenvalues --    4.64835   4.65237   4.65700   4.67174   4.68417
 Alpha virt. eigenvalues --    4.70790   4.72434   4.74388   4.79759   4.80734
 Alpha virt. eigenvalues --    4.82336   4.83759   4.85553   4.88871   4.90762
 Alpha virt. eigenvalues --    4.90860   4.92128   4.93721   4.98672   4.99213
 Alpha virt. eigenvalues --    5.00587   5.03084   5.04736   5.07652   5.09257
 Alpha virt. eigenvalues --    5.11981   5.13319   5.16429   5.18273   5.18801
 Alpha virt. eigenvalues --    5.21669   5.23479   5.24235   5.25078   5.25831
 Alpha virt. eigenvalues --    5.26794   5.28758   5.31330   5.35147   5.39717
 Alpha virt. eigenvalues --    5.41033   5.43631   5.49334   5.52476   5.57419
 Alpha virt. eigenvalues --    5.59768   5.60498   5.62243   5.63334   5.69370
 Alpha virt. eigenvalues --    5.75000   5.76322   5.80127   5.81617   5.85676
 Alpha virt. eigenvalues --    5.87490   5.89150   5.91459   5.93905   5.94758
 Alpha virt. eigenvalues --    5.98135   6.04438   6.05427   6.15620   6.22718
 Alpha virt. eigenvalues --    6.26019   6.26293   6.28386   6.45331   6.50576
 Alpha virt. eigenvalues --    6.55868   6.58206   6.58321   6.84821   6.85764
 Alpha virt. eigenvalues --    6.89499   6.91236   6.92759   6.93388   6.95838
 Alpha virt. eigenvalues --    7.00040   7.01904   7.10623   7.12287   7.21131
 Alpha virt. eigenvalues --    7.28370   7.29967   7.43493   7.72553   8.40409
 Alpha virt. eigenvalues --    8.42685   8.51147   8.85401   8.92060   9.06991
 Alpha virt. eigenvalues --    9.25042  11.57890  11.69178  11.77148  12.20687
 Alpha virt. eigenvalues --   12.69703  12.76135  12.90110  13.44843  13.53308
 Alpha virt. eigenvalues --   14.21933  15.53483
          Condensed to atoms (all electrons):
              1          2          3          4          5          6
     1  C    5.503241   0.152776   0.039101   0.007936  -0.060497  -0.000691
     2  C    0.152776   5.538777   0.166434  -0.077611   0.022582   0.017861
     3  C    0.039101   0.166434   5.682834   0.209543   0.129006  -0.001580
     4  C    0.007936  -0.077611   0.209543   5.275789  -0.063664   0.175785
     5  C   -0.060497   0.022582   0.129006  -0.063664   5.666818  -0.014941
     6  C   -0.000691   0.017861  -0.001580   0.175785  -0.014941   6.017881
     7  C   -0.027158  -0.057044   0.058423   0.011717   0.102215  -0.003658
     8  C    0.256621   0.071890  -0.119636  -0.003273   0.087390   0.000438
     9  N   -0.000228  -0.005705   0.005107  -0.013472   0.000655   0.074869
    10  C    0.000372  -0.006995  -0.009325  -0.002829   0.003553  -0.012709
    11  O    0.000003  -0.000665  -0.015086   0.009548  -0.005468  -0.196224
    12  O    0.000331  -0.001693   0.010427  -0.001286  -0.002923  -0.231384
    13  H    0.461635  -0.062696   0.014607  -0.000074  -0.006320  -0.000002
    14  H   -0.028871   0.450020  -0.080692   0.000136   0.008820   0.000331
    15  H   -0.000165   0.001592  -0.044517   0.417673  -0.005901  -0.058952
    16  H   -0.000131  -0.001925  -0.054988   0.429409   0.008200  -0.033834
    17  H    0.000020  -0.000340   0.008146  -0.040780  -0.000298   0.432211
    18  H   -0.000145   0.002308  -0.001695  -0.006564   0.000692  -0.001778
    19  H    0.001421  -0.003827   0.005631  -0.003080  -0.001730  -0.040254
    20  H   -0.000006  -0.000074   0.000201   0.004831   0.000034  -0.023052
    21  H   -0.004270   0.010362  -0.107421  -0.001548   0.431561   0.003284
    22  F   -0.078913   0.012222  -0.002243  -0.000005   0.012490   0.000000
    23  H    0.015146  -0.005916   0.015937  -0.000054  -0.062226   0.000012
              7          8          9         10         11         12
     1  C   -0.027158   0.256621  -0.000228   0.000372   0.000003   0.000331
     2  C   -0.057044   0.071890  -0.005705  -0.006995  -0.000665  -0.001693
     3  C    0.058423  -0.119636   0.005107  -0.009325  -0.015086   0.010427
     4  C    0.011717  -0.003273  -0.013472  -0.002829   0.009548  -0.001286
     5  C    0.102215   0.087390   0.000655   0.003553  -0.005468  -0.002923
     6  C   -0.003658   0.000438   0.074869  -0.012709  -0.196224  -0.231384
     7  C    5.541290   0.241415   0.000290   0.001275   0.000490   0.000339
     8  C    0.241415   4.863516  -0.000071  -0.000251   0.000009  -0.000302
     9  N    0.000290  -0.000071   5.607321   0.005473   0.007045   0.008270
    10  C    0.001275  -0.000251   0.005473   4.225302   0.741911   0.728294
    11  O    0.000490   0.000009   0.007045   0.741911   8.124914  -0.129553
    12  O    0.000339  -0.000302   0.008270   0.728294  -0.129553   8.151779
    13  H    0.015626  -0.073994   0.000014   0.000004   0.000000   0.000002
    14  H   -0.003241   0.007828  -0.001025  -0.000127  -0.000013  -0.000050
    15  H    0.000875  -0.000063   0.007491   0.005454   0.016366   0.001689
    16  H   -0.000738   0.000167  -0.007272   0.000751  -0.000032  -0.000731
    17  H    0.000009  -0.000007  -0.014681  -0.016913   0.000861   0.001062
    18  H   -0.000142   0.000071   0.358137   0.000442  -0.000378  -0.000396
    19  H    0.000457  -0.000427   0.376051   0.002314   0.001355   0.033168
    20  H    0.000003  -0.000001   0.381401   0.003795   0.000096   0.004902
    21  H   -0.035046   0.010471  -0.000318   0.004283   0.017657  -0.007098
    22  F   -0.079353   0.352216   0.000000   0.000000   0.000000   0.000000
    23  H    0.462060  -0.074053   0.000000  -0.000021  -0.000056   0.000117
             13         14         15         16         17         18
     1  C    0.461635  -0.028871  -0.000165  -0.000131   0.000020  -0.000145
     2  C   -0.062696   0.450020   0.001592  -0.001925  -0.000340   0.002308
     3  C    0.014607  -0.080692  -0.044517  -0.054988   0.008146  -0.001695
     4  C   -0.000074   0.000136   0.417673   0.429409  -0.040780  -0.006564
     5  C   -0.006320   0.008820  -0.005901   0.008200  -0.000298   0.000692
     6  C   -0.000002   0.000331  -0.058952  -0.033834   0.432211  -0.001778
     7  C    0.015626  -0.003241   0.000875  -0.000738   0.000009  -0.000142
     8  C   -0.073994   0.007828  -0.000063   0.000167  -0.000007   0.000071
     9  N    0.000014  -0.001025   0.007491  -0.007272  -0.014681   0.358137
    10  C    0.000004  -0.000127   0.005454   0.000751  -0.016913   0.000442
    11  O    0.000000  -0.000013   0.016366  -0.000032   0.000861  -0.000378
    12  O    0.000002  -0.000050   0.001689  -0.000731   0.001062  -0.000396
    13  H    0.508075  -0.007460   0.000016  -0.000043  -0.000001  -0.000024
    14  H   -0.007460   0.461197  -0.000227   0.001403  -0.000064   0.001548
    15  H    0.000016  -0.000227   0.486071  -0.005555  -0.002098  -0.000522
    16  H   -0.000043   0.001403  -0.005555   0.471490  -0.005537   0.004257
    17  H   -0.000001  -0.000064  -0.002098  -0.005537   0.462303  -0.002651
    18  H   -0.000024   0.001548  -0.000522   0.004257  -0.002651   0.519413
    19  H    0.000016  -0.000198  -0.000084  -0.000926   0.004676  -0.024250
    20  H    0.000001  -0.000023  -0.000294  -0.000077  -0.004969  -0.016984
    21  H   -0.000006  -0.000038  -0.002439   0.001138  -0.000366   0.000113
    22  F    0.001555  -0.000026   0.000000   0.000000   0.000000   0.000000
    23  H    0.000033   0.000007  -0.000017   0.000005   0.000000  -0.000001
             19         20         21         22         23
     1  C    0.001421  -0.000006  -0.004270  -0.078913   0.015146
     2  C   -0.003827  -0.000074   0.010362   0.012222  -0.005916
     3  C    0.005631   0.000201  -0.107421  -0.002243   0.015937
     4  C   -0.003080   0.004831  -0.001548  -0.000005  -0.000054
     5  C   -0.001730   0.000034   0.431561   0.012490  -0.062226
     6  C   -0.040254  -0.023052   0.003284   0.000000   0.000012
     7  C    0.000457   0.000003  -0.035046  -0.079353   0.462060
     8  C   -0.000427  -0.000001   0.010471   0.352216  -0.074053
     9  N    0.376051   0.381401  -0.000318   0.000000   0.000000
    10  C    0.002314   0.003795   0.004283   0.000000  -0.000021
    11  O    0.001355   0.000096   0.017657   0.000000  -0.000056
    12  O    0.033168   0.004902  -0.007098   0.000000   0.000117
    13  H    0.000016   0.000001  -0.000006   0.001555   0.000033
    14  H   -0.000198  -0.000023  -0.000038  -0.000026   0.000007
    15  H   -0.000084  -0.000294  -0.002439   0.000000  -0.000017
    16  H   -0.000926  -0.000077   0.001138   0.000000   0.000005
    17  H    0.004676  -0.004969  -0.000366   0.000000   0.000000
    18  H   -0.024250  -0.016984   0.000113   0.000000  -0.000001
    19  H    0.500836  -0.024345  -0.000489   0.000000   0.000014
    20  H   -0.024345   0.522877   0.000022   0.000000   0.000000
    21  H   -0.000489   0.000022   0.496104  -0.000028  -0.009279
    22  F    0.000000   0.000000  -0.000028   9.013359   0.001471
    23  H    0.000014   0.000000  -0.009279   0.001471   0.508049
 Mulliken atomic charges:
              1
     1  C   -0.237527
     2  C   -0.222330
     3  C    0.091787
     4  C   -0.328125
     5  C   -0.250049
     6  C   -0.103611
     7  C   -0.230104
     8  C    0.380045
     9  N    0.210651
    10  C    0.325949
    11  O   -0.572780
    12  O   -0.564964
    13  H    0.149037
    14  H    0.190765
    15  H    0.183608
    16  H    0.194968
    17  H    0.179417
    18  H    0.168549
    19  H    0.173670
    20  H    0.151663
    21  H    0.193353
    22  F   -0.232745
    23  H    0.148772
 Sum of Mulliken atomic charges =   0.00000
 Mulliken charges with hydrogens summed into heavy atoms:
              1
     1  C   -0.088490
     2  C   -0.031565
     3  C    0.091787
     4  C    0.050451
     5  C   -0.056696
     6  C    0.075806
     7  C   -0.081332
     8  C    0.380045
     9  N    0.704532
    10  C    0.325949
    11  O   -0.572780
    12  O   -0.564964
    22  F   -0.232745
 Sum of Mulliken charges with hydrogens summed into heavy atoms =   0.00000
 Electronic spatial extent (au):  <R**2>=           2567.6700
 Charge=              0.0000 electrons
 Dipole moment (field-independent basis, Debye):
    X=             -0.3998    Y=             14.5527    Z=             -0.4056  Tot=             14.5639
 Quadrupole moment (field-independent basis, Debye-Ang):
   XX=            -86.9796   YY=            -66.1884   ZZ=            -77.1240
   XY=             29.8220   XZ=             -4.0303   YZ=             -9.0558
 Traceless Quadrupole moment (field-independent basis, Debye-Ang):
   XX=            -10.2156   YY=             10.5756   ZZ=             -0.3600
   XY=             29.8220   XZ=             -4.0303   YZ=             -9.0558
 Octapole moment (field-independent basis, Debye-Ang**2):
  XXX=             14.0022  YYY=             52.9761  ZZZ=            -10.3539  XYY=            -15.9305
  XXY=             88.3660  XXZ=            -16.6471  XZZ=              1.1080  YZZ=             19.9581
  YYZ=            -12.0443  XYZ=             -9.9973
 Hexadecapole moment (field-independent basis, Debye-Ang**3):
 XXXX=          -2333.4963 YYYY=           -552.9841 ZZZZ=           -352.9777 XXXY=            189.6222
 XXXZ=            -70.7989 YYYX=            132.6251 YYYZ=            -29.0362 ZZZX=             15.5175
 ZZZY=            -30.1596 XXYY=           -464.6298 XXZZ=           -429.2566 YYZZ=           -160.5281
 XXYZ=            -37.9668 YYXZ=            -20.2307 ZZXY=             50.6342
 N-N= 7.953321017222D+02 E-N=-3.121153439256D+03  KE= 6.494002251915D+02
 Calculating spin-rotation constants.
 Leave Link  601 at Sat Mar 31 05:55:50 2018, MaxMem= 4026531840 cpu:      17.0
 (Enter C:\G09W\l9999.exe)

 Test job not archived.
 1|1|UNPC-KYNARETH|SP|RM06|Gen|C9H10F1N1O2|ADMINISTRATOR|31-Mar-2018|0|
 |#P Geom=AllCheck Guess=TCheck SCRF=Check GenChk RM06/ChkBas NMR=ReadF
 C IOp(3/6=22)||4-fluorophenylalanine NMR||0,1|C,0,-1.9922970822,-1.604
 4059603,0.0258447481|C,0,-0.6987128086,-1.7132848003,-0.4563503534|C,0
 ,0.0341502017,-0.5876745932,-0.8146454865|C,0,1.4435425548,-0.72300492
 27,-1.3115607663|C,0,-0.5601299939,0.6638283137,-0.6819631803|C,0,2.50
 19557666,-0.5125556,-0.2368515928|C,0,-1.8508071233,0.7941887495,-0.20
 23925029|C,0,-2.5410373645,-0.34739581,0.1439904483|N,0,2.3430675731,-
 1.5272580828,0.8473236273|C,0,2.4316937917,0.8875109837,0.3822581395|O
 ,0,2.7561700199,1.8183193581,-0.3793468225|O,0,2.0431193612,0.96695096
 56,1.5653608011|H,0,-2.5719085402,-2.4748811115,0.3019082129|H,0,-0.25
 20537333,-2.6953083898,-0.5658230001|H,0,1.6466982232,0.0106077292,-2.
 0928677597|H,0,1.58925382,-1.7130252399,-1.7500620099|H,0,3.4892302844
 ,-0.6610727999,-0.6694178418|H,0,2.1629587208,-2.4601872616,0.47576859
 71|H,0,1.5703404651,-1.2420503984,1.4542345111|H,0,3.177258032,-1.5610
 056576,1.4311927604|H,0,-0.0068724118,1.5516020141,-0.9663609735|F,0,-
 3.7933695493,-0.2293676022,0.6044841106|H,0,-2.3237930975,1.7615507563
 ,-0.1008928868||Version=EM64W-G09RevC.01|State=1-A|HF=-653.8799709|RMS
 D=7.720e-009|Dipole=0.6209224,-5.6895894,-0.2728266|Quadrupole=-1.3545
 023,2.5569872,-1.2024849,-23.656361,2.0911881,-6.0652028|PG=C01 [X(C9H
 10F1N1O2)]||@


 IT IS A CAPITAL MISTAKE TO THEORIZE BEFORE ONE HAS
 DATA.  INSENSIBLY ONE BEGINS TO TWIST FACTS TO SUIT
 THEORIES RATHER THAN THEORIES TO SUIT FACTS.

                                         -- SHERLOCK HOLMES
 Job cpu time:  0 days  4 hours 20 minutes 32.0 seconds.
 File lengths (MBytes):  RWF=   1280 Int=      0 D2E=      0 Chk=     39 Scr=      1
 Normal termination of Gaussian 09 at Sat Mar 31 05:55:51 2018.
