 Entering Gaussian System, Link 0=g03
 Input=ads.com
 Output=ads.log
 Initial command:
 /system/software/hal/g03-e01-patched/g03/l1.exe /export/home/spin_dynamics/kuprov/ads/Gau-18697.inp -scrdir=/export/home/spin_dynamics/kuprov/ads/
 Entering Link 1 = /system/software/hal/g03-e01-patched/g03/l1.exe PID=     18698.
  
 Copyright (c) 1988,1990,1992,1993,1995,1998,2003,2004,2007, Gaussian, Inc.
                  All Rights Reserved.
  
 This is the Gaussian(R) 03 program.  It is based on the
 the Gaussian(R) 98 system (copyright 1998, Gaussian, Inc.),
 the Gaussian(R) 94 system (copyright 1995, Gaussian, Inc.),
 the Gaussian 92(TM) system (copyright 1992, Gaussian, Inc.),
 the Gaussian 90(TM) system (copyright 1990, Gaussian, Inc.),
 the Gaussian 88(TM) system (copyright 1988, Gaussian, Inc.),
 the Gaussian 86(TM) system (copyright 1986, Carnegie Mellon
 University), and the Gaussian 82(TM) system (copyright 1983,
 Carnegie Mellon University). Gaussian is a federally registered
 trademark of Gaussian, Inc.
  
 This software contains proprietary and confidential information,
 including trade secrets, belonging to Gaussian, Inc.
  
 This software is provided under written license and may be
 used, copied, transmitted, or stored only in accord with that
 written license.
  
 The following legend is applicable only to US Government
 contracts under FAR:
  
                    RESTRICTED RIGHTS LEGEND
  
 Use, reproduction and disclosure by the US Government is
 subject to restrictions as set forth in subparagraphs (a)
 and (c) of the Commercial Computer Software - Restricted
 Rights clause in FAR 52.227-19.
  
 Gaussian, Inc.
 340 Quinnipiac St., Bldg. 40, Wallingford CT 06492
  
  
 ---------------------------------------------------------------
 Warning -- This program may not be used in any manner that
 competes with the business of Gaussian, Inc. or will provide
 assistance to any competitor of Gaussian, Inc.  The licensee
 of this program is prohibited from giving any competitor of
 Gaussian, Inc. access to this program.  By using this program,
 the user acknowledges that Gaussian, Inc. is engaged in the
 business of creating and licensing software in the field of
 computational chemistry and represents and warrants to the
 licensee that it is not a competitor of Gaussian, Inc. and that
 it will not use this program in any manner prohibited above.
 ---------------------------------------------------------------
  

 Cite this work as:
 Gaussian 03, Revision E.01,
 M. J. Frisch, G. W. Trucks, H. B. Schlegel, G. E. Scuseria, 
 M. A. Robb, J. R. Cheeseman, J. A. Montgomery, Jr., T. Vreven, 
 K. N. Kudin, J. C. Burant, J. M. Millam, S. S. Iyengar, J. Tomasi, 
 V. Barone, B. Mennucci, M. Cossi, G. Scalmani, N. Rega, 
 G. A. Petersson, H. Nakatsuji, M. Hada, M. Ehara, K. Toyota, 
 R. Fukuda, J. Hasegawa, M. Ishida, T. Nakajima, Y. Honda, O. Kitao, 
 H. Nakai, M. Klene, X. Li, J. E. Knox, H. P. Hratchian, J. B. Cross, 
 V. Bakken, C. Adamo, J. Jaramillo, R. Gomperts, R. E. Stratmann, 
 O. Yazyev, A. J. Austin, R. Cammi, C. Pomelli, J. W. Ochterski, 
 P. Y. Ayala, K. Morokuma, G. A. Voth, P. Salvador, J. J. Dannenberg, 
 V. G. Zakrzewski, S. Dapprich, A. D. Daniels, M. C. Strain, 
 O. Farkas, D. K. Malick, A. D. Rabuck, K. Raghavachari, 
 J. B. Foresman, J. V. Ortiz, Q. Cui, A. G. Baboul, S. Clifford, 
 J. Cioslowski, B. B. Stefanov, G. Liu, A. Liashenko, P. Piskorz, 
 I. Komaromi, R. L. Martin, D. J. Fox, T. Keith, M. A. Al-Laham, 
 C. Y. Peng, A. Nanayakkara, M. Challacombe, P. M. W. Gill, 
 B. Johnson, W. Chen, M. W. Wong, C. Gonzalez, and J. A. Pople, 
 Gaussian, Inc., Wallingford CT, 2004.
 
 ******************************************
 Gaussian 03:  EM64L-G03RevE.01 11-Sep-2007
                28-Mar-2011 
 ******************************************
 %Mem=8GB
 %Chk=ads.chk
 %NProcShared=8
 Will use up to    8 processors via shared memory.
 ----------------------------------------------------------------------
 #p nmr=giao ub3lyp/gen scf=tight guess=mix scrf=pcm geom=connectivity 
 integral=(grid=ultrafine)
 ----------------------------------------------------------------------
 1/38=1,57=2/1;
 2/17=6,18=5,40=1/2;
 3/5=7,11=2,16=1,25=1,30=1,70=2201,72=1,74=-5,75=5/1,2,8,3;
 4/7=2,9=2,13=1/1;
 5/5=2,32=2,38=5/2;
 8/6=1,10=90,11=11/1;
 10/13=100,45=16/2;
 6/7=2,8=2,9=2,10=2,28=1/1;
 99/9=1/99;
 Leave Link    1 at Mon Mar 28 14:38:30 2011, MaxMem= 1073741824 cpu:       1.7
 (Enter /system/software/hal/g03-e01-patched/g03/l101.exe)
 --------------------------------------------
 Anthraquinone-2,6-disulfonate radical anion.
 --------------------------------------------
 Symbolic Z-matrix:
 Charge = -3 Multiplicity = 2
 C                    -3.76367   0.27069   0. 
 C                    -2.78222  -0.71532  0. 
 C                    -1.39936  -0.37548  0. 
 C                    -1.01922   1.00923  0. 
 C                    -2.04697   1.9903    0. 
 C                    -3.39213   1.64117   0. 
 H                    -3.04789  -1.76718  0. 
 H                    -1.73732   3.0322    0. 
 H                    -4.17922   2.38864   0. 
 C                     0.38769   1.44569  0. 
 C                    -0.38769  -1.44569  0. 
 O                     0.70283   2.6726   -0.00001 
 O                    -0.70283  -2.6726   0. 
 C                     1.39936   0.37548  0. 
 C                     1.01922  -1.00922  0. 
 C                     2.78222   0.71532  0. 
 C                     2.04697  -1.9903   0. 
 C                     3.76367  -0.27069   0. 
 H                     3.04789   1.76718  0. 
 C                     3.39213  -1.64117   0. 
 H                     1.73731  -3.0322   0. 
 H                     4.17922  -2.38864   0. 
 S                     5.55155   0.16836   0. 
 S                    -5.55155  -0.16836   0. 
 O                     6.28802  -1.16035   0. 
 O                     5.7853    0.97152   1.2634 
 O                     5.78531   0.97152  -1.2634 
 O                    -6.28802   1.16035   0.00001 
 O                    -5.78531  -0.97151  -1.2634 
 O                    -5.7853   -0.97152   1.2634 
 
                    Isotopes and Nuclear Properties:
 (Nuclear quadrupole moments (NQMom) in fm**2, nuclear magnetic moments (NMagM)
  in nuclear magnetons)

  Atom         1           2           3           4           5           6           7           8           9          10
 IAtWgt=          12          12          12          12          12          12           1           1           1          12
 AtmWgt=  12.0000000  12.0000000  12.0000000  12.0000000  12.0000000  12.0000000   1.0078250   1.0078250   1.0078250  12.0000000
 NucSpn=           0           0           0           0           0           0           1           1           1           0
 AtZEff=   0.0000000   0.0000000   0.0000000   0.0000000   0.0000000   0.0000000   0.0000000   0.0000000   0.0000000   0.0000000
 NQMom=    0.0000000   0.0000000   0.0000000   0.0000000   0.0000000   0.0000000   0.0000000   0.0000000   0.0000000   0.0000000
 NMagM=    0.0000000   0.0000000   0.0000000   0.0000000   0.0000000   0.0000000   2.7928460   2.7928460   2.7928460   0.0000000

  Atom        11          12          13          14          15          16          17          18          19          20
 IAtWgt=          12          16          16          12          12          12          12          12           1          12
 AtmWgt=  12.0000000  15.9949146  15.9949146  12.0000000  12.0000000  12.0000000  12.0000000  12.0000000   1.0078250  12.0000000
 NucSpn=           0           0           0           0           0           0           0           0           1           0
 AtZEff=   0.0000000   0.0000000   0.0000000   0.0000000   0.0000000   0.0000000   0.0000000   0.0000000   0.0000000   0.0000000
 NQMom=    0.0000000   0.0000000   0.0000000   0.0000000   0.0000000   0.0000000   0.0000000   0.0000000   0.0000000   0.0000000
 NMagM=    0.0000000   0.0000000   0.0000000   0.0000000   0.0000000   0.0000000   0.0000000   0.0000000   2.7928460   0.0000000

  Atom        21          22          23          24          25          26          27          28          29          30
 IAtWgt=           1           1          32          32          16          16          16          16          16          16
 AtmWgt=   1.0078250   1.0078250  31.9720718  31.9720718  15.9949146  15.9949146  15.9949146  15.9949146  15.9949146  15.9949146
 NucSpn=           1           1           0           0           0           0           0           0           0           0
 AtZEff=   0.0000000   0.0000000   0.0000000   0.0000000   0.0000000   0.0000000   0.0000000   0.0000000   0.0000000   0.0000000
 NQMom=    0.0000000   0.0000000   0.0000000   0.0000000   0.0000000   0.0000000   0.0000000   0.0000000   0.0000000   0.0000000
 NMagM=    2.7928460   2.7928460   0.0000000   0.0000000   0.0000000   0.0000000   0.0000000   0.0000000   0.0000000   0.0000000
 Leave Link  101 at Mon Mar 28 14:38:33 2011, MaxMem= 1073741824 cpu:       0.6
 (Enter /system/software/hal/g03-e01-patched/g03/l202.exe)
                          Input orientation:                          
 ---------------------------------------------------------------------
 Center     Atomic     Atomic              Coordinates (Angstroms)
 Number     Number      Type              X           Y           Z
 ---------------------------------------------------------------------
    1          6             0       -3.763671    0.270694    0.000000
    2          6             0       -2.782220   -0.715317   -0.000001
    3          6             0       -1.399361   -0.375475   -0.000002
    4          6             0       -1.019217    1.009225   -0.000001
    5          6             0       -2.046969    1.990302    0.000000
    6          6             0       -3.392127    1.641171    0.000001
    7          1             0       -3.047888   -1.767181   -0.000002
    8          1             0       -1.737315    3.032201    0.000000
    9          1             0       -4.179221    2.388642    0.000003
   10          6             0        0.387691    1.445690   -0.000003
   11          6             0       -0.387691   -1.445688   -0.000003
   12          8             0        0.702831    2.672597   -0.000005
   13          8             0       -0.702831   -2.672595   -0.000004
   14          6             0        1.399361    0.375476   -0.000002
   15          6             0        1.019217   -1.009224   -0.000002
   16          6             0        2.782220    0.715317   -0.000001
   17          6             0        2.046968   -1.990301   -0.000001
   18          6             0        3.763671   -0.270694    0.000000
   19          1             0        3.047889    1.767182   -0.000002
   20          6             0        3.392126   -1.641171    0.000001
   21          1             0        1.737314   -3.032200   -0.000001
   22          1             0        4.179220   -2.388642    0.000002
   23         16             0        5.551552    0.168357    0.000002
   24         16             0       -5.551552   -0.168358    0.000002
   25          8             0        6.288019   -1.160351    0.000002
   26          8             0        5.785304    0.971516    1.263400
   27          8             0        5.785306    0.971517   -1.263396
   28          8             0       -6.288020    1.160349    0.000007
   29          8             0       -5.785306   -0.971514   -1.263398
   30          8             0       -5.785303   -0.971522    1.263397
 ---------------------------------------------------------------------
                    Distance matrix (angstroms):
                    1          2          3          4          5
     1  C    0.000000
     2  C    1.391209   0.000000
     3  C    2.451019   1.424005   0.000000
     4  C    2.842087   2.466217   1.435933   0.000000
     5  C    2.429839   2.803742   2.452814   1.420840   0.000000
     6  C    1.419948   2.434137   2.835133   2.455618   1.389727
     7  H    2.159926   1.084895   2.157426   3.438595   3.888511
     8  H    3.425206   3.890465   3.424393   2.146648   1.086940
     9  H    2.158329   3.403847   3.920200   3.447958   2.169141
    10  C    4.314443   3.836442   2.551509   1.473055   2.494829
    11  C    3.787243   2.503440   1.472696   2.534842   3.815656
    12  O    5.071368   4.860406   3.702696   2.394213   2.833183
    13  O    4.246374   2.855660   2.400399   3.695389   4.852764
    14  C    5.164095   4.321510   2.897718   2.500231   3.805897
    15  C    4.951182   3.812782   2.500231   2.868684   4.289365
    16  C    6.560974   5.745407   4.321510   3.812782   4.994662
    17  C    6.235032   4.994661   3.805896   4.289364   5.710124
    18  C    7.546786   6.560974   5.164095   4.951183   6.235033
    19  H    6.974011   6.336637   4.936498   4.137131   5.099741
    20  C    7.406798   6.243377   4.955838   5.146314   6.539981
    21  H    6.416381   5.078793   4.110586   4.891991   6.288587
    22  H    8.376251   7.159725   5.930717   6.210414   7.611871
    23  S    9.315785   8.380491   6.972155   6.624354   7.813898
    24  S    1.841001   2.822829   4.157353   4.682816   4.116056
    25  O   10.153047   9.081150   7.727344   7.622517   8.910591
    26  O    9.657653   8.822928   7.418219   6.920918   7.998663
    27  O    9.657654   8.822929   7.418220   6.920919   7.998664
    28  O    2.676532   3.976023   5.124231   5.270970   4.321497
    29  O    2.688171   3.268078   4.603037   5.313671   4.933933
    30  O    2.688172   3.268076   4.603036   5.313672   4.933935
                    6          7          8          9         10
     6  C    0.000000
     7  H    3.425692   0.000000
     8  H    2.161797   4.975105   0.000000
     9  H    1.085463   4.307062   2.525287   0.000000
    10  C    3.784869   4.703801   2.651918   4.663244   0.000000
    11  C    4.307590   2.679553   4.676855   5.392382   2.993540
    12  O    4.222857   5.812015   2.466501   4.890303   1.266734
    13  O    5.083394   2.513775   5.797832   6.140147   4.260224
    14  C    4.955839   4.936497   4.110587   5.930718   1.472696
    15  C    5.146314   4.137130   4.891992   6.210415   2.534843
    16  C    6.243378   6.336636   5.078794   7.159726   2.503440
    17  C    6.539980   5.099739   6.288587   7.611870   3.815656
    18  C    7.406799   6.974010   6.416382   8.376252   3.787244
    19  H    6.441249   7.046291   4.949591   7.253780   2.679554
    20  C    7.536568   6.441247   6.939133   8.576986   4.307591
    21  H    6.939133   4.949589   6.989278   8.024395   4.676856
    22  H    8.576986   7.253779   8.024396   9.627356   5.392383
    23  S    9.064137   8.814572   7.831295   9.980862   5.319496
    24  S    2.817359   2.970618   4.979155   2.901989   6.154653
    25  O   10.077388   9.355608   9.054473  11.052532   6.450219
    26  O    9.288157   9.333913   7.901418  10.143775   5.563745
    27  O    9.288158   9.333914   7.901419  10.143777   5.563744
    28  O    2.935538   4.366794   4.920645   2.440438   6.681806
    29  O    3.761596   3.118126   5.831993   3.932727   6.748699
    30  O    3.761599   3.118123   5.831996   3.932730   6.748700
                   11         12         13         14         15
    11  C    0.000000
    12  O    4.260224   0.000000
    13  O    1.266734   5.526931   0.000000
    14  C    2.551508   2.400400   3.702695   0.000000
    15  C    1.473055   3.695390   2.394212   1.435933   0.000000
    16  C    3.836441   2.855662   4.860404   1.424005   2.466216
    17  C    2.494828   4.852764   2.833182   2.452814   1.420839
    18  C    4.314443   4.246375   5.071368   2.451020   2.842086
    19  H    4.703801   2.513777   5.812015   2.157427   3.438596
    20  C    3.784869   5.083395   4.222855   2.835133   2.455617
    21  H    2.651918   5.797833   2.466500   3.424393   2.146647
    22  H    4.663243   6.140148   4.890302   3.920200   3.447958
    23  S    6.154653   5.457226   6.869375   4.157354   4.682815
    24  S    5.319495   6.869376   5.457224   6.972155   6.624354
    25  O    6.681805   6.773907   7.152543   5.124231   5.270969
    26  O    6.748698   5.506487   7.547955   4.603036   5.313671
    27  O    6.748699   5.506485   7.547956   4.603036   5.313671
    28  O    6.450218   7.152544   6.773906   7.727344   7.622517
    29  O    5.563745   7.547955   5.506486   7.418220   6.920919
    30  O    5.563742   7.547958   5.506483   7.418219   6.920917
                   16         17         18         19         20
    16  C    0.000000
    17  C    2.803741   0.000000
    18  C    1.391209   2.429839   0.000000
    19  H    1.084896   3.888511   2.159926   0.000000
    20  C    2.434137   1.389727   1.419948   3.425693   0.000000
    21  H    3.890464   1.086940   3.425206   4.975105   2.161797
    22  H    3.403846   2.169141   2.158329   4.307062   1.085463
    23  S    2.822829   4.116056   1.841001   2.970618   2.817359
    24  S    8.380491   7.813897   9.315785   8.814573   9.064136
    25  O    3.976023   4.321496   2.676532   4.366794   2.935538
    26  O    3.268078   4.933933   2.688171   3.118126   3.761597
    27  O    3.268078   4.933934   2.688171   3.118124   3.761598
    28  O    9.081151   8.910590  10.153048   9.355610  10.077388
    29  O    8.822929   7.998663   9.657654   9.333914   9.288158
    30  O    8.822928   7.998660   9.657652   9.333914   9.288154
                   21         22         23         24         25
    21  H    0.000000
    22  H    2.525286   0.000000
    23  S    4.979154   2.901989   0.000000
    24  S    7.831294   9.980861  11.108208   0.000000
    25  O    4.920644   2.440437   1.519160  11.881056   0.000000
    26  O    5.831993   3.932727   1.515216  11.463847   2.528587
    27  O    5.831994   3.932729   1.515217  11.463849   2.528588
    28  O    9.054471  11.052531  11.881057   1.519160  12.788370
    29  O    7.901418  10.143777  11.463849   1.515216  12.140717
    30  O    7.901413  10.143772  11.463846   1.515216  12.140714
                   26         27         28         29         30
    26  O    0.000000
    27  O    2.526796   0.000000
    28  O   12.140715  12.140718   0.000000
    29  O   12.001629  11.732623   2.528587   0.000000
    30  O   11.732619  12.001628   2.528587   2.526795   0.000000
 Stoichiometry    C14H6O8S2(3-,2)
 Framework group  C1[X(C14H6O8S2)]
 Deg. of freedom    84
 Full point group                 C1
 Largest Abelian subgroup         C1      NOp   1
 Largest concise Abelian subgroup C1      NOp   1
                         Standard orientation:                         
 ---------------------------------------------------------------------
 Center     Atomic     Atomic              Coordinates (Angstroms)
 Number     Number      Type              X           Y           Z
 ---------------------------------------------------------------------
    1          6             0       -3.763671    0.270694    0.000000
    2          6             0       -2.782220   -0.715317   -0.000001
    3          6             0       -1.399361   -0.375475   -0.000002
    4          6             0       -1.019217    1.009225   -0.000001
    5          6             0       -2.046969    1.990302    0.000000
    6          6             0       -3.392127    1.641171    0.000000
    7          1             0       -3.047888   -1.767181   -0.000002
    8          1             0       -1.737315    3.032201    0.000000
    9          1             0       -4.179221    2.388642    0.000003
   10          6             0        0.387691    1.445690   -0.000003
   11          6             0       -0.387691   -1.445688   -0.000003
   12          8             0        0.702831    2.672597   -0.000005
   13          8             0       -0.702831   -2.672595   -0.000004
   14          6             0        1.399361    0.375476   -0.000002
   15          6             0        1.019217   -1.009224   -0.000002
   16          6             0        2.782220    0.715317   -0.000001
   17          6             0        2.046968   -1.990301   -0.000001
   18          6             0        3.763671   -0.270694    0.000000
   19          1             0        3.047889    1.767182   -0.000002
   20          6             0        3.392126   -1.641171    0.000000
   21          1             0        1.737314   -3.032200   -0.000001
   22          1             0        4.179220   -2.388642    0.000002
   23         16             0        5.551552    0.168357    0.000002
   24         16             0       -5.551552   -0.168358    0.000002
   25          8             0        6.288019   -1.160351    0.000002
   26          8             0        5.785304    0.971516    1.263400
   27          8             0        5.785306    0.971517   -1.263396
   28          8             0       -6.288020    1.160349    0.000007
   29          8             0       -5.785306   -0.971514   -1.263398
   30          8             0       -5.785303   -0.971522    1.263397
 ---------------------------------------------------------------------
 Rotational constants (GHZ):      0.6981401      0.0773581      0.0716583
 Leave Link  202 at Mon Mar 28 14:38:37 2011, MaxMem= 1073741824 cpu:       0.3
 (Enter /system/software/hal/g03-e01-patched/g03/l301.exe)
 General basis read from cards:  (5D, 7F)
 Centers:   1  2  3  4  5  6 10 11 14 15 16 17 18 20  7  8  9 19 21 22
 Centers:  12 13 25 26 27 28 29 30
 EPR-II
 ****
 Centers:  23 24
 aug-cc-pVDZ
 ****
 There are   470 symmetry adapted basis functions of A   symmetry.
 Integral buffers will be    131072 words long.
 Raffenetti 2 integral format.
 Two-electron integral symmetry is turned on.
   470 basis functions,   902 primitive gaussians,   496 cartesian basis functions
    95 alpha electrons       94 beta electrons
       nuclear repulsion energy      2222.4249907045 Hartrees.
 IExCor= 402 DFT=T Ex=B+HF Corr=LYP ExCW=0 ScaHFX=  0.200000
 ScaDFX=  0.800000  0.720000  1.000000  0.810000
 IRadAn=      5 IRanWt=     -1 IRanGd=            0 ICorTp=0
 NAtoms=   30 NActive=   30 NUniq=   30 SFac= 7.50D-01 NAtFMM=   80 NAOKFM=F Big=F
 ------------------------------------------------------------------------------
 United Atom Topological Model (UA0  parameters set).
  Nord Group  Hybr  Charge Alpha Radius          Bonded to
    1   C     *     0.00   1.00  1.925   C2   [d]  C6   [s]  S24  [s]
    2   CH    *     0.00   1.00  2.125   C1   [d]  C3   [s]
    3   C     *     0.00   1.00  1.925   C2   [s]  C4   [s]  C11  [s]
    4   C     *     0.00   1.00  1.925   C3   [s]  C5   [s]  C10  [s]
    5   CH    *     0.00   1.00  2.125   C4   [s]  C6   [d]
    6   CH    *     0.00   1.00  2.125   C1   [s]  C5   [d]
   10   C     *     0.00   1.00  1.925   C4   [s]  O12  [d]  C14  [s]
   11   C     *     0.00   1.00  1.925   C3   [s]  O13  [d]  C15  [s]
   12   O     *     0.00   1.00  1.750   C10  [d]
   13   O     *     0.00   1.00  1.750   C11  [d]
   14   C     *     0.00   1.00  1.925   C10  [s]  C15  [s]  C16  [s]
   15   C     *     0.00   1.00  1.925   C11  [s]  C14  [s]  C17  [s]
   16   CH    *     0.00   1.00  2.125   C14  [s]  C18  [d]
   17   CH    *     0.00   1.00  2.125   C15  [s]  C20  [d]
   18   C     *     0.00   1.00  1.925   C16  [d]  C20  [s]  S23  [s]
   20   CH    *     0.00   1.00  2.125   C17  [d]  C18  [s]
   23   S     *     0.00   1.00  2.017   C18  [s]  O25  [d]  O26  [d]  O27  [d]
   24   S     *     0.00   1.00  2.017   C1   [s]  O28  [d]  O29  [d]  O30  [d]
   25   O     *     0.00   1.00  1.750   S23  [d]
   26   O     *     0.00   1.00  1.750   S23  [d]
   27   O     *     0.00   1.00  1.750   S23  [d]
   28   O     *     0.00   1.00  1.750   S24  [d]
   29   O     *     0.00   1.00  1.750   S24  [d]
   30   O     *     0.00   1.00  1.750   S24  [d]
 ------------------------------------------------------------------------------
 Polarizable Continuum Model (PCM)
 =================================
 Model                : PCM.
 Atomic radii         : UA0 (Simple United Atom Topological Model).
 Polarization charges : Total charges.
 Charge compensation  : None.
 Solution method      : Matrix inversion.
 Cavity               : GePol (RMin=0.200 OFac=0.890).
                        Default sphere list used, NSphG=   24.
                        Tesserae with average area of 0.200 Ang**2.
 Solvent              : Water, Eps     =  78.390000
                               Eps(inf)=   1.776000
                               RSolv   =   1.385000 Ang.
 ------------------------------------------------------------------------------
 GePol: Number of tesserae being generated         =    3324
 GePol: Average area of tesserae                   =       0.10 Ang**2
 GePol: Minimum area of tessera                    =   0.10D-02 Ang**2
 GePol: Maximum area of tessera                    =    0.30017 Ang**2
 GePol: Number of small tesserae                   =       0
 GePol: Fraction of small tesserae (<1% of avg)    =       0.00%
 GePol: Total count of vertices                    =   12427
 GePol: Maximum number of vertices in a tessera    =       8
 GePol: Cavity surface area                        =    325.176 Ang**2
 GePol: Cavity volume                              =    353.349 Ang**3
 Leave Link  301 at Mon Mar 28 14:38:44 2011, MaxMem= 1073741824 cpu:      19.4
 (Enter /system/software/hal/g03-e01-patched/g03/l302.exe)
 NPDir=0 NMtPBC=     1 NCelOv=     1 NCel=       1 NClECP=     1 NCelD=      1
         NCelK=      1 NCelE2=     1 NClLst=     1 CellRange=     0.0.
 One-electron integrals computed using PRISM.
 NBasis=   470 RedAO= T  NBF=   470
 NBsUse=   470 1.00D-06 NBFU=   470
 Precomputing XC quadrature grid using
 IXCGrd= 2 IRadAn=           5 IRanWt=          -1 IRanGd=           0.
 NRdTot=    2582 NPtTot=      699544 NUsed=      717739 NTot=      717771
 NSgBfM=   455   455   455   455.
 Leave Link  302 at Mon Mar 28 14:38:52 2011, MaxMem= 1073741824 cpu:      12.6
 (Enter /system/software/hal/g03-e01-patched/g03/l308.exe)
 Leave Link  308 at Mon Mar 28 14:38:56 2011, MaxMem= 1073741824 cpu:       2.8
 (Enter /system/software/hal/g03-e01-patched/g03/l303.exe)
 DipDrv:  MaxL=1.
 Leave Link  303 at Mon Mar 28 14:39:00 2011, MaxMem= 1073741824 cpu:       1.2
 (Enter /system/software/hal/g03-e01-patched/g03/l401.exe)
 SCF N**3 symmetry information disabled.
 Harris functional with IExCor=  402 diagonalized for initial guess.
 ExpMin= 3.99D-02 ExpMax= 1.11D+05 ExpMxC= 1.18D+03 IAcc=3 IRadAn=         5 AccDes= 0.00D+00
 HarFok:  IExCor= 402 AccDes= 0.00D+00 IRadAn=         5 IDoV=1
 ScaDFX=  1.000000  1.000000  1.000000  1.000000
 Harris En= -1936.42883309194    
 Initial guess orbital symmetries:
 Alpha Orbitals:
       Occupied  (A) (A) (A) (A) (A) (A) (A) (A) (A) (A) (A) (A)
                 (A) (A) (A) (A) (A) (A) (A) (A) (A) (A) (A) (A)
                 (A) (A) (A) (A) (A) (A) (A) (A) (A) (A) (A) (A)
                 (A) (A) (A) (A) (A) (A) (A) (A) (A) (A) (A) (A)
                 (A) (A) (A) (A) (A) (A) (A) (A) (A) (A) (A) (A)
                 (A) (A) (A) (A) (A) (A) (A) (A) (A) (A) (A) (A)
                 (A) (A) (A) (A) (A) (A) (A) (A) (A) (A) (A) (A)
                 (A) (A) (A) (A) (A) (A) (A) (A) (A) (A) (A)
       Virtual   (A) (A) (A) (A) (A) (A) (A) (A) (A) (A) (A) (A)
                 (A) (A) (A) (A) (A) (A) (A) (A) (A) (A) (A) (A)
                 (A) (A) (A) (A) (A) (A) (A) (A) (A) (A) (A) (A)
                 (A) (A) (A) (A) (A) (A) (A) (A) (A) (A) (A) (A)
                 (A) (A) (A) (A) (A) (A) (A) (A) (A) (A) (A) (A)
                 (A) (A) (A) (A) (A) (A) (A) (A) (A) (A) (A) (A)
                 (A) (A) (A) (A) (A) (A) (A) (A) (A) (A) (A) (A)
                 (A) (A) (A) (A) (A) (A) (A) (A) (A) (A) (A) (A)
                 (A) (A) (A) (A) (A) (A) (A) (A) (A) (A) (A) (A)
                 (A) (A) (A) (A) (A) (A) (A) (A) (A) (A) (A) (A)
                 (A) (A) (A) (A) (A) (A) (A) (A) (A) (A) (A) (A)
                 (A) (A) (A) (A) (A) (A) (A) (A) (A) (A) (A) (A)
                 (A) (A) (A) (A) (A) (A) (A) (A) (A) (A) (A) (A)
                 (A) (A) (A) (A) (A) (A) (A) (A) (A) (A) (A) (A)
                 (A) (A) (A) (A) (A) (A) (A) (A) (A) (A) (A) (A)
                 (A) (A) (A) (A) (A) (A) (A) (A) (A) (A) (A) (A)
                 (A) (A) (A) (A) (A) (A) (A) (A) (A) (A) (A) (A)
                 (A) (A) (A) (A) (A) (A) (A) (A) (A) (A) (A) (A)
                 (A) (A) (A) (A) (A) (A) (A) (A) (A) (A) (A) (A)
                 (A) (A) (A) (A) (A) (A) (A) (A) (A) (A) (A) (A)
                 (A) (A) (A) (A) (A) (A) (A) (A) (A) (A) (A) (A)
                 (A) (A) (A) (A) (A) (A) (A) (A) (A) (A) (A) (A)
                 (A) (A) (A) (A) (A) (A) (A) (A) (A) (A) (A) (A)
                 (A) (A) (A) (A) (A) (A) (A) (A) (A) (A) (A) (A)
                 (A) (A) (A) (A) (A) (A) (A) (A) (A) (A) (A) (A)
                 (A) (A) (A) (A) (A) (A) (A) (A) (A) (A) (A) (A)
                 (A) (A) (A) (A) (A) (A) (A) (A) (A) (A) (A) (A)
                 (A) (A) (A) (A) (A) (A) (A) (A) (A) (A) (A) (A)
                 (A) (A) (A) (A) (A) (A) (A) (A) (A) (A) (A) (A)
                 (A) (A) (A) (A) (A) (A) (A) (A) (A) (A) (A) (A)
                 (A) (A) (A) (A) (A) (A) (A) (A) (A) (A) (A) (A)
                 (A) (A) (A)
 Beta  Orbitals:
       Occupied  (A) (A) (A) (A) (A) (A) (A) (A) (A) (A) (A) (A)
                 (A) (A) (A) (A) (A) (A) (A) (A) (A) (A) (A) (A)
                 (A) (A) (A) (A) (A) (A) (A) (A) (A) (A) (A) (A)
                 (A) (A) (A) (A) (A) (A) (A) (A) (A) (A) (A) (A)
                 (A) (A) (A) (A) (A) (A) (A) (A) (A) (A) (A) (A)
                 (A) (A) (A) (A) (A) (A) (A) (A) (A) (A) (A) (A)
                 (A) (A) (A) (A) (A) (A) (A) (A) (A) (A) (A) (A)
                 (A) (A) (A) (A) (A) (A) (A) (A) (A) (A)
       Virtual   (A) (A) (A) (A) (A) (A) (A) (A) (A) (A) (A) (A)
                 (A) (A) (A) (A) (A) (A) (A) (A) (A) (A) (A) (A)
                 (A) (A) (A) (A) (A) (A) (A) (A) (A) (A) (A) (A)
                 (A) (A) (A) (A) (A) (A) (A) (A) (A) (A) (A) (A)
                 (A) (A) (A) (A) (A) (A) (A) (A) (A) (A) (A) (A)
                 (A) (A) (A) (A) (A) (A) (A) (A) (A) (A) (A) (A)
                 (A) (A) (A) (A) (A) (A) (A) (A) (A) (A) (A) (A)
                 (A) (A) (A) (A) (A) (A) (A) (A) (A) (A) (A) (A)
                 (A) (A) (A) (A) (A) (A) (A) (A) (A) (A) (A) (A)
                 (A) (A) (A) (A) (A) (A) (A) (A) (A) (A) (A) (A)
                 (A) (A) (A) (A) (A) (A) (A) (A) (A) (A) (A) (A)
                 (A) (A) (A) (A) (A) (A) (A) (A) (A) (A) (A) (A)
                 (A) (A) (A) (A) (A) (A) (A) (A) (A) (A) (A) (A)
                 (A) (A) (A) (A) (A) (A) (A) (A) (A) (A) (A) (A)
                 (A) (A) (A) (A) (A) (A) (A) (A) (A) (A) (A) (A)
                 (A) (A) (A) (A) (A) (A) (A) (A) (A) (A) (A) (A)
                 (A) (A) (A) (A) (A) (A) (A) (A) (A) (A) (A) (A)
                 (A) (A) (A) (A) (A) (A) (A) (A) (A) (A) (A) (A)
                 (A) (A) (A) (A) (A) (A) (A) (A) (A) (A) (A) (A)
                 (A) (A) (A) (A) (A) (A) (A) (A) (A) (A) (A) (A)
                 (A) (A) (A) (A) (A) (A) (A) (A) (A) (A) (A) (A)
                 (A) (A) (A) (A) (A) (A) (A) (A) (A) (A) (A) (A)
                 (A) (A) (A) (A) (A) (A) (A) (A) (A) (A) (A) (A)
                 (A) (A) (A) (A) (A) (A) (A) (A) (A) (A) (A) (A)
                 (A) (A) (A) (A) (A) (A) (A) (A) (A) (A) (A) (A)
                 (A) (A) (A) (A) (A) (A) (A) (A) (A) (A) (A) (A)
                 (A) (A) (A) (A) (A) (A) (A) (A) (A) (A) (A) (A)
                 (A) (A) (A) (A) (A) (A) (A) (A) (A) (A) (A) (A)
                 (A) (A) (A) (A) (A) (A) (A) (A) (A) (A) (A) (A)
                 (A) (A) (A) (A) (A) (A) (A) (A) (A) (A) (A) (A)
                 (A) (A) (A) (A) (A) (A) (A) (A) (A) (A) (A) (A)
                 (A) (A) (A) (A)
 The electronic state of the initial guess is 2-A.
 <S**2> of initial guess= 1.0000
 Leave Link  401 at Mon Mar 28 14:39:11 2011, MaxMem= 1073741824 cpu:      53.4
 (Enter /system/software/hal/g03-e01-patched/g03/l502.exe)
 UHF open shell SCF:
 Requested convergence on RMS density matrix=1.00D-08 within 128 cycles.
 Requested convergence on MAX density matrix=1.00D-06.
 Requested convergence on             energy=1.00D-06.
 No special actions if energy rises.
 Using DIIS extrapolation, IDIIS=  1040.
 Integral symmetry usage will be decided dynamically.
       717738 words used for storage of precomputed grid.
 IEnd=   1603378 IEndB=   1603378 NGot=1073741824 MDV=1072401599
 LenX=1072401599
 Fock matrices will be formed incrementally for  20 cycles.

 Cycle   1  Pass 1  IDiag  1:
 Petite list used in FoFDir.
 MinBra= 0 MaxBra= 2 Meth= 1.
 IRaf=       0 NMat=   1 IRICut=       1 DoRegI=T DoRafI=F ISym2E= 1 JSym2E=1.
 E= -1934.81916527359    
 DIIS: error= 6.54D-02 at cycle   1 NSaved=   1.
 NSaved= 1 IEnMin= 1 EnMin= -1934.81916527359     IErMin= 1 ErrMin= 6.54D-02
 ErrMax= 6.54D-02 EMaxC= 1.00D-01 BMatC= 4.85D+00 BMatP= 4.85D+00
 IDIUse=3 WtCom= 3.46D-01 WtEn= 6.54D-01
 Coeff-Com:  0.100D+01
 Coeff-En:   0.100D+01
 Coeff:      0.100D+01
 Gap=     0.008 Goal=   None    Shift=    0.000
 Gap=     0.039 Goal=   None    Shift=    0.000
 GapD=    0.008 DampG=0.250 DampE=0.500 DampFc=0.2500 IDamp=-1.
 Damping current iteration by 2.50D-01
 RMSDP=1.90D-02 MaxDP=1.14D+00              OVMax= 6.24D-01

 Cycle   2  Pass 1  IDiag  1:
 RMSU=  4.75D-03    CP:  1.00D+00
 E= -1935.20284935846     Delta-E=       -0.383684084872 Rises=F Damp=T
 DIIS: error= 2.31D-02 at cycle   2 NSaved=   2.
 NSaved= 2 IEnMin= 2 EnMin= -1935.20284935846     IErMin= 2 ErrMin= 2.31D-02
 ErrMax= 2.31D-02 EMaxC= 1.00D-01 BMatC= 7.48D-01 BMatP= 4.85D+00
 IDIUse=3 WtCom= 7.69D-01 WtEn= 2.31D-01
 Coeff-Com: -0.518D+00 0.152D+01
 Coeff-En:   0.000D+00 0.100D+01
 Coeff:     -0.399D+00 0.140D+01
 Gap=     0.080 Goal=   None    Shift=    0.000
 Gap=     0.144 Goal=   None    Shift=    0.000
 RMSDP=4.46D-03 MaxDP=2.21D-01 DE=-3.84D-01 OVMax= 2.22D-01

 Cycle   3  Pass 1  IDiag  1:
 RMSU=  3.89D-03    CP:  8.88D-01  1.08D+00
 E= -1935.86071440298     Delta-E=       -0.657865044521 Rises=F Damp=F
 DIIS: error= 7.95D-03 at cycle   3 NSaved=   3.
 NSaved= 3 IEnMin= 3 EnMin= -1935.86071440298     IErMin= 3 ErrMin= 7.95D-03
 ErrMax= 7.95D-03 EMaxC= 1.00D-01 BMatC= 1.66D-01 BMatP= 7.48D-01
 IDIUse=3 WtCom= 9.21D-01 WtEn= 7.95D-02
 Coeff-Com: -0.216D+00 0.679D+00 0.537D+00
 Coeff-En:   0.000D+00 0.000D+00 0.100D+01
 Coeff:     -0.199D+00 0.625D+00 0.574D+00
 Gap=     0.068 Goal=   None    Shift=    0.000
 Gap=     0.152 Goal=   None    Shift=    0.000
 RMSDP=1.25D-03 MaxDP=5.84D-02 DE=-6.58D-01 OVMax= 1.04D-01

 Cycle   4  Pass 1  IDiag  1:
 RMSU=  9.87D-04    CP:  9.05D-01  1.11D+00  8.25D-01
 E= -1935.90182142303     Delta-E=       -0.041107020046 Rises=F Damp=F
 DIIS: error= 6.15D-03 at cycle   4 NSaved=   4.
 NSaved= 4 IEnMin= 4 EnMin= -1935.90182142303     IErMin= 4 ErrMin= 6.15D-03
 ErrMax= 6.15D-03 EMaxC= 1.00D-01 BMatC= 4.17D-02 BMatP= 1.66D-01
 IDIUse=3 WtCom= 9.38D-01 WtEn= 6.15D-02
 Coeff-Com: -0.555D-01 0.190D+00 0.336D+00 0.530D+00
 Coeff-En:   0.000D+00 0.000D+00 0.115D+00 0.885D+00
 Coeff:     -0.520D-01 0.178D+00 0.322D+00 0.552D+00
 Gap=     0.082 Goal=   None    Shift=    0.000
 Gap=     0.151 Goal=   None    Shift=    0.000
 RMSDP=1.02D-03 MaxDP=4.49D-02 DE=-4.11D-02 OVMax= 5.64D-02

 Cycle   5  Pass 1  IDiag  1:
 RMSU=  4.23D-04    CP:  8.96D-01  9.33D-01  8.97D-01  7.64D-01
 E= -1935.91131836475     Delta-E=       -0.009496941727 Rises=F Damp=F
 DIIS: error= 2.68D-03 at cycle   5 NSaved=   5.
 NSaved= 5 IEnMin= 5 EnMin= -1935.91131836475     IErMin= 5 ErrMin= 2.68D-03
 ErrMax= 2.68D-03 EMaxC= 1.00D-01 BMatC= 6.25D-03 BMatP= 4.17D-02
 IDIUse=3 WtCom= 9.73D-01 WtEn= 2.68D-02
 Coeff-Com:  0.366D-02-0.384D-02 0.922D-01 0.321D+00 0.587D+00
 Coeff-En:   0.000D+00 0.000D+00 0.000D+00 0.406D-01 0.959D+00
 Coeff:      0.356D-02-0.374D-02 0.898D-01 0.313D+00 0.597D+00
 Gap=     0.082 Goal=   None    Shift=    0.000
 Gap=     0.155 Goal=   None    Shift=    0.000
 RMSDP=3.85D-04 MaxDP=1.93D-02 DE=-9.50D-03 OVMax= 3.77D-02

 Cycle   6  Pass 1  IDiag  1:
 RMSU=  1.80D-04    CP:  8.98D-01  9.99D-01  8.94D-01  8.24D-01  7.33D-01
 E= -1935.91300040801     Delta-E=       -0.001682043257 Rises=F Damp=F
 DIIS: error= 8.47D-04 at cycle   6 NSaved=   6.
 NSaved= 6 IEnMin= 6 EnMin= -1935.91300040801     IErMin= 6 ErrMin= 8.47D-04
 ErrMax= 8.47D-04 EMaxC= 1.00D-01 BMatC= 6.28D-04 BMatP= 6.25D-03
 IDIUse=3 WtCom= 9.92D-01 WtEn= 8.47D-03
 Coeff-Com:  0.593D-02-0.145D-01 0.200D-01 0.105D+00 0.297D+00 0.587D+00
 Coeff-En:   0.000D+00 0.000D+00 0.000D+00 0.000D+00 0.000D+00 0.100D+01
 Coeff:      0.588D-02-0.144D-01 0.198D-01 0.104D+00 0.295D+00 0.590D+00
 Gap=     0.083 Goal=   None    Shift=    0.000
 Gap=     0.149 Goal=   None    Shift=    0.000
 RMSDP=1.03D-04 MaxDP=4.71D-03 DE=-1.68D-03 OVMax= 1.92D-02

 Cycle   7  Pass 1  IDiag  1:
 RMSU=  5.37D-05    CP:  8.97D-01  9.88D-01  9.05D-01  8.20D-01  8.20D-01
                    CP:  1.22D+00
 E= -1935.91326042521     Delta-E=       -0.000260017198 Rises=F Damp=F
 DIIS: error= 3.47D-04 at cycle   7 NSaved=   7.
 NSaved= 7 IEnMin= 7 EnMin= -1935.91326042521     IErMin= 7 ErrMin= 3.47D-04
 ErrMax= 3.47D-04 EMaxC= 1.00D-01 BMatC= 1.61D-04 BMatP= 6.28D-04
 IDIUse=3 WtCom= 9.97D-01 WtEn= 3.47D-03
 Coeff-Com:  0.224D-02-0.499D-02-0.115D-01-0.348D-01-0.127D-01 0.305D+00
 Coeff-Com:  0.757D+00
 Coeff-En:   0.000D+00 0.000D+00 0.000D+00 0.000D+00 0.000D+00 0.000D+00
 Coeff-En:   0.100D+01
 Coeff:      0.223D-02-0.498D-02-0.115D-01-0.347D-01-0.126D-01 0.304D+00
 Coeff:      0.758D+00
 Gap=     0.084 Goal=   None    Shift=    0.000
 Gap=     0.149 Goal=   None    Shift=    0.000
 RMSDP=6.25D-05 MaxDP=4.49D-03 DE=-2.60D-04 OVMax= 2.05D-02

 Cycle   8  Pass 1  IDiag  1:
 RMSU=  3.62D-05    CP:  8.97D-01  9.84D-01  9.08D-01  8.28D-01  8.86D-01
                    CP:  1.42D+00  1.04D+00
 E= -1935.91339703227     Delta-E=       -0.000136607066 Rises=F Damp=F
 DIIS: error= 2.23D-04 at cycle   8 NSaved=   8.
 NSaved= 8 IEnMin= 8 EnMin= -1935.91339703227     IErMin= 8 ErrMin= 2.23D-04
 ErrMax= 2.23D-04 EMaxC= 1.00D-01 BMatC= 6.84D-05 BMatP= 1.61D-04
 IDIUse=3 WtCom= 9.98D-01 WtEn= 2.23D-03
 Coeff-Com: -0.107D-03 0.108D-02-0.129D-01-0.555D-01-0.101D+00-0.408D-01
 Coeff-Com:  0.466D+00 0.743D+00
 Coeff-En:   0.000D+00 0.000D+00 0.000D+00 0.000D+00 0.000D+00 0.000D+00
 Coeff-En:   0.000D+00 0.100D+01
 Coeff:     -0.107D-03 0.108D-02-0.129D-01-0.554D-01-0.101D+00-0.407D-01
 Coeff:      0.465D+00 0.744D+00
 Gap=     0.084 Goal=   None    Shift=    0.000
 Gap=     0.149 Goal=   None    Shift=    0.000
 RMSDP=5.25D-05 MaxDP=3.06D-03 DE=-1.37D-04 OVMax= 1.41D-02

 Cycle   9  Pass 1  IDiag  1:
 RMSU=  1.75D-05    CP:  8.97D-01  9.83D-01  9.11D-01  8.28D-01  9.10D-01
                    CP:  1.64D+00  1.42D+00  1.13D+00
 E= -1935.91345579203     Delta-E=       -0.000058759760 Rises=F Damp=F
 DIIS: error= 1.18D-04 at cycle   9 NSaved=   9.
 NSaved= 9 IEnMin= 9 EnMin= -1935.91345579203     IErMin= 9 ErrMin= 1.18D-04
 ErrMax= 1.18D-04 EMaxC= 1.00D-01 BMatC= 1.78D-05 BMatP= 6.84D-05
 IDIUse=3 WtCom= 9.99D-01 WtEn= 1.18D-03
 Coeff-Com: -0.791D-03 0.277D-02-0.144D-02-0.169D-01-0.443D-01-0.111D+00
 Coeff-Com:  0.267D-01 0.409D+00 0.736D+00
 Coeff-En:   0.000D+00 0.000D+00 0.000D+00 0.000D+00 0.000D+00 0.000D+00
 Coeff-En:   0.000D+00 0.000D+00 0.100D+01
 Coeff:     -0.790D-03 0.277D-02-0.144D-02-0.169D-01-0.442D-01-0.111D+00
 Coeff:      0.266D-01 0.409D+00 0.737D+00
 Gap=     0.084 Goal=   None    Shift=    0.000
 Gap=     0.149 Goal=   None    Shift=    0.000
 RMSDP=2.12D-05 MaxDP=1.78D-03 DE=-5.88D-05 OVMax= 6.89D-03

 Cycle  10  Pass 1  IDiag  1:
 RMSU=  8.13D-06    CP:  8.97D-01  9.82D-01  9.12D-01  8.28D-01  9.30D-01
                    CP:  1.71D+00  1.54D+00  1.41D+00  1.04D+00
 E= -1935.91347161714     Delta-E=       -0.000015825101 Rises=F Damp=F
 DIIS: error= 5.14D-05 at cycle  10 NSaved=  10.
 NSaved=10 IEnMin=10 EnMin= -1935.91347161714     IErMin=10 ErrMin= 5.14D-05
 ErrMax= 5.14D-05 EMaxC= 1.00D-01 BMatC= 3.86D-06 BMatP= 1.78D-05
 IDIUse=1 WtCom= 1.00D+00 WtEn= 0.00D+00
 Coeff-Com:  0.231D-04 0.103D-04 0.428D-02 0.141D-01 0.251D-01-0.184D-01
 Coeff-Com: -0.155D+00-0.115D+00 0.265D+00 0.980D+00
 Coeff:      0.231D-04 0.103D-04 0.428D-02 0.141D-01 0.251D-01-0.184D-01
 Coeff:     -0.155D+00-0.115D+00 0.265D+00 0.980D+00
 Gap=     0.084 Goal=   None    Shift=    0.000
 Gap=     0.149 Goal=   None    Shift=    0.000
 RMSDP=1.29D-05 MaxDP=1.12D-03 DE=-1.58D-05 OVMax= 3.19D-03

 Cycle  11  Pass 1  IDiag  1:
 RMSU=  5.56D-06    CP:  8.97D-01  9.80D-01  9.13D-01  8.27D-01  9.40D-01
                    CP:  1.73D+00  1.61D+00  1.56D+00  1.23D+00  1.41D+00
 E= -1935.91347648937     Delta-E=       -0.000004872236 Rises=F Damp=F
 DIIS: error= 2.96D-05 at cycle  11 NSaved=  11.
 NSaved=11 IEnMin=11 EnMin= -1935.91347648937     IErMin=11 ErrMin= 2.96D-05
 ErrMax= 2.96D-05 EMaxC= 1.00D-01 BMatC= 1.39D-06 BMatP= 3.86D-06
 IDIUse=1 WtCom= 1.00D+00 WtEn= 0.00D+00
 Coeff-Com:  0.211D-03-0.626D-03 0.251D-02 0.107D-01 0.219D-01 0.168D-01
 Coeff-Com: -0.850D-01-0.149D+00-0.171D-02 0.519D+00 0.665D+00
 Coeff:      0.211D-03-0.626D-03 0.251D-02 0.107D-01 0.219D-01 0.168D-01
 Coeff:     -0.850D-01-0.149D+00-0.171D-02 0.519D+00 0.665D+00
 Gap=     0.084 Goal=   None    Shift=    0.000
 Gap=     0.149 Goal=   None    Shift=    0.000
 RMSDP=5.19D-06 MaxDP=4.89D-04 DE=-4.87D-06 OVMax= 9.79D-04

 Cycle  12  Pass 1  IDiag  1:
 RMSU=  3.00D-06    CP:  8.97D-01  9.81D-01  9.13D-01  8.27D-01  9.40D-01
                    CP:  1.74D+00  1.64D+00  1.58D+00  1.34D+00  1.57D+00
                    CP:  9.45D-01
 E= -1935.91347753774     Delta-E=       -0.000001048369 Rises=F Damp=F
 DIIS: error= 1.94D-05 at cycle  12 NSaved=  12.
 NSaved=12 IEnMin=12 EnMin= -1935.91347753774     IErMin=12 ErrMin= 1.94D-05
 ErrMax= 1.94D-05 EMaxC= 1.00D-01 BMatC= 4.59D-07 BMatP= 1.39D-06
 IDIUse=1 WtCom= 1.00D+00 WtEn= 0.00D+00
 Coeff-Com:  0.128D-03-0.398D-03 0.153D-03 0.214D-02 0.523D-02 0.170D-01
 Coeff-Com: -0.369D-02-0.586D-01-0.863D-01-0.252D-01 0.378D+00 0.772D+00
 Coeff:      0.128D-03-0.398D-03 0.153D-03 0.214D-02 0.523D-02 0.170D-01
 Coeff:     -0.369D-02-0.586D-01-0.863D-01-0.252D-01 0.378D+00 0.772D+00
 Gap=     0.084 Goal=   None    Shift=    0.000
 Gap=     0.149 Goal=   None    Shift=    0.000
 RMSDP=2.90D-06 MaxDP=3.43D-04 DE=-1.05D-06 OVMax= 6.45D-04

 Cycle  13  Pass 1  IDiag  1:
 RMSU=  1.57D-06    CP:  8.97D-01  9.80D-01  9.13D-01  8.28D-01  9.41D-01
                    CP:  1.75D+00  1.64D+00  1.61D+00  1.39D+00  1.73D+00
                    CP:  1.20D+00  1.10D+00
 E= -1935.91347795954     Delta-E=       -0.000000421795 Rises=F Damp=F
 DIIS: error= 1.42D-05 at cycle  13 NSaved=  13.
 NSaved=13 IEnMin=13 EnMin= -1935.91347795954     IErMin=13 ErrMin= 1.42D-05
 ErrMax= 1.42D-05 EMaxC= 1.00D-01 BMatC= 2.06D-07 BMatP= 4.59D-07
 IDIUse=1 WtCom= 1.00D+00 WtEn= 0.00D+00
 Coeff-Com: -0.184D-04 0.362D-04-0.697D-03-0.222D-02-0.429D-02 0.484D-02
 Coeff-Com:  0.259D-01 0.119D-01-0.510D-01-0.193D+00 0.156D-01 0.530D+00
 Coeff-Com:  0.663D+00
 Coeff:     -0.184D-04 0.362D-04-0.697D-03-0.222D-02-0.429D-02 0.484D-02
 Coeff:      0.259D-01 0.119D-01-0.510D-01-0.193D+00 0.156D-01 0.530D+00
 Coeff:      0.663D+00
 Gap=     0.084 Goal=   None    Shift=    0.000
 Gap=     0.149 Goal=   None    Shift=    0.000
 RMSDP=2.44D-06 MaxDP=1.78D-04 DE=-4.22D-07 OVMax= 2.33D-04

 Cycle  14  Pass 1  IDiag  1:
 RMSU=  1.08D-06    CP:  8.97D-01  9.80D-01  9.13D-01  8.28D-01  9.42D-01
                    CP:  1.75D+00  1.65D+00  1.61D+00  1.41D+00  1.78D+00
                    CP:  1.26D+00  1.55D+00  8.41D-01
 E= -1935.91347809037     Delta-E=       -0.000000130838 Rises=F Damp=F
 DIIS: error= 6.21D-06 at cycle  14 NSaved=  14.
 NSaved=14 IEnMin=14 EnMin= -1935.91347809037     IErMin=14 ErrMin= 6.21D-06
 ErrMax= 6.21D-06 EMaxC= 1.00D-01 BMatC= 2.00D-08 BMatP= 2.06D-07
 IDIUse=1 WtCom= 1.00D+00 WtEn= 0.00D+00
 Coeff-Com: -0.391D-04 0.106D-03-0.281D-03-0.123D-02-0.242D-02-0.220D-02
 Coeff-Com:  0.112D-01 0.186D-01 0.336D-02-0.614D-01-0.938D-01-0.214D-02
 Coeff-Com:  0.200D+00 0.930D+00
 Coeff:     -0.391D-04 0.106D-03-0.281D-03-0.123D-02-0.242D-02-0.220D-02
 Coeff:      0.112D-01 0.186D-01 0.336D-02-0.614D-01-0.938D-01-0.214D-02
 Coeff:      0.200D+00 0.930D+00
 Gap=     0.084 Goal=   None    Shift=    0.000
 Gap=     0.149 Goal=   None    Shift=    0.000
 RMSDP=7.89D-07 MaxDP=8.63D-05 DE=-1.31D-07 OVMax= 1.78D-04

 Cycle  15  Pass 1  IDiag  1:
 RMSU=  4.92D-07    CP:  8.97D-01  9.80D-01  9.13D-01  8.28D-01  9.42D-01
                    CP:  1.75D+00  1.65D+00  1.61D+00  1.41D+00  1.80D+00
                    CP:  1.31D+00  1.65D+00  1.08D+00  9.88D-01
 E= -1935.91347811431     Delta-E=       -0.000000023942 Rises=F Damp=F
 DIIS: error= 3.67D-06 at cycle  15 NSaved=  15.
 NSaved=15 IEnMin=15 EnMin= -1935.91347811431     IErMin=15 ErrMin= 3.67D-06
 ErrMax= 3.67D-06 EMaxC= 1.00D-01 BMatC= 1.72D-08 BMatP= 2.00D-08
 IDIUse=1 WtCom= 1.00D+00 WtEn= 0.00D+00
 Coeff-Com: -0.298D-04 0.777D-04-0.798D-04-0.520D-03-0.109D-02-0.325D-02
 Coeff-Com:  0.205D-02 0.104D-01 0.131D-01-0.171D-02-0.713D-01-0.108D+00
 Coeff-Com: -0.183D-01 0.638D+00 0.540D+00
 Coeff:     -0.298D-04 0.777D-04-0.798D-04-0.520D-03-0.109D-02-0.325D-02
 Coeff:      0.205D-02 0.104D-01 0.131D-01-0.171D-02-0.713D-01-0.108D+00
 Coeff:     -0.183D-01 0.638D+00 0.540D+00
 Gap=     0.084 Goal=   None    Shift=    0.000
 Gap=     0.149 Goal=   None    Shift=    0.000
 RMSDP=7.83D-07 MaxDP=3.82D-05 DE=-2.39D-08 OVMax= 5.74D-05

 Cycle  16  Pass 1  IDiag  1:
 RMSU=  2.21D-07    CP:  8.97D-01  9.80D-01  9.13D-01  8.28D-01  9.42D-01
                    CP:  1.76D+00  1.66D+00  1.61D+00  1.42D+00  1.80D+00
                    CP:  1.30D+00  1.76D+00  1.08D+00  1.30D+00  8.46D-01
 E= -1935.91347812225     Delta-E=       -0.000000007939 Rises=F Damp=F
 DIIS: error= 1.28D-06 at cycle  16 NSaved=  16.
 NSaved=16 IEnMin=16 EnMin= -1935.91347812225     IErMin=16 ErrMin= 1.28D-06
 ErrMax= 1.28D-06 EMaxC= 1.00D-01 BMatC= 1.40D-09 BMatP= 1.72D-08
 IDIUse=1 WtCom= 1.00D+00 WtEn= 0.00D+00
 Coeff-Com:  0.471D-05-0.110D-04 0.830D-04 0.276D-03 0.566D-03-0.185D-03
 Coeff-Com: -0.244D-02-0.286D-02 0.281D-02 0.209D-01 0.356D-02-0.270D-01
 Coeff-Com: -0.782D-01-0.729D-01 0.145D+00 0.101D+01
 Coeff:      0.471D-05-0.110D-04 0.830D-04 0.276D-03 0.566D-03-0.185D-03
 Coeff:     -0.244D-02-0.286D-02 0.281D-02 0.209D-01 0.356D-02-0.270D-01
 Coeff:     -0.782D-01-0.729D-01 0.145D+00 0.101D+01
 Gap=     0.084 Goal=   None    Shift=    0.000
 Gap=     0.149 Goal=   None    Shift=    0.000
 RMSDP=1.99D-07 MaxDP=2.36D-05 DE=-7.94D-09 OVMax= 4.31D-05

 Cycle  17  Pass 1  IDiag  1:
 RMSU=  9.40D-08    CP:  8.97D-01  9.80D-01  9.13D-01  8.28D-01  9.42D-01
                    CP:  1.76D+00  1.66D+00  1.61D+00  1.42D+00  1.80D+00
                    CP:  1.30D+00  1.78D+00  1.10D+00  1.38D+00  1.06D+00
                    CP:  1.14D+00
 E= -1935.91347812385     Delta-E=       -0.000000001598 Rises=F Damp=F
 DIIS: error= 6.15D-07 at cycle  17 NSaved=  17.
 NSaved=17 IEnMin=17 EnMin= -1935.91347812385     IErMin=17 ErrMin= 6.15D-07
 ErrMax= 6.15D-07 EMaxC= 1.00D-01 BMatC= 4.90D-10 BMatP= 1.40D-09
 IDIUse=1 WtCom= 1.00D+00 WtEn= 0.00D+00
 Coeff-Com:  0.837D-05-0.200D-04 0.449D-04 0.179D-03 0.384D-03 0.311D-03
 Coeff-Com: -0.130D-02-0.274D-02-0.422D-03 0.100D-01 0.104D-01 0.494D-02
 Coeff-Com: -0.369D-01-0.126D+00-0.223D-01 0.496D+00 0.667D+00
 Coeff:      0.837D-05-0.200D-04 0.449D-04 0.179D-03 0.384D-03 0.311D-03
 Coeff:     -0.130D-02-0.274D-02-0.422D-03 0.100D-01 0.104D-01 0.494D-02
 Coeff:     -0.369D-01-0.126D+00-0.223D-01 0.496D+00 0.667D+00
 Gap=     0.084 Goal=   None    Shift=    0.000
 Gap=     0.149 Goal=   None    Shift=    0.000
 RMSDP=9.45D-08 MaxDP=7.41D-06 DE=-1.60D-09 OVMax= 9.09D-06

 Cycle  18  Pass 1  IDiag  1:
 RMSU=  3.99D-08    CP:  8.97D-01  9.80D-01  9.13D-01  8.28D-01  9.42D-01
                    CP:  1.76D+00  1.66D+00  1.61D+00  1.42D+00  1.80D+00
                    CP:  1.30D+00  1.79D+00  1.10D+00  1.42D+00  1.10D+00
                    CP:  1.30D+00  1.12D+00
 E= -1935.91347812418     Delta-E=       -0.000000000331 Rises=F Damp=F
 DIIS: error= 2.43D-07 at cycle  18 NSaved=  18.
 NSaved=18 IEnMin=18 EnMin= -1935.91347812418     IErMin=18 ErrMin= 2.43D-07
 ErrMax= 2.43D-07 EMaxC= 1.00D-01 BMatC= 1.08D-10 BMatP= 4.90D-10
 IDIUse=1 WtCom= 1.00D+00 WtEn= 0.00D+00
 Coeff-Com:  0.265D-05-0.497D-05-0.299D-05-0.638D-05 0.189D-05 0.206D-03
 Coeff-Com:  0.222D-03-0.418D-03-0.114D-02-0.231D-02 0.347D-02 0.132D-01
 Coeff-Com:  0.751D-02-0.332D-01-0.674D-01-0.992D-01 0.313D+00 0.866D+00
 Coeff:      0.265D-05-0.497D-05-0.299D-05-0.638D-05 0.189D-05 0.206D-03
 Coeff:      0.222D-03-0.418D-03-0.114D-02-0.231D-02 0.347D-02 0.132D-01
 Coeff:      0.751D-02-0.332D-01-0.674D-01-0.992D-01 0.313D+00 0.866D+00
 Gap=     0.084 Goal=   None    Shift=    0.000
 Gap=     0.149 Goal=   None    Shift=    0.000
 RMSDP=5.50D-08 MaxDP=4.57D-06 DE=-3.31D-10 OVMax= 5.65D-06

 Cycle  19  Pass 1  IDiag  1:
 RMSU=  1.79D-08    CP:  8.97D-01  9.80D-01  9.13D-01  8.28D-01  9.42D-01
                    CP:  1.76D+00  1.66D+00  1.61D+00  1.42D+00  1.80D+00
                    CP:  1.30D+00  1.80D+00  1.10D+00  1.43D+00  1.12D+00
                    CP:  1.38D+00  1.36D+00  1.06D+00
 E= -1935.91347812415     Delta-E=        0.000000000033 Rises=F Damp=F
 DIIS: error= 8.47D-08 at cycle  19 NSaved=  19.
 NSaved=19 IEnMin=18 EnMin= -1935.91347812418     IErMin=19 ErrMin= 8.47D-08
 ErrMax= 8.47D-08 EMaxC= 1.00D-01 BMatC= 1.52D-11 BMatP= 1.08D-10
 IDIUse=1 WtCom= 1.00D+00 WtEn= 0.00D+00
 Coeff-Com: -0.369D-06 0.125D-05-0.675D-05-0.271D-04-0.453D-04 0.167D-04
 Coeff-Com:  0.252D-03 0.269D-03-0.231D-03-0.215D-02-0.235D-03 0.293D-02
 Coeff-Com:  0.679D-02 0.913D-02-0.175D-01-0.919D-01-0.157D-01 0.253D+00
 Coeff-Com:  0.855D+00
 Coeff:     -0.369D-06 0.125D-05-0.675D-05-0.271D-04-0.453D-04 0.167D-04
 Coeff:      0.252D-03 0.269D-03-0.231D-03-0.215D-02-0.235D-03 0.293D-02
 Coeff:      0.679D-02 0.913D-02-0.175D-01-0.919D-01-0.157D-01 0.253D+00
 Coeff:      0.855D+00
 Gap=     0.084 Goal=   None    Shift=    0.000
 Gap=     0.149 Goal=   None    Shift=    0.000
 RMSDP=1.56D-08 MaxDP=1.92D-06 DE= 3.27D-11 OVMax= 2.37D-06

 Cycle  20  Pass 1  IDiag  1:
 Restarting incremental Fock formation.
 E= -1935.91347812404     Delta-E=        0.000000000108 Rises=F Damp=F
 DIIS: error= 5.45D-08 at cycle  20 NSaved=  20.
 NSaved=20 IEnMin=18 EnMin= -1935.91347812418     IErMin=20 ErrMin= 5.45D-08
 ErrMax= 5.45D-08 EMaxC= 1.00D-01 BMatC= 1.13D-11 BMatP= 1.52D-11
 IDIUse=1 WtCom= 1.00D+00 WtEn= 0.00D+00
 Coeff-Com: -0.986D-06 0.214D-05-0.455D-05-0.199D-04-0.352D-04-0.533D-04
 Coeff-Com:  0.119D-03 0.327D-03 0.170D-03-0.902D-03-0.110D-02-0.190D-02
 Coeff-Com:  0.243D-02 0.160D-01 0.583D-02-0.335D-01-0.985D-01-0.624D-01
 Coeff-Com:  0.593D+00 0.580D+00
 Coeff:     -0.986D-06 0.214D-05-0.455D-05-0.199D-04-0.352D-04-0.533D-04
 Coeff:      0.119D-03 0.327D-03 0.170D-03-0.902D-03-0.110D-02-0.190D-02
 Coeff:      0.243D-02 0.160D-01 0.583D-02-0.335D-01-0.985D-01-0.624D-01
 Coeff:      0.593D+00 0.580D+00
 Gap=     0.084 Goal=   None    Shift=    0.000
 Gap=     0.149 Goal=   None    Shift=    0.000
 RMSDP=1.36D-08 MaxDP=1.08D-06 DE= 1.08D-10 OVMax= 1.41D-06

 Cycle  21  Pass 1  IDiag  1:
 RMSU=  1.36D-08    CP:  1.00D+00
 E= -1935.91347812333     Delta-E=        0.000000000717 Rises=F Damp=F
 DIIS: error= 3.20D-08 at cycle  21 NSaved=  20.
 NSaved=20 IEnMin=17 EnMin= -1935.91347812418     IErMin=20 ErrMin= 3.20D-08
 ErrMax= 3.20D-08 EMaxC= 1.00D-01 BMatC= 1.50D-12 BMatP= 1.13D-11
 IDIUse=1 WtCom= 1.00D+00 WtEn= 0.00D+00
 Coeff-Com: -0.200D-06 0.134D-05 0.474D-05 0.928D-05-0.164D-04-0.590D-04
 Coeff-Com: -0.649D-05 0.109D-03 0.513D-03-0.638D-04-0.172D-02-0.169D-02
 Coeff-Com:  0.139D-02 0.624D-02 0.252D-01-0.254D-01-0.113D+00-0.113D+00
 Coeff-Com:  0.185D+00 0.104D+01
 Coeff:     -0.200D-06 0.134D-05 0.474D-05 0.928D-05-0.164D-04-0.590D-04
 Coeff:     -0.649D-05 0.109D-03 0.513D-03-0.638D-04-0.172D-02-0.169D-02
 Coeff:      0.139D-02 0.624D-02 0.252D-01-0.254D-01-0.113D+00-0.113D+00
 Coeff:      0.185D+00 0.104D+01
 Gap=     0.084 Goal=   None    Shift=    0.000
 Gap=     0.149 Goal=   None    Shift=    0.000
 RMSDP=1.11D-08 MaxDP=8.08D-07 DE= 7.17D-10 OVMax= 1.36D-06

 Cycle  22  Pass 1  IDiag  1:
 RMSU=  6.15D-09    CP:  1.00D+00  1.68D+00
 E= -1935.91347812281     Delta-E=        0.000000000512 Rises=F Damp=F
 DIIS: error= 1.48D-08 at cycle  22 NSaved=  20.
 NSaved=20 IEnMin=16 EnMin= -1935.91347812418     IErMin=20 ErrMin= 1.48D-08
 ErrMax= 1.48D-08 EMaxC= 1.00D-01 BMatC= 6.65D-13 BMatP= 1.50D-12
 IDIUse=1 WtCom= 1.00D+00 WtEn= 0.00D+00
 Coeff-Com:  0.150D-05 0.478D-05 0.767D-05-0.715D-05-0.478D-04-0.290D-04
 Coeff-Com:  0.584D-04 0.416D-03 0.461D-05-0.899D-03-0.125D-02-0.629D-03
 Coeff-Com:  0.312D-02 0.196D-01-0.254D-02-0.619D-01-0.160D+00 0.102D-01
 Coeff-Com:  0.591D+00 0.602D+00
 Coeff:      0.150D-05 0.478D-05 0.767D-05-0.715D-05-0.478D-04-0.290D-04
 Coeff:      0.584D-04 0.416D-03 0.461D-05-0.899D-03-0.125D-02-0.629D-03
 Coeff:      0.312D-02 0.196D-01-0.254D-02-0.619D-01-0.160D+00 0.102D-01
 Coeff:      0.591D+00 0.602D+00
 Gap=     0.084 Goal=   None    Shift=    0.000
 Gap=     0.149 Goal=   None    Shift=    0.000
 RMSDP=2.53D-09 MaxDP=3.07D-07 DE= 5.12D-10 OVMax= 4.79D-07

 Error on total polarization charges =  0.05009
 SCF Done:  E(UB+HF-LYP) =  -1935.91347812     A.U. after   22 cycles
             Convg  =    0.2531D-08             -V/T =  2.0057
             S**2   =   0.7600
 KE= 1.924993539040D+03 PE=-9.065840447951D+03 EE= 2.982508440084D+03
 --------------------------------------------------------------------
 Variational PCM results
 =======================
 <psi(f)|   H    |psi(f)>                     (a.u.) =   -1935.431301
 <psi(f)|H+V(f)/2|psi(f)>                     (a.u.) =   -1935.913478
 Total free energy in solution:
  with all non electrostatic terms            (a.u.) =   -1935.892711
 --------------------------------------------------------------------
 (Polarized solute)-Solvent               (kcal/mol) =    -302.57
 --------------------------------------------------------------------
 Cavitation energy                        (kcal/mol) =      40.60
 Dispersion energy                        (kcal/mol) =     -29.60
 Repulsion energy                         (kcal/mol) =       2.03
 Total non electrostatic                  (kcal/mol) =      13.03
 --------------------------------------------------------------------
 Partition over spheres:
 Sphere  on Atom  Surface  Charge   GEl     GCav    GDR
    1      C1       0.69   0.003   -0.29    0.35   -0.02
    2      C2      10.97   0.001   -0.39    2.35   -1.36
    3      C3       2.56   0.011   -1.02    0.52   -0.28
    4      C4       2.52   0.011   -0.99    0.52   -0.28
    5      C5      15.09   0.009   -1.23    2.32   -1.74
    6      C6      14.23   0.008   -1.16    2.29   -1.67
    7      C10      4.07   0.011   -1.02    0.81   -0.50
    8      C11      4.07   0.011   -1.03    0.81   -0.50
    9      O12     15.12   0.251  -25.42    2.38   -1.67
   10      O13     15.12   0.251  -25.42    2.38   -1.67
   11      C14      2.56   0.011   -1.02    0.52   -0.28
   12      C15      2.52   0.011   -0.99    0.52   -0.28
   13      C16     10.97   0.001   -0.39    2.35   -1.36
   14      C17     15.09   0.009   -1.22    2.32   -1.74
   15      C18      0.69   0.003   -0.30    0.35   -0.02
   16      C20     14.23   0.008   -1.16    2.29   -1.67
   17      S23      1.15  -0.001    0.10    0.50   -0.08
   18      S24      1.15  -0.001    0.10    0.50   -0.08
   19      O25     17.91   0.292  -29.81    2.63   -1.96
   20      O26     18.64   0.302  -31.97    2.82   -2.11
   21      O27     18.63   0.302  -31.97    2.82   -2.11
   22      O28     17.91   0.292  -29.81    2.63   -1.96
   23      O29     18.63   0.302  -31.97    2.82   -2.11
   24      O30     18.64   0.302  -31.97    2.82   -2.11
 Added spheres:    82.03   0.512  -52.21    0.00    0.00
 --------------------------------------------------------------------
 After PCM corrections, the SCF energy is  -1935.91347812     a.u.
 --------------------------------------------------------------------
 Annihilation of the first spin contaminant:
 S**2 before annihilation     0.7600,   after     0.7500
 Leave Link  502 at Mon Mar 28 15:06:53 2011, MaxMem= 1073741824 cpu:   13267.1
 (Enter /system/software/hal/g03-e01-patched/g03/l801.exe)
 Range of M.O.s used for correlation:     1   470
 NBasis=   470 NAE=    95 NBE=    94 NFC=     0 NFV=     0
 NROrb=    470 NOA=    95 NOB=    94 NVA=   375 NVB=   376

 **** Warning!!: The largest alpha MO coefficient is  0.21721106D+02


 **** Warning!!: The smallest alpha delta epsilon is  0.83797044D-01


 **** Warning!!: The largest beta MO coefficient is  0.21715171D+02

 Leave Link  801 at Mon Mar 28 15:06:57 2011, MaxMem= 1073741824 cpu:       0.1
 (Enter /system/software/hal/g03-e01-patched/g03/l1002.exe)
 Minotr:  UHF wavefunction.
          Direct CPHF calculation.
          Solving linear equations simultaneously.
          Differentiating once with respect to magnetic field using GIAOs.
          Electric field/nuclear overlap derivatives assumed to be zero.
          Requested convergence is 1.0D-08 RMS, and 1.0D-07 maximum.
          Secondary convergence is 1.0D-12 RMS, and 1.0D-12 maximum.
          NewPWx=T KeepS1=F KeepF1=F KeepIn=T MapXYZ=F.
          MDV=    1073741582 using IRadAn=       1.
 Generate precomputed XC quadrature information.
 Symmetry not used in FoFDir.
 MinBra= 0 MaxBra= 2 Meth= 1.
 IRaf=       0 NMat=   1 IRICut=       1 DoRegI=T DoRafI=F ISym2E= 0 JSym2E=0.
          There are   3 degrees of freedom in the 1st order CPHF.
     3 vectors were produced by pass  0.
 AX will form   3 AO Fock derivatives at one time.
     3 vectors were produced by pass  1.
     3 vectors were produced by pass  2.
     3 vectors were produced by pass  3.
     3 vectors were produced by pass  4.
     3 vectors were produced by pass  5.
     3 vectors were produced by pass  6.
 Inv2:  IOpt= 1 Iter= 1 AM= 5.16D-16 Conv= 1.00D-12.
 Inverted reduced A of dimension   21 with in-core refinement.
 Calculating GIAO nuclear magnetic shielding tensors.
 SCF GIAO Magnetic shielding tensor (ppm):
  1  C    Isotropic =    33.4335   Anisotropy =   133.3701
   XX=   -23.2742   YX=   -17.6007   ZX=     0.0005
   XY=   -18.6849   YY=     1.2278   ZY=    -0.0001
   XZ=    -0.0003   YZ=    -0.0010   ZZ=   122.3469
   Eigenvalues:   -32.9149    10.8685   122.3469
  2  C    Isotropic =    62.6442   Anisotropy =   179.0469
   XX=    19.9741   YX=   -23.6288   ZX=     0.0003
   XY=   -24.5268   YY=   -14.0503   ZY=     0.0001
   XZ=    -0.0022   YZ=     0.0009   ZZ=   182.0088
   Eigenvalues:   -26.5196    32.4433   182.0088
  3  C    Isotropic =    55.1459   Anisotropy =   164.5388
   XX=     8.9196   YX=    11.4129   ZX=    -0.0006
   XY=    -3.3605   YY=    -8.3203   ZY=     0.0002
   XZ=    -0.0005   YZ=    -0.0009   ZZ=   164.8384
   Eigenvalues:    -9.2142     9.8135   164.8384
  4  C    Isotropic =    54.6672   Anisotropy =   169.4104
   XX=    -2.3780   YX=   -19.3251   ZX=     0.0010
   XY=    -3.1792   YY=    -1.2278   ZY=     0.0005
   XZ=    -0.0001   YZ=    -0.0030   ZZ=   167.6075
   Eigenvalues:   -13.0697     9.4639   167.6075
  5  C    Isotropic =    59.6690   Anisotropy =   182.8117
   XX=    34.3062   YX=   -11.5285   ZX=     0.0003
   XY=   -10.2352   YY=   -36.8427   ZY=    -0.0004
   XZ=     0.0042   YZ=     0.0008   ZZ=   181.5434
   Eigenvalues:   -38.4698    35.9333   181.5434
  6  C    Isotropic =    62.3956   Anisotropy =   160.2471
   XX=    16.8767   YX=    35.1524   ZX=     0.0000
   XY=    32.8798   YY=     1.0830   ZY=     0.0000
   XZ=    -0.0007   YZ=     0.0001   ZZ=   169.2270
   Eigenvalues:   -25.9408    43.9006   169.2270
  7  H    Isotropic =    22.7639   Anisotropy =    11.3080
   XX=    29.3308   YX=    -3.3165   ZX=    -0.0001
   XY=    -2.4570   YY=    21.7267   ZY=    -0.0001
   XZ=     0.0003   YZ=     0.0001   ZZ=    17.2342
   Eigenvalues:    17.2342    20.7550    30.3026
  8  H    Isotropic =    23.0965   Anisotropy =     8.6995
   XX=    28.8600   YX=    -0.6072   ZX=    -0.0001
   XY=    -0.3499   YY=    22.5729   ZY=    -0.0001
   XZ=    -0.0003   YZ=     0.0002   ZZ=    17.8566
   Eigenvalues:    17.8566    22.5367    28.8962
  9  H    Isotropic =    23.6429   Anisotropy =     9.5278
   XX=    27.1687   YX=     4.0482   ZX=     0.0001
   XY=     3.6643   YY=    24.7328   ZY=     0.0000
   XZ=     0.0001   YZ=     0.0001   ZZ=    19.0271
   Eigenvalues:    19.0271    21.9068    29.9948
 10  C    Isotropic =    17.2604   Anisotropy =   142.0502
   XX=   -42.0275   YX=     6.2220   ZX=    -0.0009
   XY=     5.3353   YY=   -18.1518   ZY=    -0.0015
   XZ=    -0.0042   YZ=     0.0014   ZZ=   111.9606
   Eigenvalues:   -43.3526   -16.8267   111.9606
 11  C    Isotropic =    17.2611   Anisotropy =   142.0496
   XX=   -42.0264   YX=     6.2209   ZX=     0.0004
   XY=     5.3340   YY=   -18.1512   ZY=     0.0015
   XZ=     0.0032   YZ=     0.0003   ZZ=   111.9608
   Eigenvalues:   -43.3510   -16.8266   111.9608
 12  O    Isotropic =   -60.0773   Anisotropy =   690.7365
   XX=  -152.6731   YX=   -73.6667   ZX=    -0.0348
   XY=   -76.0110   YY=  -427.9726   ZY=     0.0006
   XZ=    -0.0197   YZ=    -0.0064   ZZ=   400.4137
   Eigenvalues:  -447.0018  -133.6438   400.4137
 13  O    Isotropic =   -60.0688   Anisotropy =   690.7237
   XX=  -152.6621   YX=   -73.6604   ZX=     0.0334
   XY=   -76.0051   YY=  -427.9579   ZY=     0.0039
   XZ=     0.0180   YZ=     0.0097   ZZ=   400.4137
   Eigenvalues:  -446.9844  -133.6356   400.4137
 14  C    Isotropic =    55.1463   Anisotropy =   164.5380
   XX=     8.9203   YX=    11.4124   ZX=    -0.0001
   XY=    -3.3600   YY=    -8.3198   ZY=    -0.0008
   XZ=     0.0008   YZ=     0.0009   ZZ=   164.8383
   Eigenvalues:    -9.2137     9.8142   164.8383
 15  C    Isotropic =    54.6676   Anisotropy =   169.4093
   XX=    -2.3767   YX=   -19.3246   ZX=    -0.0016
   XY=    -3.1787   YY=    -1.2276   ZY=     0.0003
   XZ=    -0.0001   YZ=     0.0028   ZZ=   167.6072
   Eigenvalues:   -13.0685     9.4641   167.6072
 16  C    Isotropic =    62.6446   Anisotropy =   179.0470
   XX=    19.9749   YX=   -23.6288   ZX=    -0.0006
   XY=   -24.5271   YY=   -14.0504   ZY=    -0.0003
   XZ=     0.0032   YZ=     0.0011   ZZ=   182.0092
   Eigenvalues:   -26.5195    32.4441   182.0092
 17  C    Isotropic =    59.6701   Anisotropy =   182.8115
   XX=    34.3076   YX=   -11.5282   ZX=    -0.0002
   XY=   -10.2352   YY=   -36.8418   ZY=     0.0005
   XZ=    -0.0037   YZ=    -0.0015   ZZ=   181.5444
   Eigenvalues:   -38.4689    35.9347   181.5444
 18  C    Isotropic =    33.4339   Anisotropy =   133.3699
   XX=   -23.2733   YX=   -17.6003   ZX=    -0.0006
   XY=   -18.6847   YY=     1.2278   ZY=     0.0002
   XZ=     0.0004   YZ=     0.0022   ZZ=   122.3472
   Eigenvalues:   -32.9140    10.8685   122.3472
 19  H    Isotropic =    22.7639   Anisotropy =    11.3078
   XX=    29.3308   YX=    -3.3164   ZX=     0.0001
   XY=    -2.4570   YY=    21.7268   ZY=     0.0001
   XZ=    -0.0003   YZ=    -0.0001   ZZ=    17.2343
   Eigenvalues:    17.2343    20.7551    30.3025
 20  C    Isotropic =    62.3956   Anisotropy =   160.2462
   XX=    16.8770   YX=    35.1524   ZX=     0.0003
   XY=    32.8803   YY=     1.0835   ZY=     0.0000
   XZ=     0.0009   YZ=     0.0002   ZZ=   169.2264
   Eigenvalues:   -25.9407    43.9012   169.2264
 21  H    Isotropic =    23.0965   Anisotropy =     8.6995
   XX=    28.8599   YX=    -0.6072   ZX=     0.0001
   XY=    -0.3499   YY=    22.5729   ZY=     0.0001
   XZ=     0.0003   YZ=    -0.0002   ZZ=    17.8566
   Eigenvalues:    17.8566    22.5367    28.8961
 22  H    Isotropic =    23.6430   Anisotropy =     9.5278
   XX=    27.1687   YX=     4.0482   ZX=    -0.0001
   XY=     3.6643   YY=    24.7329   ZY=     0.0000
   XZ=    -0.0001   YZ=    -0.0001   ZZ=    19.0272
   Eigenvalues:    19.0272    21.9068    29.9949
 23  S    Isotropic =   212.0749   Anisotropy =   111.9775
   XX=    94.4112   YX=   -51.3188   ZX=     0.0067
   XY=   -53.3712   YY=   272.4791   ZY=     0.0029
   XZ=    -0.0053   YZ=     0.0054   ZZ=   269.3343
   Eigenvalues:    80.1638   269.3343   286.7266
 24  S    Isotropic =   212.0750   Anisotropy =   111.9778
   XX=    94.4118   YX=   -51.3189   ZX=    -0.0069
   XY=   -53.3712   YY=   272.4794   ZY=    -0.0032
   XZ=     0.0049   YZ=    -0.0053   ZZ=   269.3339
   Eigenvalues:    80.1643   269.3339   286.7269
 25  O    Isotropic =    99.4960   Anisotropy =   105.4406
   XX=    62.3934   YX=   -55.2366   ZX=     0.0029
   XY=   -48.9255   YY=   144.5334   ZY=    -0.0086
   XZ=     0.0001   YZ=    -0.0113   ZZ=    91.5612
   Eigenvalues:    37.1371    91.5612   169.7897
 26  O    Isotropic =    79.6766   Anisotropy =   112.3049
   XX=    40.2506   YX=    12.7114   ZX=    13.8190
   XY=    12.1193   YY=    70.6231   ZY=    46.6296
   XZ=    16.4693   YZ=    39.8243   ZZ=   128.1561
   Eigenvalues:    35.8197    48.6635   154.5465
 27  O    Isotropic =    79.6734   Anisotropy =   112.3154
   XX=    40.2401   YX=    12.7076   ZX=   -13.8259
   XY=    12.1165   YY=    70.6293   ZY=   -46.6371
   XZ=   -16.4766   YZ=   -39.8295   ZZ=   128.1508
   Eigenvalues:    35.8134    48.6565   154.5504
 28  O    Isotropic =    99.4962   Anisotropy =   105.4405
   XX=    62.3937   YX=   -55.2361   ZX=    -0.0031
   XY=   -48.9253   YY=   144.5339   ZY=     0.0083
   XZ=    -0.0003   YZ=     0.0107   ZZ=    91.5611
   Eigenvalues:    37.1377    91.5611   169.7899
 29  O    Isotropic =    79.6742   Anisotropy =   112.3156
   XX=    40.2414   YX=    12.7078   ZX=    13.8258
   XY=    12.1166   YY=    70.6290   ZY=    46.6366
   XZ=    16.4767   YZ=    39.8297   ZZ=   128.1521
   Eigenvalues:    35.8144    48.6569   154.5512
 30  O    Isotropic =    79.6770   Anisotropy =   112.3045
   XX=    40.2506   YX=    12.7112   ZX=   -13.8190
   XY=    12.1190   YY=    70.6252   ZY=   -46.6302
   XZ=   -16.4692   YZ=   -39.8246   ZZ=   128.1553
   Eigenvalues:    35.8201    48.6642   154.5467
 g value of the free electron [g_e]: 0.20023193D+01
 relativistic mass correction [g_RMC]:-0.22361837D-03
 diamagnetic correction to g tensor [g_DC]:
   XX= 0.53740243D-04   YX= 0.17702857D-04   ZX=-0.27999617D-09
   XY= 0.17491107D-04   YY= 0.12545877D-03   ZY= 0.10239823D-09
   XZ= 0.16800995D-08   YZ=-0.21349915D-09   ZZ= 0.48289948D-04
 orbital Zeeman and spin-orbit coupling contribution to g tensor [g_OZ/SOC]:
   XX= 0.31487509D-02   YX= 0.29266712D-03   ZX=-0.29362062D-08
   XY= 0.36061523D-03   YY= 0.41243687D-02   ZY=-0.96762286D-08
   XZ=-0.16527370D-07   YZ= 0.20277240D-07   ZZ=-0.49901588D-04
 g tensor [g = g_e + g_RMC + g_DC + g_OZ/SOC]:
   XX= 0.20052982D+01   YX= 0.31036998D-03   ZX=-0.32162023D-08
   XY= 0.37810634D-03   YY= 0.20063455D+01   ZY=-0.95738304D-08
   XZ=-0.14847270D-07   YZ= 0.20063741D-07   ZZ= 0.20020941D+01
 g shifts relative to the free electron (ppm):
   xx=         -225.2   yy=         2875.9   zz=         4129.2
 End of Minotr Frequency-dependent properties file   721 does not exist.
 Leave Link 1002 at Mon Mar 28 15:23:57 2011, MaxMem= 1073741824 cpu:    8129.3
 (Enter /system/software/hal/g03-e01-patched/g03/l601.exe)
 Copying SCF densities to generalized density rwf, ISCF=1 IROHF=0.

 **********************************************************************

            Population analysis using the SCF density.

 **********************************************************************

 Orbital symmetries:
 Alpha Orbitals:
       Occupied  (A) (A) (A) (A) (A) (A) (A) (A) (A) (A) (A) (A)
                 (A) (A) (A) (A) (A) (A) (A) (A) (A) (A) (A) (A)
                 (A) (A) (A) (A) (A) (A) (A) (A) (A) (A) (A) (A)
                 (A) (A) (A) (A) (A) (A) (A) (A) (A) (A) (A) (A)
                 (A) (A) (A) (A) (A) (A) (A) (A) (A) (A) (A) (A)
                 (A) (A) (A) (A) (A) (A) (A) (A) (A) (A) (A) (A)
                 (A) (A) (A) (A) (A) (A) (A) (A) (A) (A) (A) (A)
                 (A) (A) (A) (A) (A) (A) (A) (A) (A) (A) (A)
       Virtual   (A) (A) (A) (A) (A) (A) (A) (A) (A) (A) (A) (A)
                 (A) (A) (A) (A) (A) (A) (A) (A) (A) (A) (A) (A)
                 (A) (A) (A) (A) (A) (A) (A) (A) (A) (A) (A) (A)
                 (A) (A) (A) (A) (A) (A) (A) (A) (A) (A) (A) (A)
                 (A) (A) (A) (A) (A) (A) (A) (A) (A) (A) (A) (A)
                 (A) (A) (A) (A) (A) (A) (A) (A) (A) (A) (A) (A)
                 (A) (A) (A) (A) (A) (A) (A) (A) (A) (A) (A) (A)
                 (A) (A) (A) (A) (A) (A) (A) (A) (A) (A) (A) (A)
                 (A) (A) (A) (A) (A) (A) (A) (A) (A) (A) (A) (A)
                 (A) (A) (A) (A) (A) (A) (A) (A) (A) (A) (A) (A)
                 (A) (A) (A) (A) (A) (A) (A) (A) (A) (A) (A) (A)
                 (A) (A) (A) (A) (A) (A) (A) (A) (A) (A) (A) (A)
                 (A) (A) (A) (A) (A) (A) (A) (A) (A) (A) (A) (A)
                 (A) (A) (A) (A) (A) (A) (A) (A) (A) (A) (A) (A)
                 (A) (A) (A) (A) (A) (A) (A) (A) (A) (A) (A) (A)
                 (A) (A) (A) (A) (A) (A) (A) (A) (A) (A) (A) (A)
                 (A) (A) (A) (A) (A) (A) (A) (A) (A) (A) (A) (A)
                 (A) (A) (A) (A) (A) (A) (A) (A) (A) (A) (A) (A)
                 (A) (A) (A) (A) (A) (A) (A) (A) (A) (A) (A) (A)
                 (A) (A) (A) (A) (A) (A) (A) (A) (A) (A) (A) (A)
                 (A) (A) (A) (A) (A) (A) (A) (A) (A) (A) (A) (A)
                 (A) (A) (A) (A) (A) (A) (A) (A) (A) (A) (A) (A)
                 (A) (A) (A) (A) (A) (A) (A) (A) (A) (A) (A) (A)
                 (A) (A) (A) (A) (A) (A) (A) (A) (A) (A) (A) (A)
                 (A) (A) (A) (A) (A) (A) (A) (A) (A) (A) (A) (A)
                 (A) (A) (A) (A) (A) (A) (A) (A) (A) (A) (A) (A)
                 (A) (A) (A) (A) (A) (A) (A) (A) (A) (A) (A) (A)
                 (A) (A) (A) (A) (A) (A) (A) (A) (A) (A) (A) (A)
                 (A) (A) (A) (A) (A) (A) (A) (A) (A) (A) (A) (A)
                 (A) (A) (A) (A) (A) (A) (A) (A) (A) (A) (A) (A)
                 (A) (A) (A) (A) (A) (A) (A) (A) (A) (A) (A) (A)
                 (A) (A) (A)
 Beta  Orbitals:
       Occupied  (A) (A) (A) (A) (A) (A) (A) (A) (A) (A) (A) (A)
                 (A) (A) (A) (A) (A) (A) (A) (A) (A) (A) (A) (A)
                 (A) (A) (A) (A) (A) (A) (A) (A) (A) (A) (A) (A)
                 (A) (A) (A) (A) (A) (A) (A) (A) (A) (A) (A) (A)
                 (A) (A) (A) (A) (A) (A) (A) (A) (A) (A) (A) (A)
                 (A) (A) (A) (A) (A) (A) (A) (A) (A) (A) (A) (A)
                 (A) (A) (A) (A) (A) (A) (A) (A) (A) (A) (A) (A)
                 (A) (A) (A) (A) (A) (A) (A) (A) (A) (A)
       Virtual   (A) (A) (A) (A) (A) (A) (A) (A) (A) (A) (A) (A)
                 (A) (A) (A) (A) (A) (A) (A) (A) (A) (A) (A) (A)
                 (A) (A) (A) (A) (A) (A) (A) (A) (A) (A) (A) (A)
                 (A) (A) (A) (A) (A) (A) (A) (A) (A) (A) (A) (A)
                 (A) (A) (A) (A) (A) (A) (A) (A) (A) (A) (A) (A)
                 (A) (A) (A) (A) (A) (A) (A) (A) (A) (A) (A) (A)
                 (A) (A) (A) (A) (A) (A) (A) (A) (A) (A) (A) (A)
                 (A) (A) (A) (A) (A) (A) (A) (A) (A) (A) (A) (A)
                 (A) (A) (A) (A) (A) (A) (A) (A) (A) (A) (A) (A)
                 (A) (A) (A) (A) (A) (A) (A) (A) (A) (A) (A) (A)
                 (A) (A) (A) (A) (A) (A) (A) (A) (A) (A) (A) (A)
                 (A) (A) (A) (A) (A) (A) (A) (A) (A) (A) (A) (A)
                 (A) (A) (A) (A) (A) (A) (A) (A) (A) (A) (A) (A)
                 (A) (A) (A) (A) (A) (A) (A) (A) (A) (A) (A) (A)
                 (A) (A) (A) (A) (A) (A) (A) (A) (A) (A) (A) (A)
                 (A) (A) (A) (A) (A) (A) (A) (A) (A) (A) (A) (A)
                 (A) (A) (A) (A) (A) (A) (A) (A) (A) (A) (A) (A)
                 (A) (A) (A) (A) (A) (A) (A) (A) (A) (A) (A) (A)
                 (A) (A) (A) (A) (A) (A) (A) (A) (A) (A) (A) (A)
                 (A) (A) (A) (A) (A) (A) (A) (A) (A) (A) (A) (A)
                 (A) (A) (A) (A) (A) (A) (A) (A) (A) (A) (A) (A)
                 (A) (A) (A) (A) (A) (A) (A) (A) (A) (A) (A) (A)
                 (A) (A) (A) (A) (A) (A) (A) (A) (A) (A) (A) (A)
                 (A) (A) (A) (A) (A) (A) (A) (A) (A) (A) (A) (A)
                 (A) (A) (A) (A) (A) (A) (A) (A) (A) (A) (A) (A)
                 (A) (A) (A) (A) (A) (A) (A) (A) (A) (A) (A) (A)
                 (A) (A) (A) (A) (A) (A) (A) (A) (A) (A) (A) (A)
                 (A) (A) (A) (A) (A) (A) (A) (A) (A) (A) (A) (A)
                 (A) (A) (A) (A) (A) (A) (A) (A) (A) (A) (A) (A)
                 (A) (A) (A) (A) (A) (A) (A) (A) (A) (A) (A) (A)
                 (A) (A) (A) (A) (A) (A) (A) (A) (A) (A) (A) (A)
                 (A) (A) (A) (A)
 The electronic state is 2-A.
 Alpha  occ. eigenvalues --  -89.10300 -89.10300 -19.11190 -19.11190 -19.11189
 Alpha  occ. eigenvalues --  -19.11189 -19.11119 -19.11119 -19.10328 -19.10328
 Alpha  occ. eigenvalues --  -10.25215 -10.25215 -10.22057 -10.22056 -10.20399
 Alpha  occ. eigenvalues --  -10.20399 -10.20282 -10.20282 -10.20221 -10.20221
 Alpha  occ. eigenvalues --  -10.20046 -10.20046 -10.19658 -10.19658  -8.12875
 Alpha  occ. eigenvalues --   -8.12875  -6.09242  -6.09242  -6.09234  -6.09234
 Alpha  occ. eigenvalues --   -6.09117  -6.09117  -1.08921  -1.08921  -0.99917
 Alpha  occ. eigenvalues --   -0.99679  -0.95691  -0.95691  -0.95624  -0.95624
 Alpha  occ. eigenvalues --   -0.86171  -0.85263  -0.78969  -0.75642  -0.75210
 Alpha  occ. eigenvalues --   -0.74598  -0.67384  -0.66133  -0.62847  -0.61697
 Alpha  occ. eigenvalues --   -0.58573  -0.57470  -0.55547  -0.52986  -0.51653
 Alpha  occ. eigenvalues --   -0.49002  -0.47339  -0.46729  -0.46429  -0.44904
 Alpha  occ. eigenvalues --   -0.44890  -0.44810  -0.44390  -0.42801  -0.42515
 Alpha  occ. eigenvalues --   -0.42383  -0.42021  -0.41398  -0.41052  -0.39702
 Alpha  occ. eigenvalues --   -0.37963  -0.37046  -0.36800  -0.35377  -0.34704
 Alpha  occ. eigenvalues --   -0.33752  -0.32571  -0.32561  -0.32518  -0.32508
 Alpha  occ. eigenvalues --   -0.29757  -0.29666  -0.28795  -0.28745  -0.28576
 Alpha  occ. eigenvalues --   -0.28444  -0.26583  -0.25563  -0.25558  -0.25305
 Alpha  occ. eigenvalues --   -0.25280  -0.24781  -0.24682  -0.23972  -0.14437
 Alpha virt. eigenvalues --   -0.06057  -0.02915  -0.01110   0.02251   0.03003
 Alpha virt. eigenvalues --    0.03706   0.03766   0.04169   0.05221   0.05555
 Alpha virt. eigenvalues --    0.05770   0.06065   0.06076   0.06221   0.06733
 Alpha virt. eigenvalues --    0.07572   0.07919   0.09132   0.10530   0.10831
 Alpha virt. eigenvalues --    0.11254   0.11789   0.11952   0.12036   0.12726
 Alpha virt. eigenvalues --    0.12852   0.13384   0.13686   0.14776   0.16363
 Alpha virt. eigenvalues --    0.17534   0.17769   0.18037   0.18479   0.19366
 Alpha virt. eigenvalues --    0.20209   0.21520   0.21968   0.22651   0.23144
 Alpha virt. eigenvalues --    0.23566   0.23599   0.24274   0.24693   0.25262
 Alpha virt. eigenvalues --    0.25427   0.26377   0.27583   0.28368   0.28565
 Alpha virt. eigenvalues --    0.29061   0.29343   0.29566   0.30310   0.30420
 Alpha virt. eigenvalues --    0.30900   0.31907   0.33054   0.33542   0.33888
 Alpha virt. eigenvalues --    0.34883   0.35012   0.35865   0.36879   0.37184
 Alpha virt. eigenvalues --    0.37525   0.38455   0.38865   0.39022   0.39735
 Alpha virt. eigenvalues --    0.39893   0.41985   0.42323   0.42467   0.42899
 Alpha virt. eigenvalues --    0.43504   0.44500   0.44835   0.45835   0.46457
 Alpha virt. eigenvalues --    0.47166   0.47757   0.48117   0.48764   0.48902
 Alpha virt. eigenvalues --    0.49119   0.49239   0.50261   0.50527   0.51383
 Alpha virt. eigenvalues --    0.52156   0.52352   0.53329   0.53484   0.54480
 Alpha virt. eigenvalues --    0.54736   0.55069   0.55365   0.56414   0.56817
 Alpha virt. eigenvalues --    0.58548   0.59274   0.59427   0.60275   0.60598
 Alpha virt. eigenvalues --    0.61775   0.61820   0.62507   0.62548   0.62730
 Alpha virt. eigenvalues --    0.64530   0.65351   0.65976   0.66241   0.68615
 Alpha virt. eigenvalues --    0.69869   0.70665   0.72922   0.73696   0.73841
 Alpha virt. eigenvalues --    0.74309   0.76253   0.77798   0.77821   0.79654
 Alpha virt. eigenvalues --    0.80166   0.80873   0.80931   0.81039   0.81627
 Alpha virt. eigenvalues --    0.81907   0.82030   0.82277   0.84869   0.85279
 Alpha virt. eigenvalues --    0.85937   0.86284   0.88002   0.88270   0.89432
 Alpha virt. eigenvalues --    0.89880   0.90790   0.92413   0.92494   0.92524
 Alpha virt. eigenvalues --    0.92965   0.94024   0.94246   0.94436   0.94697
 Alpha virt. eigenvalues --    0.96061   0.96295   0.97488   0.97855   0.98644
 Alpha virt. eigenvalues --    0.99251   1.00452   1.00711   1.00934   1.00986
 Alpha virt. eigenvalues --    1.02516   1.02920   1.03068   1.03828   1.04343
 Alpha virt. eigenvalues --    1.05519   1.05552   1.06514   1.07466   1.08260
 Alpha virt. eigenvalues --    1.08337   1.09482   1.10800   1.11051   1.12590
 Alpha virt. eigenvalues --    1.13197   1.13941   1.16013   1.17738   1.17967
 Alpha virt. eigenvalues --    1.18573   1.19670   1.19953   1.20123   1.21628
 Alpha virt. eigenvalues --    1.21927   1.22060   1.23474   1.23491   1.25476
 Alpha virt. eigenvalues --    1.27535   1.28785   1.33800   1.34546   1.34863
 Alpha virt. eigenvalues --    1.36599   1.36975   1.37404   1.40254   1.41160
 Alpha virt. eigenvalues --    1.44237   1.46604   1.47569   1.48361   1.51537
 Alpha virt. eigenvalues --    1.51585   1.51707   1.53341   1.56727   1.57223
 Alpha virt. eigenvalues --    1.57578   1.57856   1.58836   1.60034   1.61778
 Alpha virt. eigenvalues --    1.62169   1.63249   1.63283   1.65715   1.66712
 Alpha virt. eigenvalues --    1.66830   1.70320   1.70594   1.70975   1.72851
 Alpha virt. eigenvalues --    1.73381   1.76564   1.76964   1.77273   1.77295
 Alpha virt. eigenvalues --    1.77949   1.79521   1.79521   1.80817   1.81041
 Alpha virt. eigenvalues --    1.85644   1.87072   1.87365   1.88893   1.89804
 Alpha virt. eigenvalues --    1.90452   1.91962   1.92212   1.94398   1.95136
 Alpha virt. eigenvalues --    1.96199   1.97238   1.98969   2.01139   2.03393
 Alpha virt. eigenvalues --    2.06000   2.08222   2.09627   2.12250   2.14625
 Alpha virt. eigenvalues --    2.14929   2.19004   2.20073   2.22055   2.26464
 Alpha virt. eigenvalues --    2.26852   2.27806   2.30378   2.34490   2.42794
 Alpha virt. eigenvalues --    2.46434   2.47132   2.51563   2.52369   2.55068
 Alpha virt. eigenvalues --    2.57058   2.57063   2.57210   2.61943   2.62309
 Alpha virt. eigenvalues --    2.62457   2.62465   2.63981   2.63986   2.66202
 Alpha virt. eigenvalues --    2.66292   2.69149   2.69172   2.72487   2.73280
 Alpha virt. eigenvalues --    2.73835   2.74660   2.74698   2.75671   2.76681
 Alpha virt. eigenvalues --    2.76782   2.76950   2.77717   2.78247   2.78903
 Alpha virt. eigenvalues --    2.81264   2.81568   2.83941   2.87047   2.87737
 Alpha virt. eigenvalues --    3.02538   3.02547   3.03069   3.03285   3.03972
 Alpha virt. eigenvalues --    3.06437   3.07340   3.09902   3.12791   3.16703
 Alpha virt. eigenvalues --    3.22122   3.28054   3.28061   3.29529   3.29681
 Alpha virt. eigenvalues --    3.33873   3.41309   3.48699   3.50837   5.00755
 Alpha virt. eigenvalues --    5.15202   5.18088   5.26288   5.27057   5.28844
 Alpha virt. eigenvalues --    5.33391   5.41494   5.44579   5.47621   5.50373
 Alpha virt. eigenvalues --    5.51352   5.61340   5.62284   5.68597   5.74781
 Alpha virt. eigenvalues --    5.75437   5.81007   6.01017   6.14866   9.06728
 Alpha virt. eigenvalues --    9.06881   9.13840   9.13967   9.15254   9.16867
[...]
     8  H    0.000000   0.000000   0.000000   0.000001   0.000000   0.000000
     9  H    0.000000   0.000000   0.000000   0.000002  -0.000005  -0.000005
    10  C    0.000000   0.000001   0.000001  -0.000001  -0.000001  -0.000001
    11  C   -0.000001  -0.000001  -0.000001   0.000000   0.000001   0.000001
    12  O    0.000000   0.000002   0.000002   0.000000   0.000000   0.000000
    13  O    0.000000   0.000000   0.000000   0.000000   0.000002   0.000002
    14  C   -0.000042  -0.000035  -0.000035   0.000000   0.000001   0.000001
    15  C    0.000015   0.000006   0.000006   0.000001   0.000000   0.000000
    16  C    0.000036  -0.000270  -0.000269   0.000000   0.000000   0.000000
    17  C    0.000058   0.000008   0.000008   0.000000   0.000000   0.000000
    18  C   -0.000589  -0.000506  -0.000506   0.000000   0.000000   0.000000
    19  H    0.000004   0.000010   0.000010   0.000000   0.000000   0.000000
    20  C    0.000431   0.000095   0.000095   0.000000   0.000000   0.000000
    21  H    0.000001   0.000000   0.000000   0.000000   0.000000   0.000000
    22  H    0.000002  -0.000005  -0.000005   0.000000   0.000000   0.000000
    23  S    0.000728  -0.000270  -0.000270   0.000000   0.000000   0.000000
    24  S    0.000000   0.000000   0.000000   0.000728  -0.000270  -0.000270
    25  O   -0.000971  -0.000042  -0.000042   0.000000   0.000000   0.000000
    26  O   -0.000042   0.002939  -0.000096   0.000000   0.000000   0.000000
    27  O   -0.000042  -0.000096   0.002939   0.000000   0.000000   0.000000
    28  O    0.000000   0.000000   0.000000  -0.000971  -0.000042  -0.000042
    29  O    0.000000   0.000000   0.000000  -0.000042   0.002939  -0.000096
    30  O    0.000000   0.000000   0.000000  -0.000042  -0.000096   0.002939
 Mulliken atomic spin densities:
              1
     1  C    0.030807
     2  C   -0.000965
     3  C    0.056707
     4  C    0.070620
     5  C    0.002227
     6  C    0.044742
     7  H   -0.000622
     8  H   -0.000618
     9  H   -0.002479
    10  C    0.100034
    11  C    0.100041
    12  O    0.198294
    13  O    0.198295
    14  C    0.056715
    15  C    0.070621
    16  C   -0.000971
    17  C    0.002230
    18  C    0.030813
    19  H   -0.000622
    20  C    0.044739
    21  H   -0.000619
    22  H   -0.002478
    23  S   -0.002016
    24  S   -0.002016
    25  O   -0.000412
    26  O    0.001837
    27  O    0.001837
    28  O   -0.000412
    29  O    0.001837
    30  O    0.001836
 Sum of Mulliken spin densities=   1.00000
 Electronic spatial extent (au):  <R**2>= 13643.4596
 Charge=    -3.0000 electrons
 Dipole moment (field-independent basis, Debye):
    X=    -0.0002    Y=     0.0002    Z=     0.0010  Tot=     0.0011
 Quadrupole moment (field-independent basis, Debye-Ang):
   XX=  -558.5504   YY=  -198.4571   ZZ=  -176.1915
   XY=   -29.2460   XZ=    -0.0001   YZ=     0.0000
 Traceless Quadrupole moment (field-independent basis, Debye-Ang):
   XX=  -247.4840   YY=   112.6092   ZZ=   134.8748
   XY=   -29.2460   XZ=    -0.0001   YZ=     0.0000
 Octapole moment (field-independent basis, Debye-Ang**2):
  XXX=     0.0005  YYY=     0.0013  ZZZ=     0.0038  XYY=    -0.0010
  XXY=     0.0011  XXZ=     0.0408  XZZ=     0.0000  YZZ=     0.0002
  YYZ=     0.0014  XYZ=    -0.0053
 Hexadecapole moment (field-independent basis, Debye-Ang**3):
 XXXX=-31134.0749 YYYY= -1992.3568 ZZZZ=  -446.7492 XXXY=  -373.4659
 XXXZ=     0.0031 YYYX=  -121.8688 YYYZ=     0.0012 ZZZX=    -0.0008
 ZZZY=    -0.0001 XXYY= -3497.1877 XXZZ= -3355.7694 YYZZ=  -390.0805
 XXYZ=    -0.0019 YYXZ=     0.0009 ZZXY=   -86.8005
 N-N= 2.222424990705D+03 E-N=-9.065840447186D+03  KE= 1.924993539040D+03
                          Isotropic Fermi Contact Couplings
        Atom                 a.u.       MegaHertz       Gauss      10(-4) cm-1
     1  C(13)              0.00151       1.69749       0.60571       0.56622
     2  C(13)             -0.00270      -3.04082      -1.08504      -1.01431
     3  C(13)             -0.00243      -2.72973      -0.97403      -0.91054
     4  C(13)             -0.00111      -1.25043      -0.44618      -0.41710
     5  C(13)             -0.00332      -3.73770      -1.33370      -1.24676
     6  C(13)              0.00188       2.11863       0.75598       0.70670
     7  H(1)              -0.00013      -0.56488      -0.20156      -0.18842
     8  H(1)              -0.00013      -0.59257      -0.21144      -0.19766
     9  H(1)              -0.00076      -3.40008      -1.21323      -1.13414
    10  C(13)             -0.00157      -1.76822      -0.63094      -0.58981
    11  C(13)             -0.00157      -1.76755      -0.63071      -0.58959
    12  O(17)              0.02732     -16.56168      -5.90962      -5.52438
    13  O(17)              0.02732     -16.56195      -5.90971      -5.52447
    14  C(13)             -0.00243      -2.72873      -0.97368      -0.91021
    15  C(13)             -0.00111      -1.25098      -0.44638      -0.41728
    16  C(13)             -0.00271      -3.04169      -1.08535      -1.01460
    17  C(13)             -0.00332      -3.73735      -1.33358      -1.24665
    18  C(13)              0.00151       1.69839       0.60603       0.56652
    19  H(1)              -0.00013      -0.56448      -0.20142      -0.18829
    20  C(13)              0.00188       2.11814       0.75580       0.70654
    21  H(1)              -0.00013      -0.59284      -0.21154      -0.19775
    22  H(1)              -0.00076      -3.39987      -1.21316      -1.13408
    23  S(33)             -0.00217      -0.74472      -0.26573      -0.24841
    24  S(33)             -0.00217      -0.74460      -0.26569      -0.24837
    25  O(17)             -0.00018       0.10998       0.03924       0.03669
    26  O(17)              0.00115      -0.69755      -0.24890      -0.23268
    27  O(17)              0.00115      -0.69738      -0.24884      -0.23262
    28  O(17)             -0.00018       0.10997       0.03924       0.03668
    29  O(17)              0.00115      -0.69735      -0.24883      -0.23261
    30  O(17)              0.00115      -0.69747      -0.24888      -0.23265
 --------------------------------------------------------
       Center         ----  Spin Dipole Couplings  ----
                      3XX-RR        3YY-RR        3ZZ-RR
 --------------------------------------------------------
     1   Atom       -0.018691     -0.020709      0.039400
     2   Atom        0.002916     -0.003258      0.000341
     3   Atom       -0.033055     -0.033175      0.066230
     4   Atom       -0.039346     -0.042770      0.082117
     5   Atom        0.004049     -0.004367      0.000318
     6   Atom       -0.023833     -0.025707      0.049540
     7   Atom        0.004021     -0.000494     -0.003527
     8   Atom        0.003807     -0.000100     -0.003707
     9   Atom        0.002357     -0.001086     -0.001270
    10   Atom       -0.086480     -0.067197      0.153676
    11   Atom       -0.086484     -0.067202      0.153686
    12   Atom       -0.424308     -0.432205      0.856513
    13   Atom       -0.424310     -0.432207      0.856517
    14   Atom       -0.033060     -0.033179      0.066239
    15   Atom       -0.039346     -0.042771      0.082117
    16   Atom        0.002919     -0.003255      0.000336
    17   Atom        0.004047     -0.004369      0.000321
    18   Atom       -0.018694     -0.020713      0.039407
    19   Atom        0.004021     -0.000494     -0.003527
    20   Atom       -0.023831     -0.025706      0.049537
    21   Atom        0.003807     -0.000099     -0.003707
    22   Atom        0.002357     -0.001086     -0.001270
    23   Atom       -0.001962      0.000843      0.001119
    24   Atom       -0.001962      0.000843      0.001119
    25   Atom        0.000291      0.000301     -0.000592
    26   Atom        0.009125     -0.003536     -0.005589
    27   Atom        0.009125     -0.003536     -0.005589
    28   Atom        0.000292      0.000301     -0.000593
    29   Atom        0.009124     -0.003536     -0.005588
    30   Atom        0.009124     -0.003536     -0.005588
 --------------------------------------------------------
                        XY            XZ            YZ
 --------------------------------------------------------
     1   Atom        0.000086      0.000001      0.000000
     2   Atom       -0.002509      0.000000      0.000000
     3   Atom       -0.001932     -0.000001      0.000005
     4   Atom        0.000995      0.000006      0.000003
     5   Atom       -0.001636      0.000000     -0.000001
     6   Atom       -0.000813     -0.000001      0.000000
     7   Atom       -0.000779      0.000000      0.000000
     8   Atom       -0.001556      0.000000      0.000000
     9   Atom       -0.004237      0.000000      0.000000
    10   Atom        0.005507     -0.000001     -0.000005
    11   Atom        0.005507      0.000002      0.000006
    12   Atom       -0.002095     -0.000101      0.000014
    13   Atom       -0.002095      0.000102     -0.000008
    14   Atom       -0.001932      0.000001     -0.000005
    15   Atom        0.000995     -0.000005     -0.000003
    16   Atom       -0.002509      0.000000      0.000000
    17   Atom       -0.001636      0.000000      0.000001
    18   Atom        0.000086      0.000000      0.000000
    19   Atom       -0.000779      0.000000      0.000000
    20   Atom       -0.000813      0.000001      0.000000
    21   Atom       -0.001556      0.000000      0.000000
    22   Atom       -0.004237      0.000000      0.000000
    23   Atom       -0.001048      0.000000      0.000000
    24   Atom       -0.001048      0.000000      0.000000
    25   Atom        0.000009      0.000000      0.000000
    26   Atom        0.005068     -0.000077     -0.000261
    27   Atom        0.005068      0.000077      0.000261
    28   Atom        0.000009      0.000000      0.000000
    29   Atom        0.005068     -0.000077     -0.000261
    30   Atom        0.005067      0.000077      0.000261
 --------------------------------------------------------


 ---------------------------------------------------------------------------------
              Anisotropic Spin Dipole Couplings in Principal Axis System
 ---------------------------------------------------------------------------------

       Atom             a.u.   MegaHertz   Gauss  10(-4) cm-1        Axes

              Baa    -0.0207    -2.779    -0.992    -0.927 -0.0425  0.9991  0.0000
     1 C(13)  Bbb    -0.0187    -2.508    -0.895    -0.836  0.9991  0.0425  0.0000
              Bcc     0.0394     5.287     1.887     1.764  0.0000  0.0000  1.0000
 
              Baa    -0.0041    -0.557    -0.199    -0.186  0.3347  0.9423  0.0000
     2 C(13)  Bbb     0.0003     0.046     0.016     0.015  0.0000  0.0000  1.0000
              Bcc     0.0038     0.511     0.182     0.170  0.9423 -0.3347  0.0000
 
              Baa    -0.0350    -4.703    -1.678    -1.569  0.6961  0.7180  0.0000
     3 C(13)  Bbb    -0.0312    -4.184    -1.493    -1.396  0.7180 -0.6961  0.0000
              Bcc     0.0662     8.887     3.171     2.965  0.0000  0.0001  1.0000
 
              Baa    -0.0430    -5.775    -2.061    -1.926 -0.2602  0.9656  0.0000
     4 C(13)  Bbb    -0.0391    -5.244    -1.871    -1.749  0.9656  0.2602 -0.0001
              Bcc     0.0821    11.019     3.932     3.676  0.0001  0.0000  1.0000
 
              Baa    -0.0047    -0.627    -0.224    -0.209  0.1843  0.9829  0.0001
     5 C(13)  Bbb     0.0003     0.043     0.015     0.014 -0.0001 -0.0001  1.0000
              Bcc     0.0044     0.585     0.209     0.195  0.9829 -0.1843  0.0001
 
              Baa    -0.0260    -3.490    -1.245    -1.164  0.3496  0.9369  0.0000
     6 C(13)  Bbb    -0.0235    -3.157    -1.127    -1.053  0.9369 -0.3496  0.0000
              Bcc     0.0495     6.648     2.372     2.217  0.0000  0.0000  1.0000
 
              Baa    -0.0035    -1.882    -0.672    -0.628  0.0000  0.0000  1.0000
     7 H(1)   Bbb    -0.0006    -0.333    -0.119    -0.111  0.1654  0.9862  0.0000
              Bcc     0.0042     2.215     0.790     0.739  0.9862 -0.1654  0.0000
 
              Baa    -0.0037    -1.978    -0.706    -0.660  0.0000  0.0000  1.0000
     8 H(1)   Bbb    -0.0006    -0.343    -0.123    -0.115  0.3300  0.9440  0.0000
              Bcc     0.0044     2.321     0.828     0.774  0.9440 -0.3300  0.0000
 
              Baa    -0.0039    -2.101    -0.750    -0.701  0.5584  0.8296  0.0000
     9 H(1)   Bbb    -0.0013    -0.678    -0.242    -0.226  0.0000  0.0000  1.0000
              Bcc     0.0052     2.779     0.992     0.927  0.8296 -0.5584  0.0000
 
              Baa    -0.0879   -11.801    -4.211    -3.936  0.9665 -0.2566  0.0000
    10 C(13)  Bbb    -0.0657    -8.821    -3.148    -2.942  0.2566  0.9665  0.0000
              Bcc     0.1537    20.622     7.358     6.879  0.0000  0.0000  1.0000
 
              Baa    -0.0879   -11.802    -4.211    -3.937  0.9665 -0.2566  0.0000
    11 C(13)  Bbb    -0.0657    -8.822    -3.148    -2.943  0.2566  0.9665  0.0000
              Bcc     0.1537    20.623     7.359     6.879  0.0000  0.0000  1.0000
 
              Baa    -0.4327    31.312    11.173    10.444  0.2415  0.9704  0.0000
    12 O(17)  Bbb    -0.4238    30.665    10.942    10.229  0.9704 -0.2415  0.0001
              Bcc     0.8565   -61.977   -22.115   -20.673 -0.0001  0.0000  1.0000
 
              Baa    -0.4327    31.312    11.173    10.445  0.2415  0.9704  0.0000
    13 O(17)  Bbb    -0.4238    30.665    10.942    10.229  0.9704 -0.2415 -0.0001
              Bcc     0.8565   -61.977   -22.115   -20.673  0.0001  0.0000  1.0000
 
              Baa    -0.0351    -4.704    -1.678    -1.569  0.6961  0.7180  0.0000
    14 C(13)  Bbb    -0.0312    -4.185    -1.493    -1.396  0.7180 -0.6961  0.0000
              Bcc     0.0662     8.889     3.172     2.965  0.0000  0.0000  1.0000
 
              Baa    -0.0430    -5.775    -2.061    -1.926 -0.2602  0.9655  0.0000
    15 C(13)  Bbb    -0.0391    -5.244    -1.871    -1.749  0.9655  0.2602  0.0001
              Bcc     0.0821    11.019     3.932     3.676  0.0000  0.0000  1.0000
 
              Baa    -0.0041    -0.556    -0.199    -0.186  0.3347  0.9423  0.0000
    16 C(13)  Bbb     0.0003     0.045     0.016     0.015  0.0002  0.0000  1.0000
              Bcc     0.0038     0.511     0.182     0.171  0.9423 -0.3347 -0.0001
 
              Baa    -0.0047    -0.627    -0.224    -0.209  0.1843  0.9829 -0.0001
    17 C(13)  Bbb     0.0003     0.043     0.015     0.014  0.0001  0.0001  1.0000
              Bcc     0.0044     0.584     0.208     0.195  0.9829 -0.1843 -0.0001
 
              Baa    -0.0207    -2.780    -0.992    -0.927 -0.0426  0.9991  0.0000
    18 C(13)  Bbb    -0.0187    -2.508    -0.895    -0.837  0.9991  0.0426  0.0000
              Bcc     0.0394     5.288     1.887     1.764  0.0000  0.0000  1.0000
 
              Baa    -0.0035    -1.882    -0.672    -0.628  0.0000  0.0000  1.0000
    19 H(1)   Bbb    -0.0006    -0.333    -0.119    -0.111  0.1654  0.9862  0.0000
              Bcc     0.0042     2.215     0.790     0.739  0.9862 -0.1654  0.0000
 
              Baa    -0.0260    -3.490    -1.245    -1.164  0.3495  0.9369  0.0000
    20 C(13)  Bbb    -0.0235    -3.157    -1.127    -1.053  0.9369 -0.3495  0.0000
              Bcc     0.0495     6.647     2.372     2.217  0.0000  0.0000  1.0000
 
              Baa    -0.0037    -1.978    -0.706    -0.660  0.0000  0.0000  1.0000
    21 H(1)   Bbb    -0.0006    -0.343    -0.123    -0.115  0.3300  0.9440  0.0000
              Bcc     0.0044     2.321     0.828     0.774  0.9440 -0.3300  0.0000
 
              Baa    -0.0039    -2.101    -0.750    -0.701  0.5584  0.8296  0.0000
    22 H(1)   Bbb    -0.0013    -0.678    -0.242    -0.226  0.0000  0.0000  1.0000
              Bcc     0.0052     2.779     0.992     0.927  0.8296 -0.5584  0.0000
 
              Baa    -0.0023    -0.095    -0.034    -0.032  0.9490  0.3154  0.0000
    23 S(33)  Bbb     0.0011     0.046     0.016     0.015  0.0001 -0.0002  1.0000
              Bcc     0.0012     0.049     0.017     0.016 -0.3154  0.9490  0.0002
 
              Baa    -0.0023    -0.095    -0.034    -0.032  0.9490  0.3154  0.0000
    24 S(33)  Bbb     0.0011     0.046     0.016     0.015 -0.0001  0.0001  1.0000
              Bcc     0.0012     0.049     0.017     0.016 -0.3154  0.9490 -0.0001
 
              Baa    -0.0006     0.043     0.015     0.014  0.0001  0.0000  1.0000
    25 O(17)  Bbb     0.0003    -0.021    -0.007    -0.007  0.8546 -0.5193 -0.0001
              Bcc     0.0003    -0.022    -0.008    -0.007  0.5193  0.8546  0.0000
 
              Baa    -0.0057     0.413     0.148     0.138 -0.1529  0.4609  0.8742
    26 O(17)  Bbb    -0.0052     0.376     0.134     0.125 -0.2940  0.8233 -0.4855
              Bcc     0.0109    -0.789    -0.282    -0.263  0.9435  0.3313 -0.0097
 
              Baa    -0.0057     0.413     0.148     0.138  0.1529 -0.4609  0.8742
    27 O(17)  Bbb    -0.0052     0.376     0.134     0.125 -0.2941  0.8233  0.4855
              Bcc     0.0109    -0.789    -0.282    -0.263  0.9435  0.3313  0.0097
 
              Baa    -0.0006     0.043     0.015     0.014 -0.0001  0.0000  1.0000
    28 O(17)  Bbb     0.0003    -0.021    -0.007    -0.007  0.8527 -0.5225  0.0001
              Bcc     0.0003    -0.022    -0.008    -0.007  0.5225  0.8527  0.0000
 
              Baa    -0.0057     0.413     0.147     0.138 -0.1529  0.4610  0.8741
    29 O(17)  Bbb    -0.0052     0.376     0.134     0.125 -0.2940  0.8233 -0.4856
              Bcc     0.0109    -0.789    -0.282    -0.263  0.9435  0.3313 -0.0096
 
              Baa    -0.0057     0.413     0.147     0.138  0.1529 -0.4609  0.8742
    30 O(17)  Bbb    -0.0052     0.376     0.134     0.125 -0.2940  0.8233  0.4855
              Bcc     0.0109    -0.789    -0.282    -0.263  0.9435  0.3313  0.0097
 

 ---------------------------------------------------------------------------------

 Calculating spin-rotation constants.
 Leave Link  601 at Mon Mar 28 15:24:27 2011, MaxMem= 1073741824 cpu:     211.5
 (Enter /system/software/hal/g03-e01-patched/g03/l9999.exe)
 1\1\GINC-R3I0N5\SP\UB3LYP\Gen\C14H6O8S2(3-,2)\KUPROV\28-Mar-2011\0\\#p
  nmr=giao ub3lyp/gen scf=tight guess=mix scrf=pcm geom=connectivity in
 tegral=(grid=ultrafine)\\Anthraquinone-2,6-disulfonate radical anion.\
 \-3,2\C,0,-3.763671,0.270694,0.\C,0,-2.78222,-0.715317,-0.000001\C,0,-
 1.399361,-0.375475,-0.000002\C,0,-1.019217,1.009225,-0.000001\C,0,-2.0
 46969,1.990302,0.\C,0,-3.392127,1.641171,0.000001\H,0,-3.047888,-1.767
 181,-0.000002\H,0,-1.737315,3.032201,0.\H,0,-4.179221,2.388642,0.00000
 3\C,0,0.387691,1.44569,-0.000003\C,0,-0.387691,-1.445688,-0.000003\O,0
 ,0.702831,2.672597,-0.000005\O,0,-0.702831,-2.672595,-0.000004\C,0,1.3
 99361,0.375476,-0.000002\C,0,1.019217,-1.009224,-0.000002\C,0,2.78222,
 0.715317,-0.000001\C,0,2.046968,-1.990301,-0.000001\C,0,3.763671,-0.27
 0694,0.\H,0,3.047889,1.767182,-0.000002\C,0,3.392126,-1.641171,0.00000
 1\H,0,1.737314,-3.0322,-0.000001\H,0,4.17922,-2.388642,0.000002\S,0,5.
 551552,0.168357,0.000002\S,0,-5.551552,-0.168358,0.000002\O,0,6.288019
 ,-1.160351,0.000002\O,0,5.785304,0.971516,1.2634\O,0,5.785306,0.971517
 ,-1.263396\O,0,-6.28802,1.160349,0.000007\O,0,-5.785306,-0.971514,-1.2
 63398\O,0,-5.785303,-0.971522,1.263397\\Version=EM64L-G03RevE.01\State
 =2-A\HF=-1935.9134781\S2=0.759963\S2-1=0.\S2A=0.750043\RMSD=2.531e-09\
 Thermal=0.\Dipole=-0.0000678,0.0000866,0.0003997\PG=C01 [X(C14H6O8S2)]
 \\@


 A MAN SHOULD NEVER BE ASHAMED TO OWN HE HAS BEEN IN THE WRONG
 WHICH IS BUT SAYING IN OTHER WORDS,
 THAT HE IS WISER TODAY THAN HE WAS YESTERDAY.

                          -- JONATHAN SWIFT
 Job cpu time:  0 days  6 hours  2 minutes 26.0 seconds.
 File lengths (MBytes):  RWF=    502 Int=      0 D2E=      0 Chk=     22 Scr=      1
 Normal termination of Gaussian 03 at Mon Mar 28 15:24:32 2011.
