 Entering Gaussian System, Link 0=g03
 Input=stuff.com
 Output=stuff.log
 Initial command:
 /system/software/hal/g03-e01-patched/g03/l1.exe /export/home/spin_dynamics/kuprov/spinach/Gau-12914.inp -scrdir=/export/home/spin_dynamics/kuprov/spinach/
 Entering Link 1 = /system/software/hal/g03-e01-patched/g03/l1.exe PID=     12915.
  
 Copyright (c) 1988,1990,1992,1993,1995,1998,2003,2004,2007, Gaussian, Inc.
                  All Rights Reserved.
  
 This is the Gaussian(R) 03 program.  It is based on the
 the Gaussian(R) 98 system (copyright 1998, Gaussian, Inc.),
 the Gaussian(R) 94 system (copyright 1995, Gaussian, Inc.),
 the Gaussian 92(TM) system (copyright 1992, Gaussian, Inc.),
 the Gaussian 90(TM) system (copyright 1990, Gaussian, Inc.),
 the Gaussian 88(TM) system (copyright 1988, Gaussian, Inc.),
 the Gaussian 86(TM) system (copyright 1986, Carnegie Mellon
 University), and the Gaussian 82(TM) system (copyright 1983,
 Carnegie Mellon University). Gaussian is a federally registered
 trademark of Gaussian, Inc.
  
 This software contains proprietary and confidential information,
 including trade secrets, belonging to Gaussian, Inc.
  
 This software is provided under written license and may be
 used, copied, transmitted, or stored only in accord with that
 written license.
  
 The following legend is applicable only to US Government
 contracts under FAR:
  
                    RESTRICTED RIGHTS LEGEND
  
 Use, reproduction and disclosure by the US Government is
 subject to restrictions as set forth in subparagraphs (a)
 and (c) of the Commercial Computer Software - Restricted
 Rights clause in FAR 52.227-19.
  
 Gaussian, Inc.
 340 Quinnipiac St., Bldg. 40, Wallingford CT 06492
  
  
 ---------------------------------------------------------------
 Warning -- This program may not be used in any manner that
 competes with the business of Gaussian, Inc. or will provide
 assistance to any competitor of Gaussian, Inc.  The licensee
 of this program is prohibited from giving any competitor of
 Gaussian, Inc. access to this program.  By using this program,
 the user acknowledges that Gaussian, Inc. is engaged in the
 business of creating and licensing software in the field of
 computational chemistry and represents and warrants to the
 licensee that it is not a competitor of Gaussian, Inc. and that
 it will not use this program in any manner prohibited above.
 ---------------------------------------------------------------
  

 Cite this work as:
 Gaussian 03, Revision E.01,
 M. J. Frisch, G. W. Trucks, H. B. Schlegel, G. E. Scuseria, 
 M. A. Robb, J. R. Cheeseman, J. A. Montgomery, Jr., T. Vreven, 
 K. N. Kudin, J. C. Burant, J. M. Millam, S. S. Iyengar, J. Tomasi, 
 V. Barone, B. Mennucci, M. Cossi, G. Scalmani, N. Rega, 
 G. A. Petersson, H. Nakatsuji, M. Hada, M. Ehara, K. Toyota, 
 R. Fukuda, J. Hasegawa, M. Ishida, T. Nakajima, Y. Honda, O. Kitao, 
 H. Nakai, M. Klene, X. Li, J. E. Knox, H. P. Hratchian, J. B. Cross, 
 V. Bakken, C. Adamo, J. Jaramillo, R. Gomperts, R. E. Stratmann, 
 O. Yazyev, A. J. Austin, R. Cammi, C. Pomelli, J. W. Ochterski, 
 P. Y. Ayala, K. Morokuma, G. A. Voth, P. Salvador, J. J. Dannenberg, 
 V. G. Zakrzewski, S. Dapprich, A. D. Daniels, M. C. Strain, 
 O. Farkas, D. K. Malick, A. D. Rabuck, K. Raghavachari, 
 J. B. Foresman, J. V. Ortiz, Q. Cui, A. G. Baboul, S. Clifford, 
 J. Cioslowski, B. B. Stefanov, G. Liu, A. Liashenko, P. Piskorz, 
 I. Komaromi, R. L. Martin, D. J. Fox, T. Keith, M. A. Al-Laham, 
 C. Y. Peng, A. Nanayakkara, M. Challacombe, P. M. W. Gill, 
 B. Johnson, W. Chen, M. W. Wong, C. Gonzalez, and J. A. Pople, 
 Gaussian, Inc., Wallingford CT, 2004.
 
 ******************************************
 Gaussian 03:  EM64L-G03RevE.01 11-Sep-2007
                 4-Jun-2011 
 ******************************************
 %Mem=8GB
 %NProcShared=8
 Will use up to    8 processors via shared memory.
 %Chk=stuff.chk
 ----------------------------------------------------------------------
 #p opt=tight b3lyp/EPR-II geom=connectivity scf=tight guess=mix integr
 al=(grid=ultrafine)
 ----------------------------------------------------------------------
 1/7=10,14=-1,18=20,26=3,38=1,57=2/1,3;
 2/9=110,17=6,18=5,40=1/2;
 3/5=21,11=2,16=1,25=1,30=1,74=-5,75=5/1,2,3;
 4/9=2,13=1/1;
 5/5=2,32=2,38=5/2;
 6/7=2,8=2,9=2,10=2,28=1/1;
 7//1,2,3,16;
 1/14=-1,18=20/3(3);
 2/9=110/2;
 6/7=2,8=2,9=2,10=2,19=2,28=1/1;
 99//99;
 2/9=110/2;
 3/5=21,11=2,16=1,25=1,30=1,74=-5,75=5/1,2,3;
 4/5=5,9=2,16=3/1;
 5/5=2,32=2,38=5/2;
 7//1,2,3,16;
 1/14=-1,18=20/3(-5);
 2/9=110/2;
 6/7=2,8=2,9=2,10=2,19=2,28=1/1;
 99/9=1/99;
 Leave Link    1 at Sat Jun  4 14:19:00 2011, MaxMem= 1073741824 cpu:       1.3
 (Enter /system/software/hal/g03-e01-patched/g03/l101.exe)
 ----------------------------
 Bicyclopropylidene geometry.
 ----------------------------
 Symbolic Z-matrix:
 Charge =  0 Multiplicity = 1
 C                    -0.75765  -2.04653   0. 
 C                     0.75765  -2.04653   0. 
 C                     0.       -0.6777    0. 
 H                    -1.29598  -2.3053   -0.87981 
 H                    -1.29598  -2.3053    0.87981 
 H                     1.29598  -2.3053   -0.87981 
 H                     1.29598  -2.3053    0.87981 
 C                     0.        0.6777    0. 
 C                     0.75765   2.04653   0. 
 C                    -0.75765   2.04653   0. 
 H                     1.29598   2.3053   -0.87981 
 H                     1.29598   2.3053    0.87981 
 H                    -1.29598   2.3053    0.87981 
 H                    -1.29598   2.3053   -0.87981 
 
                    Isotopes and Nuclear Properties:
 (Nuclear quadrupole moments (NQMom) in fm**2, nuclear magnetic moments (NMagM)
  in nuclear magnetons)

  Atom         1           2           3           4           5           6           7           8           9          10
 IAtWgt=          12          12          12           1           1           1           1          12          12          12
 AtmWgt=  12.0000000  12.0000000  12.0000000   1.0078250   1.0078250   1.0078250   1.0078250  12.0000000  12.0000000  12.0000000
 NucSpn=           0           0           0           1           1           1           1           0           0           0
 AtZEff=   0.0000000   0.0000000   0.0000000   0.0000000   0.0000000   0.0000000   0.0000000   0.0000000   0.0000000   0.0000000
 NQMom=    0.0000000   0.0000000   0.0000000   0.0000000   0.0000000   0.0000000   0.0000000   0.0000000   0.0000000   0.0000000
 NMagM=    0.0000000   0.0000000   0.0000000   2.7928460   2.7928460   2.7928460   2.7928460   0.0000000   0.0000000   0.0000000

  Atom        11          12          13          14
 IAtWgt=           1           1           1           1
 AtmWgt=   1.0078250   1.0078250   1.0078250   1.0078250
 NucSpn=           1           1           1           1
 AtZEff=   0.0000000   0.0000000   0.0000000   0.0000000
 NQMom=    0.0000000   0.0000000   0.0000000   0.0000000
 NMagM=    2.7928460   2.7928460   2.7928460   2.7928460
 Leave Link  101 at Sat Jun  4 14:19:04 2011, MaxMem= 1073741824 cpu:       0.6
 (Enter /system/software/hal/g03-e01-patched/g03/l103.exe)

 GradGradGradGradGradGradGradGradGradGradGradGradGradGradGradGradGradGrad
 Berny optimization.
 Initialization pass.
                           ----------------------------
                           !    Initial Parameters    !
                           ! (Angstroms and Degrees)  !
 --------------------------                            --------------------------
 ! Name  Definition              Value          Derivative Info.                !
 --------------------------------------------------------------------------------
 ! R1    R(1,2)                  1.5153         estimate D2E/DX2                !
 ! R2    R(1,3)                  1.5645         estimate D2E/DX2                !
 ! R3    R(1,4)                  1.0634         estimate D2E/DX2                !
 ! R4    R(1,5)                  1.0634         estimate D2E/DX2                !
 ! R5    R(2,3)                  1.5645         estimate D2E/DX2                !
 ! R6    R(2,6)                  1.0634         estimate D2E/DX2                !
 ! R7    R(2,7)                  1.0634         estimate D2E/DX2                !
 ! R8    R(3,8)                  1.3554         estimate D2E/DX2                !
 ! R9    R(8,9)                  1.5645         estimate D2E/DX2                !
 ! R10   R(8,10)                 1.5645         estimate D2E/DX2                !
 ! R11   R(9,10)                 1.5153         estimate D2E/DX2                !
 ! R12   R(9,11)                 1.0634         estimate D2E/DX2                !
 ! R13   R(9,12)                 1.0634         estimate D2E/DX2                !
 ! R14   R(10,13)                1.0634         estimate D2E/DX2                !
 ! R15   R(10,14)                1.0634         estimate D2E/DX2                !
 ! A1    A(2,1,4)              120.4132         estimate D2E/DX2                !
 ! A2    A(2,1,5)              120.4132         estimate D2E/DX2                !
 ! A3    A(3,1,4)              117.262          estimate D2E/DX2                !
 ! A4    A(3,1,5)              117.262          estimate D2E/DX2                !
 ! A5    A(4,1,5)              111.6555         estimate D2E/DX2                !
 ! A6    A(1,2,6)              120.4132         estimate D2E/DX2                !
 ! A7    A(1,2,7)              120.4132         estimate D2E/DX2                !
 ! A8    A(3,2,6)              117.262          estimate D2E/DX2                !
 ! A9    A(3,2,7)              117.262          estimate D2E/DX2                !
 ! A10   A(6,2,7)              111.6555         estimate D2E/DX2                !
 ! A11   A(1,3,8)              151.0353         estimate D2E/DX2                !
 ! A12   A(2,3,8)              151.0353         estimate D2E/DX2                !
 ! A13   A(3,8,9)              151.0353         estimate D2E/DX2                !
 ! A14   A(3,8,10)             151.0353         estimate D2E/DX2                !
 ! A15   A(8,9,11)             117.262          estimate D2E/DX2                !
 ! A16   A(8,9,12)             117.262          estimate D2E/DX2                !
 ! A17   A(10,9,11)            120.4132         estimate D2E/DX2                !
 ! A18   A(10,9,12)            120.4132         estimate D2E/DX2                !
 ! A19   A(11,9,12)            111.6555         estimate D2E/DX2                !
 ! A20   A(8,10,13)            117.262          estimate D2E/DX2                !
 ! A21   A(8,10,14)            117.262          estimate D2E/DX2                !
 ! A22   A(9,10,13)            120.4132         estimate D2E/DX2                !
 ! A23   A(9,10,14)            120.4132         estimate D2E/DX2                !
 ! A24   A(13,10,14)           111.6555         estimate D2E/DX2                !
 ! D1    D(4,1,2,6)              0.0            estimate D2E/DX2                !
 ! D2    D(4,1,2,7)           -147.2201         estimate D2E/DX2                !
 ! D3    D(5,1,2,6)            147.2201         estimate D2E/DX2                !
 ! D4    D(5,1,2,7)              0.0            estimate D2E/DX2                !
 ! D5    D(4,1,3,8)             68.5501         estimate D2E/DX2                !
 ! D6    D(5,1,3,8)            -68.5501         estimate D2E/DX2                !
 ! D7    D(6,2,3,8)            -68.5501         estimate D2E/DX2                !
 ! D8    D(7,2,3,8)             68.5501         estimate D2E/DX2                !
 ! D9    D(1,3,8,9)            180.0            estimate D2E/DX2                !
 ! D10   D(1,3,8,10)             0.0            estimate D2E/DX2                !
 ! D11   D(2,3,8,9)              0.0            estimate D2E/DX2                !
 ! D12   D(2,3,8,10)           180.0            estimate D2E/DX2                !
 ! D13   D(3,8,9,11)            68.5501         estimate D2E/DX2                !
 ! D14   D(3,8,9,12)           -68.5501         estimate D2E/DX2                !
 ! D15   D(3,8,10,13)           68.5501         estimate D2E/DX2                !
 ! D16   D(3,8,10,14)          -68.5501         estimate D2E/DX2                !
 ! D17   D(11,9,10,13)        -147.2201         estimate D2E/DX2                !
 ! D18   D(11,9,10,14)           0.0            estimate D2E/DX2                !
 ! D19   D(12,9,10,13)           0.0            estimate D2E/DX2                !
 ! D20   D(12,9,10,14)         147.2201         estimate D2E/DX2                !
 --------------------------------------------------------------------------------
 Trust Radius=3.00D-01 FncErr=1.00D-07 GrdErr=1.00D-06
 Number of steps in this run=  69 maximum allowed number of steps= 100.
 GradGradGradGradGradGradGradGradGradGradGradGradGradGradGradGradGradGrad

 Leave Link  103 at Sat Jun  4 14:19:08 2011, MaxMem= 1073741824 cpu:       0.2
 (Enter /system/software/hal/g03-e01-patched/g03/l202.exe)
                          Input orientation:                          
 ---------------------------------------------------------------------
 Center     Atomic     Atomic              Coordinates (Angstroms)
 Number     Number      Type              X           Y           Z
 ---------------------------------------------------------------------
    1          6             0       -0.757649   -2.046530    0.000000
    2          6             0        0.757649   -2.046530    0.000000
    3          6             0        0.000000   -0.677704    0.000000
    4          1             0       -1.295975   -2.305303   -0.879805
    5          1             0       -1.295975   -2.305303    0.879805
    6          1             0        1.295975   -2.305303   -0.879805
    7          1             0        1.295975   -2.305303    0.879805
    8          6             0        0.000000    0.677704    0.000000
    9          6             0        0.757649    2.046530    0.000000
   10          6             0       -0.757649    2.046530    0.000000
   11          1             0        1.295975    2.305303   -0.879805
   12          1             0        1.295975    2.305303    0.879805
   13          1             0       -1.295975    2.305303    0.879805
   14          1             0       -1.295975    2.305303   -0.879805
 ---------------------------------------------------------------------
                    Distance matrix (angstroms):
                    1          2          3          4          5
     1  C    0.000000
     2  C    1.515299   0.000000
     3  C    1.564518   1.564518   0.000000
     4  H    1.063398   2.249087   2.258913   0.000000
     5  H    1.063398   2.249087   2.258913   1.759610   0.000000
     6  H    2.249087   1.063398   2.258913   2.591950   3.132800
     7  H    2.249087   1.063398   2.258913   3.132800   2.591950
     8  C    2.827629   2.827629   1.355408   3.369264   3.369264
     9  C    4.364547   4.093060   2.827629   4.891818   4.891818
    10  C    4.093060   4.364547   2.827629   4.472394   4.472394
    11  H    4.891818   4.472394   3.369264   5.289225   5.574238
    12  H    4.891818   4.472394   3.369264   5.574238   5.289225
    13  H    4.472394   4.891818   3.369264   4.934969   4.610607
    14  H    4.472394   4.891818   3.369264   4.610607   4.934969
                    6          7          8          9         10
     6  H    0.000000
     7  H    1.759610   0.000000
     8  C    3.369264   3.369264   0.000000
     9  C    4.472394   4.472394   1.564518   0.000000
    10  C    4.891818   4.891818   1.564518   1.515299   0.000000
    11  H    4.610607   4.934969   2.258913   1.063398   2.249087
    12  H    4.934969   4.610607   2.258913   1.063398   2.249087
    13  H    5.574238   5.289225   2.258913   2.249087   1.063398
    14  H    5.289225   5.574238   2.258913   2.249087   1.063398
                   11         12         13         14
    11  H    0.000000
    12  H    1.759610   0.000000
    13  H    3.132800   2.591950   0.000000
    14  H    2.591950   3.132800   1.759610   0.000000
 Stoichiometry    C6H8
 Framework group  D2H[C2(C.C),SG"(C4),X(H8)]
 Deg. of freedom     6
 Full point group                 D2H
 Largest Abelian subgroup         D2H     NOp   8
 Largest concise Abelian subgroup D2H     NOp   8
                         Standard orientation:                         
 ---------------------------------------------------------------------
 Center     Atomic     Atomic              Coordinates (Angstroms)
 Number     Number      Type              X           Y           Z
 ---------------------------------------------------------------------
    1          6             0        2.046530    0.757649    0.000000
    2          6             0        2.046530   -0.757649    0.000000
    3          6             0        0.677704    0.000000    0.000000
    4          1             0        2.305303    1.295975    0.879805
    5          1             0        2.305303    1.295975   -0.879805
    6          1             0        2.305303   -1.295975    0.879805
    7          1             0        2.305303   -1.295975   -0.879805
    8          6             0       -0.677704    0.000000    0.000000
    9          6             0       -2.046530   -0.757649    0.000000
   10          6             0       -2.046530    0.757649    0.000000
   11          1             0       -2.305303   -1.295975    0.879805
   12          1             0       -2.305303   -1.295975   -0.879805
   13          1             0       -2.305303    1.295975   -0.879805
   14          1             0       -2.305303    1.295975    0.879805
 ---------------------------------------------------------------------
 Rotational constants (GHZ):     10.6764149      1.9352097      1.7073403
 Leave Link  202 at Sat Jun  4 14:19:12 2011, MaxMem= 1073741824 cpu:       0.3
 (Enter /system/software/hal/g03-e01-patched/g03/l301.exe)
 Standard basis: EPR-II (5D, 7F)
 There are    30 symmetry adapted basis functions of AG  symmetry.
 There are    23 symmetry adapted basis functions of B1G symmetry.
 There are    14 symmetry adapted basis functions of B2G symmetry.
 There are    12 symmetry adapted basis functions of B3G symmetry.
 There are    12 symmetry adapted basis functions of AU  symmetry.
 There are    14 symmetry adapted basis functions of B1U symmetry.
 There are    23 symmetry adapted basis functions of B2U symmetry.
 There are    30 symmetry adapted basis functions of B3U symmetry.
 Integral buffers will be    131072 words long.
 Raffenetti 2 integral format.
 Two-electron integral symmetry is turned on.
   158 basis functions,   258 primitive gaussians,   164 cartesian basis functions
    22 alpha electrons       22 beta electrons
       nuclear repulsion energy       202.0907051985 Hartrees.
 IExCor= 402 DFT=T Ex=B+HF Corr=LYP ExCW=0 ScaHFX=  0.200000
 ScaDFX=  0.800000  0.720000  1.000000  0.810000
 IRadAn=      5 IRanWt=     -1 IRanGd=            0 ICorTp=0
 NAtoms=   14 NActive=   14 NUniq=    3 SFac= 3.00D+00 NAtFMM=   80 NAOKFM=F Big=F
 Leave Link  301 at Sat Jun  4 14:19:16 2011, MaxMem= 1073741824 cpu:       0.3
 (Enter /system/software/hal/g03-e01-patched/g03/l302.exe)
 NPDir=0 NMtPBC=     1 NCelOv=     1 NCel=       1 NClECP=     1 NCelD=      1
         NCelK=      1 NCelE2=     1 NClLst=     1 CellRange=     0.0.
 One-electron integrals computed using PRISM.
 One-electron integral symmetry used in STVInt
 NBasis=   158 RedAO= T  NBF=    30    23    14    12    12    14    23    30
 NBsUse=   158 1.00D-06 NBFU=    30    23    14    12    12    14    23    30
 Precomputing XC quadrature grid using
 IXCGrd= 2 IRadAn=           5 IRanWt=          -1 IRanGd=           0.
 NRdTot=    1182 NPtTot=      317956 NUsed=      326287 NTot=      326319
 NSgBfM=   158   158   158   158.
 Leave Link  302 at Sat Jun  4 14:19:20 2011, MaxMem= 1073741824 cpu:       2.6
 (Enter /system/software/hal/g03-e01-patched/g03/l303.exe)
 DipDrv:  MaxL=1.
 Leave Link  303 at Sat Jun  4 14:19:24 2011, MaxMem= 1073741824 cpu:       0.2
 (Enter /system/software/hal/g03-e01-patched/g03/l401.exe)
 SCF N**3 symmetry information disabled.
 Harris functional with IExCor=  402 diagonalized for initial guess.
 ExpMin= 4.79D-02 ExpMax= 4.23D+03 ExpMxC= 6.35D+02 IAcc=3 IRadAn=         5 AccDes= 0.00D+00
 HarFok:  IExCor= 402 AccDes= 0.00D+00 IRadAn=         5 IDoV=1
 ScaDFX=  1.000000  1.000000  1.000000  1.000000
 Harris En= -233.438751646094    
 Initial guess orbital symmetries:
       Occupied  (B3U) (AG) (B1G) (B2U) (AG) (B3U) (AG) (B3U) (AG)
                 (B2U) (B1G) (B3U) (AG) (B1U) (B2G) (B3G) (AU)
                 (B3U) (B2U) (AG) (B1G) (?A)
       Virtual   (?A) (B2U) (B3U) (AG) (B2U) (B1G) (B3U) (AG) (B1G)
                 (B1U) (B3U) (AG) (B2U) (B2G) (AG) (B1G) (B3G)
                 (AU) (B2U) (B3U) (B1U) (B1G) (B3G) (AG) (B2G)
                 (B2U) (B3U) (B1U) (B1G) (AG) (B3U) (B3U) (B2U)
                 (AU) (B1G) (B2G) (B2U) (AG) (B3U) (B1G) (AG) (B1U)
                 (B2G) (AG) (B3U) (AG) (B2U) (B1G) (B1U) (B3G)
                 (B3U) (AU) (B2U) (B3G) (AG) (AU) (B3U) (B2G) (B3G)
                 (B1U) (AG) (B2U) (B1G) (B3U) (B3U) (B2G) (B3G)
                 (AU) (AG) (AU) (B1G) (B2U) (B1U) (B3U) (B2G) (B1G)
                 (AG) (B2U) (B1U) (B1G) (B2U) (B2G) (B3U) (AG)
                 (B3U) (B1G) (B1U) (B2U) (B3G) (AG) (B3U) (B3G)
                 (AU) (AU) (AG) (B2G) (B2U) (B1G) (B3U) (AG) (B1U)
                 (B1G) (B2G) (B3U) (B3G) (AU) (B2U) (B1G) (AG)
                 (B1U) (B2G) (B3G) (AU) (B3U) (AG) (B3U) (B2U)
                 (AG) (B1G) (B2U) (B1G) (B3U) (AG) (B3U) (AG) (B2U)
                 (B3U) (B1G) (B1U) (B2G) (B3G) (AU) (AG) (B3U)
                 (B2U) (B1G)
 Leave Link  401 at Sat Jun  4 14:19:28 2011, MaxMem= 1073741824 cpu:       1.7
 (Enter /system/software/hal/g03-e01-patched/g03/l502.exe)
 Closed shell SCF:
 Requested convergence on RMS density matrix=1.00D-08 within 128 cycles.
 Requested convergence on MAX density matrix=1.00D-06.
 Requested convergence on             energy=1.00D-06.
 No special actions if energy rises.
 Using DIIS extrapolation, IDIIS=  1040.
 Integral symmetry usage will be decided dynamically.
       326286 words used for storage of precomputed grid.
 Keep R1 integrals in memory in canonical form, NReq=    95044997.
 IEnd=    441788 IEndB=    441788 NGot=1073741824 MDV= 981806508
 LenX= 981806508
 Symmetry not used in FoFDir.
 MinBra= 0 MaxBra= 2 Meth= 1.
 IRaf=       0 NMat=   1 IRICut=       1 DoRegI=T DoRafI=F ISym2E= 0 JSym2E=0.

 Density matrix breaks symmetry, PCut= 1.00D-04
 Density matrix has no symmetry -- integrals replicated.
 Cycle   1  Pass 1  IDiag  1:
 E= -232.768908662384    
 DIIS: error= 3.99D-02 at cycle   1 NSaved=   1.
 NSaved= 1 IEnMin= 1 EnMin= -232.768908662384     IErMin= 1 ErrMin= 3.99D-02
 ErrMax= 3.99D-02 EMaxC= 1.00D-01 BMatC= 2.72D-01 BMatP= 2.72D-01
 IDIUse=3 WtCom= 6.01D-01 WtEn= 3.99D-01
 Coeff-Com:  0.100D+01
 Coeff-En:   0.100D+01
 Coeff:      0.100D+01
 Gap=    -0.285 Goal=   None    Shift=    0.000
 GapD=   -0.285 DampG=0.250 DampE=0.500 DampFc=0.2500 IDamp=-1.
 Damping current iteration by 2.50D-01
 RMSDP=1.44D-02 MaxDP=6.13D-01              OVMax= 9.18D-01

 Density matrix breaks symmetry, PCut= 1.00D-04
 Density matrix has no symmetry -- integrals replicated.
 Cycle   2  Pass 1  IDiag  1:
 E= -232.953831185158     Delta-E=       -0.184922522774 Rises=F Damp=T
 DIIS: error= 1.95D-02 at cycle   2 NSaved=   2.
 NSaved= 2 IEnMin= 2 EnMin= -232.953831185158     IErMin= 2 ErrMin= 1.95D-02
 ErrMax= 1.95D-02 EMaxC= 1.00D-01 BMatC= 4.81D-02 BMatP= 2.72D-01
 IDIUse=3 WtCom= 8.05D-01 WtEn= 1.95D-01
 Coeff-Com: -0.348D+00 0.135D+01
 Coeff-En:   0.000D+00 0.100D+01
 Coeff:     -0.280D+00 0.128D+01
 Gap=     0.204 Goal=   None    Shift=    0.000
 RMSDP=5.26D-03 MaxDP=2.40D-01 DE=-1.85D-01 OVMax= 4.55D-01

 Density matrix breaks symmetry, PCut= 1.00D-04
 Density matrix has no symmetry -- integrals replicated.
 Cycle   3  Pass 1  IDiag  1:
 E= -233.319738653217     Delta-E=       -0.365907468059 Rises=F Damp=F
 DIIS: error= 1.15D-02 at cycle   3 NSaved=   3.
 NSaved= 3 IEnMin= 3 EnMin= -233.319738653217     IErMin= 3 ErrMin= 1.15D-02
 ErrMax= 1.15D-02 EMaxC= 1.00D-01 BMatC= 2.28D-02 BMatP= 4.81D-02
 IDIUse=3 WtCom= 8.85D-01 WtEn= 1.15D-01
 Coeff-Com: -0.279D-01 0.437D+00 0.590D+00
 Coeff-En:   0.000D+00 0.000D+00 0.100D+01
 Coeff:     -0.246D-01 0.387D+00 0.638D+00
 Gap=     0.238 Goal=   None    Shift=    0.000
 RMSDP=1.32D-03 MaxDP=5.08D-02 DE=-3.66D-01 OVMax= 6.57D-02

 Density matrix breaks symmetry, PCut= 1.00D-04
 Density matrix has no symmetry -- integrals replicated.
 Cycle   4  Pass 1  IDiag  1:
 E= -233.335370971522     Delta-E=       -0.015632318305 Rises=F Damp=F
 DIIS: error= 1.09D-02 at cycle   4 NSaved=   4.
 NSaved= 4 IEnMin= 4 EnMin= -233.335370971522     IErMin= 4 ErrMin= 1.09D-02
 ErrMax= 1.09D-02 EMaxC= 1.00D-01 BMatC= 8.66D-03 BMatP= 2.28D-02
 IDIUse=3 WtCom= 8.91D-01 WtEn= 1.09D-01
 Coeff-Com:  0.130D+00-0.879D-01 0.378D+00 0.580D+00
 Coeff-En:   0.000D+00 0.000D+00 0.219D+00 0.781D+00
 Coeff:      0.116D+00-0.784D-01 0.361D+00 0.602D+00
 Gap=     0.250 Goal=   None    Shift=    0.000
 RMSDP=5.91D-04 MaxDP=2.25D-02 DE=-1.56D-02 OVMax= 3.66D-02

 Density matrix breaks symmetry, PCut= 1.00D-04
 Density matrix has no symmetry -- integrals replicated.
 Cycle   5  Pass 1  IDiag  1:
 E= -233.345028853378     Delta-E=       -0.009657881857 Rises=F Damp=F
 DIIS: error= 6.73D-04 at cycle   5 NSaved=   5.
 NSaved= 5 IEnMin= 5 EnMin= -233.345028853378     IErMin= 5 ErrMin= 6.73D-04
 ErrMax= 6.73D-04 EMaxC= 1.00D-01 BMatC= 7.12D-05 BMatP= 8.66D-03
 IDIUse=3 WtCom= 9.93D-01 WtEn= 6.73D-03
 Coeff-Com:  0.295D-01-0.344D-01 0.418D-01 0.654D-01 0.898D+00
 Coeff-En:   0.000D+00 0.000D+00 0.000D+00 0.000D+00 0.100D+01
 Coeff:      0.293D-01-0.342D-01 0.415D-01 0.649D-01 0.898D+00
 Gap=     0.249 Goal=   None    Shift=    0.000
 RMSDP=1.13D-04 MaxDP=5.14D-03 DE=-9.66D-03 OVMax= 5.71D-03

 Density matrix breaks symmetry, PCut= 1.00D-04
 Density matrix has no symmetry -- integrals replicated.
 Cycle   6  Pass 1  IDiag  1:
 E= -233.345008239927     Delta-E=        0.000020613451 Rises=F Damp=F
 DIIS: error= 8.73D-04 at cycle   6 NSaved=   6.
 NSaved= 6 IEnMin= 5 EnMin= -233.345028853378     IErMin= 5 ErrMin= 6.73D-04
 ErrMax= 8.73D-04 EMaxC= 1.00D-01 BMatC= 1.06D-04 BMatP= 7.12D-05
 IDIUse=3 WtCom= 9.93D-01 WtEn= 6.73D-03
 Coeff-Com:  0.867D-02-0.144D-01-0.847D-02-0.331D-01 0.577D+00 0.470D+00
 Coeff-En:   0.000D+00 0.000D+00 0.000D+00 0.000D+00 0.568D+00 0.432D+00
 Coeff:      0.861D-02-0.143D-01-0.841D-02-0.329D-01 0.577D+00 0.470D+00
 Gap=     0.249 Goal=   None    Shift=    0.000
 RMSDP=6.41D-05 MaxDP=3.21D-03 DE= 2.06D-05 OVMax= 2.98D-03

 Density matrix breaks symmetry, PCut= 1.00D-04
 Density matrix has no symmetry -- integrals replicated.
 Cycle   7  Pass 1  IDiag  1:
 E= -233.345116539412     Delta-E=       -0.000108299485 Rises=F Damp=F
 DIIS: error= 1.51D-04 at cycle   7 NSaved=   7.
 NSaved= 7 IEnMin= 7 EnMin= -233.345116539412     IErMin= 7 ErrMin= 1.51D-04
 ErrMax= 1.51D-04 EMaxC= 1.00D-01 BMatC= 2.22D-06 BMatP= 7.12D-05
 IDIUse=3 WtCom= 9.98D-01 WtEn= 1.51D-03
 Coeff-Com:  0.856D-03-0.108D-02-0.374D-02-0.201D-01 0.502D-01 0.916D-01
 Coeff-Com:  0.882D+00
 Coeff-En:   0.000D+00 0.000D+00 0.000D+00 0.000D+00 0.000D+00 0.000D+00
 Coeff-En:   0.100D+01
 Coeff:      0.855D-03-0.107D-02-0.373D-02-0.200D-01 0.501D-01 0.914D-01
 Coeff:      0.882D+00
 Gap=     0.249 Goal=   None    Shift=    0.000
 RMSDP=1.15D-05 MaxDP=2.95D-04 DE=-1.08D-04 OVMax= 4.48D-04

 Cycle   8  Pass 1  IDiag  1:
 E= -233.345455533719     Delta-E=       -0.000338994307 Rises=F Damp=F
 DIIS: error= 1.96D-05 at cycle   8 NSaved=   8.
 NSaved= 8 IEnMin= 8 EnMin= -233.345455533719     IErMin= 8 ErrMin= 1.96D-05
 ErrMax= 1.96D-05 EMaxC= 1.00D-01 BMatC= 2.13D-08 BMatP= 2.22D-06
 IDIUse=1 WtCom= 1.00D+00 WtEn= 0.00D+00
 Coeff-Com:  0.199D-03-0.108D-03-0.572D-03-0.209D-02 0.829D-02 0.519D-02
 Coeff-Com:  0.121D+00 0.868D+00
 Coeff:      0.199D-03-0.108D-03-0.572D-03-0.209D-02 0.829D-02 0.519D-02
 Coeff:      0.121D+00 0.868D+00
 Gap=     0.249 Goal=   None    Shift=    0.000
 RMSDP=2.12D-06 MaxDP=7.50D-05 DE=-3.39D-04 OVMax= 1.16D-04

 Cycle   9  Pass 1  IDiag  1:
 E= -233.345217548222     Delta-E=        0.000237985496 Rises=F Damp=F
 DIIS: error= 4.83D-06 at cycle   9 NSaved=   9.
 NSaved= 9 IEnMin= 8 EnMin= -233.345455533719     IErMin= 9 ErrMin= 4.83D-06
 ErrMax= 4.83D-06 EMaxC= 1.00D-01 BMatC= 1.96D-09 BMatP= 2.13D-08
 IDIUse=1 WtCom= 1.00D+00 WtEn= 0.00D+00
 Coeff-Com:  0.676D-05-0.146D-04-0.430D-04-0.187D-03 0.178D-02 0.722D-03
 Coeff-Com:  0.413D-02 0.231D+00 0.763D+00
 Coeff:      0.676D-05-0.146D-04-0.430D-04-0.187D-03 0.178D-02 0.722D-03
 Coeff:      0.413D-02 0.231D+00 0.763D+00
 Gap=     0.249 Goal=   None    Shift=    0.000
 RMSDP=6.40D-07 MaxDP=2.82D-05 DE= 2.38D-04 OVMax= 3.88D-05

 Cycle  10  Pass 1  IDiag  1:
 E= -233.345125078821     Delta-E=        0.000092469401 Rises=F Damp=F
 DIIS: error= 9.03D-07 at cycle  10 NSaved=  10.
 NSaved=10 IEnMin= 8 EnMin= -233.345455533719     IErMin=10 ErrMin= 9.03D-07
 ErrMax= 9.03D-07 EMaxC= 1.00D-01 BMatC= 5.59D-11 BMatP= 1.96D-09
 IDIUse=1 WtCom= 1.00D+00 WtEn= 0.00D+00
 Coeff-Com:  0.205D-05-0.574D-05 0.655D-06 0.157D-04 0.967D-04 0.635D-04
 Coeff-Com: -0.119D-02 0.622D-01 0.144D+00 0.795D+00
 Coeff:      0.205D-05-0.574D-05 0.655D-06 0.157D-04 0.967D-04 0.635D-04
 Coeff:     -0.119D-02 0.622D-01 0.144D+00 0.795D+00
 Gap=     0.249 Goal=   None    Shift=    0.000
 RMSDP=8.66D-08 MaxDP=2.77D-06 DE= 9.25D-05 OVMax= 2.54D-06

 Cycle  11  Pass 1  IDiag  1:
 E= -233.345118768248     Delta-E=        0.000006310574 Rises=F Damp=F
 DIIS: error= 1.52D-07 at cycle  11 NSaved=  11.
 NSaved=11 IEnMin= 8 EnMin= -233.345455533719     IErMin=11 ErrMin= 1.52D-07
 ErrMax= 1.52D-07 EMaxC= 1.00D-01 BMatC= 2.17D-12 BMatP= 5.59D-11
 IDIUse=1 WtCom= 1.00D+00 WtEn= 0.00D+00
 Coeff-Com:  0.101D-05-0.257D-05-0.559D-05-0.151D-04 0.662D-04 0.792D-04
 Coeff-Com:  0.548D-03-0.832D-03-0.185D-01-0.154D+00 0.117D+01
 Coeff:      0.101D-05-0.257D-05-0.559D-05-0.151D-04 0.662D-04 0.792D-04
 Coeff:      0.548D-03-0.832D-03-0.185D-01-0.154D+00 0.117D+01
 Gap=     0.249 Goal=   None    Shift=    0.000
 RMSDP=1.49D-08 MaxDP=3.98D-07 DE= 6.31D-06 OVMax= 4.77D-07

 Cycle  12  Pass 1  IDiag  1:
 E= -233.345118990024     Delta-E=       -0.000000221776 Rises=F Damp=F
 DIIS: error= 4.78D-08 at cycle  12 NSaved=  12.
 NSaved=12 IEnMin= 8 EnMin= -233.345455533719     IErMin=12 ErrMin= 4.78D-08
 ErrMax= 4.78D-08 EMaxC= 1.00D-01 BMatC= 1.96D-13 BMatP= 2.17D-12
 IDIUse=1 WtCom= 1.00D+00 WtEn= 0.00D+00
 Coeff-Com:  0.490D-07-0.269D-06-0.115D-05-0.509D-05 0.278D-04 0.172D-04
 Coeff-Com:  0.162D-03-0.180D-02-0.710D-02-0.591D-01 0.342D+00 0.725D+00
 Coeff:      0.490D-07-0.269D-06-0.115D-05-0.509D-05 0.278D-04 0.172D-04
 Coeff:      0.162D-03-0.180D-02-0.710D-02-0.591D-01 0.342D+00 0.725D+00
 Gap=     0.249 Goal=   None    Shift=    0.000
 RMSDP=4.09D-09 MaxDP=6.16D-08 DE=-2.22D-07 OVMax= 8.45D-08

 SCF Done:  E(RB+HF-LYP) =  -233.345118990     A.U. after   12 cycles
             Convg  =    0.4087D-08             -V/T =  2.0096
             S**2   =   0.0000
 KE= 2.311205291865D+02 PE=-9.435227701314D+02 EE= 2.769664167564D+02
 Leave Link  502 at Sat Jun  4 14:19:48 2011, MaxMem= 1073741824 cpu:     129.9
 (Enter /system/software/hal/g03-e01-patched/g03/l601.exe)
 Copying SCF densities to generalized density rwf, ISCF=0 IROHF=0.

 **********************************************************************

            Population analysis using the SCF density.

 **********************************************************************

 Orbital symmetries:
       Occupied  (AG) (B3U) (?A) (?A) (B1G) (B2U) (AG) (B3U) (AG)
                 (B2U) (B1G) (B3U) (AG) (B1U) (B2G) (B3G) (AU)
                 (B3U) (B2U) (AG) (B1U) (B1G)
       Virtual   (B2G) (AG) (B3U) (B2U) (B1G) (B2U) (AG) (B3U)
                 (B3U) (B1G) (AG) (B1U) (B2U) (AG) (B2G) (B3G)
                 (B1G) (B2U) (B3U) (B2G) (B1U) (AU) (AG) (B2U)
                 (B3G) (B1G) (B3U) (B1U) (B3U) (B1G) (AG) (AU)
                 (B3U) (B2U) (B2G) (B1G) (B2U) (AG) (B1G) (B3U)
                 (AG) (B1U) (B2G) (AG) (B3U) (AG) (B2U) (B1G) (B3G)
                 (B1U) (B3U) (AU) (B2U) (B3G) (AU) (AG) (B2G) (B3U)
                 (B3G) (B1U) (AG) (B1G) (B3U) (B2U) (B3U) (B3G)
                 (B2G) (AU) (AG) (AU) (B1G) (B1U) (B2U) (B3U) (B2G)
                 (B1G) (AG) (B1U) (B2U) (B2G) (B1G) (B2U) (B3U)
                 (AG) (B3U) (B1G) (B1U) (B2U) (B3G) (AG) (B3U)
                 (B3G) (AU) (AU) (AG) (B2G) (B2U) (B1G) (B3U) (AG)
                 (B1U) (B1G) (B2G) (B3U) (B2U) (B1G) (B3G) (AU)
                 (AG) (B1U) (B2G) (B3G) (AU) (B3U) (AG) (B3U) (B2U)
                 (AG) (B1G) (B2U) (B1G) (B3U) (AG) (B3U) (AG) (B2U)
                 (B3U) (B1G) (B1U) (B2G) (B3G) (AU) (AG) (B3U)
                 (B2U) (B1G)
 Unable to determine electronic state:  an orbital has unidentified symmetry.
 Alpha  occ. eigenvalues --  -10.21938 -10.21864 -10.19800 -10.19800 -10.19776
 Alpha  occ. eigenvalues --  -10.19776  -0.84139  -0.82192  -0.65588  -0.61289
 Alpha  occ. eigenvalues --   -0.60845  -0.51997  -0.48784  -0.47329  -0.46479
 Alpha  occ. eigenvalues --   -0.37083  -0.37016  -0.34446  -0.33273  -0.31348
 Alpha  occ. eigenvalues --   -0.24084  -0.23490
 Alpha virt. eigenvalues --    0.01368   0.02923   0.02974   0.03597   0.05980
 Alpha virt. eigenvalues --    0.08283   0.08456   0.11050   0.16182   0.16724
 Alpha virt. eigenvalues --    0.18834   0.19895   0.22477   0.22745   0.23987
 Alpha virt. eigenvalues --    0.26478   0.26801   0.27795   0.28296   0.29675
 Alpha virt. eigenvalues --    0.29872   0.30492   0.31374   0.31705   0.32159
 Alpha virt. eigenvalues --    0.32317   0.32624   0.39050   0.41337   0.42576
 Alpha virt. eigenvalues --    0.42652   0.44250   0.44356   0.48208   0.50144
 Alpha virt. eigenvalues --    0.51774   0.53172   0.58169   0.65607   0.67736
 Alpha virt. eigenvalues --    0.77406   0.77887   0.81705   0.83651   0.88142
 Alpha virt. eigenvalues --    0.89415   0.90484   0.92596   0.95047   0.95530
 Alpha virt. eigenvalues --    0.95912   0.99910   1.07355   1.09731   1.14653
 Alpha virt. eigenvalues --    1.15314   1.15661   1.15794   1.21411   1.26078
 Alpha virt. eigenvalues --    1.26988   1.27987   1.31948   1.32224   1.34339
 Alpha virt. eigenvalues --    1.43230   1.44116   1.44233   1.46145   1.46737
 Alpha virt. eigenvalues --    1.47995   1.49618   1.52027   1.52407   1.56580
 Alpha virt. eigenvalues --    1.58631   1.64165   1.71333   1.72601   1.74337
 Alpha virt. eigenvalues --    1.75556   1.75761   1.80207   1.80410   1.86353
 Alpha virt. eigenvalues --    1.93163   1.97621   2.04932   2.08278   2.13972
 Alpha virt. eigenvalues --    2.18158   2.21427   2.21816   2.25861   2.29541
 Alpha virt. eigenvalues --    2.36228   2.38549   2.39717   2.44141   2.44223
 Alpha virt. eigenvalues --    2.47929   2.54429   2.58826   2.61197   2.63003
 Alpha virt. eigenvalues --    2.63459   2.63791   2.64818   4.98885   5.01202
 Alpha virt. eigenvalues --    5.01377   5.03468   5.04873   5.21972   5.23384
 Alpha virt. eigenvalues --    5.29298   5.36030   5.47634   5.51940   5.72517
 Alpha virt. eigenvalues --    5.89152   5.90958  29.54407  29.78500  29.92440
 Alpha virt. eigenvalues --   30.10165  30.23865  30.30010  36.62507  36.62728
 Alpha virt. eigenvalues --   36.65617  36.67226  36.80303  36.82811  36.89740
 Alpha virt. eigenvalues --   37.01534
          Condensed to atoms (all electrons):
              1          2          3          4          5          6
     1  C    5.064673   0.261367   0.251882   0.419010   0.419010  -0.015384
     2  C    0.261367   5.064673   0.251882  -0.015384  -0.015384   0.419010
     3  C    0.251882   0.251882   5.182759  -0.021343  -0.021343  -0.021343
     4  H    0.419010  -0.015384  -0.021343   0.475009  -0.021460  -0.003571
     5  H    0.419010  -0.015384  -0.021343  -0.021460   0.475009   0.000853
     6  H   -0.015384   0.419010  -0.021343  -0.003571   0.000853   0.475009
     7  H   -0.015384   0.419010  -0.021343   0.000853  -0.003571  -0.021460
     8  C   -0.026258  -0.026258   0.423477  -0.002342  -0.002342  -0.002342
     9  C    0.000895  -0.002171  -0.026258  -0.000003  -0.000003  -0.000135
    10  C   -0.002171   0.000895  -0.026258  -0.000135  -0.000135  -0.000003
    11  H   -0.000003  -0.000135  -0.002342   0.000002  -0.000001   0.000002
    12  H   -0.000003  -0.000135  -0.002342  -0.000001   0.000002  -0.000003
    13  H   -0.000135  -0.000003  -0.002342  -0.000003   0.000002  -0.000001
    14  H   -0.000135  -0.000003  -0.002342   0.000002  -0.000003   0.000002
              7          8          9         10         11         12
     1  C   -0.015384  -0.026258   0.000895  -0.002171  -0.000003  -0.000003
     2  C    0.419010  -0.026258  -0.002171   0.000895  -0.000135  -0.000135
     3  C   -0.021343   0.423477  -0.026258  -0.026258  -0.002342  -0.002342
     4  H    0.000853  -0.002342  -0.000003  -0.000135   0.000002  -0.000001
     5  H   -0.003571  -0.002342  -0.000003  -0.000135  -0.000001   0.000002
     6  H   -0.021460  -0.002342  -0.000135  -0.000003   0.000002  -0.000003
     7  H    0.475009  -0.002342  -0.000135  -0.000003  -0.000003   0.000002
     8  C   -0.002342   5.182759   0.251882   0.251882  -0.021343  -0.021343
     9  C   -0.000135   0.251882   5.064673   0.261367   0.419010   0.419010
    10  C   -0.000003   0.251882   0.261367   5.064673  -0.015384  -0.015384
    11  H   -0.000003  -0.021343   0.419010  -0.015384   0.475009  -0.021460
    12  H    0.000002  -0.021343   0.419010  -0.015384  -0.021460   0.475009
    13  H    0.000002  -0.021343  -0.015384   0.419010   0.000853  -0.003571
    14  H   -0.000001  -0.021343  -0.015384   0.419010  -0.003571   0.000853
             13         14
     1  C   -0.000135  -0.000135
     2  C   -0.000003  -0.000003
     3  C   -0.002342  -0.002342
     4  H   -0.000003   0.000002
     5  H    0.000002  -0.000003
     6  H   -0.000001   0.000002
     7  H    0.000002  -0.000001
     8  C   -0.021343  -0.021343
     9  C   -0.015384  -0.015384
    10  C    0.419010   0.419010
    11  H    0.000853  -0.003571
    12  H   -0.003571   0.000853
    13  H    0.475009  -0.021460
    14  H   -0.021460   0.475009
 Mulliken atomic charges:
              1
     1  C   -0.357364
     2  C   -0.357364
     3  C    0.037260
     4  H    0.169367
     5  H    0.169367
     6  H    0.169367
     7  H    0.169367
     8  C    0.037260
     9  C   -0.357364
    10  C   -0.357364
    11  H    0.169367
    12  H    0.169367
    13  H    0.169367
    14  H    0.169367
 Sum of Mulliken charges=   0.00000
 Atomic charges with hydrogens summed into heavy atoms:
              1
     1  C   -0.018630
     2  C   -0.018630
     3  C    0.037260
     4  H    0.000000
     5  H    0.000000
     6  H    0.000000
     7  H    0.000000
     8  C    0.037260
     9  C   -0.018630
    10  C   -0.018630
    11  H    0.000000
    12  H    0.000000
    13  H    0.000000
    14  H    0.000000
 Sum of Mulliken charges=   0.00000
 Electronic spatial extent (au):  <R**2>=   727.7266
 Charge=     0.0000 electrons
 Dipole moment (field-independent basis, Debye):
    X=     0.0000    Y=     0.0000    Z=     0.0000  Tot=     0.0000
 Quadrupole moment (field-independent basis, Debye-Ang):
   XX=   -33.8952   YY=   -35.5001   ZZ=   -35.4727
   XY=     0.0000   XZ=     0.0000   YZ=     0.0000
 Traceless Quadrupole moment (field-independent basis, Debye-Ang):
   XX=     1.0608   YY=    -0.5441   ZZ=    -0.5167
   XY=     0.0000   XZ=     0.0000   YZ=     0.0000
 Octapole moment (field-independent basis, Debye-Ang**2):
  XXX=     0.0000  YYY=     0.0000  ZZZ=     0.0000  XYY=     0.0000
  XXY=     0.0000  XXZ=     0.0000  XZZ=     0.0000  YZZ=     0.0000
  YYZ=     0.0000  XYZ=     0.0000
 Hexadecapole moment (field-independent basis, Debye-Ang**3):
 XXXX=  -805.4213 YYYY=  -166.2675 ZZZZ=   -62.3103 XXXY=     0.0000
 XXXZ=     0.0000 YYYX=     0.0000 YYYZ=     0.0000 ZZZX=     0.0000
 ZZZY=     0.0000 XXYY=  -138.5808 XXZZ=  -124.5943 YYZZ=   -32.5648
 XXYZ=     0.0000 YYXZ=     0.0000 ZZXY=     0.0000
 N-N= 2.020907051985D+02 E-N=-9.435227697101D+02  KE= 2.311205291865D+02
 No NMR shielding tensors so no spin-rotation constants.
 Leave Link  601 at Sat Jun  4 14:19:52 2011, MaxMem= 1073741824 cpu:       1.9
 (Enter /system/software/hal/g03-e01-patched/g03/l701.exe)
 Compute integral first derivatives.
 ... and contract with generalized density number  0.
 Leave Link  701 at Sat Jun  4 14:19:56 2011, MaxMem= 1073741824 cpu:       1.8
 (Enter /system/software/hal/g03-e01-patched/g03/l702.exe)
 L702 exits ... SP integral derivatives will be done elsewhere.
 Leave Link  702 at Sat Jun  4 14:20:00 2011, MaxMem= 1073741824 cpu:       0.0
 (Enter /system/software/hal/g03-e01-patched/g03/l703.exe)
 Compute integral first derivatives, UseDBF=F.
 Integral derivatives from FoFDir, PRISM(SPDF).
 Petite list used in FoFDir.
 MinBra= 0 MaxBra= 2 Meth= 1.
 IRaf=       0 NMat=   1 IRICut=       1 DoRegI=T DoRafI=F ISym2E= 1 JSym2E=1.
 Leave Link  703 at Sat Jun  4 14:20:05 2011, MaxMem= 1073741824 cpu:       8.1
 (Enter /system/software/hal/g03-e01-patched/g03/l716.exe)
 Dipole        = 1.95399252D-13-1.86517468D-14-4.44089210D-16
 ***** Axes restored to original set *****
 -------------------------------------------------------------------
 Center     Atomic                   Forces (Hartrees/Bohr)
 Number     Number              X              Y              Z
 -------------------------------------------------------------------
    1          6           0.011436637    0.041143829    0.000000000
    2          6          -0.011436637    0.041143829    0.000000000
    3          6           0.000000000   -0.014829682    0.000000000
    4          1          -0.004046695   -0.004389379   -0.017543876
    5          1          -0.004046695   -0.004389379    0.017543876
    6          1           0.004046695   -0.004389379   -0.017543876
    7          1           0.004046695   -0.004389379    0.017543876
    8          6           0.000000000    0.014829674    0.000000000
    9          6          -0.011436636   -0.041143826    0.000000000
   10          6           0.011436636   -0.041143826    0.000000000
   11          1           0.004046696    0.004389379   -0.017543877
   12          1           0.004046696    0.004389379    0.017543877
   13          1          -0.004046696    0.004389379    0.017543877
   14          1          -0.004046696    0.004389379   -0.017543877
 -------------------------------------------------------------------
 Cartesian Forces:  Max     0.041143829 RMS     0.015797622
 Leave Link  716 at Sat Jun  4 14:20:09 2011, MaxMem= 1073741824 cpu:       0.0
 (Enter /system/software/hal/g03-e01-patched/g03/l103.exe)

 GradGradGradGradGradGradGradGradGradGradGradGradGradGradGradGradGradGrad
 Berny optimization.
 Internal  Forces:  Max     0.049900462 RMS     0.013340373
 Search for a local minimum.
 Step number   1 out of a maximum of  69
 All quantities printed in internal units (Hartrees-Bohrs-Radians)
 Second derivative matrix not updated -- first step.
     Eigenvalues ---    0.01225   0.01225   0.02386   0.02386   0.02679
     Eigenvalues ---    0.03518   0.03518   0.03538   0.03538   0.08424
     Eigenvalues ---    0.08424   0.10234   0.10234   0.11646   0.11646
     Eigenvalues ---    0.11985   0.11985   0.16000   0.16000   0.23992
     Eigenvalues ---    0.23992   0.25000   0.25000   0.26091   0.26091
     Eigenvalues ---    0.29871   0.29871   0.38077   0.38077   0.38077
     Eigenvalues ---    0.38077   0.38077   0.38077   0.38077   0.38077
     Eigenvalues ---    0.538871000.000001000.000001000.000001000.00000
     Eigenvalues --- 1000.000001000.000001000.000001000.000001000.00000
     Eigenvalues --- 1000.000001000.000001000.000001000.000001000.00000
     Eigenvalues --- 1000.000001000.000001000.000001000.000001000.00000
     Eigenvalues --- 1000.000001000.000001000.000001000.00000
 RFO step:  Lambda=-3.09578782D-02.
 Linear search not attempted -- first point.
 Maximum step size (   0.300) exceeded in Quadratic search.
    -- Step size scaled by   0.919
 Iteration  1 RMS(Cart)=  0.07444601 RMS(Int)=  0.00052785
 Iteration  2 RMS(Cart)=  0.00047067 RMS(Int)=  0.00040952
 Iteration  3 RMS(Cart)=  0.00000007 RMS(Int)=  0.00040952
 Variable       Old X    -DE/DX   Delta X   Delta X   Delta X     New X
                                 (Linear)    (Quad)   (Total)
    R1        2.86350   0.00894   0.00000   0.02892   0.02842   2.89192
    R2        2.95651  -0.03426   0.00000  -0.10920  -0.10895   2.84756
    R3        2.00953   0.01763   0.00000   0.03936   0.03936   2.04890
    R4        2.00953   0.01763   0.00000   0.03936   0.03936   2.04890
    R5        2.95651  -0.03426   0.00000  -0.10920  -0.10895   2.84756
    R6        2.00953   0.01763   0.00000   0.03936   0.03936   2.04890
    R7        2.00953   0.01763   0.00000   0.03936   0.03936   2.04890
    R8        2.56135  -0.04990   0.00000  -0.08050  -0.08050   2.48085
    R9        2.95651  -0.03426   0.00000  -0.10920  -0.10895   2.84756
   R10        2.95651  -0.03426   0.00000  -0.10920  -0.10895   2.84756
   R11        2.86350   0.00894   0.00000   0.02892   0.02842   2.89192
   R12        2.00953   0.01763   0.00000   0.03936   0.03936   2.04890
   R13        2.00953   0.01763   0.00000   0.03936   0.03936   2.04890
   R14        2.00953   0.01763   0.00000   0.03936   0.03936   2.04890
   R15        2.00953   0.01763   0.00000   0.03936   0.03936   2.04890
    A1        2.10161  -0.00199   0.00000  -0.02119  -0.02103   2.08057
    A2        2.10161  -0.00199   0.00000  -0.02119  -0.02103   2.08057
    A3        2.04661   0.00139   0.00000   0.00576   0.00533   2.05194
    A4        2.04661   0.00139   0.00000   0.00576   0.00533   2.05194
    A5        1.94876   0.00443   0.00000   0.03322   0.03265   1.98141
    A6        2.10161  -0.00199   0.00000  -0.02119  -0.02103   2.08057
    A7        2.10161  -0.00199   0.00000  -0.02119  -0.02103   2.08057
    A8        2.04661   0.00139   0.00000   0.00576   0.00533   2.05194
    A9        2.04661   0.00139   0.00000   0.00576   0.00533   2.05194
   A10        1.94876   0.00443   0.00000   0.03322   0.03265   1.98141
   A11        2.63606  -0.00814   0.00000  -0.02603  -0.02709   2.60898
   A12        2.63606  -0.00814   0.00000  -0.02603  -0.02709   2.60898
   A13        2.63606  -0.00814   0.00000  -0.02603  -0.02709   2.60898
   A14        2.63606  -0.00814   0.00000  -0.02603  -0.02709   2.60898
   A15        2.04661   0.00139   0.00000   0.00576   0.00533   2.05194
   A16        2.04661   0.00139   0.00000   0.00576   0.00533   2.05194
   A17        2.10161  -0.00199   0.00000  -0.02119  -0.02103   2.08057
   A18        2.10161  -0.00199   0.00000  -0.02119  -0.02103   2.08057
   A19        1.94876   0.00443   0.00000   0.03322   0.03265   1.98141
   A20        2.04661   0.00139   0.00000   0.00576   0.00533   2.05194
   A21        2.04661   0.00139   0.00000   0.00576   0.00533   2.05194
   A22        2.10161  -0.00199   0.00000  -0.02119  -0.02103   2.08057
   A23        2.10161  -0.00199   0.00000  -0.02119  -0.02103   2.08057
   A24        1.94876   0.00443   0.00000   0.03322   0.03265   1.98141
    D1        0.00000   0.00000   0.00000   0.00000   0.00000   0.00000
    D2       -2.56948  -0.00230   0.00000   0.00791   0.00783  -2.56164
    D3        2.56948   0.00230   0.00000  -0.00791  -0.00783   2.56164
    D4        0.00000   0.00000   0.00000   0.00000   0.00000   0.00000
    D5        1.19643   0.00565   0.00000   0.03626   0.03672   1.23315
    D6       -1.19643  -0.00565   0.00000  -0.03626  -0.03672  -1.23315
    D7       -1.19643  -0.00565   0.00000  -0.03626  -0.03672  -1.23315
    D8        1.19643   0.00565   0.00000   0.03626   0.03672   1.23315
    D9        3.14159   0.00000   0.00000   0.00000   0.00000   3.14159
   D10        0.00000   0.00000   0.00000   0.00000   0.00000   0.00000
   D11        0.00000   0.00000   0.00000   0.00000   0.00000   0.00000
   D12        3.14159   0.00000   0.00000   0.00000   0.00000   3.14159
   D13        1.19643   0.00565   0.00000   0.03626   0.03672   1.23315
   D14       -1.19643  -0.00565   0.00000  -0.03626  -0.03672  -1.23315
   D15        1.19643   0.00565   0.00000   0.03626   0.03672   1.23315
   D16       -1.19643  -0.00565   0.00000  -0.03626  -0.03672  -1.23315
   D17       -2.56948  -0.00230   0.00000   0.00791   0.00783  -2.56164
   D18        0.00000   0.00000   0.00000   0.00000   0.00000   0.00000
   D19        0.00000   0.00000   0.00000   0.00000   0.00000   0.00000
   D20        2.56948   0.00230   0.00000  -0.00791  -0.00783   2.56164
         Item               Value     Threshold  Converged?
 Maximum Force            0.049900     0.000015     NO 
 RMS     Force            0.013340     0.000010     NO 
 Maximum Displacement     0.173831     0.000060     NO 
 RMS     Displacement     0.074733     0.000040     NO 
 Predicted change in Energy=-1.679507D-02
 GradGradGradGradGradGradGradGradGradGradGradGradGradGradGradGradGradGrad

 Leave Link  103 at Sat Jun  4 14:20:13 2011, MaxMem= 1073741824 cpu:       0.5
 (Enter /system/software/hal/g03-e01-patched/g03/l202.exe)
                          Input orientation:                          
 ---------------------------------------------------------------------
 Center     Atomic     Atomic              Coordinates (Angstroms)
 Number     Number      Type              X           Y           Z
 ---------------------------------------------------------------------
    1          6             0       -0.765168   -1.954543    0.000000
    2          6             0        0.765168   -1.954543    0.000000
    3          6             0        0.000000   -0.656405    0.000000
    4          1             0       -1.294253   -2.225137   -0.906862
    5          1             0       -1.294253   -2.225137    0.906862
    6          1             0        1.294253   -2.225137   -0.906862
    7          1             0        1.294253   -2.225137    0.906862
    8          6             0        0.000000    0.656405    0.000000
    9          6             0        0.765168    1.954543    0.000000
   10          6             0       -0.765168    1.954543    0.000000
   11          1             0        1.294253    2.225137   -0.906862
   12          1             0        1.294253    2.225137    0.906862
   13          1             0       -1.294253    2.225137    0.906862
   14          1             0       -1.294253    2.225137   -0.906862
 ---------------------------------------------------------------------
                    Distance matrix (angstroms):
                    1          2          3          4          5
     1  C    0.000000
     2  C    1.530336   0.000000
     3  C    1.506865   1.506865   0.000000
     4  H    1.084229   2.266459   2.226749   0.000000
     5  H    1.084229   2.266459   2.226749   1.813725   0.000000
     6  H    2.266459   1.084229   2.226749   2.588506   3.160690
     7  H    2.266459   1.084229   2.226749   3.160690   2.588506
     8  C    2.720760   2.720760   1.312811   3.286453   3.286453
     9  C    4.197961   3.909086   2.720760   4.746929   4.746929
    10  C    3.909086   4.197961   2.720760   4.309531   4.309531
    11  H    4.746929   4.309531   3.286453   5.148330   5.458470
    12  H    4.746929   4.309531   3.286453   5.458470   5.148330
    13  H    4.309531   4.746929   3.286453   4.805677   4.450274
    14  H    4.309531   4.746929   3.286453   4.450274   4.805677
                    6          7          8          9         10
     6  H    0.000000
     7  H    1.813725   0.000000
     8  C    3.286453   3.286453   0.000000
     9  C    4.309531   4.309531   1.506865   0.000000
    10  C    4.746929   4.746929   1.506865   1.530336   0.000000
    11  H    4.450274   4.805677   2.226749   1.084229   2.266459
    12  H    4.805677   4.450274   2.226749   1.084229   2.266459
    13  H    5.458470   5.148330   2.226749   2.266459   1.084229
    14  H    5.148330   5.458470   2.226749   2.266459   1.084229
                   11         12         13         14
    11  H    0.000000
    12  H    1.813725   0.000000
    13  H    3.160690   2.588506   0.000000
    14  H    2.588506   3.160690   1.813725   0.000000
 Stoichiometry    C6H8
 Framework group  D2H[C2(C.C),SG"(C4),X(H8)]
 Deg. of freedom     6
 Full point group                 D2H
 Largest Abelian subgroup         D2H     NOp   8
 Largest concise Abelian subgroup D2H     NOp   8
                         Standard orientation:                         
 ---------------------------------------------------------------------
 Center     Atomic     Atomic              Coordinates (Angstroms)
 Number     Number      Type              X           Y           Z
 ---------------------------------------------------------------------
    1          6             0        1.954543    0.765168    0.000000
    2          6             0        1.954543   -0.765168    0.000000
    3          6             0        0.656405    0.000000    0.000000
    4          1             0        2.225137    1.294253    0.906862
    5          1             0        2.225137    1.294253   -0.906862
    6          1             0        2.225137   -1.294253    0.906862
    7          1             0        2.225137   -1.294253   -0.906862
    8          6             0       -0.656405    0.000000    0.000000
    9          6             0       -1.954543   -0.765168    0.000000
   10          6             0       -1.954543    0.765168    0.000000
   11          1             0       -2.225137   -1.294253    0.906862
   12          1             0       -2.225137   -1.294253   -0.906862
   13          1             0       -2.225137    1.294253   -0.906862
   14          1             0       -2.225137    1.294253    0.906862
 ---------------------------------------------------------------------
 Rotational constants (GHZ):     10.4764779      2.1034430      1.8361340
 Leave Link  202 at Sat Jun  4 14:20:16 2011, MaxMem= 1073741824 cpu:       0.3
 (Enter /system/software/hal/g03-e01-patched/g03/l301.exe)
 Standard basis: EPR-II (5D, 7F)
 There are    30 symmetry adapted basis functions of AG  symmetry.
 There are    23 symmetry adapted basis functions of B1G symmetry.
 There are    14 symmetry adapted basis functions of B2G symmetry.
 There are    12 symmetry adapted basis functions of B3G symmetry.
 There are    12 symmetry adapted basis functions of AU  symmetry.
 There are    14 symmetry adapted basis functions of B1U symmetry.
 There are    23 symmetry adapted basis functions of B2U symmetry.
 There are    30 symmetry adapted basis functions of B3U symmetry.
 Integral buffers will be    131072 words long.
 Raffenetti 2 integral format.
 Two-electron integral symmetry is turned on.
   158 basis functions,   258 primitive gaussians,   164 cartesian basis functions
    22 alpha electrons       22 beta electrons
       nuclear repulsion energy       206.1925777846 Hartrees.
 IExCor= 402 DFT=T Ex=B+HF Corr=LYP ExCW=0 ScaHFX=  0.200000
 ScaDFX=  0.800000  0.720000  1.000000  0.810000
 IRadAn=      5 IRanWt=     -1 IRanGd=            0 ICorTp=0
 NAtoms=   14 NActive=   14 NUniq=    3 SFac= 3.00D+00 NAtFMM=   80 NAOKFM=F Big=F
 Leave Link  301 at Sat Jun  4 14:20:20 2011, MaxMem= 1073741824 cpu:       0.1
 (Enter /system/software/hal/g03-e01-patched/g03/l302.exe)
 NPDir=0 NMtPBC=     1 NCelOv=     1 NCel=       1 NClECP=     1 NCelD=      1
         NCelK=      1 NCelE2=     1 NClLst=     1 CellRange=     0.0.
 One-electron integrals computed using PRISM.
 One-electron integral symmetry used in STVInt
 NBasis=   158 RedAO= T  NBF=    30    23    14    12    12    14    23    30
 NBsUse=   158 1.00D-06 NBFU=    30    23    14    12    12    14    23    30
 Precomputing XC quadrature grid using
 IXCGrd= 2 IRadAn=           5 IRanWt=          -1 IRanGd=           0.
 NRdTot=    1182 NPtTot=      317352 NUsed=      325683 NTot=      325715
 NSgBfM=   158   158   158   158.
 Leave Link  302 at Sat Jun  4 14:20:24 2011, MaxMem= 1073741824 cpu:       2.3
 (Enter /system/software/hal/g03-e01-patched/g03/l303.exe)
 DipDrv:  MaxL=1.
 Leave Link  303 at Sat Jun  4 14:20:28 2011, MaxMem= 1073741824 cpu:       0.4
 (Enter /system/software/hal/g03-e01-patched/g03/l401.exe)
 SCF N**3 symmetry information disabled.
 Initial guess read from the read-write file:
 Guess basis will be translated and rotated to current coordinates.
 Initial guess orbital symmetries:
       Occupied  (AG) (B3U) (?A) (?A) (B1G) (B2U) (AG) (B3U) (AG)
                 (B2U) (B1G) (B3U) (AG) (B1U) (B2G) (B3G) (AU)
                 (B3U) (B2U) (AG) (B1U) (B1G)
       Virtual   (B2G) (AG) (B3U) (B2U) (B1G) (B2U) (AG) (B3U)
                 (B3U) (B1G) (AG) (B1U) (B2U) (AG) (B2G) (B3G)
                 (B1G) (B2U) (B3U) (B2G) (B1U) (AU) (AG) (B2U)
                 (B3G) (B1G) (B3U) (B1U) (B3U) (B1G) (AG) (AU)
                 (B3U) (B2U) (B2G) (B1G) (B2U) (AG) (B1G) (B3U)
                 (AG) (B1U) (B2G) (AG) (B3U) (AG) (B2U) (B1G) (B3G)
                 (B1U) (B3U) (AU) (B2U) (B3G) (AU) (AG) (B2G) (B3U)
                 (B3G) (B1U) (AG) (B1G) (B3U) (B2U) (B3U) (B3G)
                 (B2G) (AU) (AG) (AU) (B1G) (B1U) (B2U) (B3U) (B2G)
                 (B1G) (AG) (B1U) (B2U) (B2G) (B1G) (B2U) (B3U)
                 (AG) (B3U) (B1G) (B1U) (B2U) (B3G) (AG) (B3U)
                 (B3G) (AU) (AU) (AG) (B2G) (B2U) (B1G) (B3U) (AG)
                 (B1U) (B1G) (B2G) (B3U) (B2U) (B1G) (B3G) (AU)
                 (AG) (B1U) (B2G) (B3G) (AU) (B3U) (AG) (B3U) (B2U)
                 (AG) (B1G) (B2U) (B1G) (B3U) (AG) (B3U) (AG) (B2U)
                 (B3U) (B1G) (B1U) (B2G) (B3G) (AU) (AG) (B3U)
                 (B2U) (B1G)
 Generating alternative initial guess.
 Harris functional with IExCor=  402 diagonalized for initial guess.
 ExpMin= 4.79D-02 ExpMax= 4.23D+03 ExpMxC= 6.35D+02 IAcc=3 IRadAn=         5 AccDes= 0.00D+00
 HarFok:  IExCor= 402 AccDes= 0.00D+00 IRadAn=         5 IDoV=1
 ScaDFX=  1.000000  1.000000  1.000000  1.000000
 Harris En= -233.460577568342    
 Leave Link  401 at Sat Jun  4 14:20:32 2011, MaxMem= 1073741824 cpu:       1.8
 (Enter /system/software/hal/g03-e01-patched/g03/l502.exe)
 Closed shell SCF:
 Requested convergence on RMS density matrix=1.00D-08 within 128 cycles.
 Requested convergence on MAX density matrix=1.00D-06.
 Requested convergence on             energy=1.00D-06.
 No special actions if energy rises.
 Using DIIS extrapolation, IDIIS=  1040.
 Integral symmetry usage will be decided dynamically.
       325682 words used for storage of precomputed grid.
 Keep R1 integrals in memory in canonical form, NReq=    95044393.
 IEnd=    441184 IEndB=    441184 NGot=1073741824 MDV= 981807112
 LenX= 981807112
 Symmetry not used in FoFDir.
 MinBra= 0 MaxBra= 2 Meth= 1.
 IRaf=       0 NMat=   1 IRICut=       1 DoRegI=T DoRafI=F ISym2E= 0 JSym2E=0.

 Cycle   1  Pass 1  IDiag  1:
 E= -233.357946377767    
 DIIS: error= 4.18D-03 at cycle   1 NSaved=   1.
 NSaved= 1 IEnMin= 1 EnMin= -233.357946377767     IErMin= 1 ErrMin= 4.18D-03
 ErrMax= 4.18D-03 EMaxC= 1.00D-01 BMatC= 4.17D-03 BMatP= 4.17D-03
 IDIUse=3 WtCom= 9.58D-01 WtEn= 4.18D-02
 Coeff-Com:  0.100D+01
 Coeff-En:   0.100D+01
 Coeff:      0.100D+01
 Gap=     0.266 Goal=   None    Shift=    0.000
 GapD=    0.266 DampG=1.000 DampE=1.000 DampFc=1.0000 IDamp=-1.
 RMSDP=1.14D-03 MaxDP=3.19D-02              OVMax= 2.32D-02

 Cycle   2  Pass 1  IDiag  1:
 E= -233.362665095697     Delta-E=       -0.004718717930 Rises=F Damp=F
 DIIS: error= 3.24D-03 at cycle   2 NSaved=   2.
 NSaved= 2 IEnMin= 2 EnMin= -233.362665095697     IErMin= 2 ErrMin= 3.24D-03
 ErrMax= 3.24D-03 EMaxC= 1.00D-01 BMatC= 6.09D-04 BMatP= 4.17D-03
 IDIUse=3 WtCom= 9.68D-01 WtEn= 3.24D-02
 Coeff-Com:  0.185D+00 0.815D+00
 Coeff-En:   0.000D+00 0.100D+01
 Coeff:      0.179D+00 0.821D+00
 Gap=     0.260 Goal=   None    Shift=    0.000
 RMSDP=3.00D-04 MaxDP=1.23D-02 DE=-4.72D-03 OVMax= 1.39D-02

 Cycle   3  Pass 1  IDiag  1:
 E= -233.362648731493     Delta-E=        0.000016364205 Rises=F Damp=F
 DIIS: error= 2.94D-03 at cycle   3 NSaved=   3.
 NSaved= 3 IEnMin= 2 EnMin= -233.362665095697     IErMin= 3 ErrMin= 2.94D-03
 ErrMax= 2.94D-03 EMaxC= 1.00D-01 BMatC= 6.09D-04 BMatP= 6.09D-04
 IDIUse=3 WtCom= 9.71D-01 WtEn= 2.94D-02
 Coeff-Com: -0.407D-02 0.500D+00 0.504D+00
 Coeff-En:   0.000D+00 0.506D+00 0.494D+00
 Coeff:     -0.395D-02 0.501D+00 0.503D+00
 Gap=     0.261 Goal=   None    Shift=    0.000
 RMSDP=1.85D-04 MaxDP=7.00D-03 DE= 1.64D-05 OVMax= 8.45D-03

 Cycle   4  Pass 1  IDiag  1:
 E= -233.363299204755     Delta-E=       -0.000650473263 Rises=F Damp=F
 DIIS: error= 2.40D-04 at cycle   4 NSaved=   4.
 NSaved= 4 IEnMin= 4 EnMin= -233.363299204755     IErMin= 4 ErrMin= 2.40D-04
 ErrMax= 2.40D-04 EMaxC= 1.00D-01 BMatC= 4.85D-06 BMatP= 6.09D-04
 IDIUse=3 WtCom= 9.98D-01 WtEn= 2.40D-03
 Coeff-Com: -0.743D-02 0.112D+00 0.158D+00 0.737D+00
 Coeff-En:   0.000D+00 0.000D+00 0.000D+00 0.100D+01
 Coeff:     -0.741D-02 0.112D+00 0.158D+00 0.738D+00
 Gap=     0.261 Goal=   None    Shift=    0.000
 RMSDP=2.17D-05 MaxDP=3.11D-04 DE=-6.50D-04 OVMax= 7.11D-04

 Cycle   5  Pass 1  IDiag  1:
 E= -233.363304173619     Delta-E=       -0.000004968864 Rises=F Damp=F
 DIIS: error= 3.97D-05 at cycle   5 NSaved=   5.
 NSaved= 5 IEnMin= 5 EnMin= -233.363304173619     IErMin= 5 ErrMin= 3.97D-05
 ErrMax= 3.97D-05 EMaxC= 1.00D-01 BMatC= 1.30D-07 BMatP= 4.85D-06
 IDIUse=1 WtCom= 1.00D+00 WtEn= 0.00D+00
 Coeff-Com: -0.142D-02 0.115D-01 0.250D-01 0.182D+00 0.783D+00
 Coeff:     -0.142D-02 0.115D-01 0.250D-01 0.182D+00 0.783D+00
 Gap=     0.261 Goal=   None    Shift=    0.000
 RMSDP=3.67D-06 MaxDP=1.05D-04 DE=-4.97D-06 OVMax= 1.40D-04

 Cycle   6  Pass 1  IDiag  1:
 E= -233.363304282103     Delta-E=       -0.000000108484 Rises=F Damp=F
 DIIS: error= 2.03D-05 at cycle   6 NSaved=   6.
 NSaved= 6 IEnMin= 6 EnMin= -233.363304282103     IErMin= 6 ErrMin= 2.03D-05
 ErrMax= 2.03D-05 EMaxC= 1.00D-01 BMatC= 3.84D-08 BMatP= 1.30D-07
 IDIUse=1 WtCom= 1.00D+00 WtEn= 0.00D+00
 Coeff-Com: -0.227D-03-0.188D-02 0.109D-02 0.314D-01 0.385D+00 0.584D+00
 Coeff:     -0.227D-03-0.188D-02 0.109D-02 0.314D-01 0.385D+00 0.584D+00
 Gap=     0.261 Goal=   None    Shift=    0.000
 RMSDP=1.43D-06 MaxDP=4.02D-05 DE=-1.08D-07 OVMax= 4.24D-05

 Cycle   7  Pass 1  IDiag  1:
 E= -233.363304325282     Delta-E=       -0.000000043180 Rises=F Damp=F
 DIIS: error= 8.22D-07 at cycle   7 NSaved=   7.
 NSaved= 7 IEnMin= 7 EnMin= -233.363304325282     IErMin= 7 ErrMin= 8.22D-07
 ErrMax= 8.22D-07 EMaxC= 1.00D-01 BMatC= 1.34D-10 BMatP= 3.84D-08
 IDIUse=1 WtCom= 1.00D+00 WtEn= 0.00D+00
 Coeff-Com: -0.179D-05-0.905D-03-0.767D-03-0.512D-03 0.498D-01 0.100D+00
 Coeff-Com:  0.852D+00
 Coeff:     -0.179D-05-0.905D-03-0.767D-03-0.512D-03 0.498D-01 0.100D+00
 Coeff:      0.852D+00
 Gap=     0.261 Goal=   None    Shift=    0.000
 RMSDP=1.34D-07 MaxDP=2.01D-06 DE=-4.32D-08 OVMax= 4.06D-06

 Cycle   8  Pass 1  IDiag  1:
 E= -233.363304325437     Delta-E=       -0.000000000154 Rises=F Damp=F
 DIIS: error= 2.03D-07 at cycle   8 NSaved=   8.
 NSaved= 8 IEnMin= 8 EnMin= -233.363304325437     IErMin= 8 ErrMin= 2.03D-07
 ErrMax= 2.03D-07 EMaxC= 1.00D-01 BMatC= 4.53D-12 BMatP= 1.34D-10
 IDIUse=1 WtCom= 1.00D+00 WtEn= 0.00D+00
 Coeff-Com:  0.642D-05-0.703D-04-0.100D-03-0.895D-03-0.282D-02-0.287D-02
 Coeff-Com:  0.132D+00 0.875D+00
 Coeff:      0.642D-05-0.703D-04-0.100D-03-0.895D-03-0.282D-02-0.287D-02
 Coeff:      0.132D+00 0.875D+00
 Gap=     0.261 Goal=   None    Shift=    0.000
 RMSDP=2.57D-08 MaxDP=3.57D-07 DE=-1.54D-10 OVMax= 6.11D-07

 Cycle   9  Pass 1  IDiag  1:
 E= -233.363304325436     Delta-E=        0.000000000001 Rises=F Damp=F
 DIIS: error= 3.74D-08 at cycle   9 NSaved=   9.
 NSaved= 9 IEnMin= 8 EnMin= -233.363304325437     IErMin= 9 ErrMin= 3.74D-08
 ErrMax= 3.74D-08 EMaxC= 1.00D-01 BMatC= 1.21D-13 BMatP= 4.53D-12
 IDIUse=1 WtCom= 1.00D+00 WtEn= 0.00D+00
 Coeff-Com:  0.149D-05-0.251D-05-0.648D-05-0.194D-03-0.145D-02-0.247D-02
 Coeff-Com:  0.870D-02 0.168D+00 0.828D+00
 Coeff:      0.149D-05-0.251D-05-0.648D-05-0.194D-03-0.145D-02-0.247D-02
 Coeff:      0.870D-02 0.168D+00 0.828D+00
 Gap=     0.261 Goal=   None    Shift=    0.000
 RMSDP=5.53D-09 MaxDP=9.81D-08 DE= 9.66D-13 OVMax= 1.04D-07

 SCF Done:  E(RB+HF-LYP) =  -233.363304325     A.U. after    9 cycles
             Convg  =    0.5532D-08             -V/T =  2.0092
             S**2   =   0.0000
 KE= 2.312446032181D+02 PE=-9.518591211449D+02 EE= 2.810586358167D+02
 Leave Link  502 at Sat Jun  4 14:20:42 2011, MaxMem= 1073741824 cpu:      48.7
 (Enter /system/software/hal/g03-e01-patched/g03/l701.exe)
 Compute integral first derivatives.
 ... and contract with generalized density number  0.
 Leave Link  701 at Sat Jun  4 14:20:46 2011, MaxMem= 1073741824 cpu:       1.6
 (Enter /system/software/hal/g03-e01-patched/g03/l702.exe)
 L702 exits ... SP integral derivatives will be done elsewhere.
 Leave Link  702 at Sat Jun  4 14:20:50 2011, MaxMem= 1073741824 cpu:       0.0
 (Enter /system/software/hal/g03-e01-patched/g03/l703.exe)
 Compute integral first derivatives, UseDBF=F.
 Integral derivatives from FoFDir, PRISM(SPDF).
 Petite list used in FoFDir.
 MinBra= 0 MaxBra= 2 Meth= 1.
 IRaf=       0 NMat=   1 IRICut=       1 DoRegI=T DoRafI=F ISym2E= 1 JSym2E=1.
 Leave Link  703 at Sat Jun  4 14:20:54 2011, MaxMem= 1073741824 cpu:       8.2
 (Enter /system/software/hal/g03-e01-patched/g03/l716.exe)
 Dipole        = 1.95399252D-14-1.68753900D-14 4.21884749D-15
 ***** Axes restored to original set *****
 -------------------------------------------------------------------
 Center     Atomic                   Forces (Hartrees/Bohr)
 Number     Number              X              Y              Z
 -------------------------------------------------------------------
    1          6          -0.003259613    0.014419567    0.000000000
    2          6           0.003259613    0.014419567    0.000000000
    3          6           0.000000000   -0.026636177    0.000000000
    4          1           0.001168191   -0.001744636   -0.003011157
    5          1           0.001168191   -0.001744636    0.003011157
    6          1          -0.001168191   -0.001744636   -0.003011157
    7          1          -0.001168191   -0.001744636    0.003011157
    8          6           0.000000000    0.026636177    0.000000000
    9          6           0.003259613   -0.014419567    0.000000000
   10          6          -0.003259613   -0.014419567    0.000000000
   11          1          -0.001168191    0.001744636   -0.003011157
   12          1          -0.001168191    0.001744636    0.003011157
   13          1           0.001168191    0.001744636    0.003011157
   14          1           0.001168191    0.001744636   -0.003011157
 -------------------------------------------------------------------
 Cartesian Forces:  Max     0.026636177 RMS     0.007560820
 Leave Link  716 at Sat Jun  4 14:20:58 2011, MaxMem= 1073741824 cpu:       0.0
 (Enter /system/software/hal/g03-e01-patched/g03/l103.exe)

 GradGradGradGradGradGradGradGradGradGradGradGradGradGradGradGradGradGrad
 Berny optimization.
 Internal  Forces:  Max     0.011291073 RMS     0.003597983
 Search for a local minimum.
 Step number   2 out of a maximum of  69
 All quantities printed in internal units (Hartrees-Bohrs-Radians)
 Update second derivatives using D2CorX and points  1  2
 Trust test= 1.08D+00 RLast= 3.00D-01 DXMaxT set to 4.24D-01
     Eigenvalues ---    0.01204   0.01204   0.02314   0.02314   0.02679
     Eigenvalues ---    0.03327   0.03395   0.03395   0.03405   0.08665
     Eigenvalues ---    0.08665   0.10114   0.10114   0.11758   0.11825
     Eigenvalues ---    0.11825   0.12128   0.16000   0.16000   0.21883
     Eigenvalues ---    0.24129   0.24129   0.25000   0.25000   0.26020
     Eigenvalues ---    0.29817   0.29830   0.38077   0.38077   0.38077
     Eigenvalues ---    0.38077   0.38077   0.38077   0.38077   0.38757
     Eigenvalues ---    0.604661000.000001000.000001000.000001000.00000
     Eigenvalues --- 1000.000001000.000001000.000001000.000001000.00000
     Eigenvalues --- 1000.000001000.000001000.000001000.000001000.00000
     Eigenvalues --- 1000.000001000.000001000.000001000.000001000.00000
     Eigenvalues --- 1000.000001000.000001000.000001000.00000
 RFO step:  Lambda=-2.22425071D-03.
 Quartic linear search produced a step of  0.30376.
 Iteration  1 RMS(Cart)=  0.02099669 RMS(Int)=  0.00089502
 Iteration  2 RMS(Cart)=  0.00053660 RMS(Int)=  0.00074957
 Iteration  3 RMS(Cart)=  0.00000028 RMS(Int)=  0.00074957
 Variable       Old X    -DE/DX   Delta X   Delta X   Delta X     New X
                                 (Linear)    (Quad)   (Total)
    R1        2.89192   0.00462   0.00863   0.01238   0.02054   2.91245
    R2        2.84756  -0.01129  -0.03309  -0.01975  -0.05259   2.79497
    R3        2.04890   0.00238   0.01196  -0.00432   0.00763   2.05653
    R4        2.04890   0.00238   0.01196  -0.00432   0.00763   2.05653
    R5        2.84756  -0.01129  -0.03309  -0.01975  -0.05259   2.79497
    R6        2.04890   0.00238   0.01196  -0.00432   0.00763   2.05653
    R7        2.04890   0.00238   0.01196  -0.00432   0.00763   2.05653
    R8        2.48085   0.00478  -0.02445   0.03577   0.01132   2.49217
    R9        2.84756  -0.01129  -0.03309  -0.01975  -0.05259   2.79497
   R10        2.84756  -0.01129  -0.03309  -0.01975  -0.05259   2.79497
   R11        2.89192   0.00462   0.00863   0.01238   0.02054   2.91245
   R12        2.04890   0.00238   0.01196  -0.00432   0.00763   2.05653
   R13        2.04890   0.00238   0.01196  -0.00432   0.00763   2.05653
   R14        2.04890   0.00238   0.01196  -0.00432   0.00763   2.05653
   R15        2.04890   0.00238   0.01196  -0.00432   0.00763   2.05653
    A1        2.08057  -0.00118  -0.00639  -0.01908  -0.02563   2.05494
    A2        2.08057  -0.00118  -0.00639  -0.01908  -0.02563   2.05494
    A3        2.05194   0.00086   0.00162   0.01671   0.01744   2.06938
    A4        2.05194   0.00086   0.00162   0.01671   0.01744   2.06938
    A5        1.98141   0.00178   0.00992   0.00849   0.01649   1.99790
    A6        2.08057  -0.00118  -0.00639  -0.01908  -0.02563   2.05494
    A7        2.08057  -0.00118  -0.00639  -0.01908  -0.02563   2.05494
    A8        2.05194   0.00086   0.00162   0.01671   0.01744   2.06938
    A9        2.05194   0.00086   0.00162   0.01671   0.01744   2.06938
   A10        1.98141   0.00178   0.00992   0.00849   0.01649   1.99790
   A11        2.60898  -0.00328  -0.00823  -0.00661  -0.01543   2.59355
   A12        2.60898  -0.00328  -0.00823  -0.00661  -0.01543   2.59355
   A13        2.60898  -0.00328  -0.00823  -0.00661  -0.01543   2.59355
   A14        2.60898  -0.00328  -0.00823  -0.00661  -0.01543   2.59355
   A15        2.05194   0.00086   0.00162   0.01671   0.01744   2.06938
   A16        2.05194   0.00086   0.00162   0.01671   0.01744   2.06938
   A17        2.08057  -0.00118  -0.00639  -0.01908  -0.02563   2.05494
   A18        2.08057  -0.00118  -0.00639  -0.01908  -0.02563   2.05494
   A19        1.98141   0.00178   0.00992   0.00849   0.01649   1.99790
   A20        2.05194   0.00086   0.00162   0.01671   0.01744   2.06938
   A21        2.05194   0.00086   0.00162   0.01671   0.01744   2.06938
   A22        2.08057  -0.00118  -0.00639  -0.01908  -0.02563   2.05494
   A23        2.08057  -0.00118  -0.00639  -0.01908  -0.02563   2.05494
   A24        1.98141   0.00178   0.00992   0.00849   0.01649   1.99790
    D1        0.00000   0.00000   0.00000   0.00000   0.00000   0.00000
    D2       -2.56164   0.00050   0.00238   0.05283   0.05457  -2.50707
    D3        2.56164  -0.00050  -0.00238  -0.05283  -0.05457   2.50707
    D4        0.00000   0.00000   0.00000   0.00000   0.00000   0.00000
    D5        1.23315   0.00294   0.01115   0.03277   0.04493   1.27808
    D6       -1.23315  -0.00294  -0.01115  -0.03277  -0.04493  -1.27808
    D7       -1.23315  -0.00294  -0.01115  -0.03277  -0.04493  -1.27808
    D8        1.23315   0.00294   0.01115   0.03277   0.04493   1.27808
    D9        3.14159   0.00000   0.00000   0.00000   0.00000   3.14159
   D10        0.00000   0.00000   0.00000   0.00000   0.00000   0.00000
   D11        0.00000   0.00000   0.00000   0.00000   0.00000   0.00000
   D12        3.14159   0.00000   0.00000   0.00000   0.00000   3.14159
   D13        1.23315   0.00294   0.01115   0.03277   0.04493   1.27808
   D14       -1.23315  -0.00294  -0.01115  -0.03277  -0.04493  -1.27808
   D15        1.23315   0.00294   0.01115   0.03277   0.04493   1.27808
   D16       -1.23315  -0.00294  -0.01115  -0.03277  -0.04493  -1.27808
   D17       -2.56164   0.00050   0.00238   0.05283   0.05457  -2.50707
   D18        0.00000   0.00000   0.00000   0.00000   0.00000   0.00000
   D19        0.00000   0.00000   0.00000   0.00000   0.00000   0.00000
   D20        2.56164  -0.00050  -0.00238  -0.05283  -0.05457   2.50707
         Item               Value     Threshold  Converged?
 Maximum Force            0.011291     0.000015     NO 
 RMS     Force            0.003598     0.000010     NO 
 Maximum Displacement     0.061831     0.000060     NO 
 RMS     Displacement     0.021124     0.000040     NO 
 Predicted change in Energy=-2.592090D-03
 GradGradGradGradGradGradGradGradGradGradGradGradGradGradGradGradGradGrad

 Leave Link  103 at Sat Jun  4 14:21:02 2011, MaxMem= 1073741824 cpu:       0.2
 (Enter /system/software/hal/g03-e01-patched/g03/l202.exe)
                          Input orientation:                          
 ---------------------------------------------------------------------
 Center     Atomic     Atomic              Coordinates (Angstroms)
 Number     Number      Type              X           Y           Z
 ---------------------------------------------------------------------
    1          6             0       -0.770602   -1.921824    0.000000
    2          6             0        0.770602   -1.921824    0.000000
    3          6             0        0.000000   -0.659400    0.000000
    4          1             0       -1.277136   -2.222308   -0.915128
    5          1             0       -1.277136   -2.222308    0.915128
    6          1             0        1.277136   -2.222308   -0.915128
    7          1             0        1.277136   -2.222308    0.915128
    8          6             0        0.000000    0.659400    0.000000
    9          6             0        0.770602    1.921824    0.000000
   10          6             0       -0.770602    1.921824    0.000000
   11          1             0        1.277136    2.222308   -0.915128
   12          1             0        1.277136    2.222308    0.915128
   13          1             0       -1.277136    2.222308    0.915128
   14          1             0       -1.277136    2.222308   -0.915128
 ---------------------------------------------------------------------
                    Distance matrix (angstroms):
                    1          2          3          4          5
     1  C    0.000000
     2  C    1.541203   0.000000
     3  C    1.479033   1.479033   0.000000
     4  H    1.088268   2.262958   2.216126   0.000000
     5  H    1.088268   2.262958   2.216126   1.830255   0.000000
     6  H    2.262958   1.088268   2.216126   2.554273   3.142315
     7  H    2.262958   1.088268   2.216126   3.142315   2.554273
     8  C    2.693797   2.693797   1.318800   3.282191   3.282191
     9  C    4.141127   3.843647   2.693797   4.712166   4.712166
    10  C    3.843647   4.141127   2.693797   4.274092   4.274092
    11  H    4.712166   4.274092   3.282191   5.126296   5.443229
    12  H    4.712166   4.274092   3.282191   5.443229   5.126296
    13  H    4.274092   4.712166   3.282191   4.806708   4.444615
    14  H    4.274092   4.712166   3.282191   4.444615   4.806708
                    6          7          8          9         10
     6  H    0.000000
     7  H    1.830255   0.000000
     8  C    3.282191   3.282191   0.000000
     9  C    4.274092   4.274092   1.479033   0.000000
    10  C    4.712166   4.712166   1.479033   1.541203   0.000000
    11  H    4.444615   4.806708   2.216126   1.088268   2.262958
    12  H    4.806708   4.444615   2.216126   1.088268   2.262958
    13  H    5.443229   5.126296   2.216126   2.262958   1.088268
    14  H    5.126296   5.443229   2.216126   2.262958   1.088268
                   11         12         13         14
    11  H    0.000000
    12  H    1.830255   0.000000
    13  H    3.142315   2.554273   0.000000
    14  H    2.554273   3.142315   1.830255   0.000000
 Stoichiometry    C6H8
 Framework group  D2H[C2(C.C),SG"(C4),X(H8)]
 Deg. of freedom     6
 Full point group                 D2H
 Largest Abelian subgroup         D2H     NOp   8
 Largest concise Abelian subgroup D2H     NOp   8
                         Standard orientation:                         
 ---------------------------------------------------------------------
 Center     Atomic     Atomic              Coordinates (Angstroms)
 Number     Number      Type              X           Y           Z
 ---------------------------------------------------------------------
    1          6             0        1.921824    0.770602    0.000000
    2          6             0        1.921824   -0.770602    0.000000
    3          6             0        0.659400    0.000000    0.000000
    4          1             0        2.222308    1.277136    0.915128
    5          1             0        2.222308    1.277136   -0.915128
    6          1             0        2.222308   -1.277136    0.915128
    7          1             0        2.222308   -1.277136   -0.915128
    8          6             0       -0.659400    0.000000    0.000000
    9          6             0       -1.921824   -0.770602    0.000000
   10          6             0       -1.921824    0.770602    0.000000
   11          1             0       -2.222308   -1.277136    0.915128
   12          1             0       -2.222308   -1.277136   -0.915128
   13          1             0       -2.222308    1.277136   -0.915128
   14          1             0       -2.222308    1.277136    0.915128
 ---------------------------------------------------------------------
 Rotational constants (GHZ):     10.4403121      2.1570720      1.8773946
 Leave Link  202 at Sat Jun  4 14:21:06 2011, MaxMem= 1073741824 cpu:       0.3
 (Enter /system/software/hal/g03-e01-patched/g03/l301.exe)
 Standard basis: EPR-II (5D, 7F)
 There are    30 symmetry adapted basis functions of AG  symmetry.
 There are    23 symmetry adapted basis functions of B1G symmetry.
 There are    14 symmetry adapted basis functions of B2G symmetry.
 There are    12 symmetry adapted basis functions of B3G symmetry.
 There are    12 symmetry adapted basis functions of AU  symmetry.
 There are    14 symmetry adapted basis functions of B1U symmetry.
 There are    23 symmetry adapted basis functions of B2U symmetry.
 There are    30 symmetry adapted basis functions of B3U symmetry.
 Integral buffers will be    131072 words long.
 Raffenetti 2 integral format.
 Two-electron integral symmetry is turned on.
   158 basis functions,   258 primitive gaussians,   164 cartesian basis functions
    22 alpha electrons       22 beta electrons
       nuclear repulsion energy       207.5646955282 Hartrees.
 IExCor= 402 DFT=T Ex=B+HF Corr=LYP ExCW=0 ScaHFX=  0.200000
 ScaDFX=  0.800000  0.720000  1.000000  0.810000
 IRadAn=      5 IRanWt=     -1 IRanGd=            0 ICorTp=0
 NAtoms=   14 NActive=   14 NUniq=    3 SFac= 3.00D+00 NAtFMM=   80 NAOKFM=F Big=F
[...]
     14  0.711159D-01  0.143624D+00  0.315737D-01  0.117023D+00  0.489861D+00
                6             7             8             9            10
      6  0.000000D+00
      7  0.232219D+01  0.000000D+00
      8  0.315737D-01  0.315737D-01  0.000000D+00
      9  0.711159D-01  0.711159D-01 -0.152628D+01  0.000000D+00
     10  0.143624D+00  0.143624D+00 -0.152628D+01  0.388827D+00  0.000000D+00
     11  0.117023D+00  0.489861D+00  0.174456D+00  0.416773D+00  0.485719D+00
     12  0.489861D+00  0.117023D+00  0.174456D+00  0.416773D+00  0.485719D+00
     13  0.771718D+00  0.479440D+00  0.174456D+00  0.485719D+00  0.416773D+00
     14  0.479440D+00  0.771718D+00  0.174456D+00  0.485719D+00  0.416773D+00
               11            12            13            14
     11  0.000000D+00
     12  0.232219D+01  0.000000D+00
     13  0.189459D+01  0.408439D+00  0.000000D+00
     14  0.408439D+00  0.189459D+01  0.232219D+01  0.000000D+00
 Diamagnetic spin-orbit (DSO) contribution to K (Hz):
                1             2             3             4             5
      1  0.000000D+00
      2  0.793109D-01  0.000000D+00
      3  0.106692D+00  0.106692D+00  0.000000D+00
      4  0.988371D-01 -0.429587D-01 -0.325953D-01  0.000000D+00
      5  0.988371D-01 -0.429587D-01 -0.325953D-01 -0.976415D-01  0.000000D+00
      6 -0.429587D-01  0.988371D-01 -0.325953D-01 -0.123055D-01 -0.859457D-01
      7 -0.429587D-01  0.988371D-01 -0.325953D-01 -0.859457D-01 -0.123055D-01
      8 -0.322678D-01 -0.322678D-01  0.139779D+00 -0.302597D-01 -0.302597D-01
      9 -0.380309D-01 -0.194224D-01 -0.322678D-01 -0.333871D-01 -0.333871D-01
     10 -0.194224D-01 -0.380309D-01 -0.322678D-01 -0.171512D-01 -0.171512D-01
     11 -0.333871D-01 -0.171512D-01 -0.302597D-01 -0.231477D-01 -0.366135D-01
     12 -0.333871D-01 -0.171512D-01 -0.302597D-01 -0.366135D-01 -0.231477D-01
     13 -0.171512D-01 -0.333871D-01 -0.302597D-01 -0.237666D-01 -0.623769D-02
     14 -0.171512D-01 -0.333871D-01 -0.302597D-01 -0.623769D-02 -0.237666D-01
                6             7             8             9            10
      6  0.000000D+00
      7 -0.976415D-01  0.000000D+00
      8 -0.302597D-01 -0.302597D-01  0.000000D+00
      9 -0.171512D-01 -0.171512D-01  0.106692D+00  0.000000D+00
     10 -0.333871D-01 -0.333871D-01  0.106692D+00  0.793109D-01  0.000000D+00
     11 -0.623769D-02 -0.237666D-01 -0.325953D-01  0.988371D-01 -0.429587D-01
     12 -0.237666D-01 -0.623769D-02 -0.325953D-01  0.988371D-01 -0.429587D-01
     13 -0.366135D-01 -0.231477D-01 -0.325953D-01 -0.429587D-01  0.988371D-01
     14 -0.231477D-01 -0.366135D-01 -0.325953D-01 -0.429587D-01  0.988371D-01
               11            12            13            14
     11  0.000000D+00
     12 -0.976415D-01  0.000000D+00
     13 -0.859457D-01 -0.123055D-01  0.000000D+00
     14 -0.123055D-01 -0.859457D-01 -0.976415D-01  0.000000D+00
 Diamagnetic spin-orbit (DSO) contribution to J (Hz):
                1             2             3             4             5
      1  0.000000D+00
      2  0.156522D+00  0.000000D+00
      3  0.210559D+00  0.210559D+00  0.000000D+00
      4  0.775565D+00 -0.337092D+00 -0.255772D+00  0.000000D+00
      5  0.775565D+00 -0.337092D+00 -0.255772D+00 -0.304641D+01  0.000000D+00
      6 -0.337092D+00  0.775565D+00 -0.255772D+00 -0.383931D+00 -0.268150D+01
      7 -0.337092D+00  0.775565D+00 -0.255772D+00 -0.268150D+01 -0.383931D+00
      8 -0.636814D-01 -0.636814D-01  0.275857D+00 -0.237445D+00 -0.237445D+00
      9 -0.750549D-01 -0.383305D-01 -0.636814D-01 -0.261985D+00 -0.261985D+00
     10 -0.383305D-01 -0.750549D-01 -0.636814D-01 -0.134583D+00 -0.134583D+00
     11 -0.261985D+00 -0.134583D+00 -0.237445D+00 -0.722207D+00 -0.114234D+01
     12 -0.261985D+00 -0.134583D+00 -0.237445D+00 -0.114234D+01 -0.722207D+00
     13 -0.134583D+00 -0.261985D+00 -0.237445D+00 -0.741518D+00 -0.194616D+00
     14 -0.134583D+00 -0.261985D+00 -0.237445D+00 -0.194616D+00 -0.741518D+00
                6             7             8             9            10
      6  0.000000D+00
      7 -0.304641D+01  0.000000D+00
      8 -0.237445D+00 -0.237445D+00  0.000000D+00
      9 -0.134583D+00 -0.134583D+00  0.210559D+00  0.000000D+00
     10 -0.261985D+00 -0.261985D+00  0.210559D+00  0.156522D+00  0.000000D+00
     11 -0.194616D+00 -0.741518D+00 -0.255772D+00  0.775565D+00 -0.337092D+00
     12 -0.741518D+00 -0.194616D+00 -0.255772D+00  0.775565D+00 -0.337092D+00
     13 -0.114234D+01 -0.722207D+00 -0.255772D+00 -0.337092D+00  0.775565D+00
     14 -0.722207D+00 -0.114234D+01 -0.255772D+00 -0.337092D+00  0.775565D+00
               11            12            13            14
     11  0.000000D+00
     12 -0.304641D+01  0.000000D+00
     13 -0.268150D+01 -0.383931D+00  0.000000D+00
     14 -0.383931D+00 -0.268150D+01 -0.304641D+01  0.000000D+00
 Total nuclear spin-spin coupling K (Hz): 
                1             2             3             4             5
      1  0.000000D+00
      2  0.326545D+01  0.000000D+00
      3  0.130018D+02  0.130018D+02  0.000000D+00
      4  0.220263D+02 -0.279890D+00 -0.710868D+00  0.000000D+00
      5  0.220263D+02 -0.279891D+00 -0.710868D+00 -0.280383D+00  0.000000D+00
      6 -0.279891D+00  0.220263D+02 -0.710868D+00  0.297853D+00  0.132898D+00
      7 -0.279890D+00  0.220263D+02 -0.710868D+00  0.132898D+00  0.297853D+00
      8 -0.908610D+00 -0.908608D+00  0.797502D+02  0.412257D+00  0.412257D+00
      9  0.208301D+01  0.972351D+00 -0.908610D+00 -0.181831D+00 -0.181832D+00
     10  0.972351D+00  0.208301D+01 -0.908608D+00 -0.127250D+00 -0.127250D+00
     11 -0.181831D+00 -0.127250D+00  0.412257D+00  0.995379D-01  0.727348D-01
     12 -0.181832D+00 -0.127250D+00  0.412257D+00  0.727348D-01  0.995379D-01
     13 -0.127250D+00 -0.181831D+00  0.412257D+00  0.950885D-01  0.693863D-01
     14 -0.127250D+00 -0.181832D+00  0.412257D+00  0.693863D-01  0.950885D-01
                6             7             8             9            10
      6  0.000000D+00
      7 -0.280383D+00  0.000000D+00
      8  0.412257D+00  0.412257D+00  0.000000D+00
      9 -0.127250D+00 -0.127250D+00  0.130018D+02  0.000000D+00
     10 -0.181832D+00 -0.181831D+00  0.130018D+02  0.326545D+01  0.000000D+00
     11  0.693863D-01  0.950885D-01 -0.710868D+00  0.220263D+02 -0.279890D+00
     12  0.950885D-01  0.693863D-01 -0.710868D+00  0.220263D+02 -0.279891D+00
     13  0.727348D-01  0.995379D-01 -0.710868D+00 -0.279890D+00  0.220263D+02
     14  0.995379D-01  0.727348D-01 -0.710868D+00 -0.279891D+00  0.220263D+02
               11            12            13            14
     11  0.000000D+00
     12 -0.280383D+00  0.000000D+00
     13  0.132898D+00  0.297853D+00  0.000000D+00
     14  0.297853D+00  0.132898D+00 -0.280383D+00  0.000000D+00
 Total nuclear spin-spin coupling J (Hz): 
                1             2             3             4             5
      1  0.000000D+00
      2  0.644445D+01  0.000000D+00
      3  0.256593D+02  0.256594D+02  0.000000D+00
      4  0.172838D+03 -0.219627D+01 -0.557811D+01  0.000000D+00
      5  0.172838D+03 -0.219628D+01 -0.557812D+01 -0.874794D+01  0.000000D+00
      6 -0.219628D+01  0.172838D+03 -0.557811D+01  0.929301D+01  0.414640D+01
      7 -0.219627D+01  0.172838D+03 -0.557811D+01  0.414640D+01  0.929301D+01
      8 -0.179316D+01 -0.179316D+01  0.157389D+03  0.323494D+01  0.323494D+01
      9  0.411087D+01  0.191896D+01 -0.179316D+01 -0.142681D+01 -0.142681D+01
     10  0.191896D+01  0.411087D+01 -0.179316D+01 -0.998521D+00 -0.998517D+00
     11 -0.142681D+01 -0.998521D+00  0.323494D+01  0.310558D+01  0.226932D+01
     12 -0.142681D+01 -0.998517D+00  0.323494D+01  0.226932D+01  0.310558D+01
     13 -0.998521D+00 -0.142681D+01  0.323494D+01  0.296676D+01  0.216485D+01
     14 -0.998517D+00 -0.142681D+01  0.323494D+01  0.216485D+01  0.296676D+01
                6             7             8             9            10
      6  0.000000D+00
      7 -0.874794D+01  0.000000D+00
      8  0.323494D+01  0.323494D+01  0.000000D+00
      9 -0.998517D+00 -0.998521D+00  0.256593D+02  0.000000D+00
     10 -0.142681D+01 -0.142681D+01  0.256594D+02  0.644445D+01  0.000000D+00
     11  0.216485D+01  0.296676D+01 -0.557811D+01  0.172838D+03 -0.219627D+01
     12  0.296676D+01  0.216485D+01 -0.557812D+01  0.172838D+03 -0.219628D+01
     13  0.226932D+01  0.310558D+01 -0.557811D+01 -0.219627D+01  0.172838D+03
     14  0.310558D+01  0.226932D+01 -0.557811D+01 -0.219628D+01  0.172838D+03
               11            12            13            14
     11  0.000000D+00
     12 -0.874794D+01  0.000000D+00
     13  0.414640D+01  0.929301D+01  0.000000D+00
     14  0.929301D+01  0.414640D+01 -0.874794D+01  0.000000D+00
 End of Minotr Frequency-dependent properties file   721 does not exist.
 Leave Link 1002 at Sat Jun  4 14:27:02 2011, MaxMem= 1073741824 cpu:     516.6
 (Enter /system/software/hal/g03-e01-patched/g03/l601.exe)
 Copying SCF densities to generalized density rwf, ISCF=0 IROHF=0.

 **********************************************************************

            Population analysis using the SCF density.

 **********************************************************************

 Orbital symmetries:
       Occupied  (AG) (B3U) (AG) (B3U) (B1G) (B2U) (AG) (B3U) (AG)
                 (B2U) (B1G) (B3U) (AG) (B1U) (B2G) (B3G) (AU)
                 (B2U) (B3U) (AG) (B1G) (B1U)
       Virtual   (B2G) (AG) (B3U) (B2U) (B1G) (AG) (B2U) (B3U)
                 (B1G) (AG) (B1U) (B3U) (B2U) (B1G) (B3G) (B2G)
                 (B2U) (AG) (AU) (B3U) (B3G) (AG) (B1U) (B2G) (B2U)
                 (B3U) (B1G) (B1U) (B3U) (AU) (B3U) (B1G) (AG)
                 (B2U) (B2G) (B2U) (B1G) (AG) (B1G) (B3U) (AG)
                 (B1U) (B2G) (AG) (AG) (B2U) (B3U) (B1G) (B3G)
                 (B3U) (AU) (B1U) (B3G) (B2U) (AG) (B2G) (AU) (B3U)
                 (B3G) (B1U) (B1G) (B3U) (AG) (B2U) (B3G) (B3U)
                 (B2G) (AU) (B1U) (AU) (AG) (B1G) (B2U) (B3U) (B1G)
                 (B2G) (AG) (B2U) (B1U) (B1G) (B2U) (B2G) (AG)
                 (B3U) (B3U) (B1G) (B1U) (B2U) (B3G) (AG) (B3U)
                 (B3G) (AU) (AU) (B2U) (B1G) (B2G) (AG) (AG) (B3U)
                 (B1U) (B3G) (B1G) (B2U) (AU) (B3U) (B2G) (B1G)
                 (B1U) (B2G) (B3G) (AU) (AG) (AG) (B3U) (B3U) (B2U)
                 (B1G) (AG) (B2U) (B1G) (B3U) (AG) (B3U) (AG) (B2U)
                 (B3U) (B1G) (B1U) (B2G) (B3G) (AU) (AG) (B3U)
                 (B2U) (B1G)
 The electronic state is 1-AG.
 Alpha  occ. eigenvalues --  -10.20880 -10.20784 -10.19670 -10.19670 -10.19651
 Alpha  occ. eigenvalues --  -10.19651  -0.86264  -0.83796  -0.65629  -0.60811
 Alpha  occ. eigenvalues --   -0.59998  -0.51870  -0.48997  -0.47810  -0.46520
 Alpha  occ. eigenvalues --   -0.37070  -0.36962  -0.35812  -0.32096  -0.29216
 Alpha  occ. eigenvalues --   -0.26088  -0.24295
 Alpha virt. eigenvalues --    0.01183   0.02844   0.03128   0.03496   0.06053
 Alpha virt. eigenvalues --    0.08221   0.10408   0.10979   0.16126   0.18127
 Alpha virt. eigenvalues --    0.19905   0.21434   0.21691   0.25541   0.25615
 Alpha virt. eigenvalues --    0.25623   0.26600   0.27265   0.29617   0.30014
 Alpha virt. eigenvalues --    0.30065   0.30371   0.30582   0.30936   0.31151
 Alpha virt. eigenvalues --    0.31634   0.33028   0.39699   0.42175   0.44269
 Alpha virt. eigenvalues --    0.44425   0.45199   0.45227   0.47949   0.51067
 Alpha virt. eigenvalues --    0.52722   0.54109   0.57452   0.66651   0.69220
 Alpha virt. eigenvalues --    0.78255   0.78857   0.83368   0.84534   0.87027
 Alpha virt. eigenvalues --    0.88313   0.89890   0.91083   0.93291   0.98096
 Alpha virt. eigenvalues --    0.98300   0.98899   1.11254   1.13056   1.14968
 Alpha virt. eigenvalues --    1.15807   1.16439   1.19280   1.21316   1.25615
 Alpha virt. eigenvalues --    1.28316   1.30368   1.32305   1.35183   1.37854
 Alpha virt. eigenvalues --    1.40327   1.41330   1.41379   1.46698   1.46756
 Alpha virt. eigenvalues --    1.48867   1.51087   1.52499   1.54450   1.56984
 Alpha virt. eigenvalues --    1.60619   1.67567   1.70163   1.74217   1.74354
 Alpha virt. eigenvalues --    1.76466   1.77208   1.82683   1.82853   1.89663
 Alpha virt. eigenvalues --    1.94104   2.05068   2.06136   2.08739   2.11491
 Alpha virt. eigenvalues --    2.18126   2.18132   2.21607   2.27985   2.31101
 Alpha virt. eigenvalues --    2.32056   2.35490   2.37181   2.41652   2.45081
 Alpha virt. eigenvalues --    2.45439   2.55852   2.57980   2.58351   2.58769
 Alpha virt. eigenvalues --    2.65388   2.68749   2.70290   4.99972   5.00449
 Alpha virt. eigenvalues --    5.01794   5.02892   5.03333   5.24021   5.24240
 Alpha virt. eigenvalues --    5.30874   5.34199   5.48026   5.55682   5.71283
 Alpha virt. eigenvalues --    5.91023   6.02405  29.62644  29.83142  29.96832
 Alpha virt. eigenvalues --   30.12637  30.32748  30.32766  36.61800  36.62283
 Alpha virt. eigenvalues --   36.64260  36.65611  36.80370  36.83735  36.87960
 Alpha virt. eigenvalues --   36.99598
          Condensed to atoms (all electrons):
              1          2          3          4          5          6
     1  C    5.074696   0.256171   0.252667   0.417198   0.417198  -0.016080
     2  C    0.256171   5.074696   0.252667  -0.016080  -0.016080   0.417198
     3  C    0.252667   0.252667   4.909664  -0.022133  -0.022133  -0.022133
     4  H    0.417198  -0.016080  -0.022133   0.484524  -0.020711  -0.003451
     5  H    0.417198  -0.016080  -0.022133  -0.020711   0.484524   0.000738
     6  H   -0.016080   0.417198  -0.022133  -0.003451   0.000738   0.484524
     7  H   -0.016080   0.417198  -0.022133   0.000738  -0.003451  -0.020711
     8  C   -0.016478  -0.016478   0.636099  -0.002254  -0.002254  -0.002254
     9  C    0.001498  -0.005942  -0.016478  -0.000067  -0.000067  -0.000136
    10  C   -0.005942   0.001498  -0.016478  -0.000136  -0.000136  -0.000067
    11  H   -0.000067  -0.000136  -0.002254   0.000004  -0.000002   0.000008
    12  H   -0.000067  -0.000136  -0.002254  -0.000002   0.000004  -0.000006
    13  H   -0.000136  -0.000067  -0.002254  -0.000006   0.000008  -0.000002
    14  H   -0.000136  -0.000067  -0.002254   0.000008  -0.000006   0.000004
              7          8          9         10         11         12
     1  C   -0.016080  -0.016478   0.001498  -0.005942  -0.000067  -0.000067
     2  C    0.417198  -0.016478  -0.005942   0.001498  -0.000136  -0.000136
     3  C   -0.022133   0.636099  -0.016478  -0.016478  -0.002254  -0.002254
     4  H    0.000738  -0.002254  -0.000067  -0.000136   0.000004  -0.000002
     5  H   -0.003451  -0.002254  -0.000067  -0.000136  -0.000002   0.000004
     6  H   -0.020711  -0.002254  -0.000136  -0.000067   0.000008  -0.000006
     7  H    0.484524  -0.002254  -0.000136  -0.000067  -0.000006   0.000008
     8  C   -0.002254   4.909664   0.252667   0.252667  -0.022133  -0.022133
     9  C   -0.000136   0.252667   5.074696   0.256171   0.417198   0.417198
    10  C   -0.000067   0.252667   0.256171   5.074696  -0.016080  -0.016080
    11  H   -0.000006  -0.022133   0.417198  -0.016080   0.484524  -0.020711
    12  H    0.000008  -0.022133   0.417198  -0.016080  -0.020711   0.484524
    13  H    0.000004  -0.022133  -0.016080   0.417198   0.000738  -0.003451
    14  H   -0.000002  -0.022133  -0.016080   0.417198  -0.003451   0.000738
             13         14
     1  C   -0.000136  -0.000136
     2  C   -0.000067  -0.000067
     3  C   -0.002254  -0.002254
     4  H   -0.000006   0.000008
     5  H    0.000008  -0.000006
     6  H   -0.000002   0.000004
     7  H    0.000004  -0.000002
     8  C   -0.022133  -0.022133
     9  C   -0.016080  -0.016080
    10  C    0.417198   0.417198
    11  H    0.000738  -0.003451
    12  H   -0.003451   0.000738
    13  H    0.484524  -0.020711
    14  H   -0.020711   0.484524
 Mulliken atomic charges:
              1
     1  C   -0.364440
     2  C   -0.364440
     3  C    0.079410
     4  H    0.162368
     5  H    0.162368
     6  H    0.162368
     7  H    0.162368
     8  C    0.079410
     9  C   -0.364440
    10  C   -0.364440
    11  H    0.162368
    12  H    0.162368
    13  H    0.162368
    14  H    0.162368
 Sum of Mulliken charges=   0.00000
 Atomic charges with hydrogens summed into heavy atoms:
              1
     1  C   -0.039705
     2  C   -0.039705
     3  C    0.079410
     4  H    0.000000
     5  H    0.000000
     6  H    0.000000
     7  H    0.000000
     8  C    0.079410
     9  C   -0.039705
    10  C   -0.039705
    11  H    0.000000
    12  H    0.000000
    13  H    0.000000
    14  H    0.000000
 Sum of Mulliken charges=   0.00000
 Electronic spatial extent (au):  <R**2>=   677.1421
 Charge=     0.0000 electrons
 Dipole moment (field-independent basis, Debye):
    X=     0.0000    Y=     0.0000    Z=     0.0000  Tot=     0.0000
 Quadrupole moment (field-independent basis, Debye-Ang):
   XX=   -35.1670   YY=   -36.1530   ZZ=   -34.7565
   XY=     0.0000   XZ=     0.0000   YZ=     0.0000
 Traceless Quadrupole moment (field-independent basis, Debye-Ang):
   XX=     0.1919   YY=    -0.7942   ZZ=     0.6023
   XY=     0.0000   XZ=     0.0000   YZ=     0.0000
 Octapole moment (field-independent basis, Debye-Ang**2):
  XXX=     0.0000  YYY=     0.0000  ZZZ=     0.0000  XYY=     0.0000
  XXY=     0.0000  XXZ=     0.0000  XZZ=     0.0000  YZZ=     0.0000
  YYZ=     0.0000  XYZ=     0.0000
 Hexadecapole moment (field-independent basis, Debye-Ang**3):
 XXXX=  -738.8155 YYYY=  -173.8988 ZZZZ=   -63.2778 XXXY=     0.0000
 XXXZ=     0.0000 YYYX=     0.0000 YYYZ=     0.0000 ZZZX=     0.0000
 ZZZY=     0.0000 XXYY=  -131.2992 XXZZ=  -111.2629 YYZZ=   -33.3866
 XXYZ=     0.0000 YYXZ=     0.0000 ZZXY=     0.0000
 N-N= 2.072882798283D+02 E-N=-9.540800231807D+02  KE= 2.312894871699D+02
 Symmetry AG   KE= 7.499945727789D+01
 Symmetry B1G  KE= 3.740849502291D+01
 Symmetry B2G  KE= 1.845919918776D+00
 Symmetry B3G  KE= 2.111106358761D+00
 Symmetry AU   KE= 2.126177946283D+00
 Symmetry B1U  KE= 4.118143312603D+00
 Symmetry B2U  KE= 3.688037517120D+01
 Symmetry B3U  KE= 7.179981216145D+01
 Calculating spin-rotation constants.
 Leave Link  601 at Sat Jun  4 14:27:09 2011, MaxMem= 1073741824 cpu:      26.6
 (Enter /system/software/hal/g03-e01-patched/g03/l9999.exe)
 1\1\GINC-R4I1N15\SP\RB3LYP\EPR-II\C6H8\KUPROV\04-Jun-2011\0\\#p nmr=(g
 iao,spinspin) b3lyp/EPR-II geom=checkpoint scf=tight guess=read integr
 al=(grid=ultrafine)\\Bicyclopropylidene magnetic properties.\\0,1\C,0,
 -0.776097011,-1.9209374808,0.\C,0,0.776097011,-1.9209374808,0.\C,0,0.,
 -0.6600315452,0.\H,0,-1.2772234542,-2.2225887387,-0.9166118489\H,0,-1.
 2772234542,-2.2225887387,0.9166118489\H,0,1.2772234542,-2.2225887387,-
 0.9166118489\H,0,1.2772234542,-2.2225887387,0.9166118489\C,0,0.,0.6600
 315452,0.\C,0,0.776097011,1.9209374808,0.\C,0,-0.776097011,1.920937480
 8,0.\H,0,1.2772234542,2.2225887387,-0.9166118489\H,0,1.2772234542,2.22
 25887387,0.9166118489\H,0,-1.2772234542,2.2225887387,0.9166118489\H,0,
 -1.2772234542,2.2225887387,-0.9166118489\\Version=EM64L-G03RevE.01\Sta
 te=1-AG\HF=-233.365801\RMSD=2.723e-10\Thermal=0.\Dipole=0.,0.,0.\PG=D0
 2H [C2(C1.C1),SG"(C4),X(H8)]\\@


 TERENCE, THIS IS STUPID STUFF:
 YOU EAT YOUR VICTUALS FAST ENOUGH;
 THERE CAN'T BE MUCH AMISS, 'TIS CLEAR
 TO SEE THE RATE YOU DRINK YOUR BEER.
 BUT OH, GOOD LORD, THE VERSE YOU MAKE,
 IT GIVES A CHAP THE BELLY-ACHE.
 THE COW, THE OLD COW, SHE IS DEAD;
 IT SLEEPS WELL, THE HORNED HEAD:
 WE POOR LADS, 'TIS OUR TURN NOW
 TO HEAR SUCH TUNES AS KILLED THE COW.
 PRETTY FRIENDSHIP 'TIS TO RHYME
 YOUR FRIENDS TO DEATH BEFORE THEIR TIME.
 MOPING, MELANCHOLY MAD:
 COME PIPE A TUNE TO DANCE TO, LAD.

     -- A. E. HOUSMAN
 Job cpu time:  0 days  0 hours 10 minutes 24.5 seconds.
 File lengths (MBytes):  RWF=     38 Int=      0 D2E=      0 Chk=     11 Scr=      1
 Normal termination of Gaussian 03 at Sat Jun  4 14:27:14 2011.
