 Entering Link 1 = C:\G09W\l1.exe PID=     14984.
  
 Copyright (c) 1988,1990,1992,1993,1995,1998,2003,2009,2011,
            Gaussian, Inc.  All Rights Reserved.
  
 This is part of the Gaussian(R) 09 program.  It is based on
 the Gaussian(R) 03 system (copyright 2003, Gaussian, Inc.),
 the Gaussian(R) 98 system (copyright 1998, Gaussian, Inc.),
 the Gaussian(R) 94 system (copyright 1995, Gaussian, Inc.),
 the Gaussian 92(TM) system (copyright 1992, Gaussian, Inc.),
 the Gaussian 90(TM) system (copyright 1990, Gaussian, Inc.),
 the Gaussian 88(TM) system (copyright 1988, Gaussian, Inc.),
 the Gaussian 86(TM) system (copyright 1986, Carnegie Mellon
 University), and the Gaussian 82(TM) system (copyright 1983,
 Carnegie Mellon University). Gaussian is a federally registered
 trademark of Gaussian, Inc.
  
 This software contains proprietary and confidential information,
 including trade secrets, belonging to Gaussian, Inc.
  
 This software is provided under written license and may be
 used, copied, transmitted, or stored only in accord with that
 written license.
  
 The following legend is applicable only to US Government
 contracts under FAR:
  
                    RESTRICTED RIGHTS LEGEND
  
 Use, reproduction and disclosure by the US Government is
 subject to restrictions as set forth in subparagraphs (a)
 and (c) of the Commercial Computer Software - Restricted
 Rights clause in FAR 52.227-19.
  
 Gaussian, Inc.
 340 Quinnipiac St., Bldg. 40, Wallingford CT 06492
  
  
 ---------------------------------------------------------------
 Warning -- This program may not be used in any manner that
 competes with the business of Gaussian, Inc. or will provide
 assistance to any competitor of Gaussian, Inc.  The licensee
 of this program is prohibited from giving any competitor of
 Gaussian, Inc. access to this program.  By using this program,
 the user acknowledges that Gaussian, Inc. is engaged in the
 business of creating and licensing software in the field of
 computational chemistry and represents and warrants to the
 licensee that it is not a competitor of Gaussian, Inc. and that
 it will not use this program in any manner prohibited above.
 ---------------------------------------------------------------
  

 Cite this work as:
 Gaussian 09, Revision C.01,
 M. J. Frisch, G. W. Trucks, H. B. Schlegel, G. E. Scuseria, 
 M. A. Robb, J. R. Cheeseman, G. Scalmani, V. Barone, B. Mennucci, 
 G. A. Petersson, H. Nakatsuji, M. Caricato, X. Li, H. P. Hratchian, 
 A. F. Izmaylov, J. Bloino, G. Zheng, J. L. Sonnenberg, M. Hada, 
 M. Ehara, K. Toyota, R. Fukuda, J. Hasegawa, M. Ishida, T. Nakajima, 
 Y. Honda, O. Kitao, H. Nakai, T. Vreven, J. A. Montgomery, Jr., 
 J. E. Peralta, F. Ogliaro, M. Bearpark, J. J. Heyd, E. Brothers, 
 K. N. Kudin, V. N. Staroverov, T. Keith, R. Kobayashi, J. Normand, 
 K. Raghavachari, A. Rendell, J. C. Burant, S. S. Iyengar, J. Tomasi, 
 M. Cossi, N. Rega, J. M. Millam, M. Klene, J. E. Knox, J. B. Cross, 
 V. Bakken, C. Adamo, J. Jaramillo, R. Gomperts, R. E. Stratmann, 
 O. Yazyev, A. J. Austin, R. Cammi, C. Pomelli, J. W. Ochterski, 
 R. L. Martin, K. Morokuma, V. G. Zakrzewski, G. A. Voth, 
 P. Salvador, J. J. Dannenberg, S. Dapprich, A. D. Daniels, 
 O. Farkas, J. B. Foresman, J. V. Ortiz, J. Cioslowski, 
 and D. J. Fox, Gaussian, Inc., Wallingford CT, 2010.
 
 ******************************************
 Gaussian 09:  EM64W-G09RevC.01 23-Sep-2011
                10-Jun-2013 
 ******************************************
 %Mem=64GB
 %NProcShared=24
 Will use up to   24 processors via shared memory.
 %Chk=camphor.chk
 --------------------------------------------------------------
 #p opt=tight b3lyp/cc-pVDZ scf=tight integral=(grid=ultrafine)
 --------------------------------------------------------------
 1/7=10,14=-1,18=20,19=15,26=3,38=1/1,3;
 2/9=110,12=2,17=6,18=5,40=1/2;
 3/5=16,11=2,16=1,25=1,30=1,71=1,74=-5,75=-5/1,2,3;
 4//1;
 5/5=2,32=2,38=5/2;
 6/7=2,8=2,9=2,10=2,28=1/1;
 7//1,2,3,16;
 1/7=10,14=-1,18=20,19=15/3(2);
 2/9=110/2;
 99//99;
 2/9=110/2;
 3/5=16,11=2,16=1,25=1,30=1,71=1,74=-5,75=-5/1,2,3;
 4/5=5,16=3/1;
 5/5=2,32=2,38=5/2;
 7//1,2,3,16;
 1/7=10,14=-1,18=20,19=15/3(-5);
 2/9=110/2;
 6/7=2,8=2,9=2,10=2,19=2,28=1/1;
 99/9=1/99;
 Leave Link    1 at Mon Jun 10 16:46:36 2013, MaxMem= 8589934592 cpu:       1.0
 (Enter C:\G09W\l101.exe)
 -----------------
 Camphor geometry.
 -----------------
 Charge =  0 Multiplicity = 1
 Symbolic Z-Matrix:
 C                     0.20963   0.33658   3.08229 
 C                    -1.33731   0.56431   3.06632 
 C                    -1.59904   1.14374   1.65882 
 C                     0.62678   1.12883   1.83179 
 C                    -1.20792   0.24826   0.46842 
 C                     0.29012   0.11756   0.72208 
 C                    -0.4675    2.18578   1.6575 
 C                    -0.36316   2.99229   0.34973 
 C                    -0.5425    3.21904   2.79695 
 O                     1.08315  -0.68946   0.17127 
 C                     2.08416   1.62633   1.82091 
 H                     0.53179  -0.66886   2.9085 
 H                     0.58571   0.65458   4.0322 
 H                    -1.58271   1.36806   3.72864 
 H                    -1.88749  -0.30466   3.36142 
 H                    -2.60907   1.48095   1.5538 
 H                    -1.22629   3.61603   0.24553 
 H                     0.51611   3.60149   0.37558 
 H                    -0.30681   2.31973  -0.48056 
 H                    -0.61769   2.71038   3.7353 
 H                    -1.40214   3.84093   2.65847 
 H                     0.34022   3.82372   2.78876 
 H                     2.28392   2.12497   0.89552 
 H                     2.23473   2.30705   2.63261 
 H                     2.74643   0.79265   1.92705 
 H                    -1.38858   0.76685  -0.4499 
 H                    -1.72421  -0.68805   0.42762 
 
 NAtoms=     27 NQM=        0 NQMF=       0 NMMI=     27 NMMIF=      0
                NMic=       0 NMicF=      0.
                    Isotopes and Nuclear Properties:
 (Nuclear quadrupole moments (NQMom) in fm**2, nuclear magnetic moments (NMagM)
  in nuclear magnetons)

  Atom         1           2           3           4           5           6           7           8           9          10
 IAtWgt=          12          12          12          12          12          12          12          12          12          16
 AtmWgt=  12.0000000  12.0000000  12.0000000  12.0000000  12.0000000  12.0000000  12.0000000  12.0000000  12.0000000  15.9949146
 NucSpn=           0           0           0           0           0           0           0           0           0           0
 AtZEff=   0.0000000   0.0000000   0.0000000   0.0000000   0.0000000   0.0000000   0.0000000   0.0000000   0.0000000   0.0000000
 NQMom=    0.0000000   0.0000000   0.0000000   0.0000000   0.0000000   0.0000000   0.0000000   0.0000000   0.0000000   0.0000000
 NMagM=    0.0000000   0.0000000   0.0000000   0.0000000   0.0000000   0.0000000   0.0000000   0.0000000   0.0000000   0.0000000

  Atom        11          12          13          14          15          16          17          18          19          20
 IAtWgt=          12           1           1           1           1           1           1           1           1           1
 AtmWgt=  12.0000000   1.0078250   1.0078250   1.0078250   1.0078250   1.0078250   1.0078250   1.0078250   1.0078250   1.0078250
 NucSpn=           0           1           1           1           1           1           1           1           1           1
 AtZEff=   0.0000000   0.0000000   0.0000000   0.0000000   0.0000000   0.0000000   0.0000000   0.0000000   0.0000000   0.0000000
 NQMom=    0.0000000   0.0000000   0.0000000   0.0000000   0.0000000   0.0000000   0.0000000   0.0000000   0.0000000   0.0000000
 NMagM=    0.0000000   2.7928460   2.7928460   2.7928460   2.7928460   2.7928460   2.7928460   2.7928460   2.7928460   2.7928460

  Atom        21          22          23          24          25          26          27
 IAtWgt=           1           1           1           1           1           1           1
 AtmWgt=   1.0078250   1.0078250   1.0078250   1.0078250   1.0078250   1.0078250   1.0078250
 NucSpn=           1           1           1           1           1           1           1
 AtZEff=   0.0000000   0.0000000   0.0000000   0.0000000   0.0000000   0.0000000   0.0000000
 NQMom=    0.0000000   0.0000000   0.0000000   0.0000000   0.0000000   0.0000000   0.0000000
 NMagM=    2.7928460   2.7928460   2.7928460   2.7928460   2.7928460   2.7928460   2.7928460
 Leave Link  101 at Mon Jun 10 16:46:37 2013, MaxMem= 8589934592 cpu:       1.0
 (Enter C:\G09W\l103.exe)

 GradGradGradGradGradGradGradGradGradGradGradGradGradGradGradGradGradGrad
 Berny optimization.
 Initialization pass.
                           ----------------------------
                           !    Initial Parameters    !
                           ! (Angstroms and Degrees)  !
 --------------------------                            --------------------------
 ! Name  Definition              Value          Derivative Info.                !
 --------------------------------------------------------------------------------
 ! R1    R(1,2)                  1.5637         estimate D2E/DX2                !
 ! R2    R(1,4)                  1.538          estimate D2E/DX2                !
 ! R3    R(1,12)                 1.07           estimate D2E/DX2                !
 ! R4    R(1,13)                 1.07           estimate D2E/DX2                !
 ! R5    R(2,3)                  1.5444         estimate D2E/DX2                !
 ! R6    R(2,14)                 1.07           estimate D2E/DX2                !
 ! R7    R(2,15)                 1.07           estimate D2E/DX2                !
 ! R8    R(3,5)                  1.5401         estimate D2E/DX2                !
 ! R9    R(3,7)                  1.5383         estimate D2E/DX2                !
 ! R10   R(3,16)                 1.07           estimate D2E/DX2                !
 ! R11   R(4,6)                  1.5387         estimate D2E/DX2                !
 ! R12   R(4,7)                  1.5313         estimate D2E/DX2                !
 ! R13   R(4,11)                 1.54           estimate D2E/DX2                !
 ! R14   R(5,6)                  1.525          estimate D2E/DX2                !
 ! R15   R(5,26)                 1.07           estimate D2E/DX2                !
 ! R16   R(5,27)                 1.07           estimate D2E/DX2                !
 ! R17   R(6,10)                 1.2584         estimate D2E/DX2                !
 ! R18   R(7,8)                  1.54           estimate D2E/DX2                !
 ! R19   R(7,9)                  1.54           estimate D2E/DX2                !
 ! R20   R(8,17)                 1.07           estimate D2E/DX2                !
 ! R21   R(8,18)                 1.07           estimate D2E/DX2                !
 ! R22   R(8,19)                 1.07           estimate D2E/DX2                !
 ! R23   R(9,20)                 1.07           estimate D2E/DX2                !
 ! R24   R(9,21)                 1.07           estimate D2E/DX2                !
 ! R25   R(9,22)                 1.07           estimate D2E/DX2                !
 ! R26   R(11,23)                1.07           estimate D2E/DX2                !
 ! R27   R(11,24)                1.07           estimate D2E/DX2                !
 ! R28   R(11,25)                1.07           estimate D2E/DX2                !
 ! A1    A(2,1,4)              100.6612         estimate D2E/DX2                !
 ! A2    A(2,1,12)             115.6609         estimate D2E/DX2                !
 ! A3    A(2,1,13)             108.2698         estimate D2E/DX2                !
 ! A4    A(4,1,12)             105.6833         estimate D2E/DX2                !
 ! A5    A(4,1,13)             118.2556         estimate D2E/DX2                !
 ! A6    A(12,1,13)            108.5198         estimate D2E/DX2                !
 ! A7    A(1,2,3)              103.3908         estimate D2E/DX2                !
 ! A8    A(1,2,14)             109.2664         estimate D2E/DX2                !
 ! A9    A(1,2,15)             112.8047         estimate D2E/DX2                !
 ! A10   A(3,2,14)             104.0892         estimate D2E/DX2                !
 ! A11   A(3,2,15)             117.962          estimate D2E/DX2                !
 ! A12   A(14,2,15)            108.7476         estimate D2E/DX2                !
 ! A13   A(2,3,5)              116.3101         estimate D2E/DX2                !
 ! A14   A(2,3,7)               97.4853         estimate D2E/DX2                !
 ! A15   A(2,3,16)             111.5704         estimate D2E/DX2                !
 ! A16   A(5,3,7)              101.9116         estimate D2E/DX2                !
 ! A17   A(5,3,16)             110.3104         estimate D2E/DX2                !
 ! A18   A(7,3,16)             118.7375         estimate D2E/DX2                !
 ! A19   A(1,4,6)              100.8657         estimate D2E/DX2                !
 ! A20   A(1,4,7)              104.7302         estimate D2E/DX2                !
 ! A21   A(1,4,11)             115.3935         estimate D2E/DX2                !
 ! A22   A(6,4,7)              102.427          estimate D2E/DX2                !
 ! A23   A(6,4,11)             114.4748         estimate D2E/DX2                !
 ! A24   A(7,4,11)             116.9026         estimate D2E/DX2                !
 ! A25   A(3,5,6)               99.831          estimate D2E/DX2                !
 ! A26   A(3,5,26)             109.7971         estimate D2E/DX2                !
 ! A27   A(3,5,27)             114.5653         estimate D2E/DX2                !
 ! A28   A(6,5,26)             110.4965         estimate D2E/DX2                !
 ! A29   A(6,5,27)             113.9121         estimate D2E/DX2                !
 ! A30   A(26,5,27)            108.0543         estimate D2E/DX2                !
 ! A31   A(4,6,5)              106.1749         estimate D2E/DX2                !
 ! A32   A(4,6,10)             126.8189         estimate D2E/DX2                !
 ! A33   A(5,6,10)             126.9573         estimate D2E/DX2                !
 ! A34   A(3,7,4)               93.3244         estimate D2E/DX2                !
 ! A35   A(3,7,8)              113.9124         estimate D2E/DX2                !
 ! A36   A(3,7,9)              114.7115         estimate D2E/DX2                !
 ! A37   A(4,7,8)              114.1869         estimate D2E/DX2                !
 ! A38   A(4,7,9)              114.4368         estimate D2E/DX2                !
 ! A39   A(8,7,9)              106.2746         estimate D2E/DX2                !
 ! A40   A(7,8,17)             109.4712         estimate D2E/DX2                !
 ! A41   A(7,8,18)             109.4712         estimate D2E/DX2                !
 ! A42   A(7,8,19)             109.4712         estimate D2E/DX2                !
 ! A43   A(17,8,18)            109.4712         estimate D2E/DX2                !
 ! A44   A(17,8,19)            109.4712         estimate D2E/DX2                !
 ! A45   A(18,8,19)            109.4712         estimate D2E/DX2                !
 ! A46   A(7,9,20)             109.4712         estimate D2E/DX2                !
 ! A47   A(7,9,21)             109.4712         estimate D2E/DX2                !
 ! A48   A(7,9,22)             109.4712         estimate D2E/DX2                !
 ! A49   A(20,9,21)            109.4712         estimate D2E/DX2                !
 ! A50   A(20,9,22)            109.4712         estimate D2E/DX2                !
 ! A51   A(21,9,22)            109.4712         estimate D2E/DX2                !
 ! A52   A(4,11,23)            109.4712         estimate D2E/DX2                !
 ! A53   A(4,11,24)            109.4712         estimate D2E/DX2                !
 ! A54   A(4,11,25)            109.4712         estimate D2E/DX2                !
 ! A55   A(23,11,24)           109.4712         estimate D2E/DX2                !
 ! A56   A(23,11,25)           109.4712         estimate D2E/DX2                !
 ! A57   A(24,11,25)           109.4712         estimate D2E/DX2                !
 ! D1    D(4,1,2,3)             13.1058         estimate D2E/DX2                !
 ! D2    D(4,1,2,14)           -97.2771         estimate D2E/DX2                !
 ! D3    D(4,1,2,15)           141.6382         estimate D2E/DX2                !
 ! D4    D(12,1,2,3)          -100.1979         estimate D2E/DX2                !
 ! D5    D(12,1,2,14)          149.4191         estimate D2E/DX2                !
 ! D6    D(12,1,2,15)           28.3345         estimate D2E/DX2                !
 ! D7    D(13,1,2,3)           137.817          estimate D2E/DX2                !
 ! D8    D(13,1,2,14)           27.434          estimate D2E/DX2                !
 ! D9    D(13,1,2,15)          -93.6506         estimate D2E/DX2                !
 ! D10   D(2,1,4,6)            -80.278          estimate D2E/DX2                !
 ! D11   D(2,1,4,7)             25.8054         estimate D2E/DX2                !
 ! D12   D(2,1,4,11)           155.7981         estimate D2E/DX2                !
 ! D13   D(12,1,4,6)            40.4221         estimate D2E/DX2                !
 ! D14   D(12,1,4,7)           146.5055         estimate D2E/DX2                !
 ! D15   D(12,1,4,11)          -83.5018         estimate D2E/DX2                !
 ! D16   D(13,1,4,6)           162.1202         estimate D2E/DX2                !
 ! D17   D(13,1,4,7)           -91.7964         estimate D2E/DX2                !
 ! D18   D(13,1,4,11)           38.1963         estimate D2E/DX2                !
 ! D19   D(1,2,3,5)             60.4048         estimate D2E/DX2                !
 ! D20   D(1,2,3,7)            -46.8846         estimate D2E/DX2                !
 ! D21   D(1,2,3,16)          -171.8718         estimate D2E/DX2                !
 ! D22   D(14,2,3,5)           174.5752         estimate D2E/DX2                !
 ! D23   D(14,2,3,7)            67.2858         estimate D2E/DX2                !
 ! D24   D(14,2,3,16)          -57.7014         estimate D2E/DX2                !
 ! D25   D(15,2,3,5)           -64.8673         estimate D2E/DX2                !
 ! D26   D(15,2,3,7)          -172.1568         estimate D2E/DX2                !
 ! D27   D(15,2,3,16)           62.856          estimate D2E/DX2                !
 ! D28   D(2,3,5,6)            -61.1718         estimate D2E/DX2                !
 ! D29   D(2,3,5,26)          -177.28           estimate D2E/DX2                !
 ! D30   D(2,3,5,27)            60.9368         estimate D2E/DX2                !
 ! D31   D(7,3,5,6)             43.473          estimate D2E/DX2                !
 ! D32   D(7,3,5,26)           -72.6353         estimate D2E/DX2                !
 ! D33   D(7,3,5,27)           165.5815         estimate D2E/DX2                !
 ! D34   D(16,3,5,6)           170.4883         estimate D2E/DX2                !
 ! D35   D(16,3,5,26)           54.3801         estimate D2E/DX2                !
 ! D36   D(16,3,5,27)          -67.4031         estimate D2E/DX2                !
 ! D37   D(2,3,7,4)             60.2388         estimate D2E/DX2                !
 ! D38   D(2,3,7,8)            178.5783         estimate D2E/DX2                !
 ! D39   D(2,3,7,9)            -58.6355         estimate D2E/DX2                !
 ! D40   D(5,3,7,4)            -58.7469         estimate D2E/DX2                !
 ! D41   D(5,3,7,8)             59.5926         estimate D2E/DX2                !
 ! D42   D(5,3,7,9)           -177.6213         estimate D2E/DX2                !
 ! D43   D(16,3,7,4)           179.9045         estimate D2E/DX2                !
 ! D44   D(16,3,7,8)           -61.756          estimate D2E/DX2                !
 ! D45   D(16,3,7,9)            61.0301         estimate D2E/DX2                !
 ! D46   D(1,4,6,5)             81.4909         estimate D2E/DX2                !
 ! D47   D(1,4,6,10)           -96.0961         estimate D2E/DX2                !
 ! D48   D(7,4,6,5)            -26.4129         estimate D2E/DX2                !
 ! D49   D(7,4,6,10)           156.0002         estimate D2E/DX2                !
 ! D50   D(11,4,6,5)          -153.9576         estimate D2E/DX2                !
 ! D51   D(11,4,6,10)           28.4555         estimate D2E/DX2                !
 ! D52   D(1,4,7,3)            -54.2637         estimate D2E/DX2                !
 ! D53   D(1,4,7,8)           -172.375          estimate D2E/DX2                !
 ! D54   D(1,4,7,9)             64.8375         estimate D2E/DX2                !
 ! D55   D(6,4,7,3)             50.6595         estimate D2E/DX2                !
 ! D56   D(6,4,7,8)            -67.4518         estimate D2E/DX2                !
 ! D57   D(6,4,7,9)            169.7607         estimate D2E/DX2                !
 ! D58   D(11,4,7,3)           176.6409         estimate D2E/DX2                !
 ! D59   D(11,4,7,8)            58.5296         estimate D2E/DX2                !
 ! D60   D(11,4,7,9)           -64.2579         estimate D2E/DX2                !
 ! D61   D(1,4,11,23)          177.5445         estimate D2E/DX2                !
 ! D62   D(1,4,11,24)          -62.4555         estimate D2E/DX2                !
 ! D63   D(1,4,11,25)           57.5445         estimate D2E/DX2                !
 ! D64   D(6,4,11,23)           61.0987         estimate D2E/DX2                !
 ! D65   D(6,4,11,24)         -178.9013         estimate D2E/DX2                !
 ! D66   D(6,4,11,25)          -58.9013         estimate D2E/DX2                !
 ! D67   D(7,4,11,23)          -58.6432         estimate D2E/DX2                !
 ! D68   D(7,4,11,24)           61.3568         estimate D2E/DX2                !
 ! D69   D(7,4,11,25)         -178.6432         estimate D2E/DX2                !
 ! D70   D(3,5,6,4)            -10.1156         estimate D2E/DX2                !
 ! D71   D(3,5,6,10)           167.467          estimate D2E/DX2                !
 ! D72   D(26,5,6,4)           105.4629         estimate D2E/DX2                !
 ! D73   D(26,5,6,10)          -76.9546         estimate D2E/DX2                !
 ! D74   D(27,5,6,4)          -132.6886         estimate D2E/DX2                !
 ! D75   D(27,5,6,10)           44.894          estimate D2E/DX2                !
 ! D76   D(3,7,8,17)            67.2343         estimate D2E/DX2                !
 ! D77   D(3,7,8,18)          -172.7657         estimate D2E/DX2                !
 ! D78   D(3,7,8,19)           -52.7657         estimate D2E/DX2                !
 ! D79   D(4,7,8,17)           172.8205         estimate D2E/DX2                !
 ! D80   D(4,7,8,18)           -67.1795         estimate D2E/DX2                !
 ! D81   D(4,7,8,19)            52.8205         estimate D2E/DX2                !
 ! D82   D(9,7,8,17)           -60.0548         estimate D2E/DX2                !
 ! D83   D(9,7,8,18)            59.9452         estimate D2E/DX2                !
 ! D84   D(9,7,8,19)           179.9452         estimate D2E/DX2                !
 ! D85   D(3,7,9,20)            53.1344         estimate D2E/DX2                !
 ! D86   D(3,7,9,21)           -66.8656         estimate D2E/DX2                !
 ! D87   D(3,7,9,22)           173.1344         estimate D2E/DX2                !
 ! D88   D(4,7,9,20)           -53.0796         estimate D2E/DX2                !
 ! D89   D(4,7,9,21)          -173.0796         estimate D2E/DX2                !
 ! D90   D(4,7,9,22)            66.9204         estimate D2E/DX2                !
 ! D91   D(8,7,9,20)           179.9452         estimate D2E/DX2                !
 ! D92   D(8,7,9,21)            59.9452         estimate D2E/DX2                !
 ! D93   D(8,7,9,22)           -60.0548         estimate D2E/DX2                !
 --------------------------------------------------------------------------------
 Trust Radius=3.00D-01 FncErr=1.00D-07 GrdErr=1.00D-06
 Number of steps in this run=    162 maximum allowed number of steps=    162.
 GradGradGradGradGradGradGradGradGradGradGradGradGradGradGradGradGradGrad

 Leave Link  103 at Mon Jun 10 16:46:38 2013, MaxMem= 8589934592 cpu:       0.0
 (Enter C:\G09W\l202.exe)
                          Input orientation:                          
 ---------------------------------------------------------------------
 Center     Atomic      Atomic             Coordinates (Angstroms)
 Number     Number       Type             X           Y           Z
 ---------------------------------------------------------------------
      1          6           0        0.209632    0.336585    3.082285
      2          6           0       -1.337311    0.564315    3.066319
      3          6           0       -1.599038    1.143738    1.658821
      4          6           0        0.626777    1.128827    1.831790
      5          6           0       -1.207918    0.248262    0.468424
      6          6           0        0.290117    0.117563    0.722075
      7          6           0       -0.467500    2.185778    1.657497
      8          6           0       -0.363162    2.992293    0.349733
      9          6           0       -0.542502    3.219039    2.796948
     10          8           0        1.083147   -0.689461    0.171271
     11          6           0        2.084161    1.626333    1.820912
     12          1           0        0.531786   -0.668858    2.908498
     13          1           0        0.585710    0.654583    4.032203
     14          1           0       -1.582707    1.368061    3.728642
     15          1           0       -1.887494   -0.304659    3.361418
     16          1           0       -2.609068    1.480949    1.553804
     17          1           0       -1.226290    3.616034    0.245533
     18          1           0        0.516106    3.601489    0.375578
     19          1           0       -0.306807    2.319726   -0.480556
     20          1           0       -0.617692    2.710376    3.735302
     21          1           0       -1.402138    3.840931    2.658474
     22          1           0        0.340215    3.823724    2.788763
     23          1           0        2.283918    2.124974    0.895518
     24          1           0        2.234731    2.307046    2.632612
     25          1           0        2.746433    0.792647    1.927046
     26          1           0       -1.388577    0.766855   -0.449903
     27          1           0       -1.724206   -0.688051    0.427624
 ---------------------------------------------------------------------
                    Distance matrix (angstroms):
                    1          2          3          4          5
     1  C    0.000000
     2  C    1.563697   0.000000
     3  C    2.439065   1.544437   0.000000
     4  C    1.537984   2.387546   2.232575   0.000000
     5  C    2.974814   2.620246   1.540096   2.449544   0.000000
     6  C    2.371717   2.888527   2.345087   1.538656   1.524969
     7  C    2.430647   2.317433   1.538255   1.531328   2.390832
     8  C    3.853274   3.771457   2.580360   2.578562   2.873570
     9  C    2.992601   2.784213   2.592002   2.582194   3.832794
    10  O    3.207773   3.976415   3.573170   2.504350   2.493312
    11  C    2.601610   3.792808   3.718216   1.540000   3.816554
    12  H    1.070000   2.244804   3.063921   2.097616   3.133950
    13  H    1.070000   2.153854   3.262719   2.251312   4.010326
    14  H    2.166610   1.070000   2.082006   2.921831   3.467483
    15  H    2.210667   1.070000   2.253863   3.273561   3.022740
    16  H    3.404540   2.178368   1.070000   3.266796   2.158885
    17  H    4.567693   4.157180   2.872032   3.483714   3.375189
    18  H    4.252034   4.460904   3.487275   2.871735   3.771605
    19  H    4.110158   4.089466   2.762199   2.763470   2.450210
    20  H    2.597264   2.360290   2.780138   2.770082   4.133141
    21  H    3.880446   3.302537   2.883214   3.486461   4.212043
    22  H    3.501906   3.676259   3.495683   2.874089   4.534822
    23  H    3.504704   4.501259   4.077107   2.148263   3.987151
    24  H    2.861110   3.998087   4.123026   2.148263   4.557865
    25  H    2.824523   4.245826   4.367875   2.148263   4.249803
    26  H    3.900738   3.522423   2.152452   3.065745   1.070000
    27  H    3.440470   2.946323   2.210647   3.286312   1.070000
                    6          7          8          9         10
     6  C    0.000000
     7  C    2.393013   0.000000
     8  C    2.971445   1.540000   0.000000
     9  C    3.823284   1.540000   2.464232   0.000000
    10  O    1.258400   3.588924   3.959668   4.981293   0.000000
    11  C    2.588904   2.617377   3.165376   3.223153   3.014340
    12  H    2.336088   3.272999   4.555462   4.035130   2.792282
    13  H    3.366409   3.015466   4.463836   3.061886   4.118336
    14  H    3.756416   2.490379   3.942391   2.318663   4.898476
    15  H    3.447665   3.334967   4.718446   3.813670   4.376051
    16  H    3.309965   2.256956   2.962777   2.972719   4.500503
    17  H    3.842640   2.148263   1.070000   2.671121   4.886338
    18  H    3.508400   2.148263   1.070000   2.670196   4.333074
    19  H    2.579179   2.148263   1.070000   3.406808   3.378174
    20  H    4.077540   2.148263   3.406808   1.070000   5.210956
    21  H    4.525134   2.148263   2.670196   1.070000   5.734743
    22  H    4.243741   2.148263   2.671121   1.070000   5.269920
    23  H    2.834612   2.855628   2.838513   3.577857   3.144429
    24  H    3.496500   2.875345   3.525642   2.927756   4.045170
    25  H    2.818011   3.513238   4.122613   4.178659   2.836532
    26  H    2.147818   2.702380   2.577492   4.155849   2.935324
    27  H    2.189340   3.369093   3.924721   4.719689   2.819034
                   11         12         13         14         15
    11  C    0.000000
    12  H    2.976678   0.000000
    13  H    2.842439   1.736985   0.000000
    14  H    4.141505   3.048403   2.302875   0.000000
    15  H    4.677172   2.488111   2.736208   1.739466   0.000000
    16  H    4.703072   4.040029   4.126978   2.407505   2.641312
    17  H    4.171308   5.342519   5.137353   4.160824   5.051510
    18  H    2.906721   4.965057   4.696807   4.542714   5.472707
    19  H    3.390321   4.595711   4.892267   4.500104   4.913932
    20  H    3.484258   3.663895   2.400544   1.653211   3.292814
    21  H    4.214290   4.913326   3.998935   2.700546   4.232684
    22  H    2.967594   4.498258   3.413190   3.257496   4.725904
    23  H    1.070000   3.863619   3.858076   4.852865   5.420744
    24  H    1.070000   3.439788   2.721903   4.081153   4.934055
    25  H    1.070000   2.829117   3.019846   4.724225   4.973408
    26  H    4.237358   4.126490   4.898947   4.226035   3.990392
    27  H    4.669184   3.353298   4.486799   3.891573   2.963242
                   16         17         18         19         20
    16  H    0.000000
    17  H    2.860461   0.000000
    18  H    3.956213   1.747303   0.000000
    19  H    3.184741   1.747303   1.747303   0.000000
    20  H    3.199375   3.656377   3.656135   4.245316   0.000000
    21  H    2.871670   2.429771   2.991422   3.656135   1.747303
    22  H    3.963836   2.994176   2.429771   3.656377   1.747303
    23  H    4.978898   3.868759   2.361269   2.939960   4.102001
    24  H    5.030771   4.403437   3.118245   4.018879   3.084626
    25  H    5.412436   5.155727   3.907813   4.177415   4.273735
    26  H    2.452422   2.937310   3.513458   1.892769   4.678405
    27  H    2.599196   4.336614   4.839613   3.446815   4.869744
                   21         22         23         24         25
    21  H    0.000000
    22  H    1.747303   0.000000
    23  H    4.431651   3.201267   0.000000
    24  H    3.947187   2.431848   1.747303   0.000000
    25  H    5.199775   3.964829   1.747303   1.747303   0.000000
    26  H    4.371743   4.777251   4.140273   5.000244   4.769576
    27  H    5.058863   5.494809   4.919054   5.431920   4.942403
                   26         27
    26  H    0.000000
    27  H    1.731892   0.000000
 Stoichiometry    C10H16O
 Framework group  C1[X(C10H16O)]
 Deg. of freedom    75
 Full point group                 C1      NOp   1
 Largest Abelian subgroup         C1      NOp   1
 Largest concise Abelian subgroup C1      NOp   1
                         Standard orientation:                         
 ---------------------------------------------------------------------
 Center     Atomic      Atomic             Coordinates (Angstroms)
 Number     Number       Type             X           Y           Z
 ---------------------------------------------------------------------
      1          6           0       -0.183353   -0.439007   -1.673825
      2          6           0        0.595406   -1.628087   -1.022081
      3          6           0        0.526861   -1.315230    0.488782
      4          6           0       -0.274928    0.528533   -0.481820
      5          6           0       -0.881839   -1.235136    1.106070
      6          6           0       -1.456325   -0.078818    0.294638
      7          6           0        0.921282    0.169188    0.404138
      8          6           0        0.937275    0.889414    1.765247
      9          6           0        2.294283    0.434743   -0.240804
     10          8           0       -2.661936    0.276466    0.232619
     11          6           0       -0.448877    2.014008   -0.848845
     12          1           0       -1.194331   -0.646565   -1.956213
     13          1           0        0.354160   -0.122338   -2.543135
     14          1           0        1.635202   -1.541318   -1.259135
     15          1           0        0.245843   -2.583733   -1.352909
     16          1           0        1.143903   -1.979920    1.056536
     17          1           0        1.727347    0.493908    2.368788
     18          1           0        1.094972    1.936689    1.612776
     19          1           0        0.000617    0.738062    2.259884
     20          1           0        2.339136   -0.046827   -1.195256
     21          1           0        3.066032    0.047104    0.390892
     22          1           0        2.431648    1.488459   -0.366156
     23          1           0       -0.544493    2.593546    0.045522
     24          1           0        0.405237    2.347519   -1.400351
     25          1           0       -1.328236    2.133073   -1.446717
     26          1           0       -0.809914   -0.968155    2.139727
     27          1           0       -1.450344   -2.138885    1.035784
 ---------------------------------------------------------------------
 Rotational constants (GHZ):      1.4940360      1.1600524      1.0985855
 Leave Link  202 at Mon Jun 10 16:46:38 2013, MaxMem= 8589934592 cpu:       0.0
 (Enter C:\G09W\l301.exe)
 Standard basis: CC-pVDZ (5D, 7F)
 Ernie: Thresh=  0.10000D-02 Tol=  0.10000D-05 Strict=F.
 Ernie:  22 primitive shells out of 322 were deleted.
 There are   234 symmetry adapted basis functions of A   symmetry.
 Integral buffers will be    131072 words long.
 Raffenetti 2 integral format.
 Two-electron integral symmetry is turned on.
   234 basis functions,   475 primitive gaussians,   245 cartesian basis functions
    42 alpha electrons       42 beta electrons
       nuclear repulsion energy       690.1205732086 Hartrees.
 IExCor=  402 DFT=T Ex+Corr=B3LYP ExCW=0 ScaHFX=  0.200000
 ScaDFX=  0.800000  0.720000  1.000000  0.810000 ScalE2=  1.000000  1.000000
 IRadAn=      5 IRanWt=     -1 IRanGd=            0 ICorTp=0
 NAtoms=   27 NActive=   27 NUniq=   27 SFac= 1.00D+00 NAtFMM=   60 NAOKFM=F Big=F
 Leave Link  301 at Mon Jun 10 16:46:39 2013, MaxMem= 8589934592 cpu:       0.0
 (Enter C:\G09W\l302.exe)
 NPDir=0 NMtPBC=     1 NCelOv=     1 NCel=       1 NClECP=     1 NCelD=      1
         NCelK=      1 NCelE2=     1 NClLst=     1 CellRange=     0.0.
 One-electron integrals computed using PRISM.
 NBasis=   234 RedAO= T  NBF=   234
 NBsUse=   234 1.00D-06 NBFU=   234
 Precomputing XC quadrature grid using
 IXCGrd= 2 IRadAn=           5 IRanWt=          -1 IRanGd=           0 AccXCQ= 0.00D+00.
 NRdTot=    2229 NPtTot=      598000 NUsed=      613967 NTot=      613999
 NSgBfM=   245   245   245   245   245 NAtAll=    27    27.
 Leave Link  302 at Mon Jun 10 16:46:40 2013, MaxMem= 8589934592 cpu:       1.0
 (Enter C:\G09W\l303.exe)
 DipDrv:  MaxL=1.
 Leave Link  303 at Mon Jun 10 16:46:41 2013, MaxMem= 8589934592 cpu:       0.0
 (Enter C:\G09W\l401.exe)
 Harris functional with IExCor=  402 diagonalized for initial guess.
 ExpMin= 1.22D-01 ExpMax= 1.17D+04 ExpMxC= 4.01D+02 IAcc=3 IRadAn=         5 AccDes= 0.00D+00
 HarFok:  IExCor=  402 AccDes= 0.00D+00 IRadAn=         5 IDoV= 1
 ScaDFX=  1.000000  1.000000  1.000000  1.000000
 FoFCou: FMM=F IPFlag=           0 FMFlag=      100000 FMFlg1=           0
         NFxFlg=           0 DoJE=T BraDBF=F KetDBF=T FulRan=T
         Omega=  0.000000  0.000000  1.000000  0.000000  0.000000 ICntrl=     500 IOpCl=  0
         NMat0=    1 NMatS0=    1 NMatT0=    0 NMatD0=    1 NMtDS0=    0 NMtDT0=    0
         I1Cent=           4 NGrid=           0.
 Petite list used in FoFCou.
 Harris En= -465.933051301183    
 Initial guess orbital symmetries:
       Occupied  (A) (A) (A) (A) (A) (A) (A) (A) (A) (A) (A) (A)
                 (A) (A) (A) (A) (A) (A) (A) (A) (A) (A) (A) (A)
                 (A) (A) (A) (A) (A) (A) (A) (A) (A) (A) (A) (A)
                 (A) (A) (A) (A) (A) (A)
       Virtual   (A) (A) (A) (A) (A) (A) (A) (A) (A) (A) (A) (A)
                 (A) (A) (A) (A) (A) (A) (A) (A) (A) (A) (A) (A)
                 (A) (A) (A) (A) (A) (A) (A) (A) (A) (A) (A) (A)
                 (A) (A) (A) (A) (A) (A) (A) (A) (A) (A) (A) (A)
                 (A) (A) (A) (A) (A) (A) (A) (A) (A) (A) (A) (A)
                 (A) (A) (A) (A) (A) (A) (A) (A) (A) (A) (A) (A)
                 (A) (A) (A) (A) (A) (A) (A) (A) (A) (A) (A) (A)
                 (A) (A) (A) (A) (A) (A) (A) (A) (A) (A) (A) (A)
                 (A) (A) (A) (A) (A) (A) (A) (A) (A) (A) (A) (A)
                 (A) (A) (A) (A) (A) (A) (A) (A) (A) (A) (A) (A)
                 (A) (A) (A) (A) (A) (A) (A) (A) (A) (A) (A) (A)
                 (A) (A) (A) (A) (A) (A) (A) (A) (A) (A) (A) (A)
                 (A) (A) (A) (A) (A) (A) (A) (A) (A) (A) (A) (A)
                 (A) (A) (A) (A) (A) (A) (A) (A) (A) (A) (A) (A)
                 (A) (A) (A) (A) (A) (A) (A) (A) (A) (A) (A) (A)
                 (A) (A) (A) (A) (A) (A) (A) (A) (A) (A) (A) (A)
 The electronic state of the initial guess is 1-A.
 Leave Link  401 at Mon Jun 10 16:46:45 2013, MaxMem= 8589934592 cpu:       3.0
 (Enter C:\G09W\l502.exe)
 Closed shell SCF:
 Requested convergence on RMS density matrix=1.00D-08 within 128 cycles.
 Requested convergence on MAX density matrix=1.00D-06.
 Requested convergence on             energy=1.00D-06.
 No special actions if energy rises.
 Using DIIS extrapolation, IDIIS=  1040.
 Integral symmetry usage will be decided dynamically.
       613711 words used for storage of precomputed grid.
 Keep R1 ints in memory in canonical form, NReq=462337223.
 IEnd=      819684 IEndB=      819684 NGot=  8589934592 MDV=  8135117611
 LenX=  8135117611 LenY=  8135057145
 Symmetry not used in FoFDir.
 MinBra= 0 MaxBra= 2 Meth= 1.
 IRaf=       0 NMat=   1 IRICut=       1 DoRegI=T DoRafI=F ISym2E= 0 JSym2E=0.
 Integral accuracy reduced to 1.0D-05 until final iterations.

 Cycle   1  Pass 0  IDiag  1:
 E= -465.569860018238    
 DIIS: error= 3.04D-02 at cycle   1 NSaved=   1.
 NSaved= 1 IEnMin= 1 EnMin= -465.569860018238     IErMin= 1 ErrMin= 3.04D-02
 ErrMax= 3.04D-02 EMaxC= 1.00D-01 BMatC= 3.13D-01 BMatP= 3.13D-01
 IDIUse=3 WtCom= 6.96D-01 WtEn= 3.04D-01
 Coeff-Com:  0.100D+01
 Coeff-En:   0.100D+01
 Coeff:      0.100D+01
 Gap=     0.137 Goal=   None    Shift=    0.000
 GapD=    0.137 DampG=1.000 DampE=0.500 DampFc=0.5000 IDamp=-1.
 Damping current iteration by 5.00D-01
 RMSDP=5.69D-03 MaxDP=1.44D-01              OVMax= 2.21D-01

 Cycle   2  Pass 0  IDiag  1:
 E= -465.706010737913     Delta-E=       -0.136150719675 Rises=F Damp=T
 DIIS: error= 7.85D-03 at cycle   2 NSaved=   2.
 NSaved= 2 IEnMin= 2 EnMin= -465.706010737913     IErMin= 2 ErrMin= 7.85D-03
 ErrMax= 7.85D-03 EMaxC= 1.00D-01 BMatC= 2.38D-02 BMatP= 3.13D-01
 IDIUse=3 WtCom= 9.21D-01 WtEn= 7.85D-02
 Coeff-Com:  0.136D+00 0.864D+00
 Coeff-En:   0.191D+00 0.809D+00
 Coeff:      0.140D+00 0.860D+00
 Gap=     0.218 Goal=   None    Shift=    0.000
 RMSDP=1.45D-03 MaxDP=4.53D-02 DE=-1.36D-01 OVMax= 1.58D-01

 Cycle   3  Pass 0  IDiag  1:
 E= -465.883052895344     Delta-E=       -0.177042157431 Rises=F Damp=F
 DIIS: error= 1.42D-02 at cycle   3 NSaved=   3.
 NSaved= 3 IEnMin= 3 EnMin= -465.883052895344     IErMin= 2 ErrMin= 7.85D-03
 ErrMax= 1.42D-02 EMaxC= 1.00D-01 BMatC= 2.95D-02 BMatP= 2.38D-02
 IDIUse=2 WtCom= 0.00D+00 WtEn= 1.00D+00
 Coeff-En:   0.000D+00 0.000D+00 0.100D+01
 Coeff:      0.000D+00 0.000D+00 0.100D+01
 Gap=     0.183 Goal=   None    Shift=    0.000
 RMSDP=2.18D-03 MaxDP=1.06D-01 DE=-1.77D-01 OVMax= 2.00D-01

 Cycle   4  Pass 0  IDiag  1:
 E= -465.761584356293     Delta-E=        0.121468539052 Rises=F Damp=F
 DIIS: error= 3.33D-02 at cycle   4 NSaved=   4.
 NSaved= 4 IEnMin= 3 EnMin= -465.883052895344     IErMin= 2 ErrMin= 7.85D-03
 ErrMax= 3.33D-02 EMaxC= 1.00D-01 BMatC= 1.84D-01 BMatP= 2.38D-02
 IDIUse=2 WtCom= 0.00D+00 WtEn= 1.00D+00
 Coeff-En:   0.000D+00 0.000D+00 0.801D+00 0.199D+00
 Coeff:      0.000D+00 0.000D+00 0.801D+00 0.199D+00
 Gap=     0.197 Goal=   None    Shift=    0.000
 RMSDP=1.23D-03 MaxDP=5.51D-02 DE= 1.21D-01 OVMax= 6.93D-02

 Cycle   5  Pass 0  IDiag  1:
 E= -465.896492645397     Delta-E=       -0.134908289104 Rises=F Damp=F
 DIIS: error= 9.40D-03 at cycle   5 NSaved=   5.
 NSaved= 5 IEnMin= 5 EnMin= -465.896492645397     IErMin= 2 ErrMin= 7.85D-03
 ErrMax= 9.40D-03 EMaxC= 1.00D-01 BMatC= 1.37D-02 BMatP= 2.38D-02
 IDIUse=3 WtCom= 9.06D-01 WtEn= 9.40D-02
 Coeff-Com:  0.427D-02 0.166D-01 0.372D+00-0.284D-01 0.635D+00
 Coeff-En:   0.000D+00 0.000D+00 0.354D+00 0.000D+00 0.646D+00
 Coeff:      0.387D-02 0.150D-01 0.371D+00-0.257D-01 0.636D+00
 Gap=     0.210 Goal=   None    Shift=    0.000
 RMSDP=4.17D-04 MaxDP=2.06D-02 DE=-1.35D-01 OVMax= 2.27D-02

 Cycle   6  Pass 0  IDiag  1:
 E= -465.907455245284     Delta-E=       -0.010962599887 Rises=F Damp=F
 DIIS: error= 2.37D-04 at cycle   6 NSaved=   6.
 NSaved= 6 IEnMin= 6 EnMin= -465.907455245284     IErMin= 6 ErrMin= 2.37D-04
 ErrMax= 2.37D-04 EMaxC= 1.00D-01 BMatC= 3.31D-05 BMatP= 1.37D-02
 IDIUse=3 WtCom= 9.98D-01 WtEn= 2.37D-03
 Coeff-Com: -0.104D-02 0.188D-02 0.105D+00-0.386D-01 0.298D+00 0.635D+00
 Coeff-En:   0.000D+00 0.000D+00 0.000D+00 0.000D+00 0.000D+00 0.100D+01
 Coeff:     -0.104D-02 0.188D-02 0.104D+00-0.385D-01 0.297D+00 0.636D+00
 Gap=     0.209 Goal=   None    Shift=    0.000
 RMSDP=2.54D-05 MaxDP=1.02D-03 DE=-1.10D-02 OVMax= 9.73D-04

 Cycle   7  Pass 0  IDiag  1:
 E= -465.907486049781     Delta-E=       -0.000030804498 Rises=F Damp=F
 DIIS: error= 5.78D-05 at cycle   7 NSaved=   7.
 NSaved= 7 IEnMin= 7 EnMin= -465.907486049781     IErMin= 7 ErrMin= 5.78D-05
 ErrMax= 5.78D-05 EMaxC= 1.00D-01 BMatC= 1.05D-06 BMatP= 3.31D-05
 IDIUse=1 WtCom= 1.00D+00 WtEn= 0.00D+00
 Coeff-Com: -0.233D-03 0.435D-04 0.295D-01-0.129D-01 0.870D-01 0.210D+00
 Coeff-Com:  0.687D+00
 Coeff:     -0.233D-03 0.435D-04 0.295D-01-0.129D-01 0.870D-01 0.210D+00
 Coeff:      0.687D+00
 Gap=     0.209 Goal=   None    Shift=    0.000
 RMSDP=5.27D-06 MaxDP=1.65D-04 DE=-3.08D-05 OVMax= 2.35D-04

 Initial convergence to 1.0D-05 achieved.  Increase integral accuracy.
 Cycle   8  Pass 1  IDiag  1:
 E= -465.907462862346     Delta-E=        0.000023187436 Rises=F Damp=F
 DIIS: error= 1.79D-05 at cycle   1 NSaved=   1.
 NSaved= 1 IEnMin= 1 EnMin= -465.907462862346     IErMin= 1 ErrMin= 1.79D-05
 ErrMax= 1.79D-05 EMaxC= 1.00D-01 BMatC= 1.27D-07 BMatP= 1.27D-07
 IDIUse=1 WtCom= 1.00D+00 WtEn= 0.00D+00
 Coeff-Com:  0.100D+01
 Coeff:      0.100D+01
 Gap=     0.209 Goal=   None    Shift=    0.000
 RMSDP=5.27D-06 MaxDP=1.65D-04 DE= 2.32D-05 OVMax= 1.99D-04

 Cycle   9  Pass 1  IDiag  1:
 E= -465.907462695902     Delta-E=        0.000000166443 Rises=F Damp=F
 DIIS: error= 4.55D-05 at cycle   2 NSaved=   2.
 NSaved= 2 IEnMin= 1 EnMin= -465.907462862346     IErMin= 1 ErrMin= 1.79D-05
 ErrMax= 4.55D-05 EMaxC= 1.00D-01 BMatC= 3.47D-07 BMatP= 1.27D-07
 IDIUse=1 WtCom= 1.00D+00 WtEn= 0.00D+00
 Coeff-Com:  0.634D+00 0.366D+00
 Coeff:      0.634D+00 0.366D+00
 Gap=     0.209 Goal=   None    Shift=    0.000
 RMSDP=2.33D-06 MaxDP=1.06D-04 DE= 1.66D-07 OVMax= 1.45D-04

 Cycle  10  Pass 1  IDiag  1:
 E= -465.907462972677     Delta-E=       -0.000000276775 Rises=F Damp=F
 DIIS: error= 1.06D-05 at cycle   3 NSaved=   3.
 NSaved= 3 IEnMin= 3 EnMin= -465.907462972677     IErMin= 3 ErrMin= 1.06D-05
 ErrMax= 1.06D-05 EMaxC= 1.00D-01 BMatC= 2.15D-08 BMatP= 1.27D-07
 IDIUse=1 WtCom= 1.00D+00 WtEn= 0.00D+00
 Coeff-Com:  0.265D+00 0.220D+00 0.515D+00
 Coeff:      0.265D+00 0.220D+00 0.515D+00
 Gap=     0.209 Goal=   None    Shift=    0.000
 RMSDP=8.28D-07 MaxDP=3.73D-05 DE=-2.77D-07 OVMax= 4.17D-05

 Cycle  11  Pass 1  IDiag  1:
 E= -465.907462987674     Delta-E=       -0.000000014997 Rises=F Damp=F
 DIIS: error= 2.41D-06 at cycle   4 NSaved=   4.
 NSaved= 4 IEnMin= 4 EnMin= -465.907462987674     IErMin= 4 ErrMin= 2.41D-06
 ErrMax= 2.41D-06 EMaxC= 1.00D-01 BMatC= 2.40D-09 BMatP= 2.15D-08
 IDIUse=1 WtCom= 1.00D+00 WtEn= 0.00D+00
 Coeff-Com: -0.683D-02 0.314D-01 0.281D+00 0.694D+00
 Coeff:     -0.683D-02 0.314D-01 0.281D+00 0.694D+00
 Gap=     0.209 Goal=   None    Shift=    0.000
 RMSDP=2.61D-07 MaxDP=8.59D-06 DE=-1.50D-08 OVMax= 1.30D-05

 Cycle  12  Pass 1  IDiag  1:
 E= -465.907462989852     Delta-E=       -0.000000002177 Rises=F Damp=F
 DIIS: error= 4.57D-07 at cycle   5 NSaved=   5.
 NSaved= 5 IEnMin= 5 EnMin= -465.907462989852     IErMin= 5 ErrMin= 4.57D-07
 ErrMax= 4.57D-07 EMaxC= 1.00D-01 BMatC= 8.07D-11 BMatP= 2.40D-09
 IDIUse=1 WtCom= 1.00D+00 WtEn= 0.00D+00
 Coeff-Com: -0.105D-01 0.111D-01 0.129D+00 0.361D+00 0.509D+00
 Coeff:     -0.105D-01 0.111D-01 0.129D+00 0.361D+00 0.509D+00
 Gap=     0.209 Goal=   None    Shift=    0.000
 RMSDP=4.72D-08 MaxDP=1.29D-06 DE=-2.18D-09 OVMax= 1.54D-06

 Cycle  13  Pass 1  IDiag  1:
 E= -465.907462989943     Delta-E=       -0.000000000091 Rises=F Damp=F
 DIIS: error= 6.35D-08 at cycle   6 NSaved=   6.
 NSaved= 6 IEnMin= 6 EnMin= -465.907462989943     IErMin= 6 ErrMin= 6.35D-08
 ErrMax= 6.35D-08 EMaxC= 1.00D-01 BMatC= 3.23D-12 BMatP= 8.07D-11
 IDIUse=1 WtCom= 1.00D+00 WtEn= 0.00D+00
 Coeff-Com: -0.377D-02 0.303D-02 0.353D-01 0.110D+00 0.219D+00 0.636D+00
 Coeff:     -0.377D-02 0.303D-02 0.353D-01 0.110D+00 0.219D+00 0.636D+00
 Gap=     0.209 Goal=   None    Shift=    0.000
 RMSDP=1.10D-08 MaxDP=3.23D-07 DE=-9.14D-11 OVMax= 4.07D-07

 Cycle  14  Pass 1  IDiag  1:
 E= -465.907462989928     Delta-E=        0.000000000015 Rises=F Damp=F
 DIIS: error= 2.41D-08 at cycle   7 NSaved=   7.
 NSaved= 7 IEnMin= 6 EnMin= -465.907462989943     IErMin= 7 ErrMin= 2.41D-08
 ErrMax= 2.41D-08 EMaxC= 1.00D-01 BMatC= 3.00D-13 BMatP= 3.23D-12
 IDIUse=1 WtCom= 1.00D+00 WtEn= 0.00D+00
 Coeff-Com: -0.776D-03 0.392D-03 0.366D-02 0.170D-01 0.489D-01 0.278D+00
 Coeff-Com:  0.653D+00
 Coeff:     -0.776D-03 0.392D-03 0.366D-02 0.170D-01 0.489D-01 0.278D+00
 Coeff:      0.653D+00
 Gap=     0.209 Goal=   None    Shift=    0.000
 RMSDP=2.85D-09 MaxDP=8.68D-08 DE= 1.52D-11 OVMax= 1.17D-07

 SCF Done:  E(RB3LYP) =  -465.907462990     A.U. after   14 cycles
             Convg  =    0.2846D-08             -V/T =  2.0060
 KE= 4.631385256010D+02 PE=-2.461920174222D+03 EE= 8.427536124222D+02
 Leave Link  502 at Mon Jun 10 16:48:04 2013, MaxMem= 8589934592 cpu:      78.0
 (Enter C:\G09W\l601.exe)
 Copying SCF densities to generalized density rwf, IOpCl= 0 IROHF=0.

 **********************************************************************

            Population analysis using the SCF density.

 **********************************************************************

 Orbital symmetries:
       Occupied  (A) (A) (A) (A) (A) (A) (A) (A) (A) (A) (A) (A)
                 (A) (A) (A) (A) (A) (A) (A) (A) (A) (A) (A) (A)
                 (A) (A) (A) (A) (A) (A) (A) (A) (A) (A) (A) (A)
                 (A) (A) (A) (A) (A) (A)
       Virtual   (A) (A) (A) (A) (A) (A) (A) (A) (A) (A) (A) (A)
                 (A) (A) (A) (A) (A) (A) (A) (A) (A) (A) (A) (A)
                 (A) (A) (A) (A) (A) (A) (A) (A) (A) (A) (A) (A)
                 (A) (A) (A) (A) (A) (A) (A) (A) (A) (A) (A) (A)
                 (A) (A) (A) (A) (A) (A) (A) (A) (A) (A) (A) (A)
                 (A) (A) (A) (A) (A) (A) (A) (A) (A) (A) (A) (A)
                 (A) (A) (A) (A) (A) (A) (A) (A) (A) (A) (A) (A)
                 (A) (A) (A) (A) (A) (A) (A) (A) (A) (A) (A) (A)
                 (A) (A) (A) (A) (A) (A) (A) (A) (A) (A) (A) (A)
                 (A) (A) (A) (A) (A) (A) (A) (A) (A) (A) (A) (A)
                 (A) (A) (A) (A) (A) (A) (A) (A) (A) (A) (A) (A)
                 (A) (A) (A) (A) (A) (A) (A) (A) (A) (A) (A) (A)
                 (A) (A) (A) (A) (A) (A) (A) (A) (A) (A) (A) (A)
                 (A) (A) (A) (A) (A) (A) (A) (A) (A) (A) (A) (A)
                 (A) (A) (A) (A) (A) (A) (A) (A) (A) (A) (A) (A)
                 (A) (A) (A) (A) (A) (A) (A) (A) (A) (A) (A) (A)
 The electronic state is 1-A.
 Alpha  occ. eigenvalues --  -19.12836 -10.26925 -10.19576 -10.19473 -10.19015
 Alpha  occ. eigenvalues --  -10.18702 -10.18493 -10.18141 -10.17479 -10.17406
 Alpha  occ. eigenvalues --  -10.17097  -1.01222  -0.89787  -0.77281  -0.76965
 Alpha  occ. eigenvalues --   -0.75001  -0.69127  -0.67419  -0.64871  -0.58838
 Alpha  occ. eigenvalues --   -0.54819  -0.50172  -0.49175  -0.48575  -0.47019
 Alpha  occ. eigenvalues --   -0.45271  -0.42753  -0.41731  -0.40996  -0.40215
 Alpha  occ. eigenvalues --   -0.40029  -0.39245  -0.38079  -0.37713  -0.35442
 Alpha  occ. eigenvalues --   -0.34852  -0.33854  -0.33465  -0.31483  -0.30969
 Alpha  occ. eigenvalues --   -0.30047  -0.23448
 Alpha virt. eigenvalues --   -0.02505   0.04783   0.07884   0.08524   0.08895
 Alpha virt. eigenvalues --    0.09672   0.10885   0.12136   0.12812   0.13225
 Alpha virt. eigenvalues --    0.14408   0.14794   0.15029   0.16413   0.17047
 Alpha virt. eigenvalues --    0.18175   0.19103   0.19291   0.19929   0.20738
 Alpha virt. eigenvalues --    0.21569   0.23862   0.23983   0.24906   0.26543
 Alpha virt. eigenvalues --    0.27232   0.28318   0.30197   0.33428   0.39552
 Alpha virt. eigenvalues --    0.40530   0.41792   0.42212   0.43965   0.45183
 Alpha virt. eigenvalues --    0.48124   0.50309   0.51500   0.51987   0.54636
 Alpha virt. eigenvalues --    0.55880   0.56800   0.57344   0.57947   0.58857
 Alpha virt. eigenvalues --    0.60099   0.60297   0.61978   0.63304   0.63653
 Alpha virt. eigenvalues --    0.63945   0.64351   0.64976   0.66227   0.66281
 Alpha virt. eigenvalues --    0.66909   0.67609   0.68553   0.69222   0.69844
 Alpha virt. eigenvalues --    0.70795   0.71210   0.71958   0.74585   0.75367
 Alpha virt. eigenvalues --    0.75729   0.76451   0.77853   0.78918   0.80597
 Alpha virt. eigenvalues --    0.81000   0.82269   0.84548   0.86477   0.93039
 Alpha virt. eigenvalues --    0.93195   0.95659   0.98210   1.01906   1.04905
 Alpha virt. eigenvalues --    1.08710   1.09942   1.12727   1.13337   1.16561
 Alpha virt. eigenvalues --    1.20337   1.22404   1.25161   1.25934   1.28450
 Alpha virt. eigenvalues --    1.30369   1.32660   1.35162   1.35436   1.38805
 Alpha virt. eigenvalues --    1.41042   1.43679   1.43755   1.44491   1.45579
 Alpha virt. eigenvalues --    1.46514   1.48878   1.49563   1.50644   1.52185
 Alpha virt. eigenvalues --    1.53427   1.54432   1.55194   1.56027   1.59336
 Alpha virt. eigenvalues --    1.59489   1.60400   1.62429   1.63022   1.64193
 Alpha virt. eigenvalues --    1.65663   1.66657   1.67241   1.69094   1.70076
 Alpha virt. eigenvalues --    1.71137   1.71956   1.72590   1.73225   1.75353
 Alpha virt. eigenvalues --    1.76208   1.76792   1.78376   1.79945   1.80527
 Alpha virt. eigenvalues --    1.82117   1.83784   1.84162   1.85918   1.86975
 Alpha virt. eigenvalues --    1.89148   1.90105   1.90700   1.91712   1.94645
 Alpha virt. eigenvalues --    1.96062   1.97139   1.99509   2.01376   2.02157
 Alpha virt. eigenvalues --    2.04723   2.05275   2.06351   2.08812   2.09386
 Alpha virt. eigenvalues --    2.11335   2.13061   2.13973   2.15450   2.17153
 Alpha virt. eigenvalues --    2.18280   2.21886   2.22699   2.25028   2.29339
 Alpha virt. eigenvalues --    2.31555   2.35340   2.36090   2.36766   2.38370
 Alpha virt. eigenvalues --    2.41384   2.43328   2.46592   2.48602   2.49023
 Alpha virt. eigenvalues --    2.50553   2.52085   2.52861   2.54008   2.55682
 Alpha virt. eigenvalues --    2.56304   2.57770   2.59407   2.61559   2.64221
 Alpha virt. eigenvalues --    2.64802   2.67734   2.68411   2.70178   2.71874
 Alpha virt. eigenvalues --    2.77147   2.79511   2.85622   2.93554   3.11234
 Alpha virt. eigenvalues --    3.27939   3.45248
          Condensed to atoms (all electrons):
              1          2          3          4          5          6
     1  C    4.600557   0.422527  -0.060948   0.400758  -0.013710  -0.033836
     2  C    0.422527   4.578183   0.422211  -0.068658  -0.033908  -0.013539
     3  C   -0.060948   0.422211   4.866144  -0.032907   0.361784  -0.051916
     4  C    0.400758  -0.068658  -0.032907   5.361420  -0.155960   0.241388
     5  C   -0.013710  -0.033908   0.361784  -0.155960   4.781892   0.338774
     6  C   -0.033836  -0.013539  -0.051916   0.241388   0.338774   4.778271
     7  C   -0.072118  -0.052970   0.326934   0.305286  -0.034843  -0.037706
     8  C    0.009820   0.004960  -0.048331  -0.053406  -0.005035  -0.012596
     9  C   -0.014015  -0.012576  -0.045846  -0.037990   0.004913   0.004627
    10  O   -0.005107   0.000170   0.003414  -0.080067  -0.064904   0.738995
    11  C   -0.042693   0.008479   0.004781   0.409890   0.013736  -0.040252
    12  H    0.349678  -0.007817  -0.002640  -0.021488   0.002780  -0.004464
    13  H    0.355353  -0.011827   0.003403  -0.005869  -0.000807   0.004237
    14  H   -0.006763   0.354997  -0.013448  -0.008944   0.006424  -0.000583
    15  H   -0.021161   0.356851  -0.015716   0.005876  -0.003893  -0.000542
    16  H    0.009261  -0.029523   0.348621   0.005819  -0.021007   0.005719
    17  H   -0.000575   0.000555  -0.004760   0.006670  -0.001711   0.000321
    18  H    0.000179  -0.000477   0.008268  -0.007043  -0.000382  -0.000910
    19  H    0.000351   0.000267  -0.010251  -0.006461  -0.000061   0.004329
    20  H    0.010119  -0.011325  -0.008041  -0.008487  -0.000100   0.000546
    21  H    0.000165  -0.002248  -0.004502   0.006611   0.000507  -0.000322
    22  H   -0.000815   0.000476   0.007815  -0.007167  -0.000419   0.000173
    23  H    0.007445  -0.000557   0.000626  -0.006808   0.000596  -0.002838
    24  H   -0.005848   0.000115   0.000680  -0.003735  -0.000598   0.006800
    25  H   -0.004243   0.000068  -0.000819  -0.011902   0.001176  -0.004248
    26  H    0.000090   0.005792  -0.007132  -0.001147   0.341362   0.004457
    27  H   -0.000957  -0.005498  -0.011194   0.009475   0.342644  -0.004807
              7          8          9         10         11         12
     1  C   -0.072118   0.009820  -0.014015  -0.005107  -0.042693   0.349678
     2  C   -0.052970   0.004960  -0.012576   0.000170   0.008479  -0.007817
     3  C    0.326934  -0.048331  -0.045846   0.003414   0.004781  -0.002640
     4  C    0.305286  -0.053406  -0.037990  -0.080067   0.409890  -0.021488
     5  C   -0.034843  -0.005035   0.004913  -0.064904   0.013736   0.002780
     6  C   -0.037706  -0.012596   0.004627   0.738995  -0.040252  -0.004464
     7  C    5.114033   0.430972   0.425491   0.003096  -0.051526   0.009944
     8  C    0.430972   4.489964  -0.046790  -0.000031  -0.005408  -0.000260
     9  C    0.425491  -0.046790   4.491150  -0.000077  -0.004871  -0.000179
    10  O    0.003096  -0.000031  -0.000077   7.624572   0.004837   0.006325
    11  C   -0.051526  -0.005408  -0.004871   0.004837   4.463327   0.003663
    12  H    0.009944  -0.000260  -0.000179   0.006325   0.003663   0.705882
    13  H   -0.006146  -0.000096   0.002749  -0.000118  -0.007069  -0.045524
    14  H    0.002630   0.001054  -0.008539  -0.000004   0.000167   0.008966
    15  H    0.004645  -0.000485   0.001007  -0.000018  -0.000282  -0.013046
    16  H   -0.017918  -0.003640  -0.004599  -0.000136  -0.000447  -0.000040
    17  H   -0.009776   0.374808  -0.004221  -0.000003   0.000132   0.000026
    18  H   -0.011828   0.375837  -0.004379  -0.000012   0.002218  -0.000014
    19  H   -0.010056   0.375803   0.008135   0.000268  -0.001066   0.000010
    20  H   -0.010210   0.008567   0.377143   0.000000  -0.001108  -0.000823
    21  H   -0.011174  -0.003651   0.376780   0.000001   0.000006   0.000029
    22  H   -0.012892  -0.004468   0.374374  -0.000003   0.002257   0.000009
    23  H   -0.008960   0.004111  -0.001195   0.001159   0.373968  -0.000550
    24  H   -0.006017  -0.001411   0.002416   0.000171   0.368231  -0.000723
    25  H    0.008507  -0.000003  -0.000139   0.009613   0.372205   0.004488
    26  H   -0.000916  -0.000544   0.000809   0.000054  -0.000444  -0.000030
    27  H    0.003182   0.000451  -0.000295   0.001137  -0.000181  -0.001090
             13         14         15         16         17         18
     1  C    0.355353  -0.006763  -0.021161   0.009261  -0.000575   0.000179
     2  C   -0.011827   0.354997   0.356851  -0.029523   0.000555  -0.000477
     3  C    0.003403  -0.013448  -0.015716   0.348621  -0.004760   0.008268
     4  C   -0.005869  -0.008944   0.005876   0.005819   0.006670  -0.007043
     5  C   -0.000807   0.006424  -0.003893  -0.021007  -0.001711  -0.000382
     6  C    0.004237  -0.000583  -0.000542   0.005719   0.000321  -0.000910
     7  C   -0.006146   0.002630   0.004645  -0.017918  -0.009776  -0.011828
     8  C   -0.000096   0.001054  -0.000485  -0.003640   0.374808   0.375837
     9  C    0.002749  -0.008539   0.001007  -0.004599  -0.004221  -0.004379
    10  O   -0.000118  -0.000004  -0.000018  -0.000136  -0.000003  -0.000012
    11  C   -0.007069   0.000167  -0.000282  -0.000447   0.000132   0.002218
    12  H   -0.045524   0.008966  -0.013046  -0.000040   0.000026  -0.000014
    13  H    0.727945  -0.024534   0.007387  -0.000440  -0.000003  -0.000008
    14  H   -0.024534   0.748742  -0.044800  -0.005526  -0.000002  -0.000052
    15  H    0.007387  -0.044800   0.744118  -0.000766  -0.000001   0.000021
    16  H   -0.000440  -0.005526  -0.000766   0.779510   0.003249  -0.000147
    17  H   -0.000003  -0.000002  -0.000001   0.003249   0.686869  -0.029398
    18  H   -0.000008  -0.000052   0.000021  -0.000147  -0.029398   0.674828
    19  H   -0.000011   0.000065  -0.000016  -0.000398  -0.031075  -0.025236
    20  H    0.005205  -0.008670  -0.000163  -0.000167   0.000285   0.000238
    21  H   -0.000173   0.004284  -0.000079   0.003455   0.004473  -0.001130
    22  H   -0.000159  -0.000491  -0.000046  -0.000137  -0.001123   0.005368
    23  H    0.000099   0.000009   0.000024   0.000002  -0.000365   0.004503
    24  H    0.004636  -0.000228   0.000014  -0.000001  -0.000052   0.000435
    25  H   -0.001338   0.000048  -0.000021   0.000032   0.000016  -0.000344
    26  H    0.000071  -0.000586  -0.000016  -0.006979   0.001554  -0.000249
    27  H    0.000129  -0.000047   0.002826   0.000028  -0.000078  -0.000022
             19         20         21         22         23         24
     1  C    0.000351   0.010119   0.000165  -0.000815   0.007445  -0.005848
     2  C    0.000267  -0.011325  -0.002248   0.000476  -0.000557   0.000115
     3  C   -0.010251  -0.008041  -0.004502   0.007815   0.000626   0.000680
     4  C   -0.006461  -0.008487   0.006611  -0.007167  -0.006808  -0.003735
     5  C   -0.000061  -0.000100   0.000507  -0.000419   0.000596  -0.000598
     6  C    0.004329   0.000546  -0.000322   0.000173  -0.002838   0.006800
     7  C   -0.010056  -0.010210  -0.011174  -0.012892  -0.008960  -0.006017
     8  C    0.375803   0.008567  -0.003651  -0.004468   0.004111  -0.001411
     9  C    0.008135   0.377143   0.376780   0.374374  -0.001195   0.002416
    10  O    0.000268   0.000000   0.000001  -0.000003   0.001159   0.000171
    11  C   -0.001066  -0.001108   0.000006   0.002257   0.373968   0.368231
    12  H    0.000010  -0.000823   0.000029   0.000009  -0.000550  -0.000723
    13  H   -0.000011   0.005205  -0.000173  -0.000159   0.000099   0.004636
    14  H    0.000065  -0.008670   0.004284  -0.000491   0.000009  -0.000228
    15  H   -0.000016  -0.000163  -0.000079  -0.000046   0.000024   0.000014
    16  H   -0.000398  -0.000167   0.003455  -0.000137   0.000002  -0.000001
    17  H   -0.031075   0.000285   0.004473  -0.001123  -0.000365  -0.000052
    18  H   -0.025236   0.000238  -0.001130   0.005368   0.004503   0.000435
    19  H    0.688460  -0.000853   0.000308   0.000231   0.001215  -0.000004
    20  H   -0.000853   0.699793  -0.034119  -0.022918  -0.000011   0.000714
    21  H    0.000308  -0.034119   0.686122  -0.029921  -0.000037  -0.000262
    22  H    0.000231  -0.022918  -0.029921   0.679117   0.000193   0.004277
    23  H    0.001215  -0.000011  -0.000037   0.000193   0.676524  -0.031644
    24  H   -0.000004   0.000714  -0.000262   0.004277  -0.031644   0.691204
    25  H   -0.000048  -0.000063   0.000023  -0.000305  -0.024656  -0.029389
    26  H   -0.000585   0.000058  -0.000090  -0.000027  -0.000159   0.000016
    27  H   -0.000089  -0.000019  -0.000004   0.000018   0.000005   0.000016
             25         26         27
     1  C   -0.004243   0.000090  -0.000957
     2  C    0.000068   0.005792  -0.005498
     3  C   -0.000819  -0.007132  -0.011194
     4  C   -0.011902  -0.001147   0.009475
     5  C    0.001176   0.341362   0.342644
     6  C   -0.004248   0.004457  -0.004807
     7  C    0.008507  -0.000916   0.003182
     8  C   -0.000003  -0.000544   0.000451
     9  C   -0.000139   0.000809  -0.000295
    10  O    0.009613   0.000054   0.001137
    11  C    0.372205  -0.000444  -0.000181
    12  H    0.004488  -0.000030  -0.001090
    13  H   -0.001338   0.000071   0.000129
    14  H    0.000048  -0.000586  -0.000047
    15  H   -0.000021  -0.000016   0.002826
    16  H    0.000032  -0.006979   0.000028
    17  H    0.000016   0.001554  -0.000078
    18  H   -0.000344  -0.000249  -0.000022
    19  H   -0.000048  -0.000585  -0.000089
    20  H   -0.000063   0.000058  -0.000019
    21  H    0.000023  -0.000090  -0.000004
    22  H   -0.000305  -0.000027   0.000018
    23  H   -0.024656  -0.000159   0.000005
    24  H   -0.029389   0.000016   0.000016
    25  H    0.663660  -0.000022  -0.000044
    26  H   -0.000022   0.665325  -0.028233
    27  H   -0.000044  -0.028233   0.683618
 Mulliken atomic charges:
              1
     1  C    0.116488
     2  C    0.095272
     3  C   -0.036230
     4  C   -0.235153
     5  C    0.140751
     6  C    0.079923
     7  C   -0.279664
     8  C    0.109808
     9  C    0.116118
    10  O   -0.243333
    11  C    0.127451
    12  H    0.006891
    13  H   -0.007090
    14  H   -0.004168
    15  H   -0.021719
    16  H   -0.063823
    17  H    0.004186
    18  H    0.009738
    19  H    0.006768
    20  H    0.004411
    21  H    0.004950
    22  H    0.006585
    23  H    0.007302
    24  H    0.000188
    25  H    0.017750
    26  H    0.027571
    27  H    0.009030
 Sum of Mulliken atomic charges =   0.00000
 Mulliken charges with hydrogens summed into heavy atoms:
              1
     1  C    0.116288
     2  C    0.069386
     3  C   -0.100053
     4  C   -0.235153
     5  C    0.177351
     6  C    0.079923
     7  C   -0.279664
     8  C    0.130500
     9  C    0.132065
    10  O   -0.243333
    11  C    0.152690
 Sum of Mulliken charges with hydrogens summed into heavy atoms =   0.00000
 Electronic spatial extent (au):  <R**2>=           1468.0848
 Charge=              0.0000 electrons
 Dipole moment (field-independent basis, Debye):
    X=              3.0454    Y=             -0.8131    Z=              0.0282  Tot=              3.1522
 Quadrupole moment (field-independent basis, Debye-Ang):
   XX=            -77.8486   YY=            -67.2846   ZZ=            -66.1741
   XY=              1.9484   XZ=              0.5866   YZ=             -0.5595
 Traceless Quadrupole moment (field-independent basis, Debye-Ang):
   XX=             -7.4129   YY=              3.1511   ZZ=              4.2617
   XY=              1.9484   XZ=              0.5866   YZ=             -0.5595
 Octapole moment (field-independent basis, Debye-Ang**2):
  XXX=             22.1264  YYY=             -0.0162  ZZZ=              1.2867  XYY=             -4.1519
  XXY=             -5.0263  XXZ=             -2.0624  XZZ=             -4.1464  YZZ=             -1.2865
  YYZ=              1.4175  XYZ=              0.3328
 Hexadecapole moment (field-independent basis, Debye-Ang**3):
 XXXX=           -888.4410 YYYY=           -616.8362 ZZZZ=           -544.8484 XXXY=              5.0784
 XXXZ=             12.5999 YYYX=              4.8463 YYYZ=              0.4352 ZZZX=             -6.5429
 ZZZY=             -5.4872 XXYY=           -232.7357 XXZZ=           -219.1932 YYZZ=           -195.7031
 XXYZ=             -1.3686 YYXZ=             -1.6210 ZZXY=             -2.3181
 N-N= 6.901205732086D+02 E-N=-2.461920169324D+03  KE= 4.631385256010D+02
 No NMR shielding tensors so no spin-rotation constants.
 Leave Link  601 at Mon Jun 10 16:48:05 2013, MaxMem= 8589934592 cpu:       0.0
 (Enter C:\G09W\l701.exe)
 Compute integral first derivatives.
 ... and contract with generalized density number  0.
 Leave Link  701 at Mon Jun 10 16:48:06 2013, MaxMem= 8589934592 cpu:       0.0
 (Enter C:\G09W\l702.exe)
 L702 exits ... SP integral derivatives will be done elsewhere.
 Leave Link  702 at Mon Jun 10 16:48:07 2013, MaxMem= 8589934592 cpu:       0.0
 (Enter C:\G09W\l703.exe)
 Compute integral first derivatives, UseDBF=F ICtDFT=           0.
 Integral derivatives from FoFDir, PRISM(SPDF).
 Calling FoFJK, ICntrl=      2127 FMM=F ISym2X=0 I1Cent= 0 IOpClX= 0 NMat=1 NMatS=1 NMatT=0.
 FoFCou: FMM=F IPFlag=           0 FMFlag=      100000 FMFlg1=         800
         NFxFlg=           0 DoJE=F BraDBF=F KetDBF=F FulRan=T
         Omega=  0.000000  0.000000  1.000000  0.000000  0.000000 ICntrl=    2127 IOpCl=  0
         NMat0=    1 NMatS0=    1 NMatT0=    0 NMatD0=    1 NMtDS0=    0 NMtDT0=    0
         I1Cent=           0 NGrid=           0.
 Symmetry not used in FoFCou.
 Leave Link  703 at Mon Jun 10 16:48:18 2013, MaxMem= 8589934592 cpu:      11.0
 (Enter C:\G09W\l716.exe)
 Dipole        = 1.19815416D+00-3.19893940D-01 1.10814798D-02
 ***** Axes restored to original set *****
 -------------------------------------------------------------------
 Center     Atomic                   Forces (Hartrees/Bohr)
 Number     Number              X              Y              Z
 -------------------------------------------------------------------
      1        6          -0.028351098    0.009974723   -0.010347444
      2        6           0.012619205   -0.018583907   -0.020439644
      3        6          -0.000408713   -0.004900831    0.004772812
      4        6           0.036543892    0.007281362   -0.004355997
      5        6           0.011622214   -0.002103203    0.032342589
      6        6           0.040386891   -0.038008423   -0.035675183
      7        6          -0.006285840    0.024585460   -0.009179410
      8        6           0.000948019   -0.019745649    0.019666077
      9        6           0.004673987   -0.022360312   -0.014903554
     10        8          -0.039332040    0.042987152    0.029421917
     11        6          -0.031053700   -0.013685229   -0.000608604
     12        1           0.000225240   -0.023419692    0.005611191
     13        1           0.016706635    0.010920387    0.014020291
     14        1          -0.008568426    0.002705512    0.016751967
     15        1          -0.013514758   -0.017534536    0.001163870
     16        1          -0.018753827    0.014011770   -0.001016674
     17        1          -0.016656125    0.013520870   -0.004202688
     18        1           0.016354919    0.013609606   -0.002695769
     19        1           0.003650196   -0.004417401   -0.020125380
     20        1           0.002383391    0.003029688    0.019359274
     21        1          -0.017076506    0.013866194   -0.001083914
     22        1           0.016186180    0.014103267    0.001508173
     23        1           0.007945273    0.009409334   -0.017678801
     24        1           0.005209816    0.013609321    0.016077338
     25        1           0.014915070   -0.015093825    0.000710071
     26        1          -0.003624081    0.006690802   -0.018248406
     27        1          -0.006745815   -0.020452441   -0.000844101
 -------------------------------------------------------------------
 Cartesian Forces:  Max     0.042987152 RMS     0.017254490
 Leave Link  716 at Mon Jun 10 16:48:18 2013, MaxMem= 8589934592 cpu:       0.0
 (Enter C:\G09W\l103.exe)

 GradGradGradGradGradGradGradGradGradGradGradGradGradGradGradGradGradGrad
 Berny optimization.
 Internal  Forces:  Max     0.065232671 RMS     0.009313402
 Search for a local minimum.
 Step number   1 out of a maximum of  162
 All quantities printed in internal units (Hartrees-Bohrs-Radians)
 RMS Force = .93134D-02 SwitMx=.10000D-02 MixMth= 1
 Mixed Optimization -- RFO/linear search
 Second derivative matrix not updated -- first step.
 ITU=  0
     Eigenvalues ---    0.00237   0.00237   0.00237   0.00347   0.00359
     Eigenvalues ---    0.00863   0.01838   0.02322   0.02925   0.03523
     Eigenvalues ---    0.03741   0.03965   0.04222   0.04438   0.04639
     Eigenvalues ---    0.05246   0.05397   0.05720   0.05720   0.05720
     Eigenvalues ---    0.05720   0.05720   0.05720   0.05825   0.06030
     Eigenvalues ---    0.06304   0.06619   0.06951   0.07495   0.07796
     Eigenvalues ---    0.08102   0.09011   0.09136   0.10444   0.11327
     Eigenvalues ---    0.12926   0.16000   0.16000   0.16000   0.16000
     Eigenvalues ---    0.16000   0.16000   0.16000   0.16000   0.16000
     Eigenvalues ---    0.17640   0.21582   0.24426   0.24965   0.24990
     Eigenvalues ---    0.26049   0.26620   0.28176   0.28519   0.28519
     Eigenvalues ---    0.28519   0.28549   0.29079   0.37230   0.37230
     Eigenvalues ---    0.37230   0.37230   0.37230   0.37230   0.37230
     Eigenvalues ---    0.37230   0.37230   0.37230   0.37230   0.37230
     Eigenvalues ---    0.37230   0.37230   0.37230   0.37230   0.80209
 RFO step:  Lambda=-4.74905596D-02 EMin= 2.36823962D-03
 Linear search not attempted -- first point.
 Maximum step size (   0.300) exceeded in Quadratic search.
    -- Step size scaled by   0.888
 Iteration  1 RMS(Cart)=  0.06609767 RMS(Int)=  0.00173257
 Iteration  2 RMS(Cart)=  0.00206451 RMS(Int)=  0.00045486
 Iteration  3 RMS(Cart)=  0.00000365 RMS(Int)=  0.00045485
 Iteration  4 RMS(Cart)=  0.00000000 RMS(Int)=  0.00045485
 Variable       Old X    -DE/DX   Delta X   Delta X   Delta X     New X
                                 (Linear)    (Quad)   (Total)
    R1        2.95496   0.00468   0.00000   0.00645   0.00637   2.96133
    R2        2.90637   0.01794   0.00000   0.05310   0.05363   2.96000
    R3        2.02201   0.02116   0.00000   0.04478   0.04478   2.06679
    R4        2.02201   0.02156   0.00000   0.04563   0.04563   2.06764
    R5        2.91856   0.00758   0.00000   0.01190   0.01127   2.92983
    R6        2.02201   0.01437   0.00000   0.03040   0.03040   2.05241
    R7        2.02201   0.02151   0.00000   0.04552   0.04552   2.06753
    R8        2.91036   0.00378   0.00000   0.00949   0.00921   2.91957
    R9        2.90688   0.02668   0.00000   0.08002   0.07947   2.98635
   R10        2.02201   0.02222   0.00000   0.04701   0.04701   2.06902
   R11        2.90764  -0.00091   0.00000  -0.00329  -0.00272   2.90491
   R12        2.89379   0.02130   0.00000   0.05648   0.05632   2.95011
   R13        2.91018  -0.00467   0.00000  -0.01248  -0.01248   2.89770
   R14        2.88177   0.00068   0.00000   0.00265   0.00327   2.88504
   R15        2.02201   0.01952   0.00000   0.04130   0.04130   2.06331
   R16        2.02201   0.02118   0.00000   0.04483   0.04483   2.06683
   R17        2.37803  -0.06523   0.00000  -0.06821  -0.06821   2.30983
   R18        2.91018   0.00809   0.00000   0.02161   0.02161   2.93178
   R19        2.91018   0.00911   0.00000   0.02432   0.02432   2.93450
   R20        2.02201   0.02173   0.00000   0.04598   0.04598   2.06798
   R21        2.02201   0.02112   0.00000   0.04470   0.04470   2.06670
   R22        2.02201   0.01858   0.00000   0.03933   0.03933   2.06133
   R23        2.02201   0.01537   0.00000   0.03253   0.03253   2.05453
   R24        2.02201   0.02192   0.00000   0.04638   0.04638   2.06839
   R25        2.02201   0.02131   0.00000   0.04510   0.04510   2.06710
   R26        2.02201   0.02116   0.00000   0.04477   0.04477   2.06678
   R27        2.02201   0.02159   0.00000   0.04568   0.04568   2.06769
   R28        2.02201   0.02106   0.00000   0.04457   0.04457   2.06657
    A1        1.75687   0.00639   0.00000   0.03586   0.03565   1.79252
    A2        2.01866  -0.00851   0.00000  -0.05283  -0.05296   1.96570
    A3        1.88966   0.00527   0.00000   0.04094   0.04180   1.93147
    A4        1.84452   0.00112   0.00000   0.01805   0.01862   1.86314
    A5        2.06395  -0.00522   0.00000  -0.03676  -0.03764   2.02631
    A6        1.89403   0.00023   0.00000  -0.00926  -0.00904   1.88499
    A7        1.80451  -0.00104   0.00000  -0.00914  -0.01082   1.79369
    A8        1.90706  -0.00082   0.00000  -0.00479  -0.00401   1.90305
    A9        1.96881   0.00354   0.00000   0.02695   0.02726   1.99608
   A10        1.81670   0.00073   0.00000   0.01682   0.01709   1.83379
   A11        2.05883   0.00022   0.00000  -0.00652  -0.00577   2.05306
   A12        1.89800  -0.00282   0.00000  -0.02340  -0.02363   1.87437
   A13        2.02999  -0.01157   0.00000  -0.08186  -0.08191   1.94808
   A14        1.70144   0.00915   0.00000   0.06327   0.06331   1.76475
   A15        1.94727   0.00048   0.00000   0.00826   0.00781   1.95508
   A16        1.77869  -0.00240   0.00000  -0.00765  -0.00651   1.77218
   A17        1.92528   0.00620   0.00000   0.02508   0.02479   1.95007
   A18        2.07236  -0.00301   0.00000  -0.01185  -0.01256   2.05981
   A19        1.76044  -0.00811   0.00000  -0.03331  -0.03355   1.72689
   A20        1.82789  -0.00051   0.00000   0.00291   0.00248   1.83037
   A21        2.01400   0.00605   0.00000   0.01668   0.01630   2.03030
   A22        1.78769   0.00125   0.00000  -0.00508  -0.00512   1.78257
   A23        1.99796   0.00034   0.00000  -0.00662  -0.00614   1.99182
   A24        2.04033  -0.00048   0.00000   0.01737   0.01711   2.05744
   A25        1.74238   0.00513   0.00000   0.02151   0.02045   1.76283
   A26        1.91632   0.00086   0.00000   0.00219   0.00224   1.91856
   A27        1.99954  -0.00046   0.00000   0.01127   0.01190   2.01144
   A28        1.92853  -0.00412   0.00000  -0.02293  -0.02266   1.90586
   A29        1.98814  -0.00144   0.00000  -0.00641  -0.00647   1.98167
   A30        1.88590   0.00010   0.00000  -0.00526  -0.00561   1.88029
   A31        1.85310   0.00281   0.00000   0.00798   0.00753   1.86063
   A32        2.21341  -0.00393   0.00000  -0.01253  -0.01269   2.20072
   A33        2.21582   0.00099   0.00000   0.00297   0.00284   2.21866
   A34        1.62882  -0.00597   0.00000  -0.01279  -0.01324   1.61558
   A35        1.98815   0.00430   0.00000   0.01420   0.01422   2.00237
   A36        2.00209   0.00528   0.00000   0.03502   0.03557   2.03767
   A37        1.99294   0.00225   0.00000   0.00037   0.00065   1.99359
   A38        1.99730   0.00273   0.00000   0.00086   0.00066   1.99796
   A39        1.85484  -0.00735   0.00000  -0.03175  -0.03219   1.82265
   A40        1.91063   0.00064   0.00000   0.00213   0.00192   1.91255
   A41        1.91063   0.00234   0.00000   0.00792   0.00771   1.91834
   A42        1.91063   0.01266   0.00000   0.05693   0.05648   1.96711
   A43        1.91063  -0.00310   0.00000  -0.01869  -0.01866   1.89197
   A44        1.91063  -0.00539   0.00000  -0.01886  -0.01929   1.89134
   A45        1.91063  -0.00715   0.00000  -0.02943  -0.02986   1.88078
   A46        1.91063   0.01668   0.00000   0.07565   0.07508   1.98571
   A47        1.91063  -0.00001   0.00000  -0.00047  -0.00092   1.90971
   A48        1.91063   0.00031   0.00000  -0.00250  -0.00268   1.90795
   A49        1.91063  -0.00607   0.00000  -0.01834  -0.01911   1.89152
   A50        1.91063  -0.00825   0.00000  -0.03451  -0.03481   1.87582
   A51        1.91063  -0.00266   0.00000  -0.01983  -0.01986   1.89078
   A52        1.91063   0.00459   0.00000   0.01982   0.01971   1.93035
   A53        1.91063   0.00204   0.00000   0.00982   0.00972   1.92035
   A54        1.91063   0.00181   0.00000   0.00646   0.00642   1.91706
   A55        1.91063  -0.00255   0.00000  -0.00836  -0.00852   1.90211
   A56        1.91063  -0.00385   0.00000  -0.01868  -0.01872   1.89191
   A57        1.91063  -0.00203   0.00000  -0.00905  -0.00908   1.90155
    D1        0.22874  -0.00494   0.00000  -0.04920  -0.05016   0.17858
    D2       -1.69781  -0.00497   0.00000  -0.06209  -0.06289  -1.76069
    D3        2.47205  -0.00316   0.00000  -0.04682  -0.04792   2.42414
    D4       -1.74878  -0.00662   0.00000  -0.07046  -0.07031  -1.81909
    D5        2.60786  -0.00665   0.00000  -0.08335  -0.08304   2.52482
    D6        0.49453  -0.00484   0.00000  -0.06809  -0.06807   0.42646
    D7        2.40536  -0.00512   0.00000  -0.05359  -0.05312   2.35224
    D8        0.47881  -0.00515   0.00000  -0.06648  -0.06585   0.41297
    D9       -1.63451  -0.00334   0.00000  -0.05121  -0.05088  -1.68539
   D10       -1.40111   0.00493   0.00000   0.03596   0.03582  -1.36529
   D11        0.45039   0.00346   0.00000   0.02036   0.02015   0.47054
   D12        2.71919   0.00687   0.00000   0.05832   0.05809   2.77728
   D13        0.70550  -0.00127   0.00000   0.00011   0.00032   0.70582
   D14        2.55700  -0.00274   0.00000  -0.01549  -0.01535   2.54165
   D15       -1.45738   0.00067   0.00000   0.02246   0.02258  -1.43480
   D16        2.82953  -0.00352   0.00000  -0.02186  -0.02142   2.80811
   D17       -1.60215  -0.00499   0.00000  -0.03745  -0.03709  -1.63924
   D18        0.66665  -0.00158   0.00000   0.00050   0.00084   0.66749
   D19        1.05426   0.00374   0.00000   0.06157   0.05972   1.11398
   D20       -0.81829   0.00477   0.00000   0.05890   0.05982  -0.75847
   D21       -2.99973   0.00279   0.00000   0.03269   0.03217  -2.96755
   D22        3.04691   0.00272   0.00000   0.05910   0.05745   3.10437
   D23        1.17436   0.00375   0.00000   0.05643   0.05755   1.23191
   D24       -1.00708   0.00177   0.00000   0.03023   0.02991  -0.97717
   D25       -1.13215  -0.00020   0.00000   0.03798   0.03663  -1.09551
   D26       -3.00470   0.00082   0.00000   0.03531   0.03673  -2.96797
   D27        1.09704  -0.00115   0.00000   0.00911   0.00909   1.10613
   D28       -1.06765  -0.00652   0.00000  -0.07298  -0.07294  -1.14059
   D29       -3.09412  -0.00469   0.00000  -0.05844  -0.05822   3.13084
   D30        1.06355  -0.00516   0.00000  -0.06120  -0.06108   1.00247
   D31        0.75875  -0.00120   0.00000  -0.03181  -0.03171   0.72704
   D32       -1.26772   0.00062   0.00000  -0.01727  -0.01698  -1.28471
   D33        2.88994   0.00016   0.00000  -0.02003  -0.01984   2.87011
   D34        2.97558  -0.00293   0.00000  -0.03713  -0.03738   2.93820
[...]
 Leave Link 1002 at Mon Jun 10 19:40:37 2013, MaxMem= 8589934592 cpu:    3029.0
 (Enter C:\G09W\l601.exe)
 Copying SCF densities to generalized density rwf, IOpCl= 0 IROHF=0.

 **********************************************************************

            Population analysis using the SCF density.

 **********************************************************************

 Orbital symmetries:
       Occupied  (A) (A) (A) (A) (A) (A) (A) (A) (A) (A) (A) (A)
                 (A) (A) (A) (A) (A) (A) (A) (A) (A) (A) (A) (A)
                 (A) (A) (A) (A) (A) (A) (A) (A) (A) (A) (A) (A)
                 (A) (A) (A) (A) (A) (A)
       Virtual   (A) (A) (A) (A) (A) (A) (A) (A) (A) (A) (A) (A)
                 (A) (A) (A) (A) (A) (A) (A) (A) (A) (A) (A) (A)
                 (A) (A) (A) (A) (A) (A) (A) (A) (A) (A) (A) (A)
                 (A) (A) (A) (A) (A) (A) (A) (A) (A) (A) (A) (A)
                 (A) (A) (A) (A) (A) (A) (A) (A) (A) (A) (A) (A)
                 (A) (A) (A) (A) (A) (A) (A) (A) (A) (A) (A) (A)
                 (A) (A) (A) (A) (A) (A) (A) (A) (A) (A) (A) (A)
                 (A) (A) (A) (A) (A) (A) (A) (A) (A) (A) (A) (A)
                 (A) (A) (A) (A) (A) (A) (A) (A) (A) (A) (A) (A)
                 (A) (A) (A) (A) (A) (A) (A) (A) (A) (A) (A) (A)
                 (A) (A) (A) (A) (A) (A) (A) (A) (A) (A) (A) (A)
                 (A) (A) (A) (A) (A) (A) (A) (A) (A) (A) (A) (A)
                 (A) (A) (A) (A) (A) (A) (A) (A) (A) (A) (A) (A)
                 (A) (A) (A) (A) (A) (A) (A) (A) (A) (A) (A) (A)
                 (A) (A) (A) (A) (A) (A) (A) (A) (A) (A) (A) (A)
                 (A) (A) (A) (A) (A) (A) (A) (A) (A) (A) (A) (A)
 The electronic state is 1-A.
 Alpha  occ. eigenvalues --  -19.12794 -10.26503 -10.20405 -10.19634 -10.19549
 Alpha  occ. eigenvalues --  -10.19299 -10.18972 -10.18965 -10.18415 -10.18397
 Alpha  occ. eigenvalues --  -10.17883  -1.03766  -0.88571  -0.76975  -0.76328
 Alpha  occ. eigenvalues --   -0.73697  -0.68370  -0.66653  -0.63928  -0.58389
 Alpha  occ. eigenvalues --   -0.53835  -0.49936  -0.48377  -0.48236  -0.46451
 Alpha  occ. eigenvalues --   -0.44333  -0.42084  -0.41129  -0.40564  -0.39754
 Alpha  occ. eigenvalues --   -0.39537  -0.38462  -0.37973  -0.37297  -0.35727
 Alpha  occ. eigenvalues --   -0.34676  -0.34295  -0.33445  -0.32336  -0.31300
 Alpha  occ. eigenvalues --   -0.29741  -0.23255
 Alpha virt. eigenvalues --   -0.01277   0.04241   0.07167   0.07785   0.08102
 Alpha virt. eigenvalues --    0.09275   0.10373   0.11735   0.12392   0.12618
 Alpha virt. eigenvalues --    0.13412   0.14041   0.14469   0.16527   0.16830
 Alpha virt. eigenvalues --    0.17424   0.17841   0.18672   0.18997   0.20561
 Alpha virt. eigenvalues --    0.21757   0.23346   0.24060   0.24865   0.25943
 Alpha virt. eigenvalues --    0.27364   0.28111   0.30674   0.33042   0.39686
 Alpha virt. eigenvalues --    0.40254   0.40736   0.43238   0.43745   0.45205
 Alpha virt. eigenvalues --    0.47741   0.49479   0.51416   0.52686   0.54326
 Alpha virt. eigenvalues --    0.55180   0.55916   0.57148   0.57246   0.58114
 Alpha virt. eigenvalues --    0.59358   0.60524   0.61776   0.62114   0.62860
 Alpha virt. eigenvalues --    0.63105   0.63682   0.64398   0.65022   0.65285
 Alpha virt. eigenvalues --    0.65995   0.66704   0.67443   0.68213   0.68664
 Alpha virt. eigenvalues --    0.69275   0.70094   0.71063   0.72668   0.74065
 Alpha virt. eigenvalues --    0.74227   0.75968   0.76416   0.77524   0.78591
 Alpha virt. eigenvalues --    0.79486   0.80117   0.82398   0.84743   0.89322
 Alpha virt. eigenvalues --    0.92662   0.92932   0.96658   1.04185   1.06071
 Alpha virt. eigenvalues --    1.08625   1.09803   1.12405   1.14574   1.16782
 Alpha virt. eigenvalues --    1.19439   1.21721   1.24425   1.26235   1.27934
 Alpha virt. eigenvalues --    1.29767   1.31086   1.34207   1.35046   1.37937
 Alpha virt. eigenvalues --    1.39643   1.40807   1.42634   1.43332   1.44453
 Alpha virt. eigenvalues --    1.44683   1.46988   1.47515   1.48921   1.51104
 Alpha virt. eigenvalues --    1.52327   1.53410   1.53872   1.54591   1.55356
 Alpha virt. eigenvalues --    1.58153   1.59269   1.61792   1.62162   1.64744
 Alpha virt. eigenvalues --    1.64948   1.66804   1.67285   1.67616   1.67844
 Alpha virt. eigenvalues --    1.69674   1.70034   1.70933   1.71827   1.72127
 Alpha virt. eigenvalues --    1.73868   1.75441   1.76833   1.77706   1.77870
 Alpha virt. eigenvalues --    1.79505   1.81175   1.83092   1.83900   1.85153
 Alpha virt. eigenvalues --    1.85896   1.87887   1.88049   1.90309   1.91156
 Alpha virt. eigenvalues --    1.92742   1.94985   1.95115   1.97725   1.99675
 Alpha virt. eigenvalues --    2.02518   2.03481   2.03748   2.06565   2.07163
 Alpha virt. eigenvalues --    2.07962   2.08642   2.09911   2.13379   2.13988
 Alpha virt. eigenvalues --    2.15273   2.16678   2.18188   2.22671   2.23088
 Alpha virt. eigenvalues --    2.24928   2.30692   2.31778   2.32835   2.34920
 Alpha virt. eigenvalues --    2.37656   2.40010   2.40741   2.41399   2.43494
 Alpha virt. eigenvalues --    2.44253   2.44584   2.45903   2.46682   2.48161
 Alpha virt. eigenvalues --    2.49895   2.53017   2.53652   2.55523   2.57797
 Alpha virt. eigenvalues --    2.58029   2.61905   2.66372   2.70062   2.71320
 Alpha virt. eigenvalues --    2.72985   2.76984   2.79494   2.88085   3.15192
 Alpha virt. eigenvalues --    3.32954   3.50039
          Condensed to atoms (all electrons):
              1          2          3          4          5          6
     1  C    4.643175   0.417228  -0.066064   0.398922  -0.015219  -0.027364
     2  C    0.417228   4.603430   0.410616  -0.063636  -0.025058  -0.016212
     3  C   -0.066064   0.410616   4.866440  -0.021678   0.346355  -0.049906
     4  C    0.398922  -0.063636  -0.021678   5.356489  -0.165909   0.249826
     5  C   -0.015219  -0.025058   0.346355  -0.165909   4.856386   0.347498
     6  C   -0.027364  -0.016212  -0.049906   0.249826   0.347498   4.712914
     7  C   -0.068052  -0.057238   0.350481   0.303876  -0.045067  -0.044828
     8  C    0.007923   0.006244  -0.051720  -0.055555  -0.001694  -0.010599
     9  C   -0.011503  -0.004619  -0.049290  -0.043357   0.005750   0.003437
    10  O   -0.001906   0.000086   0.003771  -0.089559  -0.067986   0.784244
    11  C   -0.043091   0.007976   0.003311   0.413208   0.014714  -0.039544
    12  H    0.355009  -0.012553   0.001483  -0.020713  -0.000295  -0.002360
    13  H    0.356554  -0.013268   0.001004  -0.011552  -0.000657   0.003409
    14  H   -0.013546   0.353411  -0.013200  -0.002155   0.005257   0.000617
    15  H   -0.013511   0.358150  -0.017965   0.002682  -0.006039  -0.002423
    16  H    0.009030  -0.029346   0.356401   0.004969  -0.021445   0.005696
    17  H   -0.000454   0.000327  -0.006426   0.006452  -0.001187   0.000325
    18  H    0.000141  -0.000427   0.007442  -0.004274  -0.000400  -0.001131
    19  H    0.000512   0.000082  -0.007513  -0.008952   0.002884   0.005909
    20  H    0.003353   0.003165  -0.008275  -0.008382   0.000124   0.000373
    21  H    0.000150  -0.001455  -0.005287   0.006749   0.000381  -0.000243
    22  H   -0.000956  -0.000068   0.007170  -0.005852  -0.000447   0.000214
    23  H    0.007021  -0.000492   0.000510  -0.008385   0.000548  -0.002614
    24  H   -0.007115   0.000210   0.000459  -0.005593  -0.000546   0.006501
    25  H   -0.003552   0.000051  -0.000639  -0.012086   0.001223  -0.005946
    26  H    0.000523   0.004933  -0.011863   0.003789   0.338549  -0.003042
    27  H   -0.002340  -0.007036  -0.014212   0.007481   0.343821  -0.002453
              7          8          9         10         11         12
     1  C   -0.068052   0.007923  -0.011503  -0.001906  -0.043091   0.355009
     2  C   -0.057238   0.006244  -0.004619   0.000086   0.007976  -0.012553
     3  C    0.350481  -0.051720  -0.049290   0.003771   0.003311   0.001483
     4  C    0.303876  -0.055555  -0.043357  -0.089559   0.413208  -0.020713
     5  C   -0.045067  -0.001694   0.005750  -0.067986   0.014714  -0.000295
     6  C   -0.044828  -0.010599   0.003437   0.784244  -0.039544  -0.002360
     7  C    5.077085   0.434252   0.429067   0.002145  -0.050079   0.008335
     8  C    0.434252   4.531966  -0.045752  -0.000400  -0.004322  -0.000282
     9  C    0.429067  -0.045752   4.525844  -0.000087  -0.003192   0.000080
    10  O    0.002145  -0.000400  -0.000087   7.548097   0.007619   0.002287
    11  C   -0.050079  -0.004322  -0.003192   0.007619   4.503595   0.000877
    12  H    0.008335  -0.000282   0.000080   0.002287   0.000877   0.706794
    13  H   -0.006224  -0.000008   0.002374  -0.000161  -0.005161  -0.043257
    14  H   -0.001011   0.000170   0.000978  -0.000001  -0.000113   0.007864
    15  H    0.005256  -0.000320   0.000149  -0.000026  -0.000177  -0.015385
    16  H   -0.023112  -0.003761  -0.004355  -0.000107  -0.000385  -0.000196
    17  H   -0.013462   0.373421  -0.003318  -0.000002   0.000027   0.000018
    18  H   -0.013576   0.374697  -0.006539  -0.000001   0.001423  -0.000006
    19  H   -0.009371   0.375680   0.007015   0.000858  -0.000736  -0.000007
    20  H   -0.009346   0.007396   0.374148  -0.000001  -0.000690  -0.000298
    21  H   -0.014342  -0.003473   0.373524   0.000001  -0.000072   0.000017
    22  H   -0.012776  -0.006094   0.374335  -0.000003   0.002256  -0.000025
    23  H   -0.008762   0.004243  -0.000943   0.001842   0.371231  -0.000347
    24  H   -0.005454  -0.000774   0.002319   0.000202   0.365580  -0.000533
    25  H    0.007954  -0.000117  -0.000170   0.009923   0.370249   0.004136
    26  H   -0.001122   0.002511   0.000425   0.000077  -0.000416  -0.000089
    27  H    0.004041   0.000112  -0.000270   0.000863  -0.000171  -0.000587
             13         14         15         16         17         18
     1  C    0.356554  -0.013546  -0.013511   0.009030  -0.000454   0.000141
     2  C   -0.013268   0.353411   0.358150  -0.029346   0.000327  -0.000427
     3  C    0.001004  -0.013200  -0.017965   0.356401  -0.006426   0.007442
     4  C   -0.011552  -0.002155   0.002682   0.004969   0.006452  -0.004274
     5  C   -0.000657   0.005257  -0.006039  -0.021445  -0.001187  -0.000400
     6  C    0.003409   0.000617  -0.002423   0.005696   0.000325  -0.001131
     7  C   -0.006224  -0.001011   0.005256  -0.023112  -0.013462  -0.013576
     8  C   -0.000008   0.000170  -0.000320  -0.003761   0.373421   0.374697
     9  C    0.002374   0.000978   0.000149  -0.004355  -0.003318  -0.006539
    10  O   -0.000161  -0.000001  -0.000026  -0.000107  -0.000002  -0.000001
    11  C   -0.005161  -0.000113  -0.000177  -0.000385   0.000027   0.001423
    12  H   -0.043257   0.007864  -0.015385  -0.000196   0.000018  -0.000006
    13  H    0.719122  -0.023259   0.007558  -0.000364  -0.000002   0.000011
    14  H   -0.023259   0.735614  -0.045968  -0.006026  -0.000017  -0.000009
    15  H    0.007558  -0.045968   0.721644   0.001092  -0.000003   0.000019
    16  H   -0.000364  -0.006026   0.001092   0.759595   0.003802  -0.000165
    17  H   -0.000002  -0.000017  -0.000003   0.003802   0.682964  -0.029678
    18  H    0.000011  -0.000009   0.000019  -0.000165  -0.029678   0.673719
    19  H   -0.000020   0.000026  -0.000020  -0.000550  -0.029582  -0.027723
    20  H    0.002502   0.000642  -0.000157  -0.000420   0.000029   0.000226
    21  H   -0.000234   0.000705  -0.000044   0.003982   0.004474  -0.000945
    22  H    0.000301  -0.000129   0.000000  -0.000180  -0.000965   0.005833
    23  H   -0.000012   0.000018   0.000018   0.000001  -0.000314   0.003512
    24  H    0.005792  -0.000083   0.000007   0.000000  -0.000028   0.000140
    25  H   -0.001437   0.000014  -0.000030   0.000025   0.000018  -0.000206
    26  H    0.000083  -0.000596   0.000532  -0.006379   0.000461  -0.000012
    27  H    0.000143   0.000362   0.005682   0.000787  -0.000057  -0.000007
             19         20         21         22         23         24
     1  C    0.000512   0.003353   0.000150  -0.000956   0.007021  -0.007115
     2  C    0.000082   0.003165  -0.001455  -0.000068  -0.000492   0.000210
     3  C   -0.007513  -0.008275  -0.005287   0.007170   0.000510   0.000459
     4  C   -0.008952  -0.008382   0.006749  -0.005852  -0.008385  -0.005593
     5  C    0.002884   0.000124   0.000381  -0.000447   0.000548  -0.000546
     6  C    0.005909   0.000373  -0.000243   0.000214  -0.002614   0.006501
     7  C   -0.009371  -0.009346  -0.014342  -0.012776  -0.008762  -0.005454
     8  C    0.375680   0.007396  -0.003473  -0.006094   0.004243  -0.000774
     9  C    0.007015   0.374148   0.373524   0.374335  -0.000943   0.002319
    10  O    0.000858  -0.000001   0.000001  -0.000003   0.001842   0.000202
    11  C   -0.000736  -0.000690  -0.000072   0.002256   0.371231   0.365580
    12  H   -0.000007  -0.000298   0.000017  -0.000025  -0.000347  -0.000533
    13  H   -0.000020   0.002502  -0.000234   0.000301  -0.000012   0.005792
    14  H    0.000026   0.000642   0.000705  -0.000129   0.000018  -0.000083
    15  H   -0.000020  -0.000157  -0.000044   0.000000   0.000018   0.000007
    16  H   -0.000550  -0.000420   0.003982  -0.000180   0.000001   0.000000
    17  H   -0.029582   0.000029   0.004474  -0.000965  -0.000314  -0.000028
    18  H   -0.027723   0.000226  -0.000945   0.005833   0.003512   0.000140
    19  H    0.670437  -0.000555   0.000039   0.000226   0.001204   0.000006
    20  H   -0.000555   0.684950  -0.029597  -0.028712   0.000002   0.000260
    21  H    0.000039  -0.029597   0.683456  -0.030411  -0.000039  -0.000171
    22  H    0.000226  -0.028712  -0.030411   0.677221   0.000228   0.003159
    23  H    0.001204   0.000002  -0.000039   0.000228   0.674817  -0.031483
    24  H    0.000006   0.000260  -0.000171   0.003159  -0.031483   0.689869
    25  H   -0.000107  -0.000044   0.000021  -0.000220  -0.026518  -0.030310
    26  H   -0.000802   0.000016  -0.000065  -0.000002  -0.000074   0.000017
    27  H    0.000174  -0.000023   0.000000   0.000018  -0.000001   0.000014
             25         26         27
     1  C   -0.003552   0.000523  -0.002340
     2  C    0.000051   0.004933  -0.007036
     3  C   -0.000639  -0.011863  -0.014212
     4  C   -0.012086   0.003789   0.007481
     5  C    0.001223   0.338549   0.343821
     6  C   -0.005946  -0.003042  -0.002453
     7  C    0.007954  -0.001122   0.004041
     8  C   -0.000117   0.002511   0.000112
     9  C   -0.000170   0.000425  -0.000270
    10  O    0.009923   0.000077   0.000863
    11  C    0.370249  -0.000416  -0.000171
    12  H    0.004136  -0.000089  -0.000587
    13  H   -0.001437   0.000083   0.000143
    14  H    0.000014  -0.000596   0.000362
    15  H   -0.000030   0.000532   0.005682
    16  H    0.000025  -0.006379   0.000787
    17  H    0.000018   0.000461  -0.000057
    18  H   -0.000206  -0.000012  -0.000007
    19  H   -0.000107  -0.000802   0.000174
    20  H   -0.000044   0.000016  -0.000023
    21  H    0.000021  -0.000065   0.000000
    22  H   -0.000220  -0.000002   0.000018
    23  H   -0.026518  -0.000074  -0.000001
    24  H   -0.030310   0.000017   0.000014
    25  H    0.661810  -0.000026  -0.000056
    26  H   -0.000026   0.672269  -0.026397
    27  H   -0.000056  -0.026397   0.667607
 Mulliken atomic charges:
              1
     1  C    0.075132
     2  C    0.065498
     3  C   -0.031403
     4  C   -0.226803
     5  C    0.088459
     6  C    0.087701
     7  C   -0.238668
     8  C    0.066255
     9  C    0.073953
    10  O   -0.201777
    11  C    0.086081
    12  H    0.010034
    13  H    0.006759
    14  H    0.000433
    15  H   -0.000721
    16  H   -0.048591
    17  H    0.013178
    18  H    0.017939
    19  H    0.020885
    20  H    0.009313
    21  H    0.012877
    22  H    0.015879
    23  H    0.014790
    24  H    0.007553
    25  H    0.026041
    26  H    0.026699
    27  H    0.022504
 Sum of Mulliken atomic charges =   0.00000
 Mulliken charges with hydrogens summed into heavy atoms:
              1
     1  C    0.091925
     2  C    0.065209
     3  C   -0.079994
     4  C   -0.226803
     5  C    0.137662
     6  C    0.087701
     7  C   -0.238668
     8  C    0.118257
     9  C    0.112022
    10  O   -0.201777
    11  C    0.134466
 Sum of Mulliken charges with hydrogens summed into heavy atoms =   0.00000
 Electronic spatial extent (au):  <R**2>=           1490.2396
 Charge=              0.0000 electrons
 Dipole moment (field-independent basis, Debye):
    X=              2.7039    Y=             -0.7828    Z=             -0.1222  Tot=              2.8176
 Quadrupole moment (field-independent basis, Debye-Ang):
   XX=            -77.1616   YY=            -67.3901   ZZ=            -66.8482
   XY=              2.1535   XZ=              1.0062   YZ=             -0.2753
 Traceless Quadrupole moment (field-independent basis, Debye-Ang):
   XX=             -6.6950   YY=              3.0766   ZZ=              3.6184
   XY=              2.1535   XZ=              1.0062   YZ=             -0.2753
 Octapole moment (field-independent basis, Debye-Ang**2):
  XXX=             17.7088  YYY=              0.7510  ZZZ=              2.7827  XYY=             -4.8458
  XXY=             -5.2679  XXZ=             -3.2065  XZZ=             -3.9939  YZZ=             -0.2415
  YYZ=              1.0005  XYZ=              0.1465
 Hexadecapole moment (field-independent basis, Debye-Ang**3):
 XXXX=           -869.4928 YYYY=           -654.4970 ZZZZ=           -558.5179 XXXY=              5.1792
 XXXZ=             12.2571 YYYX=              4.4859 YYYZ=              1.8792 ZZZX=             -6.2505
 ZZZY=             -3.7184 XXYY=           -238.1397 XXZZ=           -218.8548 YYZZ=           -206.1503
 XXYZ=             -1.1520 YYXZ=             -1.8224 ZZXY=             -1.9980
 N-N= 6.842010012039D+02 E-N=-2.449632485412D+03  KE= 4.624194270093D+02
 Calculating spin-rotation constants.
 Leave Link  601 at Mon Jun 10 19:40:50 2013, MaxMem= 8589934592 cpu:      10.0
 (Enter C:\G09W\l9999.exe)

 Test job not archived.
 1|1|UNPC-IMOEN|SP|RB3LYP|Gen|C10H16O1|ADMINISTRATOR|10-Jun-2013|0||#P 
 Geom=AllCheck Guess=TCheck SCRF=Check GenChk RB3LYP/ChkBas NMR=ReadFC 
 IOp(3/6=22)||Camphor geometry.||0,1|C,0,0.1693207862,0.3809385195,3.09
 75867503|C,0,-1.3853547468,0.4603254719,3.0245141046|C,0,-1.6286044468
 ,1.2004558421,1.687967134|C,0,0.6577038511,1.1442896318,1.8218958359|C
 ,0,-1.2467417188,0.2163529503,0.5637887798|C,0,0.286158287,0.184170242
 2,0.6801641552|C,0,-0.457162623,2.2404573015,1.6491294174|C,0,-0.35126
 64618,3.0147903004,0.3229665313|C,0,-0.5129203318,3.2751377583,2.78352
 72133|O,0,1.0508454888,-0.4766246509,0.0139971445|C,0,2.1194533494,1.5
 493279176,1.8319453778|H,0,0.5479554355,-0.6527317969,3.1134247253|H,0
 ,0.5651673675,0.8767667441,3.9972936031|H,0,-1.8027690578,1.014925499,
 3.8774050462|H,0,-1.8596784004,-0.5328435516,3.0262363111|H,0,-2.63476
 10831,1.6331240864,1.5863372257|H,0,-1.2651952647,3.6064617925,0.14733
 96547|H,0,0.4933809318,3.7215475483,0.3554608549|H,0,-0.1961436139,2.3
 713612272,-0.5554561271|H,0,-0.5636868937,2.8325226514,3.7874347474|H,
 0,-1.3988672216,3.921182571,2.6623057873|H,0,0.3733548837,3.9295982323
 ,2.7561289285|H,0,2.3899414645,2.1050068106,0.9203666732|H,0,2.3595038
 415,2.1780385328,2.7041984358|H,0,2.7614802836,0.6552563528,1.86364480
 31|H,0,-1.5320155467,0.5624037874,-0.4414585577|H,0,-1.66878093,-0.793
 143782,0.6884884145||Version=EM64W-G09RevC.01|State=1-A|HF=-465.941819
 5|RMSD=4.570e-009|Dipole=-0.6568861,0.6355562,0.6272086|Quadrupole=0.5
 435583,-0.3581324,-0.1854259,2.5087832,2.5683265,-2.9441943|PG=C01 [X(
 C10H16O1)]||@


 THE CAUTIOUS SELDOM ERR...CONFUCIUS                   
 Job cpu time:  0 days  0 hours 51 minutes 56.0 seconds.
 File lengths (MBytes):  RWF=    371 Int=      0 D2E=      0 Chk=     18 Scr=      1
 Normal termination of Gaussian 09 at Mon Jun 10 19:40:50 2013.
