 Entering Link 1 = C:\G03W\l1.exe PID=       988.
  
 Copyright (c) 1988,1990,1992,1993,1995,1998,2003,2004, Gaussian, Inc.
                  All Rights Reserved.
  
 This is the Gaussian(R) 03 program.  It is based on the
 the Gaussian(R) 98 system (copyright 1998, Gaussian, Inc.),
 the Gaussian(R) 94 system (copyright 1995, Gaussian, Inc.),
 the Gaussian 92(TM) system (copyright 1992, Gaussian, Inc.),
 the Gaussian 90(TM) system (copyright 1990, Gaussian, Inc.),
 the Gaussian 88(TM) system (copyright 1988, Gaussian, Inc.),
 the Gaussian 86(TM) system (copyright 1986, Carnegie Mellon
 University), and the Gaussian 82(TM) system (copyright 1983,
 Carnegie Mellon University). Gaussian is a federally registered
 trademark of Gaussian, Inc.
  
 This software contains proprietary and confidential information,
 including trade secrets, belonging to Gaussian, Inc.
  
 This software is provided under written license and may be
 used, copied, transmitted, or stored only in accord with that
 written license.
  
 The following legend is applicable only to US Government
 contracts under FAR:
  
                    RESTRICTED RIGHTS LEGEND
  
 Use, reproduction and disclosure by the US Government is
 subject to restrictions as set forth in subparagraphs (a)
 and (c) of the Commercial Computer Software - Restricted
 Rights clause in FAR 52.227-19.
  
 Gaussian, Inc.
 340 Quinnipiac St., Bldg. 40, Wallingford CT 06492
  
  
 ---------------------------------------------------------------
 Warning -- This program may not be used in any manner that
 competes with the business of Gaussian, Inc. or will provide
 assistance to any competitor of Gaussian, Inc.  The licensee
 of this program is prohibited from giving any competitor of
 Gaussian, Inc. access to this program.  By using this program,
 the user acknowledges that Gaussian, Inc. is engaged in the
 business of creating and licensing software in the field of
 computational chemistry and represents and warrants to the
 licensee that it is not a competitor of Gaussian, Inc. and that
 it will not use this program in any manner prohibited above.
 ---------------------------------------------------------------
  

 Cite this work as:
 Gaussian 03, Revision C.02,
 M. J. Frisch, G. W. Trucks, H. B. Schlegel, G. E. Scuseria, 
 M. A. Robb, J. R. Cheeseman, J. A. Montgomery, Jr., T. Vreven, 
 K. N. Kudin, J. C. Burant, J. M. Millam, S. S. Iyengar, J. Tomasi, 
 V. Barone, B. Mennucci, M. Cossi, G. Scalmani, N. Rega, 
 G. A. Petersson, H. Nakatsuji, M. Hada, M. Ehara, K. Toyota, 
 R. Fukuda, J. Hasegawa, M. Ishida, T. Nakajima, Y. Honda, O. Kitao, 
 H. Nakai, M. Klene, X. Li, J. E. Knox, H. P. Hratchian, J. B. Cross, 
 C. Adamo, J. Jaramillo, R. Gomperts, R. E. Stratmann, O. Yazyev, 
 A. J. Austin, R. Cammi, C. Pomelli, J. W. Ochterski, P. Y. Ayala, 
 K. Morokuma, G. A. Voth, P. Salvador, J. J. Dannenberg, 
 V. G. Zakrzewski, S. Dapprich, A. D. Daniels, M. C. Strain, 
 O. Farkas, D. K. Malick, A. D. Rabuck, K. Raghavachari, 
 J. B. Foresman, J. V. Ortiz, Q. Cui, A. G. Baboul, S. Clifford, 
 J. Cioslowski, B. B. Stefanov, G. Liu, A. Liashenko, P. Piskorz, 
 I. Komaromi, R. L. Martin, D. J. Fox, T. Keith, M. A. Al-Laham, 
 C. Y. Peng, A. Nanayakkara, M. Challacombe, P. M. W. Gill, 
 B. Johnson, W. Chen, M. W. Wong, C. Gonzalez, and J. A. Pople, 
 Gaussian, Inc., Wallingford CT, 2004.
 
 ******************************************
 Gaussian 03:  IA32W-G03RevC.02 12-Jun-2004
                15-Oct-2010 
 ******************************************
 %mem=1500MB
 %nprocshared=1
 Will use up to    1 processors via shared memory.
 Default route:  MaxDisk=2000MB
 ----------------------------------------------------------------------
 #p nmr=giao ub3lyp/epr-ii guess=mix scf=(tight,dsymm) integral=(grid=u
 ltrafine)
 ----------------------------------------------------------------------
 1/38=1/1;
 2/17=6,18=5,40=1/2;
 3/5=21,11=2,16=1,25=1,30=1,74=-5,75=5/1,2,8,3;
 4/7=2,9=2,13=1/1;
 5/5=2,17=200,32=2,38=5/2;
 8/6=1,10=90,11=11,27=262144000/1;
 10/13=100,45=16/2;
 6/7=2,8=2,9=2,10=2,28=1/1;
 99/9=1/99;
 Leave Link    1 at Fri Oct 15 20:19:01 2010, MaxMem=  196608000 cpu:       1.0
 (Enter C:\G03W\l101.exe)
 -----------------------
 Chrysene cation radical
 -----------------------
 Symbolic Z-matrix:
 Charge =  1 Multiplicity = 2
 C                    -0.66699   3.93978   0. 
 C                     0.51504   4.68037   0. 
 C                     1.7501    4.00602   0. 
 C                     1.80453   2.60332   0. 
 C                     0.62497   1.82725   0. 
 C                     0.62835   0.36343   0. 
 C                     1.8331   -0.37283   0. 
 C                     1.83639  -1.76586   0. 
 C                     0.62835  -2.51934   0. 
 C                     0.66699  -3.93978   0. 
 C                    -0.51504  -4.68037   0. 
 C                    -1.7501   -4.00602   0. 
 C                    -1.80453  -2.60332   0. 
 C                    -0.62497  -1.82725   0. 
 C                    -0.62835  -0.36343   0. 
 C                    -1.8331    0.37283   0. 
 C                    -1.83639   1.76586   0. 
 C                    -0.62835   2.51934   0. 
 H                    -1.63057   4.44129   0. 
 H                     0.48432   5.76491   0. 
 H                     2.67553   4.5735    0. 
 H                     2.78075   2.13296   0. 
 H                     2.78656   0.1401    0. 
 H                     2.78477  -2.29635   0. 
 H                     1.63057  -4.44129   0. 
 H                    -0.48432  -5.76491   0. 
 H                    -2.67553  -4.5735    0. 
 H                    -2.78075  -2.13296   0. 
 H                    -2.78656  -0.1401    0. 
 H                    -2.78477   2.29635   0. 
 
                    Isotopes and Nuclear Properties:

  Atom         1           2           3           4           5           6           7           8           9          10
 IAtWgt=          12          12          12          12          12          12          12          12          12          12
 AtmWgt=  12.0000000  12.0000000  12.0000000  12.0000000  12.0000000  12.0000000  12.0000000  12.0000000  12.0000000  12.0000000
 IAtSpn=           0           0           0           0           0           0           0           0           0           0
 AtZEff=   0.0000000   0.0000000   0.0000000   0.0000000   0.0000000   0.0000000   0.0000000   0.0000000   0.0000000   0.0000000
 AtQMom=   0.0000000   0.0000000   0.0000000   0.0000000   0.0000000   0.0000000   0.0000000   0.0000000   0.0000000   0.0000000
 AtGFac=   0.0000000   0.0000000   0.0000000   0.0000000   0.0000000   0.0000000   0.0000000   0.0000000   0.0000000   0.0000000

  Atom        11          12          13          14          15          16          17          18          19          20
 IAtWgt=          12          12          12          12          12          12          12          12           1           1
 AtmWgt=  12.0000000  12.0000000  12.0000000  12.0000000  12.0000000  12.0000000  12.0000000  12.0000000   1.0078250   1.0078250
 IAtSpn=           0           0           0           0           0           0           0           0           1           1
 AtZEff=   0.0000000   0.0000000   0.0000000   0.0000000   0.0000000   0.0000000   0.0000000   0.0000000   0.0000000   0.0000000
 AtQMom=   0.0000000   0.0000000   0.0000000   0.0000000   0.0000000   0.0000000   0.0000000   0.0000000   0.0000000   0.0000000
 AtGFac=   0.0000000   0.0000000   0.0000000   0.0000000   0.0000000   0.0000000   0.0000000   0.0000000   2.7928460   2.7928460

  Atom        21          22          23          24          25          26          27          28          29          30
 IAtWgt=           1           1           1           1           1           1           1           1           1           1
 AtmWgt=   1.0078250   1.0078250   1.0078250   1.0078250   1.0078250   1.0078250   1.0078250   1.0078250   1.0078250   1.0078250
 IAtSpn=           1           1           1           1           1           1           1           1           1           1
 AtZEff=   0.0000000   0.0000000   0.0000000   0.0000000   0.0000000   0.0000000   0.0000000   0.0000000   0.0000000   0.0000000
 AtQMom=   0.0000000   0.0000000   0.0000000   0.0000000   0.0000000   0.0000000   0.0000000   0.0000000   0.0000000   0.0000000
 AtGFac=   2.7928460   2.7928460   2.7928460   2.7928460   2.7928460   2.7928460   2.7928460   2.7928460   2.7928460   2.7928460
 Leave Link  101 at Fri Oct 15 20:19:01 2010, MaxMem=  196608000 cpu:       0.0
 (Enter C:\G03W\l202.exe)
                          Input orientation:                          
 ---------------------------------------------------------------------
 Center     Atomic     Atomic              Coordinates (Angstroms)
 Number     Number      Type              X           Y           Z
 ---------------------------------------------------------------------
    1          6             0       -0.666986    3.939778    0.000000
    2          6             0        0.515037    4.680370    0.000000
    3          6             0        1.750100    4.006021    0.000000
    4          6             0        1.804534    2.603324    0.000000
    5          6             0        0.624965    1.827252    0.000000
    6          6             0        0.628346    0.363430    0.000000
    7          6             0        1.833097   -0.372833    0.000000
    8          6             0        1.836391   -1.765856    0.000000
    9          6             0        0.628346   -2.519335    0.000000
   10          6             0        0.666986   -3.939778    0.000000
   11          6             0       -0.515037   -4.680370    0.000000
   12          6             0       -1.750100   -4.006021    0.000000
   13          6             0       -1.804534   -2.603324    0.000000
   14          6             0       -0.624965   -1.827252    0.000000
   15          6             0       -0.628346   -0.363430    0.000000
   16          6             0       -1.833097    0.372833    0.000000
   17          6             0       -1.836391    1.765856    0.000000
   18          6             0       -0.628346    2.519335    0.000000
   19          1             0       -1.630574    4.441286    0.000000
   20          1             0        0.484321    5.764905    0.000000
   21          1             0        2.675528    4.573505    0.000000
   22          1             0        2.780751    2.132961    0.000000
   23          1             0        2.786560    0.140101    0.000000
   24          1             0        2.784769   -2.296351    0.000000
   25          1             0        1.630574   -4.441286    0.000000
   26          1             0       -0.484321   -5.764905    0.000000
   27          1             0       -2.675528   -4.573505    0.000000
   28          1             0       -2.780751   -2.132961    0.000000
   29          1             0       -2.786560   -0.140101    0.000000
   30          1             0       -2.784769    2.296351    0.000000
 ---------------------------------------------------------------------
                    Distance matrix (angstroms):
                    1          2          3          4          5
     1  C    0.000000
     2  C    1.394867   0.000000
     3  C    2.417994   1.407170   0.000000
     4  C    2.809719   2.444775   1.403753   0.000000
     5  C    2.476268   2.855235   2.452134   1.411974   0.000000
     6  C    3.803702   4.318427   3.811404   2.529930   1.463826
     7  C    4.984880   5.222274   4.379640   2.976294   2.509972
     8  C    6.230663   6.580259   5.772522   4.369296   3.791830
     9  C    6.587718   7.200597   6.621073   5.255954   4.346588
    10  C    7.991676   8.621487   8.019280   6.641250   5.767183
    11  C    8.621487   9.417245   8.976872   7.644122   6.606720
    12  C    8.019280   8.976872   8.743238   7.504590   6.298254
    13  C    6.641250   7.644122   7.504590   6.335184   5.052966
    14  C    5.767183   6.606720   6.298254   5.052966   3.862347
    15  C    4.303381   5.171774   4.974847   3.836735   2.523861
    16  C    3.752721   4.905977   5.102877   4.267019   2.856117
    17  C    2.468490   3.744810   4.228624   3.735999   2.462122
    18  C    1.420968   2.444872   2.804860   2.434329   1.431701
    19  H    1.086284   2.158890   3.408579   3.895904   3.452627
    20  H    2.157915   1.084970   2.166995   3.426158   3.940164
    21  H    3.402060   2.163132   1.085567   2.154122   3.427348
    22  H    3.892490   3.409216   2.137895   1.083624   2.177354
    23  H    5.134640   5.076796   4.002448   2.651762   2.742074
    24  H    7.127687   7.336642   6.386739   4.996767   4.654982
    25  H    8.690283   9.189615   8.448153   7.046758   6.348686
    26  H    9.706402  10.492973  10.023155   8.675605   7.672768
    27  H    8.747013   9.788458   9.653727   8.460368   7.201593
    28  H    6.430098   7.568599   7.629922   6.592210   5.223235
    29  H    4.597609   5.842729   6.145861   5.348320   3.938144
    30  H    2.680645   4.070905   4.846443   4.599558   3.441851
                    6          7          8          9         10
     6  C    0.000000
     7  C    1.411916   0.000000
     8  C    2.448108   1.393027   0.000000
     9  C    2.882765   2.461482   1.423764   0.000000
    10  C    4.303381   3.752721   2.468490   1.420968   0.000000
    11  C    5.171774   4.905977   3.744810   2.444872   1.394867
    12  C    4.974847   5.102877   4.228624   2.804860   2.417994
    13  C    3.836735   4.267019   3.735999   2.434329   2.809719
    14  C    2.523861   2.856117   2.462122   1.431701   2.476268
    15  C    1.451758   2.461461   2.835794   2.495436   3.803702
    16  C    2.461461   3.741256   4.247250   3.797807   4.984880
    17  C    2.835794   4.247250   5.095323   4.943459   6.230663
    18  C    2.495436   3.797807   4.943459   5.193021   6.587718
    19  H    4.661720   5.930663   7.109744   7.317989   8.690283
    20  H    5.403395   6.284188   7.651173   8.285492   9.706402
    21  H    4.681419   5.017564   6.394658   7.382366   8.747013
    22  H    2.786411   2.679002   4.011557   5.126081   6.430098
    23  H    2.169738   1.082679   2.129670   3.424980   4.597609
    24  H    3.424120   2.146066   1.086667   2.167921   2.680645
    25  H    4.908132   4.073491   2.683335   2.167569   1.086284
    26  H    6.228525   5.868975   4.623645   3.430999   2.157915
    27  H    5.940447   6.162252   5.314161   3.890398   3.402060
    28  H    4.225389   4.938182   4.631713   3.430922   3.892490
    29  H    3.451829   4.625516   4.900485   4.162011   5.134640
    30  H    3.922440   5.333782   6.152775   5.902558   7.127687
                   11         12         13         14         15
    11  C    0.000000
    12  C    1.407170   0.000000
    13  C    2.444775   1.403753   0.000000
    14  C    2.855235   2.452134   1.411974   0.000000
    15  C    4.318427   3.811404   2.529930   1.463826   0.000000
    16  C    5.222274   4.379640   2.976294   2.509972   1.411916
    17  C    6.580259   5.772522   4.369296   3.791830   2.448108
    18  C    7.200597   6.621073   5.255954   4.346588   2.882765
    19  H    9.189615   8.448153   7.046758   6.348686   4.908132
    20  H   10.492973  10.023155   8.675605   7.672768   6.228525
    21  H    9.788458   9.653727   8.460368   7.201593   5.940447
    22  H    7.568599   7.629922   6.592210   5.223235   4.225389
    23  H    5.842729   6.145861   5.348320   3.938144   3.451829
    24  H    4.070905   4.846443   4.599558   3.441851   3.922440
    25  H    2.158890   3.408579   3.895904   3.452627   4.661720
    26  H    1.084970   2.166995   3.426158   3.940164   5.403395
    27  H    2.163132   1.085567   2.154122   3.427348   4.681419
    28  H    3.409216   2.137895   1.083624   2.177354   2.786411
    29  H    5.076796   4.002448   2.651762   2.742074   2.169738
    30  H    7.336642   6.386739   4.996767   4.654982   3.424120
                   16         17         18         19         20
    16  C    0.000000
    17  C    1.393027   0.000000
    18  C    2.461482   1.423764   0.000000
    19  H    4.073491   2.683335   2.167569   0.000000
    20  H    5.868975   4.623645   3.430999   2.494945   0.000000
    21  H    6.162252   5.314161   3.890398   4.308131   2.494158
    22  H    4.938182   4.631713   3.430922   4.978770   4.297046
    23  H    4.625516   4.900485   4.162011   6.165328   6.077724
    24  H    5.333782   6.152775   5.902558   8.055495   8.383073
    25  H    5.930663   7.109744   7.317989   9.462303  10.270357
    26  H    6.284188   7.651173   8.285492  10.270357  11.570427
    27  H    5.017564   6.394658   7.382366   9.075152  10.810521
    28  H    2.679002   4.011557   5.126081   6.674101   8.546168
    29  H    1.082679   2.129670   3.424980   4.724977   6.750389
    30  H    2.146066   1.086667   2.167921   2.435757   4.766321
                   21         22         23         24         25
    21  H    0.000000
    22  H    2.442811   0.000000
    23  H    4.434794   1.992868   0.000000
    24  H    6.870724   4.429314   2.436453   0.000000
    25  H    9.075152   6.674101   4.724977   2.435757   0.000000
    26  H   10.810521   8.546168   6.750389   4.766321   2.494945
    27  H   10.597245   8.645673   7.214741   5.916103   4.308131
    28  H    8.645673   7.009165   6.013465   5.567918   4.978770
    29  H    7.214741   6.013465   5.580159   5.974037   6.165328
    30  H    5.916103   5.567918   5.974037   7.218910   8.055495
                   26         27         28         29         30
    26  H    0.000000
    27  H    2.494158   0.000000
    28  H    4.297046   2.442811   0.000000
    29  H    6.077724   4.434794   1.992868   0.000000
    30  H    8.383073   6.870724   4.429314   2.436453   0.000000
 Stoichiometry    C18H12(1+,2)
 Framework group  C2H[SGH(C18H12)]
 Deg. of freedom    29
 Full point group                 C2H     NOp   4
 Largest Abelian subgroup         C2H     NOp   4
 Largest concise Abelian subgroup C2      NOp   2
                         Standard orientation:                         
 ---------------------------------------------------------------------
 Center     Atomic     Atomic              Coordinates (Angstroms)
 Number     Number      Type              X           Y           Z
 ---------------------------------------------------------------------
    1          6             0       -0.666986    3.939778    0.000000
    2          6             0        0.515037    4.680370    0.000000
    3          6             0        1.750100    4.006021    0.000000
    4          6             0        1.804534    2.603324    0.000000
    5          6             0        0.624965    1.827252    0.000000
    6          6             0        0.628346    0.363430    0.000000
    7          6             0        1.833097   -0.372833    0.000000
    8          6             0        1.836391   -1.765856    0.000000
    9          6             0        0.628346   -2.519335    0.000000
   10          6             0        0.666986   -3.939778    0.000000
   11          6             0       -0.515037   -4.680370    0.000000
   12          6             0       -1.750100   -4.006021    0.000000
   13          6             0       -1.804534   -2.603324    0.000000
   14          6             0       -0.624965   -1.827252    0.000000
   15          6             0       -0.628346   -0.363430    0.000000
   16          6             0       -1.833097    0.372833    0.000000
   17          6             0       -1.836391    1.765856    0.000000
   18          6             0       -0.628346    2.519335    0.000000
   19          1             0       -1.630574    4.441286    0.000000
   20          1             0        0.484321    5.764905    0.000000
   21          1             0        2.675528    4.573505    0.000000
   22          1             0        2.780751    2.132961    0.000000
   23          1             0        2.786560    0.140101    0.000000
   24          1             0        2.784769   -2.296351    0.000000
   25          1             0        1.630574   -4.441286    0.000000
   26          1             0       -0.484321   -5.764905    0.000000
   27          1             0       -2.675528   -4.573505    0.000000
   28          1             0       -2.780751   -2.132961    0.000000
   29          1             0       -2.786560   -0.140101    0.000000
   30          1             0       -2.784769    2.296351    0.000000
 ---------------------------------------------------------------------
 Rotational constants (GHZ):      1.2584228      0.2588007      0.2146557
 Leave Link  202 at Fri Oct 15 20:19:02 2010, MaxMem=  196608000 cpu:       1.0
 (Enter C:\G03W\l301.exe)
 Standard basis: EPR-II (5D, 7F)
 There are   153 symmetry adapted basis functions of AG  symmetry.
 There are    42 symmetry adapted basis functions of BG  symmetry.
 There are    42 symmetry adapted basis functions of AU  symmetry.
 There are   153 symmetry adapted basis functions of BU  symmetry.
 Integral buffers will be    262144 words long.
 Raffenetti 2 integral format.
 Two-electron integral symmetry is turned on.
   390 basis functions,   666 primitive gaussians,   408 cartesian basis functions
    60 alpha electrons       59 beta electrons
       nuclear repulsion energy      1130.6984563201 Hartrees.
 IExCor= 402 DFT=T Ex=B+HF Corr=LYP ExCW=0 ScaHFX=  0.200000
 ScaDFX=  0.800000  0.720000  1.000000  0.810000
 IRadAn=      5 IRanWt=     -1 IRanGd=            0 ICorTp=0
 NAtoms=   30 NActive=   30 NUniq=   15 SFac= 5.66D+00 NAtFMM=   60 Big=F
 Leave Link  301 at Fri Oct 15 20:19:02 2010, MaxMem=  196608000 cpu:       0.0
 (Enter C:\G03W\l302.exe)
 NPDir=0 NMtPBC=     1 NCelOv=     1 NCel=       1 NClECP=     1 NCelD=      1
         NCelK=      1 NCelE2=     1 NClLst=     1 CellRange=     0.0.
 One-electron integrals computed using PRISM.
 One-electron integral symmetry used in STVInt
 NBasis=   390 RedAO= T  NBF=   153    42    42   153
 NBsUse=   390 1.00D-06 NBFU=   153    42    42   153
 Precomputing XC quadrature grid using
 IXCGrd= 2 IRadAn=           5 IRanWt=          -1 IRanGd=           0.
 NRdTot=    2552 NPtTot=      688584 NUsed=      700129 NTot=      700145
 NSgBfM=   382   382   382   382.
 Leave Link  302 at Fri Oct 15 20:19:06 2010, MaxMem=  196608000 cpu:       3.0
 (Enter C:\G03W\l308.exe)
 Leave Link  308 at Fri Oct 15 20:19:07 2010, MaxMem=  196608000 cpu:       0.0
 (Enter C:\G03W\l303.exe)
 DipDrv:  MaxL=1.
 Leave Link  303 at Fri Oct 15 20:19:07 2010, MaxMem=  196608000 cpu:       0.0
 (Enter C:\G03W\l401.exe)
 SCF N**3 symmetry information disabled.
 Harris functional with IExCor=  402 diagonalized for initial guess.
 ExpMin= 4.79D-02 ExpMax= 4.23D+03 ExpMxC= 6.35D+02 IAcc=3 IRadAn=         5 AccDes= 0.00D+00
 HarFok:  IExCor= 402 AccDes= 0.00D+00 IRadAn=         5 IDoV=1
 ScaDFX=  1.000000  1.000000  1.000000  1.000000
 Harris En= -693.126364130200    
 Initial guess orbital symmetries:
 Alpha Orbitals:
       Occupied  (BU) (AG) (BU) (AG) (BU) (AG) (BU) (AG) (BU) (AG)
                 (AG) (BU) (AG) (BU) (AG) (BU) (AG) (BU) (AG) (BU)
                 (AG) (BU) (AG) (BU) (BU) (AG) (AG) (BU) (BU) (AG)
                 (BU) (AG) (AG) (BU) (AG) (BU) (AG) (BU) (AG) (BU)
                 (AG) (BU) (AG) (BU) (AG) (BU) (AU) (AG) (BU) (BG)
                 (BU) (AG) (AG) (AU) (BG) (AU) (BG) (BG) (AU) (?A)
       Virtual   (?A) (BG) (AU) (AU) (BG) (AU) (BG) (AG) (BU) (BU)
                 (AU) (AG) (AG) (AG) (BU) (BU) (AG) (BU) (AG) (BG)
                 (BU) (BU) (BU) (AG) (AG) (BU) (BU) (AG) (BU) (AG)
                 (AG) (BU) (BU) (AG) (AG) (BU) (BU) (AG) (AG) (BU)
                 (AG) (AU) (BU) (AG) (BU) (BG) (AG) (BU) (AG) (BG)
                 (AU) (BU) (BU) (AU) (AG) (BU) (AG) (AG) (BG) (BG)
                 (BU) (AU) (AG) (BU) (AU) (AU) (BG) (AG) (BU) (BU)
                 (AG) (AG) (BU) (BG) (BU) (AG) (AG) (BU) (BU) (BG)
                 (AG) (AU) (BU) (AG) (BU) (AU) (AG) (BU) (AG) (BG)
                 (BU) (BU) (AG) (AU) (BU) (AG) (BU) (AG) (AG) (BU)
                 (AG) (BG) (AG) (AG) (BU) (BU) (AG) (BU) (BG) (AU)
                 (AG) (BU) (AG) (BU) (BU) (AU) (AG) (BG) (BU) (AG)
                 (AG) (BU) (AU) (BG) (AG) (AU) (BU) (BU) (AG) (BG)
                 (AG) (BG) (AU) (BU) (AU) (BU) (AG) (BG) (AG) (BU)
                 (BG) (AG) (AU) (BU) (AU) (BU) (AG) (AG) (BU) (AG)
                 (BU) (AG) (AG) (BU) (AG) (BU) (BG) (AU) (AG) (AG)
                 (BU) (BG) (BU) (AG) (AU) (BU) (BU) (BU) (BG) (AG)
                 (BG) (AU) (AG) (AU) (BU) (BU) (AG) (AG) (BG) (BU)
                 (AG) (BU) (AG) (BU) (AG) (BU) (BG) (BU) (AG) (AG)
                 (BU) (BG) (AU) (AU) (AG) (BU) (BG) (AU) (BU) (BG)
                 (AG) (BU) (AG) (AU) (AG) (BU) (AG) (AU) (BU) (BG)
                 (AU) (AG) (BU) (BG) (AG) (AU) (BU) (BG) (AG) (BG)
                 (BU) (AU) (AU) (AG) (BU) (AG) (BU) (BG) (BU) (AG)
                 (AU) (BG) (AG) (BU) (BU) (AG) (AU) (AG) (BU) (BG)
                 (BU) (BG) (AU) (AG) (AG) (BU) (AG) (BU) (BU) (AG)
                 (BU) (AG) (BU) (AG) (BU) (AG) (BU) (AG) (AG) (BU)
                 (BU) (AG) (BU) (AG) (BU) (AG) (AG) (BU) (BU) (AG)
                 (AG) (BU) (AG) (AG) (BU) (BU) (AG) (BU) (AG) (BU)
                 (AG) (BU) (AG) (BU) (AG) (BU) (BU) (AG) (AG) (BU)
                 (AG) (BU) (AG) (BU) (BU) (AG) (AG) (BU) (AG) (BU)
                 (AG) (BU) (AG) (BU) (AG) (BU) (AG) (BU) (AG) (BU)
                 (AG) (BU) (BU) (AG) (AG) (BU) (AG) (BU) (AG) (BU)
                 (BU) (AG) (AG) (BU) (BU) (AG) (AG) (BU) (AG) (BU)
 Beta  Orbitals:
       Occupied  (BU) (AG) (BU) (AG) (BU) (AG) (BU) (AG) (BU) (AG)
                 (AG) (BU) (AG) (BU) (AG) (BU) (AG) (BU) (AG) (BU)
                 (AG) (BU) (AG) (BU) (BU) (AG) (AG) (BU) (BU) (AG)
                 (BU) (AG) (AG) (BU) (AG) (BU) (AG) (BU) (AG) (BU)
                 (AG) (BU) (AG) (BU) (AG) (BU) (AU) (AG) (BU) (BG)
                 (BU) (AG) (AG) (AU) (BG) (AU) (BG) (BG) (AU)
       Virtual   (AU) (BG) (BG) (AU) (AU) (BG) (AU) (BG) (AG) (BU)
                 (BU) (AU) (AG) (AG) (AG) (BU) (BU) (AG) (BU) (AG)
                 (BG) (BU) (BU) (BU) (AG) (AG) (BU) (BU) (AG) (BU)
                 (AG) (AG) (BU) (BU) (AG) (AG) (BU) (BU) (AG) (AG)
                 (BU) (AG) (AU) (BU) (AG) (BU) (BG) (AG) (BU) (AG)
                 (BG) (AU) (BU) (BU) (AU) (AG) (BU) (AG) (AG) (BG)
                 (BG) (BU) (AU) (AG) (BU) (AU) (AU) (BG) (AG) (BU)
                 (BU) (AG) (AG) (BU) (BG) (BU) (AG) (AG) (BU) (BU)
                 (BG) (AG) (AU) (BU) (AG) (BU) (AU) (AG) (BU) (AG)
                 (BG) (BU) (BU) (AG) (AU) (BU) (AG) (BU) (AG) (AG)
                 (BU) (AG) (BG) (AG) (AG) (BU) (BU) (AG) (BU) (BG)
                 (AU) (AG) (BU) (AG) (BU) (BU) (AU) (AG) (BG) (BU)
                 (AG) (AG) (BU) (AU) (BG) (AG) (AU) (BU) (BU) (AG)
                 (BG) (AG) (BG) (AU) (BU) (AU) (BU) (AG) (BG) (AG)
                 (BU) (BG) (AG) (AU) (BU) (AU) (BU) (AG) (AG) (BU)
                 (AG) (BU) (AG) (AG) (BU) (AG) (BU) (BG) (AU) (AG)
                 (AG) (BU) (BG) (BU) (AG) (AU) (BU) (BU) (BU) (BG)
                 (AG) (BG) (AU) (AG) (AU) (BU) (BU) (AG) (AG) (BG)
                 (BU) (AG) (BU) (AG) (BU) (AG) (BU) (BG) (BU) (AG)
                 (AG) (BU) (BG) (AU) (AU) (AG) (BU) (BG) (AU) (BU)
                 (BG) (AG) (BU) (AG) (AU) (AG) (BU) (AG) (AU) (BU)
                 (BG) (AU) (AG) (BU) (BG) (AG) (AU) (BU) (BG) (AG)
                 (BG) (BU) (AU) (AU) (AG) (BU) (AG) (BU) (BG) (BU)
                 (AG) (AU) (BG) (AG) (BU) (BU) (AG) (AU) (AG) (BU)
                 (BG) (BU) (BG) (AU) (AG) (AG) (BU) (AG) (BU) (BU)
                 (AG) (BU) (AG) (BU) (AG) (BU) (AG) (BU) (AG) (AG)
                 (BU) (BU) (AG) (BU) (AG) (BU) (AG) (AG) (BU) (BU)
                 (AG) (AG) (BU) (AG) (AG) (BU) (BU) (AG) (BU) (AG)
                 (BU) (AG) (BU) (AG) (BU) (AG) (BU) (BU) (AG) (AG)
                 (BU) (AG) (BU) (AG) (BU) (BU) (AG) (AG) (BU) (AG)
                 (BU) (AG) (BU) (AG) (BU) (AG) (BU) (AG) (BU) (AG)
                 (BU) (AG) (BU) (BU) (AG) (AG) (BU) (AG) (BU) (AG)
                 (BU) (BU) (AG) (AG) (BU) (BU) (AG) (AG) (BU) (AG)
                 (BU)
 <S**2> of initial guess= 1.0000
 Leave Link  401 at Fri Oct 15 20:19:20 2010, MaxMem=  196608000 cpu:      12.0
 (Enter C:\G03W\l502.exe)
 UHF open shell SCF:
 Requested convergence on RMS density matrix=1.00D-08 within 128 cycles.
 Requested convergence on MAX density matrix=1.00D-06.
 Requested convergence on             energy=1.00D-06.
 No special actions if energy rises.
 Using DIIS extrapolation, IDIIS=  1040.
 Integral symmetry usage will be decided dynamically.
       700128 words used for storage of precomputed grid.
 IEnd=   1263280 IEndB=   1263280 NGot= 196608000 MDV= 195528233
 LenX= 195528233
 Fock matrices will be formed incrementally for  20 cycles.

 Cycle   1  Pass 1  IDiag  1:
 Petite list used in FoFDir.
 MinBra= 0 MaxBra= 2 Meth= 1.
 IRaf=       0 NMat=   1 IRICut=       1 DoRegI=T DoRafI=F ISym2E= 1 JSym2E=1.
 E= -692.610803047504    
 DIIS: error= 3.19D-02 at cycle   1 NSaved=   1.
 NSaved= 1 IEnMin= 1 EnMin= -692.610803047504     IErMin= 1 ErrMin= 3.19D-02
 ErrMax= 3.19D-02 EMaxC= 1.00D-01 BMatC= 9.94D-01 BMatP= 9.94D-01
 IDIUse=3 WtCom= 6.81D-01 WtEn= 3.19D-01
 Coeff-Com:  0.100D+01
 Coeff-En:   0.100D+01
 Coeff:      0.100D+01
 Gap=     0.000 Goal=   None    Shift=    0.000
 Gap=     0.024 Goal=   None    Shift=    0.000
 GapD=    0.000 DampG=0.250 DampE=0.500 DampFc=0.2500 IDamp=-1.
 Damping current iteration by 2.50D-01
 RMSDP=6.54D-03 MaxDP=2.01D-01              OVMax= 6.82D-01

 Cycle   2  Pass 1  IDiag  1:
 RMSU=  1.23D-03    CP:  9.38D-01
 E= -692.733505914850     Delta-E=       -0.122702867347 Rises=F Damp=T
 DIIS: error= 1.90D-02 at cycle   2 NSaved=   2.
 NSaved= 2 IEnMin= 2 EnMin= -692.733505914850     IErMin= 2 ErrMin= 1.90D-02
 ErrMax= 1.90D-02 EMaxC= 1.00D-01 BMatC= 3.15D-01 BMatP= 9.94D-01
 IDIUse=3 WtCom= 8.10D-01 WtEn= 1.90D-01
 Coeff-Com: -0.106D+01 0.206D+01
 Coeff-En:   0.000D+00 0.100D+01
 Coeff:     -0.862D+00 0.186D+01
 Gap=     0.133 Goal=   None    Shift=    0.000
 Gap=     0.052 Goal=   None    Shift=    0.000
 RMSDP=4.26D-03 MaxDP=1.59D-01 DE=-1.23D-01 OVMax= 2.12D-01

 Cycle   3  Pass 1  IDiag  1:
 RMSU=  2.00D-03    CP:  7.56D-01  2.62D+00
 E= -692.972849670098     Delta-E=       -0.239343755248 Rises=F Damp=F
 DIIS: error= 9.97D-03 at cycle   3 NSaved=   3.
 NSaved= 3 IEnMin= 3 EnMin= -692.972849670098     IErMin= 3 ErrMin= 9.97D-03
 ErrMax= 9.97D-03 EMaxC= 1.00D-01 BMatC= 6.26D-02 BMatP= 3.15D-01
 IDIUse=3 WtCom= 9.00D-01 WtEn= 9.97D-02
 Coeff-Com: -0.532D+00 0.102D+01 0.516D+00
 Coeff-En:   0.000D+00 0.000D+00 0.100D+01
 Coeff:     -0.479D+00 0.914D+00 0.564D+00
 Gap=     0.138 Goal=   None    Shift=    0.000
 Gap=     0.048 Goal=   None    Shift=    0.000
 RMSDP=7.77D-04 MaxDP=3.27D-02 DE=-2.39D-01 OVMax= 1.34D-01

 Cycle   4  Pass 1  IDiag  1:
 RMSU=  7.07D-04    CP:  7.68D-01  2.57D+00  8.78D-01
 E= -692.983083948391     Delta-E=       -0.010234278293 Rises=F Damp=F
 DIIS: error= 8.34D-03 at cycle   4 NSaved=   4.
 NSaved= 4 IEnMin= 4 EnMin= -692.983083948391     IErMin= 4 ErrMin= 8.34D-03
 ErrMax= 8.34D-03 EMaxC= 1.00D-01 BMatC= 3.27D-02 BMatP= 6.26D-02
 IDIUse=3 WtCom= 9.17D-01 WtEn= 8.34D-02
 Coeff-Com: -0.846D-01 0.169D+00 0.408D+00 0.508D+00
 Coeff-En:   0.000D+00 0.000D+00 0.369D+00 0.631D+00
 Coeff:     -0.776D-01 0.155D+00 0.404D+00 0.518D+00
 Gap=     0.141 Goal=   None    Shift=    0.000
 Gap=     0.054 Goal=   None    Shift=    0.000
 RMSDP=3.86D-04 MaxDP=2.05D-02 DE=-1.02D-02 OVMax= 7.06D-02

 Cycle   5  Pass 1  IDiag  1:
 RMSU=  2.46D-04    CP:  7.70D-01  2.53D+00  9.09D-01  5.98D-01
 E= -692.994594823337     Delta-E=       -0.011510874946 Rises=F Damp=F
 DIIS: error= 1.69D-03 at cycle   5 NSaved=   5.
 NSaved= 5 IEnMin= 5 EnMin= -692.994594823337     IErMin= 5 ErrMin= 1.69D-03
 ErrMax= 1.69D-03 EMaxC= 1.00D-01 BMatC= 9.82D-04 BMatP= 3.27D-02
 IDIUse=3 WtCom= 9.83D-01 WtEn= 1.69D-02
 Coeff-Com: -0.763D-02 0.160D-01 0.122D+00 0.223D+00 0.646D+00
 Coeff-En:   0.000D+00 0.000D+00 0.000D+00 0.000D+00 0.100D+01
 Coeff:     -0.750D-02 0.158D-01 0.120D+00 0.219D+00 0.652D+00
 Gap=     0.143 Goal=   None    Shift=    0.000
 Gap=     0.058 Goal=   None    Shift=    0.000
 RMSDP=1.13D-04 MaxDP=5.45D-03 DE=-1.15D-02 OVMax= 4.93D-02

 Cycle   6  Pass 1  IDiag  1:
 RMSU=  8.29D-05    CP:  7.68D-01  2.54D+00  9.22D-01  6.65D-01  1.19D+00
 E= -692.995356002572     Delta-E=       -0.000761179235 Rises=F Damp=F
 DIIS: error= 1.42D-03 at cycle   6 NSaved=   6.
 NSaved= 6 IEnMin= 6 EnMin= -692.995356002572     IErMin= 6 ErrMin= 1.42D-03
 ErrMax= 1.42D-03 EMaxC= 1.00D-01 BMatC= 2.85D-04 BMatP= 9.82D-04
 IDIUse=3 WtCom= 9.86D-01 WtEn= 1.42D-02
 Coeff-Com:  0.112D-01-0.204D-01 0.514D-03 0.423D-01 0.320D+00 0.646D+00
 Coeff-En:   0.000D+00 0.000D+00 0.000D+00 0.000D+00 0.000D+00 0.100D+01
 Coeff:      0.110D-01-0.201D-01 0.507D-03 0.417D-01 0.316D+00 0.651D+00
 Gap=     0.143 Goal=   None    Shift=    0.000
 Gap=     0.059 Goal=   None    Shift=    0.000
 RMSDP=8.83D-05 MaxDP=6.59D-03 DE=-7.61D-04 OVMax= 4.53D-02

 Cycle   7  Pass 1  IDiag  1:
 RMSU=  4.67D-05    CP:  7.68D-01  2.54D+00  9.23D-01  6.97D-01  1.46D+00
                    CP:  1.33D+00
 E= -692.995781097952     Delta-E=       -0.000425095380 Rises=F Damp=F
 DIIS: error= 9.19D-04 at cycle   7 NSaved=   7.
 NSaved= 7 IEnMin= 7 EnMin= -692.995781097952     IErMin= 7 ErrMin= 9.19D-04
 ErrMax= 9.19D-04 EMaxC= 1.00D-01 BMatC= 1.46D-04 BMatP= 2.85D-04
 IDIUse=3 WtCom= 9.91D-01 WtEn= 9.19D-03
 Coeff-Com:  0.125D-02 0.775D-04-0.431D-01-0.894D-01-0.389D+00 0.291D+00
 Coeff-Com:  0.123D+01
 Coeff-En:   0.000D+00 0.000D+00 0.000D+00 0.000D+00 0.000D+00 0.000D+00
 Coeff-En:   0.100D+01
 Coeff:      0.123D-02 0.768D-04-0.427D-01-0.886D-01-0.386D+00 0.288D+00
 Coeff:      0.123D+01
 Gap=     0.144 Goal=   None    Shift=    0.000
 Gap=     0.062 Goal=   None    Shift=    0.000
 RMSDP=1.30D-04 MaxDP=8.06D-03 DE=-4.25D-04 OVMax= 6.69D-02

 Cycle   8  Pass 1  IDiag  1:
 RMSU=  3.30D-05    CP:  7.67D-01  2.54D+00  9.30D-01  7.33D-01  1.81D+00
                    CP:  2.28D+00  1.70D+00
 E= -692.996188917025     Delta-E=       -0.000407819073 Rises=F Damp=F
 DIIS: error= 4.03D-04 at cycle   8 NSaved=   8.
 NSaved= 8 IEnMin= 8 EnMin= -692.996188917025     IErMin= 8 ErrMin= 4.03D-04
 ErrMax= 4.03D-04 EMaxC= 1.00D-01 BMatC= 4.28D-05 BMatP= 1.46D-04
 IDIUse=3 WtCom= 9.96D-01 WtEn= 4.03D-03
 Coeff-Com: -0.316D-02 0.767D-02-0.826D-02-0.382D-01-0.266D+00 0.314D-01
 Coeff-Com:  0.472D+00 0.804D+00
 Coeff-En:   0.000D+00 0.000D+00 0.000D+00 0.000D+00 0.000D+00 0.000D+00
 Coeff-En:   0.000D+00 0.100D+01
 Coeff:     -0.315D-02 0.764D-02-0.823D-02-0.380D-01-0.265D+00 0.312D-01
 Coeff:      0.470D+00 0.805D+00
 Gap=     0.144 Goal=   None    Shift=    0.000
 Gap=     0.062 Goal=   None    Shift=    0.000
 RMSDP=5.06D-05 MaxDP=3.97D-03 DE=-4.08D-04 OVMax= 2.56D-02

 Cycle   9  Pass 1  IDiag  1:
 RMSU=  1.50D-05    CP:  7.67D-01  2.54D+00  9.32D-01  7.43D-01  1.94D+00
                    CP:  2.63D+00  2.12D+00  1.32D+00
 E= -692.996266233103     Delta-E=       -0.000077316078 Rises=F Damp=F
 DIIS: error= 1.90D-04 at cycle   9 NSaved=   9.
 NSaved= 9 IEnMin= 9 EnMin= -692.996266233103     IErMin= 9 ErrMin= 1.90D-04
 ErrMax= 1.90D-04 EMaxC= 1.00D-01 BMatC= 1.81D-05 BMatP= 4.28D-05
 IDIUse=3 WtCom= 9.98D-01 WtEn= 1.90D-03
 Coeff-Com: -0.148D-02 0.273D-02 0.211D-01 0.305D-01 0.641D-01-0.469D-01
 Coeff-Com: -0.449D+00 0.397D+00 0.982D+00
 Coeff-En:   0.000D+00 0.000D+00 0.000D+00 0.000D+00 0.000D+00 0.000D+00
 Coeff-En:   0.000D+00 0.000D+00 0.100D+01
 Coeff:     -0.148D-02 0.272D-02 0.211D-01 0.304D-01 0.640D-01-0.468D-01
 Coeff:     -0.448D+00 0.396D+00 0.982D+00
 Gap=     0.144 Goal=   None    Shift=    0.000
 Gap=     0.062 Goal=   None    Shift=    0.000
 RMSDP=3.40D-05 MaxDP=2.31D-03 DE=-7.73D-05 OVMax= 1.61D-02

 Cycle  10  Pass 1  IDiag  1:
 RMSU=  9.84D-06    CP:  7.67D-01  2.54D+00  9.34D-01  7.47D-01  2.01D+00
                    CP:  2.87D+00  2.35D+00  1.74D+00  1.29D+00
 E= -692.996296277192     Delta-E=       -0.000030044089 Rises=F Damp=F
 DIIS: error= 8.71D-05 at cycle  10 NSaved=  10.
 NSaved=10 IEnMin=10 EnMin= -692.996296277192     IErMin=10 ErrMin= 8.71D-05
 ErrMax= 8.71D-05 EMaxC= 1.00D-01 BMatC= 3.63D-06 BMatP= 1.81D-05
 IDIUse=1 WtCom= 1.00D+00 WtEn= 0.00D+00
 Coeff-Com:  0.228D-03-0.607D-03 0.914D-02 0.177D-01 0.626D-01-0.921D-02
 Coeff-Com: -0.254D+00 0.278D-01 0.353D+00 0.793D+00
 Coeff:      0.228D-03-0.607D-03 0.914D-02 0.177D-01 0.626D-01-0.921D-02
 Coeff:     -0.254D+00 0.278D-01 0.353D+00 0.793D+00
 Gap=     0.144 Goal=   None    Shift=    0.000
 Gap=     0.062 Goal=   None    Shift=    0.000
 RMSDP=1.21D-05 MaxDP=9.51D-04 DE=-3.00D-05 OVMax= 5.21D-03

 Cycle  11  Pass 1  IDiag  1:
 RMSU=  5.72D-06    CP:  7.67D-01  2.54D+00  9.34D-01  7.50D-01  2.03D+00
                    CP:  2.94D+00  2.43D+00  1.87D+00  1.50D+00  1.19D+00
 E= -692.996301415872     Delta-E=       -0.000005138680 Rises=F Damp=F
 DIIS: error= 7.04D-05 at cycle  11 NSaved=  11.
 NSaved=11 IEnMin=11 EnMin= -692.996301415872     IErMin=11 ErrMin= 7.04D-05
 ErrMax= 7.04D-05 EMaxC= 1.00D-01 BMatC= 2.74D-06 BMatP= 3.63D-06
 IDIUse=1 WtCom= 1.00D+00 WtEn= 0.00D+00
 Coeff-Com:  0.823D-03-0.160D-02 0.351D-03 0.496D-02 0.336D-01 0.127D-01
 Coeff-Com: -0.455D-01-0.137D+00-0.126D+00 0.605D+00 0.653D+00
 Coeff:      0.823D-03-0.160D-02 0.351D-03 0.496D-02 0.336D-01 0.127D-01
 Coeff:     -0.455D-01-0.137D+00-0.126D+00 0.605D+00 0.653D+00
 Gap=     0.144 Goal=   None    Shift=    0.000
 Gap=     0.062 Goal=   None    Shift=    0.000
 RMSDP=8.27D-06 MaxDP=6.26D-04 DE=-5.14D-06 OVMax= 3.36D-03

 Cycle  12  Pass 1  IDiag  1:
 RMSU=  3.29D-06    CP:  7.67D-01  2.54D+00  9.35D-01  7.51D-01  2.04D+00
                    CP:  2.98D+00  2.48D+00  1.97D+00  1.66D+00  1.56D+00
                    CP:  9.37D-01
 E= -692.996304280901     Delta-E=       -0.000002865029 Rises=F Damp=F
 DIIS: error= 3.53D-05 at cycle  12 NSaved=  12.
 NSaved=12 IEnMin=12 EnMin= -692.996304280901     IErMin=12 ErrMin= 3.53D-05
 ErrMax= 3.53D-05 EMaxC= 1.00D-01 BMatC= 5.17D-07 BMatP= 2.74D-06
 IDIUse=1 WtCom= 1.00D+00 WtEn= 0.00D+00
 Coeff-Com:  0.269D-03-0.306D-03-0.360D-02-0.657D-02-0.206D-01 0.517D-02
 Coeff-Com:  0.926D-01-0.244D-01-0.192D+00-0.223D+00 0.244D+00 0.113D+01
 Coeff:      0.269D-03-0.306D-03-0.360D-02-0.657D-02-0.206D-01 0.517D-02
 Coeff:      0.926D-01-0.244D-01-0.192D+00-0.223D+00 0.244D+00 0.113D+01
 Gap=     0.144 Goal=   None    Shift=    0.000
 Gap=     0.062 Goal=   None    Shift=    0.000
 RMSDP=7.24D-06 MaxDP=5.19D-04 DE=-2.87D-06 OVMax= 3.26D-03

 Cycle  13  Pass 1  IDiag  1:
 RMSU=  2.55D-06    CP:  7.67D-01  2.54D+00  9.35D-01  7.52D-01  2.05D+00
                    CP:  3.00D+00  2.52D+00  2.03D+00  1.77D+00  1.82D+00
                    CP:  1.37D+00  1.38D+00
 E= -692.996305377411     Delta-E=       -0.000001096510 Rises=F Damp=F
 DIIS: error= 1.04D-05 at cycle  13 NSaved=  13.
 NSaved=13 IEnMin=13 EnMin= -692.996305377411     IErMin=13 ErrMin= 1.04D-05
 ErrMax= 1.04D-05 EMaxC= 1.00D-01 BMatC= 1.44D-07 BMatP= 5.17D-07
 IDIUse=1 WtCom= 1.00D+00 WtEn= 0.00D+00
 Coeff-Com: -0.145D-04 0.157D-03-0.143D-02-0.363D-02-0.144D-01 0.204D-02
 Coeff-Com:  0.476D-01 0.122D-01-0.708D-01-0.239D+00 0.771D-02 0.588D+00
 Coeff-Com:  0.671D+00
 Coeff:     -0.145D-04 0.157D-03-0.143D-02-0.363D-02-0.144D-01 0.204D-02
 Coeff:      0.476D-01 0.122D-01-0.708D-01-0.239D+00 0.771D-02 0.588D+00
 Coeff:      0.671D+00
 Gap=     0.144 Goal=   None    Shift=    0.000
 Gap=     0.062 Goal=   None    Shift=    0.000
 RMSDP=2.09D-06 MaxDP=1.65D-04 DE=-1.10D-06 OVMax= 8.05D-04

 Cycle  14  Pass 1  IDiag  1:
 RMSU=  8.19D-07    CP:  7.67D-01  2.54D+00  9.35D-01  7.52D-01  2.06D+00
                    CP:  3.00D+00  2.53D+00  2.05D+00  1.81D+00  1.91D+00
                    CP:  1.47D+00  1.61D+00  1.27D+00
 E= -692.996305519765     Delta-E=       -0.000000142354 Rises=F Damp=F
 DIIS: error= 4.97D-06 at cycle  14 NSaved=  14.
 NSaved=14 IEnMin=14 EnMin= -692.996305519765     IErMin=14 ErrMin= 4.97D-06
 ErrMax= 4.97D-06 EMaxC= 1.00D-01 BMatC= 2.77D-08 BMatP= 1.44D-07
 IDIUse=1 WtCom= 1.00D+00 WtEn= 0.00D+00
 Coeff-Com: -0.423D-04 0.898D-04 0.368D-03 0.154D-03-0.110D-02 0.150D-02
 Coeff-Com: -0.548D-02 0.137D-01 0.275D-01-0.577D-01-0.805D-01-0.730D-01
 Coeff-Com:  0.316D+00 0.858D+00
 Coeff:     -0.423D-04 0.898D-04 0.368D-03 0.154D-03-0.110D-02 0.150D-02
 Coeff:     -0.548D-02 0.137D-01 0.275D-01-0.577D-01-0.805D-01-0.730D-01
 Coeff:      0.316D+00 0.858D+00
 Gap=     0.144 Goal=   None    Shift=    0.000
 Gap=     0.062 Goal=   None    Shift=    0.000
 RMSDP=1.13D-06 MaxDP=9.02D-05 DE=-1.42D-07 OVMax= 3.95D-04

 Cycle  15  Pass 1  IDiag  1:
 RMSU=  3.35D-07    CP:  7.67D-01  2.54D+00  9.35D-01  7.52D-01  2.06D+00
                    CP:  3.00D+00  2.54D+00  2.06D+00  1.83D+00  1.95D+00
                    CP:  1.55D+00  1.75D+00  1.46D+00  9.92D-01
 E= -692.996305553242     Delta-E=       -0.000000033477 Rises=F Damp=F
 DIIS: error= 1.54D-06 at cycle  15 NSaved=  15.
 NSaved=15 IEnMin=15 EnMin= -692.996305553242     IErMin=15 ErrMin= 1.54D-06
 ErrMax= 1.54D-06 EMaxC= 1.00D-01 BMatC= 2.30D-09 BMatP= 2.77D-08
 IDIUse=1 WtCom= 1.00D+00 WtEn= 0.00D+00
 Coeff-Com:  0.197D-05-0.130D-04 0.218D-03 0.421D-03 0.118D-02 0.112D-03
 Coeff-Com: -0.623D-02 0.870D-03 0.131D-01 0.147D-01-0.157D-01-0.812D-01
 Coeff-Com: -0.244D-01 0.165D+00 0.932D+00
 Coeff:      0.197D-05-0.130D-04 0.218D-03 0.421D-03 0.118D-02 0.112D-03
 Coeff:     -0.623D-02 0.870D-03 0.131D-01 0.147D-01-0.157D-01-0.812D-01
 Coeff:     -0.244D-01 0.165D+00 0.932D+00
 Gap=     0.144 Goal=   None    Shift=    0.000
 Gap=     0.062 Goal=   None    Shift=    0.000
 RMSDP=3.72D-07 MaxDP=3.06D-05 DE=-3.35D-08 OVMax= 1.56D-04

 Cycle  16  Pass 1  IDiag  1:
 RMSU=  1.41D-07    CP:  7.67D-01  2.54D+00  9.35D-01  7.52D-01  2.06D+00
                    CP:  3.00D+00  2.54D+00  2.06D+00  1.84D+00  1.96D+00
                    CP:  1.57D+00  1.78D+00  1.53D+00  1.10D+00  1.16D+00
 E= -692.996305555763     Delta-E=       -0.000000002521 Rises=F Damp=F
 DIIS: error= 1.25D-06 at cycle  16 NSaved=  16.
 NSaved=16 IEnMin=16 EnMin= -692.996305555763     IErMin=16 ErrMin= 1.25D-06
 ErrMax= 1.25D-06 EMaxC= 1.00D-01 BMatC= 1.77D-09 BMatP= 2.30D-09
 IDIUse=1 WtCom= 1.00D+00 WtEn= 0.00D+00
 Coeff-Com:  0.122D-04-0.293D-04 0.105D-03 0.302D-03 0.121D-02-0.193D-03
 Coeff-Com: -0.349D-02-0.233D-02 0.350D-02 0.226D-01 0.614D-02-0.400D-01
 Coeff-Com: -0.761D-01-0.668D-01 0.603D+00 0.552D+00
 Coeff:      0.122D-04-0.293D-04 0.105D-03 0.302D-03 0.121D-02-0.193D-03
 Coeff:     -0.349D-02-0.233D-02 0.350D-02 0.226D-01 0.614D-02-0.400D-01
 Coeff:     -0.761D-01-0.668D-01 0.603D+00 0.552D+00
 Gap=     0.144 Goal=   None    Shift=    0.000
 Gap=     0.062 Goal=   None    Shift=    0.000
 RMSDP=9.23D-08 MaxDP=7.96D-06 DE=-2.52D-09 OVMax= 2.04D-05

 Cycle  17  Pass 1  IDiag  1:
 RMSU=  6.29D-08    CP:  7.67D-01  2.54D+00  9.35D-01  7.52D-01  2.06D+00
                    CP:  3.00D+00  2.54D+00  2.06D+00  1.84D+00  1.96D+00
                    CP:  1.57D+00  1.78D+00  1.54D+00  1.12D+00  1.30D+00
                    CP:  8.51D-01
 E= -692.996305556467     Delta-E=       -0.000000000703 Rises=F Damp=F
 DIIS: error= 3.82D-07 at cycle  17 NSaved=  17.
 NSaved=17 IEnMin=17 EnMin= -692.996305556467     IErMin=17 ErrMin= 3.82D-07
 ErrMax= 3.82D-07 EMaxC= 1.00D-01 BMatC= 1.01D-10 BMatP= 1.77D-09
 IDIUse=1 WtCom= 1.00D+00 WtEn= 0.00D+00
 Coeff-Com:  0.727D-05-0.119D-04-0.823D-05-0.834D-05 0.122D-03-0.159D-03
 Coeff-Com:  0.102D-03-0.742D-03-0.160D-02 0.382D-02 0.419D-02 0.357D-02
 Coeff-Com: -0.134D-01-0.590D-01-0.565D-02 0.132D+00 0.937D+00
 Coeff:      0.727D-05-0.119D-04-0.823D-05-0.834D-05 0.122D-03-0.159D-03
 Coeff:      0.102D-03-0.742D-03-0.160D-02 0.382D-02 0.419D-02 0.357D-02
 Coeff:     -0.134D-01-0.590D-01-0.565D-02 0.132D+00 0.937D+00
 Gap=     0.144 Goal=   None    Shift=    0.000
 Gap=     0.062 Goal=   None    Shift=    0.000
 RMSDP=7.24D-08 MaxDP=4.79D-06 DE=-7.03D-10 OVMax= 3.20D-05

 Cycle  18  Pass 1  IDiag  1:
 RMSU=  2.65D-08    CP:  7.67D-01  2.54D+00  9.35D-01  7.52D-01  2.06D+00
                    CP:  3.00D+00  2.54D+00  2.07D+00  1.84D+00  1.97D+00
                    CP:  1.57D+00  1.79D+00  1.55D+00  1.14D+00  1.36D+00
                    CP:  9.41D-01  9.95D-01
 E= -692.996305556723     Delta-E=       -0.000000000256 Rises=F Damp=F
 DIIS: error= 1.53D-07 at cycle  18 NSaved=  18.
 NSaved=18 IEnMin=18 EnMin= -692.996305556723     IErMin=18 ErrMin= 1.53D-07
 ErrMax= 1.53D-07 EMaxC= 1.00D-01 BMatC= 2.85D-11 BMatP= 1.01D-10
 IDIUse=1 WtCom= 1.00D+00 WtEn= 0.00D+00
 Coeff-Com:  0.299D-05-0.386D-05-0.593D-05-0.228D-04-0.221D-05-0.513D-05
 Coeff-Com:  0.231D-03-0.140D-03-0.957D-03 0.192D-03 0.132D-02 0.447D-02
 Coeff-Com:  0.419D-03-0.208D-01-0.478D-01 0.759D-02 0.410D+00 0.645D+00
 Coeff:      0.299D-05-0.386D-05-0.593D-05-0.228D-04-0.221D-05-0.513D-05
 Coeff:      0.231D-03-0.140D-03-0.957D-03 0.192D-03 0.132D-02 0.447D-02
 Coeff:      0.419D-03-0.208D-01-0.478D-01 0.759D-02 0.410D+00 0.645D+00
 Gap=     0.144 Goal=   None    Shift=    0.000
 Gap=     0.062 Goal=   None    Shift=    0.000
 RMSDP=1.69D-08 MaxDP=1.56D-06 DE=-2.56D-10 OVMax= 4.72D-06

 Cycle  19  Pass 1  IDiag  1:
 RMSU=  1.07D-08    CP:  7.67D-01  2.54D+00  9.35D-01  7.52D-01  2.06D+00
                    CP:  3.00D+00  2.54D+00  2.06D+00  1.84D+00  1.97D+00
                    CP:  1.57D+00  1.79D+00  1.55D+00  1.14D+00  1.37D+00
                    CP:  9.55D-01  1.11D+00  1.02D+00
 E= -692.996305556505     Delta-E=        0.000000000218 Rises=F Damp=F
 DIIS: error= 1.05D-07 at cycle  19 NSaved=  19.
 NSaved=19 IEnMin=18 EnMin= -692.996305556723     IErMin=19 ErrMin= 1.05D-07
 ErrMax= 1.05D-07 EMaxC= 1.00D-01 BMatC= 9.53D-12 BMatP= 2.85D-11
 IDIUse=1 WtCom= 1.00D+00 WtEn= 0.00D+00
 Coeff-Com: -0.247D-06 0.131D-05-0.124D-05-0.177D-04-0.672D-04 0.627D-04
 Coeff-Com:  0.895D-04 0.251D-03-0.762D-05-0.150D-02-0.923D-03 0.148D-02
 Coeff-Com:  0.578D-02 0.981D-02-0.274D-01-0.519D-01-0.137D+00 0.370D+00
 Coeff-Com:  0.831D+00
 Coeff:     -0.247D-06 0.131D-05-0.124D-05-0.177D-04-0.672D-04 0.627D-04
 Coeff:      0.895D-04 0.251D-03-0.762D-05-0.150D-02-0.923D-03 0.148D-02
 Coeff:      0.578D-02 0.981D-02-0.274D-01-0.519D-01-0.137D+00 0.370D+00
 Coeff:      0.831D+00
 Gap=     0.144 Goal=   None    Shift=    0.000
 Gap=     0.062 Goal=   None    Shift=    0.000
 RMSDP=1.30D-08 MaxDP=7.84D-07 DE= 2.18D-10 OVMax= 3.88D-06

 Cycle  20  Pass 1  IDiag  1:
 Restarting incremental Fock formation.
 E= -692.996305558574     Delta-E=       -0.000000002069 Rises=F Damp=F
 DIIS: error= 2.27D-08 at cycle  20 NSaved=  20.
 NSaved=20 IEnMin=20 EnMin= -692.996305558574     IErMin=20 ErrMin= 2.27D-08
 ErrMax= 2.27D-08 EMaxC= 1.00D-01 BMatC= 7.54D-13 BMatP= 9.53D-12
 IDIUse=1 WtCom= 1.00D+00 WtEn= 0.00D+00
 Coeff-Com: -0.263D-06 0.603D-06 0.374D-06-0.283D-05-0.193D-04 0.300D-04
 Coeff-Com: -0.493D-05 0.976D-04 0.912D-04-0.449D-03-0.438D-03-0.441D-04
 Coeff-Com:  0.176D-02 0.524D-02-0.206D-02-0.167D-01-0.940D-01 0.514D-01
 Coeff-Com:  0.292D+00 0.763D+00
 Coeff:     -0.263D-06 0.603D-06 0.374D-06-0.283D-05-0.193D-04 0.300D-04
 Coeff:     -0.493D-05 0.976D-04 0.912D-04-0.449D-03-0.438D-03-0.441D-04
 Coeff:      0.176D-02 0.524D-02-0.206D-02-0.167D-01-0.940D-01 0.514D-01
 Coeff:      0.292D+00 0.763D+00
 Gap=     0.144 Goal=   None    Shift=    0.000
 Gap=     0.062 Goal=   None    Shift=    0.000
 RMSDP=2.40D-08 MaxDP=5.50D-07 DE=-2.07D-09 OVMax= 7.25D-07

 Cycle  21  Pass 1  IDiag  1:
 RMSU=  2.39D-08    CP:  1.00D+00
 E= -692.996305555804     Delta-E=        0.000000002770 Rises=F Damp=F
 DIIS: error= 6.66D-09 at cycle  21 NSaved=  20.
 NSaved=20 IEnMin=19 EnMin= -692.996305558574     IErMin=20 ErrMin= 6.66D-09
 ErrMax= 6.66D-09 EMaxC= 1.00D-01 BMatC= 6.47D-14 BMatP= 7.54D-13
 IDIUse=1 WtCom= 1.00D+00 WtEn= 0.00D+00
 Coeff-Com: -0.808D-08-0.108D-06 0.187D-06 0.799D-06-0.671D-05-0.346D-06
 Coeff-Com: -0.125D-04-0.160D-04 0.985D-04 0.676D-04-0.469D-04-0.424D-03
 Coeff-Com: -0.997D-03 0.158D-02 0.416D-02 0.129D-01-0.270D-01-0.747D-01
 Coeff-Com: -0.299D+00 0.138D+01
 Coeff:     -0.808D-08-0.108D-06 0.187D-06 0.799D-06-0.671D-05-0.346D-06
 Coeff:     -0.125D-04-0.160D-04 0.985D-04 0.676D-04-0.469D-04-0.424D-03
 Coeff:     -0.997D-03 0.158D-02 0.416D-02 0.129D-01-0.270D-01-0.747D-01
 Coeff:     -0.299D+00 0.138D+01
 Gap=     0.144 Goal=   None    Shift=    0.000
 Gap=     0.062 Goal=   None    Shift=    0.000
 RMSDP=1.04D-08 MaxDP=2.72D-07 DE= 2.77D-09 OVMax= 6.77D-07

 Cycle  22  Pass 1  IDiag  1:
 RMSU=  3.56D-09    CP:  1.00D+00  1.41D+00
 E= -692.996305572176     Delta-E=       -0.000000016372 Rises=F Damp=F
 DIIS: error= 3.94D-09 at cycle  22 NSaved=  20.
 NSaved=20 IEnMin=20 EnMin= -692.996305572176     IErMin=20 ErrMin= 3.94D-09
 ErrMax= 3.94D-09 EMaxC= 1.00D-01 BMatC= 2.11D-14 BMatP= 6.47D-14
 IDIUse=1 WtCom= 1.00D+00 WtEn= 0.00D+00
 Coeff-Com:  0.262D-06 0.775D-06 0.288D-05-0.138D-05-0.538D-05-0.792D-05
 Coeff-Com: -0.102D-05 0.584D-04 0.307D-04-0.466D-04-0.200D-03-0.345D-03
 Coeff-Com:  0.101D-02 0.186D-02 0.440D-02-0.129D-01-0.310D-01-0.123D+00
 Coeff-Com:  0.635D+00 0.526D+00
 Coeff:      0.262D-06 0.775D-06 0.288D-05-0.138D-05-0.538D-05-0.792D-05
 Coeff:     -0.102D-05 0.584D-04 0.307D-04-0.466D-04-0.200D-03-0.345D-03
 Coeff:      0.101D-02 0.186D-02 0.440D-02-0.129D-01-0.310D-01-0.123D+00
 Coeff:      0.635D+00 0.526D+00
 Gap=     0.144 Goal=   None    Shift=    0.000
 Gap=     0.062 Goal=   None    Shift=    0.000
 RMSDP=1.78D-09 MaxDP=4.73D-08 DE=-1.64D-08 OVMax= 4.41D-07

 SCF Done:  E(UB+HF-LYP) =  -692.996305572     A.U. after   22 cycles
             Convg  =    0.1779D-08             -V/T =  2.0085
             S**2   =   0.7638
 KE= 6.871216115114D+02 PE=-3.848303696789D+03 EE= 1.337487323386D+03
 Annihilation of the first spin contaminant:
 S**2 before annihilation     0.7638,   after     0.7502
 Leave Link  502 at Fri Oct 15 20:56:01 2010, MaxMem=  196608000 cpu:    2200.0
 (Enter C:\G03W\l801.exe)
 Range of M.O.s used for correlation:     1   390
 NBasis=   390 NAE=    60 NBE=    59 NFC=     0 NFV=     0
 NROrb=    390 NOA=    60 NOB=    59 NVA=   330 NVB=   331

 **** Warning!!: The largest alpha MO coefficient is  0.23487317D+02


 **** Warning!!: The largest beta MO coefficient is  0.22935340D+02


 **** Warning!!: The smallest beta delta epsilon is  0.62350864D-01

 Leave Link  801 at Fri Oct 15 20:56:02 2010, MaxMem=  196608000 cpu:       0.0
 (Enter C:\G03W\l1002.exe)
 Minotr:  UHF wavefunction.
          Direct CPHF calculation.
          Solving linear equations simultaneously.
          Differentiating once with respect to magnetic field using GIAOs.
          Electric field/nuclear overlap derivatives assumed to be zero.
          Using symmetry in CPHF.
          Requested convergence is 1.0D-08 RMS, and 1.0D-07 maximum.
          Secondary convergence is 1.0D-12 RMS, and 1.0D-12 maximum.
          NewPWx=T KeepS1=F KeepF1=F KeepIn=T MapXYZ=F.
          MDV=     196607818 using IRadAn=       1.
 Symmetry not used in FoFDir.
 MinBra= 0 MaxBra= 2 Meth= 1.
 IRaf=       0 NMat=   1 IRICut=       1 DoRegI=T DoRafI=F ISym2E= 0 JSym2E=0.
          There are   3 degrees of freedom in the 1st order CPHF.
     3 vectors were produced by pass  0.
 AX will form   3 AO Fock derivatives at one time.
     3 vectors were produced by pass  1.
     3 vectors were produced by pass  2.
     3 vectors were produced by pass  3.
     3 vectors were produced by pass  4.
     3 vectors were produced by pass  5.
     1 vectors were produced by pass  6.
     1 vectors were produced by pass  7.
 Inv2:  IOpt= 1 Iter= 1 AM= 4.82D-16 Conv= 1.00D-12.
 Inverted reduced A of dimension   20 with in-core refinement.
 Calculating GIAO nuclear magnetic shielding tensors.
 SCF GIAO Magnetic shielding tensor (ppm):
  1  C    Isotropic =    43.4438   Anisotropy =   173.2371
   XX=   -25.5040   YX=    35.2617   ZX=     0.0000
   XY=    35.6373   YY=    -3.0999   ZY=     0.0000
   XZ=     0.0000   YZ=     0.0000   ZZ=   158.9352
   Eigenvalues:   -51.4793    22.8754   158.9352
  2  C    Isotropic =    50.3890   Anisotropy =   182.1500
   XX=    28.2730   YX=     6.3955   ZX=     0.0000
   XY=     3.4374   YY=   -48.9283   ZY=     0.0000
   XZ=     0.0000   YZ=     0.0000   ZZ=   171.8224
   Eigenvalues:   -49.2401    28.5848   171.8224
  3  C    Isotropic =    45.1973   Anisotropy =   186.9232
   XX=   -33.3075   YX=   -34.8912   ZX=     0.0000
   XY=   -36.1291   YY=    -0.9133   ZY=     0.0000
   XZ=     0.0000   YZ=     0.0000   ZZ=   169.8128
   Eigenvalues:   -56.1400    21.9193   169.8128
  4  C    Isotropic =    53.3235   Anisotropy =   183.2629
   XX=   -30.6480   YX=    23.2246   ZX=     0.0000
   XY=    31.5368   YY=    15.1198   ZY=     0.0000
   XZ=     0.0000   YZ=     0.0000   ZZ=   175.4988
   Eigenvalues:   -43.4485    27.9203   175.4988
  5  C    Isotropic =    53.2192   Anisotropy =   179.6598
   XX=     9.6400   YX=     7.3615   ZX=     0.0000
   XY=     7.5961   YY=   -22.9747   ZY=     0.0000
   XZ=     0.0000   YZ=     0.0000   ZZ=   172.9925
   Eigenvalues:   -24.6079    11.2731   172.9925
  6  C    Isotropic =    42.1688   Anisotropy =   187.1096
   XX=    -8.4906   YX=    -9.5102   ZX=     0.0000
   XY=   -14.4655   YY=   -31.9116   ZY=     0.0000
   XZ=     0.0000   YZ=     0.0000   ZZ=   166.9085
   Eigenvalues:   -36.9595    -3.4427   166.9085
  7  C    Isotropic =    55.5515   Anisotropy =   172.9111
   XX=   -23.1522   YX=   -28.7870   ZX=     0.0000
   XY=   -29.0276   YY=    18.9812   ZY=     0.0000
   XZ=     0.0000   YZ=     0.0000   ZZ=   170.8256
   Eigenvalues:   -37.8547    33.6837   170.8256
  8  C    Isotropic =    33.5424   Anisotropy =   178.5647
   XX=   -50.2128   YX=    23.3670   ZX=     0.0000
   XY=    26.3363   YY=    -1.7456   ZY=     0.0000
   XZ=     0.0000   YZ=     0.0000   ZZ=   152.5855
   Eigenvalues:   -60.6905     8.7321   152.5855
  9  C    Isotropic =    52.2246   Anisotropy =   189.2252
   XX=   -14.0646   YX=    -1.4671   ZX=     0.0000
   XY=    -2.9981   YY=    -7.6362   ZY=     0.0000
   XZ=     0.0000   YZ=     0.0000   ZZ=   178.3747
   Eigenvalues:   -14.7639    -6.9369   178.3747
 10  C    Isotropic =    43.4438   Anisotropy =   173.2371
   XX=   -25.5040   YX=    35.2617   ZX=     0.0000
   XY=    35.6373   YY=    -3.0999   ZY=     0.0000
   XZ=     0.0000   YZ=     0.0000   ZZ=   158.9352
   Eigenvalues:   -51.4793    22.8754   158.9352
 11  C    Isotropic =    50.3890   Anisotropy =   182.1500
   XX=    28.2730   YX=     6.3955   ZX=     0.0000
   XY=     3.4374   YY=   -48.9283   ZY=     0.0000
   XZ=     0.0000   YZ=     0.0000   ZZ=   171.8224
   Eigenvalues:   -49.2401    28.5848   171.8224
 12  C    Isotropic =    45.1973   Anisotropy =   186.9232
   XX=   -33.3075   YX=   -34.8912   ZX=     0.0000
   XY=   -36.1291   YY=    -0.9133   ZY=     0.0000
   XZ=     0.0000   YZ=     0.0000   ZZ=   169.8128
   Eigenvalues:   -56.1400    21.9193   169.8128
 13  C    Isotropic =    53.3235   Anisotropy =   183.2629
   XX=   -30.6480   YX=    23.2246   ZX=     0.0000
   XY=    31.5368   YY=    15.1198   ZY=     0.0000
   XZ=     0.0000   YZ=     0.0000   ZZ=   175.4988
   Eigenvalues:   -43.4485    27.9203   175.4988
 14  C    Isotropic =    53.2192   Anisotropy =   179.6598
   XX=     9.6400   YX=     7.3615   ZX=     0.0000
   XY=     7.5961   YY=   -22.9747   ZY=     0.0000
   XZ=     0.0000   YZ=     0.0000   ZZ=   172.9925
   Eigenvalues:   -24.6079    11.2731   172.9925
 15  C    Isotropic =    42.1688   Anisotropy =   187.1096
   XX=    -8.4906   YX=    -9.5102   ZX=     0.0000
   XY=   -14.4655   YY=   -31.9116   ZY=     0.0000
   XZ=     0.0000   YZ=     0.0000   ZZ=   166.9085
   Eigenvalues:   -36.9595    -3.4427   166.9085
 16  C    Isotropic =    55.5515   Anisotropy =   172.9111
   XX=   -23.1522   YX=   -28.7870   ZX=     0.0000
   XY=   -29.0276   YY=    18.9812   ZY=     0.0000
   XZ=     0.0000   YZ=     0.0000   ZZ=   170.8256
   Eigenvalues:   -37.8547    33.6837   170.8256
 17  C    Isotropic =    33.5424   Anisotropy =   178.5647
   XX=   -50.2128   YX=    23.3670   ZX=     0.0000
   XY=    26.3363   YY=    -1.7456   ZY=     0.0000
   XZ=     0.0000   YZ=     0.0000   ZZ=   152.5855
   Eigenvalues:   -60.6905     8.7321   152.5855
 18  C    Isotropic =    52.2246   Anisotropy =   189.2252
   XX=   -14.0646   YX=    -1.4671   ZX=     0.0000
   XY=    -2.9981   YY=    -7.6362   ZY=     0.0000
   XZ=     0.0000   YZ=     0.0000   ZZ=   178.3747
   Eigenvalues:   -14.7639    -6.9369   178.3747
 19  H    Isotropic =    24.2248   Anisotropy =     6.0248
   XX=    23.5680   YX=     2.5099   ZX=     0.0000
   XY=     2.5589   YY=    26.8669   ZY=     0.0000
   XZ=     0.0000   YZ=     0.0000   ZZ=    22.2394
   Eigenvalues:    22.1936    22.2394    28.2413
 20  H    Isotropic =    24.1996   Anisotropy =     4.4720
   XX=    27.1644   YX=     0.2884   ZX=     0.0000
   XY=     0.2401   YY=    22.9501   ZY=     0.0000
   XZ=     0.0000   YZ=     0.0000   ZZ=    22.4843
   Eigenvalues:    22.4843    22.9336    27.1809
 21  H    Isotropic =    24.0439   Anisotropy =     5.1576
   XX=    23.7026   YX=    -2.0458   ZX=     0.0000
   XY=    -2.2495   YY=    26.2620   ZY=     0.0000
   XZ=     0.0000   YZ=     0.0000   ZZ=    22.1671
   Eigenvalues:    22.1671    22.4823    27.4823
 22  H    Isotropic =    23.8275   Anisotropy =     7.9759
   XX=    22.7837   YX=     1.8253   ZX=     0.0000
   XY=     2.5430   YY=    28.3949   ZY=     0.0000
   XZ=     0.0000   YZ=     0.0000   ZZ=    20.3040
   Eigenvalues:    20.3040    22.0337    29.1448
 23  H    Isotropic =    24.0577   Anisotropy =     7.9565
   XX=    23.1167   YX=    -1.8647   ZX=     0.0000
   XY=    -2.4356   YY=    28.6217   ZY=     0.0000
   XZ=     0.0000   YZ=     0.0000   ZZ=    20.4346
   Eigenvalues:    20.4346    22.3764    29.3620
 24  H    Isotropic =    24.1286   Anisotropy =     6.4985
   XX=    22.9899   YX=     2.5882   ZX=     0.0000
   XY=     2.8672   YY=    27.1009   ZY=     0.0000
   XZ=     0.0000   YZ=     0.0000   ZZ=    22.2948
   Eigenvalues:    21.6300    22.2948    28.4609
 25  H    Isotropic =    24.2248   Anisotropy =     6.0248
   XX=    23.5680   YX=     2.5099   ZX=     0.0000
   XY=     2.5589   YY=    26.8669   ZY=     0.0000
   XZ=     0.0000   YZ=     0.0000   ZZ=    22.2394
   Eigenvalues:    22.1936    22.2394    28.2413
 26  H    Isotropic =    24.1996   Anisotropy =     4.4720
   XX=    27.1644   YX=     0.2884   ZX=     0.0000
   XY=     0.2401   YY=    22.9501   ZY=     0.0000
   XZ=     0.0000   YZ=     0.0000   ZZ=    22.4843
   Eigenvalues:    22.4843    22.9336    27.1809
 27  H    Isotropic =    24.0439   Anisotropy =     5.1576
   XX=    23.7026   YX=    -2.0458   ZX=     0.0000
   XY=    -2.2495   YY=    26.2620   ZY=     0.0000
   XZ=     0.0000   YZ=     0.0000   ZZ=    22.1671
   Eigenvalues:    22.1671    22.4823    27.4823
 28  H    Isotropic =    23.8275   Anisotropy =     7.9759
   XX=    22.7837   YX=     1.8253   ZX=     0.0000
   XY=     2.5430   YY=    28.3949   ZY=     0.0000
   XZ=     0.0000   YZ=     0.0000   ZZ=    20.3040
   Eigenvalues:    20.3040    22.0337    29.1448
 29  H    Isotropic =    24.0577   Anisotropy =     7.9565
   XX=    23.1167   YX=    -1.8647   ZX=     0.0000
   XY=    -2.4356   YY=    28.6217   ZY=     0.0000
   XZ=     0.0000   YZ=     0.0000   ZZ=    20.4346
   Eigenvalues:    20.4346    22.3764    29.3620
 30  H    Isotropic =    24.1286   Anisotropy =     6.4985
   XX=    22.9899   YX=     2.5882   ZX=     0.0000
   XY=     2.8672   YY=    27.1009   ZY=     0.0000
   XZ=     0.0000   YZ=     0.0000   ZZ=    22.2948
   Eigenvalues:    21.6300    22.2948    28.4609
 g value of the free electron [g_e]: 0.20023193D+01
 relativistic mass correction [g_RMC]:-0.13964466D-03
 diamagnetic correction to g tensor [g_DC]:
   XX= 0.94999883D-04   YX=-0.46710136D-05   ZX= 0.66845598D-34
   XY=-0.58066376D-05   YY= 0.60677775D-04   ZY=-0.24522791D-34
   XZ=-0.17456778D-33   YZ=-0.59139331D-33   ZZ= 0.18942688D-04
 orbital Zeeman and spin-orbit coupling contribution to g tensor [g_OZ/SOC]:
   XX= 0.10335584D-03   YX= 0.19896422D-03   ZX=-0.86757969D-15
   XY= 0.19896018D-03   YY= 0.83165136D-03   ZY=-0.15059250D-14
   XZ=-0.28153138D-13   YZ=-0.25609320D-13   ZZ= 0.53030211D-03
 g tensor [g = g_e + g_RMC + g_DC + g_OZ/SOC]:
   XX= 0.20023780D+01   YX= 0.19429320D-03   ZX=-0.86757969D-15
   XY= 0.19315354D-03   YY= 0.20030720D+01   ZY=-0.15059250D-14
   XZ=-0.28153138D-13   YZ=-0.25609320D-13   ZZ= 0.20027289D+01
 g shifts relative to the free electron (ppm):
   xx=            8.3   yy=          409.6   zz=          803.1
 End of Minotr Frequency-dependent properties file   721 does not exist.
 Leave Link 1002 at Fri Oct 15 21:38:32 2010, MaxMem=  196608000 cpu:    2550.0
 (Enter C:\G03W\l601.exe)
 Copying SCF densities to generalized density rwf, ISCF=1 IROHF=0.

 **********************************************************************

            Population analysis using the SCF density.

 **********************************************************************

 Orbital symmetries:
 Alpha Orbitals:
       Occupied  (AG) (BU) (AG) (BU) (AG) (BU) (BU) (AG) (AG) (BU)
                 (BU) (AG) (AG) (BU) (BU) (AG) (AG) (BU) (AG) (BU)
                 (AG) (BU) (AG) (BU) (BU) (AG) (AG) (BU) (BU) (AG)
                 (BU) (AG) (AG) (BU) (AG) (BU) (AG) (BU) (AG) (BU)
                 (AG) (BU) (AG) (AU) (BU) (BU) (AG) (BG) (AG) (BU)
                 (BU) (AU) (AG) (BG) (AG) (AU) (BG) (BG) (AU) (AU)
       Virtual   (BG) (BG) (AU) (BG) (AU) (AG) (BU) (AU) (BU) (AG)
                 (AG) (AG) (BG) (BU) (BU) (BU) (AG) (AG) (BU) (BU)
                 (AG) (AU) (BU) (AG) (AG) (BU) (BG) (AG) (BU) (BU)
                 (AG) (BU) (BU) (AG) (BU) (AG) (AG) (BU) (AU) (AG)
                 (BU) (AG) (BG) (BU) (BG) (AG) (BU) (AG) (BU) (AU)
                 (AU) (AG) (BU) (BG) (AG) (BU) (AG) (BG) (AG) (BU)
                 (AU) (BU) (AU) (AU) (BG) (BU) (AG) (AG) (BU) (BU)
                 (BG) (AG) (BU) (AG) (BU) (AG) (BG) (AG) (BU) (AU)
                 (AG) (BU) (BU) (AG) (BU) (AU) (AG) (BG) (BU) (AG)
                 (BU) (AU) (BU) (AG) (BU) (BG) (AG) (AG) (AG) (BU)
                 (AG) (BU) (AG) (BU) (AG) (BU) (BU) (AG) (AG) (BG)
                 (BU) (AU) (AG) (BU) (BU) (AG) (BU) (AU) (AG) (AG)
                 (BG) (BU) (AG) (BU) (BG) (AU) (AG) (BU) (AU) (AG)
                 (BG) (BU) (BU) (BG) (AU) (AG) (AU) (AG) (BU) (AG)
                 (BG) (BU) (BG) (AU) (BU) (AU) (AG) (AG) (BU) (AG)
                 (AG) (BU) (AG) (BU) (AG) (BU) (BG) (AG) (AU) (BU)
                 (AG) (BU) (BG) (AG) (BU) (AU) (BU) (BG) (BU) (AG)
                 (AU) (BG) (AU) (AG) (BU) (BU) (BG) (AG) (AG) (BU)
                 (AG) (BU) (AG) (BU) (AG) (BG) (BU) (AG) (BG) (AU)
                 (BU) (BU) (AU) (AG) (AU) (BG) (BU) (AG) (BG) (AG)
                 (BU) (AG) (AU) (BU) (AG) (AU) (AU) (BU) (AG) (BG)
                 (BU) (AG) (BU) (BG) (AU) (AG) (BU) (BG) (BG) (AG)
                 (AU) (BU) (AU) (AG) (BU) (BU) (AG) (BG) (BU) (AG)
                 (BG) (AU) (AG) (BU) (BU) (AG) (AU) (AG) (BG) (BU)
                 (BU) (BG) (AU) (AG) (AG) (BU) (AG) (BU) (BU) (AG)
                 (BU) (AG) (BU) (AG) (BU) (AG) (BU) (AG) (AG) (BU)
                 (BU) (AG) (BU) (AG) (BU) (AG) (AG) (BU) (BU) (AG)
                 (AG) (BU) (AG) (AG) (BU) (BU) (AG) (BU) (AG) (BU)
                 (AG) (AG) (BU) (BU) (AG) (BU) (BU) (AG) (BU) (AG)
                 (AG) (BU) (AG) (BU) (BU) (AG) (AG) (BU) (AG) (BU)
                 (AG) (BU) (AG) (BU) (AG) (BU) (AG) (BU) (AG) (BU)
                 (AG) (BU) (BU) (AG) (AG) (BU) (AG) (BU) (AG) (BU)
                 (BU) (AG) (AG) (BU) (BU) (AG) (AG) (BU) (AG) (BU)
 Beta  Orbitals:
       Occupied  (AG) (BU) (BU) (AG) (AG) (BU) (BU) (AG) (AG) (BU)
                 (BU) (AG) (BU) (AG) (BU) (AG) (BU) (AG) (AG) (BU)
                 (AG) (BU) (AG) (BU) (BU) (AG) (AG) (BU) (BU) (AG)
                 (BU) (AG) (AG) (BU) (AG) (BU) (AG) (BU) (AG) (BU)
                 (AG) (BU) (AG) (BU) (AU) (BU) (AG) (AG) (BG) (BU)
                 (BU) (AG) (AU) (AG) (BG) (AU) (BG) (BG) (AU)
       Virtual   (AU) (BG) (BG) (AU) (BG) (AU) (AG) (BU) (BU) (AU)
                 (AG) (AG) (AG) (BG) (BU) (BU) (BU) (AG) (AG) (BU)
                 (BU) (AG) (AU) (BU) (AG) (AG) (BU) (AG) (BG) (BU)
                 (BU) (AG) (BU) (BU) (AG) (BU) (AG) (AG) (BU) (AU)
                 (AG) (BU) (AG) (BU) (BG) (AG) (BG) (BU) (AG) (BU)
                 (AU) (AG) (AU) (BU) (AG) (BG) (BU) (AG) (AG) (BU)
                 (BG) (AU) (BU) (AU) (BG) (AU) (BU) (AG) (AG) (BU)
                 (BU) (BG) (AG) (BU) (AG) (BU) (AG) (BG) (AG) (BU)
                 (AU) (AG) (BU) (BU) (AG) (BU) (AU) (AG) (BG) (BU)
                 (AG) (BU) (AU) (BU) (AG) (BU) (BG) (AG) (AG) (AG)
                 (BU) (AG) (BU) (AG) (BU) (AG) (BU) (BU) (AG) (AG)
                 (BG) (BU) (AG) (BU) (AU) (BU) (AG) (BU) (AU) (AG)
                 (AG) (BG) (BU) (AG) (BU) (BG) (AG) (AU) (BU) (AU)
                 (AG) (BG) (BU) (BU) (BG) (AG) (AU) (AU) (AG) (BU)
                 (AG) (BG) (BU) (BG) (BU) (AU) (AU) (AG) (AG) (BU)
                 (AG) (AG) (BU) (AG) (BU) (AG) (BU) (BG) (AG) (AU)
                 (BU) (AG) (BU) (BG) (AG) (BU) (AU) (BU) (BG) (BU)
                 (AG) (AU) (BG) (AU) (AG) (BU) (BU) (BG) (AG) (AG)
                 (BU) (AG) (BU) (AG) (BU) (AG) (BG) (BU) (AG) (BG)
                 (AU) (BU) (BU) (AU) (AG) (AU) (BG) (BU) (AG) (BG)
                 (AG) (BU) (AG) (AU) (BU) (AG) (AU) (BU) (AG) (AU)
                 (BG) (BU) (AG) (BU) (BG) (AU) (AG) (BU) (BG) (BG)
                 (AG) (BU) (AU) (AU) (AG) (BU) (BU) (AG) (BG) (BU)
                 (AG) (BG) (AU) (AG) (BU) (BU) (AG) (AU) (AG) (BU)
                 (BG) (BU) (BG) (AU) (AG) (AG) (BU) (AG) (BU) (BU)
                 (AG) (BU) (AG) (BU) (AG) (BU) (AG) (BU) (AG) (AG)
                 (BU) (BU) (AG) (BU) (AG) (BU) (AG) (AG) (BU) (BU)
                 (AG) (AG) (BU) (AG) (AG) (BU) (BU) (AG) (BU) (AG)
                 (BU) (AG) (AG) (BU) (BU) (AG) (BU) (BU) (AG) (BU)
                 (AG) (AG) (BU) (AG) (BU) (BU) (AG) (AG) (BU) (AG)
                 (BU) (AG) (BU) (AG) (BU) (AG) (BU) (AG) (BU) (AG)
                 (BU) (AG) (BU) (BU) (AG) (AG) (BU) (AG) (BU) (AG)
                 (BU) (BU) (AG) (AG) (BU) (BU) (AG) (AG) (BU) (AG)
                 (BU)
 The electronic state is 2-AU.
 Alpha  occ. eigenvalues --  -10.38177 -10.38138 -10.37009 -10.37009 -10.36375
 Alpha  occ. eigenvalues --  -10.36375 -10.35838 -10.35838 -10.35792 -10.35792
 Alpha  occ. eigenvalues --  -10.35152 -10.35152 -10.35123 -10.35123 -10.34803
 Alpha  occ. eigenvalues --  -10.34803 -10.34154 -10.34154  -1.04175  -1.01305
 Alpha  occ. eigenvalues --   -0.97750  -0.96468  -0.92505  -0.91821  -0.88753
 Alpha  occ. eigenvalues --   -0.87487  -0.86417  -0.78766  -0.78166  -0.77733
 Alpha  occ. eigenvalues --   -0.74745  -0.73533  -0.69167  -0.67516  -0.65894
 Alpha  occ. eigenvalues --   -0.65629  -0.63158  -0.61130  -0.60852  -0.58757
 Alpha  occ. eigenvalues --   -0.58178  -0.57748  -0.56492  -0.56167  -0.55887
 Alpha  occ. eigenvalues --   -0.54931  -0.54463  -0.52672  -0.52619  -0.50181
 Alpha  occ. eigenvalues --   -0.49240  -0.48459  -0.48208  -0.47573  -0.47385
 Alpha  occ. eigenvalues --   -0.43734  -0.42217  -0.39256  -0.37587  -0.36246
 Alpha virt. eigenvalues --   -0.21869  -0.18824  -0.17989  -0.13887  -0.13278
 Alpha virt. eigenvalues --   -0.09688  -0.09201  -0.08676  -0.08043  -0.07111
 Alpha virt. eigenvalues --   -0.06468  -0.05988  -0.05755  -0.04815  -0.03957
 Alpha virt. eigenvalues --   -0.03631  -0.02558  -0.02198  -0.00130   0.00923
 Alpha virt. eigenvalues --    0.00956   0.01004   0.01732   0.03437   0.04334
 Alpha virt. eigenvalues --    0.05369   0.05842   0.06193   0.06392   0.07603
 Alpha virt. eigenvalues --    0.08453   0.08537   0.09895   0.10853   0.11716
 Alpha virt. eigenvalues --    0.12048   0.12754   0.12899   0.13773   0.14207
 Alpha virt. eigenvalues --    0.14215   0.14744   0.16293   0.16659   0.17214
 Alpha virt. eigenvalues --    0.17389   0.17562   0.18119   0.18487   0.18846
 Alpha virt. eigenvalues --    0.19864   0.19901   0.20626   0.22404   0.22407
 Alpha virt. eigenvalues --    0.22618   0.23720   0.23965   0.24007   0.24112
 Alpha virt. eigenvalues --    0.25047   0.27007   0.27958   0.28118   0.28241
 Alpha virt. eigenvalues --    0.29647   0.29661   0.30442   0.30978   0.32665
 Alpha virt. eigenvalues --    0.32824   0.33029   0.33234   0.33616   0.34253
 Alpha virt. eigenvalues --    0.34901   0.35001   0.35418   0.36018   0.36371
 Alpha virt. eigenvalues --    0.36662   0.36885   0.38799   0.38882   0.39575
 Alpha virt. eigenvalues --    0.39608   0.40646   0.41256   0.41539   0.42809
 Alpha virt. eigenvalues --    0.44157   0.45116   0.46391   0.47535   0.50206
 Alpha virt. eigenvalues --    0.50425   0.50777   0.51231   0.52500   0.52538
 Alpha virt. eigenvalues --    0.52933   0.53621   0.54607   0.56124   0.57751
 Alpha virt. eigenvalues --    0.58516   0.60275   0.60380   0.65504   0.66276
 Alpha virt. eigenvalues --    0.67465   0.69761   0.69918   0.70114   0.71214
 Alpha virt. eigenvalues --    0.72723   0.72905   0.74362   0.75223   0.75997
 Alpha virt. eigenvalues --    0.76880   0.77345   0.78302   0.79903   0.80747
 Alpha virt. eigenvalues --    0.80806   0.81057   0.81365   0.81496   0.82332
 Alpha virt. eigenvalues --    0.83014   0.84233   0.85384   0.85533   0.86086
 Alpha virt. eigenvalues --    0.86223   0.87182   0.87714   0.88045   0.89737
 Alpha virt. eigenvalues --    0.90291   0.90566   0.91782   0.93226   0.93340
 Alpha virt. eigenvalues --    0.95491   0.95782   0.98781   0.99071   0.99877
 Alpha virt. eigenvalues --    1.01842   1.02010   1.05549   1.06266   1.09959
 Alpha virt. eigenvalues --    1.13011   1.15197   1.16023   1.17147   1.17453
 Alpha virt. eigenvalues --    1.18842   1.19178   1.20497   1.21177   1.21872
 Alpha virt. eigenvalues --    1.22087   1.23879   1.27126   1.27532   1.29804
 Alpha virt. eigenvalues --    1.29918   1.30439   1.31226   1.31398   1.33043
 Alpha virt. eigenvalues --    1.34851   1.35872   1.36968   1.37905   1.38124
 Alpha virt. eigenvalues --    1.40500   1.41227   1.41935   1.42830   1.43982
 Alpha virt. eigenvalues --    1.45550   1.46945   1.47881   1.48423   1.48645
 Alpha virt. eigenvalues --    1.49517   1.50307   1.50369   1.52009   1.52295
 Alpha virt. eigenvalues --    1.52363   1.53216   1.54396   1.54854   1.56799
 Alpha virt. eigenvalues --    1.57752   1.59268   1.60124   1.60429   1.60749
 Alpha virt. eigenvalues --    1.61961   1.62464   1.62532   1.62633   1.62774
 Alpha virt. eigenvalues --    1.64053   1.64945   1.65981   1.69456   1.70098
 Alpha virt. eigenvalues --    1.70956   1.71467   1.71684   1.78260   1.79622
 Alpha virt. eigenvalues --    1.82007   1.82265   1.85433   1.89522   1.90433
 Alpha virt. eigenvalues --    1.91329   1.91808   1.92398   1.93105   1.94027
 Alpha virt. eigenvalues --    1.94729   1.95441   1.96580   1.99026   2.00212
 Alpha virt. eigenvalues --    2.05295   2.07447   2.08763   2.09506   2.09507
 Alpha virt. eigenvalues --    2.17874   2.20087   2.21501   2.26926   2.28941
 Alpha virt. eigenvalues --    2.29502   2.30382   2.30455   2.31347   2.32507
 Alpha virt. eigenvalues --    2.34569   2.37231   2.38287   2.39333   2.40066
 Alpha virt. eigenvalues --    2.47717   2.49392   2.50393   2.52476   2.54479
 Alpha virt. eigenvalues --    2.56006   2.56424   2.65894   2.66664   2.71816
 Alpha virt. eigenvalues --    2.73939   3.05834   3.08006   3.22107   3.32536
 Alpha virt. eigenvalues --    4.84882   4.94259   4.96348   4.98915   5.02204
 Alpha virt. eigenvalues --    5.02597   5.05315   5.07422   5.09872   5.13552
 Alpha virt. eigenvalues --    5.20730   5.21352   5.22839   5.23698   5.24906
 Alpha virt. eigenvalues --    5.31861   5.38850   5.41225   5.43927   5.44460
 Alpha virt. eigenvalues --    5.47282   5.48953   5.49567   5.54534   5.57909
 Alpha virt. eigenvalues --    5.62057   5.72112   5.77118   5.98279   6.13359
 Alpha virt. eigenvalues --   29.43804  29.63000  29.67918  29.74082  29.77830
 Alpha virt. eigenvalues --   29.80897  29.85606  29.88100  29.90914  29.94248
 Alpha virt. eigenvalues --   29.97090  29.98784  30.04329  30.08987  30.12497
 Alpha virt. eigenvalues --   30.14008  30.27345  30.39577  36.57063  36.58452
 Alpha virt. eigenvalues --   36.60543  36.62938  36.65185  36.67040  36.70693
 Alpha virt. eigenvalues --   36.72433  36.81662  36.83777  36.88980  36.90377
  Beta  occ. eigenvalues --  -10.38016 -10.37978 -10.36696 -10.36696 -10.36384
  Beta  occ. eigenvalues --  -10.36384 -10.35910 -10.35910 -10.35795 -10.35795
  Beta  occ. eigenvalues --  -10.35030 -10.35030 -10.34967 -10.34967 -10.34707
  Beta  occ. eigenvalues --  -10.34707 -10.34184 -10.34184  -1.03846  -1.01091
  Beta  occ. eigenvalues --   -0.97433  -0.96030  -0.92038  -0.91659  -0.88391
  Beta  occ. eigenvalues --   -0.87431  -0.85722  -0.78417  -0.77982  -0.77517
  Beta  occ. eigenvalues --   -0.74529  -0.73319  -0.68995  -0.67386  -0.65736
  Beta  occ. eigenvalues --   -0.65395  -0.62990  -0.61024  -0.60717  -0.58713
  Beta  occ. eigenvalues --   -0.58063  -0.57614  -0.56358  -0.55703  -0.55280
  Beta  occ. eigenvalues --   -0.54791  -0.54318  -0.52536  -0.52078  -0.50062
  Beta  occ. eigenvalues --   -0.49192  -0.48063  -0.47543  -0.47319  -0.46127
  Beta  occ. eigenvalues --   -0.42197  -0.41798  -0.37766  -0.37518
  Beta virt. eigenvalues --   -0.31283  -0.20234  -0.18304  -0.17026  -0.12974
  Beta virt. eigenvalues --   -0.12683  -0.09642  -0.09157  -0.08009  -0.07676
  Beta virt. eigenvalues --   -0.07057  -0.06427  -0.05959  -0.04863  -0.04784
  Beta virt. eigenvalues --   -0.03925  -0.03580  -0.02518  -0.02143  -0.00068
  Beta virt. eigenvalues --    0.00966   0.01060   0.01405   0.01784   0.03563
  Beta virt. eigenvalues --    0.04383   0.05514   0.06257   0.06415   0.06468
  Beta virt. eigenvalues --    0.07763   0.08568   0.08721   0.09944   0.10961
  Beta virt. eigenvalues --    0.11785   0.12076   0.12844   0.13019   0.14140
  Beta virt. eigenvalues --    0.14337   0.14385   0.14900   0.16738   0.16780
  Beta virt. eigenvalues --    0.17583   0.17639   0.17673   0.18220   0.18637
  Beta virt. eigenvalues --    0.19163   0.20007   0.20584   0.20772   0.22519
  Beta virt. eigenvalues --    0.22673   0.22753   0.23875   0.24184   0.24354
  Beta virt. eigenvalues --    0.24380   0.25510   0.27079   0.28141   0.28479
  Beta virt. eigenvalues --    0.28540   0.29777   0.29782   0.30643   0.31133
  Beta virt. eigenvalues --    0.32888   0.33142   0.33173   0.33295   0.33780
  Beta virt. eigenvalues --    0.34360   0.34975   0.35367   0.35561   0.36141
  Beta virt. eigenvalues --    0.36640   0.36727   0.37017   0.38894   0.38985
  Beta virt. eigenvalues --    0.39640   0.39975   0.40703   0.41512   0.41621
  Beta virt. eigenvalues --    0.42891   0.44228   0.45132   0.46524   0.47621
  Beta virt. eigenvalues --    0.50305   0.50568   0.50881   0.51338   0.52633
  Beta virt. eigenvalues --    0.52700   0.53086   0.53777   0.54740   0.56224
  Beta virt. eigenvalues --    0.57928   0.58566   0.60358   0.60509   0.65620
  Beta virt. eigenvalues --    0.66667   0.67554   0.70020   0.70163   0.70169
  Beta virt. eigenvalues --    0.71302   0.72803   0.73038   0.74687   0.75292
  Beta virt. eigenvalues --    0.76068   0.77166   0.77552   0.78382   0.80122
  Beta virt. eigenvalues --    0.80993   0.81169   0.81264   0.81450   0.81946
  Beta virt. eigenvalues --    0.82440   0.83655   0.84341   0.85501   0.85979
  Beta virt. eigenvalues --    0.86321   0.86442   0.87468   0.87815   0.88164
  Beta virt. eigenvalues --    0.89858   0.90665   0.90693   0.91971   0.93586
  Beta virt. eigenvalues --    0.93734   0.95723   0.96015   0.99117   0.99298
  Beta virt. eigenvalues --    1.00154   1.02145   1.02146   1.05750   1.06380
  Beta virt. eigenvalues --    1.10154   1.13162   1.15481   1.16117   1.17596
  Beta virt. eigenvalues --    1.17760   1.19044   1.19299   1.20985   1.21297
  Beta virt. eigenvalues --    1.21990   1.22472   1.23996   1.27444   1.27624
  Beta virt. eigenvalues --    1.29892   1.30140   1.30605   1.31417   1.31558
  Beta virt. eigenvalues --    1.33210   1.34886   1.36145   1.37034   1.38058
  Beta virt. eigenvalues --    1.38247   1.40604   1.41324   1.42039   1.43179
  Beta virt. eigenvalues --    1.44060   1.45900   1.47053   1.48009   1.48623
  Beta virt. eigenvalues --    1.48915   1.49607   1.50385   1.50562   1.52093
  Beta virt. eigenvalues --    1.52486   1.52499   1.53400   1.54509   1.55256
  Beta virt. eigenvalues --    1.57119   1.57890   1.59454   1.60424   1.60473
  Beta virt. eigenvalues --    1.61160   1.62215   1.62750   1.62750   1.62909
  Beta virt. eigenvalues --    1.63045   1.64120   1.65016   1.66057   1.69875
  Beta virt. eigenvalues --    1.70393   1.71063   1.71613   1.72043   1.78520
  Beta virt. eigenvalues --    1.79745   1.82393   1.82428   1.85829   1.89819
  Beta virt. eigenvalues --    1.90736   1.91717   1.91986   1.92780   1.93281
  Beta virt. eigenvalues --    1.94252   1.95140   1.95742   1.96846   1.99131
  Beta virt. eigenvalues --    2.00411   2.05373   2.07715   2.08838   2.09591
  Beta virt. eigenvalues --    2.09829   2.18159   2.20466   2.21931   2.26989
  Beta virt. eigenvalues --    2.29062   2.29551   2.30418   2.30492   2.31424
  Beta virt. eigenvalues --    2.32546   2.34665   2.37292   2.38376   2.39467
  Beta virt. eigenvalues --    2.40204   2.47837   2.49473   2.50478   2.52572
  Beta virt. eigenvalues --    2.54528   2.56079   2.56490   2.65983   2.66749
  Beta virt. eigenvalues --    2.71912   2.74057   3.05954   3.08127   3.22195
  Beta virt. eigenvalues --    3.32661   4.85099   4.94290   4.96358   4.98923
  Beta virt. eigenvalues --    5.02249   5.02553   5.05311   5.07476   5.09880
  Beta virt. eigenvalues --    5.13570   5.20805   5.21400   5.23042   5.23900
  Beta virt. eigenvalues --    5.24987   5.31870   5.38880   5.41304   5.44187
  Beta virt. eigenvalues --    5.44640   5.47526   5.49129   5.49840   5.54797
  Beta virt. eigenvalues --    5.58075   5.62261   5.72403   5.77388   5.98421
  Beta virt. eigenvalues --    6.13543  29.43929  29.63084  29.68002  29.74305
  Beta virt. eigenvalues --   29.77992  29.81062  29.85661  29.88268  29.91103
  Beta virt. eigenvalues --   29.94309  29.97299  29.98860  30.04388  30.09084
  Beta virt. eigenvalues --   30.12629  30.14192  30.27420  30.39685  36.56987
  Beta virt. eigenvalues --   36.58404  36.60411  36.62825  36.65050  36.66910
  Beta virt. eigenvalues --   36.70577  36.72313  36.81572  36.83664  36.88905
  Beta virt. eigenvalues --   36.90306
          Condensed to atoms (all electrons):
              1          2          3          4          5          6
     1  C    5.113660   0.524124  -0.042229   0.033026   0.008632  -0.055555
     2  C    0.524124   4.761166   0.497994  -0.010858   0.002952   0.019047
     3  C   -0.042229   0.497994   4.851139   0.481092   0.002028  -0.016962
     4  C    0.033026  -0.010858   0.481092   5.084784   0.342275  -0.087007
     5  C    0.008632   0.002952   0.002028   0.342275   5.276242  -0.073217
     6  C   -0.055555   0.019047  -0.016962  -0.087007  -0.073217   5.734655
     7  C    0.003433  -0.004853   0.000283   0.011159  -0.020654   0.309154
     8  C    0.000223  -0.000441  -0.000328   0.001567  -0.006763  -0.136540
     9  C    0.000303   0.000177  -0.000523  -0.003467   0.029758  -0.102873
[...]
     4  C    0.000000   0.000000   0.000000   0.000000  -0.000002   0.000004
     5  C    0.000001   0.000000   0.000000  -0.000002  -0.000146   0.000475
     6  C   -0.000028   0.000003   0.000002   0.000044   0.000025  -0.000342
     7  C   -0.000027   0.000000  -0.000001   0.000000  -0.000004   0.000010
     8  C   -0.000887   0.000010   0.000002   0.000000  -0.000005  -0.000002
     9  C    0.001399   0.000045  -0.000093  -0.000031   0.000082   0.000002
    10  C   -0.000016  -0.000164   0.000137  -0.000049  -0.000004   0.000000
    11  C    0.000051   0.000385   0.000080   0.000047   0.000006   0.000000
    12  C    0.000149   0.000346   0.000492   0.000041  -0.000015   0.000000
    13  C   -0.000075   0.000021  -0.000051   0.000347  -0.000036  -0.000001
    14  C    0.000189  -0.000027   0.000216   0.000799   0.000017  -0.000024
    15  C    0.000025  -0.000014  -0.000030  -0.000440   0.000044   0.000655
    16  C   -0.000002   0.000001  -0.000002   0.000016   0.001427  -0.000586
    17  C    0.000000   0.000000   0.000000  -0.000033  -0.000269   0.001045
    18  C    0.000000   0.000000   0.000000   0.000006   0.000240   0.000978
    19  H    0.000000   0.000000   0.000000   0.000000   0.000000   0.000066
    20  H    0.000000   0.000000   0.000000   0.000000   0.000000   0.000000
    21  H    0.000000   0.000000   0.000000   0.000000   0.000000   0.000000
    22  H    0.000000   0.000000   0.000000   0.000000   0.000000   0.000000
    23  H    0.000000   0.000000   0.000000   0.000000   0.000000   0.000000
    24  H    0.000066   0.000000   0.000000   0.000000   0.000000   0.000000
    25  H   -0.006819   0.000002   0.000002   0.000000   0.000000   0.000000
    26  H    0.000002  -0.000107   0.000074   0.000001   0.000000   0.000000
    27  H    0.000002   0.000074  -0.004573   0.000012  -0.000001   0.000000
    28  H    0.000000   0.000001   0.000012  -0.004184  -0.000050   0.000000
    29  H    0.000000   0.000000  -0.000001  -0.000050  -0.002269   0.000029
    30  H    0.000000   0.000000   0.000000   0.000000   0.000029  -0.012289
 Mulliken atomic spin densities:
              1
     1  C    0.127703
     2  C   -0.020767
     3  C    0.069156
     4  C    0.072973
     5  C   -0.012942
     6  C    0.105887
     7  C    0.007264
     8  C    0.218814
     9  C   -0.043804
    10  C    0.127703
    11  C   -0.020767
    12  C    0.069156
    13  C    0.072973
    14  C   -0.012942
    15  C    0.105887
    16  C    0.007264
    17  C    0.218814
    18  C   -0.043804
    19  H   -0.005971
    20  H    0.000575
    21  H   -0.003733
    22  H   -0.003475
    23  H   -0.000938
    24  H   -0.010741
    25  H   -0.005971
    26  H    0.000575
    27  H   -0.003733
    28  H   -0.003475
    29  H   -0.000938
    30  H   -0.010741
 Sum of Mulliken spin densities=   1.00000
 Electronic spatial extent (au):  <R**2>=  4773.9256
 Charge=     1.0000 electrons
 Dipole moment (field-independent basis, Debye):
    X=     0.0000    Y=     0.0000    Z=     0.0000  Tot=     0.0000
 Quadrupole moment (field-independent basis, Debye-Ang):
   XX=   -69.6647   YY=   -32.5397   ZZ=  -106.9420
   XY=     4.1458   XZ=     0.0000   YZ=     0.0000
 Traceless Quadrupole moment (field-independent basis, Debye-Ang):
   XX=     0.0507   YY=    37.1758   ZZ=   -37.2265
   XY=     4.1458   XZ=     0.0000   YZ=     0.0000
 Octapole moment (field-independent basis, Debye-Ang**2):
  XXX=     0.0000  YYY=     0.0000  ZZZ=     0.0000  XYY=     0.0000
  XXY=     0.0000  XXZ=     0.0000  XZZ=     0.0000  YZZ=     0.0000
  YYZ=     0.0000  XYZ=     0.0000
 Hexadecapole moment (field-independent basis, Debye-Ang**3):
 XXXX= -1032.9034 YYYY= -3500.1788 ZZZZ=  -116.9257 XXXY=  -199.4148
 XXXZ=     0.0000 YYYX=   -93.6626 YYYZ=     0.0000 ZZZX=     0.0000
 ZZZY=     0.0000 XXYY=  -809.0468 XXZZ=  -251.2845 YYZZ=  -969.5853
 XXYZ=     0.0000 YYXZ=     0.0000 ZZXY=   -93.9970
 N-N= 1.130698456320D+03 E-N=-3.848303696913D+03  KE= 6.871216115114D+02
                          Isotropic Fermi Contact Couplings
        Atom                 a.u.       MegaHertz       Gauss      10(-4) cm-1
     1  C(13)              0.00925      10.39706       3.70993       3.46809
     2  C(13)             -0.00576      -6.47446      -2.31025      -2.15965
     3  C(13)              0.00318       3.57614       1.27605       1.19287
     4  C(13)              0.00221       2.48861       0.88800       0.83011
     5  C(13)             -0.00397      -4.46453      -1.59306      -1.48921
     6  C(13)              0.00481       5.40855       1.92991       1.80410
     7  C(13)             -0.00774      -8.70220      -3.10516      -2.90274
     8  C(13)              0.01478      16.61083       5.92716       5.54078
     9  C(13)             -0.01081     -12.14714      -4.33440      -4.05185
    10  C(13)              0.00925      10.39706       3.70993       3.46809
    11  C(13)             -0.00576      -6.47446      -2.31025      -2.15965
    12  C(13)              0.00318       3.57614       1.27605       1.19287
    13  C(13)              0.00221       2.48861       0.88800       0.83011
    14  C(13)             -0.00397      -4.46453      -1.59306      -1.48921
    15  C(13)              0.00481       5.40855       1.92991       1.80410
    16  C(13)             -0.00774      -8.70220      -3.10516      -2.90274
    17  C(13)              0.01478      16.61083       5.92716       5.54078
    18  C(13)             -0.01081     -12.14714      -4.33440      -4.05185
    19  H(1)              -0.00196      -8.76428      -3.12731      -2.92345
    20  H(1)               0.00016       0.72387       0.25830       0.24146
    21  H(1)              -0.00116      -5.20029      -1.85559      -1.73463
    22  H(1)              -0.00105      -4.69607      -1.67567      -1.56644
    23  H(1)              -0.00025      -1.10948      -0.39589      -0.37008
    24  H(1)              -0.00337     -15.08152      -5.38146      -5.03065
    25  H(1)              -0.00196      -8.76428      -3.12731      -2.92345
    26  H(1)               0.00016       0.72387       0.25830       0.24146
    27  H(1)              -0.00116      -5.20029      -1.85559      -1.73463
    28  H(1)              -0.00105      -4.69607      -1.67567      -1.56644
    29  H(1)              -0.00025      -1.10948      -0.39589      -0.37008
    30  H(1)              -0.00337     -15.08152      -5.38146      -5.03065
 --------------------------------------------------------
       Center         ----  Spin Dipole Couplings  ----
                      3XX-RR        3YY-RR        3ZZ-RR
 --------------------------------------------------------
     1   Atom       -0.073015     -0.073138      0.146153
     2   Atom        0.009725      0.006754     -0.016479
     3   Atom       -0.041209     -0.038884      0.080092
     4   Atom       -0.041688     -0.036510      0.078197
     5   Atom       -0.000800      0.004260     -0.003460
     6   Atom       -0.068178     -0.066864      0.135042
     7   Atom       -0.009691     -0.001383      0.011074
     8   Atom       -0.126334     -0.124076      0.250410
     9   Atom        0.021056      0.026185     -0.047241
    10   Atom       -0.073015     -0.073138      0.146153
    11   Atom        0.009725      0.006754     -0.016479
    12   Atom       -0.041209     -0.038884      0.080092
    13   Atom       -0.041688     -0.036510      0.078197
    14   Atom       -0.000800      0.004260     -0.003460
    15   Atom       -0.068178     -0.066864      0.135042
    16   Atom       -0.009691     -0.001383      0.011074
    17   Atom       -0.126334     -0.124076      0.250410
    18   Atom        0.021056      0.026185     -0.047241
    19   Atom        0.005736     -0.003222     -0.002514
    20   Atom        0.000248      0.001817     -0.002065
    21   Atom        0.001313      0.000363     -0.001676
    22   Atom        0.002818     -0.000369     -0.002448
    23   Atom       -0.000200      0.003886     -0.003686
    24   Atom        0.008261     -0.005270     -0.002991
    25   Atom        0.005736     -0.003222     -0.002514
    26   Atom        0.000248      0.001817     -0.002065
    27   Atom        0.001313      0.000363     -0.001676
    28   Atom        0.002818     -0.000369     -0.002448
    29   Atom       -0.000200      0.003886     -0.003686
    30   Atom        0.008261     -0.005270     -0.002991
 --------------------------------------------------------
                        XY            XZ            YZ
 --------------------------------------------------------
     1   Atom        0.000193      0.000000      0.000000
     2   Atom        0.001515      0.000000      0.000000
     3   Atom        0.000983      0.000000      0.000000
     4   Atom        0.000537      0.000000      0.000000
     5   Atom        0.003615      0.000000      0.000000
     6   Atom        0.000283      0.000000      0.000000
     7   Atom       -0.003004      0.000000      0.000000
     8   Atom       -0.002159      0.000000      0.000000
     9   Atom        0.003774      0.000000      0.000000
    10   Atom        0.000193      0.000000      0.000000
    11   Atom        0.001515      0.000000      0.000000
    12   Atom        0.000983      0.000000      0.000000
    13   Atom        0.000537      0.000000      0.000000
    14   Atom        0.003615      0.000000      0.000000
    15   Atom        0.000283      0.000000      0.000000
    16   Atom       -0.003004      0.000000      0.000000
    17   Atom       -0.002159      0.000000      0.000000
    18   Atom        0.003774      0.000000      0.000000
    19   Atom       -0.007453      0.000000      0.000000
    20   Atom        0.001886      0.000000      0.000000
    21   Atom        0.006903      0.000000      0.000000
    22   Atom       -0.004610      0.000000      0.000000
    23   Atom        0.003900      0.000000      0.000000
    24   Atom       -0.015356      0.000000      0.000000
    25   Atom       -0.007453      0.000000      0.000000
    26   Atom        0.001886      0.000000      0.000000
    27   Atom        0.006903      0.000000      0.000000
    28   Atom       -0.004610      0.000000      0.000000
    29   Atom        0.003900      0.000000      0.000000
    30   Atom       -0.015356      0.000000      0.000000
 --------------------------------------------------------


 ---------------------------------------------------------------------------------
              Anisotropic Spin Dipole Couplings in Principal Axis System
 ---------------------------------------------------------------------------------

       Atom             a.u.   MegaHertz   Gauss  10(-4) cm-1        Axes

              Baa    -0.0733    -9.833    -3.509    -3.280 -0.5897  0.8076  0.0000
     1 C(13)  Bbb    -0.0729    -9.779    -3.489    -3.262  0.8076  0.5897  0.0000
              Bcc     0.1462    19.612     6.998     6.542  0.0000  0.0000  1.0000
 
              Baa    -0.0165    -2.211    -0.789    -0.738  0.0000  0.0000  1.0000
     2 C(13)  Bbb     0.0061     0.821     0.293     0.274 -0.3873  0.9220  0.0000
              Bcc     0.0104     1.390     0.496     0.464  0.9220  0.3873  0.0000
 
              Baa    -0.0416    -5.578    -1.990    -1.861  0.9390 -0.3438  0.0000
     3 C(13)  Bbb    -0.0385    -5.169    -1.845    -1.724  0.3438  0.9390  0.0000
              Bcc     0.0801    10.748     3.835     3.585  0.0000  0.0000  1.0000
 
              Baa    -0.0417    -5.601    -1.999    -1.868  0.9948 -0.1020  0.0000
     4 C(13)  Bbb    -0.0365    -4.892    -1.746    -1.632  0.1020  0.9948  0.0000
              Bcc     0.0782    10.493     3.744     3.500  0.0000  0.0000  1.0000
 
              Baa    -0.0035    -0.464    -0.166    -0.155  0.0000  0.0000  1.0000
     5 C(13)  Bbb    -0.0027    -0.360    -0.128    -0.120  0.8870 -0.4618  0.0000
              Bcc     0.0061     0.824     0.294     0.275  0.4618  0.8870  0.0000
 
              Baa    -0.0682    -9.157    -3.267    -3.054  0.9794 -0.2019  0.0000
     6 C(13)  Bbb    -0.0668    -8.965    -3.199    -2.990  0.2019  0.9794  0.0000
              Bcc     0.1350    18.121     6.466     6.045  0.0000  0.0000  1.0000
 
              Baa    -0.0107    -1.431    -0.511    -0.477  0.9514  0.3079  0.0000
     7 C(13)  Bbb    -0.0004    -0.055    -0.020    -0.018 -0.3079  0.9514  0.0000
              Bcc     0.0111     1.486     0.530     0.496  0.0000  0.0000  1.0000
 
              Baa    -0.1276   -17.128    -6.112    -5.713  0.8554  0.5180  0.0000
     8 C(13)  Bbb    -0.1228   -16.474    -5.878    -5.495 -0.5180  0.8554  0.0000
              Bcc     0.2504    33.603    11.990    11.209  0.0000  0.0000  1.0000
 
              Baa    -0.0472    -6.339    -2.262    -2.115  0.0000  0.0000  1.0000
     9 C(13)  Bbb     0.0191     2.557     0.913     0.853  0.8838 -0.4679  0.0000
              Bcc     0.0282     3.782     1.350     1.262  0.4679  0.8838  0.0000
 
              Baa    -0.0733    -9.833    -3.509    -3.280 -0.5897  0.8076  0.0000
    10 C(13)  Bbb    -0.0729    -9.779    -3.489    -3.262  0.8076  0.5897  0.0000
              Bcc     0.1462    19.612     6.998     6.542  0.0000  0.0000  1.0000
 
              Baa    -0.0165    -2.211    -0.789    -0.738  0.0000  0.0000  1.0000
    11 C(13)  Bbb     0.0061     0.821     0.293     0.274 -0.3873  0.9220  0.0000
              Bcc     0.0104     1.390     0.496     0.464  0.9220  0.3873  0.0000
 
              Baa    -0.0416    -5.578    -1.990    -1.861  0.9390 -0.3438  0.0000
    12 C(13)  Bbb    -0.0385    -5.169    -1.845    -1.724  0.3438  0.9390  0.0000
              Bcc     0.0801    10.748     3.835     3.585  0.0000  0.0000  1.0000
 
              Baa    -0.0417    -5.601    -1.999    -1.868  0.9948 -0.1020  0.0000
    13 C(13)  Bbb    -0.0365    -4.892    -1.746    -1.632  0.1020  0.9948  0.0000
              Bcc     0.0782    10.493     3.744     3.500  0.0000  0.0000  1.0000
 
              Baa    -0.0035    -0.464    -0.166    -0.155  0.0000  0.0000  1.0000
    14 C(13)  Bbb    -0.0027    -0.360    -0.128    -0.120  0.8870 -0.4618  0.0000
              Bcc     0.0061     0.824     0.294     0.275  0.4618  0.8870  0.0000
 
              Baa    -0.0682    -9.157    -3.267    -3.054  0.9794 -0.2019  0.0000
    15 C(13)  Bbb    -0.0668    -8.965    -3.199    -2.990  0.2019  0.9794  0.0000
              Bcc     0.1350    18.121     6.466     6.045  0.0000  0.0000  1.0000
 
              Baa    -0.0107    -1.431    -0.511    -0.477  0.9514  0.3079  0.0000
    16 C(13)  Bbb    -0.0004    -0.055    -0.020    -0.018 -0.3079  0.9514  0.0000
              Bcc     0.0111     1.486     0.530     0.496  0.0000  0.0000  1.0000
 
              Baa    -0.1276   -17.128    -6.112    -5.713  0.8554  0.5180  0.0000
    17 C(13)  Bbb    -0.1228   -16.474    -5.878    -5.495 -0.5180  0.8554  0.0000
              Bcc     0.2504    33.603    11.990    11.209  0.0000  0.0000  1.0000
 
              Baa    -0.0472    -6.339    -2.262    -2.115  0.0000  0.0000  1.0000
    18 C(13)  Bbb     0.0191     2.557     0.913     0.853  0.8838 -0.4679  0.0000
              Bcc     0.0282     3.782     1.350     1.262  0.4679  0.8838  0.0000
 
              Baa    -0.0074    -3.969    -1.416    -1.324  0.4924  0.8704  0.0000
    19 H(1)   Bbb    -0.0025    -1.341    -0.479    -0.447  0.0000  0.0000  1.0000
              Bcc     0.0100     5.310     1.895     1.771  0.8704 -0.4924  0.0000
 
              Baa    -0.0021    -1.102    -0.393    -0.368  0.0000  0.0000  1.0000
    20 H(1)   Bbb    -0.0010    -0.539    -0.192    -0.180  0.8319 -0.5549  0.0000
              Bcc     0.0031     1.641     0.586     0.547  0.5549  0.8319  0.0000
 
              Baa    -0.0061    -3.245    -1.158    -1.082 -0.6824  0.7310  0.0000
    21 H(1)   Bbb    -0.0017    -0.894    -0.319    -0.298  0.0000  0.0000  1.0000
              Bcc     0.0078     4.139     1.477     1.381  0.7310  0.6824  0.0000
 
              Baa    -0.0037    -1.949    -0.696    -0.650  0.5802  0.8145  0.0000
    22 H(1)   Bbb    -0.0024    -1.306    -0.466    -0.436  0.0000  0.0000  1.0000
              Bcc     0.0061     3.256     1.162     1.086  0.8145 -0.5802  0.0000
 
              Baa    -0.0037    -1.967    -0.702    -0.656  0.0000  0.0000  1.0000
    23 H(1)   Bbb    -0.0026    -1.366    -0.487    -0.456  0.8556 -0.5176  0.0000
              Bcc     0.0062     3.332     1.189     1.112  0.5176  0.8556  0.0000
 
              Baa    -0.0153    -8.155    -2.910    -2.720  0.5463  0.8376  0.0000
    24 H(1)   Bbb    -0.0030    -1.596    -0.569    -0.532  0.0000  0.0000  1.0000
              Bcc     0.0183     9.751     3.479     3.253  0.8376 -0.5463  0.0000
 
              Baa    -0.0074    -3.969    -1.416    -1.324  0.4924  0.8704  0.0000
    25 H(1)   Bbb    -0.0025    -1.341    -0.479    -0.447  0.0000  0.0000  1.0000
              Bcc     0.0100     5.310     1.895     1.771  0.8704 -0.4924  0.0000
 
              Baa    -0.0021    -1.102    -0.393    -0.368  0.0000  0.0000  1.0000
    26 H(1)   Bbb    -0.0010    -0.539    -0.192    -0.180  0.8319 -0.5549  0.0000
              Bcc     0.0031     1.641     0.586     0.547  0.5549  0.8319  0.0000
 
              Baa    -0.0061    -3.245    -1.158    -1.082 -0.6824  0.7310  0.0000
    27 H(1)   Bbb    -0.0017    -0.894    -0.319    -0.298  0.0000  0.0000  1.0000
              Bcc     0.0078     4.139     1.477     1.381  0.7310  0.6824  0.0000
 
              Baa    -0.0037    -1.949    -0.696    -0.650  0.5802  0.8145  0.0000
    28 H(1)   Bbb    -0.0024    -1.306    -0.466    -0.436  0.0000  0.0000  1.0000
              Bcc     0.0061     3.256     1.162     1.086  0.8145 -0.5802  0.0000
 
              Baa    -0.0037    -1.967    -0.702    -0.656  0.0000  0.0000  1.0000
    29 H(1)   Bbb    -0.0026    -1.366    -0.487    -0.456  0.8556 -0.5176  0.0000
              Bcc     0.0062     3.332     1.189     1.112  0.5176  0.8556  0.0000
 
              Baa    -0.0153    -8.155    -2.910    -2.720  0.5463  0.8376  0.0000
    30 H(1)   Bbb    -0.0030    -1.596    -0.569    -0.532  0.0000  0.0000  1.0000
              Bcc     0.0183     9.751     3.479     3.253  0.8376 -0.5463  0.0000
 

 ---------------------------------------------------------------------------------

 Calculating spin-rotation constants.
 Leave Link  601 at Fri Oct 15 21:39:01 2010, MaxMem=  196608000 cpu:      28.0
 (Enter C:\G03W\l9999.exe)
 1|1|UNPC-UNK|SP|UB3LYP|EPR-II|C18H12(1+,2)|PCUSER|15-Oct-2010|0||#P NM
 R=GIAO UB3LYP/EPR-II GUESS=MIX SCF=(TIGHT,DSYMM) INTEGRAL=(GRID=ULTRAF
 INE)||Chrysene cation radical||1,2|C,0,-0.666986,3.939778,0.|C,0,0.515
 037,4.68037,0.|C,0,1.7501,4.006021,0.|C,0,1.804534,2.603324,0.|C,0,0.6
 24965,1.827252,0.|C,0,0.628346,0.36343,0.|C,0,1.833097,-0.372833,0.|C,
 0,1.836391,-1.765856,0.|C,0,0.628346,-2.519335,0.|C,0,0.666986,-3.9397
 78,0.|C,0,-0.515037,-4.68037,0.|C,0,-1.7501,-4.006021,0.|C,0,-1.804534
 ,-2.603324,0.|C,0,-0.624965,-1.827252,0.|C,0,-0.628346,-0.36343,0.|C,0
 ,-1.833097,0.372833,0.|C,0,-1.836391,1.765856,0.|C,0,-0.628346,2.51933
 5,0.|H,0,-1.630574,4.441286,0.|H,0,0.484321,5.764905,0.|H,0,2.675528,4
 .573505,0.|H,0,2.780751,2.132961,0.|H,0,2.78656,0.140101,0.|H,0,2.7847
 69,-2.296351,0.|H,0,1.630574,-4.441286,0.|H,0,-0.484321,-5.764905,0.|H
 ,0,-2.675528,-4.573505,0.|H,0,-2.780751,-2.132961,0.|H,0,-2.78656,-0.1
 40101,0.|H,0,-2.784769,2.296351,0.||Version=IA32W-G03RevC.02|State=2-A
 U|HF=-692.9963056|S2=0.763839|S2-1=0.|S2A=0.750152|RMSD=1.779e-009|Dip
 ole=0.,0.,0.|PG=C02H [SGH(C18H12)]||@


 WE THE UNWILLING
 LED BY THE UNQUALIFIED
 HAVE BEEN DOING THE UNBELIEVABLE SO LONG WITH SO LITTLE
 THAT WE NOW ATTEMPT THE IMPOSSIBLE WITH NOTHING.

                                    -- ANONYMOUS
 Job cpu time:  0 days  1 hours 20 minutes  2.0 seconds.
 File lengths (MBytes):  RWF=    157 Int=      0 D2E=      0 Chk=     15 Scr=      1
 Normal termination of Gaussian 03 at Fri Oct 15 21:39:02 2010.
