 Entering Gaussian System, Link 0=g03
 Input=g03_input.com
 Output=g03_input.log
 Initial command:
 /data/hamilton/dch0ik/g03/l1.exe /tmp/Gau-32321.inp -scrdir=/tmp/
 Entering Link 1 = /data/hamilton/dch0ik/g03/l1.exe PID=     32322.
  
 Copyright (c) 1988,1990,1992,1993,1995,1998,2003,2004, Gaussian, Inc.
                  All Rights Reserved.
  
 This is the Gaussian(R) 03 program.  It is based on the
 the Gaussian(R) 98 system (copyright 1998, Gaussian, Inc.),
 the Gaussian(R) 94 system (copyright 1995, Gaussian, Inc.),
 the Gaussian 92(TM) system (copyright 1992, Gaussian, Inc.),
 the Gaussian 90(TM) system (copyright 1990, Gaussian, Inc.),
 the Gaussian 88(TM) system (copyright 1988, Gaussian, Inc.),
 the Gaussian 86(TM) system (copyright 1986, Carnegie Mellon
 University), and the Gaussian 82(TM) system (copyright 1983,
 Carnegie Mellon University). Gaussian is a federally registered
 trademark of Gaussian, Inc.
  
 This software contains proprietary and confidential information,
 including trade secrets, belonging to Gaussian, Inc.
  
 This software is provided under written license and may be
 used, copied, transmitted, or stored only in accord with that
 written license.
  
 The following legend is applicable only to US Government
 contracts under FAR:
  
                    RESTRICTED RIGHTS LEGEND
  
 Use, reproduction and disclosure by the US Government is
 subject to restrictions as set forth in subparagraphs (a)
 and (c) of the Commercial Computer Software - Restricted
 Rights clause in FAR 52.227-19.
  
 Gaussian, Inc.
 340 Quinnipiac St., Bldg. 40, Wallingford CT 06492
  
  
 ---------------------------------------------------------------
 Warning -- This program may not be used in any manner that
 competes with the business of Gaussian, Inc. or will provide
 assistance to any competitor of Gaussian, Inc.  The licensee
 of this program is prohibited from giving any competitor of
 Gaussian, Inc. access to this program.  By using this program,
 the user acknowledges that Gaussian, Inc. is engaged in the
 business of creating and licensing software in the field of
 computational chemistry and represents and warrants to the
 licensee that it is not a competitor of Gaussian, Inc. and that
 it will not use this program in any manner prohibited above.
 ---------------------------------------------------------------
  

 Cite this work as:
 Gaussian 03, Revision D.01,
 M. J. Frisch, G. W. Trucks, H. B. Schlegel, G. E. Scuseria, 
 M. A. Robb, J. R. Cheeseman, J. A. Montgomery, Jr., T. Vreven, 
 K. N. Kudin, J. C. Burant, J. M. Millam, S. S. Iyengar, J. Tomasi, 
 V. Barone, B. Mennucci, M. Cossi, G. Scalmani, N. Rega, 
 G. A. Petersson, H. Nakatsuji, M. Hada, M. Ehara, K. Toyota, 
 R. Fukuda, J. Hasegawa, M. Ishida, T. Nakajima, Y. Honda, O. Kitao, 
 H. Nakai, M. Klene, X. Li, J. E. Knox, H. P. Hratchian, J. B. Cross, 
 V. Bakken, C. Adamo, J. Jaramillo, R. Gomperts, R. E. Stratmann, 
 O. Yazyev, A. J. Austin, R. Cammi, C. Pomelli, J. W. Ochterski, 
 P. Y. Ayala, K. Morokuma, G. A. Voth, P. Salvador, J. J. Dannenberg, 
 V. G. Zakrzewski, S. Dapprich, A. D. Daniels, M. C. Strain, 
 O. Farkas, D. K. Malick, A. D. Rabuck, K. Raghavachari, 
 J. B. Foresman, J. V. Ortiz, Q. Cui, A. G. Baboul, S. Clifford, 
 J. Cioslowski, B. B. Stefanov, G. Liu, A. Liashenko, P. Piskorz, 
 I. Komaromi, R. L. Martin, D. J. Fox, T. Keith, M. A. Al-Laham, 
 C. Y. Peng, A. Nanayakkara, M. Challacombe, P. M. W. Gill, 
 B. Johnson, W. Chen, M. W. Wong, C. Gonzalez, and J. A. Pople, 
 Gaussian, Inc., Wallingford CT, 2004.
 
 ******************************************
 Gaussian 03:  IA32L-G03RevD.01 13-Oct-2005
                10-Jul-2009 
 ******************************************
 %Mem=400MB
 %Chk=cp.chk
 %NProcShared=2
 Will use up to    2 processors via shared memory.
 %NProcLinda=8
 Will use up to    8 processors via Linda.
 ----------------------------------------------------------------------
 #p opt=(tight,gdiis) ub3lyp/EPR-II scf=tight nosymm integral=(grid=ult
 rafine)
 ----------------------------------------------------------------------
 1/7=10,14=-1,18=20,19=11,26=3,38=1/1,3;
 2/9=110,15=1,17=6,18=5,40=1/2;
 3/5=21,11=2,16=1,25=1,30=1,74=-5,75=5/1,2,3;
 4/7=2/1;
 5/5=2,32=2,38=5/2;
 6/7=2,8=2,9=2,10=2,28=1/1;
 7/30=1/1,2,3,16;
 1/14=-1,18=20,19=11/3(3);
 2/9=110,15=1/2;
 6/7=2,8=2,9=2,10=2,19=2,28=1/1;
 99//99;
 2/9=110,15=1/2;
 3/5=21,11=2,16=1,25=1,30=1,74=-5,75=5/1,2,3;
 4/5=5,7=2,16=3/1;
 5/5=2,32=2,38=5/2;
 7/30=1/1,2,3,16;
 1/14=-1,18=20,19=11/3(-5);
 2/9=110,15=1/2;
 6/7=2,8=2,9=2,10=2,19=2,28=1/1;
 99/9=1/99;
 Leave Link    1 at Fri Jul 10 17:48:26 2009, MaxMem=   52428800 cpu:       0.4
 (Enter /data/hamilton/dch0ik/g03/l101.exe)
 --------------------
 Cyclopentyl radical.
 --------------------
 Symbolic Z-matrix:
 Charge =  0 Multiplicity = 2
 C                    -0.399    -1.1596    0.02 
 C                     1.12286  -1.1596    0.1 
 C                     1.59163   0.28826   0.01 
 C                     0.36389   1.17783  -0.13319 
 C                    -0.86821   0.28472  -0.10359 
 H                    -0.79096  -1.76205  -0.85751 
 H                     1.51148  -1.6942   -0.90328 
 H                     1.51622  -1.70033   0.89684 
 H                     2.13856   0.51996   0.94859 
 H                     2.30359   0.47144  -0.84322 
 H                     0.32821   1.9239    0.6998 
 H                     0.40301   1.75542  -1.09092 
 H                    -1.52059   0.54652   0.76707 
 H                    -1.47995   0.43234  -1.02879 
 
                    Isotopes and Nuclear Properties:
 (Nuclear quadrupole moments (NQMom) in fm**2, nuclear magnetic moments (NMagM)
  in nuclear magnetons)

  Atom         1           2           3           4           5           6           7           8           9          10
 IAtWgt=          12          12          12          12          12           1           1           1           1           1
 AtmWgt=  12.0000000  12.0000000  12.0000000  12.0000000  12.0000000   1.0078250   1.0078250   1.0078250   1.0078250   1.0078250
 NucSpn=           0           0           0           0           0           1           1           1           1           1
 AtZEff=   0.0000000   0.0000000   0.0000000   0.0000000   0.0000000   0.0000000   0.0000000   0.0000000   0.0000000   0.0000000
 NQMom=    0.0000000   0.0000000   0.0000000   0.0000000   0.0000000   0.0000000   0.0000000   0.0000000   0.0000000   0.0000000
 NMagM=    0.0000000   0.0000000   0.0000000   0.0000000   0.0000000   2.7928460   2.7928460   2.7928460   2.7928460   2.7928460

  Atom        11          12          13          14
 IAtWgt=           1           1           1           1
 AtmWgt=   1.0078250   1.0078250   1.0078250   1.0078250
 NucSpn=           1           1           1           1
 AtZEff=   0.0000000   0.0000000   0.0000000   0.0000000
 NQMom=    0.0000000   0.0000000   0.0000000   0.0000000
 NMagM=    2.7928460   2.7928460   2.7928460   2.7928460
 Leave Link  101 at Fri Jul 10 17:48:26 2009, MaxMem=   52428800 cpu:       0.1
 (Enter /data/hamilton/dch0ik/g03/l103.exe)

 GradGradGradGradGradGradGradGradGradGradGradGradGradGradGradGradGradGrad
 Berny optimization.
 Initialization pass.
                           ----------------------------
                           !    Initial Parameters    !
                           ! (Angstroms and Degrees)  !
 --------------------------                            --------------------------
 ! Name  Definition              Value          Derivative Info.                !
 --------------------------------------------------------------------------------
 ! R1    R(1,2)                  1.524          estimate D2E/DX2                !
 ! R2    R(1,5)                  1.5236         estimate D2E/DX2                !
 ! R3    R(1,6)                  1.1343         estimate D2E/DX2                !
 ! R4    R(2,3)                  1.5245         estimate D2E/DX2                !
 ! R5    R(2,7)                  1.2014         estimate D2E/DX2                !
 ! R6    R(2,8)                  1.0402         estimate D2E/DX2                !
 ! R7    R(3,4)                  1.5229         estimate D2E/DX2                !
 ! R8    R(3,9)                  1.1108         estimate D2E/DX2                !
 ! R9    R(3,10)                 1.1262         estimate D2E/DX2                !
 ! R10   R(4,5)                  1.522          estimate D2E/DX2                !
 ! R11   R(4,11)                 1.1188         estimate D2E/DX2                !
 ! R12   R(4,12)                 1.1191         estimate D2E/DX2                !
 ! R13   R(5,13)                 1.119          estimate D2E/DX2                !
 ! R14   R(5,14)                 1.1189         estimate D2E/DX2                !
 ! A1    A(2,1,5)              108.1667         estimate D2E/DX2                !
 ! A2    A(2,1,6)              112.6869         estimate D2E/DX2                !
 ! A3    A(5,1,6)              109.5303         estimate D2E/DX2                !
 ! A4    A(1,2,3)              107.696          estimate D2E/DX2                !
 ! A5    A(1,2,7)              106.2119         estimate D2E/DX2                !
 ! A6    A(1,2,8)              114.6986         estimate D2E/DX2                !
 ! A7    A(3,2,7)              105.8927         estimate D2E/DX2                !
 ! A8    A(3,2,8)              115.0005         estimate D2E/DX2                !
 ! A9    A(7,2,8)              106.6223         estimate D2E/DX2                !
 ! A10   A(2,3,4)              108.205          estimate D2E/DX2                !
 ! A11   A(2,3,9)              107.4352         estimate D2E/DX2                !
 ! A12   A(2,3,10)             113.1769         estimate D2E/DX2                !
 ! A13   A(4,3,9)              110.7674         estimate D2E/DX2                !
 ! A14   A(4,3,10)             110.0845         estimate D2E/DX2                !
 ! A15   A(9,3,10)             107.1549         estimate D2E/DX2                !
 ! A16   A(3,4,5)              107.9404         estimate D2E/DX2                !
 ! A17   A(3,4,11)             110.1957         estimate D2E/DX2                !
 ! A18   A(3,4,12)             110.7176         estimate D2E/DX2                !
 ! A19   A(5,4,11)             110.5486         estimate D2E/DX2                !
 ! A20   A(5,4,12)             110.3522         estimate D2E/DX2                !
 ! A21   A(11,4,12)            107.1046         estimate D2E/DX2                !
 ! A22   A(1,5,4)              107.9706         estimate D2E/DX2                !
 ! A23   A(1,5,13)             109.7671         estimate D2E/DX2                !
 ! A24   A(1,5,14)             111.1306         estimate D2E/DX2                !
 ! A25   A(4,5,13)             110.474          estimate D2E/DX2                !
 ! A26   A(4,5,14)             110.431          estimate D2E/DX2                !
 ! A27   A(13,5,14)            107.0824         estimate D2E/DX2                !
 ! D1    D(5,1,2,3)             -0.6082         estimate D2E/DX2                !
 ! D2    D(5,1,2,7)           -113.6939         estimate D2E/DX2                !
 ! D3    D(5,1,2,8)            128.814          estimate D2E/DX2                !
 ! D4    D(6,1,2,3)            120.6253         estimate D2E/DX2                !
 ! D5    D(6,1,2,7)              7.5395         estimate D2E/DX2                !
 ! D6    D(6,1,2,8)           -109.9526         estimate D2E/DX2                !
 ! D7    D(2,1,5,4)              1.3088         estimate D2E/DX2                !
 ! D8    D(2,1,5,13)          -119.176          estimate D2E/DX2                !
 ! D9    D(2,1,5,14)           122.5602         estimate D2E/DX2                !
 ! D10   D(6,1,5,4)           -121.8599         estimate D2E/DX2                !
 ! D11   D(6,1,5,13)           117.6553         estimate D2E/DX2                !
 ! D12   D(6,1,5,14)            -0.6085         estimate D2E/DX2                !
 ! D13   D(1,2,3,4)             -0.3237         estimate D2E/DX2                !
 ! D14   D(1,2,3,9)            119.3143         estimate D2E/DX2                !
 ! D15   D(1,2,3,10)          -122.6024         estimate D2E/DX2                !
 ! D16   D(7,2,3,4)            112.9764         estimate D2E/DX2                !
 ! D17   D(7,2,3,9)           -127.3855         estimate D2E/DX2                !
 ! D18   D(7,2,3,10)            -9.3022         estimate D2E/DX2                !
 ! D19   D(8,2,3,4)           -129.5753         estimate D2E/DX2                !
 ! D20   D(8,2,3,9)             -9.9372         estimate D2E/DX2                !
 ! D21   D(8,2,3,10)           108.1461         estimate D2E/DX2                !
 ! D22   D(2,3,4,5)              1.1323         estimate D2E/DX2                !
 ! D23   D(2,3,4,11)           121.9431         estimate D2E/DX2                !
 ! D24   D(2,3,4,12)          -119.7512         estimate D2E/DX2                !
 ! D25   D(9,3,4,5)           -116.387          estimate D2E/DX2                !
 ! D26   D(9,3,4,11)             4.4239         estimate D2E/DX2                !
 ! D27   D(9,3,4,12)           122.7295         estimate D2E/DX2                !
 ! D28   D(10,3,4,5)           125.2841         estimate D2E/DX2                !
 ! D29   D(10,3,4,11)         -113.9051         estimate D2E/DX2                !
 ! D30   D(10,3,4,12)            4.4006         estimate D2E/DX2                !
 ! D31   D(3,4,5,1)             -1.5053         estimate D2E/DX2                !
 ! D32   D(3,4,5,13)           118.5357         estimate D2E/DX2                !
 ! D33   D(3,4,5,14)          -123.1904         estimate D2E/DX2                !
 ! D34   D(11,4,5,1)          -122.0955         estimate D2E/DX2                !
 ! D35   D(11,4,5,13)           -2.0545         estimate D2E/DX2                !
 ! D36   D(11,4,5,14)          116.2194         estimate D2E/DX2                !
 ! D37   D(12,4,5,1)           119.606          estimate D2E/DX2                !
 ! D38   D(12,4,5,13)         -120.353          estimate D2E/DX2                !
 ! D39   D(12,4,5,14)           -2.0791         estimate D2E/DX2                !
 --------------------------------------------------------------------------------
 Trust Radius=3.00D-01 FncErr=1.00D-07 GrdErr=1.00D-06
 Number of steps in this run=  90 maximum allowed number of steps= 100.
 GradGradGradGradGradGradGradGradGradGradGradGradGradGradGradGradGradGrad

 Leave Link  103 at Fri Jul 10 17:48:27 2009, MaxMem=   52428800 cpu:       0.1
 (Enter /data/hamilton/dch0ik/g03/l202.exe)
                          Input orientation:                          
 ---------------------------------------------------------------------
 Center     Atomic     Atomic              Coordinates (Angstroms)
 Number     Number      Type              X           Y           Z
 ---------------------------------------------------------------------
    1          6             0       -0.399002   -1.159601    0.020000
    2          6             0        1.122856   -1.159601    0.100000
    3          6             0        1.591629    0.288264    0.010000
    4          6             0        0.363889    1.177832   -0.133186
    5          6             0       -0.868208    0.284719   -0.103590
    6          1             0       -0.790964   -1.762046   -0.857508
    7          1             0        1.511483   -1.694199   -0.903280
    8          1             0        1.516223   -1.700333    0.896837
    9          1             0        2.138564    0.519957    0.948588
   10          1             0        2.303590    0.471440   -0.843216
   11          1             0        0.328212    1.923902    0.699798
   12          1             0        0.403010    1.755417   -1.090922
   13          1             0       -1.520586    0.546521    0.767074
   14          1             0       -1.479954    0.432341   -1.028793
 ---------------------------------------------------------------------
                    Distance matrix (angstroms):
                    1          2          3          4          5
     1  C    0.000000
     2  C    1.523959   0.000000
     3  C    2.461509   1.524520   0.000000
     4  C    2.463547   2.468603   1.522885   0.000000
     5  C    1.523643   2.468166   2.462461   1.522035   0.000000
     6  H    1.134281   2.223166   3.260842   3.240557   2.182569
     7  H    2.188194   1.201414   2.184185   3.187253   3.196647
     8  H    2.174700   1.040230   2.178689   3.266903   3.259877
     9  H    3.181577   2.138382   1.110751   2.180024   3.194228
    10  H    3.272528   2.223530   1.126241   2.183019   3.262241
    11  H    3.240209   3.240248   2.178843   1.118819   2.182607
    12  H    3.220978   3.230140   2.185722   1.119104   2.180315
    13  H    2.174149   3.216151   3.213369   2.181804   1.119014
    14  H    2.191507   3.253164   3.245685   2.181198   1.118940
                    6          7          8          9         10
     6  H    0.000000
     7  H    2.303901   0.000000
     8  H    2.899077   1.800134   0.000000
     9  H    4.129365   2.953834   2.306442   0.000000
    10  H    3.816403   2.306737   2.892115   1.800041   0.000000
    11  H    4.154993   4.130453   3.819067   2.304416   2.897008
    12  H    3.721908   3.628191   4.139159   2.949256   2.306981
    13  H    2.915664   4.123633   3.779868   3.663746   4.150059
    14  H    2.306378   3.672414   4.151316   4.124486   3.788294
                   11         12         13         14
    11  H    0.000000
    12  H    1.800183   0.000000
    13  H    2.306460   2.934928   0.000000
    14  H    2.912429   2.302161   1.799952   0.000000
 Symmetry turned off by external request.
 Stoichiometry    C5H9(2)
 Framework group  C1[X(C5H9)]
 Deg. of freedom    36
 Full point group                 C1
 Rotational constants (GHZ):      6.9076867      6.5545926      3.7260539
 Leave Link  202 at Fri Jul 10 17:48:28 2009, MaxMem=   52428800 cpu:       0.1
 (Enter /data/hamilton/dch0ik/g03/l301.exe)
 Standard basis: EPR-II (5D, 7F)
 Integral buffers will be    262144 words long.
 Raffenetti 2 integral format.
 Two-electron integral symmetry is turned off.
   148 basis functions,   236 primitive gaussians,   153 cartesian basis functions
    20 alpha electrons       19 beta electrons
       nuclear repulsion energy       177.1620023516 Hartrees.
 IExCor= 402 DFT=T Ex=B+HF Corr=LYP ExCW=0 ScaHFX=  0.200000
 ScaDFX=  0.800000  0.720000  1.000000  0.810000
 IRadAn=      5 IRanWt=     -1 IRanGd=            0 ICorTp=0
 NAtoms=   14 NActive=   14 NUniq=   14 SFac= 7.50D-01 NAtFMM=  320 NAOKFM=F Big=F
 Leave Link  301 at Fri Jul 10 17:48:28 2009, MaxMem=   52428800 cpu:       0.1
 (Enter /data/hamilton/dch0ik/g03/linda-exe/l302.exel)
 NPDir=0 NMtPBC=     1 NCelOv=     1 NCel=       1 NClECP=     1 NCelD=      1
         NCelK=      1 NCelE2=     1 NClLst=     1 CellRange=     0.0.
 One-electron integrals computed using PRISM.
 NBasis=   148 RedAO= T  NBF=   148
 NBsUse=   148 1.00D-06 NBFU=   148
 Precomputing XC quadrature grid using
 IXCGrd= 2 IRadAn=           5 IRanWt=          -1 IRanGd=           0.
 NRdTot=    1178 NPtTot=      314080 NUsed=      319410 NTot=      319426
 NSgBfM=   148   148   148   148.
 Leave Link  302 at Fri Jul 10 17:48:31 2009, MaxMem=   52428800 cpu:       1.7
 (Enter /data/hamilton/dch0ik/g03/l303.exe)
 DipDrv:  MaxL=1.
 Leave Link  303 at Fri Jul 10 17:48:32 2009, MaxMem=   52428800 cpu:       0.1
 (Enter /data/hamilton/dch0ik/g03/l401.exe)
 Harris functional with IExCor=  402 diagonalized for initial guess.
 ExpMin= 4.79D-02 ExpMax= 4.23D+03 ExpMxC= 6.35D+02 IAcc=3 IRadAn=         5 AccDes= 0.00D+00
 HarFok:  IExCor= 402 AccDes= 0.00D+00 IRadAn=         5 IDoV=1
 ScaDFX=  1.000000  1.000000  1.000000  1.000000
 Harris En= -195.966381897233    
 <S**2> of initial guess= 0.7500
 Leave Link  401 at Fri Jul 10 17:48:41 2009, MaxMem=   52428800 cpu:      15.8
 (Enter /data/hamilton/dch0ik/g03/linda-exe/l502.exel)
 UHF open shell SCF:
 Requested convergence on RMS density matrix=1.00D-08 within 128 cycles.
 Requested convergence on MAX density matrix=1.00D-06.
 Requested convergence on             energy=1.00D-06.
 No special actions if energy rises.
 Using DIIS extrapolation, IDIIS=  1040.
 Two-electron integral symmetry not used.
       319409 words used for storage of precomputed grid.
 IEnd=    414168 IEndB=    414168 NGot=  52428800 MDV=  52054835
 LenX=  52054835
 Fock matrices will be formed incrementally for  20 cycles.

 Cycle   1  Pass 1  IDiag  1:
 Symmetry not used in FoFDir.
 MinBra= 0 MaxBra= 2 Meth= 1.
 IRaf=       0 NMat=   1 IRICut=       1 DoRegI=T DoRafI=F ISym2E= 0 JSym2E=0.
 E= -195.664124173012    
 DIIS: error= 3.25D-02 at cycle   1 NSaved=   1.
 NSaved= 1 IEnMin= 1 EnMin= -195.664124173012     IErMin= 1 ErrMin= 3.25D-02
 ErrMax= 3.25D-02 EMaxC= 1.00D-01 BMatC= 7.93D-01 BMatP= 7.93D-01
 IDIUse=3 WtCom= 6.75D-01 WtEn= 3.25D-01
 Coeff-Com:  0.100D+01
 Coeff-En:   0.100D+01
 Coeff:      0.100D+01
 Gap=     0.164 Goal=   None    Shift=    0.000
 Gap=     0.246 Goal=   None    Shift=    0.000
 GapD=    0.164 DampG=1.000 DampE=0.500 DampFc=0.5000 IDamp=-1.
 Damping current iteration by 5.00D-01
 RMSDP=7.60D-03 MaxDP=2.05D-01              OVMax= 2.28D-01

 Cycle   2  Pass 1  IDiag  1:
 RMSU=  3.52D-03    CP:  9.12D-01
 E= -195.745650997921     Delta-E=       -0.081526824909 Rises=F Damp=T
 DIIS: error= 1.15D-02 at cycle   2 NSaved=   2.
 NSaved= 2 IEnMin= 2 EnMin= -195.745650997921     IErMin= 2 ErrMin= 1.15D-02
 ErrMax= 1.15D-02 EMaxC= 1.00D-01 BMatC= 6.19D-02 BMatP= 7.93D-01
 IDIUse=3 WtCom= 8.85D-01 WtEn= 1.15D-01
 Coeff-Com:  0.158D+00 0.842D+00
 Coeff-En:   0.271D+00 0.729D+00
 Coeff:      0.171D+00 0.829D+00
 Gap=     0.221 Goal=   None    Shift=    0.000
 Gap=     0.286 Goal=   None    Shift=    0.000
 RMSDP=1.76D-03 MaxDP=2.75D-02 DE=-8.15D-02 OVMax= 1.40D-01

 Cycle   3  Pass 1  IDiag  1:
 RMSU=  1.64D-03    CP:  9.16D-01  8.19D-01
 E= -195.896402165793     Delta-E=       -0.150751167872 Rises=F Damp=F
 DIIS: error= 4.88D-03 at cycle   3 NSaved=   3.
 NSaved= 3 IEnMin= 3 EnMin= -195.896402165793     IErMin= 3 ErrMin= 4.88D-03
 ErrMax= 4.88D-03 EMaxC= 1.00D-01 BMatC= 6.59D-03 BMatP= 6.19D-02
 IDIUse=3 WtCom= 9.51D-01 WtEn= 4.88D-02
 Coeff-Com:  0.138D-01 0.224D+00 0.762D+00
 Coeff-En:   0.000D+00 0.000D+00 0.100D+01
 Coeff:      0.131D-01 0.214D+00 0.773D+00
 Gap=     0.222 Goal=   None    Shift=    0.000
 Gap=     0.239 Goal=   None    Shift=    0.000
 RMSDP=3.64D-04 MaxDP=5.43D-03 DE=-1.51D-01 OVMax= 1.02D-02

 Cycle   4  Pass 1  IDiag  1:
 RMSU=  2.71D-04    CP:  9.17D-01  8.24D-01  8.53D-01
 E= -195.897987505366     Delta-E=       -0.001585339572 Rises=F Damp=F
 DIIS: error= 7.30D-04 at cycle   4 NSaved=   4.
 NSaved= 4 IEnMin= 4 EnMin= -195.897987505366     IErMin= 4 ErrMin= 7.30D-04
 ErrMax= 7.30D-04 EMaxC= 1.00D-01 BMatC= 3.00D-04 BMatP= 6.59D-03
 IDIUse=3 WtCom= 9.93D-01 WtEn= 7.30D-03
 Coeff-Com: -0.803D-02-0.152D-02 0.160D+00 0.850D+00
 Coeff-En:   0.000D+00 0.000D+00 0.000D+00 0.100D+01
 Coeff:     -0.797D-02-0.151D-02 0.159D+00 0.851D+00
 Gap=     0.223 Goal=   None    Shift=    0.000
 Gap=     0.240 Goal=   None    Shift=    0.000
 RMSDP=8.33D-05 MaxDP=2.65D-03 DE=-1.59D-03 OVMax= 2.58D-03

 Cycle   5  Pass 1  IDiag  1:
 RMSU=  5.94D-05    CP:  9.16D-01  8.27D-01  8.86D-01  9.41D-01
 E= -195.898068479123     Delta-E=       -0.000080973757 Rises=F Damp=F
 DIIS: error= 2.44D-04 at cycle   5 NSaved=   5.
 NSaved= 5 IEnMin= 5 EnMin= -195.898068479123     IErMin= 5 ErrMin= 2.44D-04
 ErrMax= 2.44D-04 EMaxC= 1.00D-01 BMatC= 4.56D-05 BMatP= 3.00D-04
 IDIUse=3 WtCom= 9.98D-01 WtEn= 2.44D-03
 Coeff-Com: -0.388D-02-0.570D-02 0.550D-01 0.384D+00 0.571D+00
 Coeff-En:   0.000D+00 0.000D+00 0.000D+00 0.000D+00 0.100D+01
 Coeff:     -0.387D-02-0.569D-02 0.548D-01 0.383D+00 0.572D+00
 Gap=     0.223 Goal=   None    Shift=    0.000
 Gap=     0.241 Goal=   None    Shift=    0.000
 RMSDP=2.52D-05 MaxDP=1.07D-03 DE=-8.10D-05 OVMax= 1.07D-03

 Cycle   6  Pass 1  IDiag  1:
 RMSU=  2.20D-05    CP:  9.16D-01  8.27D-01  8.88D-01  9.65D-01  8.35D-01
 E= -195.898080455255     Delta-E=       -0.000011976132 Rises=F Damp=F
 DIIS: error= 7.43D-05 at cycle   6 NSaved=   6.
 NSaved= 6 IEnMin= 6 EnMin= -195.898080455255     IErMin= 6 ErrMin= 7.43D-05
 ErrMax= 7.43D-05 EMaxC= 1.00D-01 BMatC= 3.84D-06 BMatP= 4.56D-05
 IDIUse=1 WtCom= 1.00D+00 WtEn= 0.00D+00
 Coeff-Com:  0.134D-02-0.919D-03-0.294D-01-0.144D+00 0.106D+00 0.107D+01
 Coeff:      0.134D-02-0.919D-03-0.294D-01-0.144D+00 0.106D+00 0.107D+01
 Gap=     0.223 Goal=   None    Shift=    0.000
 Gap=     0.241 Goal=   None    Shift=    0.000
 RMSDP=1.41D-05 MaxDP=6.52D-04 DE=-1.20D-05 OVMax= 6.93D-04

 Cycle   7  Pass 1  IDiag  1:
 RMSU=  6.93D-06    CP:  9.16D-01  8.26D-01  8.89D-01  9.85D-01  1.01D+00
                    CP:  1.13D+00
 E= -195.898082445374     Delta-E=       -0.000001990119 Rises=F Damp=F
 DIIS: error= 1.39D-05 at cycle   7 NSaved=   7.
 NSaved= 7 IEnMin= 7 EnMin= -195.898082445374     IErMin= 7 ErrMin= 1.39D-05
 ErrMax= 1.39D-05 EMaxC= 1.00D-01 BMatC= 1.44D-07 BMatP= 3.84D-06
 IDIUse=1 WtCom= 1.00D+00 WtEn= 0.00D+00
 Coeff-Com:  0.307D-03 0.366D-03-0.529D-02-0.343D-01-0.300D-01 0.844D-01
 Coeff-Com:  0.984D+00
 Coeff:      0.307D-03 0.366D-03-0.529D-02-0.343D-01-0.300D-01 0.844D-01
 Coeff:      0.984D+00
 Gap=     0.223 Goal=   None    Shift=    0.000
 Gap=     0.241 Goal=   None    Shift=    0.000
 RMSDP=3.17D-06 MaxDP=1.48D-04 DE=-1.99D-06 OVMax= 1.59D-04

 Cycle   8  Pass 1  IDiag  1:
 RMSU=  2.29D-06    CP:  9.16D-01  8.26D-01  8.89D-01  9.87D-01  1.03D+00
                    CP:  1.21D+00  1.08D+00
 E= -195.898082527889     Delta-E=       -0.000000082516 Rises=F Damp=F
 DIIS: error= 7.84D-06 at cycle   8 NSaved=   8.
 NSaved= 8 IEnMin= 8 EnMin= -195.898082527889     IErMin= 8 ErrMin= 7.84D-06
 ErrMax= 7.84D-06 EMaxC= 1.00D-01 BMatC= 4.23D-08 BMatP= 1.44D-07
 IDIUse=1 WtCom= 1.00D+00 WtEn= 0.00D+00
 Coeff-Com: -0.638D-05 0.230D-03 0.710D-03 0.573D-03-0.212D-01-0.662D-01
 Coeff-Com:  0.377D+00 0.709D+00
 Coeff:     -0.638D-05 0.230D-03 0.710D-03 0.573D-03-0.212D-01-0.662D-01
 Coeff:      0.377D+00 0.709D+00
 Gap=     0.223 Goal=   None    Shift=    0.000
 Gap=     0.241 Goal=   None    Shift=    0.000
 RMSDP=1.18D-06 MaxDP=5.41D-05 DE=-8.25D-08 OVMax= 5.08D-05

 Cycle   9  Pass 1  IDiag  1:
 RMSU=  9.92D-07    CP:  9.16D-01  8.26D-01  8.89D-01  9.87D-01  1.03D+00
                    CP:  1.21D+00  1.16D+00  8.73D-01
 E= -195.898082541140     Delta-E=       -0.000000013251 Rises=F Damp=F
 DIIS: error= 2.95D-06 at cycle   9 NSaved=   9.
 NSaved= 9 IEnMin= 9 EnMin= -195.898082541140     IErMin= 9 ErrMin= 2.95D-06
 ErrMax= 2.95D-06 EMaxC= 1.00D-01 BMatC= 7.89D-09 BMatP= 4.23D-08
 IDIUse=1 WtCom= 1.00D+00 WtEn= 0.00D+00
 Coeff-Com: -0.480D-04 0.370D-04 0.110D-02 0.555D-02-0.466D-02-0.425D-01
 Coeff-Com: -0.107D-02 0.315D+00 0.727D+00
 Coeff:     -0.480D-04 0.370D-04 0.110D-02 0.555D-02-0.466D-02-0.425D-01
 Coeff:     -0.107D-02 0.315D+00 0.727D+00
 Gap=     0.223 Goal=   None    Shift=    0.000
 Gap=     0.241 Goal=   None    Shift=    0.000
 RMSDP=4.18D-07 MaxDP=2.30D-05 DE=-1.33D-08 OVMax= 2.17D-05

 Cycle  10  Pass 1  IDiag  1:
 RMSU=  3.02D-07    CP:  9.16D-01  8.26D-01  8.89D-01  9.87D-01  1.03D+00
                    CP:  1.22D+00  1.18D+00  9.65D-01  8.96D-01
 E= -195.898082543906     Delta-E=       -0.000000002766 Rises=F Damp=F
 DIIS: error= 6.24D-07 at cycle  10 NSaved=  10.
 NSaved=10 IEnMin=10 EnMin= -195.898082543906     IErMin=10 ErrMin= 6.24D-07
 ErrMax= 6.24D-07 EMaxC= 1.00D-01 BMatC= 3.51D-10 BMatP= 7.89D-09
 IDIUse=1 WtCom= 1.00D+00 WtEn= 0.00D+00
 Coeff-Com: -0.238D-05-0.202D-04 0.475D-04 0.638D-03 0.163D-02 0.181D-02
 Coeff-Com: -0.419D-01-0.354D-01 0.112D+00 0.961D+00
 Coeff:     -0.238D-05-0.202D-04 0.475D-04 0.638D-03 0.163D-02 0.181D-02
 Coeff:     -0.419D-01-0.354D-01 0.112D+00 0.961D+00
 Gap=     0.223 Goal=   None    Shift=    0.000
 Gap=     0.241 Goal=   None    Shift=    0.000
 RMSDP=1.54D-07 MaxDP=4.97D-06 DE=-2.77D-09 OVMax= 8.94D-06

 Cycle  11  Pass 1  IDiag  1:
 RMSU=  9.64D-08    CP:  9.16D-01  8.26D-01  8.89D-01  9.87D-01  1.03D+00
                    CP:  1.21D+00  1.18D+00  9.93D-01  9.87D-01  1.09D+00
 E= -195.898082544072     Delta-E=       -0.000000000166 Rises=F Damp=F
 DIIS: error= 3.19D-07 at cycle  11 NSaved=  11.
 NSaved=11 IEnMin=11 EnMin= -195.898082544072     IErMin=11 ErrMin= 3.19D-07
 ErrMax= 3.19D-07 EMaxC= 1.00D-01 BMatC= 3.98D-11 BMatP= 3.51D-10
 IDIUse=1 WtCom= 1.00D+00 WtEn= 0.00D+00
 Coeff-Com:  0.261D-05-0.773D-05-0.644D-04-0.217D-03 0.777D-03 0.362D-02
 Coeff-Com: -0.110D-01-0.336D-01-0.232D-01 0.257D+00 0.806D+00
 Coeff:      0.261D-05-0.773D-05-0.644D-04-0.217D-03 0.777D-03 0.362D-02
 Coeff:     -0.110D-01-0.336D-01-0.232D-01 0.257D+00 0.806D+00
 Gap=     0.223 Goal=   None    Shift=    0.000
 Gap=     0.241 Goal=   None    Shift=    0.000
 RMSDP=5.02D-08 MaxDP=1.69D-06 DE=-1.66D-10 OVMax= 2.15D-06

 Cycle  12  Pass 1  IDiag  1:
 RMSU=  3.37D-08    CP:  9.16D-01  8.26D-01  8.89D-01  9.87D-01  1.03D+00
                    CP:  1.21D+00  1.18D+00  9.97D-01  1.01D+00  1.16D+00
                    CP:  8.05D-01
 E= -195.898082544061     Delta-E=        0.000000000011 Rises=F Damp=F
 DIIS: error= 1.17D-07 at cycle  12 NSaved=  12.
 NSaved=12 IEnMin=11 EnMin= -195.898082544072     IErMin=12 ErrMin= 1.17D-07
 ErrMax= 1.17D-07 EMaxC= 1.00D-01 BMatC= 5.36D-12 BMatP= 3.98D-11
 IDIUse=1 WtCom= 1.00D+00 WtEn= 0.00D+00
 Coeff-Com:  0.791D-06 0.498D-06-0.230D-04-0.138D-03-0.480D-05 0.704D-03
 Coeff-Com:  0.230D-02-0.436D-02-0.198D-01-0.570D-01 0.222D+00 0.856D+00
 Coeff:      0.791D-06 0.498D-06-0.230D-04-0.138D-03-0.480D-05 0.704D-03
 Coeff:      0.230D-02-0.436D-02-0.198D-01-0.570D-01 0.222D+00 0.856D+00
 Gap=     0.223 Goal=   None    Shift=    0.000
 Gap=     0.241 Goal=   None    Shift=    0.000
 RMSDP=1.58D-08 MaxDP=4.58D-07 DE= 1.14D-11 OVMax= 6.44D-07

 Cycle  13  Pass 1  IDiag  1:
 RMSU=  8.21D-09    CP:  9.16D-01  8.26D-01  8.89D-01  9.87D-01  1.03D+00
                    CP:  1.21D+00  1.18D+00  9.98D-01  1.01D+00  1.18D+00
                    CP:  9.27D-01  9.62D-01
 E= -195.898082544060     Delta-E=        0.000000000001 Rises=F Damp=F
 DIIS: error= 1.92D-08 at cycle  13 NSaved=  13.
 NSaved=13 IEnMin=11 EnMin= -195.898082544072     IErMin=13 ErrMin= 1.92D-08
 ErrMax= 1.92D-08 EMaxC= 1.00D-01 BMatC= 4.63D-13 BMatP= 5.36D-12
 IDIUse=1 WtCom= 1.00D+00 WtEn= 0.00D+00
 Coeff-Com: -0.110D-06 0.853D-06 0.628D-06-0.134D-04-0.750D-04-0.179D-03
 Coeff-Com:  0.159D-02 0.227D-02-0.232D-02-0.380D-01-0.249D-01 0.193D+00
 Coeff-Com:  0.868D+00
 Coeff:     -0.110D-06 0.853D-06 0.628D-06-0.134D-04-0.750D-04-0.179D-03
 Coeff:      0.159D-02 0.227D-02-0.232D-02-0.380D-01-0.249D-01 0.193D+00
 Coeff:      0.868D+00
 Gap=     0.223 Goal=   None    Shift=    0.000
 Gap=     0.241 Goal=   None    Shift=    0.000
 RMSDP=4.35D-09 MaxDP=1.85D-07 DE= 1.02D-12 OVMax= 1.95D-07

 SCF Done:  E(UB+HF-LYP) =  -195.898082544     A.U. after   13 cycles
             Convg  =    0.4346D-08             -V/T =  2.0089
             S**2   =   0.7532
 KE= 1.941772162187D+02 PE=-8.071210614968D+02 EE= 2.398837603825D+02
 Annihilation of the first spin contaminant:
 S**2 before annihilation     0.7532,   after     0.7500
 Leave Link  502 at Fri Jul 10 17:49:39 2009, MaxMem=   52428800 cpu:      94.4
 (Enter /data/hamilton/dch0ik/g03/l601.exe)
 Copying SCF densities to generalized density rwf, ISCF=1 IROHF=0.

 **********************************************************************

            Population analysis using the SCF density.

 **********************************************************************

 Alpha  occ. eigenvalues --  -10.19922 -10.18662 -10.18444 -10.18313 -10.18289
 Alpha  occ. eigenvalues --   -0.83030  -0.71079  -0.70068  -0.55579  -0.54618
 Alpha  occ. eigenvalues --   -0.47841  -0.46622  -0.41269  -0.39233  -0.34538
 Alpha  occ. eigenvalues --   -0.34115  -0.33628  -0.32208  -0.30228  -0.20826
 Alpha virt. eigenvalues --    0.01505   0.04352   0.04854   0.06422   0.06819
 Alpha virt. eigenvalues --    0.10643   0.15554   0.16423   0.19183   0.20872
 Alpha virt. eigenvalues --    0.22550   0.24244   0.26157   0.26367   0.26729
 Alpha virt. eigenvalues --    0.28696   0.30376   0.31766   0.32652   0.33455
 Alpha virt. eigenvalues --    0.34293   0.34604   0.35275   0.36149   0.38364
 Alpha virt. eigenvalues --    0.39625   0.40755   0.41278   0.41716   0.49362
 Alpha virt. eigenvalues --    0.49810   0.53063   0.53759   0.60104   0.70745
 Alpha virt. eigenvalues --    0.75293   0.77421   0.82193   0.83488   0.86914
 Alpha virt. eigenvalues --    0.90345   0.91733   0.92516   0.93248   0.95577
 Alpha virt. eigenvalues --    0.96945   0.99204   1.03958   1.10346   1.18075
 Alpha virt. eigenvalues --    1.21760   1.23140   1.26320   1.28374   1.30384
 Alpha virt. eigenvalues --    1.32042   1.34125   1.37440   1.40795   1.44501
 Alpha virt. eigenvalues --    1.46256   1.49768   1.51522   1.52881   1.53739
 Alpha virt. eigenvalues --    1.54963   1.57695   1.60431   1.62408   1.66926
 Alpha virt. eigenvalues --    1.67250   1.69203   1.70753   1.77223   1.78173
 Alpha virt. eigenvalues --    1.80732   1.82051   1.95398   2.00398   2.03379
 Alpha virt. eigenvalues --    2.04603   2.07650   2.09365   2.11244   2.15553
 Alpha virt. eigenvalues --    2.16190   2.17465   2.23515   2.29186   2.32650
 Alpha virt. eigenvalues --    2.36945   2.37519   2.39514   2.41176   2.45534
 Alpha virt. eigenvalues --    2.50679   2.53615   2.54099   2.57378   2.62518
 Alpha virt. eigenvalues --    4.96537   4.98422   4.99671   5.01961   5.03716
 Alpha virt. eigenvalues --    5.10833   5.19384   5.23216   5.29950   5.33014
 Alpha virt. eigenvalues --    5.39598   5.45981   5.78386   5.84110  29.58351
 Alpha virt. eigenvalues --   29.85677  29.92744  30.19405  30.24681  36.61009
 Alpha virt. eigenvalues --   36.62164  36.63430  36.63561  36.70697  36.78638
 Alpha virt. eigenvalues --   36.81214  36.85543  36.89877
  Beta  occ. eigenvalues --  -10.18688 -10.18520 -10.18479 -10.18291 -10.18262
  Beta  occ. eigenvalues --   -0.82371  -0.70883  -0.68774  -0.55374  -0.53233
  Beta  occ. eigenvalues --   -0.47433  -0.45903  -0.40872  -0.38113  -0.33904
  Beta  occ. eigenvalues --   -0.33765  -0.33452  -0.31462  -0.30003
  Beta virt. eigenvalues --   -0.05921   0.01594   0.04373   0.05155   0.06419
  Beta virt. eigenvalues --    0.07252   0.11044   0.15942   0.16799   0.19562
  Beta virt. eigenvalues --    0.21274   0.23085   0.24514   0.26553   0.26625
  Beta virt. eigenvalues --    0.26937   0.28956   0.30738   0.32539   0.32739
  Beta virt. eigenvalues --    0.33631   0.34707   0.34933   0.36220   0.36854
  Beta virt. eigenvalues --    0.38649   0.39696   0.41269   0.41547   0.44695
  Beta virt. eigenvalues --    0.49628   0.50292   0.53926   0.54294   0.60473
  Beta virt. eigenvalues --    0.71200   0.76139   0.77619   0.82611   0.84247
  Beta virt. eigenvalues --    0.87665   0.91023   0.91930   0.92707   0.93533
  Beta virt. eigenvalues --    0.96023   0.97213   0.99637   1.04428   1.11070
  Beta virt. eigenvalues --    1.19016   1.22359   1.23415   1.26461   1.28543
  Beta virt. eigenvalues --    1.31012   1.33230   1.35109   1.39050   1.41266
  Beta virt. eigenvalues --    1.44826   1.46908   1.50455   1.52268   1.53447
  Beta virt. eigenvalues --    1.54322   1.55315   1.58329   1.61314   1.62823
  Beta virt. eigenvalues --    1.67056   1.67632   1.69594   1.71641   1.77535
  Beta virt. eigenvalues --    1.79622   1.81039   1.82519   1.96201   2.01434
  Beta virt. eigenvalues --    2.03861   2.05513   2.08070   2.09809   2.11818
  Beta virt. eigenvalues --    2.15832   2.16814   2.17669   2.23936   2.29551
  Beta virt. eigenvalues --    2.33279   2.37116   2.37750   2.39897   2.41312
  Beta virt. eigenvalues --    2.45887   2.51230   2.54226   2.54403   2.57700
  Beta virt. eigenvalues --    2.62778   4.97305   4.98761   5.00085   5.02128
  Beta virt. eigenvalues --    5.04533   5.11057   5.19868   5.23679   5.30763
  Beta virt. eigenvalues --    5.33254   5.40814   5.46033   5.79401   5.84147
  Beta virt. eigenvalues --   29.59039  29.86547  29.92725  30.19943  30.24696
  Beta virt. eigenvalues --   36.62338  36.63378  36.63469  36.63598  36.70760
  Beta virt. eigenvalues --   36.79561  36.81287  36.86701  36.90211
          Condensed to atoms (all electrons):
              1          2          3          4          5          6
     1  C    5.354692   0.285020  -0.015166  -0.014818   0.286627   0.441501
     2  C    0.285020   4.994261   0.277151  -0.015484  -0.025518  -0.045838
     3  C   -0.015166   0.277151   5.034950   0.268931  -0.015460   0.001511
     4  C   -0.014818  -0.015484   0.268931   5.033969   0.274045   0.001704
     5  C    0.286627  -0.025518  -0.015460   0.274045   4.992276  -0.044157
     6  H    0.441501  -0.045838   0.001511   0.001704  -0.044157   0.520802
     7  H   -0.041982   0.434859  -0.041256   0.001586   0.001181  -0.007059
     8  H   -0.028981   0.434242  -0.027175  -0.000341   0.001312   0.000756
     9  H   -0.000754  -0.028565   0.435523  -0.030452   0.000642   0.000003
    10  H    0.001231  -0.034656   0.444279  -0.034837   0.001290  -0.000091
    11  H    0.000646  -0.000111  -0.030084   0.439279  -0.030861  -0.000004
    12  H    0.000293   0.002083  -0.034964   0.442648  -0.033116  -0.000084
    13  H   -0.034888  -0.000019  -0.000170  -0.032918   0.430454   0.001197
    14  H   -0.034881   0.001835   0.001134  -0.033020   0.438892  -0.006462
              7          8          9         10         11         12
     1  C   -0.041982  -0.028981  -0.000754   0.001231   0.000646   0.000293
     2  C    0.434859   0.434242  -0.028565  -0.034656  -0.000111   0.002083
     3  C   -0.041256  -0.027175   0.435523   0.444279  -0.030084  -0.034964
     4  C    0.001586  -0.000341  -0.030452  -0.034837   0.439279   0.442648
     5  C    0.001181   0.001312   0.000642   0.001290  -0.030861  -0.033116
     6  H   -0.007059   0.000756   0.000003  -0.000091  -0.000004  -0.000084
     7  H    0.553249  -0.022062   0.001881  -0.008198  -0.000011   0.000024
     8  H   -0.022062   0.465956  -0.006001   0.001051  -0.000037  -0.000008
     9  H    0.001881  -0.006001   0.501661  -0.021003  -0.007056   0.001379
    10  H   -0.008198   0.001051  -0.021003   0.508497   0.001260  -0.007234
    11  H   -0.000011  -0.000037  -0.007056   0.001260   0.501330  -0.020756
    12  H    0.000024  -0.000008   0.001379  -0.007234  -0.020756   0.505734
    13  H   -0.000009  -0.000009  -0.000003  -0.000014  -0.006997   0.001460
    14  H   -0.000053  -0.000011  -0.000010  -0.000026   0.001312  -0.007240
             13         14
     1  C   -0.034888  -0.034881
     2  C   -0.000019   0.001835
     3  C   -0.000170   0.001134
     4  C   -0.032918  -0.033020
     5  C    0.430454   0.438892
     6  H    0.001197  -0.006462
     7  H   -0.000009  -0.000053
     8  H   -0.000009  -0.000011
     9  H   -0.000003  -0.000010
    10  H   -0.000014  -0.000026
    11  H   -0.006997   0.001312
    12  H    0.001460  -0.007240
    13  H    0.507604  -0.023244
    14  H   -0.023244   0.512892
 Mulliken atomic charges:
              1
     1  C   -0.198539
     2  C   -0.279260
     3  C   -0.299202
     4  C   -0.300290
     5  C   -0.277608
     6  H    0.136221
     7  H    0.127851
     8  H    0.181309
     9  H    0.152754
    10  H    0.148452
    11  H    0.152092
    12  H    0.149781
    13  H    0.157556
    14  H    0.148883
 Sum of Mulliken charges=   0.00000
 Atomic charges with hydrogens summed into heavy atoms:
              1
     1  C   -0.062317
     2  C    0.029900
     3  C    0.002004
     4  C    0.001582
     5  C    0.028831
     6  H    0.000000
     7  H    0.000000
     8  H    0.000000
     9  H    0.000000
    10  H    0.000000
    11  H    0.000000
    12  H    0.000000
    13  H    0.000000
    14  H    0.000000
 Sum of Mulliken charges=   0.00000
          Atomic-Atomic Spin Densities.
              1          2          3          4          5          6
     1  C    1.127538  -0.042243  -0.004787  -0.003935  -0.047241  -0.005404
     2  C   -0.042243  -0.031410   0.004104  -0.001062   0.003115   0.001808
     3  C   -0.004787   0.004104   0.010293   0.005016  -0.000766  -0.000392
     4  C   -0.003935  -0.001062   0.005016   0.015171   0.004154  -0.000356
     5  C   -0.047241   0.003115  -0.000766   0.004154  -0.038230   0.002750
     6  H   -0.005404   0.001808  -0.000392  -0.000356   0.002750  -0.011930
     7  H   -0.012111   0.012223   0.002293  -0.000368  -0.000369  -0.002133
     8  H   -0.015592   0.009679  -0.002774  -0.000248   0.001266   0.000837
     9  H    0.000144   0.000205  -0.000490  -0.000124   0.000040   0.000003
    10  H    0.000294   0.000590  -0.000649   0.000370   0.000024   0.000010
    11  H    0.000109  -0.000028  -0.000071  -0.000808   0.000410   0.000005
    12  H    0.000323  -0.000002   0.000077  -0.000531   0.000719   0.000012
    13  H   -0.023977   0.000888  -0.000660  -0.004666   0.016929   0.000918
    14  H   -0.006299   0.000203   0.000057   0.002461   0.006118  -0.001709
              7          8          9         10         11         12
     1  C   -0.012111  -0.015592   0.000144   0.000294   0.000109   0.000323
     2  C    0.012223   0.009679   0.000205   0.000590  -0.000028  -0.000002
     3  C    0.002293  -0.002774  -0.000490  -0.000649  -0.000071   0.000077
     4  C   -0.000368  -0.000248  -0.000124   0.000370  -0.000808  -0.000531
     5  C   -0.000369   0.001266   0.000040   0.000024   0.000410   0.000719
     6  H   -0.002133   0.000837   0.000003   0.000010   0.000005   0.000012
     7  H    0.043567  -0.008023  -0.000047  -0.000279  -0.000011  -0.000004
     8  H   -0.008023   0.037727   0.000083   0.000145   0.000023   0.000003
     9  H   -0.000047   0.000083  -0.000261   0.000062  -0.000010   0.000024
    10  H   -0.000279   0.000145   0.000062  -0.001022   0.000023  -0.000089
    11  H   -0.000011   0.000023  -0.000010   0.000023  -0.000141   0.000048
    12  H   -0.000004   0.000003   0.000024  -0.000089   0.000048  -0.000855
    13  H   -0.000071   0.000157   0.000028   0.000002   0.000269   0.000154
    14  H    0.000150  -0.000044  -0.000006  -0.000004  -0.000082  -0.000248
             13         14
     1  C   -0.023977  -0.006299
     2  C    0.000888   0.000203
     3  C   -0.000660   0.000057
     4  C   -0.004666   0.002461
     5  C    0.016929   0.006118
     6  H    0.000918  -0.001709
     7  H   -0.000071   0.000150
     8  H    0.000157  -0.000044
     9  H    0.000028  -0.000006
    10  H    0.000002  -0.000004
    11  H    0.000269  -0.000082
    12  H    0.000154  -0.000248
    13  H    0.055966  -0.007412
    14  H   -0.007412   0.027189
 Mulliken atomic spin densities:
              1
     1  C    0.966818
     2  C   -0.041931
     3  C    0.011251
     4  C    0.015073
     5  C   -0.051081
     6  H   -0.015581
     7  H    0.034815
     8  H    0.023237
     9  H   -0.000348
    10  H   -0.000524
    11  H   -0.000264
    12  H   -0.000369
    13  H    0.038527
    14  H    0.020374
 Sum of Mulliken spin densities=   1.00000
 Electronic spatial extent (au):  <R**2>=   425.0408
 Charge=     0.0000 electrons
 Dipole moment (field-independent basis, Debye):
    X=     0.3911    Y=     0.4998    Z=    -0.4411  Tot=     0.7729
 Quadrupole moment (field-independent basis, Debye-Ang):
   XX=   -33.1539   YY=   -34.1416   ZZ=   -31.2946
   XY=    -0.9005   XZ=     0.6177   YZ=     0.7874
 Traceless Quadrupole moment (field-independent basis, Debye-Ang):
   XX=    -0.2905   YY=    -1.2782   ZZ=     1.5688
   XY=    -0.9005   XZ=     0.6177   YZ=     0.7874
 Octapole moment (field-independent basis, Debye-Ang**2):
  XXX=   -38.0285  YYY=    10.2702  ZZZ=     4.0681  XYY=   -11.3327
  XXY=     3.1731  XXZ=     1.2502  XZZ=   -11.4464  YZZ=     3.3714
  YYZ=     0.5275  XYZ=    -1.6289
 Hexadecapole moment (field-independent basis, Debye-Ang**3):
 XXXX=  -286.6763 YYYY=  -258.5457 ZZZZ=   -66.8046 XXXY=     5.2423
 XXXZ=    -4.2467 YYYX=     3.7720 YYYZ=     5.4566 ZZZX=    -2.8213
 ZZZY=     3.0121 XXYY=   -90.8881 XXZZ=   -52.7554 YYZZ=   -49.0611
 XXYZ=     0.6830 YYXZ=     1.2049 ZZXY=     0.9609
 N-N= 1.771620023516D+02 E-N=-8.071210611864D+02  KE= 1.941772162187D+02
                          Isotropic Fermi Contact Couplings
        Atom                 a.u.       MegaHertz       Gauss      10(-4) cm-1
     1  C(13)              0.25893     291.09158     103.86871      97.09770
     2  C(13)             -0.00328      -3.68288      -1.31414      -1.22848
     3  C(13)              0.00906      10.19078       3.63632       3.39928
     4  C(13)              0.01560      17.53931       6.25846       5.85048
     5  C(13)             -0.01214     -13.64774      -4.86985      -4.55240
     6  H(1)               0.00073       3.28433       1.17193       1.09553
     7  H(1)               0.01722      76.96286      27.46226      25.67205
     8  H(1)               0.01595      71.29128      25.43850      23.78021
     9  H(1)              -0.00027      -1.19758      -0.42733      -0.39947
    10  H(1)              -0.00001      -0.05667      -0.02022      -0.01890
    11  H(1)              -0.00031      -1.38998      -0.49598      -0.46365
    12  H(1)              -0.00003      -0.12600      -0.04496      -0.04203
    13  H(1)               0.02257     100.86851      35.99239      33.64611
    14  H(1)               0.01111      49.65793      17.71918      16.56410
 --------------------------------------------------------
       Center         ----  Spin Dipole Couplings  ----
                      3XX-RR        3YY-RR        3ZZ-RR
 --------------------------------------------------------
     1   Atom       -0.285519     -0.291286      0.576806
     2   Atom        0.030651     -0.024877     -0.005775
     3   Atom        0.005336      0.005554     -0.010889
     4   Atom       -0.002534      0.014616     -0.012082
     5   Atom       -0.020583      0.019510      0.001074
     6   Atom       -0.029166     -0.005198      0.034363
     7   Atom        0.009374     -0.005385     -0.003989
     8   Atom        0.016077     -0.008163     -0.007914
     9   Atom        0.002928     -0.000353     -0.002575
    10   Atom        0.002672      0.000188     -0.002860
    11   Atom       -0.002879      0.005984     -0.003105
    12   Atom       -0.002381      0.004387     -0.002007
    13   Atom       -0.002840      0.011256     -0.008416
    14   Atom       -0.001989      0.004549     -0.002561
 --------------------------------------------------------
                        XY            XZ            YZ
 --------------------------------------------------------
     1   Atom        0.212785     -0.483658     -0.472372
     2   Atom        0.003551     -0.016840     -0.011713
     3   Atom        0.015709     -0.001906     -0.000580
     4   Atom        0.015757     -0.002255     -0.004222
     5   Atom       -0.008161     -0.002547     -0.023995
     6   Atom        0.037437      0.019365      0.035253
     7   Atom       -0.003472     -0.007252      0.003694
     8   Atom       -0.006933      0.009590     -0.003099
     9   Atom        0.004930      0.002468      0.001525
    10   Atom        0.004219     -0.002656     -0.001149
    11   Atom        0.002994      0.000154      0.002277
    12   Atom        0.002918     -0.000870     -0.003740
    13   Atom       -0.012393     -0.005209      0.006157
    14   Atom       -0.006255      0.006280     -0.007478
 --------------------------------------------------------


 ---------------------------------------------------------------------------------
              Anisotropic Spin Dipole Couplings in Principal Axis System
 ---------------------------------------------------------------------------------

       Atom             a.u.   MegaHertz   Gauss  10(-4) cm-1        Axes

              Baa    -0.5025   -67.434   -24.062   -22.494  0.9219 -0.2275  0.3136
     1 C(13)  Bbb    -0.4987   -66.924   -23.880   -22.323  0.0760  0.8999  0.4294
              Bcc     1.0012   134.358    47.942    44.817 -0.3799 -0.3721  0.8469
 
              Baa    -0.0307    -4.126    -1.472    -1.376  0.0766  0.8819  0.4653
     2 C(13)  Bbb    -0.0074    -0.997    -0.356    -0.333  0.3952 -0.4553  0.7978
              Bcc     0.0382     5.124     1.828     1.709  0.9154  0.1228 -0.3834
 
              Baa    -0.0116    -1.561    -0.557    -0.521  0.4334 -0.3684  0.8225
     3 C(13)  Bbb    -0.0096    -1.290    -0.460    -0.430 -0.5617  0.6033  0.5662
              Bcc     0.0212     2.852     1.018     0.951  0.7048  0.7073 -0.0546
 
              Baa    -0.0128    -1.712    -0.611    -0.571 -0.1456  0.2321  0.9617
     4 C(13)  Bbb    -0.0118    -1.589    -0.567    -0.530  0.8502 -0.4677  0.2416
              Bcc     0.0246     3.301     1.178     1.101  0.5059  0.8528 -0.1293
 
              Baa    -0.0255    -3.423    -1.222    -1.142  0.8303  0.3718  0.4151
     5 C(13)  Bbb    -0.0110    -1.474    -0.526    -0.492 -0.5494  0.4210  0.7218
              Bcc     0.0365     4.897     1.747     1.633 -0.0936  0.8274 -0.5538
 
              Baa    -0.0569   -30.339   -10.826   -10.120  0.7836 -0.6170  0.0721
     6 H(1)   Bbb    -0.0119    -6.330    -2.259    -2.111 -0.5077 -0.5692  0.6467
              Bcc     0.0687    36.668    13.084    12.231  0.3580  0.5434  0.7593
 
              Baa    -0.0088    -4.701    -1.678    -1.568  0.1805 -0.6308  0.7547
     7 H(1)   Bbb    -0.0049    -2.610    -0.931    -0.871  0.4398  0.7381  0.5118
              Bcc     0.0137     7.312     2.609     2.439  0.8798 -0.2395 -0.4106
 
              Baa    -0.0115    -6.156    -2.197    -2.053 -0.2167  0.3804  0.8991
     8 H(1)   Bbb    -0.0098    -5.251    -1.874    -1.752  0.3468  0.8909 -0.2934
              Bcc     0.0214    11.407     4.070     3.805  0.9125 -0.2483  0.3250
 
              Baa    -0.0040    -2.123    -0.758    -0.708 -0.6236  0.7122  0.3225
     9 H(1)   Bbb    -0.0034    -1.788    -0.638    -0.596 -0.0201 -0.4270  0.9040
              Bcc     0.0073     3.911     1.395     1.304  0.7815  0.5572  0.2806
 
              Baa    -0.0041    -2.171    -0.775    -0.724  0.4917 -0.2632  0.8301
    10 H(1)   Bbb    -0.0026    -1.385    -0.494    -0.462 -0.3884  0.7869  0.4796
              Bcc     0.0067     3.555     1.269     1.186  0.7793  0.5582 -0.2847
 
              Baa    -0.0042    -2.244    -0.801    -0.749  0.7082 -0.3456  0.6156
    11 H(1)   Bbb    -0.0032    -1.690    -0.603    -0.564 -0.6494  0.0233  0.7601
              Bcc     0.0074     3.934     1.404     1.312  0.2771  0.9381  0.2079
 
              Baa    -0.0040    -2.130    -0.760    -0.710 -0.5123  0.4925  0.7036
    12 H(1)   Bbb    -0.0031    -1.644    -0.587    -0.548  0.8031 -0.0155  0.5956
              Bcc     0.0071     3.774     1.347     1.259  0.3042  0.8702 -0.3876
 
              Baa    -0.0117    -6.244    -2.228    -2.083  0.6479  0.1495  0.7469
    13 H(1)   Bbb    -0.0089    -4.768    -1.702    -1.591 -0.5786 -0.5412  0.6102
              Bcc     0.0206    11.012     3.929     3.673 -0.4954  0.8275  0.2642
 
              Baa    -0.0088    -4.673    -1.667    -1.559 -0.5761  0.1776  0.7979
    14 H(1)   Bbb    -0.0052    -2.796    -0.998    -0.933  0.6622  0.6737  0.3281
              Bcc     0.0140     7.469     2.665     2.491 -0.4793  0.7174 -0.5057
 

 ---------------------------------------------------------------------------------

 No NMR shielding tensors so no spin-rotation constants.
 Leave Link  601 at Fri Jul 10 17:49:41 2009, MaxMem=   52428800 cpu:       1.0
 (Enter /data/hamilton/dch0ik/g03/linda-exe/l701.exel)
 Compute integral first derivatives.
 ... and contract with generalized density number  0.
 Leave Link  701 at Fri Jul 10 17:49:43 2009, MaxMem=   52428800 cpu:       0.5
 (Enter /data/hamilton/dch0ik/g03/l702.exe)
 L702 exits ... SP integral derivatives will be done elsewhere.
 Leave Link  702 at Fri Jul 10 17:49:43 2009, MaxMem=   52428800 cpu:       0.0
 (Enter /data/hamilton/dch0ik/g03/linda-exe/l703.exel)
 Compute integral first derivatives, UseDBF=F.
 Integral derivatives from FoFDir, PRISM(SPDF).
 Symmetry not used in FoFDir.
 MinBra= 0 MaxBra= 2 Meth= 1.
 IRaf=       0 NMat=   1 IRICut=       1 DoRegI=T DoRafI=F ISym2E= 0 JSym2E=0.
 Leave Link  703 at Fri Jul 10 17:49:53 2009, MaxMem=   52428800 cpu:      15.2
 (Enter /data/hamilton/dch0ik/g03/l716.exe)
 Dipole        = 1.53865695D-01 1.96655268D-01-1.73528416D-01
 -------------------------------------------------------------------
 Center     Atomic                   Forces (Hartrees/Bohr)
 Number     Number              X              Y              Z
 -------------------------------------------------------------------
    1          6           0.000827371    0.002529866   -0.047208084
    2          6          -0.003083542   -0.017586604   -0.080901382
    3          6           0.034217805    0.010943708    0.008900215
    4          6           0.000554538    0.035557902   -0.000883102
    5          6          -0.031227798   -0.001919355    0.008149243
    6          1           0.001749257   -0.000343425    0.029628272
    7          1          -0.014149225    0.012908942    0.041743315
    8          1           0.015796914   -0.019327005    0.030961323
    9          1          -0.002049611    0.003025784   -0.009747306
   10          1          -0.010177344   -0.006844660    0.015980115
   11          1           0.000332603   -0.007393122   -0.012855005
   12          1          -0.000738326   -0.006143481    0.013608617
   13          1           0.003897807   -0.001427296   -0.010858827
   14          1           0.004049551   -0.003981254    0.013482607
 -------------------------------------------------------------------
 Cartesian Forces:  Max     0.080901382 RMS     0.021077492
 Leave Link  716 at Fri Jul 10 17:49:53 2009, MaxMem=   52428800 cpu:       0.0
 (Enter /data/hamilton/dch0ik/g03/l103.exe)

 GradGradGradGradGradGradGradGradGradGradGradGradGradGradGradGradGradGrad
 Berny optimization.
 Internal  Forces:  Max     0.045180449 RMS     0.009654637
 Search for a local minimum.
 Step number   1 out of a maximum of  90
 All quantities printed in internal units (Hartrees-Bohrs-Radians)
 Swaping is turned off.
 Second derivative matrix not updated -- first step.
     Eigenvalues ---    0.00449   0.00465   0.01919   0.02296   0.03367
     Eigenvalues ---    0.04095   0.04338   0.05110   0.05467   0.05851
     Eigenvalues ---    0.05970   0.06231   0.07627   0.07655   0.08609
     Eigenvalues ---    0.08655   0.09144   0.09818   0.11581   0.11926
     Eigenvalues ---    0.21818   0.22339   0.24562   0.28400   0.28618
     Eigenvalues ---    0.29976   0.30050   0.30101   0.30159   0.30939
     Eigenvalues ---    0.31655   0.31664   0.31672   0.31684   0.32521
     Eigenvalues ---    0.412611000.000001000.000001000.000001000.00000
     Eigenvalues --- 1000.000001000.000001000.000001000.000001000.00000
     Eigenvalues --- 1000.000001000.000001000.000001000.000001000.00000
     Eigenvalues --- 1000.000001000.000001000.000001000.000001000.00000
     Eigenvalues --- 1000.000001000.000001000.000001000.000001000.00000
     Eigenvalues --- 1000.000001000.000001000.000001000.000001000.00000
     Eigenvalues --- 1000.000001000.000001000.000001000.000001000.00000
     Eigenvalues --- 1000.000001000.000001000.000001000.000001000.00000
     Eigenvalues --- 1000.000001000.000001000.000001000.000001000.00000
 Quadratic step=1.028D+00 exceeds max=3.000D-01 adjusted using Lamda=-8.630D-02.
 Angle between NR and scaled steps=  37.24 degrees.
 Angle between quadratic step and forces=  27.70 degrees.
 Linear search not attempted -- option 19 set.
 Iteration  1 RMS(Cart)=  0.02707909 RMS(Int)=  0.00122779
 Iteration  2 RMS(Cart)=  0.00106789 RMS(Int)=  0.00047732
 Iteration  3 RMS(Cart)=  0.00000121 RMS(Int)=  0.00047732
 Iteration  4 RMS(Cart)=  0.00000000 RMS(Int)=  0.00047732
 Variable       Old X    -DE/DX   Delta X   Delta X   Delta X     New X
                                 (Linear)    (Quad)   (Total)
    R1        2.87987   0.00379   0.00000   0.00796   0.00825   2.88812
    R2        2.87927   0.00401   0.00000   0.00853   0.00874   2.88801
    R3        2.14348  -0.02334   0.00000  -0.06018  -0.06018   2.08330
    R4        2.88093   0.01831   0.00000   0.04820   0.04818   2.92910
    R5        2.27034  -0.04518   0.00000  -0.13612  -0.13612   2.13423
    R6        1.96575   0.03974   0.00000   0.07965   0.07965   2.04540
    R7        2.87784   0.02055   0.00000   0.05535   0.05505   2.93288
    R8        2.09901  -0.00861   0.00000  -0.02093  -0.02093   2.07808
    R9        2.12829  -0.01965   0.00000  -0.04967  -0.04967   2.07862
   R10        2.87623   0.02011   0.00000   0.05254   0.05237   2.92860
   R11        2.11426  -0.01451   0.00000  -0.03600  -0.03600   2.07826
   R12        2.11480  -0.01484   0.00000  -0.03684  -0.03684   2.07796
   R13        2.11463  -0.01106   0.00000  -0.02744  -0.02744   2.08719
   R14        2.11449  -0.01389   0.00000  -0.03446  -0.03446   2.08003
    A1        1.88787   0.00875   0.00000   0.02960   0.02886   1.91673
    A2        1.96676   0.00016   0.00000   0.02362   0.02056   1.98732
    A3        1.91167   0.00523   0.00000   0.05102   0.04901   1.96067
    A4        1.87965  -0.00147   0.00000  -0.00833  -0.00804   1.87160
    A5        1.85375  -0.00011   0.00000   0.00423   0.00390   1.85764
    A6        2.00187   0.00099   0.00000   0.00011  -0.00051   2.00135
    A7        1.84818   0.00848   0.00000   0.05025   0.05009   1.89827
    A8        2.00714  -0.00389   0.00000  -0.02313  -0.02325   1.98389
    A9        1.86091  -0.00299   0.00000  -0.01627  -0.01589   1.84502
   A10        1.88853  -0.00281   0.00000  -0.00657  -0.00662   1.88191
   A11        1.87510   0.00548   0.00000   0.02851   0.02859   1.90368
   A12        1.97531  -0.00328   0.00000  -0.02060  -0.02048   1.95483
   A13        1.93326  -0.00187   0.00000  -0.01152  -0.01146   1.92180
   A14        1.92134   0.00452   0.00000   0.02112   0.02106   1.94240
   A15        1.87021  -0.00206   0.00000  -0.01115  -0.01100   1.85921
   A16        1.88392  -0.00137   0.00000  -0.00215  -0.00236   1.88155
   A17        1.92328  -0.00001   0.00000  -0.00260  -0.00257   1.92071
   A18        1.93239   0.00173   0.00000   0.00987   0.00996   1.94235
   A19        1.92944   0.00095   0.00000   0.00108   0.00113   1.93057
   A20        1.92601   0.00033   0.00000   0.00345   0.00349   1.92950
   A21        1.86933  -0.00157   0.00000  -0.00952  -0.00953   1.85979
   A22        1.88444  -0.00318   0.00000  -0.01320  -0.01281   1.87163
   A23        1.91580   0.00346   0.00000   0.01695   0.01690   1.93269
   A24        1.93959  -0.00244   0.00000  -0.01370  -0.01373   1.92586
   A25        1.92814  -0.00040   0.00000  -0.00151  -0.00167   1.92646
   A26        1.92738   0.00541   0.00000   0.02691   0.02689   1.95427
   A27        1.86894  -0.00277   0.00000  -0.01508  -0.01502   1.85392
    D1       -0.01062  -0.00064   0.00000  -0.00704  -0.00738  -0.01800
    D2       -1.98433  -0.00961   0.00000  -0.06269  -0.06299  -2.04732
    D3        2.24823  -0.00639   0.00000  -0.04544  -0.04565   2.20258
    D4        2.10531   0.01206   0.00000   0.09252   0.09254   2.19785
    D5        0.13159   0.00308   0.00000   0.03686   0.03693   0.16852
    D6       -1.91903   0.00630   0.00000   0.05411   0.05427  -1.86476
    D7        0.02284   0.00214   0.00000   0.01905   0.01945   0.04229
    D8       -2.08001   0.00253   0.00000   0.01894   0.01946  -2.06055
    D9        2.13908   0.00527   0.00000   0.03531   0.03595   2.17503
   D10       -2.12686  -0.00690   0.00000  -0.06073  -0.06157  -2.18843
   D11        2.05347  -0.00652   0.00000  -0.06084  -0.06155   1.99192
   D12       -0.01062  -0.00378   0.00000  -0.04447  -0.04506  -0.05568
   D13       -0.00565  -0.00117   0.00000  -0.00785  -0.00781  -0.01346
   D14        2.08243  -0.00188   0.00000  -0.00925  -0.00917   2.07325
   D15       -2.13982  -0.00275   0.00000  -0.01645  -0.01646  -2.15628
   D16        1.97181   0.00203   0.00000   0.01686   0.01703   1.98884
   D17       -2.22330   0.00132   0.00000   0.01546   0.01567  -2.20763
   D18       -0.16235   0.00044   0.00000   0.00827   0.00838  -0.15397
   D19       -2.26152   0.00184   0.00000   0.01753   0.01727  -2.24425
   D20       -0.17344   0.00114   0.00000   0.01613   0.01591  -0.15753
   D21        1.88750   0.00026   0.00000   0.00893   0.00862   1.89612
   D22        0.01976   0.00242   0.00000   0.01945   0.01950   0.03927
   D23        2.12831   0.00271   0.00000   0.01788   0.01790   2.14621
   D24       -2.09005   0.00184   0.00000   0.01062   0.01066  -2.07939
   D25       -2.03134  -0.00147   0.00000  -0.00460  -0.00459  -2.03593
   D26        0.07721  -0.00118   0.00000  -0.00616  -0.00620   0.07102
   D27        2.14203  -0.00205   0.00000  -0.01343  -0.01344   2.12860
   D28        2.18662  -0.00061   0.00000   0.00306   0.00306   2.18968
   D29       -1.98802  -0.00032   0.00000   0.00150   0.00145  -1.98657
   D30        0.07680  -0.00119   0.00000  -0.00576  -0.00579   0.07102
   D31       -0.02627  -0.00275   0.00000  -0.02350  -0.02359  -0.04986
   D32        2.06884  -0.00074   0.00000  -0.01188  -0.01191   2.05693
   D33       -2.15008  -0.00103   0.00000  -0.01467  -0.01472  -2.16480
   D34       -2.13097  -0.00244   0.00000  -0.01961  -0.01965  -2.15062
   D35       -0.03586  -0.00043   0.00000  -0.00800  -0.00797  -0.04383
   D36        2.02841  -0.00072   0.00000  -0.01079  -0.01077   2.01764
   D37        2.08752  -0.00130   0.00000  -0.01068  -0.01074   2.07678
   D38       -2.10056   0.00072   0.00000   0.00094   0.00094  -2.09962
   D39       -0.03629   0.00042   0.00000  -0.00185  -0.00187  -0.03816
         Item               Value     Threshold  Converged?
 Maximum Force            0.045180     0.000015     NO 
 RMS     Force            0.009655     0.000010     NO 
 Maximum Displacement     0.090738     0.000060     NO 
 RMS     Displacement     0.026830     0.000040     NO 
 Predicted change in Energy=-1.539867D-02
 GradGradGradGradGradGradGradGradGradGradGradGradGradGradGradGradGradGrad

 Leave Link  103 at Fri Jul 10 17:49:54 2009, MaxMem=   52428800 cpu:       0.2
 (Enter /data/hamilton/dch0ik/g03/l202.exe)
                          Input orientation:                          
 ---------------------------------------------------------------------
 Center     Atomic     Atomic              Coordinates (Angstroms)
 Number     Number      Type              X           Y           Z
 ---------------------------------------------------------------------
    1          6             0       -0.393498   -1.152910   -0.028016
    2          6             0        1.132040   -1.174170    0.061746
    3          6             0        1.615911    0.297335    0.006189
    4          6             0        0.364441    1.203866   -0.137945
    5          6             0       -0.887531    0.290817   -0.112801
    6          1             0       -0.801647   -1.783509   -0.834938
    7          1             0        1.498950   -1.712304   -0.860912
    8          1             0        1.527435   -1.730155    0.902035
    9          1             0        2.150003    0.535387    0.937510
   10          1             0        2.328144    0.466234   -0.814851
   11          1             0        0.329353    1.931846    0.685650
   12          1             0        0.398689    1.786458   -1.069905
   13          1             0       -1.525905    0.537230    0.754187
   14          1             0       -1.515649    0.428489   -1.006147
 ---------------------------------------------------------------------
                    Distance matrix (angstroms):
                    1          2          3          4          5
     1  C    0.000000
     2  C    1.528325   0.000000
     3  C    2.478328   1.550014   0.000000
     4  C    2.478094   2.506818   1.552015   0.000000
     5  C    1.528268   2.501063   2.506277   1.549750   0.000000
     6  H    1.102435   2.216863   3.298787   3.281763   2.198109
     7  H    2.141962   1.129385   2.191847   3.211517   3.204287
     8  H    2.210926   1.082378   2.218351   3.323039   3.308516
     9  H    3.201872   2.173889   1.099673   2.188995   3.223287
    10  H    3.263139   2.211337   1.099959   2.204185   3.296090
    11  H    3.247699   3.268164   2.188270   1.099770   2.193469
    12  H    3.217604   3.253268   2.203882   1.099607   2.192567
    13  H    2.179624   3.236207   3.238528   2.194018   1.104496
    14  H    2.171816   3.274014   3.293736   2.211271   1.100705
                    6          7          8          9         10
     6  H    0.000000
     7  H    2.301846   0.000000
     8  H    2.905950   1.763267   0.000000
     9  H    4.151035   2.951323   2.349794   0.000000
    10  H    3.854522   2.331462   2.900509   1.762749   0.000000
    11  H    4.170756   4.127910   3.859076   2.308310   2.897358
    12  H    3.773682   3.673635   4.186786   2.943126   2.351774
    13  H    2.904428   4.101061   3.806019   3.680477   4.161805
    14  H    2.330675   3.700257   4.190616   4.150449   3.848735
                   11         12         13         14
    11  H    0.000000
    12  H    1.762929   0.000000
    13  H    2.321989   2.931202   0.000000
    14  H    2.919981   2.347942   1.763719   0.000000
 Symmetry turned off by external request.
 Stoichiometry    C5H9(2)
 Framework group  C1[X(C5H9)]
 Deg. of freedom    36
 Full point group                 C1
 Rotational constants (GHZ):      6.8236566      6.4341738      3.6414494
 Leave Link  202 at Fri Jul 10 17:49:55 2009, MaxMem=   52428800 cpu:       0.1
 (Enter /data/hamilton/dch0ik/g03/l301.exe)
 Standard basis: EPR-II (5D, 7F)
 Integral buffers will be    262144 words long.
 Raffenetti 2 integral format.
 Two-electron integral symmetry is turned off.
   148 basis functions,   236 primitive gaussians,   153 cartesian basis functions
    20 alpha electrons       19 beta electrons
       nuclear repulsion energy       176.1160116006 Hartrees.
 IExCor= 402 DFT=T Ex=B+HF Corr=LYP ExCW=0 ScaHFX=  0.200000
 ScaDFX=  0.800000  0.720000  1.000000  0.810000
 IRadAn=      5 IRanWt=     -1 IRanGd=            0 ICorTp=0
 NAtoms=   14 NActive=   14 NUniq=   14 SFac= 7.50D-01 NAtFMM=  320 NAOKFM=F Big=F
 Leave Link  301 at Fri Jul 10 17:49:55 2009, MaxMem=   52428800 cpu:       0.0
 (Enter /data/hamilton/dch0ik/g03/linda-exe/l302.exel)
 NPDir=0 NMtPBC=     1 NCelOv=     1 NCel=       1 NClECP=     1 NCelD=      1
         NCelK=      1 NCelE2=     1 NClLst=     1 CellRange=     0.0.
 One-electron integrals computed using PRISM.
 NBasis=   148 RedAO= T  NBF=   148
 NBsUse=   148 1.00D-06 NBFU=   148
 Precomputing XC quadrature grid using
 IXCGrd= 2 IRadAn=           5 IRanWt=          -1 IRanGd=           0.
 NRdTot=    1180 NPtTot=      314080 NUsed=      319419 NTot=      319435
 NSgBfM=   148   148   148   148.
 Leave Link  302 at Fri Jul 10 17:49:57 2009, MaxMem=   52428800 cpu:       1.7
 (Enter /data/hamilton/dch0ik/g03/l303.exe)
 DipDrv:  MaxL=1.
 Leave Link  303 at Fri Jul 10 17:49:58 2009, MaxMem=   52428800 cpu:       0.1
 (Enter /data/hamilton/dch0ik/g03/l401.exe)
 Initial guess read from the read-write file:
 Guess basis will be translated and rotated to current coordinates.
 <S**2> of initial guess= 0.7532
 Generating alternative initial guess.
 Harris functional with IExCor=  402 diagonalized for initial guess.
 ExpMin= 4.79D-02 ExpMax= 4.23D+03 ExpMxC= 6.35D+02 IAcc=3 IRadAn=         5 AccDes= 0.00D+00
 HarFok:  IExCor= 402 AccDes= 0.00D+00 IRadAn=         5 IDoV=1
 ScaDFX=  1.000000  1.000000  1.000000  1.000000
 Harris En= -195.984791074362    
 Leave Link  401 at Fri Jul 10 17:50:07 2009, MaxMem=   52428800 cpu:      16.4
 (Enter /data/hamilton/dch0ik/g03/linda-exe/l502.exel)
 UHF open shell SCF:
 Requested convergence on RMS density matrix=1.00D-08 within 128 cycles.
 Requested convergence on MAX density matrix=1.00D-06.
 Requested convergence on             energy=1.00D-06.
 No special actions if energy rises.
 Using DIIS extrapolation, IDIIS=  1040.
 Two-electron integral symmetry not used.
       319418 words used for storage of precomputed grid.
 IEnd=    414177 IEndB=    414177 NGot=  52428800 MDV=  52054826
 LenX=  52054826
 Fock matrices will be formed incrementally for  20 cycles.

 Cycle   1  Pass 1  IDiag  1:
 Symmetry not used in FoFDir.
 MinBra= 0 MaxBra= 2 Meth= 1.
 IRaf=       0 NMat=   1 IRICut=       1 DoRegI=T DoRafI=F ISym2E= 0 JSym2E=0.
 E= -195.910731116659    
 DIIS: error= 3.18D-03 at cycle   1 NSaved=   1.
 NSaved= 1 IEnMin= 1 EnMin= -195.910731116659     IErMin= 1 ErrMin= 3.18D-03
 ErrMax= 3.18D-03 EMaxC= 1.00D-01 BMatC= 1.11D-02 BMatP= 1.11D-02
 IDIUse=3 WtCom= 9.68D-01 WtEn= 3.18D-02
 Coeff-Com:  0.100D+01
 Coeff-En:   0.100D+01
 Coeff:      0.100D+01
 Gap=     0.233 Goal=   None    Shift=    0.000
 Gap=     0.293 Goal=   None    Shift=    0.000
 GapD=    0.233 DampG=1.000 DampE=1.000 DampFc=1.0000 IDamp=-1.
 RMSDP=5.96D-04 MaxDP=1.21D-02              OVMax= 2.10D-02

 Cycle   2  Pass 1  IDiag  1:
 RMSU=  5.95D-04    CP:  9.97D-01
 E= -195.913709130154     Delta-E=       -0.002978013495 Rises=F Damp=F
 DIIS: error= 6.72D-04 at cycle   2 NSaved=   2.
 NSaved= 2 IEnMin= 2 EnMin= -195.913709130154     IErMin= 2 ErrMin= 6.72D-04
 ErrMax= 6.72D-04 EMaxC= 1.00D-01 BMatC= 3.76D-04 BMatP= 1.11D-02
 IDIUse=3 WtCom= 9.93D-01 WtEn= 6.72D-03
 Coeff-Com:  0.377D-01 0.962D+00
 Coeff-En:   0.000D+00 0.100D+01
 Coeff:      0.374D-01 0.963D+00
 Gap=     0.220 Goal=   None    Shift=    0.000
 Gap=     0.257 Goal=   None    Shift=    0.000
 RMSDP=1.50D-04 MaxDP=4.49D-03 DE=-2.98D-03 OVMax= 6.61D-03

 Cycle   3  Pass 1  IDiag  1:
 RMSU=  1.48D-04    CP:  9.96D-01  1.01D+00
 E= -195.913761846905     Delta-E=       -0.000052716750 Rises=F Damp=F
 DIIS: error= 5.38D-04 at cycle   3 NSaved=   3.
 NSaved= 3 IEnMin= 3 EnMin= -195.913761846905     IErMin= 3 ErrMin= 5.38D-04
 ErrMax= 5.38D-04 EMaxC= 1.00D-01 BMatC= 2.45D-04 BMatP= 3.76D-04
 IDIUse=3 WtCom= 9.95D-01 WtEn= 5.38D-03
 Coeff-Com: -0.788D-02 0.440D+00 0.568D+00
 Coeff-En:   0.000D+00 0.314D+00 0.686D+00
 Coeff:     -0.784D-02 0.439D+00 0.568D+00
 Gap=     0.222 Goal=   None    Shift=    0.000
 Gap=     0.255 Goal=   None    Shift=    0.000
 RMSDP=6.83D-05 MaxDP=3.57D-03 DE=-5.27D-05 OVMax= 2.70D-03

 Cycle   4  Pass 1  IDiag  1:
 RMSU=  3.92D-05    CP:  9.97D-01  1.04D+00  6.50D-01
 E= -195.913827641632     Delta-E=       -0.000065794727 Rises=F Damp=F
 DIIS: error= 2.24D-04 at cycle   4 NSaved=   4.
 NSaved= 4 IEnMin= 4 EnMin= -195.913827641632     IErMin= 4 ErrMin= 2.24D-04
 ErrMax= 2.24D-04 EMaxC= 1.00D-01 BMatC= 1.94D-05 BMatP= 2.45D-04
 IDIUse=3 WtCom= 9.98D-01 WtEn= 2.24D-03
 Coeff-Com: -0.767D-02 0.112D+00 0.254D+00 0.642D+00
 Coeff-En:   0.000D+00 0.000D+00 0.000D+00 0.100D+01
 Coeff:     -0.766D-02 0.112D+00 0.253D+00 0.642D+00
 Gap=     0.222 Goal=   None    Shift=    0.000
 Gap=     0.255 Goal=   None    Shift=    0.000
 RMSDP=1.68D-05 MaxDP=4.08D-04 DE=-6.58D-05 OVMax= 5.91D-04

 Cycle   5  Pass 1  IDiag  1:
 RMSU=  1.26D-05    CP:  9.96D-01  1.04D+00  7.11D-01  8.48D-01
 E= -195.913832882456     Delta-E=       -0.000005240823 Rises=F Damp=F
 DIIS: error= 3.19D-05 at cycle   5 NSaved=   5.
 NSaved= 5 IEnMin= 5 EnMin= -195.913832882456     IErMin= 5 ErrMin= 3.19D-05
 ErrMax= 3.19D-05 EMaxC= 1.00D-01 BMatC= 4.90D-07 BMatP= 1.94D-05
 IDIUse=1 WtCom= 1.00D+00 WtEn= 0.00D+00
 Coeff-Com: -0.282D-03-0.169D-01-0.519D-02 0.103D+00 0.919D+00
 Coeff:     -0.282D-03-0.169D-01-0.519D-02 0.103D+00 0.919D+00
 Gap=     0.222 Goal=   None    Shift=    0.000
 Gap=     0.255 Goal=   None    Shift=    0.000
 RMSDP=5.35D-06 MaxDP=1.90D-04 DE=-5.24D-06 OVMax= 2.74D-04

 Cycle   6  Pass 1  IDiag  1:
 RMSU=  3.39D-06    CP:  9.96D-01  1.05D+00  7.25D-01  9.30D-01  9.80D-01
 E= -195.913833086136     Delta-E=       -0.000000203681 Rises=F Damp=F
 DIIS: error= 1.09D-05 at cycle   6 NSaved=   6.
 NSaved= 6 IEnMin= 6 EnMin= -195.913833086136     IErMin= 6 ErrMin= 1.09D-05
 ErrMax= 1.09D-05 EMaxC= 1.00D-01 BMatC= 9.92D-08 BMatP= 4.90D-07
 IDIUse=1 WtCom= 1.00D+00 WtEn= 0.00D+00
 Coeff-Com:  0.356D-03-0.140D-01-0.184D-01-0.766D-02 0.339D+00 0.700D+00
 Coeff:      0.356D-03-0.140D-01-0.184D-01-0.766D-02 0.339D+00 0.700D+00
 Gap=     0.222 Goal=   None    Shift=    0.000
 Gap=     0.255 Goal=   None    Shift=    0.000
 RMSDP=1.66D-06 MaxDP=7.19D-05 DE=-2.04D-07 OVMax= 7.57D-05

 Cycle   7  Pass 1  IDiag  1:
 RMSU=  1.51D-06    CP:  9.96D-01  1.05D+00  7.25D-01  9.40D-01  1.02D+00
                    CP:  9.96D-01
 E= -195.913833116696     Delta-E=       -0.000000030559 Rises=F Damp=F
 DIIS: error= 5.04D-06 at cycle   7 NSaved=   7.
 NSaved= 7 IEnMin= 7 EnMin= -195.913833116696     IErMin= 7 ErrMin= 5.04D-06
 ErrMax= 5.04D-06 EMaxC= 1.00D-01 BMatC= 2.10D-08 BMatP= 9.92D-08
 IDIUse=1 WtCom= 1.00D+00 WtEn= 0.00D+00
 Coeff-Com:  0.235D-03-0.205D-02-0.639D-02-0.299D-01-0.759D-01 0.315D+00
 Coeff-Com:  0.799D+00
 Coeff:      0.235D-03-0.205D-02-0.639D-02-0.299D-01-0.759D-01 0.315D+00
 Coeff:      0.799D+00
 Gap=     0.222 Goal=   None    Shift=    0.000
 Gap=     0.255 Goal=   None    Shift=    0.000
 RMSDP=8.18D-07 MaxDP=2.83D-05 DE=-3.06D-08 OVMax= 4.52D-05

 Cycle   8  Pass 1  IDiag  1:
 RMSU=  3.25D-07    CP:  9.96D-01  1.05D+00  7.27D-01  9.46D-01  1.04D+00
                    CP:  1.16D+00  9.09D-01
 E= -195.913833123959     Delta-E=       -0.000000007264 Rises=F Damp=F
 DIIS: error= 1.31D-06 at cycle   8 NSaved=   8.
 NSaved= 8 IEnMin= 8 EnMin= -195.913833123959     IErMin= 8 ErrMin= 1.31D-06
 ErrMax= 1.31D-06 EMaxC= 1.00D-01 BMatC= 5.91D-10 BMatP= 2.10D-08
 IDIUse=1 WtCom= 1.00D+00 WtEn= 0.00D+00
 Coeff-Com:  0.388D-04 0.297D-03-0.658D-03-0.776D-02-0.392D-01 0.565D-01
 Coeff-Com:  0.227D+00 0.764D+00
 Coeff:      0.388D-04 0.297D-03-0.658D-03-0.776D-02-0.392D-01 0.565D-01
 Coeff:      0.227D+00 0.764D+00
 Gap=     0.222 Goal=   None    Shift=    0.000
 Gap=     0.255 Goal=   None    Shift=    0.000
 RMSDP=1.63D-07 MaxDP=3.83D-06 DE=-7.26D-09 OVMax= 5.71D-06

 Cycle   9  Pass 1  IDiag  1:
 RMSU=  1.38D-07    CP:  9.96D-01  1.05D+00  7.28D-01  9.47D-01  1.04D+00
                    CP:  1.17D+00  9.23D-01  8.93D-01
 E= -195.913833124140     Delta-E=       -0.000000000181 Rises=F Damp=F
 DIIS: error= 4.27D-07 at cycle   9 NSaved=   9.
 NSaved= 9 IEnMin= 9 EnMin= -195.913833124140     IErMin= 9 ErrMin= 4.27D-07
 ErrMax= 4.27D-07 EMaxC= 1.00D-01 BMatC= 9.43D-11 BMatP= 5.91D-10
 IDIUse=1 WtCom= 1.00D+00 WtEn= 0.00D+00
 Coeff-Com: -0.131D-04 0.322D-03 0.495D-03 0.107D-02-0.350D-02-0.190D-01
 Coeff-Com: -0.214D-01 0.276D+00 0.766D+00
 Coeff:     -0.131D-04 0.322D-03 0.495D-03 0.107D-02-0.350D-02-0.190D-01
 Coeff:     -0.214D-01 0.276D+00 0.766D+00
 Gap=     0.222 Goal=   None    Shift=    0.000
 Gap=     0.255 Goal=   None    Shift=    0.000
 RMSDP=5.76D-08 MaxDP=1.37D-06 DE=-1.81D-10 OVMax= 1.95D-06

 Cycle  10  Pass 1  IDiag  1:
 RMSU=  3.04D-08    CP:  9.96D-01  1.05D+00  7.27D-01  9.47D-01  1.04D+00
                    CP:  1.17D+00  9.34D-01  9.82D-01  8.68D-01
 E= -195.913833124086     Delta-E=        0.000000000054 Rises=F Damp=F
 DIIS: error= 1.22D-07 at cycle  10 NSaved=  10.
 NSaved=10 IEnMin= 9 EnMin= -195.913833124140     IErMin=10 ErrMin= 1.22D-07
 ErrMax= 1.22D-07 EMaxC= 1.00D-01 BMatC= 8.14D-12 BMatP= 9.43D-11
 IDIUse=1 WtCom= 1.00D+00 WtEn= 0.00D+00
 Coeff-Com: -0.719D-05 0.797D-04 0.213D-03 0.994D-03 0.198D-02-0.112D-01
 Coeff-Com: -0.254D-01 0.359D-01 0.256D+00 0.742D+00
 Coeff:     -0.719D-05 0.797D-04 0.213D-03 0.994D-03 0.198D-02-0.112D-01
 Coeff:     -0.254D-01 0.359D-01 0.256D+00 0.742D+00
 Gap=     0.222 Goal=   None    Shift=    0.000
 Gap=     0.255 Goal=   None    Shift=    0.000
 RMSDP=1.56D-08 MaxDP=5.44D-07 DE= 5.37D-11 OVMax= 5.61D-07

 Cycle  11  Pass 1  IDiag  1:
 RMSU=  1.26D-08    CP:  9.96D-01  1.05D+00  7.27D-01  9.47D-01  1.04D+00
                    CP:  1.17D+00  9.36D-01  9.95D-01  8.98D-01  9.15D-01
 E= -195.913833124088     Delta-E=       -0.000000000002 Rises=F Damp=F
 DIIS: error= 5.48D-08 at cycle  11 NSaved=  11.
 NSaved=11 IEnMin= 9 EnMin= -195.913833124140     IErMin=11 ErrMin= 5.48D-08
 ErrMax= 5.48D-08 EMaxC= 1.00D-01 BMatC= 1.77D-12 BMatP= 8.14D-12
 IDIUse=1 WtCom= 1.00D+00 WtEn= 0.00D+00
 Coeff-Com: -0.103D-05-0.194D-04 0.119D-04 0.241D-03 0.144D-02-0.161D-02
 Coeff-Com: -0.688D-02-0.333D-01-0.302D-01 0.316D+00 0.755D+00
 Coeff:     -0.103D-05-0.194D-04 0.119D-04 0.241D-03 0.144D-02-0.161D-02
 Coeff:     -0.688D-02-0.333D-01-0.302D-01 0.316D+00 0.755D+00
 Gap=     0.222 Goal=   None    Shift=    0.000
 Gap=     0.255 Goal=   None    Shift=    0.000
 RMSDP=6.70D-09 MaxDP=2.25D-07 DE=-2.13D-12 OVMax= 2.12D-07

 SCF Done:  E(UB+HF-LYP) =  -195.913833124     A.U. after   11 cycles
             Convg  =    0.6702D-08             -V/T =  2.0088
             S**2   =   0.7533
 KE= 1.942061977587D+02 PE=-8.051131875014D+02 EE= 2.388771450180D+02
 Annihilation of the first spin contaminant:
 S**2 before annihilation     0.7533,   after     0.7500
 Leave Link  502 at Fri Jul 10 17:50:56 2009, MaxMem=   52428800 cpu:      78.6
 (Enter /data/hamilton/dch0ik/g03/linda-exe/l701.exel)
 Compute integral first derivatives.
 ... and contract with generalized density number  0.
 Leave Link  701 at Fri Jul 10 17:50:57 2009, MaxMem=   52428800 cpu:       0.5
 (Enter /data/hamilton/dch0ik/g03/l702.exe)
 L702 exits ... SP integral derivatives will be done elsewhere.
 Leave Link  702 at Fri Jul 10 17:50:58 2009, MaxMem=   52428800 cpu:       0.0
 (Enter /data/hamilton/dch0ik/g03/linda-exe/l703.exel)
 Compute integral first derivatives, UseDBF=F.
 Integral derivatives from FoFDir, PRISM(SPDF).
 Symmetry not used in FoFDir.
 MinBra= 0 MaxBra= 2 Meth= 1.
 IRaf=       0 NMat=   1 IRICut=       1 DoRegI=T DoRafI=F ISym2E= 0 JSym2E=0.
 Leave Link  703 at Fri Jul 10 17:51:07 2009, MaxMem=   52428800 cpu:      15.1
 (Enter /data/hamilton/dch0ik/g03/l716.exe)
 Dipole        = 1.41371008D-01 1.72877933D-01-1.90019007D-01
 -------------------------------------------------------------------
 Center     Atomic                   Forces (Hartrees/Bohr)
 Number     Number              X              Y              Z
 -------------------------------------------------------------------
    1          6           0.006804878    0.010593584   -0.025907525
    2          6          -0.001372999   -0.009342647   -0.030397343
    3          6           0.007692865    0.003031186    0.009606807
    4          6           0.000532875    0.008707914    0.000494193
    5          6          -0.007452250   -0.003965447    0.008629673
    6          1          -0.002857173   -0.005522684    0.014447535
    7          1          -0.003653109    0.005182192    0.015874559
    8          1           0.001951322   -0.002606262    0.008669670
    9          1          -0.000712623    0.001184151   -0.003234245
   10          1          -0.003056877   -0.002408879    0.002730305
   11          1          -0.000290708   -0.001676059   -0.003455747
   12          1           0.000241024   -0.002438789    0.002618208
   13          1           0.000985162   -0.000406773   -0.002999829
   14          1           0.001187614   -0.000331487    0.002923739
 -------------------------------------------------------------------
 Cartesian Forces:  Max     0.030397343 RMS     0.008357885
 Leave Link  716 at Fri Jul 10 17:51:08 2009, MaxMem=   52428800 cpu:       0.0
 (Enter /data/hamilton/dch0ik/g03/l103.exe)

 GradGradGradGradGradGradGradGradGradGradGradGradGradGradGradGradGradGrad
 Berny optimization.
[...]
 Alpha virt. eigenvalues --    1.86724   1.89582   1.91757   1.95924   2.00533
 Alpha virt. eigenvalues --    2.00573   2.07539   2.12150   2.15876   2.18052
 Alpha virt. eigenvalues --    2.20970   2.22812   2.27348   2.29642   2.36067
 Alpha virt. eigenvalues --    2.38373   2.45408   2.48565   2.48654   2.52407
 Alpha virt. eigenvalues --    2.55700   2.55998   2.57145   2.58239   2.68883
 Alpha virt. eigenvalues --    4.99058   5.00030   5.01633   5.02522   5.07857
 Alpha virt. eigenvalues --    5.17393   5.22211   5.25668   5.31084   5.35334
 Alpha virt. eigenvalues --    5.40700   5.49270   5.81797   5.82467  29.64274
 Alpha virt. eigenvalues --   29.83944  29.96193  30.22630  30.23218  36.62237
 Alpha virt. eigenvalues --   36.62641  36.64341  36.64626  36.74461  36.79867
 Alpha virt. eigenvalues --   36.81504  36.88568  36.92238
  Beta  occ. eigenvalues --  -10.18407 -10.18407 -10.18037 -10.18017 -10.17196
  Beta  occ. eigenvalues --   -0.82009  -0.70429  -0.68171  -0.56550  -0.52969
  Beta  occ. eigenvalues --   -0.47501  -0.46403  -0.40684  -0.37040  -0.34336
  Beta  occ. eigenvalues --   -0.34143  -0.33276  -0.32949  -0.31862
  Beta virt. eigenvalues --   -0.03456   0.02713   0.04496   0.04942   0.05680
  Beta virt. eigenvalues --    0.06897   0.16202   0.17679   0.18449   0.20312
  Beta virt. eigenvalues --    0.21029   0.21979   0.22123   0.24307   0.26285
  Beta virt. eigenvalues --    0.27596   0.27706   0.28662   0.30848   0.31443
  Beta virt. eigenvalues --    0.33520   0.34202   0.34575   0.36147   0.38165
  Beta virt. eigenvalues --    0.41388   0.42106   0.45596   0.48514   0.48717
  Beta virt. eigenvalues --    0.50583   0.51708   0.52761   0.56819   0.61294
  Beta virt. eigenvalues --    0.75649   0.79058   0.82216   0.83424   0.88637
  Beta virt. eigenvalues --    0.90150   0.90976   0.91409   0.92782   0.92905
  Beta virt. eigenvalues --    0.94188   0.95057   0.98813   0.99533   1.13333
  Beta virt. eigenvalues --    1.13797   1.15011   1.19027   1.20222   1.25418
  Beta virt. eigenvalues --    1.33787   1.34863   1.36770   1.42679   1.45137
  Beta virt. eigenvalues --    1.47109   1.50128   1.50191   1.54233   1.55681
  Beta virt. eigenvalues --    1.55725   1.57677   1.62751   1.64248   1.65318
  Beta virt. eigenvalues --    1.66106   1.67252   1.70866   1.76847   1.78297
  Beta virt. eigenvalues --    1.79206   1.86948   1.90200   1.93016   1.96116
  Beta virt. eigenvalues --    2.01352   2.01729   2.08003   2.12420   2.16694
  Beta virt. eigenvalues --    2.18380   2.21125   2.23388   2.27801   2.30095
  Beta virt. eigenvalues --    2.36397   2.38910   2.45551   2.48852   2.49053
  Beta virt. eigenvalues --    2.52519   2.55930   2.56347   2.57525   2.58368
  Beta virt. eigenvalues --    2.69549   4.99463   5.01079   5.02383   5.02560
  Beta virt. eigenvalues --    5.08479   5.17300   5.23138   5.26713   5.31142
  Beta virt. eigenvalues --    5.36052   5.41391   5.49245   5.82455   5.82758
  Beta virt. eigenvalues --   29.65052  29.84635  29.96116  30.23091  30.23194
  Beta virt. eigenvalues --   36.63743  36.63769  36.64853  36.64941  36.73795
  Beta virt. eigenvalues --   36.81387  36.81645  36.88771  36.93388
          Condensed to atoms (all electrons):
              1          2          3          4          5          6
     1  C    5.224440   0.342378  -0.015927  -0.015910   0.342389   0.398182
     2  C    0.342378   4.888569   0.320564  -0.013166  -0.030451  -0.038956
     3  C   -0.015927   0.320564   4.955149   0.308174  -0.013160  -0.000449
     4  C   -0.015910  -0.013166   0.308174   4.955128   0.320575  -0.000455
     5  C    0.342389  -0.030451  -0.013160   0.320575   4.888522  -0.038949
     6  H    0.398182  -0.038956  -0.000449  -0.000455  -0.038949   0.599905
     7  H   -0.039287   0.425786  -0.029646  -0.000405  -0.001856  -0.000889
     8  H   -0.035921   0.422319  -0.018540  -0.000865   0.002217  -0.001312
     9  H   -0.004922  -0.024054   0.426002  -0.029733   0.001768   0.000096
    10  H   -0.000639  -0.026780   0.420983  -0.024834   0.000945  -0.000089
    11  H   -0.000643   0.000948  -0.024838   0.420978  -0.026777  -0.000089
    12  H   -0.004921   0.001765  -0.029731   0.426001  -0.024054   0.000096
    13  H   -0.039293  -0.001856  -0.000405  -0.029650   0.425786  -0.000890
    14  H   -0.035923   0.002217  -0.000865  -0.018539   0.422321  -0.001311
              7          8          9         10         11         12
     1  C   -0.039287  -0.035921  -0.004922  -0.000639  -0.000643  -0.004921
     2  C    0.425786   0.422319  -0.024054  -0.026780   0.000948   0.001765
     3  C   -0.029646  -0.018540   0.426002   0.420983  -0.024838  -0.029731
     4  C   -0.000405  -0.000865  -0.029733  -0.024834   0.420978   0.426001
     5  C   -0.001856   0.002217   0.001768   0.000945  -0.026777  -0.024054
     6  H   -0.000889  -0.001312   0.000096  -0.000089  -0.000089   0.000096
     7  H    0.530125  -0.033857   0.002337  -0.004707  -0.000007   0.000695
     8  H   -0.033857   0.530976  -0.005928   0.000232  -0.000061   0.000046
     9  H    0.002337  -0.005928   0.508283  -0.027731  -0.005508   0.002390
    10  H   -0.004707   0.000232  -0.027731   0.535554   0.000117  -0.005508
    11  H   -0.000007  -0.000061  -0.005508   0.000117   0.535568  -0.027732
    12  H    0.000695   0.000046   0.002390  -0.005508  -0.027732   0.508283
    13  H   -0.000078   0.000143   0.000695  -0.000007  -0.004706   0.002337
    14  H    0.000143  -0.000061   0.000046  -0.000061   0.000231  -0.005926
             13         14
     1  C   -0.039293  -0.035923
     2  C   -0.001856   0.002217
     3  C   -0.000405  -0.000865
     4  C   -0.029650  -0.018539
     5  C    0.425786   0.422321
     6  H   -0.000890  -0.001311
     7  H   -0.000078   0.000143
     8  H    0.000143  -0.000061
     9  H    0.000695   0.000046
    10  H   -0.000007  -0.000061
    11  H   -0.004706   0.000231
    12  H    0.002337  -0.005926
    13  H    0.530142  -0.033857
    14  H   -0.033857   0.530981
 Mulliken atomic charges:
              1
     1  C   -0.114006
     2  C   -0.269284
     3  C   -0.297310
     4  C   -0.297299
     5  C   -0.269274
     6  H    0.085109
     7  H    0.151646
     8  H    0.140611
     9  H    0.156258
    10  H    0.132526
    11  H    0.132519
    12  H    0.156260
    13  H    0.151639
    14  H    0.140605
 Sum of Mulliken charges=   0.00000
 Atomic charges with hydrogens summed into heavy atoms:
              1
     1  C   -0.028896
     2  C    0.022973
     3  C   -0.008526
     4  C   -0.008520
     5  C    0.022969
     6  H    0.000000
     7  H    0.000000
     8  H    0.000000
     9  H    0.000000
    10  H    0.000000
    11  H    0.000000
    12  H    0.000000
    13  H    0.000000
    14  H    0.000000
 Sum of Mulliken charges=   0.00000
          Atomic-Atomic Spin Densities.
              1          2          3          4          5          6
     1  C    1.196254  -0.047122  -0.003045  -0.003043  -0.047119   0.007119
     2  C   -0.047122  -0.054948   0.006748  -0.000743   0.000177  -0.000617
     3  C   -0.003045   0.006748   0.005518   0.000734  -0.000742   0.000618
     4  C   -0.003043  -0.000743   0.000734   0.005525   0.006748   0.000618
     5  C   -0.047119   0.000177  -0.000742   0.006748  -0.054944  -0.000617
     6  H    0.007119  -0.000617   0.000618   0.000618  -0.000617  -0.058499
     7  H   -0.027620   0.017037  -0.000172  -0.004649   0.001020   0.000224
     8  H   -0.017361   0.010195   0.002459   0.001871   0.000286   0.000291
     9  H    0.000693   0.000058   0.000319  -0.000962  -0.000040  -0.000030
    10  H    0.000413   0.000750  -0.000106  -0.002018  -0.000159   0.000008
    11  H    0.000413  -0.000159  -0.002019  -0.000107   0.000751   0.000008
    12  H    0.000693  -0.000040  -0.000961   0.000318   0.000058  -0.000030
    13  H   -0.027629   0.001022  -0.004650  -0.000176   0.017042   0.000222
    14  H   -0.017352   0.000285   0.001870   0.002462   0.010188   0.000292
              7          8          9         10         11         12
     1  C   -0.027620  -0.017361   0.000693   0.000413   0.000413   0.000693
     2  C    0.017037   0.010195   0.000058   0.000750  -0.000159  -0.000040
     3  C   -0.000172   0.002459   0.000319  -0.000106  -0.002019  -0.000961
     4  C   -0.004649   0.001871  -0.000962  -0.002018  -0.000107   0.000318
     5  C    0.001020   0.000286  -0.000040  -0.000159   0.000751   0.000058
     6  H    0.000224   0.000291  -0.000030   0.000008   0.000008  -0.000030
     7  H    0.075790  -0.012204   0.000191   0.001062  -0.000047  -0.000111
     8  H   -0.012204   0.043065  -0.000410  -0.000475   0.000016   0.000013
     9  H    0.000191  -0.000410  -0.000492   0.000380  -0.000026  -0.000026
    10  H    0.001062  -0.000475   0.000380   0.000711  -0.000238  -0.000026
    11  H   -0.000047   0.000016  -0.000026  -0.000238   0.000713   0.000380
    12  H   -0.000111   0.000013  -0.000026  -0.000026   0.000380  -0.000493
    13  H   -0.000168   0.000230  -0.000111  -0.000047   0.001062   0.000191
    14  H    0.000229  -0.000052   0.000013   0.000016  -0.000475  -0.000409
             13         14
     1  C   -0.027629  -0.017352
     2  C    0.001022   0.000285
     3  C   -0.004650   0.001870
     4  C   -0.000176   0.002462
     5  C    0.017042   0.010188
     6  H    0.000222   0.000292
     7  H   -0.000168   0.000229
     8  H    0.000230  -0.000052
     9  H   -0.000111   0.000013
    10  H   -0.000047   0.000016
    11  H    0.001062  -0.000475
    12  H    0.000191  -0.000409
    13  H    0.075807  -0.012203
    14  H   -0.012203   0.043042
 Mulliken atomic spin densities:
              1
     1  C    1.015295
     2  C   -0.067357
     3  C    0.006570
     4  C    0.006579
     5  C   -0.067354
     6  H   -0.050395
     7  H    0.050583
     8  H    0.027923
     9  H   -0.000443
    10  H    0.000271
    11  H    0.000272
    12  H   -0.000443
    13  H    0.050594
    14  H    0.027906
 Sum of Mulliken spin densities=   1.00000
 Electronic spatial extent (au):  <R**2>=   424.1050
 Charge=     0.0000 electrons
 Dipole moment (field-independent basis, Debye):
    X=     0.1326    Y=     0.1830    Z=     0.0147  Tot=     0.2264
 Quadrupole moment (field-independent basis, Debye-Ang):
   XX=   -32.1305   YY=   -32.4351   ZZ=   -32.3276
   XY=    -0.1730   XZ=    -0.1289   YZ=     0.0446
 Traceless Quadrupole moment (field-independent basis, Debye-Ang):
   XX=     0.1673   YY=    -0.1374   ZZ=    -0.0299
   XY=    -0.1730   XZ=    -0.1289   YZ=     0.0446
 Octapole moment (field-independent basis, Debye-Ang**2):
  XXX=   -39.7277  YYY=     4.5920  ZZZ=    11.2418  XYY=   -13.4604
  XXY=     1.4236  XXZ=     2.5655  XZZ=   -12.2423  YZZ=     3.2467
  YYZ=     4.2917  XYZ=    -0.3539
 Hexadecapole moment (field-independent basis, Debye-Ang**3):
 XXXX=  -275.4463 YYYY=  -237.0856 ZZZZ=   -70.9499 XXXY=     7.4942
 XXXZ=    -3.2220 YYYX=     7.5151 YYYZ=    -1.3891 ZZZX=    -2.8495
 ZZZY=    -3.1984 XXYY=   -85.2984 XXZZ=   -56.1694 YYZZ=   -52.9389
 XXYZ=    -1.8366 YYXZ=     0.4823 ZZXY=     0.2067
 N-N= 1.777228075051D+02 E-N=-8.083858622895D+02  KE= 1.942609167744D+02
                          Isotropic Fermi Contact Couplings
        Atom                 a.u.       MegaHertz       Gauss      10(-4) cm-1
     1  C(13)              0.08225      92.46573      32.99407      30.84325
     2  C(13)             -0.02990     -33.61031     -11.99299     -11.21119
     3  C(13)              0.00190       2.13249       0.76093       0.71132
     4  C(13)              0.00190       2.13950       0.76343       0.71366
     5  C(13)             -0.02990     -33.60851     -11.99235     -11.21059
     6  H(1)              -0.01442     -64.47715     -23.00705     -21.50726
     7  H(1)               0.02943     131.56272      46.94485      43.88460
     8  H(1)               0.01648      73.64625      26.27881      24.56574
     9  H(1)              -0.00036      -1.58797      -0.56663      -0.52969
    10  H(1)              -0.00021      -0.91714      -0.32726      -0.30592
    11  H(1)              -0.00020      -0.91550      -0.32667      -0.30538
    12  H(1)              -0.00036      -1.58861      -0.56686      -0.52990
    13  H(1)               0.02944     131.58302      46.95209      43.89137
    14  H(1)               0.01647      73.60605      26.26447      24.55233
 --------------------------------------------------------
       Center         ----  Spin Dipole Couplings  ----
                      3XX-RR        3YY-RR        3ZZ-RR
 --------------------------------------------------------
     1   Atom       -0.553337     -0.541156      1.094493
     2   Atom        0.010822     -0.015528      0.004706
     3   Atom        0.002540      0.005980     -0.008520
     4   Atom        0.000056      0.008895     -0.008951
     5   Atom       -0.011427      0.007181      0.004246
     6   Atom       -0.022312      0.023171     -0.000859
     7   Atom        0.013005     -0.009022     -0.003982
     8   Atom        0.011483     -0.003644     -0.007839
     9   Atom        0.002334     -0.000557     -0.001776
    10   Atom        0.003374     -0.000133     -0.003241
    11   Atom       -0.002461      0.005637     -0.003176
    12   Atom       -0.003155      0.006375     -0.003220
    13   Atom       -0.004591      0.007826     -0.003236
    14   Atom        0.001774      0.006316     -0.008090
 --------------------------------------------------------
                        XY            XZ            YZ
 --------------------------------------------------------
     1   Atom        0.001836      0.003411     -0.133299
     2   Atom       -0.002334      0.001197      0.000293
     3   Atom        0.009802      0.001472      0.002813
     4   Atom        0.009144     -0.000606      0.000245
     5   Atom       -0.009473     -0.002117     -0.001677
     6   Atom        0.068599      0.005493      0.001887
     7   Atom       -0.002597     -0.007913      0.002139
     8   Atom       -0.007484      0.004740     -0.002043
     9   Atom        0.005473      0.004636      0.004238
    10   Atom        0.004555     -0.000009      0.000383
    11   Atom        0.002617     -0.000035      0.001019
    12   Atom        0.004196     -0.002239     -0.004562
    13   Atom       -0.008635     -0.005503      0.007472
    14   Atom       -0.010584      0.003069     -0.003208
 --------------------------------------------------------


 ---------------------------------------------------------------------------------
              Anisotropic Spin Dipole Couplings in Principal Axis System
 ---------------------------------------------------------------------------------

       Atom             a.u.   MegaHertz   Gauss  10(-4) cm-1        Axes

              Baa    -0.5549   -74.457   -26.568   -24.836  0.8107 -0.5834 -0.0488
     1 C(13)  Bbb    -0.5504   -73.862   -26.356   -24.638  0.5854  0.8082  0.0643
              Bcc     1.1053   148.319    52.924    49.474  0.0020 -0.0807  0.9967
 
              Baa    -0.0157    -2.112    -0.754    -0.705  0.0884  0.9959 -0.0194
     2 C(13)  Bbb     0.0045     0.605     0.216     0.202 -0.1736  0.0346  0.9842
              Bcc     0.0112     1.508     0.538     0.503  0.9808 -0.0836  0.1760
 
              Baa    -0.0091    -1.217    -0.434    -0.406  0.0669 -0.2252  0.9720
     3 C(13)  Bbb    -0.0056    -0.746    -0.266    -0.249  0.7705 -0.6074 -0.1937
              Bcc     0.0146     1.963     0.700     0.655  0.6340  0.7618  0.1329
 
              Baa    -0.0091    -1.218    -0.434    -0.406  0.1605 -0.0951  0.9824
     4 C(13)  Bbb    -0.0056    -0.746    -0.266    -0.249  0.8317 -0.5230 -0.1865
              Bcc     0.0146     1.963     0.701     0.655  0.5316  0.8470 -0.0049
 
              Baa    -0.0157    -2.112    -0.754    -0.705  0.9131  0.3868  0.1292
     5 C(13)  Bbb     0.0045     0.605     0.216     0.202 -0.1605  0.0497  0.9858
              Bcc     0.0112     1.507     0.538     0.503 -0.3749  0.9208 -0.1075
 
              Baa    -0.0720   -38.415   -13.708   -12.814  0.8108 -0.5835 -0.0471
     6 H(1)   Bbb    -0.0010    -0.537    -0.192    -0.179  0.0006 -0.0796  0.9968
              Bcc     0.0730    38.952    13.899    12.993  0.5854  0.8082  0.0642
 
              Baa    -0.0098    -5.237    -1.869    -1.747 -0.0234  0.9279 -0.3721
     7 H(1)   Bbb    -0.0067    -3.578    -1.277    -1.194  0.3883  0.3514  0.8519
              Bcc     0.0165     8.815     3.145     2.940  0.9212 -0.1245 -0.3685
 
              Baa    -0.0090    -4.788    -1.709    -1.597 -0.1836  0.1163  0.9761
     8 H(1)   Bbb    -0.0067    -3.584    -1.279    -1.196  0.3882  0.9209 -0.0367
              Bcc     0.0157     8.372     2.987     2.793  0.9031 -0.3722  0.2142
 
              Baa    -0.0055    -2.909    -1.038    -0.970  0.0451 -0.6822  0.7297
     9 H(1)   Bbb    -0.0045    -2.377    -0.848    -0.793  0.7247 -0.4805 -0.4940
              Bcc     0.0099     5.286     1.886     1.763  0.6876  0.5511  0.4727
 
              Baa    -0.0036    -1.907    -0.680    -0.636  0.3930 -0.5980  0.6986
    10 H(1)   Bbb    -0.0029    -1.564    -0.558    -0.522 -0.4085  0.5670  0.7152
              Bcc     0.0065     3.471     1.239     1.158  0.8238  0.5665  0.0214
 
              Baa    -0.0036    -1.907    -0.680    -0.636  0.6372 -0.2612  0.7251
    11 H(1)   Bbb    -0.0029    -1.564    -0.558    -0.522  0.7187 -0.1384 -0.6814
              Bcc     0.0065     3.471     1.239     1.158  0.2784  0.9553  0.0996
 
              Baa    -0.0055    -2.910    -1.038    -0.971  0.6055  0.0901  0.7907
    12 H(1)   Bbb    -0.0045    -2.378    -0.848    -0.793  0.7193 -0.4872 -0.4952
              Bcc     0.0099     5.288     1.887     1.764  0.3406  0.8686 -0.3599
 
              Baa    -0.0098    -5.237    -1.869    -1.747  0.8575  0.2235  0.4634
    13 H(1)   Bbb    -0.0067    -3.577    -1.276    -1.193 -0.2742 -0.5636  0.7792
              Bcc     0.0165     8.814     3.145     2.940 -0.4353  0.7952  0.4220
 
              Baa    -0.0090    -4.788    -1.708    -1.597 -0.2406  0.0369  0.9699
    14 H(1)   Bbb    -0.0067    -3.585    -1.279    -1.196  0.7465  0.6457  0.1606
              Bcc     0.0157     8.373     2.988     2.793 -0.6203  0.7627 -0.1829
 

 ---------------------------------------------------------------------------------

 Calculating spin-rotation constants.
 Leave Link  601 at Fri Jul 10 18:10:15 2009, MaxMem=   52428800 cpu:      10.7
 (Enter /data/hamilton/dch0ik/g03/l9999.exe)
 1\1\GINC-NODE196\SP\UB3LYP\EPR-II\C5H9(2)\DCH0IK\10-Jul-2009\0\\#p nmr
 =giao ub3lyp/EPR-II scf=tight nosymm integral=(grid=ultrafine) geom=ch
 eckpoint\\Cyclopentyl radical.\\0,2\C,0,-0.3429598837,-1.0923798265,-0
 .1949367746\C,0,1.1645155972,-1.1335322508,-0.2058985324\C,0,1.5719924
 63,0.3065904215,0.2063718067\C,0,0.4083171946,1.1899000121,-0.30355267
 06\C,0,-0.8570845134,0.3202373777,-0.074694405\H,0,-0.9786017896,-1.97
 00080284,-0.2646587274\H,0,1.5463151244,-1.3651167651,-1.2148158101\H,
 0,1.5794545803,-1.8996786966,0.4618223599\H,0,1.6309573363,0.370100814
 2,1.2993271486\H,0,2.5429066967,0.6078851076,-0.1983684756\H,0,0.35747
 64057,2.1589516923,0.2020391414\H,0,0.5319701554,1.3785037287,-1.37649
 18017\H,0,-1.2719779177,0.5056596655,0.9306932337\H,0,-1.6625460291,0.
 5475000278,-0.785034493\\Version=IA32L-G03RevD.01\HF=-195.9292314\S2=0
 .754186\S2-1=0.\S2A=0.750012\RMSD=5.269e-09\Thermal=0.\Dipole=0.05216,
 0.071988,0.0057961\PG=C01 [X(C5H9)]\\@


 AS FAR AS THE LAWS OF MATHEMATICS REFER TO REALITY,
 THEY ARE NOT CERTAIN; AND AS FAR AS THEY ARE CERTAIN,
 THEY DO NOT REFER TO REALITY.

                                         -- ALBERT EINSTEIN
 Job cpu time:  0 days  0 hours  0 minutes 32.3 seconds.
 File lengths (MBytes):  RWF=     30 Int=      0 D2E=      0 Chk=      9 Scr=      1
 Normal termination of Gaussian 03 at Fri Jul 10 18:10:16 2009.
