 Entering Gaussian System, Link 0=g03
 Initial command:
 /home/system/software/orac/g03_E.01/g03/l1.exe /scratch/pbs.76018.orac/Gau-228781.inp -scrdir=/scratch/pbs.76018.orac/
 Entering Link 1 = /home/system/software/orac/g03_E.01/g03/l1.exe PID=    228782.
  
 Copyright (c) 1988,1990,1992,1993,1995,1998,2003,2004,2007, Gaussian, Inc.
                  All Rights Reserved.
  
 This is the Gaussian(R) 03 program.  It is based on the
 the Gaussian(R) 98 system (copyright 1998, Gaussian, Inc.),
 the Gaussian(R) 94 system (copyright 1995, Gaussian, Inc.),
 the Gaussian 92(TM) system (copyright 1992, Gaussian, Inc.),
 the Gaussian 90(TM) system (copyright 1990, Gaussian, Inc.),
 the Gaussian 88(TM) system (copyright 1988, Gaussian, Inc.),
 the Gaussian 86(TM) system (copyright 1986, Carnegie Mellon
 University), and the Gaussian 82(TM) system (copyright 1983,
 Carnegie Mellon University). Gaussian is a federally registered
 trademark of Gaussian, Inc.
  
 This software contains proprietary and confidential information,
 including trade secrets, belonging to Gaussian, Inc.
  
 This software is provided under written license and may be
 used, copied, transmitted, or stored only in accord with that
 written license.
  
 The following legend is applicable only to US Government
 contracts under FAR:
  
                    RESTRICTED RIGHTS LEGEND
  
 Use, reproduction and disclosure by the US Government is
 subject to restrictions as set forth in subparagraphs (a)
 and (c) of the Commercial Computer Software - Restricted
 Rights clause in FAR 52.227-19.
  
 Gaussian, Inc.
 340 Quinnipiac St., Bldg. 40, Wallingford CT 06492
  
  
 ---------------------------------------------------------------
 Warning -- This program may not be used in any manner that
 competes with the business of Gaussian, Inc. or will provide
 assistance to any competitor of Gaussian, Inc.  The licensee
 of this program is prohibited from giving any competitor of
 Gaussian, Inc. access to this program.  By using this program,
 the user acknowledges that Gaussian, Inc. is engaged in the
 business of creating and licensing software in the field of
 computational chemistry and represents and warrants to the
 licensee that it is not a competitor of Gaussian, Inc. and that
 it will not use this program in any manner prohibited above.
 ---------------------------------------------------------------
  

 Cite this work as:
 Gaussian 03, Revision E.01,
 M. J. Frisch, G. W. Trucks, H. B. Schlegel, G. E. Scuseria, 
 M. A. Robb, J. R. Cheeseman, J. A. Montgomery, Jr., T. Vreven, 
 K. N. Kudin, J. C. Burant, J. M. Millam, S. S. Iyengar, J. Tomasi, 
 V. Barone, B. Mennucci, M. Cossi, G. Scalmani, N. Rega, 
 G. A. Petersson, H. Nakatsuji, M. Hada, M. Ehara, K. Toyota, 
 R. Fukuda, J. Hasegawa, M. Ishida, T. Nakajima, Y. Honda, O. Kitao, 
 H. Nakai, M. Klene, X. Li, J. E. Knox, H. P. Hratchian, J. B. Cross, 
 V. Bakken, C. Adamo, J. Jaramillo, R. Gomperts, R. E. Stratmann, 
 O. Yazyev, A. J. Austin, R. Cammi, C. Pomelli, J. W. Ochterski, 
 P. Y. Ayala, K. Morokuma, G. A. Voth, P. Salvador, J. J. Dannenberg, 
 V. G. Zakrzewski, S. Dapprich, A. D. Daniels, M. C. Strain, 
 O. Farkas, D. K. Malick, A. D. Rabuck, K. Raghavachari, 
 J. B. Foresman, J. V. Ortiz, Q. Cui, A. G. Baboul, S. Clifford, 
 J. Cioslowski, B. B. Stefanov, G. Liu, A. Liashenko, P. Piskorz, 
 I. Komaromi, R. L. Martin, D. J. Fox, T. Keith, M. A. Al-Laham, 
 C. Y. Peng, A. Nanayakkara, M. Challacombe, P. M. W. Gill, 
 B. Johnson, W. Chen, M. W. Wong, C. Gonzalez, and J. A. Pople, 
 Gaussian, Inc., Wallingford CT, 2004.
 
 ******************************************
 Gaussian 03:  IA64L-G03RevE.01 11-Sep-2007
                 8-Sep-2010 
 ******************************************
 %Mem=12GB
 %NProcShared=4
 Will use up to    4 processors via shared memory.
 %chk=HJH070910_Mol_EG1.chk
 ----------------------------------------------------------------------
 # nmr=(giao,spinspin) b3lyp/epr-II geom=connectivity integral=(grid=ul
 trafine)
 ----------------------------------------------------------------------
 1/38=1,57=2/1;
 2/17=6,18=5,40=1/2;
 3/5=21,11=2,16=1,25=1,30=1,74=-5,75=5/1,2,8,3;
 4//1;
 5/5=2,38=5/2;
 8/6=1,10=90,11=11/1;
 10/13=100,45=16,47=1/2;
 6/7=2,8=2,9=2,10=2,28=1/1;
 99/9=1/99;
 ----------------------
 HJH_070910_Mol_EG1_nmr
 ----------------------
 Symbolic Z-matrix:
 Charge =  0 Multiplicity = 1
 C                     0.3805    0.2845    0.4467 
 C                     1.642     0.3427    1.143 
 C                     0.5289    1.3069    1.4476 
 H                     1.878    -0.332     1.7792 
 H                     2.4306    0.6517    0.6906 
 He                    0.604     2.2267    1.1866 
 He                    0.0515    1.243     2.2747 
 C                    -0.3805   -0.2845   -0.4467 
 C                    -1.642    -0.3427   -1.143 
 C                    -0.5289   -1.3069   -1.4476 
 He                   -1.878     0.332    -1.7792 
 He                   -2.4306   -0.6517   -0.6906 
 H                    -0.604    -2.2267   -1.1866 
 H                    -0.0515   -1.243    -2.2747 
 
                          Input orientation:                          
 ---------------------------------------------------------------------
 Center     Atomic     Atomic              Coordinates (Angstroms)
 Number     Number      Type              X           Y           Z
 ---------------------------------------------------------------------
    1          6             0        0.380500    0.284500    0.446700
    2          6             0        1.642000    0.342700    1.143000
    3          6             0        0.528900    1.306900    1.447600
    4          1             0        1.878000   -0.332000    1.779200
    5          1             0        2.430600    0.651700    0.690600
    6          2             0        0.604000    2.226700    1.186600
    7          2             0        0.051500    1.243000    2.274700
    8          6             0       -0.380500   -0.284500   -0.446700
    9          6             0       -1.642000   -0.342700   -1.143000
   10          6             0       -0.528900   -1.306900   -1.447600
   11          2             0       -1.878000    0.332000   -1.779200
   12          2             0       -2.430600   -0.651700   -0.690600
   13          1             0       -0.604000   -2.226700   -1.186600
   14          1             0       -0.051500   -1.243000   -2.274700
 ---------------------------------------------------------------------
                    Distance matrix (angstroms):
                    1          2          3          4          5
     1  C    0.000000
     2  C    1.442083   0.000000
     3  C    1.438445   1.503813   0.000000
     4  H    2.097173   0.956905   2.148493   0.000000
     5  H    2.096958   0.960227   2.149139   1.567827   0.000000
     6  He   2.090346   2.151465   0.959058   2.919109   2.462338
     7  He   2.090107   2.149645   0.957125   2.462163   2.918754
     8  C    1.304241   2.647835   2.635894   3.171389   3.173674
     9  C    2.647835   4.059584   3.761010   4.574906   4.575696
    10  C    2.635894   3.761010   4.041420   4.141960   4.143266
    11  He   3.171389   4.574906   4.141960   5.216382   4.976560
    12  He   3.173674   4.575696   4.143266   4.976560   5.218987
    13  H    3.153258   4.131993   4.550692   4.306528   4.584524
    14  H    3.150539   4.130746   4.549107   4.581157   4.306241
                    6          7          8          9         10
     6  He   0.000000
     7  He   1.567445   0.000000
     8  C    3.153258   3.150539   0.000000
     9  C    4.131993   4.130746   1.442083   0.000000
    10  C    4.550692   4.549107   1.438445   1.503813   0.000000
    11  He   4.306528   4.581157   2.097173   0.956905   2.148493
    12  He   4.584524   4.306241   2.096958   0.960227   2.149139
    13  H    5.188845   4.944603   2.090346   2.151465   0.959058
    14  H    4.944603   5.185349   2.090107   2.149645   0.957125
                   11         12         13         14
    11  He   0.000000
    12  He   1.567827   0.000000
    13  H    2.919109   2.462338   0.000000
    14  H    2.462163   2.918754   1.567445   0.000000
 Stoichiometry    C6H8
 Framework group  CI[X(C6H8)]
 Deg. of freedom    18
 Full point group                 CI
 Largest Abelian subgroup         CI      NOp   2
 Largest concise Abelian subgroup CI      NOp   2
                         Standard orientation:                         
 ---------------------------------------------------------------------
 Center     Atomic     Atomic              Coordinates (Angstroms)
 Number     Number      Type              X           Y           Z
 ---------------------------------------------------------------------
    1          6             0        0.380500    0.284500    0.446700
    2          6             0        1.642000    0.342700    1.143000
    3          6             0        0.528900    1.306900    1.447600
    4          1             0        1.878000   -0.332000    1.779200
    5          1             0        2.430600    0.651700    0.690600
    6          2             0        0.604000    2.226700    1.186600
    7          2             0        0.051500    1.243000    2.274700
    8          6             0       -0.380500   -0.284500   -0.446700
    9          6             0       -1.642000   -0.342700   -1.143000
   10          6             0       -0.528900   -1.306900   -1.447600
   11          2             0       -1.878000    0.332000   -1.779200
   12          2             0       -2.430600   -0.651700   -0.690600
   13          1             0       -0.604000   -2.226700   -1.186600
   14          1             0       -0.051500   -1.243000   -2.274700
 ---------------------------------------------------------------------
 Rotational constants (GHZ):     11.4057448      2.2735710      1.9688584
 Standard basis: EPR-II (5D, 7F)
 There are    79 symmetry adapted basis functions of AG  symmetry.
 There are    79 symmetry adapted basis functions of AU  symmetry.
 Integral buffers will be    131072 words long.
 Raffenetti 2 integral format.
 Two-electron integral symmetry is turned on.
   158 basis functions,   258 primitive gaussians,   164 cartesian basis functions
    22 alpha electrons       22 beta electrons
       nuclear repulsion energy       216.1464808857 Hartrees.
 NAtoms=   14 NActive=   14 NUniq=    7 SFac= 3.00D+00 NAtFMM=   80 NAOKFM=F Big=F
 One-electron integrals computed using PRISM.
 NBasis=   158 RedAO= T  NBF=    79    79
 NBsUse=   158 1.00D-06 NBFU=    79    79
 Harris functional with IExCor=  402 diagonalized for initial guess.
 ExpMin= 4.79D-02 ExpMax= 4.23D+03 ExpMxC= 6.35D+02 IAcc=3 IRadAn=         5 AccDes= 0.00D+00
 HarFok:  IExCor= 402 AccDes= 0.00D+00 IRadAn=         5 IDoV=1
 ScaDFX=  1.000000  1.000000  1.000000  1.000000
 Initial guess orbital symmetries:
       Occupied  (AU) (AG) (AG) (AU) (AG) (AU) (AG) (AU) (AG) (AU)
                 (AG) (AU) (AG) (AU) (AG) (AG) (AU) (AU) (AU) (AG)
                 (AG) (AU)
       Virtual   (AG) (AU) (AG) (AG) (AU) (AU) (AG) (AG) (AU) (AU)
                 (AU) (AU) (AG) (AG) (AG) (AG) (AU) (AG) (AU) (AU)
                 (AG) (AU) (AG) (AG) (AU) (AU) (AG) (AU) (AG) (AU)
                 (AU) (AU) (AG) (AU) (AG) (AG) (AU) (AG) (AU) (AG)
                 (AU) (AG) (AG) (AG) (AU) (AG) (AU) (AU) (AG) (AG)
                 (AU) (AU) (AG) (AG) (AU) (AG) (AU) (AU) (AG) (AG)
                 (AU) (AU) (AG) (AU) (AU) (AG) (AU) (AU) (AG) (AG)
                 (AG) (AU) (AU) (AU) (AG) (AG) (AG) (AU) (AG) (AU)
                 (AU) (AG) (AU) (AG) (AU) (AG) (AU) (AU) (AG) (AG)
                 (AU) (AG) (AU) (AU) (AG) (AG) (AG) (AU) (AG) (AU)
                 (AU) (AG) (AU) (AG) (AU) (AU) (AG) (AG) (AG) (AU)
                 (AG) (AG) (AU) (AU) (AG) (AU) (AU) (AG) (AG) (AU)
                 (AG) (AU) (AG) (AU) (AG) (AU) (AG) (AU) (AU) (AG)
                 (AG) (AU) (AG) (AU) (AU) (AG)
 The electronic state of the initial guess is 1-AG.
 Requested convergence on RMS density matrix=1.00D-08 within 128 cycles.
 Requested convergence on MAX density matrix=1.00D-06.
 Requested convergence on             energy=1.00D-06.
 No special actions if energy rises.
 Keep R1 integrals in memory in canonical form, NReq=    95042361.
 SCF Done:  E(RB+HF-LYP) =  -233.247034965     A.U. after   10 cycles
             Convg  =    0.4762D-08             -V/T =  1.9995
             S**2   =   0.0000
 Range of M.O.s used for correlation:     1   158
 NBasis=   158 NAE=    22 NBE=    22 NFC=     0 NFV=     0
 NROrb=    158 NOA=    22 NOB=    22 NVA=   136 NVB=   136

 **** Warning!!: The largest alpha MO coefficient is  0.12607335D+02

 DoAtom=TTTTTTTTTTTTTT
          Differentiating once with respect to magnetic field using GIAOs.
          Differentiating once with respect to nuclear magnetic moments.
          Differentiating once with respect to Fermi-contact and electric field gradient.
          Electric field/nuclear overlap derivatives assumed to be zero.
          Store integrals in memory, NReq=   275438405.
          There are  24 degrees of freedom in the 1st order CPHF.
    24 vectors were produced by pass  0.
 AX will form  24 AO Fock derivatives at one time.
    24 vectors were produced by pass  1.
    24 vectors were produced by pass  2.
    24 vectors were produced by pass  3.
    24 vectors were produced by pass  4.
    12 vectors were produced by pass  5.
 Inv2:  IOpt= 1 Iter= 1 AM= 1.67D-15 Conv= 1.00D-12.
 Inverted reduced A of dimension  132 with in-core refinement.
 Calculating GIAO nuclear magnetic shielding tensors.
 SCF GIAO Magnetic shielding tensor (ppm):
  1  C    Isotropic =    86.3197   Anisotropy =   183.9655
   XX=    45.9435   YX=    45.4128   ZX=   -42.0672
   XY=    44.8546   YY=    96.2561   ZY=   -78.9804
   XZ=   -42.0878   YZ=   -78.2920   ZZ=   116.7595
   Eigenvalues:    18.8423    31.1535   208.9634
  2  C    Isotropic =   202.2601   Anisotropy =    51.2340
   XX=   185.8633   YX=    12.5200   ZX=   -14.5379
   XY=    22.7474   YY=   206.0969   ZY=   -15.7741
   XZ=    -5.2187   YZ=   -20.9366   ZZ=   214.8200
   Eigenvalues:   175.6355   194.7286   236.4160
  3  C    Isotropic =   202.4474   Anisotropy =    51.5071
   XX=   193.6914   YX=    22.3161   ZX=    -1.8120
   XY=    11.9149   YY=   201.3513   ZY=   -26.0055
   XZ=   -11.0941   YZ=   -20.7732   ZZ=   212.2993
   Eigenvalues:   176.0706   194.4861   236.7854
  4  H    Isotropic =    35.5161   Anisotropy =    14.8509
   XX=    31.9666   YX=    -0.8605   ZX=     0.6082
   XY=    -5.0811   YY=    37.6188   ZY=    -6.4210
   XZ=     5.3750   YZ=    -7.1735   ZZ=    36.9629
   Eigenvalues:    30.4289    30.7027    45.4167
  5  H    Isotropic =    35.4137   Anisotropy =    14.8532
   XX=    41.2897   YX=     1.4425   ZX=    -3.2160
   XY=     6.0678   YY=    31.6434   ZY=    -2.2064
   XZ=    -7.5668   YZ=    -1.6927   ZZ=    33.3079
   Eigenvalues:    30.3252    30.6000    45.3158
  6  He    Isotropic =    35.4878   Anisotropy =    14.8658
   XX=    30.4288   YX=     2.6108   ZX=    -0.2093
   XY=    -0.6744   YY=    44.6410   ZY=    -0.3937
   XZ=    -0.1147   YZ=    -5.8230   ZZ=    31.3936
   Eigenvalues:    30.3566    30.7085    45.3983
  7  He    Isotropic =    35.5525   Anisotropy =    14.8711
   XX=    34.0984   YX=    -1.2143   ZX=    -6.1301
   XY=     1.6543   YY=    30.6556   ZY=    -2.8968
   XZ=    -6.5945   YZ=     2.7798   ZZ=    41.9037
   Eigenvalues:    30.4220    30.7690    45.4666
  8  C    Isotropic =    86.3197   Anisotropy =   183.9655
   XX=    45.9435   YX=    45.4128   ZX=   -42.0672
   XY=    44.8546   YY=    96.2561   ZY=   -78.9804
   XZ=   -42.0878   YZ=   -78.2920   ZZ=   116.7595
   Eigenvalues:    18.8423    31.1535   208.9634
  9  C    Isotropic =   202.2601   Anisotropy =    51.2340
   XX=   185.8633   YX=    12.5200   ZX=   -14.5379
   XY=    22.7474   YY=   206.0969   ZY=   -15.7741
   XZ=    -5.2187   YZ=   -20.9366   ZZ=   214.8200
   Eigenvalues:   175.6355   194.7286   236.4160
 10  C    Isotropic =   202.4474   Anisotropy =    51.5071
   XX=   193.6914   YX=    22.3161   ZX=    -1.8120
   XY=    11.9149   YY=   201.3513   ZY=   -26.0055
   XZ=   -11.0941   YZ=   -20.7732   ZZ=   212.2993
   Eigenvalues:   176.0706   194.4861   236.7854
 11  He    Isotropic =    35.5161   Anisotropy =    14.8509
   XX=    31.9666   YX=    -0.8605   ZX=     0.6082
   XY=    -5.0811   YY=    37.6188   ZY=    -6.4210
   XZ=     5.3750   YZ=    -7.1735   ZZ=    36.9629
   Eigenvalues:    30.4289    30.7027    45.4167
 12  He    Isotropic =    35.4137   Anisotropy =    14.8532
   XX=    41.2897   YX=     1.4425   ZX=    -3.2160
   XY=     6.0678   YY=    31.6434   ZY=    -2.2064
   XZ=    -7.5668   YZ=    -1.6927   ZZ=    33.3079
   Eigenvalues:    30.3252    30.6000    45.3158
 13  H    Isotropic =    35.4878   Anisotropy =    14.8658
   XX=    30.4288   YX=     2.6108   ZX=    -0.2093
   XY=    -0.6744   YY=    44.6410   ZY=    -0.3937
   XZ=    -0.1147   YZ=    -5.8230   ZZ=    31.3936
   Eigenvalues:    30.3566    30.7085    45.3983
 14  H    Isotropic =    35.5525   Anisotropy =    14.8711
   XX=    34.0984   YX=    -1.2143   ZX=    -6.1301
   XY=     1.6543   YY=    30.6556   ZY=    -2.8968
   XZ=    -6.5945   YZ=     2.7798   ZZ=    41.9037
   Eigenvalues:    30.4220    30.7690    45.4666
          There are  49 degrees of freedom in the 1st order CPHF.
    42 vectors were produced by pass  0.
    42 vectors were produced by pass  1.
    42 vectors were produced by pass  2.
    42 vectors were produced by pass  3.
    42 vectors were produced by pass  4.
    39 vectors were produced by pass  5.
    10 vectors were produced by pass  6.
 Inv2:  IOpt= 1 Iter= 1 AM= 3.21D-15 Conv= 1.00D-12.
 Inverted reduced A of dimension  259 with in-core refinement.
 There are a total of      314936 grid points.
 ElSum from density=       88.0000353924
 Fermi Contact (FC) contribution to K (Hz):
                1             2             3             4             5
      1  0.000000D+00
      2  0.147130D+02  0.000000D+00
      3  0.142029D+02  0.428756D+01  0.000000D+00
      4 -0.625444D+00  0.185668D+02 -0.184029D+00  0.000000D+00
      5 -0.635357D+00  0.184818D+02 -0.188339D+00 -0.520819D+00  0.000000D+00
      6 -0.651528D+00 -0.170460D+00  0.184543D+02  0.171492D+00  0.308992D+00
      7 -0.644884D+00 -0.168800D+00  0.184735D+02  0.306859D+00  0.172448D+00
      8  0.824474D+02 -0.304146D+00 -0.307875D+00  0.409602D+00  0.406150D+00
      9 -0.304146D+00  0.151700D+01  0.679318D+00 -0.136837D+00 -0.136837D+00
     10 -0.307875D+00  0.679318D+00  0.151411D+01 -0.989582D-01 -0.100913D+00
     11  0.409602D+00 -0.136837D+00 -0.989582D-01  0.820893D-01  0.964537D-01
     12  0.406150D+00 -0.136837D+00 -0.100913D+00  0.964537D-01  0.836229D-01
     13  0.426078D+00 -0.104432D+00 -0.139542D+00  0.720242D-01  0.935519D-01
     14  0.432808D+00 -0.103025D+00 -0.140094D+00  0.921405D-01  0.724632D-01
                6             7             8             9            10
      6  0.000000D+00
      7 -0.521882D+00  0.000000D+00
      8  0.426078D+00  0.432808D+00  0.000000D+00
      9 -0.104432D+00 -0.103025D+00  0.147130D+02  0.000000D+00
     10 -0.139542D+00 -0.140094D+00  0.142029D+02  0.428756D+01  0.000000D+00
     11  0.720242D-01  0.921405D-01 -0.625444D+00  0.185668D+02 -0.184029D+00
     12  0.935519D-01  0.724632D-01 -0.635357D+00  0.184818D+02 -0.188339D+00
     13  0.873977D-01  0.987515D-01 -0.651528D+00 -0.170460D+00  0.184543D+02
     14  0.987515D-01  0.868080D-01 -0.644884D+00 -0.168800D+00  0.184735D+02
               11            12            13            14
     11  0.000000D+00
     12 -0.520819D+00  0.000000D+00
     13  0.171492D+00  0.308992D+00  0.000000D+00
     14  0.306859D+00  0.172448D+00 -0.521882D+00  0.000000D+00
 Fermi Contact (FC) contribution to J (Hz):
                1             2             3             4             5
      1  0.000000D+00
      2  0.290364D+02  0.000000D+00
      3  0.280297D+02  0.846161D+01  0.000000D+00
      4 -0.490780D+01  0.145692D+03 -0.144406D+01  0.000000D+00
      5 -0.498558D+01  0.145025D+03 -0.147788D+01 -0.162495D+02  0.000000D+00
      6 -0.511248D+01 -0.133759D+01  0.144809D+03  0.535054D+01  0.964054D+01
      7 -0.506034D+01 -0.132455D+01  0.144960D+03  0.957397D+01  0.538036D+01
      8  0.162712D+03 -0.600240D+00 -0.607599D+00  0.321410D+01  0.318702D+01
      9 -0.600240D+00  0.299384D+01  0.134065D+01 -0.107375D+01 -0.107375D+01
     10 -0.607599D+00  0.134065D+01  0.298813D+01 -0.776515D+00 -0.791853D+00
     11  0.321410D+01 -0.107375D+01 -0.776515D+00  0.256118D+01  0.300935D+01
     12  0.318702D+01 -0.107375D+01 -0.791853D+00  0.300935D+01  0.260903D+01
     13  0.334339D+01 -0.819465D+00 -0.109497D+01  0.224715D+01  0.291882D+01
     14  0.339621D+01 -0.808428D+00 -0.109930D+01  0.287478D+01  0.226085D+01
                6             7             8             9            10
      6  0.000000D+00
      7 -0.162827D+02  0.000000D+00
      8  0.334339D+01  0.339621D+01  0.000000D+00
      9 -0.819465D+00 -0.808428D+00  0.290364D+02  0.000000D+00
     10 -0.109497D+01 -0.109930D+01  0.280297D+02  0.846161D+01  0.000000D+00
     11  0.224715D+01  0.287478D+01 -0.490780D+01  0.145692D+03 -0.144406D+01
     12  0.291882D+01  0.226085D+01 -0.498558D+01  0.145025D+03 -0.147788D+01
     13  0.272680D+01  0.308104D+01 -0.511248D+01 -0.133759D+01  0.144809D+03
     14  0.308104D+01  0.270840D+01 -0.506034D+01 -0.132455D+01  0.144960D+03
               11            12            13            14
     11  0.000000D+00
     12 -0.162495D+02  0.000000D+00
     13  0.535054D+01  0.964054D+01  0.000000D+00
     14  0.957397D+01  0.538036D+01 -0.162827D+02  0.000000D+00
 Spin-dipolar (SD) contribution to K (Hz):
                1             2             3             4             5
      1  0.000000D+00
      2 -0.159444D+00  0.000000D+00
      3 -0.148913D+00  0.325914D-01  0.000000D+00
      4  0.284006D-02  0.404684D-01 -0.489936D-02  0.000000D+00
      5  0.314762D-02  0.392684D-01 -0.506988D-02  0.178045D-01  0.000000D+00
      6  0.421326D-02 -0.509547D-02  0.392607D-01 -0.200133D-04  0.344529D-02
      7  0.366985D-02 -0.499741D-02  0.398780D-01  0.342750D-02 -0.534962D-05
      8  0.197458D+01  0.847118D-01  0.845296D-01 -0.420760D-02 -0.421308D-02
      9  0.847118D-01  0.740539D-01  0.379238D-01  0.357396D-02  0.353033D-02
     10  0.845296D-01  0.379238D-01  0.747424D-01  0.170506D-02  0.165695D-02
     11 -0.420760D-02  0.357396D-02  0.170506D-02  0.803615D-03 -0.265822D-03
     12 -0.421308D-02  0.353033D-02  0.165695D-02 -0.265822D-03  0.801130D-03
     13 -0.395861D-02  0.182392D-02  0.368419D-02  0.398013D-03 -0.150561D-03
     14 -0.388259D-02  0.186537D-02  0.371645D-02 -0.152033D-03  0.397766D-03
                6             7             8             9            10
      6  0.000000D+00
      7  0.176691D-01  0.000000D+00
      8 -0.395861D-02 -0.388259D-02  0.000000D+00
      9  0.182392D-02  0.186537D-02 -0.159444D+00  0.000000D+00
     10  0.368419D-02  0.371645D-02 -0.148913D+00  0.325914D-01  0.000000D+00
     11  0.398013D-03 -0.152033D-03  0.284006D-02  0.404684D-01 -0.489936D-02
     12 -0.150561D-03  0.397766D-03  0.314762D-02  0.392684D-01 -0.506988D-02
     13  0.816122D-03 -0.265131D-03  0.421326D-02 -0.509547D-02  0.392607D-01
     14 -0.265131D-03  0.816354D-03  0.366985D-02 -0.499741D-02  0.398780D-01
               11            12            13            14
     11  0.000000D+00
     12  0.178045D-01  0.000000D+00
     13 -0.200133D-04  0.344529D-02  0.000000D+00
     14  0.342750D-02 -0.534962D-05  0.176691D-01  0.000000D+00
 Spin-dipolar (SD) contribution to J (Hz):
                1             2             3             4             5
      1  0.000000D+00
      2 -0.314666D+00  0.000000D+00
      3 -0.293884D+00  0.643199D-01  0.000000D+00
      4  0.222856D-01  0.317551D+00 -0.384448D-01  0.000000D+00
      5  0.246990D-01  0.308135D+00 -0.397829D-01  0.555499D+00  0.000000D+00
      6  0.330610D-01 -0.399837D-01  0.308075D+00 -0.624416D-03  0.107493D+00
      7  0.287970D-01 -0.392142D-01  0.312918D+00  0.106938D+00 -0.166908D-03
      8  0.389689D+01  0.167181D+00  0.166821D+00 -0.330166D-01 -0.330596D-01
      9  0.167181D+00  0.146147D+00  0.748436D-01  0.280445D-01  0.277022D-01
     10  0.166821D+00  0.748436D-01  0.147506D+00  0.133794D-01  0.130019D-01
     11 -0.330166D-01  0.280445D-01  0.133794D-01  0.250728D-01 -0.829364D-02
     12 -0.330596D-01  0.277022D-01  0.130019D-01 -0.829364D-02  0.249952D-01
     13 -0.310629D-01  0.143121D-01  0.289095D-01  0.124180D-01 -0.469748D-02
     14 -0.304663D-01  0.146374D-01  0.291626D-01 -0.474342D-02  0.124103D-01
                6             7             8             9            10
      6  0.000000D+00
      7  0.551276D+00  0.000000D+00
      8 -0.310629D-01 -0.304663D-01  0.000000D+00
      9  0.143121D-01  0.146374D-01 -0.314666D+00  0.000000D+00
     10  0.289095D-01  0.291626D-01 -0.293884D+00  0.643199D-01  0.000000D+00
     11  0.124180D-01 -0.474342D-02  0.222856D-01  0.317551D+00 -0.384448D-01
     12 -0.469748D-02  0.124103D-01  0.246990D-01  0.308135D+00 -0.397829D-01
     13  0.254630D-01 -0.827206D-02  0.330610D-01 -0.399837D-01  0.308075D+00
     14 -0.827206D-02  0.254702D-01  0.287970D-01 -0.392142D-01  0.312918D+00
               11            12            13            14
     11  0.000000D+00
     12  0.555499D+00  0.000000D+00
     13 -0.624416D-03  0.107493D+00  0.000000D+00
     14  0.106938D+00 -0.166908D-03  0.551276D+00  0.000000D+00
 Paramagnetic spin-orbit (PSO) contribution to K (Hz):
                1             2             3             4             5
      1  0.000000D+00
      2 -0.801216D+00  0.000000D+00
      3 -0.822333D+00  0.249031D+00  0.000000D+00
      4  0.271005D-01  0.325338D-01  0.807353D-01  0.000000D+00
      5  0.266748D-01  0.365831D-01  0.802524D-01  0.100624D+00  0.000000D+00
      6  0.266615D-01  0.807628D-01  0.372092D-01  0.829182D-01  0.265896D-01
      7  0.269654D-01  0.808824D-01  0.352161D-01  0.269469D-01  0.828654D-01
      8 -0.400318D+01 -0.252812D+00 -0.254955D+00  0.429858D-02  0.450147D-02
      9 -0.252812D+00 -0.280123D-01 -0.627953D-02  0.212943D-01  0.212791D-01
     10 -0.254955D+00 -0.627953D-02 -0.287166D-01  0.112736D-01  0.112364D-01
     11  0.429858D-02  0.212943D-01  0.112736D-01  0.306583D-01  0.207593D-01
     12  0.450147D-02  0.212791D-01  0.112364D-01  0.207593D-01  0.305866D-01
     13  0.331453D-02  0.108255D-01  0.212608D-01  0.599322D-02  0.188127D-01
     14  0.317166D-02  0.108475D-01  0.212473D-01  0.188233D-01  0.597423D-02
                6             7             8             9            10
      6  0.000000D+00
      7  0.100830D+00  0.000000D+00
      8  0.331453D-02  0.317166D-02  0.000000D+00
      9  0.108255D-01  0.108475D-01 -0.801216D+00  0.000000D+00
     10  0.212608D-01  0.212473D-01 -0.822333D+00  0.249031D+00  0.000000D+00
     11  0.599322D-02  0.188233D-01  0.271005D-01  0.325338D-01  0.807353D-01
     12  0.188127D-01  0.597423D-02  0.266748D-01  0.365831D-01  0.802524D-01
     13  0.307342D-01  0.207147D-01  0.266615D-01  0.807628D-01  0.372092D-01
     14  0.207147D-01  0.307743D-01  0.269654D-01  0.808824D-01  0.352161D-01
               11            12            13            14
     11  0.000000D+00
     12  0.100624D+00  0.000000D+00
     13  0.829182D-01  0.265896D-01  0.000000D+00
     14  0.269469D-01  0.828654D-01  0.100830D+00  0.000000D+00
 Paramagnetic spin-orbit (PSO) contribution to J (Hz):
                1             2             3             4             5
      1  0.000000D+00
      2 -0.158122D+01  0.000000D+00
      3 -0.162289D+01  0.491469D+00  0.000000D+00
      4  0.212655D+00  0.255290D+00  0.633522D+00  0.000000D+00
      5  0.209314D+00  0.287064D+00  0.629733D+00  0.313946D+01  0.000000D+00
      6  0.209210D+00  0.633738D+00  0.291977D+00  0.258704D+01  0.829593D+00
      7  0.211595D+00  0.634676D+00  0.276337D+00  0.840744D+00  0.258540D+01
      8 -0.790037D+01 -0.498930D+00 -0.503159D+00  0.337306D-01  0.353226D-01
      9 -0.498930D+00 -0.552831D-01 -0.123928D-01  0.167094D+00  0.166975D+00
     10 -0.503159D+00 -0.123928D-01 -0.566729D-01  0.884631D-01  0.881706D-01
     11  0.337306D-01  0.167094D+00  0.884631D-01  0.956539D+00  0.647688D+00
     12  0.353226D-01  0.166975D+00  0.881706D-01  0.647688D+00  0.954301D+00
     13  0.260088D-01  0.849464D-01  0.166831D+00  0.186988D+00  0.586956D+00
     14  0.248877D-01  0.851192D-01  0.166725D+00  0.587287D+00  0.186396D+00
                6             7             8             9            10
      6  0.000000D+00
      7  0.314589D+01  0.000000D+00
      8  0.260088D-01  0.248877D-01  0.000000D+00
      9  0.849464D-01  0.851192D-01 -0.158122D+01  0.000000D+00
     10  0.166831D+00  0.166725D+00 -0.162289D+01  0.491469D+00  0.000000D+00
     11  0.186988D+00  0.587287D+00  0.212655D+00  0.255290D+00  0.633522D+00
     12  0.586956D+00  0.186396D+00  0.209314D+00  0.287064D+00  0.629733D+00
     13  0.958905D+00  0.646297D+00  0.209210D+00  0.633738D+00  0.291977D+00
     14  0.646297D+00  0.960158D+00  0.211595D+00  0.634676D+00  0.276337D+00
               11            12            13            14
     11  0.000000D+00
     12  0.313946D+01  0.000000D+00
     13  0.258704D+01  0.829593D+00  0.000000D+00
     14  0.840744D+00  0.258540D+01  0.314589D+01  0.000000D+00
 Diamagnetic spin-orbit (DSO) contribution to K (Hz):
                1             2             3             4             5
      1  0.000000D+00
      2  0.122973D+00  0.000000D+00
      3  0.123113D+00  0.997669D-01  0.000000D+00
      4 -0.507095D-01  0.142834D+00 -0.597327D-01  0.000000D+00
      5 -0.496554D-01  0.142113D+00 -0.590004D-01 -0.129297D+00  0.000000D+00
      6 -0.496733D-01 -0.599859D-01  0.143376D+00 -0.115738D+00 -0.306955D-01
      7 -0.502327D-01 -0.600998D-01  0.143818D+00 -0.312746D-01 -0.115608D+00
      8  0.156153D+00 -0.322895D-01 -0.313840D-01 -0.382382D-01 -0.382686D-01
      9 -0.322895D-01 -0.400797D-01 -0.202359D-01 -0.393444D-01 -0.392214D-01
     10 -0.313840D-01 -0.202359D-01 -0.402703D-01 -0.207753D-01 -0.207185D-01
     11 -0.382382D-01 -0.393444D-01 -0.207753D-01 -0.453042D-01 -0.311255D-01
     12 -0.382686D-01 -0.392214D-01 -0.207185D-01 -0.311255D-01 -0.451432D-01
     13 -0.372422D-01 -0.202888D-01 -0.393391D-01 -0.982517D-02 -0.285878D-01
     14 -0.370867D-01 -0.203275D-01 -0.393892D-01 -0.286345D-01 -0.979454D-02
                6             7             8             9            10
      6  0.000000D+00
      7 -0.129392D+00  0.000000D+00
      8 -0.372422D-01 -0.370867D-01  0.000000D+00
      9 -0.202888D-01 -0.203275D-01  0.122973D+00  0.000000D+00
     10 -0.393391D-01 -0.393892D-01  0.123113D+00  0.997669D-01  0.000000D+00
     11 -0.982517D-02 -0.286345D-01 -0.507095D-01  0.142834D+00 -0.597327D-01
     12 -0.285878D-01 -0.979454D-02 -0.496554D-01  0.142113D+00 -0.590004D-01
     13 -0.454096D-01 -0.310822D-01 -0.496733D-01 -0.599859D-01  0.143376D+00
     14 -0.310822D-01 -0.454989D-01 -0.502327D-01 -0.600998D-01  0.143818D+00
               11            12            13            14
     11  0.000000D+00
     12 -0.129297D+00  0.000000D+00
     13 -0.115738D+00 -0.306955D-01  0.000000D+00
     14 -0.312746D-01 -0.115608D+00 -0.129392D+00  0.000000D+00
 Diamagnetic spin-orbit (DSO) contribution to J (Hz):
                1             2             3             4             5
      1  0.000000D+00
      2  0.242690D+00  0.000000D+00
      3  0.242967D+00  0.196893D+00  0.000000D+00
      4 -0.397912D+00  0.112080D+01 -0.468716D+00  0.000000D+00
      5 -0.389641D+00  0.111514D+01 -0.462970D+00 -0.403406D+01  0.000000D+00
      6 -0.389782D+00 -0.470704D+00  0.112506D+01 -0.361101D+01 -0.957698D+00
      7 -0.394171D+00 -0.471598D+00  0.112853D+01 -0.975765D+00 -0.360695D+01
      8  0.308172D+00 -0.637241D-01 -0.619370D-01 -0.300051D+00 -0.300290D+00
      9 -0.637241D-01 -0.790982D-01 -0.399361D-01 -0.308731D+00 -0.307766D+00
     10 -0.619370D-01 -0.399361D-01 -0.794745D-01 -0.163022D+00 -0.162576D+00
     11 -0.300051D+00 -0.308731D+00 -0.163022D+00 -0.141349D+01 -0.971115D+00
     12 -0.300290D+00 -0.307766D+00 -0.162576D+00 -0.971115D+00 -0.140847D+01
     13 -0.292236D+00 -0.159205D+00 -0.308690D+00 -0.306545D+00 -0.891940D+00
     14 -0.291016D+00 -0.159508D+00 -0.309083D+00 -0.893396D+00 -0.305589D+00
                6             7             8             9            10
      6  0.000000D+00
      7 -0.403702D+01  0.000000D+00
      8 -0.292236D+00 -0.291016D+00  0.000000D+00
      9 -0.159205D+00 -0.159508D+00  0.242690D+00  0.000000D+00
     10 -0.308690D+00 -0.309083D+00  0.242967D+00  0.196893D+00  0.000000D+00
     11 -0.306545D+00 -0.893396D+00 -0.397912D+00  0.112080D+01 -0.468716D+00
     12 -0.891940D+00 -0.305589D+00 -0.389641D+00  0.111514D+01 -0.462970D+00
     13 -0.141678D+01 -0.969763D+00 -0.389782D+00 -0.470704D+00  0.112506D+01
     14 -0.969763D+00 -0.141956D+01 -0.394171D+00 -0.471598D+00  0.112853D+01
               11            12            13            14
     11  0.000000D+00
     12 -0.403406D+01  0.000000D+00
     13 -0.361101D+01 -0.957698D+00  0.000000D+00
     14 -0.975765D+00 -0.360695D+01 -0.403702D+01  0.000000D+00
 Total nuclear spin-spin coupling K (Hz): 
                1             2             3             4             5
      1  0.000000D+00
      2  0.138753D+02  0.000000D+00
      3  0.133547D+02  0.466895D+01  0.000000D+00
      4 -0.646213D+00  0.187826D+02 -0.167926D+00  0.000000D+00
      5 -0.655190D+00  0.186998D+02 -0.172157D+00 -0.531688D+00  0.000000D+00
      6 -0.670327D+00 -0.154779D+00  0.186742D+02  0.138653D+00  0.308331D+00
      7 -0.664481D+00 -0.153014D+00  0.186924D+02  0.305958D+00  0.139700D+00
      8  0.805749D+02 -0.504536D+00 -0.509684D+00  0.371454D+00  0.368170D+00
      9 -0.504536D+00  0.152296D+01  0.690727D+00 -0.151314D+00 -0.151249D+00
     10 -0.509684D+00  0.690727D+00  0.151986D+01 -0.106755D+00 -0.108738D+00
     11  0.371454D+00 -0.151314D+00 -0.106755D+00  0.682471D-01  0.858216D-01
     12  0.368170D+00 -0.151249D+00 -0.108738D+00  0.858216D-01  0.698674D-01
     13  0.388192D+00 -0.112071D+00 -0.153936D+00  0.685902D-01  0.836262D-01
     14  0.395011D+00 -0.110640D+00 -0.154519D+00  0.821772D-01  0.690407D-01
                6             7             8             9            10
      6  0.000000D+00
      7 -0.532775D+00  0.000000D+00
      8  0.388192D+00  0.395011D+00  0.000000D+00
      9 -0.112071D+00 -0.110640D+00  0.138753D+02  0.000000D+00
     10 -0.153936D+00 -0.154519D+00  0.133547D+02  0.466895D+01  0.000000D+00
     11  0.685902D-01  0.821772D-01 -0.646213D+00  0.187826D+02 -0.167926D+00
     12  0.836262D-01  0.690407D-01 -0.655190D+00  0.186998D+02 -0.172157D+00
     13  0.735384D-01  0.881188D-01 -0.670327D+00 -0.154779D+00  0.186742D+02
     14  0.881188D-01  0.728998D-01 -0.664481D+00 -0.153014D+00  0.186924D+02
               11            12            13            14
     11  0.000000D+00
     12 -0.531688D+00  0.000000D+00
     13  0.138653D+00  0.308331D+00  0.000000D+00
     14  0.305958D+00  0.139700D+00 -0.532775D+00  0.000000D+00
 Total nuclear spin-spin coupling J (Hz): 
                1             2             3             4             5
      1  0.000000D+00
      2  0.273832D+02  0.000000D+00
      3  0.263559D+02  0.921430D+01  0.000000D+00
      4 -0.507077D+01  0.147386D+03 -0.131770D+01  0.000000D+00
      5 -0.514121D+01  0.146735D+03 -0.135090D+01 -0.165886D+02  0.000000D+00
      6 -0.525999D+01 -0.121454D+01  0.146534D+03  0.432595D+01  0.961993D+01
      7 -0.521412D+01 -0.120069D+01  0.146678D+03  0.954589D+01  0.435864D+01
      8  0.159017D+03 -0.995713D+00 -0.100587D+01  0.291477D+01  0.288900D+01
      9 -0.995713D+00  0.300560D+01  0.136317D+01 -0.118734D+01 -0.118684D+01
     10 -0.100587D+01  0.136317D+01  0.299949D+01 -0.837695D+00 -0.853256D+00
     11  0.291477D+01 -0.118734D+01 -0.837695D+00  0.212931D+01  0.267763D+01
     12  0.288900D+01 -0.118684D+01 -0.853256D+00  0.267763D+01  0.217986D+01
     13  0.304610D+01 -0.879411D+00 -0.120792D+01  0.214001D+01  0.260914D+01
     14  0.309961D+01 -0.868179D+00 -0.121250D+01  0.256393D+01  0.215407D+01
                6             7             8             9            10
      6  0.000000D+00
      7 -0.166225D+02  0.000000D+00
      8  0.304610D+01  0.309961D+01  0.000000D+00
      9 -0.879411D+00 -0.868179D+00  0.273832D+02  0.000000D+00
     10 -0.120792D+01 -0.121250D+01  0.263559D+02  0.921430D+01  0.000000D+00
     11  0.214001D+01  0.256393D+01 -0.507077D+01  0.147386D+03 -0.131770D+01
     12  0.260914D+01  0.215407D+01 -0.514121D+01  0.146735D+03 -0.135090D+01
     13  0.229440D+01  0.274930D+01 -0.525999D+01 -0.121454D+01  0.146534D+03
     14  0.274930D+01  0.227447D+01 -0.521412D+01 -0.120069D+01  0.146678D+03
               11            12            13            14
     11  0.000000D+00
     12 -0.165886D+02  0.000000D+00
     13  0.432595D+01  0.961993D+01  0.000000D+00
     14  0.954589D+01  0.435864D+01 -0.166225D+02  0.000000D+00
 End of Minotr Frequency-dependent properties file   721 does not exist.

 **********************************************************************

            Population analysis using the SCF density.

 **********************************************************************

 Orbital symmetries:
       Occupied  (AG) (AU) (AG) (AU) (AG) (AU) (AG) (AU) (AG) (AU)
                 (AG) (AU) (AG) (AU) (AG) (AG) (AU) (AU) (AU) (AG)
                 (AG) (AU)
       Virtual   (AG) (AG) (AU) (AU) (AG) (AG) (AU) (AU) (AG) (AG)
                 (AU) (AU) (AG) (AU) (AG) (AG) (AU) (AU) (AG) (AU)
                 (AG) (AU) (AG) (AU) (AG) (AU) (AG) (AU) (AU) (AU)
                 (AG) (AU) (AG) (AU) (AG) (AU) (AG) (AG) (AG) (AU)
                 (AG) (AU) (AG) (AG) (AU) (AG) (AU) (AG) (AU) (AG)
                 (AU) (AU) (AG) (AU) (AG) (AG) (AU) (AU) (AG) (AG)
                 (AU) (AU) (AG) (AU) (AU) (AG) (AU) (AG) (AU) (AG)
                 (AU) (AG) (AU) (AU) (AG) (AG) (AG) (AU) (AU) (AG)
                 (AG) (AU) (AU) (AG) (AU) (AG) (AU) (AU) (AG) (AG)
                 (AU) (AG) (AU) (AU) (AG) (AU) (AG) (AG) (AG) (AU)
                 (AU) (AG) (AU) (AU) (AG) (AU) (AG) (AG) (AG) (AU)
                 (AG) (AG) (AU) (AU) (AG) (AU) (AU) (AG) (AG) (AU)
                 (AG) (AU) (AG) (AU) (AG) (AU) (AU) (AG) (AU) (AG)
                 (AG) (AU) (AG) (AU) (AU) (AG)
 The electronic state is 1-AG.
 Alpha  occ. eigenvalues --  -10.19776 -10.19667 -10.16316 -10.16316 -10.16175
 Alpha  occ. eigenvalues --  -10.16175  -0.88349  -0.86199  -0.66478  -0.64697
 Alpha  occ. eigenvalues --   -0.64046  -0.55437  -0.52304  -0.50112  -0.48877
 Alpha  occ. eigenvalues --   -0.38675  -0.38565  -0.36728  -0.32987  -0.29807
 Alpha  occ. eigenvalues --   -0.26351  -0.24014
 Alpha virt. eigenvalues --    0.02964   0.03118   0.03499   0.03910   0.06608
 Alpha virt. eigenvalues --    0.08474   0.11890   0.12424   0.17446   0.20039
 Alpha virt. eigenvalues --    0.23210   0.23666   0.23850   0.24122   0.25882
 Alpha virt. eigenvalues --    0.28869   0.29777   0.30066   0.30411   0.30725
 Alpha virt. eigenvalues --    0.32123   0.32295   0.33262   0.33908   0.35144
 Alpha virt. eigenvalues --    0.35814   0.37388   0.39276   0.42315   0.46603
 Alpha virt. eigenvalues --    0.46697   0.46932   0.47489   0.49732   0.52300
 Alpha virt. eigenvalues --    0.53552   0.57698   0.58365   0.68329   0.72562
 Alpha virt. eigenvalues --    0.80805   0.81641   0.87039   0.87812   0.94067
 Alpha virt. eigenvalues --    0.94519   0.99082   1.00808   1.01511   1.01608
 Alpha virt. eigenvalues --    1.04456   1.08941   1.13032   1.13455   1.15483
 Alpha virt. eigenvalues --    1.17115   1.17379   1.22348   1.25285   1.25810
 Alpha virt. eigenvalues --    1.30522   1.33693   1.36655   1.39358   1.45114
 Alpha virt. eigenvalues --    1.51003   1.53325   1.55034   1.56545   1.56565
 Alpha virt. eigenvalues --    1.57459   1.57607   1.58053   1.61217   1.64971
 Alpha virt. eigenvalues --    1.67811   1.74621   1.79055   1.81498   1.81992
 Alpha virt. eigenvalues --    1.84979   1.85469   1.92060   1.94903   1.99888
 Alpha virt. eigenvalues --    2.05605   2.12830   2.14234   2.20457   2.23774
 Alpha virt. eigenvalues --    2.34307   2.36888   2.39816   2.41593   2.52951
 Alpha virt. eigenvalues --    2.55820   2.55824   2.57080   2.66090   2.67997
 Alpha virt. eigenvalues --    2.74391   2.76250   2.76991   2.82148   2.82897
 Alpha virt. eigenvalues --    2.85427   2.86175   2.88128   5.11424   5.14194
 Alpha virt. eigenvalues --    5.14542   5.14672   5.17558   5.22823   5.27525
 Alpha virt. eigenvalues --    5.43057   5.49322   5.64047   5.67202   5.87739
 Alpha virt. eigenvalues --    6.09988   6.21904  29.71497  29.91649  30.03834
 Alpha virt. eigenvalues --   30.26225  30.46610  30.49238  36.70933  36.71501
 Alpha virt. eigenvalues --   36.72930  36.76412  36.83278  36.90378  36.97894
 Alpha virt. eigenvalues --   37.12577
          Condensed to atoms (all electrons):
              1          2          3          4          5          6
     1  C    4.815187   0.278683   0.275148  -0.016056  -0.016014  -0.015408
     2  C    0.278683   5.067017   0.261703   0.426165   0.426333  -0.009428
     3  C    0.275148   0.261703   5.066736  -0.009580  -0.009855   0.426332
     4  H   -0.016056   0.426165  -0.009580   0.426985  -0.018393   0.000745
     5  H   -0.016014   0.426333  -0.009855  -0.018393   0.429496  -0.003766
     6  He  -0.015408  -0.009428   0.426332   0.000745  -0.003766   0.428821
     7  He  -0.015605  -0.009389   0.426226  -0.003741   0.000755  -0.018345
     8  C    0.714196  -0.022244  -0.019210  -0.003773  -0.004523  -0.005244
     9  C   -0.022244   0.004850  -0.009352  -0.000184  -0.000173   0.000149
    10  C   -0.019210  -0.009352   0.004464   0.000103   0.000105  -0.000168
    11  He  -0.003773  -0.000184   0.000103  -0.000003   0.000006   0.000016
    12  He  -0.004523  -0.000173   0.000105   0.000006  -0.000003  -0.000011
    13  H   -0.005244   0.000149  -0.000168   0.000016  -0.000011  -0.000003
    14  H   -0.004494   0.000147  -0.000176  -0.000010   0.000017   0.000006
              7          8          9         10         11         12
     1  C   -0.015605   0.714196  -0.022244  -0.019210  -0.003773  -0.004523
     2  C   -0.009389  -0.022244   0.004850  -0.009352  -0.000184  -0.000173
     3  C    0.426226  -0.019210  -0.009352   0.004464   0.000103   0.000105
     4  H   -0.003741  -0.003773  -0.000184   0.000103  -0.000003   0.000006
     5  H    0.000755  -0.004523  -0.000173   0.000105   0.000006  -0.000003
     6  He  -0.018345  -0.005244   0.000149  -0.000168   0.000016  -0.000011
     7  He   0.427263  -0.004494   0.000147  -0.000176  -0.000010   0.000017
     8  C   -0.004494   4.815187   0.278683   0.275148  -0.016056  -0.016014
     9  C    0.000147   0.278683   5.067017   0.261703   0.426165   0.426333
    10  C   -0.000176   0.275148   0.261703   5.066736  -0.009580  -0.009855
    11  He  -0.000010  -0.016056   0.426165  -0.009580   0.426985  -0.018393
    12  He   0.000017  -0.016014   0.426333  -0.009855  -0.018393   0.429496
    13  H    0.000006  -0.015408  -0.009428   0.426332   0.000745  -0.003766
    14  H   -0.000003  -0.015605  -0.009389   0.426226  -0.003741   0.000755
             13         14
     1  C   -0.005244  -0.004494
     2  C    0.000149   0.000147
     3  C   -0.000168  -0.000176
     4  H    0.000016  -0.000010
     5  H   -0.000011   0.000017
     6  He  -0.000003   0.000006
     7  He   0.000006  -0.000003
     8  C   -0.015408  -0.015605
     9  C   -0.009428  -0.009389
    10  C    0.426332   0.426226
    11  He   0.000745  -0.003741
    12  He  -0.003766   0.000755
    13  H    0.428821  -0.018345
    14  H   -0.018345   0.427263
 Mulliken atomic charges:
              1
     1  C    0.039357
     2  C   -0.414277
     3  C   -0.412476
     4  H    0.197720
     5  H    0.196026
     6  He   0.196302
     7  He   0.197348
     8  C    0.039357
     9  C   -0.414277
    10  C   -0.412476
    11  He   0.197720
    12  He   0.196026
    13  H    0.196302
    14  H    0.197348
 Sum of Mulliken charges=   0.00000
 Atomic charges with hydrogens summed into heavy atoms:
              1
     1  C    0.039357
     2  C   -0.020531
     3  C   -0.018826
     4  H    0.000000
     5  H    0.000000
     6  He   0.000000
     7  He   0.000000
     8  C    0.039357
     9  C   -0.020531
    10  C   -0.018826
    11  He   0.000000
    12  He   0.000000
    13  H    0.000000
    14  H    0.000000
 Sum of Mulliken charges=   0.00000
 Electronic spatial extent (au):  <R**2>=   639.6845
 Charge=     0.0000 electrons
 Dipole moment (field-independent basis, Debye):
    X=     0.0000    Y=     0.0000    Z=     0.0000  Tot=     0.0000
 Quadrupole moment (field-independent basis, Debye-Ang):
   XX=   -34.2125   YY=   -34.4891   ZZ=   -34.3590
   XY=     0.0215   XZ=     0.3357   YZ=     0.3058
 Traceless Quadrupole moment (field-independent basis, Debye-Ang):
   XX=     0.1410   YY=    -0.1355   ZZ=    -0.0055
   XY=     0.0215   XZ=     0.3357   YZ=     0.3058
 Octapole moment (field-independent basis, Debye-Ang**2):
  XXX=     0.0000  YYY=     0.0000  ZZZ=     0.0000  XYY=     0.0000
  XXY=     0.0000  XXZ=     0.0000  XZZ=     0.0000  YZZ=     0.0000
  YYZ=     0.0000  XYZ=     0.0000
 Hexadecapole moment (field-independent basis, Debye-Ang**3):
 XXXX=  -285.5067 YYYY=  -193.3858 ZZZZ=  -328.5491 XXXY=   -51.1108
 XXXZ=  -107.7133 YYYX=   -49.4505 YYYZ=   -90.2873 ZZZX=  -116.5337
 ZZZY=   -97.4274 XXYY=   -87.8483 XXZZ=  -110.8205 YYZZ=   -90.2977
 XXYZ=   -39.2890 YYXZ=   -39.1103 ZZXY=   -27.1137
 N-N= 2.161464808857D+02 E-N=-9.730577627072D+02  KE= 2.333645712624D+02
 Symmetry AG   KE= 1.174161955580D+02
 Symmetry AU   KE= 1.159483757045D+02
 1\1\GINC-ORAC\SP\RB3LYP\EPR-II\C6H8\HOGBEN\08-Sep-2010\0\\# nmr=(giao,
 spinspin) b3lyp/epr-II geom=connectivity integral=(grid=ultrafine)\\HJ
 H_070910_Mol_EG1_nmr\\0,1\C,0,0.3805,0.2845,0.4467\C,0,1.642,0.3427,1.
 143\C,0,0.5289,1.3069,1.4476\H,0,1.878,-0.332,1.7792\H,0,2.4306,0.6517
 ,0.6906\H,0,0.604,2.2267,1.1866\H,0,0.0515,1.243,2.2747\C,0,-0.3805,-0
 .2845,-0.4467\C,0,-1.642,-0.3427,-1.143\C,0,-0.5289,-1.3069,-1.4476\H,
 0,-1.878,0.332,-1.7792\H,0,-2.4306,-0.6517,-0.6906\H,0,-0.604,-2.2267,
 -1.1866\H,0,-0.0515,-1.243,-2.2747\\Version=IA64L-G03RevE.01\State=1-A
 G\HF=-233.247035\RMSD=4.762e-09\Thermal=0.\Dipole=0.,0.,0.\PG=CI [X(C6
 H8)]\\@


 MAN IS THE MEASURE OF ALL THINGS.
  -- PROTAGORAS (5TH CENTURY B.C.)
 Job cpu time:  0 days  0 hours 11 minutes 36.0 seconds.
 File lengths (MBytes):  RWF=     61 Int=      0 D2E=      0 Chk=     11 Scr=      1
 Normal termination of Gaussian 03 at Wed Sep  8 11:58:49 2010.

Note that H's wanted to be deuterated have been replaced in the above by He. Not in calculation though!
