 Entering Link 1 = C:\G09W\l1.exe PID=      4644.
  
 Copyright (c) 1988,1990,1992,1993,1995,1998,2003,2009,2011,
            Gaussian, Inc.  All Rights Reserved.
  
 This is part of the Gaussian(R) 09 program.  It is based on
 the Gaussian(R) 03 system (copyright 2003, Gaussian, Inc.),
 the Gaussian(R) 98 system (copyright 1998, Gaussian, Inc.),
 the Gaussian(R) 94 system (copyright 1995, Gaussian, Inc.),
 the Gaussian 92(TM) system (copyright 1992, Gaussian, Inc.),
 the Gaussian 90(TM) system (copyright 1990, Gaussian, Inc.),
 the Gaussian 88(TM) system (copyright 1988, Gaussian, Inc.),
 the Gaussian 86(TM) system (copyright 1986, Carnegie Mellon
 University), and the Gaussian 82(TM) system (copyright 1983,
 Carnegie Mellon University). Gaussian is a federally registered
 trademark of Gaussian, Inc.
  
 This software contains proprietary and confidential information,
 including trade secrets, belonging to Gaussian, Inc.
  
 This software is provided under written license and may be
 used, copied, transmitted, or stored only in accord with that
 written license.
  
 The following legend is applicable only to US Government
 contracts under FAR:
  
                    RESTRICTED RIGHTS LEGEND
  
 Use, reproduction and disclosure by the US Government is
 subject to restrictions as set forth in subparagraphs (a)
 and (c) of the Commercial Computer Software - Restricted
 Rights clause in FAR 52.227-19.
  
 Gaussian, Inc.
 340 Quinnipiac St., Bldg. 40, Wallingford CT 06492
  
  
 ---------------------------------------------------------------
 Warning -- This program may not be used in any manner that
 competes with the business of Gaussian, Inc. or will provide
 assistance to any competitor of Gaussian, Inc.  The licensee
 of this program is prohibited from giving any competitor of
 Gaussian, Inc. access to this program.  By using this program,
 the user acknowledges that Gaussian, Inc. is engaged in the
 business of creating and licensing software in the field of
 computational chemistry and represents and warrants to the
 licensee that it is not a competitor of Gaussian, Inc. and that
 it will not use this program in any manner prohibited above.
 ---------------------------------------------------------------
  

 Cite this work as:
 Gaussian 09, Revision C.01,
 M. J. Frisch, G. W. Trucks, H. B. Schlegel, G. E. Scuseria, 
 M. A. Robb, J. R. Cheeseman, G. Scalmani, V. Barone, B. Mennucci, 
 G. A. Petersson, H. Nakatsuji, M. Caricato, X. Li, H. P. Hratchian, 
 A. F. Izmaylov, J. Bloino, G. Zheng, J. L. Sonnenberg, M. Hada, 
 M. Ehara, K. Toyota, R. Fukuda, J. Hasegawa, M. Ishida, T. Nakajima, 
 Y. Honda, O. Kitao, H. Nakai, T. Vreven, J. A. Montgomery, Jr., 
 J. E. Peralta, F. Ogliaro, M. Bearpark, J. J. Heyd, E. Brothers, 
 K. N. Kudin, V. N. Staroverov, T. Keith, R. Kobayashi, J. Normand, 
 K. Raghavachari, A. Rendell, J. C. Burant, S. S. Iyengar, J. Tomasi, 
 M. Cossi, N. Rega, J. M. Millam, M. Klene, J. E. Knox, J. B. Cross, 
 V. Bakken, C. Adamo, J. Jaramillo, R. Gomperts, R. E. Stratmann, 
 O. Yazyev, A. J. Austin, R. Cammi, C. Pomelli, J. W. Ochterski, 
 R. L. Martin, K. Morokuma, V. G. Zakrzewski, G. A. Voth, 
 P. Salvador, J. J. Dannenberg, S. Dapprich, A. D. Daniels, 
 O. Farkas, J. B. Foresman, J. V. Ortiz, J. Cioslowski, 
 and D. J. Fox, Gaussian, Inc., Wallingford CT, 2010.
 
 ******************************************
 Gaussian 09:  EM64W-G09RevC.01 23-Sep-2011
                16-Jun-2016 
 ******************************************
 %mem=8GB
 %chk=C:\Users\Administrator\Desktop\methanol.chk
 ----------------------------------------------------------------------
 #p nmr=giao b3lyp/cc-pvtz scrf=(smd,solvent=methanol) geom=connectivit
 y
 ----------------------------------------------------------------------
 1/38=1,57=2/1;
 2/12=2,17=6,18=5,40=1/2;
 3/5=16,6=1,11=2,16=1,25=1,30=1,70=32201,72=3,74=-5/1,2,8,3;
 4//1;
 5/5=2,38=5,53=3/2;
 8/6=1,10=90,11=11/1;
 10/13=100,45=16/2;
 6/7=2,8=2,9=2,10=2,28=1/1;
 99/9=1/99;
 Leave Link    1 at Thu Jun 16 11:19:29 2016, MaxMem= 1073741824 cpu:       0.0
 (Enter C:\G09W\l101.exe)
 -----------------
 Methanol geometry
 -----------------
 Charge =  0 Multiplicity = 1
 Symbolic Z-Matrix:
 C                     0.66941  -0.01936   0. 
 H                     1.02435  -0.54756  -0.8895 
 H                     1.09422   0.98364  -0.00007 
 H                     1.02436  -0.54745   0.88956 
 O                    -0.7524    0.12329   0. 
 H                    -1.14021  -0.75879  0. 
 
 NAtoms=      6 NQM=        0 NQMF=       0 NMMI=      6 NMMIF=      0
                NMic=       0 NMicF=      0.
                    Isotopes and Nuclear Properties:
 (Nuclear quadrupole moments (NQMom) in fm**2, nuclear magnetic moments (NMagM)
  in nuclear magnetons)

  Atom         1           2           3           4           5           6
 IAtWgt=          12           1           1           1          16           1
 AtmWgt=  12.0000000   1.0078250   1.0078250   1.0078250  15.9949146   1.0078250
 NucSpn=           0           1           1           1           0           1
 AtZEff=   0.0000000   0.0000000   0.0000000   0.0000000   0.0000000   0.0000000
 NQMom=    0.0000000   0.0000000   0.0000000   0.0000000   0.0000000   0.0000000
 NMagM=    0.0000000   2.7928460   2.7928460   2.7928460   0.0000000   2.7928460
 Leave Link  101 at Thu Jun 16 11:19:29 2016, MaxMem= 1073741824 cpu:       0.0
 (Enter C:\G09W\l202.exe)
                          Input orientation:                          
 ---------------------------------------------------------------------
 Center     Atomic      Atomic             Coordinates (Angstroms)
 Number     Number       Type             X           Y           Z
 ---------------------------------------------------------------------
      1          6           0        0.669409   -0.019355    0.000000
      2          1           0        1.024345   -0.547559   -0.889496
      3          1           0        1.094217    0.983638   -0.000065
      4          1           0        1.024356   -0.547452    0.889556
      5          8           0       -0.752395    0.123286    0.000001
      6          1           0       -1.140208   -0.758791   -0.000002
 ---------------------------------------------------------------------
                    Distance matrix (angstroms):
                    1          2          3          4          5
     1  C    0.000000
     2  H    1.093701   0.000000
     3  H    1.089246   1.772155   0.000000
     4  H    1.093702   1.779052   1.772158   0.000000
     5  O    1.428941   2.097151   2.037199   2.097151   0.000000
     6  H    1.954860   2.349704   2.833499   2.349748   0.963566
                    6
     6  H    0.000000
 Stoichiometry    CH4O
 Framework group  C1[X(CH4O)]
 Deg. of freedom    12
 Full point group                 C1      NOp   1
 Largest Abelian subgroup         C1      NOp   1
 Largest concise Abelian subgroup C1      NOp   1
                         Standard orientation:                         
 ---------------------------------------------------------------------
 Center     Atomic      Atomic             Coordinates (Angstroms)
 Number     Number       Type             X           Y           Z
 ---------------------------------------------------------------------
      1          6           0        0.669409   -0.019355    0.000000
      2          1           0        1.024345   -0.547559   -0.889496
      3          1           0        1.094217    0.983638   -0.000065
      4          1           0        1.024356   -0.547452    0.889556
      5          8           0       -0.752395    0.123286    0.000001
      6          1           0       -1.140208   -0.758791   -0.000002
 ---------------------------------------------------------------------
 Rotational constants (GHZ):    128.1354887     24.5678038     23.6987971
 Leave Link  202 at Thu Jun 16 11:19:29 2016, MaxMem= 1073741824 cpu:       0.0
 (Enter C:\G09W\l301.exe)
 Standard basis: CC-pVTZ (5D, 7F)
 Ernie: Thresh=  0.10000D-02 Tol=  0.10000D-05 Strict=F.
 Ernie:  6 primitive shells out of 84 were deleted.
 There are   116 symmetry adapted basis functions of A   symmetry.
 Integral buffers will be    131072 words long.
 Raffenetti 2 integral format.
 Two-electron integral symmetry is turned on.
   116 basis functions,   172 primitive gaussians,   130 cartesian basis functions
     9 alpha electrons        9 beta electrons
       nuclear repulsion energy        40.1616361762 Hartrees.
 IExCor=  402 DFT=T Ex+Corr=B3LYP ExCW=0 ScaHFX=  0.200000
 ScaDFX=  0.800000  0.720000  1.000000  0.810000 ScalE2=  1.000000  1.000000
 IRadAn=      0 IRanWt=     -1 IRanGd=            0 ICorTp=0
 NAtoms=    6 NActive=    6 NUniq=    6 SFac= 1.00D+00 NAtFMM=   60 NAOKFM=F Big=F
 ------------------------------------------------------------------------------
 Polarizable Continuum Model (PCM)
 =================================
 Model                : PCM.
 Atomic radii         : SMD-Coulomb.
 Polarization charges : Total charges.
 Charge compensation  : None.
 Solution method      : Matrix inversion.
 Cavity type          : VdW (van der Waals Surface) (Alpha=1.000).
 Cavity algorithm     : GePol (No added spheres)
                        Default sphere list used, NSphG=    6.
                        Lebedev-Laikov grids with approx.  5.0 points / Ang**2.
                        Smoothing algorithm: Karplus/York (Gamma=1.0000).
                        Polarization charges: spherical gaussians, with
                                              point-specific exponents (IZeta= 3).
                        Self-potential: point-specific (ISelfS= 7).
                        Self-field    : sphere-specific E.n sum rule (ISelfD= 2).
 Solvent              : Methanol, Eps=  32.613000 Eps(inf)=   1.765709
 ------------------------------------------------------------------------------
 Spheres list:
 ISph  on   Nord    Re0     Alpha      Xe            Ye            Ze
    1   C      1    1.850   1.000      0.669409     -0.019355      0.000000
    2   H      2    1.200   1.000      1.024345     -0.547559     -0.889496
    3   H      3    1.200   1.000      1.094217      0.983638     -0.000065
    4   H      4    1.200   1.000      1.024356     -0.547452      0.889556
    5   O      5    1.520   1.000     -0.752395      0.123286      0.000001
    6   H      6    1.200   1.000     -1.140208     -0.758791     -0.000002
 ------------------------------------------------------------------------------
 GePol: Number of generator spheres                  =       6
 GePol: Total number of spheres                      =       6
 GePol: Number of exposed spheres                    =       6 (100.00%)
 GePol: Number of points                             =     464
 GePol: Average weight of points                     =       0.13
 GePol: Minimum weight of points                     =   0.14D-04
 GePol: Maximum weight of points                     =    0.21991
 GePol: Number of points with low weight             =      19
 GePol: Fraction of low-weight points (<1% of avg)   =       4.09%
 GePol: Cavity surface area                          =     60.797 Ang**2
 GePol: Cavity volume                                =     39.400 Ang**3
 ------------------------------------------------------------------------------
 Atomic radii for non-electrostatic terms: SMD-CDS.
 ------------------------------------------------------------------------------
 PCM non-electrostatic energy =         0.0024545797 Hartrees.
 Nuclear repulsion after PCM non-electrostatic terms =       40.1640907559 Hartrees.
 Leave Link  301 at Thu Jun 16 11:19:30 2016, MaxMem= 1073741824 cpu:       0.0
 (Enter C:\G09W\l302.exe)
 NPDir=0 NMtPBC=     1 NCelOv=     1 NCel=       1 NClECP=     1 NCelD=      1
         NCelK=      1 NCelE2=     1 NClLst=     1 CellRange=     0.0.
 One-electron integrals computed using PRISM.
 NBasis=   116 RedAO= T  NBF=   116
 NBsUse=   116 1.00D-06 NBFU=   116
 Precomputing XC quadrature grid using
 IXCGrd= 2 IRadAn=           0 IRanWt=          -1 IRanGd=           0 AccXCQ= 0.00D+00.
 NRdTot=     374 NPtTot=       47304 NUsed=       50013 NTot=       50045
 NSgBfM=   130   130   130   130   130 NAtAll=     6     6.
 Leave Link  302 at Thu Jun 16 11:19:30 2016, MaxMem= 1073741824 cpu:       0.0
 (Enter C:\G09W\l308.exe)
 Leave Link  308 at Thu Jun 16 11:19:30 2016, MaxMem= 1073741824 cpu:       0.0
 (Enter C:\G09W\l303.exe)
 DipDrv:  MaxL=1.
 Leave Link  303 at Thu Jun 16 11:19:30 2016, MaxMem= 1073741824 cpu:       0.0
 (Enter C:\G09W\l401.exe)
 Harris functional with IExCor=  402 diagonalized for initial guess.
 ExpMin= 1.03D-01 ExpMax= 1.53D+04 ExpMxC= 5.22D+02 IAcc=1 IRadAn=         1 AccDes= 0.00D+00
 HarFok:  IExCor=  402 AccDes= 0.00D+00 IRadAn=         1 IDoV= 1
 ScaDFX=  1.000000  1.000000  1.000000  1.000000
 FoFCou: FMM=F IPFlag=           0 FMFlag=      100000 FMFlg1=           0
         NFxFlg=           0 DoJE=T BraDBF=F KetDBF=T FulRan=T
         Omega=  0.000000  0.000000  1.000000  0.000000  0.000000 ICntrl=     500 IOpCl=  0
         NMat0=    1 NMatS0=    1 NMatT0=    0 NMatD0=    1 NMtDS0=    0 NMtDT0=    0
         I1Cent=           4 NGrid=           0.
 Petite list used in FoFCou.
 Harris En= -115.797462293933    
 Initial guess orbital symmetries:
       Occupied  (A) (A) (A) (A) (A) (A) (A) (A) (A)
       Virtual   (A) (A) (A) (A) (A) (A) (A) (A) (A) (A) (A) (A)
                 (A) (A) (A) (A) (A) (A) (A) (A) (A) (A) (A) (A)
                 (A) (A) (A) (A) (A) (A) (A) (A) (A) (A) (A) (A)
                 (A) (A) (A) (A) (A) (A) (A) (A) (A) (A) (A) (A)
                 (A) (A) (A) (A) (A) (A) (A) (A) (A) (A) (A) (A)
                 (A) (A) (A) (A) (A) (A) (A) (A) (A) (A) (A) (A)
                 (A) (A) (A) (A) (A) (A) (A) (A) (A) (A) (A) (A)
                 (A) (A) (A) (A) (A) (A) (A) (A) (A) (A) (A) (A)
                 (A) (A) (A) (A) (A) (A) (A) (A) (A) (A) (A)
 The electronic state of the initial guess is 1-A.
 Leave Link  401 at Thu Jun 16 11:19:30 2016, MaxMem= 1073741824 cpu:       0.0
 (Enter C:\G09W\l502.exe)
 Closed shell SCF:
 Requested convergence on RMS density matrix=1.00D-08 within 128 cycles.
 Requested convergence on MAX density matrix=1.00D-06.
 Requested convergence on             energy=1.00D-06.
 No special actions if energy rises.
 Using DIIS extrapolation, IDIIS=  1040.
 Integral symmetry usage will be decided dynamically.
        49946 words used for storage of precomputed grid.
 Keep R1 ints in memory in canonical form, NReq=40726123.
 IEnd=      120524 IEndB=      120524 NGot=  1073741824 MDV=  1037398073
 LenX=  1037398073 LenY=  1037380732
 Symmetry not used in FoFDir.
 MinBra= 0 MaxBra= 3 Meth= 1.
 IRaf=       0 NMat=   1 IRICut=       1 DoRegI=T DoRafI=F ISym2E= 0 JSym2E=0.

 Cycle   1  Pass 1  IDiag  1:
 E= -115.708164653520    
 DIIS: error= 3.12D-02 at cycle   1 NSaved=   1.
 NSaved= 1 IEnMin= 1 EnMin= -115.708164653520     IErMin= 1 ErrMin= 3.12D-02
 ErrMax= 3.12D-02 EMaxC= 1.00D-01 BMatC= 8.97D-02 BMatP= 8.97D-02
 IDIUse=3 WtCom= 6.88D-01 WtEn= 3.12D-01
 Coeff-Com:  0.100D+01
 Coeff-En:   0.100D+01
 Coeff:      0.100D+01
 Gap=     0.259 Goal=   None    Shift=    0.000
 GapD=    0.259 DampG=1.000 DampE=0.500 DampFc=0.5000 IDamp=-1.
 Damping current iteration by 5.00D-01
 RMSDP=3.84D-03 MaxDP=1.01D-01              OVMax= 1.40D-01

 Cycle   2  Pass 1  IDiag  1:
 E= -115.736913198075     Delta-E=       -0.028748544555 Rises=F Damp=T
 DIIS: error= 7.78D-03 at cycle   2 NSaved=   2.
 NSaved= 2 IEnMin= 2 EnMin= -115.736913198075     IErMin= 2 ErrMin= 7.78D-03
 ErrMax= 7.78D-03 EMaxC= 1.00D-01 BMatC= 5.92D-03 BMatP= 8.97D-02
 IDIUse=3 WtCom= 9.22D-01 WtEn= 7.78D-02
 Coeff-Com:  0.128D+00 0.872D+00
 Coeff-En:   0.199D+00 0.801D+00
 Coeff:      0.133D+00 0.867D+00
 Gap=     0.330 Goal=   None    Shift=    0.000
 RMSDP=5.95D-04 MaxDP=1.26D-02 DE=-2.87D-02 OVMax= 8.52D-02

 Cycle   3  Pass 1  IDiag  1:
 E= -115.778430589125     Delta-E=       -0.041517391050 Rises=F Damp=F
 DIIS: error= 3.86D-03 at cycle   3 NSaved=   3.
 NSaved= 3 IEnMin= 3 EnMin= -115.778430589125     IErMin= 3 ErrMin= 3.86D-03
 ErrMax= 3.86D-03 EMaxC= 1.00D-01 BMatC= 1.83D-03 BMatP= 5.92D-03
 IDIUse=3 WtCom= 9.61D-01 WtEn= 3.86D-02
 Coeff-Com:  0.139D-01 0.339D+00 0.647D+00
 Coeff-En:   0.000D+00 0.000D+00 0.100D+01
 Coeff:      0.133D-01 0.326D+00 0.661D+00
 Gap=     0.324 Goal=   None    Shift=    0.000
 RMSDP=2.36D-04 MaxDP=5.20D-03 DE=-4.15D-02 OVMax= 1.38D-02

 Cycle   4  Pass 1  IDiag  1:
 E= -115.779437274490     Delta-E=       -0.001006685365 Rises=F Damp=F
 DIIS: error= 2.56D-03 at cycle   4 NSaved=   4.
 NSaved= 4 IEnMin= 4 EnMin= -115.779437274490     IErMin= 4 ErrMin= 2.56D-03
 ErrMax= 2.56D-03 EMaxC= 1.00D-01 BMatC= 4.61D-04 BMatP= 1.83D-03
 IDIUse=3 WtCom= 9.74D-01 WtEn= 2.56D-02
 Coeff-Com: -0.371D-02 0.739D-01 0.355D+00 0.575D+00
 Coeff-En:   0.000D+00 0.000D+00 0.202D+00 0.798D+00
 Coeff:     -0.361D-02 0.721D-01 0.351D+00 0.580D+00
 Gap=     0.324 Goal=   None    Shift=    0.000
 RMSDP=8.34D-05 MaxDP=2.25D-03 DE=-1.01D-03 OVMax= 5.32D-03

 Cycle   5  Pass 1  IDiag  1:
 E= -115.779794084631     Delta-E=       -0.000356810141 Rises=F Damp=F
 DIIS: error= 2.30D-04 at cycle   5 NSaved=   5.
 NSaved= 5 IEnMin= 5 EnMin= -115.779794084631     IErMin= 5 ErrMin= 2.30D-04
 ErrMax= 2.30D-04 EMaxC= 1.00D-01 BMatC= 4.85D-06 BMatP= 4.61D-04
 IDIUse=3 WtCom= 9.98D-01 WtEn= 2.30D-03
 Coeff-Com: -0.108D-02 0.188D-02 0.697D-01 0.163D+00 0.766D+00
 Coeff-En:   0.000D+00 0.000D+00 0.000D+00 0.000D+00 0.100D+01
 Coeff:     -0.108D-02 0.187D-02 0.695D-01 0.163D+00 0.767D+00
 Gap=     0.324 Goal=   None    Shift=    0.000
 RMSDP=8.44D-06 MaxDP=1.72D-04 DE=-3.57D-04 OVMax= 4.90D-04

 Cycle   6  Pass 1  IDiag  1:
 E= -115.779797606032     Delta-E=       -0.000003521401 Rises=F Damp=F
 DIIS: error= 9.48D-06 at cycle   6 NSaved=   6.
 NSaved= 6 IEnMin= 6 EnMin= -115.779797606032     IErMin= 6 ErrMin= 9.48D-06
 ErrMax= 9.48D-06 EMaxC= 1.00D-01 BMatC= 1.66D-08 BMatP= 4.85D-06
 IDIUse=1 WtCom= 1.00D+00 WtEn= 0.00D+00
 Coeff-Com:  0.113D-03-0.732D-03 0.282D-02 0.569D-02 0.583D-01 0.934D+00
 Coeff:      0.113D-03-0.732D-03 0.282D-02 0.569D-02 0.583D-01 0.934D+00
 Gap=     0.325 Goal=   None    Shift=    0.000
 RMSDP=8.64D-07 MaxDP=1.75D-05 DE=-3.52D-06 OVMax= 3.75D-05

 Cycle   7  Pass 1  IDiag  1:
 E= -115.779797618605     Delta-E=       -0.000000012572 Rises=F Damp=F
 DIIS: error= 1.37D-06 at cycle   7 NSaved=   7.
 NSaved= 7 IEnMin= 7 EnMin= -115.779797618605     IErMin= 7 ErrMin= 1.37D-06
 ErrMax= 1.37D-06 EMaxC= 1.00D-01 BMatC= 2.78D-10 BMatP= 1.66D-08
 IDIUse=1 WtCom= 1.00D+00 WtEn= 0.00D+00
 Coeff-Com:  0.254D-04-0.980D-04-0.642D-03-0.113D-02-0.244D-02 0.122D+00
 Coeff-Com:  0.882D+00
 Coeff:      0.254D-04-0.980D-04-0.642D-03-0.113D-02-0.244D-02 0.122D+00
 Coeff:      0.882D+00
 Gap=     0.325 Goal=   None    Shift=    0.000
 RMSDP=1.05D-07 MaxDP=2.38D-06 DE=-1.26D-08 OVMax= 4.20D-06

 Cycle   8  Pass 1  IDiag  1:
 E= -115.779797618834     Delta-E=       -0.000000000230 Rises=F Damp=F
 DIIS: error= 1.62D-07 at cycle   8 NSaved=   8.
 NSaved= 8 IEnMin= 8 EnMin= -115.779797618834     IErMin= 8 ErrMin= 1.62D-07
 ErrMax= 1.62D-07 EMaxC= 1.00D-01 BMatC= 4.40D-12 BMatP= 2.78D-10
 IDIUse=1 WtCom= 1.00D+00 WtEn= 0.00D+00
 Coeff-Com:  0.294D-06-0.203D-05-0.137D-03-0.201D-03-0.104D-02 0.413D-02
 Coeff-Com:  0.111D+00 0.886D+00
 Coeff:      0.294D-06-0.203D-05-0.137D-03-0.201D-03-0.104D-02 0.413D-02
 Coeff:      0.111D+00 0.886D+00
 Gap=     0.325 Goal=   None    Shift=    0.000
 RMSDP=1.34D-08 MaxDP=2.42D-07 DE=-2.30D-10 OVMax= 5.87D-07

 Cycle   9  Pass 1  IDiag  1:
 E= -115.779797618838     Delta-E=       -0.000000000003 Rises=F Damp=F
 DIIS: error= 3.58D-08 at cycle   9 NSaved=   9.
 NSaved= 9 IEnMin= 9 EnMin= -115.779797618838     IErMin= 9 ErrMin= 3.58D-08
 ErrMax= 3.58D-08 EMaxC= 1.00D-01 BMatC= 8.92D-14 BMatP= 4.40D-12
 IDIUse=1 WtCom= 1.00D+00 WtEn= 0.00D+00
 Coeff-Com: -0.667D-06 0.181D-05-0.935D-05-0.110D-04-0.826D-04-0.161D-02
 Coeff-Com: -0.911D-03 0.140D+00 0.863D+00
 Coeff:     -0.667D-06 0.181D-05-0.935D-05-0.110D-04-0.826D-04-0.161D-02
 Coeff:     -0.911D-03 0.140D+00 0.863D+00
 Gap=     0.325 Goal=   None    Shift=    0.000
 RMSDP=2.40D-09 MaxDP=5.41D-08 DE=-3.01D-12 OVMax= 8.72D-08

 Error on total polarization charges =  0.02885
 SCF Done:  E(RB3LYP) =  -115.779797619     A.U. after    9 cycles
             Convg  =    0.2402D-08             -V/T =  2.0064
 KE= 1.150420233264D+02 PE=-3.519266242727D+02 EE= 8.094071257157D+01
 SMD-CDS (non-electrostatic) energy       (kcal/mol) =       1.54
 (included in total energy above)
 Leave Link  502 at Thu Jun 16 11:19:47 2016, MaxMem= 1073741824 cpu:      17.0
 (Enter C:\G09W\l801.exe)
 Range of M.O.s used for correlation:     1   116
 NBasis=   116 NAE=     9 NBE=     9 NFC=     0 NFV=     0
 NROrb=    116 NOA=     9 NOB=     9 NVA=   107 NVB=   107

 **** Warning!!: The largest alpha MO coefficient is  0.11781533D+02

 Leave Link  801 at Thu Jun 16 11:19:47 2016, MaxMem= 1073741824 cpu:       0.0
 (Enter C:\G09W\l1002.exe)
 Minotr:  Closed shell wavefunction.
 NEqPCM:  Using equilibrium solvation (IEInf=0, Eps=  32.6130, EpsInf=   1.7657)
          Direct CPHF calculation.
          Differentiating once with respect to magnetic field using GIAOs.
          Electric field/nuclear overlap derivatives assumed to be zero.
          Requested convergence is 1.0D-08 RMS, and 1.0D-07 maximum.
          Secondary convergence is 1.0D-12 RMS, and 1.0D-12 maximum.
          NewPWx=T KeepS1=F KeepF1=F KeepIn=T MapXYZ=F SortEE=F KeepMc=T.
          MDV=    1073741772 using IRadAn=       2.
 Generate precomputed XC quadrature information.
          Keep R3 ints in memory in canonical form, NReq=38198904.
 Symmetry not used in FoFDir.
 MinBra= 0 MaxBra= 3 Meth= 1.
 IRaf=       0 NMat=   1 IRICut=       1 DoRegI=T DoRafI=F ISym2E= 0 JSym2E=0.
          Solving linear equations simultaneously, MaxMat=       0.
 FoFCou: FMM=F IPFlag=           0 FMFlag=    10101102 FMFlg1=           0
         NFxFlg=    40000000 DoJE=F BraDBF=F KetDBF=T FulRan=T
         Omega=  0.000000  0.000000  1.000000  0.000000  0.000000 ICntrl=    6100 IOpCl=  0
         NMat0=    1 NMatS0=    1 NMatT0=    0 NMatD0=    1 NMtDS0=    0 NMtDT0=    0
         I1Cent=           7 NGrid=         470.
 Symmetry not used in FoFCou.
          There are     3 degrees of freedom in the 1st order CPHF.  IDoFFX=0.
      3 vectors produced by pass  0 Test12= 3.21D-14 3.33D-08 XBig12= 6.96D-01 4.82D-01.
 AX will form     3 AO Fock derivatives at one time.
      3 vectors produced by pass  1 Test12= 3.21D-14 3.33D-08 XBig12= 7.76D-04 1.59D-02.
      3 vectors produced by pass  2 Test12= 3.21D-14 3.33D-08 XBig12= 1.02D-06 3.71D-04.
      3 vectors produced by pass  3 Test12= 3.21D-14 3.33D-08 XBig12= 1.97D-09 1.54D-05.
      3 vectors produced by pass  4 Test12= 3.21D-14 3.33D-08 XBig12= 2.54D-12 6.49D-07.
 Inverted reduced A of dimension    15 with in-core refinement.
 Calculating GIAO nuclear magnetic shielding tensors.
 SCF GIAO Magnetic shielding tensor (ppm):
      1  C    Isotropic =   129.8890   Anisotropy =    81.2472
   XX=   183.7151   YX=    -5.6695   ZX=    -0.0002
   XY=    -5.0550   YY=    99.1661   ZY=    -0.0002
   XZ=    -0.0002   YZ=    -0.0003   ZZ=   106.7859
   Eigenvalues:    98.8273   106.7859   184.0538
      2  H    Isotropic =    27.9356   Anisotropy =     8.2525
   XX=    31.1147   YX=    -2.7555   ZX=    -4.2429
   XY=    -1.3039   YY=    25.2583   ZY=     1.6555
   XZ=    -1.3480   YZ=     1.6812   ZZ=    27.4338
   Eigenvalues:    24.3019    26.0676    33.4373
      3  H    Isotropic =    28.1897   Anisotropy =     7.4208
   XX=    31.5409   YX=     4.5117   ZX=    -0.0003
   XY=     1.3462   YY=    27.7616   ZY=    -0.0002
   XZ=    -0.0001   YZ=    -0.0003   ZZ=    25.2666
   Eigenvalues:    25.2666    26.1656    33.1369
      4  H    Isotropic =    27.9356   Anisotropy =     8.2526
   XX=    31.1147   YX=    -2.7551   ZX=     4.2432
   XY=    -1.3037   YY=    25.2579   ZY=    -1.6553
   XZ=     1.3481   YZ=    -1.6810   ZZ=    27.4342
   Eigenvalues:    24.3018    26.0677    33.4373
      5  O    Isotropic =   337.0858   Anisotropy =    79.8845
   XX=   320.2672   YX=    15.9119   ZX=    -0.0005
   XY=    41.4775   YY=   378.5920   ZY=    -0.0002
   XZ=    -0.0017   YZ=     0.0010   ZZ=   312.3981
   Eigenvalues:   308.5171   312.3981   390.3421
      6  H    Isotropic =    30.6066   Anisotropy =    19.6273
   XX=    31.5102   YX=     8.6357   ZX=     0.0000
   XY=     6.2520   YY=    39.1426   ZY=     0.0001
   XZ=     0.0001   YZ=     0.0001   ZZ=    21.1669
   Eigenvalues:    21.1669    26.9614    43.6914
 End of Minotr Frequency-dependent properties file   721 does not exist.
 End of Minotr Frequency-dependent properties file   722 does not exist.
 Leave Link 1002 at Thu Jun 16 11:19:57 2016, MaxMem= 1073741824 cpu:      10.0
 (Enter C:\G09W\l601.exe)
 Copying SCF densities to generalized density rwf, IOpCl= 0 IROHF=0.

 **********************************************************************

            Population analysis using the SCF density.

 **********************************************************************

 Orbital symmetries:
       Occupied  (A) (A) (A) (A) (A) (A) (A) (A) (A)
       Virtual   (A) (A) (A) (A) (A) (A) (A) (A) (A) (A) (A) (A)
                 (A) (A) (A) (A) (A) (A) (A) (A) (A) (A) (A) (A)
                 (A) (A) (A) (A) (A) (A) (A) (A) (A) (A) (A) (A)
                 (A) (A) (A) (A) (A) (A) (A) (A) (A) (A) (A) (A)
                 (A) (A) (A) (A) (A) (A) (A) (A) (A) (A) (A) (A)
                 (A) (A) (A) (A) (A) (A) (A) (A) (A) (A) (A) (A)
                 (A) (A) (A) (A) (A) (A) (A) (A) (A) (A) (A) (A)
                 (A) (A) (A) (A) (A) (A) (A) (A) (A) (A) (A) (A)
                 (A) (A) (A) (A) (A) (A) (A) (A) (A) (A) (A)
 The electronic state is 1-A.
 Alpha  occ. eigenvalues --  -19.12418 -10.20505  -1.01568  -0.67696  -0.50288
 Alpha  occ. eigenvalues --   -0.43481  -0.42366  -0.34040  -0.27992
 Alpha virt. eigenvalues --    0.04461   0.07940   0.12139   0.12489   0.16348
 Alpha virt. eigenvalues --    0.27037   0.27417   0.34372   0.39396   0.45299
 Alpha virt. eigenvalues --    0.46253   0.47015   0.49919   0.53610   0.53766
 Alpha virt. eigenvalues --    0.63524   0.68018   0.68296   0.73834   0.88306
 Alpha virt. eigenvalues --    0.91148   0.98618   0.99689   1.04859   1.05948
 Alpha virt. eigenvalues --    1.07680   1.17138   1.23814   1.27867   1.31918
 Alpha virt. eigenvalues --    1.32885   1.35211   1.38541   1.52117   1.80904
 Alpha virt. eigenvalues --    1.88977   1.90166   1.98965   2.04580   2.18496
 Alpha virt. eigenvalues --    2.19956   2.28036   2.47843   2.60202   2.71696
 Alpha virt. eigenvalues --    2.77889   2.80129   2.83644   2.89722   2.92164
 Alpha virt. eigenvalues --    2.95635   2.97547   2.99272   3.04665   3.17824
 Alpha virt. eigenvalues --    3.28719   3.31315   3.37134   3.37194   3.42574
 Alpha virt. eigenvalues --    3.45115   3.48719   3.51394   3.57107   3.70028
 Alpha virt. eigenvalues --    3.71807   3.77586   3.81208   3.81629   3.93105
 Alpha virt. eigenvalues --    3.93485   3.96054   4.08980   4.11150   4.11712
 Alpha virt. eigenvalues --    4.23163   4.25106   4.29870   4.41426   4.62029
 Alpha virt. eigenvalues --    4.64147   4.70270   4.77452   4.88644   4.95467
 Alpha virt. eigenvalues --    4.98899   5.10773   5.18426   5.18742   5.20725
 Alpha virt. eigenvalues --    5.34520   5.50182   5.73322   5.79548   5.83345
 Alpha virt. eigenvalues --    5.94267   6.14732   6.46501   6.63864   6.67100
 Alpha virt. eigenvalues --    6.71156   6.82601   6.90767   7.08172   7.35854
 Alpha virt. eigenvalues --   11.36835  12.95535
          Condensed to atoms (all electrons):
              1          2          3          4          5          6
     1  C    4.579207   0.394031   0.390780   0.394028   0.331254  -0.040721
     2  H    0.394031   0.700596  -0.042813  -0.060608  -0.054462  -0.007262
     3  H    0.390780  -0.042813   0.617287  -0.042817  -0.031452   0.008589
     4  H    0.394028  -0.060608  -0.042817   0.700604  -0.054463  -0.007260
     5  O    0.331254  -0.054462  -0.031452  -0.054463   7.927032   0.342815
     6  H   -0.040721  -0.007262   0.008589  -0.007260   0.342815   0.435997
 Mulliken atomic charges:
              1
     1  C   -0.048578
     2  H    0.070518
     3  H    0.100426
     4  H    0.070516
     5  O   -0.460724
     6  H    0.267841
 Sum of Mulliken atomic charges =   0.00000
 Mulliken charges with hydrogens summed into heavy atoms:
              1
     1  C    0.192883
     5  O   -0.192883
 Sum of Mulliken charges with hydrogens summed into heavy atoms =   0.00000
 Electronic spatial extent (au):  <R**2>=             84.5348
 Charge=              0.0000 electrons
 Dipole moment (field-independent basis, Debye):
    X=              1.0342    Y=             -1.8907    Z=              0.0000  Tot=              2.1551
 Quadrupole moment (field-independent basis, Debye-Ang):
   XX=            -12.7039   YY=            -12.0433   ZZ=            -13.7243
   XY=              2.4304   XZ=              0.0000   YZ=              0.0000
 Traceless Quadrupole moment (field-independent basis, Debye-Ang):
   XX=              0.1199   YY=              0.7805   ZZ=             -0.9005
   XY=              2.4304   XZ=              0.0000   YZ=              0.0000
 Octapole moment (field-independent basis, Debye-Ang**2):
  XXX=             -3.9978  YYY=             -1.0556  ZZZ=              0.0001  XYY=             -1.8154
  XXY=             -2.7358  XXZ=              0.0000  XZZ=             -0.2784  YZZ=             -0.8193
  YYZ=             -0.0001  XYZ=              0.0000
 Hexadecapole moment (field-independent basis, Debye-Ang**3):
 XXXX=            -61.7104 YYYY=            -20.0332 ZZZZ=            -20.0021 XXXY=              4.2066
 XXXZ=              0.0000 YYYX=              3.2152 YYYZ=              0.0000 ZZZX=              0.0001
 ZZZY=              0.0000 XXYY=            -12.3126 XXZZ=            -14.2441 YYZZ=             -6.8099
 XXYZ=              0.0000 YYXZ=             -0.0001 ZZXY=             -0.1902
 N-N= 4.016409075593D+01 E-N=-3.519266231481D+02  KE= 1.150420233264D+02
 Calculating spin-rotation constants.
 Leave Link  601 at Thu Jun 16 11:19:58 2016, MaxMem= 1073741824 cpu:       1.0
 (Enter C:\G09W\l9999.exe)
 1|1|UNPC-MARKARTH|SP|RB3LYP|CC-pVTZ|C1H4O1|ADMINISTRATOR|16-Jun-2016|0
 ||#p nmr=giao b3lyp/cc-pvtz scrf=(smd,solvent=methanol) geom=connectiv
 ity||Methanol geometry||0,1|C,0,0.669409,-0.019355,0.|H,0,1.024345,-0.
 547559,-0.889496|H,0,1.094217,0.983638,-0.000065|H,0,1.024356,-0.54745
 2,0.889556|O,0,-0.752395,0.123286,0.000001|H,0,-1.140208,-0.758791,-0.
 000002||Version=EM64W-G09RevC.01|State=1-A|HF=-115.7797976|RMSD=2.402e
 -009|Dipole=0.4068952,-0.7438611,-0.0000077|Quadrupole=0.0891687,0.580
 3029,-0.6694716,1.8069145,-0.0000069,0.000001|PG=C01 [X(C1H4O1)]||@


 ONE THORN OF EXPERIENCE IS WORTH A WHOLE WILDERNESS OF
 WARNING....  LOWELL - AMONG MY BOOKS
 Job cpu time:  0 days  0 hours  0 minutes 29.0 seconds.
 File lengths (MBytes):  RWF=     14 Int=      0 D2E=      0 Chk=      3 Scr=      1
 Normal termination of Gaussian 09 at Thu Jun 16 11:19:58 2016.
