 Entering Link 1 = C:\G03W\l1.exe PID=      4296.
  
 Copyright (c) 1988,1990,1992,1993,1995,1998,2003,2004, Gaussian, Inc.
                  All Rights Reserved.
  
 This is the Gaussian(R) 03 program.  It is based on the
 the Gaussian(R) 98 system (copyright 1998, Gaussian, Inc.),
 the Gaussian(R) 94 system (copyright 1995, Gaussian, Inc.),
 the Gaussian 92(TM) system (copyright 1992, Gaussian, Inc.),
 the Gaussian 90(TM) system (copyright 1990, Gaussian, Inc.),
 the Gaussian 88(TM) system (copyright 1988, Gaussian, Inc.),
 the Gaussian 86(TM) system (copyright 1986, Carnegie Mellon
 University), and the Gaussian 82(TM) system (copyright 1983,
 Carnegie Mellon University). Gaussian is a federally registered
 trademark of Gaussian, Inc.
  
 This software contains proprietary and confidential information,
 including trade secrets, belonging to Gaussian, Inc.
  
 This software is provided under written license and may be
 used, copied, transmitted, or stored only in accord with that
 written license.
  
 The following legend is applicable only to US Government
 contracts under FAR:
  
                    RESTRICTED RIGHTS LEGEND
  
 Use, reproduction and disclosure by the US Government is
 subject to restrictions as set forth in subparagraphs (a)
 and (c) of the Commercial Computer Software - Restricted
 Rights clause in FAR 52.227-19.
  
 Gaussian, Inc.
 340 Quinnipiac St., Bldg. 40, Wallingford CT 06492
  
  
 ---------------------------------------------------------------
 Warning -- This program may not be used in any manner that
 competes with the business of Gaussian, Inc. or will provide
 assistance to any competitor of Gaussian, Inc.  The licensee
 of this program is prohibited from giving any competitor of
 Gaussian, Inc. access to this program.  By using this program,
 the user acknowledges that Gaussian, Inc. is engaged in the
 business of creating and licensing software in the field of
 computational chemistry and represents and warrants to the
 licensee that it is not a competitor of Gaussian, Inc. and that
 it will not use this program in any manner prohibited above.
 ---------------------------------------------------------------
  

 Cite this work as:
 Gaussian 03, Revision C.02,
 M. J. Frisch, G. W. Trucks, H. B. Schlegel, G. E. Scuseria, 
 M. A. Robb, J. R. Cheeseman, J. A. Montgomery, Jr., T. Vreven, 
 K. N. Kudin, J. C. Burant, J. M. Millam, S. S. Iyengar, J. Tomasi, 
 V. Barone, B. Mennucci, M. Cossi, G. Scalmani, N. Rega, 
 G. A. Petersson, H. Nakatsuji, M. Hada, M. Ehara, K. Toyota, 
 R. Fukuda, J. Hasegawa, M. Ishida, T. Nakajima, Y. Honda, O. Kitao, 
 H. Nakai, M. Klene, X. Li, J. E. Knox, H. P. Hratchian, J. B. Cross, 
 C. Adamo, J. Jaramillo, R. Gomperts, R. E. Stratmann, O. Yazyev, 
 A. J. Austin, R. Cammi, C. Pomelli, J. W. Ochterski, P. Y. Ayala, 
 K. Morokuma, G. A. Voth, P. Salvador, J. J. Dannenberg, 
 V. G. Zakrzewski, S. Dapprich, A. D. Daniels, M. C. Strain, 
 O. Farkas, D. K. Malick, A. D. Rabuck, K. Raghavachari, 
 J. B. Foresman, J. V. Ortiz, Q. Cui, A. G. Baboul, S. Clifford, 
 J. Cioslowski, B. B. Stefanov, G. Liu, A. Liashenko, P. Piskorz, 
 I. Komaromi, R. L. Martin, D. J. Fox, T. Keith, M. A. Al-Laham, 
 C. Y. Peng, A. Nanayakkara, M. Challacombe, P. M. W. Gill, 
 B. Johnson, W. Chen, M. W. Wong, C. Gonzalez, and J. A. Pople, 
 Gaussian, Inc., Wallingford CT, 2004.
 
 ******************************************
 Gaussian 03:  IA32W-G03RevC.02 12-Jun-2004
                18-May-2009 
 ******************************************
 %mem=100MB
 %chk=C:\Documents and Settings\admin\Desktop\shielding_tensor_gradients\ethalon 
 logs\methyl_radical.chk
 Default route:  MaxDisk=2000MB
 ---------------------------------------------------------------
 #p nmr=giao ub3lyp/EPR-II guess=mix geom=connectivity scf=tight
 ---------------------------------------------------------------
 1/38=1,57=2/1;
 2/17=6,18=5,40=1/2;
 3/5=21,11=2,16=1,25=1,30=1,74=-5/1,2,8,3;
 4/7=2,9=2,13=1/1;
 5/5=2,32=2,38=5/2;
 8/6=1,10=90,11=11,27=262144000/1;
 10/13=100,45=16/2;
 6/7=2,8=2,9=2,10=2,28=1/1;
 99/9=1/99;
 Leave Link    1 at Mon May 18 15:21:56 2009, MaxMem=   13107200 cpu:       0.0
 (Enter C:\G03W\l101.exe)
 ---------------
 Methyl radical.
 ---------------
 Symbolic Z-matrix:
 Charge =  0 Multiplicity = 2
 C                     0.        0.        0.00001 
 H                     0.        1.08251  -0.00001 
 H                    -0.93748  -0.54125  -0.00001 
 H                     0.93748  -0.54125  -0.00001 
 
                    Isotopes and Nuclear Properties:

  Atom         1           2           3           4
 IAtWgt=          12           1           1           1
 AtmWgt=  12.0000000   1.0078250   1.0078250   1.0078250
 IAtSpn=           0           1           1           1
 AtZEff=   0.0000000   0.0000000   0.0000000   0.0000000
 AtQMom=   0.0000000   0.0000000   0.0000000   0.0000000
 AtGFac=   0.0000000   2.7928460   2.7928460   2.7928460
 Leave Link  101 at Mon May 18 15:21:56 2009, MaxMem=   13107200 cpu:       0.0
 (Enter C:\G03W\l202.exe)
                          Input orientation:                          
 ---------------------------------------------------------------------
 Center     Atomic     Atomic              Coordinates (Angstroms)
 Number     Number      Type              X           Y           Z
 ---------------------------------------------------------------------
    1          6             0        0.000000    0.000000    0.000005
    2          1             0        0.000000    1.082508   -0.000010
    3          1             0       -0.937480   -0.541254   -0.000010
    4          1             0        0.937480   -0.541254   -0.000010
 ---------------------------------------------------------------------
                    Distance matrix (angstroms):
                    1          2          3          4
     1  C    0.000000
     2  H    1.082508   0.000000
     3  H    1.082508   1.874959   0.000000
     4  H    1.082508   1.874959   1.874960   0.000000
 Stoichiometry    CH3(2)
 Framework group  C3V[C3(C),3SGV(H)]
 Deg. of freedom     2
 Full point group                 C3V     NOp   6
 Largest Abelian subgroup         CS      NOp   2
 Largest concise Abelian subgroup CS      NOp   2
                         Standard orientation:                         
 ---------------------------------------------------------------------
 Center     Atomic     Atomic              Coordinates (Angstroms)
 Number     Number      Type              X           Y           Z
 ---------------------------------------------------------------------
    1          6             0        0.000000    0.000000    0.000005
    2          1             0        0.000000    1.082508   -0.000010
    3          1             0       -0.937479   -0.541254   -0.000010
    4          1             0        0.937479   -0.541254   -0.000010
 ---------------------------------------------------------------------
 Rotational constants (GHZ):    285.2847553    285.2847553    142.6423777
 Leave Link  202 at Mon May 18 15:21:57 2009, MaxMem=   13107200 cpu:       0.0
 (Enter C:\G03W\l301.exe)
 Standard basis: EPR-II (5D, 7F)
 There are    26 symmetry adapted basis functions of A'  symmetry.
 There are    12 symmetry adapted basis functions of A"  symmetry.
 Integral buffers will be    262144 words long.
 Raffenetti 2 integral format.
 Two-electron integral symmetry is turned on.
    38 basis functions,    58 primitive gaussians,    39 cartesian basis functions
     5 alpha electrons        4 beta electrons
       nuclear repulsion energy         9.6458885842 Hartrees.
 IExCor= 402 DFT=T Ex=B+HF Corr=LYP ExCW=0 ScaHFX=  0.200000
 ScaDFX=  0.800000  0.720000  1.000000  0.810000
 IRadAn=      0 IRanWt=     -1 IRanGd=            0 ICorTp=0
 NAtoms=    4 NActive=    4 NUniq=    2 SFac= 5.66D+00 NAtFMM=   60 Big=F
 Leave Link  301 at Mon May 18 15:21:57 2009, MaxMem=   13107200 cpu:       0.0
 (Enter C:\G03W\l302.exe)
 NPDir=0 NMtPBC=     1 NCelOv=     1 NCel=       1 NClECP=     1 NCelD=      1
         NCelK=      1 NCelE2=     1 NClLst=     1 CellRange=     0.0.
 One-electron integrals computed using PRISM.
 One-electron integral symmetry used in STVInt
 NBasis=    38 RedAO= T  NBF=    26    12
 NBsUse=    38 1.00D-06 NBFU=    26    12
 Precomputing XC quadrature grid using
 IXCGrd= 2 IRadAn=           0 IRanWt=          -1 IRanGd=           0.
 NRdTot=     251 NPtTot=       31820 NUsed=       32959 NTot=       32975
 NSgBfM=    39    39    39    39.
 Leave Link  302 at Mon May 18 15:21:57 2009, MaxMem=   13107200 cpu:       0.0
 (Enter C:\G03W\l308.exe)
 Leave Link  308 at Mon May 18 15:21:58 2009, MaxMem=   13107200 cpu:       0.0
 (Enter C:\G03W\l303.exe)
 DipDrv:  MaxL=1.
 Leave Link  303 at Mon May 18 15:21:58 2009, MaxMem=   13107200 cpu:       0.0
 (Enter C:\G03W\l401.exe)
 SCF N**3 symmetry information disabled.
 Harris functional with IExCor=  402 diagonalized for initial guess.
 ExpMin= 4.79D-02 ExpMax= 4.23D+03 ExpMxC= 6.35D+02 IAcc=2 IRadAn=         4 AccDes= 0.00D+00
 HarFok:  IExCor= 402 AccDes= 0.00D+00 IRadAn=         4 IDoV=1
 ScaDFX=  1.000000  1.000000  1.000000  1.000000
 Harris En= -39.8532174699258    
 Initial guess orbital symmetries:
 Alpha Orbitals:
       Occupied  (A1) (A1) (E) (E) (A1)
       Virtual   (A1) (E) (E) (A1) (E) (E) (A1) (A1) (A1) (E) (E)
                 (E) (E) (E) (E) (A2) (A1) (A1) (E) (E) (E) (E)
                 (E) (E) (A1) (E) (E) (A1) (A1) (A1) (E) (E) (A1)
 Beta  Orbitals:
       Occupied  (A1) (A1) (?A) (?A)
       Virtual   (?A) (A1) (E) (E) (A1) (E) (E) (A1) (A1) (A1)
                 (E) (E) (E) (E) (E) (E) (A2) (A1) (A1) (E) (E)
                 (E) (E) (E) (E) (A1) (E) (E) (A1) (A1) (A1) (E)
                 (E) (A1)
 <S**2> of initial guess= 1.0000
 Leave Link  401 at Mon May 18 15:21:58 2009, MaxMem=   13107200 cpu:       0.0
 (Enter C:\G03W\l502.exe)
 UHF open shell SCF:
 Requested convergence on RMS density matrix=1.00D-08 within 128 cycles.
 Requested convergence on MAX density matrix=1.00D-06.
 Requested convergence on             energy=1.00D-06.
 No special actions if energy rises.
 Using DIIS extrapolation, IDIIS=  1040.
 Integral symmetry usage will be decided dynamically.
        32958 words used for storage of precomputed grid.
 Keep R1 and R2 integrals in memory in canonical form, NReq=     1125908.
 IEnd=     55513 IEndB=     55513 NGot=  13107200 MDV=  12460694
 LenX=  12460694
 Symmetry not used in FoFDir.
 MinBra= 0 MaxBra= 2 Meth= 1.
 IRaf=       0 NMat=   1 IRICut=       1 DoRegI=T DoRafI=F ISym2E= 0 JSym2E=0.

 Density matrix breaks symmetry, PCut= 1.00D-04
 Density matrix has no symmetry -- integrals replicated.
 Cycle   1  Pass 1  IDiag  1:
 E= -39.6050199514193    
 DIIS: error= 5.19D-02 at cycle   1 NSaved=   1.
 NSaved= 1 IEnMin= 1 EnMin= -39.6050199514193     IErMin= 1 ErrMin= 5.19D-02
 ErrMax= 5.19D-02 EMaxC= 1.00D-01 BMatC= 1.28D-01 BMatP= 1.28D-01
 IDIUse=3 WtCom= 4.81D-01 WtEn= 5.19D-01
 Coeff-Com:  0.100D+01
 Coeff-En:   0.100D+01
 Coeff:      0.100D+01
 Gap=     0.052 Goal=   None    Shift=    0.000
 Gap=     0.102 Goal=   None    Shift=    0.000
 GapD=    0.052 DampG=0.500 DampE=0.500 DampFc=0.2500 IDamp=-1.
 Damping current iteration by 2.50D-01
 RMSDP=3.45D-02 MaxDP=7.39D-01              OVMax= 5.90D-01

 Density matrix breaks symmetry, PCut= 1.00D-04
 Density matrix has no symmetry -- integrals replicated.
 Cycle   2  Pass 1  IDiag  1:
 E= -39.6525445734203     Delta-E=       -0.047524622001 Rises=F Damp=T
 DIIS: error= 4.26D-02 at cycle   2 NSaved=   2.
 NSaved= 2 IEnMin= 2 EnMin= -39.6525445734203     IErMin= 2 ErrMin= 4.26D-02
 ErrMax= 4.26D-02 EMaxC= 1.00D-01 BMatC= 6.18D-02 BMatP= 1.28D-01
 IDIUse=3 WtCom= 5.74D-01 WtEn= 4.26D-01
 Coeff-Com: -0.149D+01 0.249D+01
 Coeff-En:   0.000D+00 0.100D+01
 Coeff:     -0.858D+00 0.186D+01
 Gap=     0.205 Goal=   None    Shift=    0.000
 Gap=     0.278 Goal=   None    Shift=    0.000
 RMSDP=2.79D-02 MaxDP=5.94D-01 DE=-4.75D-02 OVMax= 1.03D-01

 Density matrix breaks symmetry, PCut= 1.00D-04
 Density matrix has no symmetry -- integrals replicated.
 Cycle   3  Pass 1  IDiag  1:
 E= -39.8429161572788     Delta-E=       -0.190371583858 Rises=F Damp=F
 DIIS: error= 1.14D-02 at cycle   3 NSaved=   3.
 NSaved= 3 IEnMin= 3 EnMin= -39.8429161572788     IErMin= 3 ErrMin= 1.14D-02
 ErrMax= 1.14D-02 EMaxC= 1.00D-01 BMatC= 7.52D-03 BMatP= 6.18D-02
 IDIUse=3 WtCom= 8.86D-01 WtEn= 1.14D-01
 Coeff-Com:  0.599D+00-0.878D+00 0.128D+01
 Coeff-En:   0.000D+00 0.000D+00 0.100D+01
 Coeff:      0.531D+00-0.778D+00 0.125D+01
 Gap=     0.252 Goal=   None    Shift=    0.000
 Gap=     0.335 Goal=   None    Shift=    0.000
 RMSDP=3.26D-03 MaxDP=5.65D-02 DE=-1.90D-01 OVMax= 9.41D-02

 Density matrix breaks symmetry, PCut= 1.00D-04
 Density matrix has no symmetry -- integrals replicated.
 Cycle   4  Pass 1  IDiag  1:
 E= -39.8500495723461     Delta-E=       -0.007133415067 Rises=F Damp=F
 DIIS: error= 2.91D-03 at cycle   4 NSaved=   4.
 NSaved= 4 IEnMin= 4 EnMin= -39.8500495723461     IErMin= 4 ErrMin= 2.91D-03
 ErrMax= 2.91D-03 EMaxC= 1.00D-01 BMatC= 7.81D-04 BMatP= 7.52D-03
 IDIUse=3 WtCom= 9.71D-01 WtEn= 2.91D-02
 Coeff-Com:  0.190D+00-0.259D+00 0.886D-01 0.980D+00
 Coeff-En:   0.000D+00 0.000D+00 0.000D+00 0.100D+01
 Coeff:      0.185D+00-0.252D+00 0.860D-01 0.981D+00
 Gap=     0.259 Goal=   None    Shift=    0.000
 Gap=     0.343 Goal=   None    Shift=    0.000
 RMSDP=7.68D-04 MaxDP=1.31D-02 DE=-7.13D-03 OVMax= 2.15D-02

 Density matrix breaks symmetry, PCut= 1.00D-04
 Density matrix has no symmetry -- integrals replicated.
 Cycle   5  Pass 1  IDiag  1:
 E= -39.8505272099094     Delta-E=       -0.000477637563 Rises=F Damp=F
 DIIS: error= 1.06D-03 at cycle   5 NSaved=   5.
 NSaved= 5 IEnMin= 5 EnMin= -39.8505272099094     IErMin= 5 ErrMin= 1.06D-03
 ErrMax= 1.06D-03 EMaxC= 1.00D-01 BMatC= 1.26D-04 BMatP= 7.81D-04
 IDIUse=3 WtCom= 9.89D-01 WtEn= 1.06D-02
 Coeff-Com: -0.556D-01 0.742D-01-0.103D+00 0.196D+00 0.889D+00
 Coeff-En:   0.000D+00 0.000D+00 0.000D+00 0.000D+00 0.100D+01
 Coeff:     -0.550D-01 0.734D-01-0.102D+00 0.194D+00 0.890D+00
 Gap=     0.258 Goal=   None    Shift=    0.000
 Gap=     0.342 Goal=   None    Shift=    0.000
 RMSDP=2.06D-04 MaxDP=3.19D-03 DE=-4.78D-04 OVMax= 5.90D-03

 Density matrix breaks symmetry, PCut= 1.00D-04
 Density matrix has no symmetry -- integrals replicated.
 Cycle   6  Pass 1  IDiag  1:
 E= -39.8505892121012     Delta-E=       -0.000062002192 Rises=F Damp=F
 DIIS: error= 1.61D-04 at cycle   6 NSaved=   6.
 NSaved= 6 IEnMin= 6 EnMin= -39.8505892121012     IErMin= 6 ErrMin= 1.61D-04
 ErrMax= 1.61D-04 EMaxC= 1.00D-01 BMatC= 3.25D-06 BMatP= 1.26D-04
 IDIUse=3 WtCom= 9.98D-01 WtEn= 1.61D-03
 Coeff-Com: -0.426D-02 0.519D-02 0.184D-02-0.595D-01-0.242D-01 0.108D+01
 Coeff-En:   0.000D+00 0.000D+00 0.000D+00 0.000D+00 0.000D+00 0.100D+01
 Coeff:     -0.425D-02 0.519D-02 0.184D-02-0.594D-01-0.242D-01 0.108D+01
 Gap=     0.258 Goal=   None    Shift=    0.000
 Gap=     0.342 Goal=   None    Shift=    0.000
 RMSDP=5.31D-05 MaxDP=8.51D-04 DE=-6.20D-05 OVMax= 1.48D-03

 Density matrix breaks symmetry, PCut= 1.00D-04
 Density matrix has no symmetry -- integrals replicated.
 Cycle   7  Pass 1  IDiag  1:
 E= -39.8505913647647     Delta-E=       -0.000002152664 Rises=F Damp=F
 DIIS: error= 6.53D-05 at cycle   7 NSaved=   7.
 NSaved= 7 IEnMin= 7 EnMin= -39.8505913647647     IErMin= 7 ErrMin= 6.53D-05
 ErrMax= 6.53D-05 EMaxC= 1.00D-01 BMatC= 1.71D-07 BMatP= 3.25D-06
 IDIUse=1 WtCom= 1.00D+00 WtEn= 0.00D+00
 Coeff-Com:  0.236D-02-0.265D-02 0.257D-02-0.111D-01-0.153D-01 0.803D-01
 Coeff-Com:  0.944D+00
 Coeff:      0.236D-02-0.265D-02 0.257D-02-0.111D-01-0.153D-01 0.803D-01
 Coeff:      0.944D+00
 Gap=     0.258 Goal=   None    Shift=    0.000
 Gap=     0.342 Goal=   None    Shift=    0.000
 RMSDP=8.07D-06 MaxDP=1.60D-04 DE=-2.15D-06 OVMax= 1.65D-04

 Cycle   8  Pass 1  IDiag  1:
 E= -39.8505987362205     Delta-E=       -0.000007371456 Rises=F Damp=F
 DIIS: error= 1.38D-05 at cycle   8 NSaved=   8.
 NSaved= 8 IEnMin= 8 EnMin= -39.8505987362205     IErMin= 8 ErrMin= 1.38D-05
 ErrMax= 1.38D-05 EMaxC= 1.00D-01 BMatC= 8.65D-09 BMatP= 1.71D-07
 IDIUse=1 WtCom= 1.00D+00 WtEn= 0.00D+00
 Coeff-Com: -0.273D-04 0.504D-04-0.559D-04 0.128D-02-0.156D-02-0.381D-01
 Coeff-Com:  0.512D-01 0.987D+00
 Coeff:     -0.273D-04 0.504D-04-0.559D-04 0.128D-02-0.156D-02-0.381D-01
 Coeff:      0.512D-01 0.987D+00
 Gap=     0.258 Goal=   None    Shift=    0.000
 Gap=     0.342 Goal=   None    Shift=    0.000
 RMSDP=2.39D-06 MaxDP=3.79D-05 DE=-7.37D-06 OVMax= 5.07D-05

 Cycle   9  Pass 1  IDiag  1:
 E= -39.8505911832983     Delta-E=        0.000007552922 Rises=F Damp=F
 DIIS: error= 2.55D-06 at cycle   9 NSaved=   9.
 NSaved= 9 IEnMin= 8 EnMin= -39.8505987362205     IErMin= 9 ErrMin= 2.55D-06
 ErrMax= 2.55D-06 EMaxC= 1.00D-01 BMatC= 5.21D-10 BMatP= 8.65D-09
 IDIUse=1 WtCom= 1.00D+00 WtEn= 0.00D+00
 Coeff-Com: -0.459D-04 0.645D-04-0.141D-03 0.139D-03 0.398D-03 0.225D-02
 Coeff-Com: -0.476D-01-0.191D+00 0.124D+01
 Coeff:     -0.459D-04 0.645D-04-0.141D-03 0.139D-03 0.398D-03 0.225D-02
 Coeff:     -0.476D-01-0.191D+00 0.124D+01
 Gap=     0.258 Goal=   None    Shift=    0.000
 Gap=     0.342 Goal=   None    Shift=    0.000
 RMSDP=7.52D-07 MaxDP=1.22D-05 DE= 7.55D-06 OVMax= 1.58D-05

 Cycle  10  Pass 1  IDiag  1:
 E= -39.8505916758258     Delta-E=       -0.000000492528 Rises=F Damp=F
 DIIS: error= 2.18D-07 at cycle  10 NSaved=  10.
 NSaved=10 IEnMin= 8 EnMin= -39.8505987362205     IErMin=10 ErrMin= 2.18D-07
 ErrMax= 2.18D-07 EMaxC= 1.00D-01 BMatC= 6.71D-12 BMatP= 5.21D-10
 IDIUse=1 WtCom= 1.00D+00 WtEn= 0.00D+00
 Coeff-Com: -0.329D-05 0.474D-05 0.424D-05-0.409D-04-0.306D-04 0.413D-03
 Coeff-Com:  0.654D-03-0.140D-01-0.631D-01 0.108D+01
 Coeff:     -0.329D-05 0.474D-05 0.424D-05-0.409D-04-0.306D-04 0.413D-03
 Coeff:      0.654D-03-0.140D-01-0.631D-01 0.108D+01
 Gap=     0.258 Goal=   None    Shift=    0.000
 Gap=     0.342 Goal=   None    Shift=    0.000
 RMSDP=9.89D-08 MaxDP=1.52D-06 DE=-4.93D-07 OVMax= 1.65D-06

 Cycle  11  Pass 1  IDiag  1:
 E= -39.8505911184060     Delta-E=        0.000000557420 Rises=F Damp=F
 DIIS: error= 3.20D-08 at cycle  11 NSaved=  11.
 NSaved=11 IEnMin= 8 EnMin= -39.8505987362205     IErMin=11 ErrMin= 3.20D-08
 ErrMax= 3.20D-08 EMaxC= 1.00D-01 BMatC= 1.44D-13 BMatP= 6.71D-12
 IDIUse=1 WtCom= 1.00D+00 WtEn= 0.00D+00
 Coeff-Com: -0.137D-05 0.174D-05-0.190D-05 0.750D-05-0.102D-05-0.333D-04
 Coeff-Com:  0.223D-03 0.217D-02-0.353D-02-0.119D+00 0.112D+01
 Coeff:     -0.137D-05 0.174D-05-0.190D-05 0.750D-05-0.102D-05-0.333D-04
 Coeff:      0.223D-03 0.217D-02-0.353D-02-0.119D+00 0.112D+01
 Gap=     0.258 Goal=   None    Shift=    0.000
 Gap=     0.342 Goal=   None    Shift=    0.000
 RMSDP=1.38D-08 MaxDP=3.11D-07 DE= 5.57D-07 OVMax= 2.16D-07

 Cycle  12  Pass 1  IDiag  1:
 E= -39.8505911509111     Delta-E=       -0.000000032505 Rises=F Damp=F
 DIIS: error= 1.04D-08 at cycle  12 NSaved=  12.
 NSaved=12 IEnMin= 8 EnMin= -39.8505987362205     IErMin=12 ErrMin= 1.04D-08
 ErrMax= 1.04D-08 EMaxC= 1.00D-01 BMatC= 6.54D-15 BMatP= 1.44D-13
 IDIUse=1 WtCom= 1.00D+00 WtEn= 0.00D+00
 Coeff-Com: -0.943D-07 0.147D-06-0.149D-06 0.535D-06 0.240D-05-0.389D-05
 Coeff-Com:  0.709D-04 0.230D-03 0.151D-02-0.329D-01 0.165D+00 0.866D+00
 Coeff:     -0.943D-07 0.147D-06-0.149D-06 0.535D-06 0.240D-05-0.389D-05
 Coeff:      0.709D-04 0.230D-03 0.151D-02-0.329D-01 0.165D+00 0.866D+00
 Gap=     0.258 Goal=   None    Shift=    0.000
 Gap=     0.342 Goal=   None    Shift=    0.000
 RMSDP=1.41D-09 MaxDP=2.12D-08 DE=-3.25D-08 OVMax= 3.67D-08

 SCF Done:  E(UB+HF-LYP) =  -39.8505911509     A.U. after   12 cycles
             Convg  =    0.1408D-08             -V/T =  2.0082
             S**2   =   0.7534
 KE= 3.952542220982D+01 PE=-1.111259183127D+02 EE= 2.210401636779D+01
 Annihilation of the first spin contaminant:
 S**2 before annihilation     0.7534,   after     0.7500
 Leave Link  502 at Mon May 18 15:22:02 2009, MaxMem=   13107200 cpu:       4.0
 (Enter C:\G03W\l801.exe)
 Range of M.O.s used for correlation:     1    38
 NBasis=    38 NAE=     5 NBE=     4 NFC=     0 NFV=     0
 NROrb=     38 NOA=     5 NOB=     4 NVA=    33 NVB=    34
 Leave Link  801 at Mon May 18 15:22:02 2009, MaxMem=   13107200 cpu:       0.0
 (Enter C:\G03W\l1002.exe)
 Minotr:  UHF wavefunction.
          Direct CPHF calculation.
          Solving linear equations simultaneously.
          Differentiating once with respect to magnetic field using GIAOs.
          Electric field/nuclear overlap derivatives assumed to be zero.
          Using symmetry in CPHF.
          Requested convergence is 1.0D-08 RMS, and 1.0D-07 maximum.
          Secondary convergence is 1.0D-12 RMS, and 1.0D-12 maximum.
          NewPWx=T KeepS1=F KeepF1=F KeepIn=T MapXYZ=F.
          MDV=      13107174 using IRadAn=       2.
          Store integrals in memory, NReq=      734895.
 Symmetry not used in FoFDir.
 MinBra= 0 MaxBra= 2 Meth= 1.
 IRaf=       0 NMat=   1 IRICut=       1 DoRegI=T DoRafI=F ISym2E= 0 JSym2E=0.
          There are   3 degrees of freedom in the 1st order CPHF.
     3 vectors were produced by pass  0.
 AX will form   3 AO Fock derivatives at one time.
     3 vectors were produced by pass  1.
     3 vectors were produced by pass  2.
     3 vectors were produced by pass  3.
     2 vectors were produced by pass  4.
 Inv2:  IOpt= 1 Iter= 1 AM= 2.93D-16 Conv= 1.00D-12.
 Inverted reduced A of dimension   14 with in-core refinement.
 Calculating GIAO nuclear magnetic shielding tensors.
 SCF GIAO Magnetic shielding tensor (ppm):
  1  C    Isotropic =    99.1014   Anisotropy =   127.4151
   XX=    56.6265   YX=     0.0000   ZX=     0.0000
   XY=     0.0000   YY=    56.6330   ZY=     0.0000
   XZ=     0.0000   YZ=     0.0000   ZZ=   184.0448
   Eigenvalues:    56.6265    56.6330   184.0448
  2  H    Isotropic =    27.4174   Anisotropy =     0.9665
   XX=    27.9369   YX=     0.0000   ZX=     0.0000
   XY=     0.0000   YY=    26.2536   ZY=     0.0001
   XZ=     0.0000   YZ=    -0.0001   ZZ=    28.0617
   Eigenvalues:    26.2536    27.9369    28.0617
  3  H    Isotropic =    27.4171   Anisotropy =     0.9666
   XX=    26.6740   YX=    -0.7291   ZX=     0.0000
   XY=    -0.7288   YY=    27.5158   ZY=     0.0000
   XZ=     0.0001   YZ=     0.0001   ZZ=    28.0615
   Eigenvalues:    26.2531    27.9366    28.0615
  4  H    Isotropic =    27.4171   Anisotropy =     0.9666
   XX=    26.6740   YX=     0.7291   ZX=     0.0000
   XY=     0.7288   YY=    27.5158   ZY=     0.0000
   XZ=    -0.0001   YZ=     0.0001   ZZ=    28.0615
   Eigenvalues:    26.2531    27.9366    28.0615
 g value of the free electron [g_e]: 0.20023193D+01
 relativistic mass correction [g_RMC]:-0.12699568D-03
 diamagnetic correction to g tensor [g_DC]:
   XX= 0.71931967D-04   YX=-0.21175824D-21   ZX=-0.11955345D-24
   XY=-0.21175824D-21   YY= 0.71931967D-04   ZY= 0.19387046D-25
   XZ= 0.61392311D-25   YZ=-0.56545550D-25   ZZ= 0.34036974D-04
 orbital Zeeman and spin-orbit coupling contribution to g tensor [g_OZ/SOC]:
   XX= 0.65602058D-03   YX=-0.14534976D-12   ZX=-0.13457893D-11
   XY=-0.14535931D-12   YY= 0.65603904D-03   ZY= 0.26862737D-12
   XZ=-0.46902977D-11   YZ=-0.26242897D-11   ZZ= 0.19487149D-05
 g tensor [g = g_e + g_RMC + g_DC + g_OZ/SOC]:
   XX= 0.20029203D+01   YX=-0.14534976D-12   ZX=-0.13457893D-11
   XY=-0.14535931D-12   YY= 0.20029203D+01   ZY= 0.26862737D-12
   XZ=-0.46902977D-11   YZ=-0.26242897D-11   ZZ= 0.20022283D+01
 g shifts relative to the free electron (ppm):
   xx=          -91.0   yy=          601.0   zz=          601.0
 End of Minotr Frequency-dependent properties file   721 does not exist.
 Leave Link 1002 at Mon May 18 15:22:04 2009, MaxMem=   13107200 cpu:       2.0
 (Enter C:\G03W\l601.exe)
 Copying SCF densities to generalized density rwf, ISCF=1 IROHF=0.

 **********************************************************************

            Population analysis using the SCF density.

 **********************************************************************

 Orbital symmetries:
 Alpha Orbitals:
       Occupied  (A1) (A1) (E) (E) (A1)
       Virtual   (A1) (E) (E) (A1) (E) (E) (A1) (A1) (A1) (E) (E)
                 (E) (E) (E) (E) (A2) (A1) (A1) (E) (E) (E) (E)
                 (E) (E) (A1) (E) (E) (A1) (A1) (A1) (E) (E) (A1)
 Beta  Orbitals:
       Occupied  (A1) (A1) (E) (E)
       Virtual   (A1) (A1) (E) (E) (A1) (E) (E) (A1) (A1) (E) (E)
                 (A1) (E) (E) (E) (E) (A2) (A1) (A1) (E) (E) (E)
                 (E) (E) (E) (A1) (E) (E) (A1) (A1) (A1) (E) (E)
                 (A1)
 The electronic state is 2-A1.
 Alpha  occ. eigenvalues --  -10.19747  -0.68618  -0.42152  -0.42152  -0.23207
 Alpha virt. eigenvalues --    0.02568   0.19628   0.19628   0.20516   0.26905
 Alpha virt. eigenvalues --    0.26905   0.30995   0.65436   0.84363   0.85839
 Alpha virt. eigenvalues --    0.85839   0.96144   0.96144   1.35065   1.35065
 Alpha virt. eigenvalues --    1.36084   1.43623   1.58565   1.84366   1.84366
 Alpha virt. eigenvalues --    2.17688   2.17688   2.43447   2.43447   2.47292
 Alpha virt. eigenvalues --    5.00118   5.00118   5.09977   5.51226  29.74341
 Alpha virt. eigenvalues --   36.61790  36.61790  36.80986
  Beta  occ. eigenvalues --  -10.18355  -0.64648  -0.41138  -0.41138
  Beta virt. eigenvalues --   -0.06907   0.03141   0.19816   0.19816   0.22678
  Beta virt. eigenvalues --    0.27718   0.27718   0.37265   0.68144   0.86024
  Beta virt. eigenvalues --    0.86024   0.86101   0.99828   0.99828   1.35446
  Beta virt. eigenvalues --    1.35446   1.35706   1.49828   1.59869   1.87313
  Beta virt. eigenvalues --    1.87313   2.17985   2.17985   2.44294   2.44294
  Beta virt. eigenvalues --    2.47798   4.99638   4.99638   5.11266   5.53200
  Beta virt. eigenvalues --   29.76434  36.60591  36.60591  36.79798
          Condensed to atoms (all electrons):
              1          2          3          4
     1  C    5.342113   0.402717   0.402717   0.402717
     2  H    0.402717   0.448258  -0.017198  -0.017198
     3  H    0.402717  -0.017198   0.448258  -0.017198
     4  H    0.402717  -0.017198  -0.017198   0.448258
 Mulliken atomic charges:
              1
     1  C   -0.550264
     2  H    0.183421
     3  H    0.183421
     4  H    0.183421
 Sum of Mulliken charges=   0.00000
 Atomic charges with hydrogens summed into heavy atoms:
              1
     1  C    0.000000
     2  H    0.000000
     3  H    0.000000
     4  H    0.000000
 Sum of Mulliken charges=   0.00000
          Atomic-Atomic Spin Densities.
              1          2          3          4
     1  C    1.115579  -0.002328  -0.002328  -0.002328
     2  H   -0.002328  -0.032789  -0.000541  -0.000541
     3  H   -0.002328  -0.000541  -0.032789  -0.000541
     4  H   -0.002328  -0.000541  -0.000541  -0.032789
 Mulliken atomic spin densities:
              1
     1  C    1.108596
     2  H   -0.036199
     3  H   -0.036199
     4  H   -0.036199
 Sum of Mulliken spin densities=   1.00000
 Electronic spatial extent (au):  <R**2>=    29.6770
 Charge=     0.0000 electrons
 Dipole moment (field-independent basis, Debye):
    X=     0.0000    Y=     0.0000    Z=     0.0000  Tot=     0.0000
 Quadrupole moment (field-independent basis, Debye-Ang):
   XX=    -7.0033   YY=    -7.0033   ZZ=    -9.0246
   XY=     0.0000   XZ=     0.0000   YZ=     0.0000
 Traceless Quadrupole moment (field-independent basis, Debye-Ang):
   XX=     0.6738   YY=     0.6738   ZZ=    -1.3475
   XY=     0.0000   XZ=     0.0000   YZ=     0.0000
 Octapole moment (field-independent basis, Debye-Ang**2):
  XXX=     0.0000  YYY=     1.0166  ZZZ=    -0.0001  XYY=     0.0000
  XXY=    -1.0166  XXZ=     0.0000  XZZ=     0.0000  YZZ=     0.0000
  YYZ=     0.0000  XYZ=     0.0000
 Hexadecapole moment (field-independent basis, Debye-Ang**3):
 XXXX=   -13.9115 YYYY=   -13.9115 ZZZZ=   -10.7707 XXXY=     0.0000
 XXXZ=     0.0000 YYYX=     0.0000 YYYZ=     0.0000 ZZZX=     0.0000
 ZZZY=     0.0000 XXYY=    -4.6372 XXZZ=    -4.5362 YYZZ=    -4.5362
 XXYZ=     0.0000 YYXZ=     0.0000 ZZXY=     0.0000
 N-N= 9.645888584167D+00 E-N=-1.111259184029D+02  KE= 3.952542220982D+01
                          Isotropic Fermi Contact Couplings
        Atom                 a.u.       MegaHertz       Gauss      10(-4) cm-1
     1  C(13)              0.07610      85.54716      30.52535      28.53546
     2  H(1)              -0.01482     -66.22146     -23.62946     -22.08910
     3  H(1)              -0.01482     -66.22146     -23.62946     -22.08910
     4  H(1)              -0.01482     -66.22146     -23.62946     -22.08910
 --------------------------------------------------------
       Center         ----  Spin Dipole Couplings  ----
                      3XX-RR        3YY-RR        3ZZ-RR
 --------------------------------------------------------
     1   Atom       -0.553954     -0.553954      1.107908
     2   Atom       -0.074916      0.076726     -0.001810
     3   Atom        0.038816     -0.037005     -0.001810
     4   Atom        0.038816     -0.037005     -0.001810
 --------------------------------------------------------
                        XY            XZ            YZ
 --------------------------------------------------------
     1   Atom        0.000000      0.000000      0.000000
     2   Atom        0.000000      0.000000     -0.000001
     3   Atom        0.065663      0.000001      0.000001
     4   Atom       -0.065663     -0.000001      0.000001
 --------------------------------------------------------


 ---------------------------------------------------------------------------------
              Anisotropic Spin Dipole Couplings in Principal Axis System
 ---------------------------------------------------------------------------------

       Atom             a.u.   MegaHertz   Gauss  10(-4) cm-1        Axes

              Baa    -0.5540   -74.335   -26.525   -24.796 -0.2607  0.9654  0.0000
     1 C(13)  Bbb    -0.5540   -74.335   -26.525   -24.796  0.9654  0.2607  0.0000
              Bcc     1.1079   148.671    53.049    49.591  0.0000  0.0000  1.0000
 
              Baa    -0.0749   -39.972   -14.263   -13.333  1.0000  0.0000  0.0000
     2 H(1)   Bbb    -0.0018    -0.966    -0.345    -0.322  0.0000  0.0000  1.0000
              Bcc     0.0767    40.937    14.607    13.655  0.0000  1.0000  0.0000
 
              Baa    -0.0749   -39.972   -14.263   -13.333 -0.5000  0.8660  0.0000
     3 H(1)   Bbb    -0.0018    -0.966    -0.345    -0.322  0.0000  0.0000  1.0000
              Bcc     0.0767    40.937    14.607    13.655  0.8660  0.5000  0.0000
 
              Baa    -0.0749   -39.972   -14.263   -13.333  0.5000  0.8660  0.0000
     4 H(1)   Bbb    -0.0018    -0.966    -0.345    -0.322  0.0000  0.0000  1.0000
              Bcc     0.0767    40.937    14.607    13.655  0.8660 -0.5000  0.0000
 

 ---------------------------------------------------------------------------------

 Calculating spin-rotation constants.
 Leave Link  601 at Mon May 18 15:22:05 2009, MaxMem=   13107200 cpu:       1.0
 (Enter C:\G03W\l9999.exe)
 1|1|UNPC-UNK|SP|UB3LYP|EPR-II|C1H3(2)|PCUSER|18-May-2009|0||#P NMR=GIA
 O UB3LYP/EPR-II GUESS=MIX GEOM=CONNECTIVITY SCF=TIGHT||Methyl radical.
 ||0,2|C,0,0.,0.,0.000005|H,0,0.,1.082508,-0.00001|H,0,-0.93748,-0.5412
 54,-0.00001|H,0,0.93748,-0.541254,-0.00001||Version=IA32W-G03RevC.02|S
 tate=2-A1|HF=-39.8505912|S2=0.753376|S2-1=0.|S2A=0.750005|RMSD=1.408e-
 009|Dipole=0.,0.,-0.0000143|PG=C03V [C3(C1),3SGV(H1)]||@


 I take a simple view of life: keep your eyes open and get on with it.
 -- Laurence Olivier
 Job cpu time:  0 days  0 hours  0 minutes  9.0 seconds.
 File lengths (MBytes):  RWF=     11 Int=      0 D2E=      0 Chk=      7 Scr=      1
 Normal termination of Gaussian 03 at Mon May 18 15:22:05 2009.
