 Entering Link 1 = X:\G09W\l1.exe PID=      8928.
  
 Copyright (c) 1988,1990,1992,1993,1995,1998,2003,2009,2011,
            Gaussian, Inc.  All Rights Reserved.
  
 This is part of the Gaussian(R) 09 program.  It is based on
 the Gaussian(R) 03 system (copyright 2003, Gaussian, Inc.),
 the Gaussian(R) 98 system (copyright 1998, Gaussian, Inc.),
 the Gaussian(R) 94 system (copyright 1995, Gaussian, Inc.),
 the Gaussian 92(TM) system (copyright 1992, Gaussian, Inc.),
 the Gaussian 90(TM) system (copyright 1990, Gaussian, Inc.),
 the Gaussian 88(TM) system (copyright 1988, Gaussian, Inc.),
 the Gaussian 86(TM) system (copyright 1986, Carnegie Mellon
 University), and the Gaussian 82(TM) system (copyright 1983,
 Carnegie Mellon University). Gaussian is a federally registered
 trademark of Gaussian, Inc.
  
 This software contains proprietary and confidential information,
 including trade secrets, belonging to Gaussian, Inc.
  
 This software is provided under written license and may be
 used, copied, transmitted, or stored only in accord with that
 written license.
  
 The following legend is applicable only to US Government
 contracts under FAR:
  
                    RESTRICTED RIGHTS LEGEND
  
 Use, reproduction and disclosure by the US Government is
 subject to restrictions as set forth in subparagraphs (a)
 and (c) of the Commercial Computer Software - Restricted
 Rights clause in FAR 52.227-19.
  
 Gaussian, Inc.
 340 Quinnipiac St., Bldg. 40, Wallingford CT 06492
  
  
 ---------------------------------------------------------------
 Warning -- This program may not be used in any manner that
 competes with the business of Gaussian, Inc. or will provide
 assistance to any competitor of Gaussian, Inc.  The licensee
 of this program is prohibited from giving any competitor of
 Gaussian, Inc. access to this program.  By using this program,
 the user acknowledges that Gaussian, Inc. is engaged in the
 business of creating and licensing software in the field of
 computational chemistry and represents and warrants to the
 licensee that it is not a competitor of Gaussian, Inc. and that
 it will not use this program in any manner prohibited above.
 ---------------------------------------------------------------
  

 Cite this work as:
 Gaussian 09, Revision C.01,
 M. J. Frisch, G. W. Trucks, H. B. Schlegel, G. E. Scuseria, 
 M. A. Robb, J. R. Cheeseman, G. Scalmani, V. Barone, B. Mennucci, 
 G. A. Petersson, H. Nakatsuji, M. Caricato, X. Li, H. P. Hratchian, 
 A. F. Izmaylov, J. Bloino, G. Zheng, J. L. Sonnenberg, M. Hada, 
 M. Ehara, K. Toyota, R. Fukuda, J. Hasegawa, M. Ishida, T. Nakajima, 
 Y. Honda, O. Kitao, H. Nakai, T. Vreven, J. A. Montgomery, Jr., 
 J. E. Peralta, F. Ogliaro, M. Bearpark, J. J. Heyd, E. Brothers, 
 K. N. Kudin, V. N. Staroverov, T. Keith, R. Kobayashi, J. Normand, 
 K. Raghavachari, A. Rendell, J. C. Burant, S. S. Iyengar, J. Tomasi, 
 M. Cossi, N. Rega, J. M. Millam, M. Klene, J. E. Knox, J. B. Cross, 
 V. Bakken, C. Adamo, J. Jaramillo, R. Gomperts, R. E. Stratmann, 
 O. Yazyev, A. J. Austin, R. Cammi, C. Pomelli, J. W. Ochterski, 
 R. L. Martin, K. Morokuma, V. G. Zakrzewski, G. A. Voth, 
 P. Salvador, J. J. Dannenberg, S. Dapprich, A. D. Daniels, 
 O. Farkas, J. B. Foresman, J. V. Ortiz, J. Cioslowski, 
 and D. J. Fox, Gaussian, Inc., Wallingford CT, 2010.
 
 ******************************************
 Gaussian 09:  EM64W-G09RevC.01 23-Sep-2011
                19-Mar-2013 
 ******************************************
 %NProcShared=4
 Will use up to    4 processors via shared memory.
 %Mem=4GB
 %Chk=methylaziridine.chk
 ----------------------------------------------------------------------
 #p opt=tight m06/cc-pvdz scf=tight integral=(grid=ultrafine) output=pi
 ckett
 ----------------------------------------------------------------------
 1/7=10,14=-1,18=20,19=15,26=3,38=1/1,3;
 2/9=110,12=2,17=6,18=5,40=1/2;
 3/5=16,11=2,16=1,25=1,30=1,71=1,74=-54,75=-5/1,2,3;
 4//1;
 5/5=2,32=2,38=5/2;
 6/7=2,8=2,9=2,10=2,28=1/1;
 7//1,2,3,16;
 1/7=10,14=-1,18=20,19=15/3(2);
 2/9=110/2;
 99/10=1024/99;
 2/9=110/2;
 3/5=16,11=2,16=1,25=1,30=1,71=1,74=-54,75=-5/1,2,3;
 4/5=5,16=3/1;
 5/5=2,32=2,38=5/2;
 7//1,2,3,16;
 1/7=10,14=-1,18=20,19=15/3(-5);
 2/9=110/2;
 6/7=2,8=2,9=2,10=2,19=2,28=1/1;
 99/9=1,10=1024/99;
 Leave Link    1 at Tue Mar 19 09:51:34 2013, MaxMem=  536870912 cpu:       0.0
 (Enter X:\G09W\l101.exe)
 ------------------------
 Methylaziridine geometry
 ------------------------
 Charge =  0 Multiplicity = 1
 Symbolic Z-Matrix:
 C                     0.37512   0.1377    0. 
 C                     1.12565   1.43768   0. 
 H                    -0.16148  -0.17217  -0.91386 
 H                    -0.16148  -0.17217   0.91386 
 H                     1.12543   2.0572   -0.91394 
 N                     1.87623   0.1377    0. 
 H                     2.37643  -0.15063   0.8165 
 C                     1.12534   2.30177   1.27473 
 H                     2.00987   2.9034    1.29801 
 H                     0.26299   2.93522   1.27602 
 H                     1.10294   1.66706   2.13586 
 
 NAtoms=     11 NQM=        0 NQMF=       0 NMMI=     11 NMMIF=      0
                NMic=       0 NMicF=      0.
                    Isotopes and Nuclear Properties:
 (Nuclear quadrupole moments (NQMom) in fm**2, nuclear magnetic moments (NMagM)
  in nuclear magnetons)

  Atom         1           2           3           4           5           6           7           8           9          10
 IAtWgt=          12          12           1           1           1          14           1          12           1           1
 AtmWgt=  12.0000000  12.0000000   1.0078250   1.0078250   1.0078250  14.0030740   1.0078250  12.0000000   1.0078250   1.0078250
 NucSpn=           0           0           1           1           1           2           1           0           1           1
 AtZEff=   0.0000000   0.0000000   0.0000000   0.0000000   0.0000000   0.0000000   0.0000000   0.0000000   0.0000000   0.0000000
 NQMom=    0.0000000   0.0000000   0.0000000   0.0000000   0.0000000   2.0440000   0.0000000   0.0000000   0.0000000   0.0000000
 NMagM=    0.0000000   0.0000000   2.7928460   2.7928460   2.7928460   0.4037610   2.7928460   0.0000000   2.7928460   2.7928460

  Atom        11
 IAtWgt=           1
 AtmWgt=   1.0078250
 NucSpn=           1
 AtZEff=   0.0000000
 NQMom=    0.0000000
 NMagM=    2.7928460
 Leave Link  101 at Tue Mar 19 09:51:35 2013, MaxMem=  536870912 cpu:       0.0
 (Enter X:\G09W\l103.exe)

 GradGradGradGradGradGradGradGradGradGradGradGradGradGradGradGradGradGrad
 Berny optimization.
 Initialization pass.
                           ----------------------------
                           !    Initial Parameters    !
                           ! (Angstroms and Degrees)  !
 --------------------------                            --------------------------
 ! Name  Definition              Value          Derivative Info.                !
 --------------------------------------------------------------------------------
 ! R1    R(1,2)                  1.5011         estimate D2E/DX2                !
 ! R2    R(1,3)                  1.1041         estimate D2E/DX2                !
 ! R3    R(1,4)                  1.1041         estimate D2E/DX2                !
 ! R4    R(1,6)                  1.5011         estimate D2E/DX2                !
 ! R5    R(2,5)                  1.1041         estimate D2E/DX2                !
 ! R6    R(2,6)                  1.5011         estimate D2E/DX2                !
 ! R7    R(2,8)                  1.54           estimate D2E/DX2                !
 ! R8    R(6,7)                  1.0            estimate D2E/DX2                !
 ! R9    R(8,9)                  1.07           estimate D2E/DX2                !
 ! R10   R(8,10)                 1.07           estimate D2E/DX2                !
 ! R11   R(8,11)                 1.07           estimate D2E/DX2                !
 ! A1    A(2,1,3)              119.081          estimate D2E/DX2                !
 ! A2    A(2,1,4)              119.081          estimate D2E/DX2                !
 ! A3    A(3,1,4)              111.7214         estimate D2E/DX2                !
 ! A4    A(3,1,6)              119.0775         estimate D2E/DX2                !
 ! A5    A(4,1,6)              119.0775         estimate D2E/DX2                !
 ! A6    A(1,2,5)              119.0667         estimate D2E/DX2                !
 ! A7    A(1,2,8)              119.0667         estimate D2E/DX2                !
 ! A8    A(5,2,6)              119.0793         estimate D2E/DX2                !
 ! A9    A(5,2,8)              111.7363         estimate D2E/DX2                !
 ! A10   A(6,2,8)              119.0793         estimate D2E/DX2                !
 ! A11   A(1,6,7)              120.013          estimate D2E/DX2                !
 ! A12   A(2,6,7)              119.9875         estimate D2E/DX2                !
 ! A13   A(2,8,9)              109.4712         estimate D2E/DX2                !
 ! A14   A(2,8,10)             109.4712         estimate D2E/DX2                !
 ! A15   A(2,8,11)             109.4712         estimate D2E/DX2                !
 ! A16   A(9,8,10)             109.4713         estimate D2E/DX2                !
 ! A17   A(9,8,11)             109.4712         estimate D2E/DX2                !
 ! A18   A(10,8,11)            109.4712         estimate D2E/DX2                !
 ! D1    D(3,1,2,5)              0.0086         estimate D2E/DX2                !
 ! D2    D(3,1,2,8)            142.541          estimate D2E/DX2                !
 ! D3    D(4,1,2,5)           -142.541          estimate D2E/DX2                !
 ! D4    D(4,1,2,8)             -0.0086         estimate D2E/DX2                !
 ! D5    D(3,1,6,7)           -141.8189         estimate D2E/DX2                !
 ! D6    D(4,1,6,7)              0.7191         estimate D2E/DX2                !
 ! D7    D(5,2,6,7)            141.7954         estimate D2E/DX2                !
 ! D8    D(8,2,6,7)             -0.7786         estimate D2E/DX2                !
 ! D9    D(1,2,8,9)            153.6321         estimate D2E/DX2                !
 ! D10   D(1,2,8,10)           -86.3679         estimate D2E/DX2                !
 ! D11   D(1,2,8,11)            33.6321         estimate D2E/DX2                !
 ! D12   D(5,2,8,9)            -61.2854         estimate D2E/DX2                !
 ! D13   D(5,2,8,10)            58.7146         estimate D2E/DX2                !
 ! D14   D(5,2,8,11)           178.7146         estimate D2E/DX2                !
 ! D15   D(6,2,8,9)             83.8398         estimate D2E/DX2                !
 ! D16   D(6,2,8,10)          -156.1602         estimate D2E/DX2                !
 ! D17   D(6,2,8,11)           -36.1602         estimate D2E/DX2                !
 --------------------------------------------------------------------------------
 Trust Radius=3.00D-01 FncErr=1.00D-07 GrdErr=1.00D-06
 Number of steps in this run=     56 maximum allowed number of steps=    100.
 GradGradGradGradGradGradGradGradGradGradGradGradGradGradGradGradGradGrad

 Leave Link  103 at Tue Mar 19 09:51:35 2013, MaxMem=  536870912 cpu:       0.0
 (Enter X:\G09W\l202.exe)
                          Input orientation:                          
 ---------------------------------------------------------------------
 Center     Atomic      Atomic             Coordinates (Angstroms)
 Number     Number       Type             X           Y           Z
 ---------------------------------------------------------------------
      1          6           0        0.375119    0.137702    0.000000
      2          6           0        1.125649    1.437677    0.000000
      3          1           0       -0.161477   -0.172173   -0.913858
      4          1           0       -0.161477   -0.172173    0.913858
      5          1           0        1.125426    2.057205   -0.913944
      6          7           0        1.876234    0.137702    0.000000
      7          1           0        2.376430   -0.150634    0.816496
      8          6           0        1.125338    2.301770    1.274733
      9          1           0        2.009868    2.903404    1.298011
     10          1           0        0.262993    2.935221    1.276017
     11          1           0        1.102936    1.667060    2.135861
 ---------------------------------------------------------------------
                    Distance matrix (angstroms):
                    1          2          3          4          5
     1  C    0.000000
     2  C    1.501076   0.000000
     3  H    1.104126   2.254650   0.000000
     4  H    1.104126   2.254650   1.827716   0.000000
     5  H    2.254495   1.104133   2.574149   3.157072   0.000000
     6  N    1.501115   1.501104   2.254645   2.254645   2.254661
     7  H    2.180608   2.180333   3.071736   2.539865   3.071480
     8  C    2.621252   1.540000   3.544886   2.811853   2.202298
     9  H    3.465018   2.148263   4.366495   3.784375   2.528050
    10  H    3.076834   2.148263   3.825131   3.157092   2.512097
    11  H    2.725905   2.148263   3.779194   2.544565   3.074740
                    6          7          8          9         10
     6  N    0.000000
     7  H    1.000000   0.000000
     8  C    2.621446   2.790967   0.000000
     9  H    3.058071   3.113418   1.070000   0.000000
    10  H    3.472301   3.768325   1.070000   1.747303   0.000000
    11  H    2.738399   2.581961   1.070000   1.747303   1.747303
                   11
    11  H    0.000000
 Stoichiometry    C3H7N
 Framework group  C1[X(C3H7N)]
 Deg. of freedom    27
 Full point group                 C1      NOp   1
 Largest Abelian subgroup         C1      NOp   1
 Largest concise Abelian subgroup C1      NOp   1
                         Standard orientation:                         
 ---------------------------------------------------------------------
 Center     Atomic      Atomic             Coordinates (Angstroms)
 Number     Number       Type             X           Y           Z
 ---------------------------------------------------------------------
      1          6           0       -1.011960   -0.665109   -0.178756
      2          6           0        0.164817   -0.053440    0.524299
      3          1           0       -1.749500   -1.239019    0.409254
      4          1           0       -0.872003   -1.092138   -1.187296
      5          1           0        0.268549   -0.190259    1.615000
      6          7           0       -0.935231    0.823306    0.000349
      7          1           0       -0.770160    1.414278   -0.789274
      8          6           0        1.533512   -0.039386   -0.181448
      9          1           0        2.116764    0.778205    0.187689
     10          1           0        2.044776   -0.958902    0.013489
     11          1           0        1.389972    0.072302   -1.235877
 ---------------------------------------------------------------------
 Rotational constants (GHZ):     15.9975548      6.4222375      5.6542773
 Leave Link  202 at Tue Mar 19 09:51:35 2013, MaxMem=  536870912 cpu:       0.0
 (Enter X:\G09W\l301.exe)
 Standard basis: CC-pVDZ (5D, 7F)
 Ernie: Thresh=  0.10000D-02 Tol=  0.10000D-05 Strict=F.
 Ernie:  8 primitive shells out of 123 were deleted.
 There are    91 symmetry adapted basis functions of A   symmetry.
 Integral buffers will be    131072 words long.
 Raffenetti 2 integral format.
 Two-electron integral symmetry is turned on.
    91 basis functions,   181 primitive gaussians,    95 cartesian basis functions
    16 alpha electrons       16 beta electrons
       nuclear repulsion energy       123.6470309089 Hartrees.
 IExCor= 4235 DFT=T Ex+Corr=M06 ExCW=0 ScaHFX=  0.270000
 ScaDFX=  1.000000  1.000000  1.000000  1.000000 ScalE2=  1.000000  1.000000
 IRadAn=      5 IRanWt=     -1 IRanGd=            0 ICorTp=0
 NAtoms=   11 NActive=   11 NUniq=   11 SFac= 1.00D+00 NAtFMM=   60 NAOKFM=F Big=F
 Leave Link  301 at Tue Mar 19 09:51:36 2013, MaxMem=  536870912 cpu:       0.0
 (Enter X:\G09W\l302.exe)
 NPDir=0 NMtPBC=     1 NCelOv=     1 NCel=       1 NClECP=     1 NCelD=      1
         NCelK=      1 NCelE2=     1 NClLst=     1 CellRange=     0.0.
 One-electron integrals computed using PRISM.
 NBasis=    91 RedAO= T  NBF=    91
 NBsUse=    91 1.00D-06 NBFU=    91
 Precomputing XC quadrature grid using
 IXCGrd= 2 IRadAn=           5 IRanWt=          -1 IRanGd=           0 AccXCQ= 0.00D+00.
 NRdTot=     904 NPtTot=      241920 NUsed=      248404 NTot=      248436
 NSgBfM=    95    95    95    95    95 NAtAll=    11    11.
 Leave Link  302 at Tue Mar 19 09:51:37 2013, MaxMem=  536870912 cpu:       1.0
 (Enter X:\G09W\l303.exe)
 DipDrv:  MaxL=1.
 Leave Link  303 at Tue Mar 19 09:51:37 2013, MaxMem=  536870912 cpu:       0.0
 (Enter X:\G09W\l401.exe)
 Harris functional with IExCor= 1009 diagonalized for initial guess.
 ExpMin= 1.22D-01 ExpMax= 9.05D+03 ExpMxC= 3.09D+02 IAcc=3 IRadAn=         5 AccDes= 0.00D+00
 HarFok:  IExCor= 1009 AccDes= 0.00D+00 IRadAn=         5 IDoV= 1
 ScaDFX=  1.000000  1.000000  1.000000  1.000000
 FoFCou: FMM=F IPFlag=           0 FMFlag=      100000 FMFlg1=           0
         NFxFlg=           0 DoJE=T BraDBF=F KetDBF=T FulRan=T
         Omega=  0.000000  0.000000  1.000000  0.000000  0.000000 ICntrl=     500 IOpCl=  0
         NMat0=    1 NMatS0=    1 NMatT0=    0 NMatD0=    1 NMtDS0=    0 NMtDT0=    0
         I1Cent=           4 NGrid=           0.
 Petite list used in FoFCou.
 Harris En= -173.085982752911    
 Initial guess orbital symmetries:
       Occupied  (A) (A) (A) (A) (A) (A) (A) (A) (A) (A) (A) (A)
                 (A) (A) (A) (A)
       Virtual   (A) (A) (A) (A) (A) (A) (A) (A) (A) (A) (A) (A)
                 (A) (A) (A) (A) (A) (A) (A) (A) (A) (A) (A) (A)
                 (A) (A) (A) (A) (A) (A) (A) (A) (A) (A) (A) (A)
                 (A) (A) (A) (A) (A) (A) (A) (A) (A) (A) (A) (A)
                 (A) (A) (A) (A) (A) (A) (A) (A) (A) (A) (A) (A)
                 (A) (A) (A) (A) (A) (A) (A) (A) (A) (A) (A) (A)
                 (A) (A) (A)
 The electronic state of the initial guess is 1-A.
 Leave Link  401 at Tue Mar 19 09:51:38 2013, MaxMem=  536870912 cpu:       1.0
 (Enter X:\G09W\l502.exe)
 Closed shell SCF:
 Requested convergence on RMS density matrix=1.00D-08 within 128 cycles.
 Requested convergence on MAX density matrix=1.00D-06.
 Requested convergence on             energy=1.00D-06.
 No special actions if energy rises.
 Using DIIS extrapolation, IDIIS=  1040.
 Integral symmetry usage will be decided dynamically.
       248292 words used for storage of precomputed grid.
 Keep R1 ints in memory in canonical form, NReq=11610975.
 IEnd=      294811 IEndB=      294811 NGot=   536870912 MDV=   526202754
 LenX=   526202754 LenY=   526193288
 Symmetry not used in FoFDir.
 MinBra= 0 MaxBra= 2 Meth= 1.
 IRaf=       0 NMat=   1 IRICut=       1 DoRegI=T DoRafI=F ISym2E= 0 JSym2E=0.
 Integral accuracy reduced to 1.0D-05 until final iterations.

 Cycle   1  Pass 0  IDiag  1:
 E= -172.999931972107    
 DIIS: error= 3.22D-02 at cycle   1 NSaved=   1.
 NSaved= 1 IEnMin= 1 EnMin= -172.999931972107     IErMin= 1 ErrMin= 3.22D-02
 ErrMax= 3.22D-02 EMaxC= 1.00D-01 BMatC= 8.75D-02 BMatP= 8.75D-02
 IDIUse=3 WtCom= 6.78D-01 WtEn= 3.22D-01
 Coeff-Com:  0.100D+01
 Coeff-En:   0.100D+01
 Coeff:      0.100D+01
 Gap=     0.358 Goal=   None    Shift=    0.000
 GapD=    0.358 DampG=1.000 DampE=0.500 DampFc=0.5000 IDamp=-1.
 Damping current iteration by 5.00D-01
 RMSDP=6.70D-03 MaxDP=1.16D-01              OVMax= 1.46D-01

 Cycle   2  Pass 0  IDiag  1:
 E= -173.046714005175     Delta-E=       -0.046782033068 Rises=F Damp=T
 DIIS: error= 3.39D-03 at cycle   2 NSaved=   2.
 NSaved= 2 IEnMin= 2 EnMin= -173.046714005175     IErMin= 2 ErrMin= 3.39D-03
 ErrMax= 3.39D-03 EMaxC= 1.00D-01 BMatC= 2.43D-03 BMatP= 8.75D-02
 IDIUse=3 WtCom= 9.66D-01 WtEn= 3.39D-02
 Coeff-Com:  0.441D-01 0.956D+00
 Coeff-En:   0.551D-01 0.945D+00
 Coeff:      0.445D-01 0.956D+00
 Gap=     0.316 Goal=   None    Shift=    0.000
 RMSDP=8.79D-04 MaxDP=1.05D-02 DE=-4.68D-02 OVMax= 7.31D-02

 Cycle   3  Pass 0  IDiag  1:
 E= -173.099241015136     Delta-E=       -0.052527009961 Rises=F Damp=F
 DIIS: error= 2.32D-03 at cycle   3 NSaved=   3.
 NSaved= 3 IEnMin= 3 EnMin= -173.099241015136     IErMin= 3 ErrMin= 2.32D-03
 ErrMax= 2.32D-03 EMaxC= 1.00D-01 BMatC= 6.61D-04 BMatP= 2.43D-03
 IDIUse=3 WtCom= 9.77D-01 WtEn= 2.32D-02
 Coeff-Com: -0.138D-02 0.313D+00 0.688D+00
 Coeff-En:   0.000D+00 0.000D+00 0.100D+01
 Coeff:     -0.135D-02 0.306D+00 0.695D+00
 Gap=     0.310 Goal=   None    Shift=    0.000
 RMSDP=3.22D-04 MaxDP=5.77D-03 DE=-5.25D-02 OVMax= 1.02D-02

 Cycle   4  Pass 0  IDiag  1:
 E= -173.099664960442     Delta-E=       -0.000423945306 Rises=F Damp=F
 DIIS: error= 1.26D-03 at cycle   4 NSaved=   4.
 NSaved= 4 IEnMin= 4 EnMin= -173.099664960442     IErMin= 4 ErrMin= 1.26D-03
 ErrMax= 1.26D-03 EMaxC= 1.00D-01 BMatC= 2.01D-04 BMatP= 6.61D-04
 IDIUse=3 WtCom= 9.87D-01 WtEn= 1.26D-02
 Coeff-Com: -0.304D-02 0.914D-01 0.377D+00 0.535D+00
 Coeff-En:   0.000D+00 0.000D+00 0.208D+00 0.792D+00
 Coeff:     -0.301D-02 0.902D-01 0.375D+00 0.538D+00
 Gap=     0.313 Goal=   None    Shift=    0.000
 RMSDP=1.36D-04 MaxDP=3.02D-03 DE=-4.24D-04 OVMax= 4.84D-03

 Cycle   5  Pass 0  IDiag  1:
 E= -173.099839747130     Delta-E=       -0.000174786687 Rises=F Damp=F
 DIIS: error= 3.16D-04 at cycle   5 NSaved=   5.
 NSaved= 5 IEnMin= 5 EnMin= -173.099839747130     IErMin= 5 ErrMin= 3.16D-04
 ErrMax= 3.16D-04 EMaxC= 1.00D-01 BMatC= 9.37D-06 BMatP= 2.01D-04
 IDIUse=3 WtCom= 9.97D-01 WtEn= 3.16D-03
 Coeff-Com: -0.125D-02 0.377D-02 0.840D-01 0.225D+00 0.689D+00
 Coeff-En:   0.000D+00 0.000D+00 0.000D+00 0.000D+00 0.100D+01
 Coeff:     -0.125D-02 0.376D-02 0.837D-01 0.224D+00 0.690D+00
 Gap=     0.313 Goal=   None    Shift=    0.000
 RMSDP=3.16D-05 MaxDP=6.69D-04 DE=-1.75D-04 OVMax= 1.01D-03

 Cycle   6  Pass 0  IDiag  1:
 E= -173.099847015074     Delta-E=       -0.000007267944 Rises=F Damp=F
 DIIS: error= 8.66D-05 at cycle   6 NSaved=   6.
 NSaved= 6 IEnMin= 6 EnMin= -173.099847015074     IErMin= 6 ErrMin= 8.66D-05
 ErrMax= 8.66D-05 EMaxC= 1.00D-01 BMatC= 1.05D-06 BMatP= 9.37D-06
 IDIUse=1 WtCom= 1.00D+00 WtEn= 0.00D+00
 Coeff-Com: -0.348D-03-0.319D-02 0.176D-01 0.749D-01 0.340D+00 0.571D+00
 Coeff:     -0.348D-03-0.319D-02 0.176D-01 0.749D-01 0.340D+00 0.571D+00
 Gap=     0.313 Goal=   None    Shift=    0.000
 RMSDP=9.68D-06 MaxDP=2.75D-04 DE=-7.27D-06 OVMax= 2.56D-04

 Initial convergence to 1.0D-05 achieved.  Increase integral accuracy.
 Cycle   7  Pass 1  IDiag  1:
 E= -173.099832613426     Delta-E=        0.000014401648 Rises=F Damp=F
 DIIS: error= 2.16D-05 at cycle   1 NSaved=   1.
 NSaved= 1 IEnMin= 1 EnMin= -173.099832613426     IErMin= 1 ErrMin= 2.16D-05
 ErrMax= 2.16D-05 EMaxC= 1.00D-01 BMatC= 1.28D-07 BMatP= 1.28D-07
 IDIUse=1 WtCom= 1.00D+00 WtEn= 0.00D+00
 Coeff-Com:  0.100D+01
 Coeff:      0.100D+01
 Gap=     0.313 Goal=   None    Shift=    0.000
 RMSDP=9.68D-06 MaxDP=2.75D-04 DE= 1.44D-05 OVMax= 1.28D-04

 Cycle   8  Pass 1  IDiag  1:
 E= -173.099832678120     Delta-E=       -0.000000064694 Rises=F Damp=F
 DIIS: error= 1.88D-05 at cycle   2 NSaved=   2.
 NSaved= 2 IEnMin= 2 EnMin= -173.099832678120     IErMin= 2 ErrMin= 1.88D-05
 ErrMax= 1.88D-05 EMaxC= 1.00D-01 BMatC= 6.45D-08 BMatP= 1.28D-07
 IDIUse=1 WtCom= 1.00D+00 WtEn= 0.00D+00
 Coeff-Com:  0.393D+00 0.607D+00
 Coeff:      0.393D+00 0.607D+00
 Gap=     0.313 Goal=   None    Shift=    0.000
 RMSDP=3.02D-06 MaxDP=8.79D-05 DE=-6.47D-08 OVMax= 9.03D-05

 Cycle   9  Pass 1  IDiag  1:
 E= -173.099832728822     Delta-E=       -0.000000050703 Rises=F Damp=F
 DIIS: error= 8.79D-06 at cycle   3 NSaved=   3.
 NSaved= 3 IEnMin= 3 EnMin= -173.099832728822     IErMin= 3 ErrMin= 8.79D-06
 ErrMax= 8.79D-06 EMaxC= 1.00D-01 BMatC= 1.28D-08 BMatP= 6.45D-08
 IDIUse=1 WtCom= 1.00D+00 WtEn= 0.00D+00
 Coeff-Com:  0.256D-01 0.309D+00 0.665D+00
 Coeff:      0.256D-01 0.309D+00 0.665D+00
 Gap=     0.313 Goal=   None    Shift=    0.000
 RMSDP=1.05D-06 MaxDP=2.82D-05 DE=-5.07D-08 OVMax= 2.88D-05

 Cycle  10  Pass 1  IDiag  1:
 E= -173.099832740115     Delta-E=       -0.000000011293 Rises=F Damp=F
 DIIS: error= 2.39D-06 at cycle   4 NSaved=   4.
 NSaved= 4 IEnMin= 4 EnMin= -173.099832740115     IErMin= 4 ErrMin= 2.39D-06
 ErrMax= 2.39D-06 EMaxC= 1.00D-01 BMatC= 6.84D-10 BMatP= 1.28D-08
 IDIUse=1 WtCom= 1.00D+00 WtEn= 0.00D+00
 Coeff-Com: -0.265D-02 0.136D+00 0.339D+00 0.528D+00
 Coeff:     -0.265D-02 0.136D+00 0.339D+00 0.528D+00
 Gap=     0.313 Goal=   None    Shift=    0.000
 RMSDP=2.71D-07 MaxDP=5.41D-06 DE=-1.13D-08 OVMax= 8.23D-06

 Cycle  11  Pass 1  IDiag  1:
 E= -173.099832740724     Delta-E=       -0.000000000609 Rises=F Damp=F
 DIIS: error= 5.04D-07 at cycle   5 NSaved=   5.
 NSaved= 5 IEnMin= 5 EnMin= -173.099832740724     IErMin= 5 ErrMin= 5.04D-07
 ErrMax= 5.04D-07 EMaxC= 1.00D-01 BMatC= 3.92D-11 BMatP= 6.84D-10
 IDIUse=1 WtCom= 1.00D+00 WtEn= 0.00D+00
 Coeff-Com: -0.396D-02 0.376D-01 0.102D+00 0.245D+00 0.619D+00
 Coeff:     -0.396D-02 0.376D-01 0.102D+00 0.245D+00 0.619D+00
 Gap=     0.313 Goal=   None    Shift=    0.000
 RMSDP=6.16D-08 MaxDP=1.21D-06 DE=-6.09D-10 OVMax= 1.88D-06

 Cycle  12  Pass 1  IDiag  1:
 E= -173.099832740758     Delta-E=       -0.000000000034 Rises=F Damp=F
 DIIS: error= 1.22D-07 at cycle   6 NSaved=   6.
 NSaved= 6 IEnMin= 6 EnMin= -173.099832740758     IErMin= 6 ErrMin= 1.22D-07
 ErrMax= 1.22D-07 EMaxC= 1.00D-01 BMatC= 2.25D-12 BMatP= 3.92D-11
 IDIUse=1 WtCom= 1.00D+00 WtEn= 0.00D+00
 Coeff-Com: -0.134D-02 0.310D-02 0.105D-01 0.501D-01 0.240D+00 0.698D+00
 Coeff:     -0.134D-02 0.310D-02 0.105D-01 0.501D-01 0.240D+00 0.698D+00
 Gap=     0.313 Goal=   None    Shift=    0.000
 RMSDP=1.85D-08 MaxDP=2.47D-07 DE=-3.39D-11 OVMax= 5.18D-07

 Cycle  13  Pass 1  IDiag  1:
 E= -173.099832740762     Delta-E=       -0.000000000004 Rises=F Damp=F
 DIIS: error= 4.87D-08 at cycle   7 NSaved=   7.
 NSaved= 7 IEnMin= 7 EnMin= -173.099832740762     IErMin= 7 ErrMin= 4.87D-08
 ErrMax= 4.87D-08 EMaxC= 1.00D-01 BMatC= 2.43D-13 BMatP= 2.25D-12
 IDIUse=1 WtCom= 1.00D+00 WtEn= 0.00D+00
 Coeff-Com: -0.332D-03-0.813D-03-0.169D-02 0.629D-02 0.589D-01 0.310D+00
 Coeff-Com:  0.628D+00
 Coeff:     -0.332D-03-0.813D-03-0.169D-02 0.629D-02 0.589D-01 0.310D+00
 Coeff:      0.628D+00
 Gap=     0.313 Goal=   None    Shift=    0.000
 RMSDP=5.78D-09 MaxDP=1.13D-07 DE=-4.21D-12 OVMax= 1.30D-07

 SCF Done:  E(RM06) =  -173.099832741     A.U. after   13 cycles
             Convg  =    0.5779D-08             -V/T =  2.0081
 KE= 1.717136764549D+02 PE=-6.488432475968D+02 EE= 1.803827074923D+02
 Leave Link  502 at Tue Mar 19 09:52:01 2013, MaxMem=  536870912 cpu:      23.0
 (Enter X:\G09W\l601.exe)
 Copying SCF densities to generalized density rwf, IOpCl= 0 IROHF=0.

 **********************************************************************

            Population analysis using the SCF density.

 **********************************************************************

 Orbital symmetries:
       Occupied  (A) (A) (A) (A) (A) (A) (A) (A) (A) (A) (A) (A)
                 (A) (A) (A) (A)
       Virtual   (A) (A) (A) (A) (A) (A) (A) (A) (A) (A) (A) (A)
                 (A) (A) (A) (A) (A) (A) (A) (A) (A) (A) (A) (A)
                 (A) (A) (A) (A) (A) (A) (A) (A) (A) (A) (A) (A)
                 (A) (A) (A) (A) (A) (A) (A) (A) (A) (A) (A) (A)
                 (A) (A) (A) (A) (A) (A) (A) (A) (A) (A) (A) (A)
                 (A) (A) (A) (A) (A) (A) (A) (A) (A) (A) (A) (A)
                 (A) (A) (A)
 The electronic state is 1-A.
 Alpha  occ. eigenvalues --  -14.39056 -10.28625 -10.27781 -10.24142  -0.94604
 Alpha  occ. eigenvalues --   -0.74102  -0.66299  -0.58890  -0.49780  -0.47691
 Alpha  occ. eigenvalues --   -0.42848  -0.40629  -0.35922  -0.33700  -0.32935
 Alpha  occ. eigenvalues --   -0.24125
 Alpha virt. eigenvalues --    0.07137   0.08225   0.10675   0.11827   0.12560
 Alpha virt. eigenvalues --    0.14392   0.14674   0.15358   0.20878   0.23438
 Alpha virt. eigenvalues --    0.29383   0.40051   0.42142   0.44908   0.47956
 Alpha virt. eigenvalues --    0.50722   0.52713   0.55057   0.57919   0.60157
 Alpha virt. eigenvalues --    0.61598   0.62520   0.63113   0.65058   0.65585
 Alpha virt. eigenvalues --    0.68550   0.70849   0.81568   0.82292   0.84740
 Alpha virt. eigenvalues --    0.86198   1.04208   1.10084   1.12280   1.17345
 Alpha virt. eigenvalues --    1.18945   1.26295   1.34499   1.38859   1.41521
 Alpha virt. eigenvalues --    1.41644   1.44183   1.47648   1.52031   1.57831
 Alpha virt. eigenvalues --    1.59760   1.60359   1.61819   1.63818   1.71586
 Alpha virt. eigenvalues --    1.73927   1.75608   1.77514   1.80907   1.84204
 Alpha virt. eigenvalues --    1.87690   1.93707   2.00125   2.08197   2.10045
 Alpha virt. eigenvalues --    2.15765   2.19231   2.23515   2.28721   2.31373
 Alpha virt. eigenvalues --    2.35309   2.45564   2.46666   2.47738   2.51193
 Alpha virt. eigenvalues --    2.54281   2.57140   2.63654   2.70407   2.98372
          Condensed to atoms (all electrons):
              1          2          3          4          5          6
     1  C    4.718680   0.315001   0.381915   0.387774  -0.031844   0.283498
     2  C    0.315001   4.805437  -0.018856  -0.015614   0.387268   0.283796
     3  H    0.381915  -0.018856   0.650168  -0.052948  -0.003770  -0.016522
     4  H    0.387774  -0.015614  -0.052948   0.674088   0.002906  -0.024590
     5  H   -0.031844   0.387268  -0.003770   0.002906   0.672347  -0.020047
     6  N    0.283498   0.283796  -0.016522  -0.024590  -0.020047   6.417241
     7  H   -0.022831  -0.030470   0.003593  -0.010020   0.003516   0.360598
     8  C   -0.034985   0.438899   0.002025  -0.002425  -0.044657  -0.043084
     9  H    0.006757  -0.021786  -0.000427   0.000565  -0.007368  -0.003910
    10  H   -0.005494  -0.020136   0.000744  -0.000479  -0.001626   0.005271
    11  H   -0.008018  -0.018367   0.000337   0.001397   0.009181   0.000983
              7          8          9         10         11
     1  C   -0.022831  -0.034985   0.006757  -0.005494  -0.008018
     2  C   -0.030470   0.438899  -0.021786  -0.020136  -0.018367
     3  H    0.003593   0.002025  -0.000427   0.000744   0.000337
     4  H   -0.010020  -0.002425   0.000565  -0.000479   0.001397
     5  H    0.003516  -0.044657  -0.007368  -0.001626   0.009181
     6  N    0.360598  -0.043084  -0.003910   0.005271   0.000983
     7  H    0.590409  -0.006229   0.000818   0.000060   0.003585
     8  C   -0.006229   4.544265   0.392261   0.380064   0.379937
     9  H    0.000818   0.392261   0.649652  -0.030143  -0.033423
    10  H    0.000060   0.380064  -0.030143   0.649821  -0.023811
    11  H    0.003585   0.379937  -0.033423  -0.023811   0.670153
 Mulliken atomic charges:
              1
     1  C    0.009547
     2  C   -0.105173
     3  H    0.053741
     4  H    0.039346
     5  H    0.034095
     6  N   -0.243234
     7  H    0.106971
     8  C   -0.006070
     9  H    0.047002
    10  H    0.045729
    11  H    0.018046
 Sum of Mulliken atomic charges =   0.00000
 Mulliken charges with hydrogens summed into heavy atoms:
              1
     1  C    0.102634
     2  C   -0.071078
     6  N   -0.136263
     8  C    0.104707
 Sum of Mulliken charges with hydrogens summed into heavy atoms =   0.00000
 Electronic spatial extent (au):  <R**2>=            284.8903
 Charge=              0.0000 electrons
 Dipole moment (field-independent basis, Debye):
    X=              1.1351    Y=             -0.6653    Z=             -0.8777  Tot=              1.5816
 Quadrupole moment (field-independent basis, Debye-Ang):
   XX=            -27.1492   YY=            -25.4412   ZZ=            -24.3925
   XY=              1.7421   XZ=              1.3466   YZ=             -1.8194
 Traceless Quadrupole moment (field-independent basis, Debye-Ang):
   XX=             -1.4883   YY=              0.2197   ZZ=              1.2685
   XY=              1.7421   XZ=              1.3466   YZ=             -1.8194
 Octapole moment (field-independent basis, Debye-Ang**2):
  XXX=              2.2249  YYY=              2.6352  ZZZ=             -0.7646  XYY=              0.2023
  XXY=             -2.6976  XXZ=             -0.2269  XZZ=             -0.5782  YZZ=              0.6624
  YYZ=             -2.9545  XYZ=              1.9624
 Hexadecapole moment (field-independent basis, Debye-Ang**3):
 XXXX=           -232.7062 YYYY=            -84.2782 ZZZZ=            -59.5100 XXXY=              4.0332
 XXXZ=              2.3794 YYYX=             -0.3669 YYYZ=             -4.8621 ZZZX=              1.6458
 ZZZY=             -2.1820 XXYY=            -50.9514 XXZZ=            -48.6099 YYZZ=            -23.7026
 XXYZ=             -2.7821 YYXZ=              3.0154 ZZXY=             -0.2426
 N-N= 1.236470309089D+02 E-N=-6.488432442393D+02  KE= 1.717136764549D+02
 No NMR shielding tensors so no spin-rotation constants.
 Leave Link  601 at Tue Mar 19 09:52:02 2013, MaxMem=  536870912 cpu:       0.0
 (Enter X:\G09W\l701.exe)
 Compute integral first derivatives.
 ... and contract with generalized density number  0.
 Leave Link  701 at Tue Mar 19 09:52:02 2013, MaxMem=  536870912 cpu:       0.0
 (Enter X:\G09W\l702.exe)
 L702 exits ... SP integral derivatives will be done elsewhere.
 Leave Link  702 at Tue Mar 19 09:52:02 2013, MaxMem=  536870912 cpu:       0.0
 (Enter X:\G09W\l703.exe)
 Compute integral first derivatives, UseDBF=F ICtDFT=           0.
 Integral derivatives from FoFDir, PRISM(SPDF).
 Calling FoFJK, ICntrl=      2127 FMM=F ISym2X=0 I1Cent= 0 IOpClX= 0 NMat=1 NMatS=1 NMatT=0.
 FoFCou: FMM=F IPFlag=           0 FMFlag=      100000 FMFlg1=         800
         NFxFlg=           0 DoJE=F BraDBF=F KetDBF=F FulRan=T
         Omega=  0.000000  0.000000  1.000000  0.000000  0.000000 ICntrl=    2127 IOpCl=  0
         NMat0=    1 NMatS0=    1 NMatT0=    0 NMatD0=    1 NMtDS0=    0 NMtDT0=    0
         I1Cent=           0 NGrid=           0.
 Symmetry not used in FoFCou.
 Leave Link  703 at Tue Mar 19 09:52:06 2013, MaxMem=  536870912 cpu:       4.0
 (Enter X:\G09W\l716.exe)
 Dipole        = 4.46574505D-01-2.61768478D-01-3.45317825D-01
 ***** Axes restored to original set *****
 -------------------------------------------------------------------
 Center     Atomic                   Forces (Hartrees/Bohr)
 Number     Number              X              Y              Z
 -------------------------------------------------------------------
      1        6           0.024079426    0.008533513    0.008802731
      2        6           0.003389107   -0.018940996    0.032083192
      3        1           0.009887332   -0.003210516    0.001143809
      4        1           0.003490773    0.004704357   -0.000575840
      5        1           0.006774071   -0.009469309   -0.001640292
      6        7          -0.043923378    0.026030728   -0.051655637
      7        1          -0.003438698    0.002481653    0.024427062
      8        6          -0.000060065   -0.026056573   -0.036509291
      9        1           0.017182469    0.013356150    0.002757403
     10        1          -0.016721613    0.014543634    0.002116956
     11        1          -0.000659424   -0.011972640    0.019049908
 -------------------------------------------------------------------
 Cartesian Forces:  Max     0.051655637 RMS     0.018907430
 Leave Link  716 at Tue Mar 19 09:52:06 2013, MaxMem=  536870912 cpu:       0.0
 (Enter X:\G09W\l103.exe)

 GradGradGradGradGradGradGradGradGradGradGradGradGradGradGradGradGradGrad
 Berny optimization.
 Internal  Forces:  Max     0.031860360 RMS     0.011144049
 Search for a local minimum.
 Step number   1 out of a maximum of   56
 All quantities printed in internal units (Hartrees-Bohrs-Radians)
 RMS Force = .11144D-01 SwitMx=.10000D-02 MixMth= 1
 Mixed Optimization -- RFO/linear search
 Second derivative matrix not updated -- first step.
 ITU=  0
     Eigenvalues ---    0.00237   0.01924   0.02340   0.03475   0.03650
     Eigenvalues ---    0.04548   0.05720   0.05720   0.11097   0.11944
     Eigenvalues ---    0.15226   0.16000   0.16000   0.16000   0.16000
     Eigenvalues ---    0.17728   0.26788   0.28519   0.30147   0.32262
     Eigenvalues ---    0.33229   0.33230   0.33230   0.37230   0.37230
     Eigenvalues ---    0.37230   0.47688
 RFO step:  Lambda=-2.06967960D-02 EMin= 2.36824191D-03
 Linear search not attempted -- first point.
 Iteration  1 RMS(Cart)=  0.05760247 RMS(Int)=  0.00225555
 Iteration  2 RMS(Cart)=  0.00240172 RMS(Int)=  0.00088420
 Iteration  3 RMS(Cart)=  0.00000400 RMS(Int)=  0.00088420
 Iteration  4 RMS(Cart)=  0.00000001 RMS(Int)=  0.00088420
 Variable       Old X    -DE/DX   Delta X   Delta X   Delta X     New X
                                 (Linear)    (Quad)   (Total)
    R1        2.83662  -0.01432   0.00000  -0.03737  -0.03862   2.79801
    R2        2.08650  -0.00485   0.00000  -0.01374  -0.01374   2.07275
    R3        2.08650  -0.00349   0.00000  -0.00990  -0.00990   2.07660
    R4        2.83670  -0.02961   0.00000  -0.08934  -0.08885   2.74784
    R5        2.08651  -0.00396   0.00000  -0.01121  -0.01121   2.07530
    R6        2.83668  -0.03186   0.00000  -0.09404  -0.09326   2.74342
    R7        2.91018  -0.01610   0.00000  -0.05263  -0.05263   2.85754
    R8        1.88973   0.01751   0.00000   0.03519   0.03519   1.92491
    R9        2.02201   0.02177   0.00000   0.05540   0.05540   2.07741
   R10        2.02201   0.02209   0.00000   0.05621   0.05621   2.07821
   R11        2.02201   0.02245   0.00000   0.05712   0.05712   2.07913
    A1        2.07836   0.00885   0.00000   0.05349   0.05161   2.12997
    A2        2.07836  -0.00914   0.00000  -0.04227  -0.04075   2.03761
    A3        1.94991   0.00343   0.00000   0.02978   0.02890   1.97881
    A4        2.07829  -0.01099   0.00000  -0.07760  -0.07583   2.00246
    A5        2.07829   0.00823   0.00000   0.02555   0.02528   2.10358
    A6        2.07811   0.00195   0.00000   0.01609   0.01399   2.09209
    A7        2.07811  -0.00501   0.00000  -0.01544  -0.01430   2.06380
    A8        2.07833  -0.01279   0.00000  -0.08396  -0.08344   1.99489
    A9        1.95017   0.00462   0.00000   0.03788   0.03721   1.98738
   A10        2.07833   0.00998   0.00000   0.02739   0.02771   2.10604
   A11        2.09462  -0.01738   0.00000  -0.10142  -0.10344   1.99118
   A12        2.09418  -0.02068   0.00000  -0.11540  -0.11714   1.97704
   A13        1.91063   0.00288   0.00000   0.01590   0.01580   1.92643
   A14        1.91063   0.00297   0.00000   0.01654   0.01643   1.92707
   A15        1.91063   0.00126   0.00000   0.00695   0.00688   1.91752
   A16        1.91063  -0.00291   0.00000  -0.01606  -0.01620   1.89444
   A17        1.91063  -0.00211   0.00000  -0.01185  -0.01191   1.89873
   A18        1.91063  -0.00210   0.00000  -0.01148  -0.01155   1.89909
    D1        0.00015   0.00126   0.00000   0.00913   0.00974   0.00989
    D2        2.48781   0.00547   0.00000   0.08590   0.08692   2.57473
    D3       -2.48781  -0.00515   0.00000  -0.06884  -0.06951  -2.55732
    D4       -0.00015  -0.00094   0.00000   0.00793   0.00766   0.00751
    D5       -2.47521  -0.00166   0.00000   0.00209   0.00255  -2.47266
    D6        0.01255   0.00068   0.00000  -0.02373  -0.02171  -0.00916
    D7        2.47480   0.00339   0.00000   0.01686   0.01571   2.49051
    D8       -0.01359  -0.00124   0.00000   0.03394   0.03242   0.01883
    D9        2.68139  -0.00170   0.00000  -0.03107  -0.03133   2.65005
   D10       -1.50740  -0.00168   0.00000  -0.03087  -0.03109  -1.53849
   D11        0.58699  -0.00166   0.00000  -0.03055  -0.03079   0.55620
   D12       -1.06963   0.00160   0.00000   0.03455   0.03463  -1.03500
   D13        1.02476   0.00162   0.00000   0.03475   0.03487   1.05964
   D14        3.11916   0.00164   0.00000   0.03507   0.03518  -3.12885
   D15        1.46328  -0.00042   0.00000  -0.02407  -0.02395   1.43933
   D16       -2.72551  -0.00040   0.00000  -0.02387  -0.02371  -2.74922
   D17       -0.63112  -0.00038   0.00000  -0.02355  -0.02341  -0.65453
         Item               Value     Threshold  Converged?
 Maximum Force            0.031860     0.000015     NO 
 RMS     Force            0.011144     0.000010     NO 
 Maximum Displacement     0.160170     0.000060     NO 
 RMS     Displacement     0.057883     0.000040     NO 
 Predicted change in Energy=-1.141137D-02
 GradGradGradGradGradGradGradGradGradGradGradGradGradGradGradGradGradGrad

 Leave Link  103 at Tue Mar 19 09:52:06 2013, MaxMem=  536870912 cpu:       0.0
 (Enter X:\G09W\l202.exe)
                          Input orientation:                          
 ---------------------------------------------------------------------
 Center     Atomic      Atomic             Coordinates (Angstroms)
 Number     Number       Type             X           Y           Z
 ---------------------------------------------------------------------
      1          6           0        0.380749    0.154626    0.007721
      2          6           0        1.117319    1.439022   -0.001958
      3          1           0       -0.116602   -0.237673   -0.887730
      4          1           0       -0.127946   -0.116704    0.943224
      5          1           0        1.168570    2.033154   -0.924143
      6          7           0        1.832917    0.177393   -0.063609
      7          1           0        2.295930   -0.065876    0.810478
      8          6           0        1.125038    2.269134    1.261941
      9          1           0        2.039872    2.876352    1.315493
     10          1           0        0.256216    2.943015    1.283558
     11          1           0        1.084972    1.610317    2.142198
 ---------------------------------------------------------------------
                    Distance matrix (angstroms):
                    1          2          3          4          5
     1  C    0.000000
     2  C    1.480642   0.000000
     3  H    1.096855   2.262401   0.000000
     4  H    1.098889   2.205524   1.834980   0.000000
     5  H    2.240067   1.098201   2.609531   3.128882   0.000000
     6  N    1.454097   1.451753   2.156868   2.223778   2.150750
     7  H    2.088290   2.076991   2.955289   2.428040   2.947164
     8  C    2.568692   1.512147   3.528008   2.713628   2.199215
     9  H    3.445395   2.157012   4.381978   3.714351   2.546786
    10  H    3.068938   2.157788   3.869142   3.102465   2.556204
    11  H    2.677864   2.151231   3.746907   2.427202   3.096486
                    6          7          8          9         10
     6  N    0.000000
     7  H    1.018621   0.000000
     8  C    2.575569   2.650864   0.000000
     9  H    3.037949   2.996216   1.099319   0.000000
    10  H    3.456806   3.665741   1.099743   1.785187   0.000000
    11  H    2.734643   2.459577   1.100226   1.788328   1.788905
                   11
    11  H    0.000000
 Stoichiometry    C3H7N
 Framework group  C1[X(C3H7N)]
 Deg. of freedom    27
 Full point group                 C1      NOp   1
 RotChk:  IX=0 Diff= 1.87D-01
 Largest Abelian subgroup         C1      NOp   1
 Largest concise Abelian subgroup C1      NOp   1
                         Standard orientation:                         
 ---------------------------------------------------------------------
 Center     Atomic      Atomic             Coordinates (Angstroms)
 Number     Number       Type             X           Y           Z
 ---------------------------------------------------------------------
      1          6           0       -0.994123   -0.661351   -0.124845
      2          6           0        0.155745    0.013878    0.518717
      3          1           0       -1.809533   -1.105317    0.459183
      4          1           0       -0.792701   -1.191925   -1.065842
      5          1           0        0.212804    0.072168    1.613884
      6          7           0       -0.923299    0.789803   -0.065401
      7          1           0       -0.670217    1.230176   -0.948356
      8          6           0        1.504239   -0.065474   -0.160883
      9          1           0        2.110667    0.817114    0.087682
     10          1           0        2.045902   -0.965199    0.165505
     11          1           0        1.371004   -0.107966   -1.252185
 ---------------------------------------------------------------------
 Rotational constants (GHZ):     16.8226782      6.6062627      5.8762821
 Leave Link  202 at Tue Mar 19 09:52:06 2013, MaxMem=  536870912 cpu:       0.0
 (Enter X:\G09W\l301.exe)
 Standard basis: CC-pVDZ (5D, 7F)
 Ernie: Thresh=  0.10000D-02 Tol=  0.10000D-05 Strict=F.
 Ernie:  8 primitive shells out of 123 were deleted.
 There are    91 symmetry adapted basis functions of A   symmetry.
 Integral buffers will be    131072 words long.
 Raffenetti 2 integral format.
 Two-electron integral symmetry is turned on.
    91 basis functions,   181 primitive gaussians,    95 cartesian basis functions
    16 alpha electrons       16 beta electrons
       nuclear repulsion energy       125.5868311767 Hartrees.
 IExCor= 4235 DFT=T Ex+Corr=M06 ExCW=0 ScaHFX=  0.270000
 ScaDFX=  1.000000  1.000000  1.000000  1.000000 ScalE2=  1.000000  1.000000
 IRadAn=      5 IRanWt=     -1 IRanGd=            0 ICorTp=0
 NAtoms=   11 NActive=   11 NUniq=   11 SFac= 1.00D+00 NAtFMM=   60 NAOKFM=F Big=F
 Leave Link  301 at Tue Mar 19 09:52:06 2013, MaxMem=  536870912 cpu:       0.0
 (Enter X:\G09W\l302.exe)
 NPDir=0 NMtPBC=     1 NCelOv=     1 NCel=       1 NClECP=     1 NCelD=      1
         NCelK=      1 NCelE2=     1 NClLst=     1 CellRange=     0.0.
 One-electron integrals computed using PRISM.
 NBasis=    91 RedAO= T  NBF=    91
 NBsUse=    91 1.00D-06 NBFU=    91
 Precomputing XC quadrature grid using
 IXCGrd= 2 IRadAn=           5 IRanWt=          -1 IRanGd=           0 AccXCQ= 0.00D+00.
 NRdTot=     904 NPtTot=      241920 NUsed=      248404 NTot=      248436
 NSgBfM=    95    95    95    95    95 NAtAll=    11    11.
 Leave Link  302 at Tue Mar 19 09:52:06 2013, MaxMem=  536870912 cpu:       0.0
 (Enter X:\G09W\l303.exe)
 DipDrv:  MaxL=1.
 Leave Link  303 at Tue Mar 19 09:52:06 2013, MaxMem=  536870912 cpu:       0.0
 (Enter X:\G09W\l401.exe)
 Initial guess read from the read-write file.
 B after Tr=     0.000000    0.000000    0.000000
         Rot=    1.000000    0.000000    0.000000    0.000000 Ang=   0.00 deg.
 Guess basis will be translated and rotated to current coordinates.
 Initial guess orbital symmetries:
       Occupied  (A) (A) (A) (A) (A) (A) (A) (A) (A) (A) (A) (A)
                 (A) (A) (A) (A)
       Virtual   (A) (A) (A) (A) (A) (A) (A) (A) (A) (A) (A) (A)
                 (A) (A) (A) (A) (A) (A) (A) (A) (A) (A) (A) (A)
                 (A) (A) (A) (A) (A) (A) (A) (A) (A) (A) (A) (A)
                 (A) (A) (A) (A) (A) (A) (A) (A) (A) (A) (A) (A)
                 (A) (A) (A) (A) (A) (A) (A) (A) (A) (A) (A) (A)
                 (A) (A) (A) (A) (A) (A) (A) (A) (A) (A) (A) (A)
                 (A) (A) (A)
 The electronic state of the initial guess is 1-A.
 Generating alternative initial guess.
 Harris functional with IExCor= 1009 diagonalized for initial guess.
 ExpMin= 1.22D-01 ExpMax= 9.05D+03 ExpMxC= 3.09D+02 IAcc=3 IRadAn=         5 AccDes= 0.00D+00
 HarFok:  IExCor= 1009 AccDes= 0.00D+00 IRadAn=         5 IDoV= 1
 ScaDFX=  1.000000  1.000000  1.000000  1.000000
 FoFCou: FMM=F IPFlag=           0 FMFlag=      100000 FMFlg1=           0
         NFxFlg=           0 DoJE=T BraDBF=F KetDBF=T FulRan=T
         Omega=  0.000000  0.000000  1.000000  0.000000  0.000000 ICntrl=     500 IOpCl=  0
         NMat0=    1 NMatS0=    1 NMatT0=    0 NMatD0=    1 NMtDS0=    0 NMtDT0=    0
         I1Cent=           4 NGrid=           0.
 Petite list used in FoFCou.
 Harris En= -173.092531576575    
 Leave Link  401 at Tue Mar 19 09:52:07 2013, MaxMem=  536870912 cpu:       1.0
 (Enter X:\G09W\l502.exe)
 Closed shell SCF:
 Requested convergence on RMS density matrix=1.00D-08 within 128 cycles.
 Requested convergence on MAX density matrix=1.00D-06.
 Requested convergence on             energy=1.00D-06.
 No special actions if energy rises.
 Using DIIS extrapolation, IDIIS=  1040.
 Integral symmetry usage will be decided dynamically.
       248292 words used for storage of precomputed grid.
 Keep R1 ints in memory in canonical form, NReq=11610975.
 IEnd=      294811 IEndB=      294811 NGot=   536870912 MDV=   526202754
 LenX=   526202754 LenY=   526193288
 Symmetry not used in FoFDir.
 MinBra= 0 MaxBra= 2 Meth= 1.
 IRaf=       0 NMat=   1 IRICut=       1 DoRegI=T DoRafI=F ISym2E= 0 JSym2E=0.
 Integral accuracy reduced to 1.0D-05 until final iterations.

 Cycle   1  Pass 0  IDiag  1:
 E= -173.093793254465    
 DIIS: error= 8.23D-03 at cycle   1 NSaved=   1.
 NSaved= 1 IEnMin= 1 EnMin= -173.093793254465     IErMin= 1 ErrMin= 8.23D-03
 ErrMax= 8.23D-03 EMaxC= 1.00D-01 BMatC= 1.02D-02 BMatP= 1.02D-02
 IDIUse=3 WtCom= 9.18D-01 WtEn= 8.23D-02
 Coeff-Com:  0.100D+01
 Coeff-En:   0.100D+01
 Coeff:      0.100D+01
 Gap=     0.330 Goal=   None    Shift=    0.000
 GapD=    0.330 DampG=1.000 DampE=1.000 DampFc=1.0000 IDamp=-1.
 RMSDP=1.77D-03 MaxDP=2.86D-02              OVMax= 3.48D-02

 Cycle   2  Pass 0  IDiag  1:
 E= -173.111008665745     Delta-E=       -0.017215411281 Rises=F Damp=F
 DIIS: error= 1.50D-03 at cycle   2 NSaved=   2.
 NSaved= 2 IEnMin= 2 EnMin= -173.111008665745     IErMin= 2 ErrMin= 1.50D-03
 ErrMax= 1.50D-03 EMaxC= 1.00D-01 BMatC= 2.94D-04 BMatP= 1.02D-02
 IDIUse=3 WtCom= 9.85D-01 WtEn= 1.50D-02
 Coeff-Com: -0.342D-01 0.103D+01
 Coeff-En:   0.000D+00 0.100D+01
 Coeff:     -0.337D-01 0.103D+01
 Gap=     0.315 Goal=   None    Shift=    0.000
 RMSDP=3.32D-04 MaxDP=5.42D-03 DE=-1.72D-02 OVMax= 9.05D-03

 Cycle   3  Pass 0  IDiag  1:
 E= -173.111144938504     Delta-E=       -0.000136272759 Rises=F Damp=F
 DIIS: error= 1.42D-03 at cycle   3 NSaved=   3.
 NSaved= 3 IEnMin= 3 EnMin= -173.111144938504     IErMin= 3 ErrMin= 1.42D-03
 ErrMax= 1.42D-03 EMaxC= 1.00D-01 BMatC= 2.89D-04 BMatP= 2.94D-04
 IDIUse=3 WtCom= 9.86D-01 WtEn= 1.42D-02
 Coeff-Com: -0.457D-01 0.534D+00 0.512D+00
 Coeff-En:   0.000D+00 0.353D+00 0.647D+00
 Coeff:     -0.450D-01 0.531D+00 0.514D+00
 Gap=     0.319 Goal=   None    Shift=    0.000
 RMSDP=1.65D-04 MaxDP=2.94D-03 DE=-1.36D-04 OVMax= 4.05D-03

 Cycle   4  Pass 0  IDiag  1:
 E= -173.111424666623     Delta-E=       -0.000279728119 Rises=F Damp=F
 DIIS: error= 1.24D-04 at cycle   4 NSaved=   4.
 NSaved= 4 IEnMin= 4 EnMin= -173.111424666623     IErMin= 4 ErrMin= 1.24D-04
 ErrMax= 1.24D-04 EMaxC= 1.00D-01 BMatC= 3.72D-06 BMatP= 2.89D-04
 IDIUse=3 WtCom= 9.99D-01 WtEn= 1.24D-03
 Coeff-Com: -0.907D-02 0.836D-01 0.139D+00 0.787D+00
 Coeff-En:   0.000D+00 0.000D+00 0.000D+00 0.100D+01
 Coeff:     -0.906D-02 0.835D-01 0.139D+00 0.787D+00
 Gap=     0.318 Goal=   None    Shift=    0.000
 RMSDP=2.89D-05 MaxDP=5.67D-04 DE=-2.80D-04 OVMax= 7.32D-04

 Cycle   5  Pass 0  IDiag  1:
 E= -173.111427639009     Delta-E=       -0.000002972386 Rises=F Damp=F
 DIIS: error= 8.61D-05 at cycle   5 NSaved=   5.
 NSaved= 5 IEnMin= 5 EnMin= -173.111427639009     IErMin= 5 ErrMin= 8.61D-05
 ErrMax= 8.61D-05 EMaxC= 1.00D-01 BMatC= 9.08D-07 BMatP= 3.72D-06
 IDIUse=1 WtCom= 1.00D+00 WtEn= 0.00D+00
 Coeff-Com: -0.139D-02 0.230D-02 0.318D-01 0.389D+00 0.578D+00
 Coeff:     -0.139D-02 0.230D-02 0.318D-01 0.389D+00 0.578D+00
 Gap=     0.318 Goal=   None    Shift=    0.000
 RMSDP=9.68D-06 MaxDP=2.37D-04 DE=-2.97D-06 OVMax= 3.32D-04

 Initial convergence to 1.0D-05 achieved.  Increase integral accuracy.
 Cycle   6  Pass 1  IDiag  1:
 E= -173.111429671784     Delta-E=       -0.000002032776 Rises=F Damp=F
 DIIS: error= 2.25D-05 at cycle   1 NSaved=   1.
 NSaved= 1 IEnMin= 1 EnMin= -173.111429671784     IErMin= 1 ErrMin= 2.25D-05
 ErrMax= 2.25D-05 EMaxC= 1.00D-01 BMatC= 1.63D-07 BMatP= 1.63D-07
 IDIUse=1 WtCom= 1.00D+00 WtEn= 0.00D+00
 Coeff-Com:  0.100D+01
 Coeff:      0.100D+01
 Gap=     0.318 Goal=   None    Shift=    0.000
 RMSDP=9.68D-06 MaxDP=2.37D-04 DE=-2.03D-06 OVMax= 1.99D-04

 Cycle   7  Pass 1  IDiag  1:
 E= -173.111429704612     Delta-E=       -0.000000032828 Rises=F Damp=F
 DIIS: error= 4.12D-05 at cycle   2 NSaved=   2.
 NSaved= 2 IEnMin= 2 EnMin= -173.111429704612     IErMin= 1 ErrMin= 2.25D-05
 ErrMax= 4.12D-05 EMaxC= 1.00D-01 BMatC= 1.61D-07 BMatP= 1.63D-07
 IDIUse=1 WtCom= 1.00D+00 WtEn= 0.00D+00
 Coeff-Com:  0.499D+00 0.501D+00
 Coeff:      0.499D+00 0.501D+00
 Gap=     0.318 Goal=   None    Shift=    0.000
 RMSDP=3.94D-06 MaxDP=1.05D-04 DE=-3.28D-08 OVMax= 1.46D-04

 Cycle   8  Pass 1  IDiag  1:
 E= -173.111429836419     Delta-E=       -0.000000131806 Rises=F Damp=F
 DIIS: error= 9.79D-06 at cycle   3 NSaved=   3.
 NSaved= 3 IEnMin= 3 EnMin= -173.111429836419     IErMin= 3 ErrMin= 9.79D-06
 ErrMax= 9.79D-06 EMaxC= 1.00D-01 BMatC= 1.16D-08 BMatP= 1.61D-07
 IDIUse=1 WtCom= 1.00D+00 WtEn= 0.00D+00
 Coeff-Com:  0.462D-01 0.218D+00 0.736D+00
 Coeff:      0.462D-01 0.218D+00 0.736D+00
 Gap=     0.318 Goal=   None    Shift=    0.000
 RMSDP=1.08D-06 MaxDP=2.38D-05 DE=-1.32D-07 OVMax= 2.90D-05

 Cycle   9  Pass 1  IDiag  1:
 E= -173.111429845922     Delta-E=       -0.000000009504 Rises=F Damp=F
 DIIS: error= 1.59D-06 at cycle   4 NSaved=   4.
 NSaved= 4 IEnMin= 4 EnMin= -173.111429845922     IErMin= 4 ErrMin= 1.59D-06
 ErrMax= 1.59D-06 EMaxC= 1.00D-01 BMatC= 5.26D-10 BMatP= 1.16D-08
 IDIUse=1 WtCom= 1.00D+00 WtEn= 0.00D+00
 Coeff-Com: -0.972D-03 0.696D-01 0.303D+00 0.628D+00
 Coeff:     -0.972D-03 0.696D-01 0.303D+00 0.628D+00
 Gap=     0.318 Goal=   None    Shift=    0.000
 RMSDP=2.70D-07 MaxDP=4.42D-06 DE=-9.50D-09 OVMax= 5.73D-06

 Cycle  10  Pass 1  IDiag  1:
 E= -173.111429846410     Delta-E=       -0.000000000488 Rises=F Damp=F
 DIIS: error= 5.03D-07 at cycle   5 NSaved=   5.
 NSaved= 5 IEnMin= 5 EnMin= -173.111429846410     IErMin= 5 ErrMin= 5.03D-07
 ErrMax= 5.03D-07 EMaxC= 1.00D-01 BMatC= 3.19D-11 BMatP= 5.26D-10
 IDIUse=1 WtCom= 1.00D+00 WtEn= 0.00D+00
 Coeff-Com: -0.320D-02 0.149D-01 0.780D-01 0.256D+00 0.654D+00
 Coeff:     -0.320D-02 0.149D-01 0.780D-01 0.256D+00 0.654D+00
 Gap=     0.318 Goal=   None    Shift=    0.000
 RMSDP=6.44D-08 MaxDP=1.49D-06 DE=-4.88D-10 OVMax= 1.63D-06

 Cycle  11  Pass 1  IDiag  1:
 E= -173.111429846443     Delta-E=       -0.000000000032 Rises=F Damp=F
 DIIS: error= 9.57D-08 at cycle   6 NSaved=   6.
 NSaved= 6 IEnMin= 6 EnMin= -173.111429846443     IErMin= 6 ErrMin= 9.57D-08
 ErrMax= 9.57D-08 EMaxC= 1.00D-01 BMatC= 2.16D-12 BMatP= 3.19D-11
 IDIUse=1 WtCom= 1.00D+00 WtEn= 0.00D+00
 Coeff-Com: -0.126D-02-0.397D-03 0.411D-02 0.428D-01 0.248D+00 0.707D+00
 Coeff:     -0.126D-02-0.397D-03 0.411D-02 0.428D-01 0.248D+00 0.707D+00
 Gap=     0.318 Goal=   None    Shift=    0.000
 RMSDP=1.90D-08 MaxDP=3.18D-07 DE=-3.25D-11 OVMax= 4.12D-07

 Cycle  12  Pass 1  IDiag  1:
 E= -173.111429846445     Delta-E=       -0.000000000002 Rises=F Damp=F
 DIIS: error= 2.35D-08 at cycle   7 NSaved=   7.
 NSaved= 7 IEnMin= 7 EnMin= -173.111429846445     IErMin= 7 ErrMin= 2.35D-08
 ErrMax= 2.35D-08 EMaxC= 1.00D-01 BMatC= 1.26D-13 BMatP= 2.16D-12
 IDIUse=1 WtCom= 1.00D+00 WtEn= 0.00D+00
 Coeff-Com: -0.336D-03-0.859D-03-0.208D-02 0.400D-02 0.628D-01 0.263D+00
 Coeff-Com:  0.673D+00
 Coeff:     -0.336D-03-0.859D-03-0.208D-02 0.400D-02 0.628D-01 0.263D+00
 Coeff:      0.673D+00
 Gap=     0.318 Goal=   None    Shift=    0.000
 RMSDP=4.81D-09 MaxDP=9.81D-08 DE=-2.33D-12 OVMax= 1.32D-07

 SCF Done:  E(RM06) =  -173.111429846     A.U. after   12 cycles
             Convg  =    0.4811D-08             -V/T =  2.0074
 KE= 1.718346201904D+02 PE=-6.527638128162D+02 EE= 1.822309316026D+02
 Leave Link  502 at Tue Mar 19 09:52:28 2013, MaxMem=  536870912 cpu:      21.0
 (Enter X:\G09W\l701.exe)
 Compute integral first derivatives.
 ... and contract with generalized density number  0.
 Leave Link  701 at Tue Mar 19 09:52:28 2013, MaxMem=  536870912 cpu:       0.0
 (Enter X:\G09W\l702.exe)
 L702 exits ... SP integral derivatives will be done elsewhere.
 Leave Link  702 at Tue Mar 19 09:52:28 2013, MaxMem=  536870912 cpu:       0.0
 (Enter X:\G09W\l703.exe)
 Compute integral first derivatives, UseDBF=F ICtDFT=           0.
 Integral derivatives from FoFDir, PRISM(SPDF).
 Calling FoFJK, ICntrl=      2127 FMM=F ISym2X=0 I1Cent= 0 IOpClX= 0 NMat=1 NMatS=1 NMatT=0.
 FoFCou: FMM=F IPFlag=           0 FMFlag=      100000 FMFlg1=         800
         NFxFlg=           0 DoJE=F BraDBF=F KetDBF=F FulRan=T
         Omega=  0.000000  0.000000  1.000000  0.000000  0.000000 ICntrl=    2127 IOpCl=  0
         NMat0=    1 NMatS0=    1 NMatT0=    0 NMatD0=    1 NMtDS0=    0 NMtDT0=    0
         I1Cent=           0 NGrid=           0.
 Symmetry not used in FoFCou.
 Leave Link  703 at Tue Mar 19 09:52:31 2013, MaxMem=  536870912 cpu:       3.0
 (Enter X:\G09W\l716.exe)
 Dipole        = 4.49023903D-01-2.71009779D-01-3.26274373D-01
 ***** Axes restored to original set *****
 -------------------------------------------------------------------
 Center     Atomic                   Forces (Hartrees/Bohr)
 Number     Number              X              Y              Z
 -------------------------------------------------------------------
      1        6          -0.000627080   -0.001166778   -0.001169621
      2        6          -0.002372715    0.002841938    0.007621435
      3        1           0.000180706    0.001764938   -0.000107823
      4        1           0.002002476    0.000258194    0.000668549
      5        1          -0.000645911   -0.002259091   -0.001465598
      6        7           0.003185650   -0.000926102   -0.008171527
      7        1          -0.003395771    0.001784303    0.005722924
      8        6           0.001332188   -0.005749483   -0.009302460
      9        1           0.000824962    0.001720063    0.002097366
     10        1          -0.000304149    0.001547075    0.001626989
     11        1          -0.000180356    0.000184943    0.002479765
 -------------------------------------------------------------------
 Cartesian Forces:  Max     0.009302460 RMS     0.003285725
 Leave Link  716 at Tue Mar 19 09:52:31 2013, MaxMem=  536870912 cpu:       0.0
 (Enter X:\G09W\l103.exe)

 GradGradGradGradGradGradGradGradGradGradGradGradGradGradGradGradGradGrad
 Berny optimization.
 Using GEDIIS/GDIIS optimizer.
 Internal  Forces:  Max     0.004030627 RMS     0.001664718
 Search for a local minimum.
 Step number   2 out of a maximum of   56
 All quantities printed in internal units (Hartrees-Bohrs-Radians)
 RMS Force = .16647D-02 SwitMx=.10000D-02 MixMth= 1
 Mixed Optimization -- RFO/linear search
 Update second derivatives using D2CorX and points    1    2
 DE= -1.16D-02 DEPred=-1.14D-02 R= 1.02D+00
 SS=  1.41D+00  RLast= 3.18D-01 DXNew= 5.0454D-01 9.5405D-01
 Trust test= 1.02D+00 RLast= 3.18D-01 DXMaxT set to 5.05D-01
 ITU=  1  0
 Use linear search instead of GDIIS.
     Eigenvalues ---    0.00237   0.01853   0.02316   0.03485   0.03576
     Eigenvalues ---    0.04676   0.05557   0.05605   0.11196   0.12007
     Eigenvalues ---    0.15141   0.15203   0.16000   0.16000   0.16089
     Eigenvalues ---    0.18500   0.26726   0.28069   0.30280   0.33081
     Eigenvalues ---    0.33210   0.33230   0.33301   0.37022   0.37230
     Eigenvalues ---    0.37283   0.47367
 RFO step:  Lambda=-1.18255419D-03 EMin= 2.36887929D-03
 Quartic linear search produced a step of  0.10550.
 Iteration  1 RMS(Cart)=  0.02486300 RMS(Int)=  0.00076657
 Iteration  2 RMS(Cart)=  0.00068140 RMS(Int)=  0.00025022
 Iteration  3 RMS(Cart)=  0.00000062 RMS(Int)=  0.00025022
 Variable       Old X    -DE/DX   Delta X   Delta X   Delta X     New X
                                 (Linear)    (Quad)   (Total)
    R1        2.79801  -0.00109  -0.00407  -0.00499  -0.00934   2.78867
    R2        2.07275  -0.00063  -0.00145  -0.00126  -0.00271   2.07004
    R3        2.07660  -0.00042  -0.00104  -0.00082  -0.00186   2.07474
    R4        2.74784  -0.00037  -0.00937   0.00523  -0.00400   2.74384
    R5        2.07530  -0.00002  -0.00118   0.00058  -0.00060   2.07470
    R6        2.74342  -0.00082  -0.00984   0.00505  -0.00465   2.73877
    R7        2.85754  -0.00384  -0.00555  -0.01162  -0.01718   2.84037
    R8        1.92491   0.00294   0.00371   0.00484   0.00855   1.93346
    R9        2.07741   0.00174   0.00585   0.00196   0.00780   2.08522
   R10        2.07821   0.00122   0.00593   0.00038   0.00631   2.08453
   R11        2.07913   0.00188   0.00603   0.00228   0.00831   2.08743
    A1        2.12997   0.00072   0.00545  -0.02030  -0.01543   2.11454
    A2        2.03761  -0.00215  -0.00430   0.00105  -0.00278   2.03482
    A3        1.97881   0.00139   0.00305   0.00926   0.01218   1.99098
    A4        2.00246   0.00086  -0.00800   0.02189   0.01427   2.01674
    A5        2.10358  -0.00164   0.00267  -0.01917  -0.01667   2.08691
    A6        2.09209  -0.00106   0.00148  -0.02402  -0.02312   2.06897
    A7        2.06380  -0.00009  -0.00151   0.01449   0.01344   2.07724
    A8        1.99489  -0.00042  -0.00880   0.00278  -0.00590   1.98899
    A9        1.98738   0.00151   0.00393   0.01067   0.01453   2.00191
   A10        2.10604  -0.00115   0.00292  -0.01352  -0.01063   2.09541
   A11        1.99118  -0.00317  -0.01091  -0.04119  -0.05269   1.93849
   A12        1.97704  -0.00403  -0.01236  -0.03674  -0.04964   1.92740
   A13        1.92643   0.00250   0.00167   0.01655   0.01808   1.94452
   A14        1.92707   0.00190   0.00173   0.01180   0.01342   1.94049
   A15        1.91752   0.00143   0.00073   0.00886   0.00950   1.92702
   A16        1.89444  -0.00218  -0.00171  -0.01290  -0.01476   1.87968
   A17        1.89873  -0.00200  -0.00126  -0.01268  -0.01404   1.88469
   A18        1.89909  -0.00181  -0.00122  -0.01263  -0.01390   1.88519
    D1        0.00989  -0.00064   0.00103  -0.02261  -0.02142  -0.01152
    D2        2.57473   0.00054   0.00917  -0.01682  -0.00756   2.56717
    D3       -2.55732  -0.00094  -0.00733  -0.00687  -0.01423  -2.57155
    D4        0.00751   0.00024   0.00081  -0.00108  -0.00037   0.00714
    D5       -2.47266  -0.00295   0.00027  -0.05968  -0.05910  -2.53176
    D6       -0.00916  -0.00146  -0.00229  -0.03737  -0.03917  -0.04833
    D7        2.49051   0.00299   0.00166   0.06254   0.06382   2.55433
    D8        0.01883   0.00248   0.00342   0.05818   0.06115   0.07998
    D9        2.65005  -0.00028  -0.00331  -0.01949  -0.02290   2.62715
   D10       -1.53849  -0.00017  -0.00328  -0.01731  -0.02065  -1.55914
   D11        0.55620  -0.00030  -0.00325  -0.01986  -0.02320   0.53300
   D12       -1.03500   0.00004   0.00365  -0.02530  -0.02160  -1.05661
   D13        1.05964   0.00015   0.00368  -0.02311  -0.01935   1.04028
   D14       -3.12885   0.00002   0.00371  -0.02566  -0.02191   3.13243
   D15        1.43933  -0.00013  -0.00253  -0.02370  -0.02621   1.41311
   D16       -2.74922  -0.00002  -0.00250  -0.02152  -0.02396  -2.77319
   D17       -0.65453  -0.00015  -0.00247  -0.02407  -0.02652  -0.68104
         Item               Value     Threshold  Converged?
 Maximum Force            0.004031     0.000015     NO 
 RMS     Force            0.001665     0.000010     NO 
 Maximum Displacement     0.081269     0.000060     NO 
 RMS     Displacement     0.025028     0.000040     NO 
 Predicted change in Energy=-7.220987D-04
 GradGradGradGradGradGradGradGradGradGradGradGradGradGradGradGradGradGrad

 Leave Link  103 at Tue Mar 19 09:52:31 2013, MaxMem=  536870912 cpu:       0.0
 (Enter X:\G09W\l202.exe)
                          Input orientation:                          
 ---------------------------------------------------------------------
 Center     Atomic      Atomic             Coordinates (Angstroms)
 Number     Number       Type             X           Y           Z
 ---------------------------------------------------------------------
      1          6           0        0.388774    0.147822   -0.000514
      2          6           0        1.108861    1.435904   -0.003563
      3          1           0       -0.114462   -0.222237   -0.900376
      4          1           0       -0.104940   -0.136894    0.937876
      5          1           0        1.140947    2.016769   -0.934646
      6          7           0        1.838853    0.185368   -0.064551
      7          1           0        2.252924   -0.031252    0.845639
      8          6           0        1.132503    2.260949    1.252590
      9          1           0        2.052390    2.866703    1.319447
     10          1           0        0.272900    2.951088    1.292403
     11          1           0        1.088288    1.608540    2.142868
 ---------------------------------------------------------------------
                    Distance matrix (angstroms):
                    1          2          3          4          5
     1  C    0.000000
     2  C    1.475699   0.000000
     3  H    1.095418   2.247270   0.000000
     4  H    1.097904   2.198480   1.840257   0.000000
     5  H    2.220659   1.097884   2.567172   3.113975   0.000000
     6  N    1.451978   1.449293   2.163373   2.210666   2.144334
     7  H    2.055018   2.045134   2.947806   2.362031   2.932626
     8  C    2.566848   1.503057   3.515167   2.716608   2.200840
     9  H    3.449960   2.165130   4.377717   3.717695   2.575665
    10  H    3.089233   2.161977   3.876638   3.131148   2.566361
    11  H    2.686466   2.153461   3.749624   2.433585   3.104918
                    6          7          8          9         10
     6  N    0.000000
     7  H    1.023145   0.000000
     8  C    2.557700   2.583630   0.000000
     9  H    3.024997   2.943272   1.103449   0.000000
    10  H    3.455828   3.607555   1.103084   1.781695   0.000000
    11  H    2.731569   2.393345   1.104621   1.786194   1.786220
                   11
    11  H    0.000000
 Stoichiometry    C3H7N
 Framework group  C1[X(C3H7N)]
 Deg. of freedom    27
 Full point group                 C1      NOp   1
 RotChk:  IX=0 Diff= 3.13D-02
 Largest Abelian subgroup         C1      NOp   1
 Largest concise Abelian subgroup C1      NOp   1
                         Standard orientation:                         
 ---------------------------------------------------------------------
 Center     Atomic      Atomic             Coordinates (Angstroms)
 Number     Number       Type             X           Y           Z
 ---------------------------------------------------------------------
      1          6           0       -1.004687   -0.645994   -0.140357
      2          6           0        0.152521   -0.008517    0.517048
      3          1           0       -1.808369   -1.104024    0.446366
      4          1           0       -0.812363   -1.142354   -1.100582
      5          1           0        0.188865    0.008449    1.614199
      6          7           0       -0.908673    0.799940   -0.049267
      7          1           0       -0.611813    1.205688   -0.940372
      8          6           0        1.495701   -0.065865   -0.155082
      9          1           0        2.112525    0.812288    0.101776
     10          1           0        2.054280   -0.967885    0.146817
     11          1           0        1.376376   -0.089487   -1.252985
 ---------------------------------------------------------------------
 Rotational constants (GHZ):     16.9268741      6.6423266      5.9209188
 Leave Link  202 at Tue Mar 19 09:52:31 2013, MaxMem=  536870912 cpu:       0.0
 (Enter X:\G09W\l301.exe)
 Standard basis: CC-pVDZ (5D, 7F)
 Ernie: Thresh=  0.10000D-02 Tol=  0.10000D-05 Strict=F.
 Ernie:  8 primitive shells out of 123 were deleted.
 There are    91 symmetry adapted basis functions of A   symmetry.
 Integral buffers will be    131072 words long.
 Raffenetti 2 integral format.
 Two-electron integral symmetry is turned on.
    91 basis functions,   181 primitive gaussians,    95 cartesian basis functions
    16 alpha electrons       16 beta electrons
       nuclear repulsion energy       125.8997964724 Hartrees.
 IExCor= 4235 DFT=T Ex+Corr=M06 ExCW=0 ScaHFX=  0.270000
 ScaDFX=  1.000000  1.000000  1.000000  1.000000 ScalE2=  1.000000  1.000000
 IRadAn=      5 IRanWt=     -1 IRanGd=            0 ICorTp=0
 NAtoms=   11 NActive=   11 NUniq=   11 SFac= 1.00D+00 NAtFMM=   60 NAOKFM=F Big=F
 Leave Link  301 at Tue Mar 19 09:52:31 2013, MaxMem=  536870912 cpu:       0.0
 (Enter X:\G09W\l302.exe)
 NPDir=0 NMtPBC=     1 NCelOv=     1 NCel=       1 NClECP=     1 NCelD=      1
         NCelK=      1 NCelE2=     1 NClLst=     1 CellRange=     0.0.
 One-electron integrals computed using PRISM.
 NBasis=    91 RedAO= T  NBF=    91
 NBsUse=    91 1.00D-06 NBFU=    91
 Precomputing XC quadrature grid using
 IXCGrd= 2 IRadAn=           5 IRanWt=          -1 IRanGd=           0 AccXCQ= 0.00D+00.
 NRdTot=     904 NPtTot=      241920 NUsed=      248404 NTot=      248436
 NSgBfM=    95    95    95    95    95 NAtAll=    11    11.
 Leave Link  302 at Tue Mar 19 09:52:31 2013, MaxMem=  536870912 cpu:       0.0
 (Enter X:\G09W\l303.exe)
 DipDrv:  MaxL=1.
 Leave Link  303 at Tue Mar 19 09:52:31 2013, MaxMem=  536870912 cpu:       0.0
 (Enter X:\G09W\l401.exe)
 Initial guess read from the read-write file.
 B after Tr=     0.000000    0.000000    0.000000
         Rot=    1.000000    0.000000    0.000000    0.000000 Ang=   0.00 deg.
 Guess basis will be translated and rotated to current coordinates.
 Initial guess orbital symmetries:
       Occupied  (A) (A) (A) (A) (A) (A) (A) (A) (A) (A) (A) (A)
                 (A) (A) (A) (A)
       Virtual   (A) (A) (A) (A) (A) (A) (A) (A) (A) (A) (A) (A)
                 (A) (A) (A) (A) (A) (A) (A) (A) (A) (A) (A) (A)
                 (A) (A) (A) (A) (A) (A) (A) (A) (A) (A) (A) (A)
                 (A) (A) (A) (A) (A) (A) (A) (A) (A) (A) (A) (A)
                 (A) (A) (A) (A) (A) (A) (A) (A) (A) (A) (A) (A)
                 (A) (A) (A) (A) (A) (A) (A) (A) (A) (A) (A) (A)
                 (A) (A) (A)
 The electronic state of the initial guess is 1-A.
 Generating alternative initial guess.
 Harris functional with IExCor= 1009 diagonalized for initial guess.
 ExpMin= 1.22D-01 ExpMax= 9.05D+03 ExpMxC= 3.09D+02 IAcc=3 IRadAn=         5 AccDes= 0.00D+00
 HarFok:  IExCor= 1009 AccDes= 0.00D+00 IRadAn=         5 IDoV= 1
 ScaDFX=  1.000000  1.000000  1.000000  1.000000
 FoFCou: FMM=F IPFlag=           0 FMFlag=      100000 FMFlg1=           0
         NFxFlg=           0 DoJE=T BraDBF=F KetDBF=T FulRan=T
         Omega=  0.000000  0.000000  1.000000  0.000000  0.000000 ICntrl=     500 IOpCl=  0
         NMat0=    1 NMatS0=    1 NMatT0=    0 NMatD0=    1 NMtDS0=    0 NMtDT0=    0
         I1Cent=           4 NGrid=           0.
 Petite list used in FoFCou.
 Harris En= -173.092930543463    
 Leave Link  401 at Tue Mar 19 09:52:33 2013, MaxMem=  536870912 cpu:       1.0
 (Enter X:\G09W\l502.exe)
 Closed shell SCF:
 Requested convergence on RMS density matrix=1.00D-08 within 128 cycles.
 Requested convergence on MAX density matrix=1.00D-06.
 Requested convergence on             energy=1.00D-06.
 No special actions if energy rises.
 Using DIIS extrapolation, IDIIS=  1040.
 Integral symmetry usage will be decided dynamically.
       248292 words used for storage of precomputed grid.
 Keep R1 ints in memory in canonical form, NReq=11610975.
 IEnd=      294811 IEndB=      294811 NGot=   536870912 MDV=   526202754
 LenX=   526202754 LenY=   526193288
 Symmetry not used in FoFDir.
 MinBra= 0 MaxBra= 2 Meth= 1.
 IRaf=       0 NMat=   1 IRICut=       1 DoRegI=T DoRafI=F ISym2E= 0 JSym2E=0.
 Integral accuracy reduced to 1.0D-05 until final iterations.

 Cycle   1  Pass 0  IDiag  1:
 E= -173.111104841772    
 DIIS: error= 2.03D-03 at cycle   1 NSaved=   1.
 NSaved= 1 IEnMin= 1 EnMin= -173.111104841772     IErMin= 1 ErrMin= 2.03D-03
 ErrMax= 2.03D-03 EMaxC= 1.00D-01 BMatC= 6.86D-04 BMatP= 6.86D-04
 IDIUse=3 WtCom= 9.80D-01 WtEn= 2.03D-02
 Coeff-Com:  0.100D+01
 Coeff-En:   0.100D+01
 Coeff:      0.100D+01
 Gap=     0.318 Goal=   None    Shift=    0.000
 GapD=    0.318 DampG=1.000 DampE=1.000 DampFc=1.0000 IDamp=-1.
 RMSDP=4.67D-04 MaxDP=7.87D-03              OVMax= 1.16D-02

 Cycle   2  Pass 0  IDiag  1:
 E= -173.112306462868     Delta-E=       -0.001201621096 Rises=F Damp=F
 DIIS: error= 2.72D-04 at cycle   2 NSaved=   2.
 NSaved= 2 IEnMin= 2 EnMin= -173.112306462868     IErMin= 2 ErrMin= 2.72D-04
 ErrMax= 2.72D-04 EMaxC= 1.00D-01 BMatC= 1.42D-05 BMatP= 6.86D-04
 IDIUse=3 WtCom= 9.97D-01 WtEn= 2.72D-03
 Coeff-Com: -0.670D-01 0.107D+01
 Coeff-En:   0.000D+00 0.100D+01
 Coeff:     -0.668D-01 0.107D+01
 Gap=     0.318 Goal=   None    Shift=    0.000
 RMSDP=7.51D-05 MaxDP=1.07D-03 DE=-1.20D-03 OVMax= 1.90D-03

 Cycle   3  Pass 0  IDiag  1:
 E= -173.112317846061     Delta-E=       -0.000011383192 Rises=F Damp=F
 DIIS: error= 3.13D-04 at cycle   3 NSaved=   3.
 NSaved= 3 IEnMin= 3 EnMin= -173.112317846061     IErMin= 2 ErrMin= 2.72D-04
 ErrMax= 3.13D-04 EMaxC= 1.00D-01 BMatC= 1.37D-05 BMatP= 1.42D-05
 IDIUse=3 WtCom= 9.97D-01 WtEn= 3.13D-03
 Coeff-Com: -0.503D-01 0.567D+00 0.484D+00
 Coeff-En:   0.000D+00 0.159D+00 0.841D+00
 Coeff:     -0.502D-01 0.565D+00 0.485D+00
 Gap=     0.317 Goal=   None    Shift=    0.000
 RMSDP=3.21D-05 MaxDP=7.92D-04 DE=-1.14D-05 OVMax= 1.06D-03

 Cycle   4  Pass 0  IDiag  1:
 E= -173.112329535146     Delta-E=       -0.000011689086 Rises=F Damp=F
 DIIS: error= 5.65D-05 at cycle   4 NSaved=   4.
 NSaved= 4 IEnMin= 4 EnMin= -173.112329535146     IErMin= 4 ErrMin= 5.65D-05
 ErrMax= 5.65D-05 EMaxC= 1.00D-01 BMatC= 3.99D-07 BMatP= 1.37D-05
 IDIUse=1 WtCom= 1.00D+00 WtEn= 0.00D+00
 Coeff-Com: -0.933D-02 0.841D-01 0.171D+00 0.755D+00
 Coeff:     -0.933D-02 0.841D-01 0.171D+00 0.755D+00
 Gap=     0.318 Goal=   None    Shift=    0.000
 RMSDP=8.48D-06 MaxDP=1.61D-04 DE=-1.17D-05 OVMax= 2.55D-04

 Initial convergence to 1.0D-05 achieved.  Increase integral accuracy.
 Cycle   5  Pass 1  IDiag  1:
 E= -173.112317798332     Delta-E=        0.000011736815 Rises=F Damp=F
 DIIS: error= 2.68D-05 at cycle   1 NSaved=   1.
 NSaved= 1 IEnMin= 1 EnMin= -173.112317798332     IErMin= 1 ErrMin= 2.68D-05
 ErrMax= 2.68D-05 EMaxC= 1.00D-01 BMatC= 1.59D-07 BMatP= 1.59D-07
 IDIUse=1 WtCom= 1.00D+00 WtEn= 0.00D+00
 Coeff-Com:  0.100D+01
 Coeff:      0.100D+01
 Gap=     0.317 Goal=   None    Shift=    0.000
 RMSDP=8.48D-06 MaxDP=1.61D-04 DE= 1.17D-05 OVMax= 1.75D-04

 Cycle   6  Pass 1  IDiag  1:
 E= -173.112317857580     Delta-E=       -0.000000059248 Rises=F Damp=F
 DIIS: error= 2.77D-05 at cycle   2 NSaved=   2.
 NSaved= 2 IEnMin= 2 EnMin= -173.112317857580     IErMin= 1 ErrMin= 2.68D-05
 ErrMax= 2.77D-05 EMaxC= 1.00D-01 BMatC= 1.23D-07 BMatP= 1.59D-07
 IDIUse=1 WtCom= 1.00D+00 WtEn= 0.00D+00
 Coeff-Com:  0.461D+00 0.539D+00
 Coeff:      0.461D+00 0.539D+00
 Gap=     0.318 Goal=   None    Shift=    0.000
 RMSDP=4.02D-06 MaxDP=7.68D-05 DE=-5.92D-08 OVMax= 1.02D-04

 Cycle   7  Pass 1  IDiag  1:
 E= -173.112317964373     Delta-E=       -0.000000106793 Rises=F Damp=F
 DIIS: error= 9.22D-06 at cycle   3 NSaved=   3.
 NSaved= 3 IEnMin= 3 EnMin= -173.112317964373     IErMin= 3 ErrMin= 9.22D-06
 ErrMax= 9.22D-06 EMaxC= 1.00D-01 BMatC= 1.12D-08 BMatP= 1.23D-07
 IDIUse=1 WtCom= 1.00D+00 WtEn= 0.00D+00
 Coeff-Com:  0.512D-01 0.239D+00 0.710D+00
 Coeff:      0.512D-01 0.239D+00 0.710D+00
 Gap=     0.317 Goal=   None    Shift=    0.000
 RMSDP=1.07D-06 MaxDP=2.59D-05 DE=-1.07D-07 OVMax= 3.26D-05

 Cycle   8  Pass 1  IDiag  1:
 E= -173.112317973371     Delta-E=       -0.000000008998 Rises=F Damp=F
 DIIS: error= 2.99D-06 at cycle   4 NSaved=   4.
 NSaved= 4 IEnMin= 4 EnMin= -173.112317973371     IErMin= 4 ErrMin= 2.99D-06
 ErrMax= 2.99D-06 EMaxC= 1.00D-01 BMatC= 1.09D-09 BMatP= 1.12D-08
 IDIUse=1 WtCom= 1.00D+00 WtEn= 0.00D+00
 Coeff-Com:  0.329D-02 0.976D-01 0.367D+00 0.533D+00
 Coeff:      0.329D-02 0.976D-01 0.367D+00 0.533D+00
 Gap=     0.317 Goal=   None    Shift=    0.000
 RMSDP=2.82D-07 MaxDP=5.83D-06 DE=-9.00D-09 OVMax= 8.02D-06

 Cycle   9  Pass 1  IDiag  1:
 E= -173.112317974304     Delta-E=       -0.000000000933 Rises=F Damp=F
 DIIS: error= 4.02D-07 at cycle   5 NSaved=   5.
 NSaved= 5 IEnMin= 5 EnMin= -173.112317974304     IErMin= 5 ErrMin= 4.02D-07
 ErrMax= 4.02D-07 EMaxC= 1.00D-01 BMatC= 2.83D-11 BMatP= 1.09D-09
 IDIUse=1 WtCom= 1.00D+00 WtEn= 0.00D+00
 Coeff-Com: -0.205D-02 0.211D-01 0.905D-01 0.195D+00 0.695D+00
 Coeff:     -0.205D-02 0.211D-01 0.905D-01 0.195D+00 0.695D+00
 Gap=     0.317 Goal=   None    Shift=    0.000
 RMSDP=6.94D-08 MaxDP=1.11D-06 DE=-9.33D-10 OVMax= 1.67D-06

 Cycle  10  Pass 1  IDiag  1:
 E= -173.112317974332     Delta-E=       -0.000000000028 Rises=F Damp=F
 DIIS: error= 1.24D-07 at cycle   6 NSaved=   6.
 NSaved= 6 IEnMin= 6 EnMin= -173.112317974332     IErMin= 6 ErrMin= 1.24D-07
 ErrMax= 1.24D-07 EMaxC= 1.00D-01 BMatC= 1.92D-12 BMatP= 2.83D-11
 IDIUse=1 WtCom= 1.00D+00 WtEn= 0.00D+00
 Coeff-Com: -0.118D-02 0.927D-03 0.860D-02 0.302D-01 0.249D+00 0.713D+00
 Coeff:     -0.118D-02 0.927D-03 0.860D-02 0.302D-01 0.249D+00 0.713D+00
 Gap=     0.317 Goal=   None    Shift=    0.000
 RMSDP=1.78D-08 MaxDP=2.56D-07 DE=-2.79D-11 OVMax= 3.99D-07

 Cycle  11  Pass 1  IDiag  1:
 E= -173.112317974335     Delta-E=       -0.000000000002 Rises=F Damp=F
 DIIS: error= 2.47D-08 at cycle   7 NSaved=   7.
 NSaved= 7 IEnMin= 7 EnMin= -173.112317974335     IErMin= 7 ErrMin= 2.47D-08
 ErrMax= 2.47D-08 EMaxC= 1.00D-01 BMatC= 8.78D-14 BMatP= 1.92D-12
 IDIUse=1 WtCom= 1.00D+00 WtEn= 0.00D+00
 Coeff-Com: -0.330D-03-0.446D-03-0.107D-03 0.263D-02 0.594D-01 0.245D+00
 Coeff-Com:  0.694D+00
 Coeff:     -0.330D-03-0.446D-03-0.107D-03 0.263D-02 0.594D-01 0.245D+00
 Coeff:      0.694D+00
 Gap=     0.317 Goal=   None    Shift=    0.000
 RMSDP=4.25D-09 MaxDP=8.17D-08 DE=-2.44D-12 OVMax= 1.05D-07

 SCF Done:  E(RM06) =  -173.112317974     A.U. after   11 cycles
             Convg  =    0.4255D-08             -V/T =  2.0073
 KE= 1.718594807440D+02 PE=-6.533925901304D+02 EE= 1.825209949396D+02
 Leave Link  502 at Tue Mar 19 09:52:52 2013, MaxMem=  536870912 cpu:      19.0
 (Enter X:\G09W\l701.exe)
 Compute integral first derivatives.
 ... and contract with generalized density number  0.
 Leave Link  701 at Tue Mar 19 09:52:52 2013, MaxMem=  536870912 cpu:       0.0
 (Enter X:\G09W\l702.exe)
 L702 exits ... SP integral derivatives will be done elsewhere.
 Leave Link  702 at Tue Mar 19 09:52:52 2013, MaxMem=  536870912 cpu:       0.0
 (Enter X:\G09W\l703.exe)
 Compute integral first derivatives, UseDBF=F ICtDFT=           0.
 Integral derivatives from FoFDir, PRISM(SPDF).
 Calling FoFJK, ICntrl=      2127 FMM=F ISym2X=0 I1Cent= 0 IOpClX= 0 NMat=1 NMatS=1 NMatT=0.
 FoFCou: FMM=F IPFlag=           0 FMFlag=      100000 FMFlg1=         800
         NFxFlg=           0 DoJE=F BraDBF=F KetDBF=F FulRan=T
         Omega=  0.000000  0.000000  1.000000  0.000000  0.000000 ICntrl=    2127 IOpCl=  0
         NMat0=    1 NMatS0=    1 NMatT0=    0 NMatD0=    1 NMtDS0=    0 NMtDT0=    0
         I1Cent=           0 NGrid=           0.
 Symmetry not used in FoFCou.
 Leave Link  703 at Tue Mar 19 09:52:55 2013, MaxMem=  536870912 cpu:       3.0
 (Enter X:\G09W\l716.exe)
 Dipole        = 4.59315823D-01-3.00630518D-01-3.25986693D-01
 ***** Axes restored to original set *****
 -------------------------------------------------------------------
 Center     Atomic                   Forces (Hartrees/Bohr)
 Number     Number              X              Y              Z
 -------------------------------------------------------------------
      1        6          -0.004871630   -0.000612396    0.000697435
      2        6          -0.002754338    0.005325250    0.003436867
      3        1           0.000457273    0.000102154   -0.000311769
      4        1           0.000624099   -0.000272695    0.000085546
      5        1           0.000230716   -0.000953684   -0.000688857
[...]
     11  0.321972D+00 -0.275162D-01  0.171099D+02 -0.766195D+00 -0.804877D+00
               11 
     11  0.000000D+00
 Fermi Contact (FC) contribution to J (Hz):
                1             2             3             4             5 
      1  0.000000D+00
      2  0.221186D+02  0.000000D+00
      3  0.191083D+03 -0.249462D+01  0.000000D+00
      4  0.177155D+03 -0.319227D+01 -0.111911D+02  0.000000D+00
      5 -0.191491D+01  0.185486D+03  0.548282D+01  0.237513D+01  0.000000D+00
      6 -0.511610D+01 -0.541568D+01  0.429549D+01 -0.610413D+00  0.515076D+01
      7 -0.551865D+01 -0.538231D+01  0.847654D+01  0.123110D+02  0.856544D+01
      8 -0.157058D+00  0.431225D+02  0.149751D+01  0.453432D+01  0.461200D+01
      9  0.939004D+01 -0.656001D+01  0.142391D+01 -0.535979D+00  0.333404D+01
     10  0.420657D+00 -0.454317D+01  0.384875D+00 -0.311461D+00  0.264715D+01
     11  0.384226D+01 -0.780595D+01 -0.289300D+00 -0.626559D+00  0.103242D+02
                6             7             8             9            10 
      6  0.000000D+00
      7  0.428726D+02  0.000000D+00
      8 -0.658640D+00  0.683534D+01  0.000000D+00
      9  0.502636D-01 -0.687922D+00  0.138114D+03  0.000000D+00
     10  0.105835D+01 -0.144857D+01  0.137738D+03 -0.252157D+02  0.000000D+00
     11  0.726139D+00 -0.858504D+00  0.134260D+03 -0.239053D+02 -0.251121D+02
               11 
     11  0.000000D+00
 Spin-dipolar (SD) contribution to K (Hz):
                1             2             3             4             5 
      1  0.000000D+00
      2 -0.146588D+00  0.000000D+00
      3  0.261444D-01 -0.729783D-02  0.000000D+00
      4  0.268534D-01 -0.947011D-02  0.611270D-02  0.000000D+00
      5 -0.563516D-02  0.278296D-01  0.298094D-02  0.612371D-03  0.000000D+00
      6 -0.233265D-01 -0.325264D-01 -0.180934D-01 -0.378053D-02 -0.195067D-01
      7 -0.901535D-02 -0.963758D-02  0.190726D-03  0.738298D-02  0.682252D-03
      8 -0.416627D-02  0.349381D+00  0.177832D-02 -0.506630D-02  0.810537D-02
      9 -0.864170D-03  0.982833D-02  0.223712D-03 -0.485760D-03  0.139086D-02
     10  0.264901D-02  0.109754D-01 -0.205326D-03  0.382249D-03  0.179439D-02
     11 -0.688480D-02  0.967145D-02 -0.162738D-03  0.134963D-02 -0.210333D-03
                6             7             8             9            10 
      6  0.000000D+00
      7  0.335473D-01  0.000000D+00
      8 -0.389561D-03 -0.578715D-02  0.000000D+00
      9  0.114135D-02  0.800686D-03  0.185336D-01  0.000000D+00
     10  0.360502D-02 -0.161035D-03  0.190529D-01  0.108092D-01  0.000000D+00
     11 -0.163205D-01  0.180278D-02  0.171956D-01  0.999937D-02  0.991837D-02
               11 
     11  0.000000D+00
 Spin-dipolar (SD) contribution to J (Hz):
                1             2             3             4             5 
      1  0.000000D+00
      2 -0.289294D+00  0.000000D+00
      3  0.205152D+00 -0.572654D-01  0.000000D+00
      4  0.210716D+00 -0.743110D-01  0.190716D+00  0.000000D+00
      5 -0.442186D-01  0.218376D+00  0.930051D-01  0.191060D-01  0.000000D+00
      6 -0.132311D-01 -0.184494D-01 -0.408057D-01 -0.852617D-02 -0.439931D-01
      7 -0.707426D-01 -0.756252D-01  0.595065D-02  0.230349D+00  0.212862D-01
      8 -0.822223D-02  0.689511D+00  0.139543D-01 -0.397547D-01  0.636021D-01
      9 -0.678106D-02  0.771220D-01  0.697979D-02 -0.151557D-01  0.433949D-01
     10  0.207865D-01  0.861232D-01 -0.640617D-02  0.119262D-01  0.559849D-01
     11 -0.540244D-01  0.758909D-01 -0.507743D-02  0.421084D-01 -0.656237D-02
                6             7             8             9            10 
      6  0.000000D+00
      7  0.756586D-01  0.000000D+00
      8 -0.220964D-03 -0.454112D-01  0.000000D+00
      9  0.257406D-02  0.249814D-01  0.145431D+00  0.000000D+00
     10  0.813034D-02 -0.502429D-02  0.149506D+00  0.337248D+00  0.000000D+00
     11 -0.368073D-01  0.562468D-01  0.134932D+00  0.311980D+00  0.309453D+00
               11 
     11  0.000000D+00
 Paramagnetic spin-orbit (PSO) contribution to K (Hz):
                1             2             3             4             5 
      1  0.000000D+00
      2 -0.453666D+00  0.000000D+00
      3  0.386825D-01  0.420463D-01  0.000000D+00
      4  0.559062D-01  0.331671D-01  0.697087D-01  0.000000D+00
      5  0.362719D-01  0.363601D-01  0.124664D-01  0.627503D-01  0.000000D+00
      6 -0.219760D+00 -0.551025D+00  0.120988D+00  0.908785D-01  0.904072D-01
      7  0.559070D-01  0.476857D-01  0.774450D-01  0.568484D-02  0.767904D-01
      8 -0.570813D-01 -0.379521D+00  0.383667D-01 -0.149373D-02  0.193227D-01
      9  0.354671D-01  0.717784D-02  0.436844D-01  0.358131D-01  0.182914D-01
     10  0.165689D-01  0.127044D-01  0.274111D-01  0.930543D-02  0.163824D-01
     11  0.473082D-02  0.149894D-01  0.387443D-01 -0.329949D-01  0.621996D-01
                6             7             8             9            10 
      6  0.000000D+00
      7  0.711942D+00  0.000000D+00
      8 -0.231341D+00 -0.501670D-02  0.000000D+00
      9  0.143701D-01 -0.144459D-02  0.125530D+00  0.000000D+00
     10  0.196356D-01  0.385733D-01  0.125407D+00  0.669950D-01  0.000000D+00
     11  0.107086D-01 -0.396867D-01  0.128759D+00  0.637332D-01  0.635194D-01
               11 
     11  0.000000D+00
 Paramagnetic spin-orbit (PSO) contribution to J (Hz):
                1             2             3             4             5 
      1  0.000000D+00
      2 -0.895321D+00  0.000000D+00
      3  0.303538D+00  0.329933D+00  0.000000D+00
      4  0.438690D+00  0.260259D+00  0.217491D+01  0.000000D+00
      5  0.284622D+00  0.285314D+00  0.388950D+00  0.195781D+01  0.000000D+00
      6 -0.124651D+00 -0.312548D+00  0.272861D+00  0.204957D+00  0.203894D+00
      7  0.438697D+00  0.374185D+00  0.241628D+01  0.177367D+00  0.239586D+01
      8 -0.112651D+00 -0.748995D+00  0.301060D+00 -0.117211D-01  0.151623D+00
      9  0.278307D+00  0.563238D-01  0.136295D+01  0.111737D+01  0.570691D+00
     10  0.130015D+00  0.996903D-01  0.855224D+00  0.290329D+00  0.511129D+00
     11  0.371223D-01  0.117620D+00  0.120882D+01 -0.102944D+01  0.194063D+01
                6             7             8             9            10 
      6  0.000000D+00
      7  0.160563D+01  0.000000D+00
      8 -0.131219D+00 -0.393656D-01  0.000000D+00
      9  0.324087D-01 -0.450711D-01  0.985021D+00  0.000000D+00
     10  0.442838D-01  0.120348D+01  0.984058D+00  0.209024D+01  0.000000D+00
     11  0.241509D-01 -0.123822D+01  0.101036D+01  0.198847D+01  0.198180D+01
               11 
     11  0.000000D+00
 Diamagnetic spin-orbit (DSO) contribution to K (Hz):
                1             2             3             4             5 
      1  0.000000D+00
      2  0.107818D+00  0.000000D+00
      3  0.109983D+00 -0.441479D-01  0.000000D+00
      4  0.115148D+00 -0.356866D-01 -0.903389D-01  0.000000D+00
      5 -0.432922D-01  0.136811D+00 -0.140421D-01 -0.921863D-01  0.000000D+00
      6  0.879255D-01  0.100769D+00 -0.429278D-01 -0.550216D-01 -0.352538D-01
      7 -0.502353D-01 -0.405990D-01 -0.108925D+00 -0.557469D-03 -0.109881D+00
      8 -0.175751D-01  0.107530D+00 -0.601607D-01  0.152979D-02 -0.352570D-01
      9 -0.621468D-01 -0.145508D-01 -0.618185D-01 -0.507413D-01 -0.242220D-01
     10 -0.277114D-01 -0.144552D-01 -0.397763D-01 -0.135545D-01 -0.207749D-01
     11  0.444444D-02 -0.143746D-01 -0.550239D-01  0.483905D-01 -0.924210D-01
                6             7             8             9            10 
      6  0.000000D+00
      7  0.108996D+00  0.000000D+00
      8 -0.235567D-01  0.131325D-01  0.000000D+00
      9 -0.229247D-01  0.257619D-02  0.823554D-01  0.000000D+00
     10 -0.664765D-01 -0.551387D-01  0.816433D-01 -0.800988D-01  0.000000D+00
     11 -0.104169D-01  0.578888D-01  0.895745D-01 -0.761169D-01 -0.762918D-01
               11 
     11  0.000000D+00
 Diamagnetic spin-orbit (DSO) contribution to J (Hz):
                1             2             3             4             5 
      1  0.000000D+00
      2  0.212781D+00  0.000000D+00
      3  0.863026D+00 -0.346424D+00  0.000000D+00
      4  0.903554D+00 -0.280029D+00 -0.281857D+01  0.000000D+00
      5 -0.339710D+00  0.107354D+01 -0.438112D+00 -0.287621D+01  0.000000D+00
      6  0.498724D-01  0.571577D-01 -0.968143D-01 -0.124089D+00 -0.795073D-01
      7 -0.394192D+00 -0.318577D+00 -0.339845D+01 -0.173930D-01 -0.342828D+01
      8 -0.346850D-01  0.212214D+00 -0.472075D+00  0.120041D-01 -0.276659D+00
      9 -0.487660D+00 -0.114178D+00 -0.192873D+01 -0.158313D+01 -0.755725D+00
     10 -0.217449D+00 -0.113429D+00 -0.124102D+01 -0.422900D+00 -0.648175D+00
     11  0.348751D-01 -0.112796D+00 -0.171674D+01  0.150978D+01 -0.288353D+01
                6             7             8             9            10 
      6  0.000000D+00
      7  0.245817D+00  0.000000D+00
      8 -0.133617D-01  0.103050D+00  0.000000D+00
      9 -0.517018D-01  0.803771D-01  0.646235D+00  0.000000D+00
     10 -0.149923D+00 -0.172032D+01  0.640647D+00 -0.249908D+01  0.000000D+00
     11 -0.234930D-01  0.180613D+01  0.702882D+00 -0.237484D+01 -0.238030D+01
               11 
     11  0.000000D+00
 Total nuclear spin-spin coupling K (Hz): 
                1             2             3             4             5 
      1  0.000000D+00
      2  0.107152D+02  0.000000D+00
      3  0.245262D+02 -0.327312D+00  0.000000D+00
      4  0.227743D+02 -0.418809D+00 -0.373208D+00  0.000000D+00
      5 -0.256689D+00  0.238391D+02  0.177137D+00  0.473023D-01  0.000000D+00
      6 -0.917488D+01 -0.100307D+02  0.196460D+01 -0.238583D+00  0.231951D+01
      7 -0.706634D+00 -0.688466D+00  0.240395D+00  0.407094D+00  0.242125D+00
      8 -0.158405D+00  0.219279D+02  0.170826D+00  0.572818D+00  0.579919D+00
      9  0.116911D+01 -0.833545D+00  0.277278D-01 -0.325928D-01  0.102321D+00
     10  0.451145D-01 -0.569751D+00 -0.234759D-03 -0.138496D-01  0.822466D-01
     11  0.491944D+00 -0.984495D+00 -0.257148D-01 -0.333678D-02  0.300473D+00
                6             7             8             9            10 
      6  0.000000D+00
      7  0.198643D+02  0.000000D+00
      8 -0.141648D+01  0.873417D+00  0.000000D+00
      9  0.148738D-01 -0.201165D-01  0.178275D+02  0.000000D+00
     10  0.426038D+00 -0.631552D-01  0.177792D+02 -0.810492D+00  0.000000D+00
     11  0.305943D+00 -0.751139D-02  0.173454D+02 -0.768579D+00 -0.807731D+00
               11 
     11  0.000000D+00
 Total nuclear spin-spin coupling J (Hz): 
                1             2             3             4             5 
      1  0.000000D+00
      2  0.211468D+02  0.000000D+00
      3  0.192455D+03 -0.256838D+01  0.000000D+00
      4  0.178708D+03 -0.328635D+01 -0.116441D+02  0.000000D+00
      5 -0.201422D+01  0.187063D+03  0.552666D+01  0.147583D+01  0.000000D+00
      6 -0.520410D+01 -0.568952D+01  0.443074D+01 -0.538072D+00  0.523116D+01
      7 -0.554489D+01 -0.540233D+01  0.750032D+01  0.127013D+02  0.755430D+01
      8 -0.312616D+00  0.432752D+02  0.134045D+01  0.449485D+01  0.455057D+01
      9  0.917391D+01 -0.654075D+01  0.865105D+00 -0.101689D+01  0.319240D+01
     10  0.354009D+00 -0.447078D+01 -0.732448D-02 -0.432106D+00  0.256609D+01
     11  0.386023D+01 -0.772524D+01 -0.802299D+00 -0.104108D+00  0.937473D+01
                6             7             8             9            10 
      6  0.000000D+00
      7  0.447997D+02  0.000000D+00
      8 -0.803442D+00  0.685362D+01  0.000000D+00
      9  0.335446D-01 -0.627635D+00  0.139890D+03  0.000000D+00
     10  0.960836D+00 -0.197044D+01  0.139512D+03 -0.252873D+02  0.000000D+00
     11  0.689990D+00 -0.234355D+00  0.136108D+03 -0.239796D+02 -0.252012D+02
               11 
     11  0.000000D+00
 End of Minotr Frequency-dependent properties file   721 does not exist.
 End of Minotr Frequency-dependent properties file   722 does not exist.
 Leave Link 1002 at Tue Mar 19 11:20:36 2013, MaxMem=  536870912 cpu:    1245.0
 (Enter X:\G09W\l601.exe)
 Copying SCF densities to generalized density rwf, IOpCl= 0 IROHF=0.

 **********************************************************************

            Population analysis using the SCF density.

 **********************************************************************

 Orbital symmetries:
       Occupied  (A) (A) (A) (A) (A) (A) (A) (A) (A) (A) (A) (A)
                 (A) (A) (A) (A)
       Virtual   (A) (A) (A) (A) (A) (A) (A) (A) (A) (A) (A) (A)
                 (A) (A) (A) (A) (A) (A) (A) (A) (A) (A) (A) (A)
                 (A) (A) (A) (A) (A) (A) (A) (A) (A) (A) (A) (A)
                 (A) (A) (A) (A) (A) (A) (A) (A) (A) (A) (A) (A)
                 (A) (A) (A) (A) (A) (A) (A) (A) (A) (A) (A) (A)
                 (A) (A) (A) (A) (A) (A) (A) (A) (A) (A) (A) (A)
                 (A) (A) (A)
 The electronic state is 1-A.
 Alpha  occ. eigenvalues --  -14.39279 -10.27890 -10.27178 -10.25221  -0.97422
 Alpha  occ. eigenvalues --   -0.74249  -0.65515  -0.59372  -0.49786  -0.48591
 Alpha  occ. eigenvalues --   -0.42476  -0.40141  -0.37002  -0.33957  -0.33036
 Alpha  occ. eigenvalues --   -0.25419
 Alpha virt. eigenvalues --    0.06480   0.08660   0.10698   0.11883   0.12082
 Alpha virt. eigenvalues --    0.14162   0.15209   0.15953   0.21468   0.24780
 Alpha virt. eigenvalues --    0.30826   0.39605   0.41841   0.45813   0.48569
 Alpha virt. eigenvalues --    0.51681   0.54108   0.55584   0.56985   0.59830
 Alpha virt. eigenvalues --    0.61167   0.61473   0.62297   0.63990   0.65656
 Alpha virt. eigenvalues --    0.67284   0.71453   0.81290   0.83391   0.84148
 Alpha virt. eigenvalues --    0.86685   1.00566   1.07820   1.11707   1.17297
 Alpha virt. eigenvalues --    1.21332   1.25420   1.35425   1.39188   1.40925
 Alpha virt. eigenvalues --    1.42630   1.46754   1.49295   1.52912   1.56894
 Alpha virt. eigenvalues --    1.59160   1.60952   1.62127   1.63275   1.71080
 Alpha virt. eigenvalues --    1.74753   1.76757   1.79576   1.85301   1.86316
 Alpha virt. eigenvalues --    1.89756   1.93459   2.00921   2.05393   2.07594
 Alpha virt. eigenvalues --    2.16054   2.20462   2.22765   2.28149   2.33538
 Alpha virt. eigenvalues --    2.34649   2.38012   2.45746   2.50156   2.53762
 Alpha virt. eigenvalues --    2.56162   2.60680   2.67489   2.73142   2.93389
          Condensed to atoms (all electrons):
              1          2          3          4          5          6
     1  C    4.713958   0.323666   0.382313   0.388312  -0.026900   0.281352
     2  C    0.323666   4.792291  -0.013048  -0.014959   0.387889   0.288675
     3  H    0.382313  -0.013048   0.648368  -0.049897  -0.005418  -0.020022
     4  H    0.388312  -0.014959  -0.049897   0.675610   0.003668  -0.021821
     5  H   -0.026900   0.387889  -0.005418   0.003668   0.674135  -0.024509
     6  N    0.281352   0.288675  -0.020022  -0.021821  -0.024509   6.392681
     7  H   -0.024300  -0.041128   0.004929  -0.015440   0.005368   0.358105
     8  C   -0.038865   0.448942   0.002661  -0.004812  -0.042985  -0.040207
     9  H    0.006890  -0.023220  -0.000423   0.000547  -0.006511  -0.004522
    10  H   -0.005166  -0.019060   0.000627  -0.000454  -0.002941   0.005274
    11  H   -0.008571  -0.019255   0.000279   0.002803   0.008730  -0.001097
              7          8          9         10         11
     1  C   -0.024300  -0.038865   0.006890  -0.005166  -0.008571
     2  C   -0.041128   0.448942  -0.023220  -0.019060  -0.019255
     3  H    0.004929   0.002661  -0.000423   0.000627   0.000279
     4  H   -0.015440  -0.004812   0.000547  -0.000454   0.002803
     5  H    0.005368  -0.042985  -0.006511  -0.002941   0.008730
     6  N    0.358105  -0.040207  -0.004522   0.005274  -0.001097
     7  H    0.608838  -0.007745   0.001197   0.000104   0.005218
     8  C   -0.007745   4.583465   0.385667   0.376216   0.374828
     9  H    0.001197   0.385667   0.651197  -0.030985  -0.034588
    10  H    0.000104   0.376216  -0.030985   0.645360  -0.024081
    11  H    0.005218   0.374828  -0.034588  -0.024081   0.671437
 Mulliken atomic charges:
              1
     1  C    0.007310
     2  C   -0.110793
     3  H    0.049630
     4  H    0.036443
     5  H    0.029474
     6  N   -0.213909
     7  H    0.104854
     8  C   -0.037163
     9  H    0.054750
    10  H    0.055107
    11  H    0.024297
 Sum of Mulliken atomic charges =   0.00000
 Mulliken charges with hydrogens summed into heavy atoms:
              1
     1  C    0.093384
     2  C   -0.081319
     6  N   -0.109055
     8  C    0.096990
 Sum of Mulliken charges with hydrogens summed into heavy atoms =   0.00000
 Electronic spatial extent (au):  <R**2>=            277.4525
 Charge=              0.0000 electrons
 Dipole moment (field-independent basis, Debye):
    X=              1.1976    Y=             -0.8402    Z=             -0.8336  Tot=              1.6838
 Quadrupole moment (field-independent basis, Debye-Ang):
   XX=            -26.8900   YY=            -26.6850   ZZ=            -24.0604
   XY=              2.0856   XZ=              0.7318   YZ=             -1.2762
 Traceless Quadrupole moment (field-independent basis, Debye-Ang):
   XX=             -1.0115   YY=             -0.8066   ZZ=              1.8181
   XY=              2.0856   XZ=              0.7318   YZ=             -1.2762
 Octapole moment (field-independent basis, Debye-Ang**2):
  XXX=              1.5159  YYY=              0.8588  ZZZ=             -0.9886  XYY=              1.5547
  XXY=             -3.1076  XXZ=              0.5005  XZZ=             -1.0565  YZZ=              1.0681
  YYZ=             -2.3493  XYZ=              1.2754
 Hexadecapole moment (field-independent basis, Debye-Ang**3):
 XXXX=           -224.9654 YYYY=            -84.7022 ZZZZ=            -58.5803 XXXY=              4.5025
 XXXZ=              0.7621 YYYX=              1.7000 YYYZ=             -3.0418 ZZZX=              0.8509
 ZZZY=             -1.4504 XXYY=            -50.9496 XXZZ=            -47.7648 YYZZ=            -23.2237
 XXYZ=             -2.2431 YYXZ=              2.1508 ZZXY=             -0.3437
 N-N= 1.256358603216D+02 E-N=-6.528558168391D+02  KE= 1.718449176914D+02
 Calculating spin-rotation constants.
 Leave Link  601 at Tue Mar 19 11:20:38 2013, MaxMem=  536870912 cpu:       2.0
 (Enter X:\G09W\l9999.exe)

 Test job not archived.
 1|1|UNPC-ALAUNDO|SP|RM06|Gen|C3H7N1|KUPROV|19-Mar-2013|0||#P Geom=AllC
 heck Guess=TCheck SCRF=Check GenChk RM06/ChkBas NMR=ReadFC IOp(3/6=22)
 ||Methylaziridine NMR properties||0,1|C,0,0.3897729498,0.1414902786,-0
 .0030635693|C,0,1.0925629986,1.4388225697,0.0013121318|H,0,-0.10699568
 ,-0.2224114263,-0.9085531148|H,0,-0.0863838068,-0.1722338771,0.9342701
 274|H,0,1.1159237031,2.0088004203,-0.93650961|N,0,1.8507996173,0.19085
 32067,-0.0728870106|H,0,2.2324568541,-0.0114379972,0.8558796905|C,0,1.
 1337916352,2.2648488713,1.2524184573|H,0,2.0712662191,2.8406578618,1.3
 251327521|H,0,0.2993842779,2.9837266449,1.2936000706|H,0,1.0644574416,
 1.6196429972,2.1455735849||Version=EM64W-G09RevC.01|State=1-A|HF=-173.
 1125943|RMSD=5.934e-009|Dipole=-0.3040664,0.2628522,0.5265879|Quadrupo
 le=-0.4254589,0.139572,0.2858869,0.8850519,1.5349269,-1.3024093|PG=C01
  [X(C3H7N1)]||@


 CHARLIE BROWN..'I CAN'T GET THAT STUPID KITE IN THE   
 AIR... I CAN'T... I C A N N O T...'                          
 LUCY..'OH COME NOW CHARLIE BROWN...THAT'S NO WAY TO TALK...  
 THE TROUBLE WITH YOU IS YOU DON'T BELIEVE IN YOURSELF... YOU 
 DON'T BELIEVE IN YOUR OWN ABILITIES...  YOU'VE GOT TO SAY TO 
 YOURSELF...'I BELIEVE I CAN FLY THIS KITE.'... GO AHEAD SAY  
 IT....'
 CHARLIE BROWN..'I BELIEVE THAT I CAN FLY THIS STUPID  
 KITE.....I BELIEVE THAT I CAN FLY THIS KITE........          
 I  A C T U A L L Y  B E L I E V E  T H A T  I  C A N ******' 
 LUCY..'I'LL BET YOU TEN-TO-ONE YOU'RE WRONG.......'    SCHULZ
 Job cpu time:  0 days  0 hours 21 minutes 12.0 seconds.
 File lengths (MBytes):  RWF=     35 Int=      0 D2E=      0 Chk=      4 Scr=      1
 Normal termination of Gaussian 09 at Tue Mar 19 11:20:38 2013.
