 Entering Link 1 = X:\G09W\l1.exe PID=      7104.
  
 Copyright (c) 1988,1990,1992,1993,1995,1998,2003,2009,2011,
            Gaussian, Inc.  All Rights Reserved.
  
 This is part of the Gaussian(R) 09 program.  It is based on
 the Gaussian(R) 03 system (copyright 2003, Gaussian, Inc.),
 the Gaussian(R) 98 system (copyright 1998, Gaussian, Inc.),
 the Gaussian(R) 94 system (copyright 1995, Gaussian, Inc.),
 the Gaussian 92(TM) system (copyright 1992, Gaussian, Inc.),
 the Gaussian 90(TM) system (copyright 1990, Gaussian, Inc.),
 the Gaussian 88(TM) system (copyright 1988, Gaussian, Inc.),
 the Gaussian 86(TM) system (copyright 1986, Carnegie Mellon
 University), and the Gaussian 82(TM) system (copyright 1983,
 Carnegie Mellon University). Gaussian is a federally registered
 trademark of Gaussian, Inc.
  
 This software contains proprietary and confidential information,
 including trade secrets, belonging to Gaussian, Inc.
  
 This software is provided under written license and may be
 used, copied, transmitted, or stored only in accord with that
 written license.
  
 The following legend is applicable only to US Government
 contracts under FAR:
  
                    RESTRICTED RIGHTS LEGEND
  
 Use, reproduction and disclosure by the US Government is
 subject to restrictions as set forth in subparagraphs (a)
 and (c) of the Commercial Computer Software - Restricted
 Rights clause in FAR 52.227-19.
  
 Gaussian, Inc.
 340 Quinnipiac St., Bldg. 40, Wallingford CT 06492
  
  
 ---------------------------------------------------------------
 Warning -- This program may not be used in any manner that
 competes with the business of Gaussian, Inc. or will provide
 assistance to any competitor of Gaussian, Inc.  The licensee
 of this program is prohibited from giving any competitor of
 Gaussian, Inc. access to this program.  By using this program,
 the user acknowledges that Gaussian, Inc. is engaged in the
 business of creating and licensing software in the field of
 computational chemistry and represents and warrants to the
 licensee that it is not a competitor of Gaussian, Inc. and that
 it will not use this program in any manner prohibited above.
 ---------------------------------------------------------------
  

 Cite this work as:
 Gaussian 09, Revision C.01,
 M. J. Frisch, G. W. Trucks, H. B. Schlegel, G. E. Scuseria, 
 M. A. Robb, J. R. Cheeseman, G. Scalmani, V. Barone, B. Mennucci, 
 G. A. Petersson, H. Nakatsuji, M. Caricato, X. Li, H. P. Hratchian, 
 A. F. Izmaylov, J. Bloino, G. Zheng, J. L. Sonnenberg, M. Hada, 
 M. Ehara, K. Toyota, R. Fukuda, J. Hasegawa, M. Ishida, T. Nakajima, 
 Y. Honda, O. Kitao, H. Nakai, T. Vreven, J. A. Montgomery, Jr., 
 J. E. Peralta, F. Ogliaro, M. Bearpark, J. J. Heyd, E. Brothers, 
 K. N. Kudin, V. N. Staroverov, T. Keith, R. Kobayashi, J. Normand, 
 K. Raghavachari, A. Rendell, J. C. Burant, S. S. Iyengar, J. Tomasi, 
 M. Cossi, N. Rega, J. M. Millam, M. Klene, J. E. Knox, J. B. Cross, 
 V. Bakken, C. Adamo, J. Jaramillo, R. Gomperts, R. E. Stratmann, 
 O. Yazyev, A. J. Austin, R. Cammi, C. Pomelli, J. W. Ochterski, 
 R. L. Martin, K. Morokuma, V. G. Zakrzewski, G. A. Voth, 
 P. Salvador, J. J. Dannenberg, S. Dapprich, A. D. Daniels, 
 O. Farkas, J. B. Foresman, J. V. Ortiz, J. Cioslowski, 
 and D. J. Fox, Gaussian, Inc., Wallingford CT, 2010.
 
 ******************************************
 Gaussian 09:  EM64W-G09RevC.01 23-Sep-2011
                21-May-2013 
 ******************************************
 %NProcShared=4
 Will use up to    4 processors via shared memory.
 %Mem=4GB
 %Chk=methylaziridine.chk
 ----------------------------------------------------------------------
 #p opt=tight m06/cc-pvdz scf=tight integral=(grid=ultrafine) output=pi
 ckett
 ----------------------------------------------------------------------
 1/7=10,14=-1,18=20,19=15,26=3,38=1/1,3;
 2/9=110,12=2,17=6,18=5,40=1/2;
 3/5=16,11=2,16=1,25=1,30=1,71=1,74=-54,75=-5/1,2,3;
 4//1;
 5/5=2,32=2,38=5/2;
 6/7=2,8=2,9=2,10=2,28=1/1;
 7//1,2,3,16;
 1/7=10,14=-1,18=20,19=15/3(2);
 2/9=110/2;
 99/10=1024/99;
 2/9=110/2;
 3/5=16,11=2,16=1,25=1,30=1,71=1,74=-54,75=-5/1,2,3;
 4/5=5,16=3/1;
 5/5=2,32=2,38=5/2;
 7//1,2,3,16;
 1/7=10,14=-1,18=20,19=15/3(-5);
 2/9=110/2;
 6/7=2,8=2,9=2,10=2,19=2,28=1/1;
 99/9=1,10=1024/99;
 Leave Link    1 at Tue May 21 12:53:10 2013, MaxMem=  536870912 cpu:       0.0
 (Enter X:\G09W\l101.exe)
 ------------------------
 Methylaziridine geometry
 ------------------------
 Charge =  0 Multiplicity = 1
 Symbolic Z-Matrix:
 C                    -1.01147  -0.64395  -0.14719 
 C                     0.15541  -0.02742   0.51257 
 H                    -1.81298  -1.09855   0.44445 
 H                    -0.84226  -1.11647  -1.12281 
 H                     0.17698  -0.02335   1.61005 
 N                    -0.90768   0.81182  -0.03824 
 H                    -1.48128   1.12533   0.75036 
 C                     1.49893  -0.06403  -0.15294 
 H                     2.09365   0.83236   0.08891 
 H                     2.0843   -0.94415   0.15923 
 H                     1.38702  -0.10821  -1.25036 
 
 NAtoms=     11 NQM=        0 NQMF=       0 NMMI=     11 NMMIF=      0
                NMic=       0 NMicF=      0.
                    Isotopes and Nuclear Properties:
 (Nuclear quadrupole moments (NQMom) in fm**2, nuclear magnetic moments (NMagM)
  in nuclear magnetons)

  Atom         1           2           3           4           5           6           7           8           9          10
 IAtWgt=          12          12           1           1           1          14           1          12           1           1
 AtmWgt=  12.0000000  12.0000000   1.0078250   1.0078250   1.0078250  14.0030740   1.0078250  12.0000000   1.0078250   1.0078250
 NucSpn=           0           0           1           1           1           2           1           0           1           1
 AtZEff=   0.0000000   0.0000000   0.0000000   0.0000000   0.0000000   0.0000000   0.0000000   0.0000000   0.0000000   0.0000000
 NQMom=    0.0000000   0.0000000   0.0000000   0.0000000   0.0000000   2.0440000   0.0000000   0.0000000   0.0000000   0.0000000
 NMagM=    0.0000000   0.0000000   2.7928460   2.7928460   2.7928460   0.4037610   2.7928460   0.0000000   2.7928460   2.7928460

  Atom        11
 IAtWgt=           1
 AtmWgt=   1.0078250
 NucSpn=           1
 AtZEff=   0.0000000
 NQMom=    0.0000000
 NMagM=    2.7928460
 Leave Link  101 at Tue May 21 12:53:10 2013, MaxMem=  536870912 cpu:       0.0
 (Enter X:\G09W\l103.exe)

 GradGradGradGradGradGradGradGradGradGradGradGradGradGradGradGradGradGrad
 Berny optimization.
 Initialization pass.
                           ----------------------------
                           !    Initial Parameters    !
                           ! (Angstroms and Degrees)  !
 --------------------------                            --------------------------
 ! Name  Definition              Value          Derivative Info.                !
 --------------------------------------------------------------------------------
 ! R1    R(1,2)                  1.4755         estimate D2E/DX2                !
 ! R2    R(1,3)                  1.095          estimate D2E/DX2                !
 ! R3    R(1,4)                  1.0972         estimate D2E/DX2                !
 ! R4    R(1,6)                  1.4635         estimate D2E/DX2                !
 ! R5    R(2,5)                  1.0977         estimate D2E/DX2                !
 ! R6    R(2,6)                  1.4621         estimate D2E/DX2                !
 ! R7    R(2,8)                  1.4998         estimate D2E/DX2                !
 ! R8    R(6,7)                  1.0243         estimate D2E/DX2                !
 ! R9    R(8,9)                  1.1026         estimate D2E/DX2                !
 ! R10   R(8,10)                 1.1021         estimate D2E/DX2                !
 ! R11   R(8,11)                 1.104          estimate D2E/DX2                !
 ! A1    A(2,1,3)              120.7126         estimate D2E/DX2                !
 ! A2    A(2,1,4)              117.104          estimate D2E/DX2                !
 ! A3    A(3,1,4)              114.4904         estimate D2E/DX2                !
 ! A4    A(3,1,6)              115.1276         estimate D2E/DX2                !
 ! A5    A(4,1,6)              118.9244         estimate D2E/DX2                !
 ! A6    A(1,2,5)              117.6561         estimate D2E/DX2                !
 ! A7    A(1,2,8)              119.9897         estimate D2E/DX2                !
 ! A8    A(5,2,6)              112.8798         estimate D2E/DX2                !
 ! A9    A(5,2,8)              115.2225         estimate D2E/DX2                !
 ! A10   A(6,2,8)              119.8792         estimate D2E/DX2                !
 ! A11   A(1,6,7)              108.7868         estimate D2E/DX2                !
 ! A12   A(2,6,7)              107.0263         estimate D2E/DX2                !
 ! A13   A(2,8,9)              111.4703         estimate D2E/DX2                !
 ! A14   A(2,8,10)             111.691          estimate D2E/DX2                !
 ! A15   A(2,8,11)             110.5652         estimate D2E/DX2                !
 ! A16   A(9,8,10)             107.4943         estimate D2E/DX2                !
 ! A17   A(9,8,11)             107.7733         estimate D2E/DX2                !
 ! A18   A(10,8,11)            107.663          estimate D2E/DX2                !
 ! D1    D(3,1,2,5)             -1.2934         estimate D2E/DX2                !
 ! D2    D(3,1,2,8)            147.7877         estimate D2E/DX2                !
 ! D3    D(4,1,2,5)           -149.0403         estimate D2E/DX2                !
 ! D4    D(4,1,2,8)              0.0408         estimate D2E/DX2                !
 ! D5    D(3,1,6,7)             12.888          estimate D2E/DX2                !
 ! D6    D(4,1,6,7)            154.36           estimate D2E/DX2                !
 ! D7    D(5,2,6,7)             -7.3492         estimate D2E/DX2                !
 ! D8    D(8,2,6,7)           -148.2347         estimate D2E/DX2                !
 ! D9    D(1,2,8,9)            147.7163         estimate D2E/DX2                !
 ! D10   D(1,2,8,10)           -92.0128         estimate D2E/DX2                !
 ! D11   D(1,2,8,11)            27.855          estimate D2E/DX2                !
 ! D12   D(5,2,8,9)            -62.488          estimate D2E/DX2                !
 ! D13   D(5,2,8,10)            57.7829         estimate D2E/DX2                !
 ! D14   D(5,2,8,11)           177.6507         estimate D2E/DX2                !
 ! D15   D(6,2,8,9)             77.5342         estimate D2E/DX2                !
 ! D16   D(6,2,8,10)          -162.1949         estimate D2E/DX2                !
 ! D17   D(6,2,8,11)           -42.3271         estimate D2E/DX2                !
 --------------------------------------------------------------------------------
 Trust Radius=3.00D-01 FncErr=1.00D-07 GrdErr=1.00D-06
 Number of steps in this run=     56 maximum allowed number of steps=    100.
 GradGradGradGradGradGradGradGradGradGradGradGradGradGradGradGradGradGrad

 Leave Link  103 at Tue May 21 12:53:10 2013, MaxMem=  536870912 cpu:       0.0
 (Enter X:\G09W\l202.exe)
                          Input orientation:                          
 ---------------------------------------------------------------------
 Center     Atomic      Atomic             Coordinates (Angstroms)
 Number     Number       Type             X           Y           Z
 ---------------------------------------------------------------------
      1          6           0       -1.011474   -0.643950   -0.147192
      2          6           0        0.155406   -0.027422    0.512572
      3          1           0       -1.812977   -1.098554    0.444452
      4          1           0       -0.842255   -1.116468   -1.122812
      5          1           0        0.176983   -0.023347    1.610045
      6          7           0       -0.907675    0.811819   -0.038237
      7          1           0       -1.481281    1.125328    0.750357
      8          6           0        1.498926   -0.064028   -0.152935
      9          1           0        2.093648    0.832363    0.088912
     10          1           0        2.084298   -0.944150    0.159225
     11          1           0        1.387021   -0.108214   -1.250363
 ---------------------------------------------------------------------
                    Distance matrix (angstroms):
                    1          2          3          4          5
     1  C    0.000000
     2  C    1.475467   0.000000
     3  H    1.095041   2.241985   0.000000
     4  H    1.097152   2.203595   1.843621   0.000000
     5  H    2.210308   1.097693   2.544527   3.114846   0.000000
     6  N    1.463526   1.462141   2.168429   2.213340   2.142620
     7  H    2.038788   2.015966   2.269196   2.990445   2.192797
     8  C    2.576519   1.499762   3.520769   2.743979   2.203925
     9  H    3.446306   2.162290   4.372250   3.726358   2.592236
    10  H    3.125350   2.164687   3.910748   3.199691   2.567218
    11  H    2.693841   2.152055   3.754086   2.450003   3.106981
                    6          7          8          9         10
     6  N    0.000000
     7  H    1.024301   0.000000
     8  C    2.563590   3.333487   0.000000
     9  H    3.004085   3.647390   1.102588   0.000000
    10  H    3.474812   4.164797   1.102143   1.777929   0.000000
    11  H    2.753423   3.708323   1.104003   1.782600   1.780989
                   11
    11  H    0.000000
 Stoichiometry    C3H7N
 Framework group  C1[X(C3H7N)]
 Deg. of freedom    27
 Full point group                 C1      NOp   1
 Largest Abelian subgroup         C1      NOp   1
 Largest concise Abelian subgroup C1      NOp   1
                         Standard orientation:                         
 ---------------------------------------------------------------------
 Center     Atomic      Atomic             Coordinates (Angstroms)
 Number     Number       Type             X           Y           Z
 ---------------------------------------------------------------------
      1          6           0        0.949411    0.719897    0.000428
      2          6           0       -0.161391   -0.142798    0.446388
      3          1           0        1.762258    0.983739    0.685105
      4          1           0        0.716220    1.488964   -0.746500
      5          1           0       -0.129255   -0.523659    1.475388
      6          7           0        0.902541   -0.688361   -0.395197
      7          1           0        1.524646   -1.223986    0.217408
      8          6           0       -1.536226    0.052430   -0.120181
      9          1           0       -2.086406   -0.901083   -0.181959
     10          1           0       -2.136401    0.741958    0.495498
     11          1           0       -1.479613    0.475418   -1.138366
 ---------------------------------------------------------------------
 Rotational constants (GHZ):     17.2770826      6.5288307      5.7453660
 Leave Link  202 at Tue May 21 12:53:10 2013, MaxMem=  536870912 cpu:       0.0
 (Enter X:\G09W\l301.exe)
 Standard basis: CC-pVDZ (5D, 7F)
 Ernie: Thresh=  0.10000D-02 Tol=  0.10000D-05 Strict=F.
 Ernie:  8 primitive shells out of 123 were deleted.
 There are    91 symmetry adapted basis functions of A   symmetry.
 Integral buffers will be    131072 words long.
 Raffenetti 2 integral format.
 Two-electron integral symmetry is turned on.
    91 basis functions,   181 primitive gaussians,    95 cartesian basis functions
    16 alpha electrons       16 beta electrons
       nuclear repulsion energy       125.2860809066 Hartrees.
 IExCor= 4235 DFT=T Ex+Corr=M06 ExCW=0 ScaHFX=  0.270000
 ScaDFX=  1.000000  1.000000  1.000000  1.000000 ScalE2=  1.000000  1.000000
 IRadAn=      5 IRanWt=     -1 IRanGd=            0 ICorTp=0
 NAtoms=   11 NActive=   11 NUniq=   11 SFac= 1.00D+00 NAtFMM=   60 NAOKFM=F Big=F
 Leave Link  301 at Tue May 21 12:53:11 2013, MaxMem=  536870912 cpu:       0.0
 (Enter X:\G09W\l302.exe)
 NPDir=0 NMtPBC=     1 NCelOv=     1 NCel=       1 NClECP=     1 NCelD=      1
         NCelK=      1 NCelE2=     1 NClLst=     1 CellRange=     0.0.
 One-electron integrals computed using PRISM.
 NBasis=    91 RedAO= T  NBF=    91
 NBsUse=    91 1.00D-06 NBFU=    91
 Precomputing XC quadrature grid using
 IXCGrd= 2 IRadAn=           5 IRanWt=          -1 IRanGd=           0 AccXCQ= 0.00D+00.
 NRdTot=     904 NPtTot=      241920 NUsed=      248404 NTot=      248436
 NSgBfM=    95    95    95    95    95 NAtAll=    11    11.
 Leave Link  302 at Tue May 21 12:53:12 2013, MaxMem=  536870912 cpu:       1.0
 (Enter X:\G09W\l303.exe)
 DipDrv:  MaxL=1.
 Leave Link  303 at Tue May 21 12:53:12 2013, MaxMem=  536870912 cpu:       0.0
 (Enter X:\G09W\l401.exe)
 Harris functional with IExCor= 1009 diagonalized for initial guess.
 ExpMin= 1.22D-01 ExpMax= 9.05D+03 ExpMxC= 3.09D+02 IAcc=3 IRadAn=         5 AccDes= 0.00D+00
 HarFok:  IExCor= 1009 AccDes= 0.00D+00 IRadAn=         5 IDoV= 1
 ScaDFX=  1.000000  1.000000  1.000000  1.000000
 FoFCou: FMM=F IPFlag=           0 FMFlag=      100000 FMFlg1=           0
         NFxFlg=           0 DoJE=T BraDBF=F KetDBF=T FulRan=T
         Omega=  0.000000  0.000000  1.000000  0.000000  0.000000 ICntrl=     500 IOpCl=  0
         NMat0=    1 NMatS0=    1 NMatT0=    0 NMatD0=    1 NMtDS0=    0 NMtDT0=    0
         I1Cent=           4 NGrid=           0.
 Petite list used in FoFCou.
 Harris En= -173.091847912357    
 Initial guess orbital symmetries:
       Occupied  (A) (A) (A) (A) (A) (A) (A) (A) (A) (A) (A) (A)
                 (A) (A) (A) (A)
       Virtual   (A) (A) (A) (A) (A) (A) (A) (A) (A) (A) (A) (A)
                 (A) (A) (A) (A) (A) (A) (A) (A) (A) (A) (A) (A)
                 (A) (A) (A) (A) (A) (A) (A) (A) (A) (A) (A) (A)
                 (A) (A) (A) (A) (A) (A) (A) (A) (A) (A) (A) (A)
                 (A) (A) (A) (A) (A) (A) (A) (A) (A) (A) (A) (A)
                 (A) (A) (A) (A) (A) (A) (A) (A) (A) (A) (A) (A)
                 (A) (A) (A)
 The electronic state of the initial guess is 1-A.
 Leave Link  401 at Tue May 21 12:53:13 2013, MaxMem=  536870912 cpu:       1.0
 (Enter X:\G09W\l502.exe)
 Closed shell SCF:
 Requested convergence on RMS density matrix=1.00D-08 within 128 cycles.
 Requested convergence on MAX density matrix=1.00D-06.
 Requested convergence on             energy=1.00D-06.
 No special actions if energy rises.
 Using DIIS extrapolation, IDIIS=  1040.
 Integral symmetry usage will be decided dynamically.
       248292 words used for storage of precomputed grid.
 Keep R1 ints in memory in canonical form, NReq=11610975.
 IEnd=      294811 IEndB=      294811 NGot=   536870912 MDV=   526202754
 LenX=   526202754 LenY=   526193288
 Symmetry not used in FoFDir.
 MinBra= 0 MaxBra= 2 Meth= 1.
 IRaf=       0 NMat=   1 IRICut=       1 DoRegI=T DoRafI=F ISym2E= 0 JSym2E=0.
 Integral accuracy reduced to 1.0D-05 until final iterations.

 Cycle   1  Pass 0  IDiag  1:
 E= -173.005763131259    
 DIIS: error= 3.41D-02 at cycle   1 NSaved=   1.
 NSaved= 1 IEnMin= 1 EnMin= -173.005763131259     IErMin= 1 ErrMin= 3.41D-02
 ErrMax= 3.41D-02 EMaxC= 1.00D-01 BMatC= 9.02D-02 BMatP= 9.02D-02
 IDIUse=3 WtCom= 6.59D-01 WtEn= 3.41D-01
 Coeff-Com:  0.100D+01
 Coeff-En:   0.100D+01
 Coeff:      0.100D+01
 Gap=     0.250 Goal=   None    Shift=    0.000
 GapD=    0.250 DampG=1.000 DampE=0.500 DampFc=0.5000 IDamp=-1.
 Damping current iteration by 5.00D-01
 RMSDP=7.06D-03 MaxDP=1.14D-01              OVMax= 1.52D-01

 Cycle   2  Pass 0  IDiag  1:
 E= -173.051946171075     Delta-E=       -0.046183039815 Rises=F Damp=T
 DIIS: error= 4.56D-03 at cycle   2 NSaved=   2.
 NSaved= 2 IEnMin= 2 EnMin= -173.051946171075     IErMin= 2 ErrMin= 4.56D-03
 ErrMax= 4.56D-03 EMaxC= 1.00D-01 BMatC= 3.07D-03 BMatP= 9.02D-02
 IDIUse=3 WtCom= 9.54D-01 WtEn= 4.56D-02
 Coeff-Com:  0.796D-01 0.920D+00
 Coeff-En:   0.120D+00 0.880D+00
 Coeff:      0.814D-01 0.919D+00
 Gap=     0.307 Goal=   None    Shift=    0.000
 RMSDP=1.03D-03 MaxDP=1.18D-02 DE=-4.62D-02 OVMax= 7.81D-02

 Cycle   3  Pass 0  IDiag  1:
 E= -173.109190936520     Delta-E=       -0.057244765445 Rises=F Damp=F
 DIIS: error= 2.17D-03 at cycle   3 NSaved=   3.
 NSaved= 3 IEnMin= 3 EnMin= -173.109190936520     IErMin= 3 ErrMin= 2.17D-03
 ErrMax= 2.17D-03 EMaxC= 1.00D-01 BMatC= 6.50D-04 BMatP= 3.07D-03
 IDIUse=3 WtCom= 9.78D-01 WtEn= 2.17D-02
 Coeff-Com:  0.100D-01 0.291D+00 0.698D+00
 Coeff-En:   0.000D+00 0.000D+00 0.100D+01
 Coeff:      0.981D-02 0.285D+00 0.705D+00
 Gap=     0.303 Goal=   None    Shift=    0.000
 RMSDP=3.19D-04 MaxDP=4.97D-03 DE=-5.72D-02 OVMax= 8.34D-03

 Cycle   4  Pass 0  IDiag  1:
 E= -173.109641983804     Delta-E=       -0.000451047284 Rises=F Damp=F
 DIIS: error= 7.71D-04 at cycle   4 NSaved=   4.
 NSaved= 4 IEnMin= 4 EnMin= -173.109641983804     IErMin= 4 ErrMin= 7.71D-04
 ErrMax= 7.71D-04 EMaxC= 1.00D-01 BMatC= 1.64D-04 BMatP= 6.50D-04
 IDIUse=3 WtCom= 9.92D-01 WtEn= 7.71D-03
 Coeff-Com:  0.165D-03 0.805D-01 0.358D+00 0.561D+00
 Coeff-En:   0.000D+00 0.000D+00 0.149D+00 0.851D+00
 Coeff:      0.163D-03 0.799D-01 0.356D+00 0.564D+00
 Gap=     0.305 Goal=   None    Shift=    0.000
 RMSDP=1.30D-04 MaxDP=2.65D-03 DE=-4.51D-04 OVMax= 3.66D-03

 Cycle   5  Pass 0  IDiag  1:
 E= -173.109784710004     Delta-E=       -0.000142726200 Rises=F Damp=F
 DIIS: error= 1.83D-04 at cycle   5 NSaved=   5.
 NSaved= 5 IEnMin= 5 EnMin= -173.109784710004     IErMin= 5 ErrMin= 1.83D-04
 ErrMax= 1.83D-04 EMaxC= 1.00D-01 BMatC= 8.27D-06 BMatP= 1.64D-04
 IDIUse=3 WtCom= 9.98D-01 WtEn= 1.83D-03
 Coeff-Com: -0.102D-02 0.324D-02 0.724D-01 0.226D+00 0.700D+00
 Coeff-En:   0.000D+00 0.000D+00 0.000D+00 0.000D+00 0.100D+01
 Coeff:     -0.102D-02 0.323D-02 0.722D-01 0.225D+00 0.700D+00
 Gap=     0.305 Goal=   None    Shift=    0.000
 RMSDP=3.17D-05 MaxDP=6.74D-04 DE=-1.43D-04 OVMax= 9.16D-04

 Cycle   6  Pass 0  IDiag  1:
 E= -173.109791052873     Delta-E=       -0.000006342870 Rises=F Damp=F
 DIIS: error= 8.04D-05 at cycle   6 NSaved=   6.
 NSaved= 6 IEnMin= 6 EnMin= -173.109791052873     IErMin= 6 ErrMin= 8.04D-05
 ErrMax= 8.04D-05 EMaxC= 1.00D-01 BMatC= 1.11D-06 BMatP= 8.27D-06
 IDIUse=1 WtCom= 1.00D+00 WtEn= 0.00D+00
 Coeff-Com: -0.441D-03-0.311D-02 0.129D-01 0.749D-01 0.354D+00 0.561D+00
 Coeff:     -0.441D-03-0.311D-02 0.129D-01 0.749D-01 0.354D+00 0.561D+00
 Gap=     0.305 Goal=   None    Shift=    0.000
 RMSDP=9.74D-06 MaxDP=2.43D-04 DE=-6.34D-06 OVMax= 2.70D-04

 Initial convergence to 1.0D-05 achieved.  Increase integral accuracy.
 Cycle   7  Pass 1  IDiag  1:
 E= -173.109793998875     Delta-E=       -0.000002946002 Rises=F Damp=F
 DIIS: error= 2.14D-05 at cycle   1 NSaved=   1.
 NSaved= 1 IEnMin= 1 EnMin= -173.109793998875     IErMin= 1 ErrMin= 2.14D-05
 ErrMax= 2.14D-05 EMaxC= 1.00D-01 BMatC= 9.94D-08 BMatP= 9.94D-08
 IDIUse=1 WtCom= 1.00D+00 WtEn= 0.00D+00
 Coeff-Com:  0.100D+01
 Coeff:      0.100D+01
 Gap=     0.305 Goal=   None    Shift=    0.000
 RMSDP=9.74D-06 MaxDP=2.43D-04 DE=-2.95D-06 OVMax= 1.36D-04

 Cycle   8  Pass 1  IDiag  1:
 E= -173.109794024493     Delta-E=       -0.000000025618 Rises=F Damp=F
 DIIS: error= 1.89D-05 at cycle   2 NSaved=   2.
 NSaved= 2 IEnMin= 2 EnMin= -173.109794024493     IErMin= 2 ErrMin= 1.89D-05
 ErrMax= 1.89D-05 EMaxC= 1.00D-01 BMatC= 8.62D-08 BMatP= 9.94D-08
 IDIUse=1 WtCom= 1.00D+00 WtEn= 0.00D+00
 Coeff-Com:  0.479D+00 0.521D+00
 Coeff:      0.479D+00 0.521D+00
 Gap=     0.305 Goal=   None    Shift=    0.000
 RMSDP=3.14D-06 MaxDP=7.97D-05 DE=-2.56D-08 OVMax= 8.56D-05

 Cycle   9  Pass 1  IDiag  1:
 E= -173.109794099906     Delta-E=       -0.000000075413 Rises=F Damp=F
 DIIS: error= 5.28D-06 at cycle   3 NSaved=   3.
 NSaved= 3 IEnMin= 3 EnMin= -173.109794099906     IErMin= 3 ErrMin= 5.28D-06
 ErrMax= 5.28D-06 EMaxC= 1.00D-01 BMatC= 6.26D-09 BMatP= 8.62D-08
 IDIUse=1 WtCom= 1.00D+00 WtEn= 0.00D+00
 Coeff-Com:  0.396D-01 0.217D+00 0.743D+00
 Coeff:      0.396D-01 0.217D+00 0.743D+00
 Gap=     0.305 Goal=   None    Shift=    0.000
 RMSDP=8.40D-07 MaxDP=1.79D-05 DE=-7.54D-08 OVMax= 2.26D-05

 Cycle  10  Pass 1  IDiag  1:
 E= -173.109794104959     Delta-E=       -0.000000005053 Rises=F Damp=F
 DIIS: error= 1.75D-06 at cycle   4 NSaved=   4.
 NSaved= 4 IEnMin= 4 EnMin= -173.109794104959     IErMin= 4 ErrMin= 1.75D-06
 ErrMax= 1.75D-06 EMaxC= 1.00D-01 BMatC= 6.16D-10 BMatP= 6.26D-09
 IDIUse=1 WtCom= 1.00D+00 WtEn= 0.00D+00
 Coeff-Com: -0.642D-02 0.823D-01 0.371D+00 0.553D+00
 Coeff:     -0.642D-02 0.823D-01 0.371D+00 0.553D+00
 Gap=     0.305 Goal=   None    Shift=    0.000
 RMSDP=2.54D-07 MaxDP=4.76D-06 DE=-5.05D-09 OVMax= 7.06D-06

 Cycle  11  Pass 1  IDiag  1:
 E= -173.109794105524     Delta-E=       -0.000000000565 Rises=F Damp=F
 DIIS: error= 3.41D-07 at cycle   5 NSaved=   5.
 NSaved= 5 IEnMin= 5 EnMin= -173.109794105524     IErMin= 5 ErrMin= 3.41D-07
 ErrMax= 3.41D-07 EMaxC= 1.00D-01 BMatC= 2.96D-11 BMatP= 6.16D-10
 IDIUse=1 WtCom= 1.00D+00 WtEn= 0.00D+00
 Coeff-Com: -0.526D-02 0.254D-01 0.125D+00 0.251D+00 0.604D+00
 Coeff:     -0.526D-02 0.254D-01 0.125D+00 0.251D+00 0.604D+00
 Gap=     0.305 Goal=   None    Shift=    0.000
 RMSDP=5.80D-08 MaxDP=9.97D-07 DE=-5.65D-10 OVMax= 1.48D-06

 Cycle  12  Pass 1  IDiag  1:
 E= -173.109794105548     Delta-E=       -0.000000000025 Rises=F Damp=F
 DIIS: error= 9.32D-08 at cycle   6 NSaved=   6.
 NSaved= 6 IEnMin= 6 EnMin= -173.109794105548     IErMin= 6 ErrMin= 9.32D-08
 ErrMax= 9.32D-08 EMaxC= 1.00D-01 BMatC= 1.51D-12 BMatP= 2.96D-11
 IDIUse=1 WtCom= 1.00D+00 WtEn= 0.00D+00
 Coeff-Com: -0.132D-02 0.117D-02 0.786D-02 0.332D-01 0.209D+00 0.751D+00
 Coeff:     -0.132D-02 0.117D-02 0.786D-02 0.332D-01 0.209D+00 0.751D+00
 Gap=     0.305 Goal=   None    Shift=    0.000
 RMSDP=1.68D-08 MaxDP=2.33D-07 DE=-2.46D-11 OVMax= 3.57D-07

 Cycle  13  Pass 1  IDiag  1:
 E= -173.109794105552     Delta-E=       -0.000000000004 Rises=F Damp=F
 DIIS: error= 5.68D-08 at cycle   7 NSaved=   7.
 NSaved= 7 IEnMin= 7 EnMin= -173.109794105552     IErMin= 7 ErrMin= 5.68D-08
 ErrMax= 5.68D-08 EMaxC= 1.00D-01 BMatC= 2.14D-13 BMatP= 1.51D-12
 IDIUse=1 WtCom= 1.00D+00 WtEn= 0.00D+00
 Coeff-Com: -0.293D-03-0.108D-02-0.453D-02-0.104D-02 0.575D-01 0.353D+00
 Coeff-Com:  0.597D+00
 Coeff:     -0.293D-03-0.108D-02-0.453D-02-0.104D-02 0.575D-01 0.353D+00
 Coeff:      0.597D+00
 Gap=     0.305 Goal=   None    Shift=    0.000
 RMSDP=4.88D-09 MaxDP=1.22D-07 DE=-3.87D-12 OVMax= 1.39D-07

 SCF Done:  E(RM06) =  -173.109794106     A.U. after   13 cycles
             Convg  =    0.4877D-08             -V/T =  2.0074
 KE= 1.718405073413D+02 PE=-6.522243860908D+02 EE= 1.819880037373D+02
 Leave Link  502 at Tue May 21 12:53:41 2013, MaxMem=  536870912 cpu:      27.0
 (Enter X:\G09W\l601.exe)
 Copying SCF densities to generalized density rwf, IOpCl= 0 IROHF=0.

 **********************************************************************

            Population analysis using the SCF density.

 **********************************************************************

 Orbital symmetries:
       Occupied  (A) (A) (A) (A) (A) (A) (A) (A) (A) (A) (A) (A)
                 (A) (A) (A) (A)
       Virtual   (A) (A) (A) (A) (A) (A) (A) (A) (A) (A) (A) (A)
                 (A) (A) (A) (A) (A) (A) (A) (A) (A) (A) (A) (A)
                 (A) (A) (A) (A) (A) (A) (A) (A) (A) (A) (A) (A)
                 (A) (A) (A) (A) (A) (A) (A) (A) (A) (A) (A) (A)
                 (A) (A) (A) (A) (A) (A) (A) (A) (A) (A) (A) (A)
                 (A) (A) (A) (A) (A) (A) (A) (A) (A) (A) (A) (A)
                 (A) (A) (A)
 The electronic state is 1-A.
 Alpha  occ. eigenvalues --  -14.39212 -10.27892 -10.27234 -10.24311  -0.97405
 Alpha  occ. eigenvalues --   -0.74024  -0.64897  -0.58297  -0.53061  -0.45341
 Alpha  occ. eigenvalues --   -0.42059  -0.40250  -0.37201  -0.33709  -0.32696
 Alpha  occ. eigenvalues --   -0.25066
 Alpha virt. eigenvalues --    0.05434   0.08987   0.10930   0.12383   0.12850
 Alpha virt. eigenvalues --    0.14355   0.15680   0.16018   0.22249   0.24444
 Alpha virt. eigenvalues --    0.30417   0.39436   0.42290   0.46050   0.48104
 Alpha virt. eigenvalues --    0.51082   0.54035   0.55865   0.56414   0.60877
 Alpha virt. eigenvalues --    0.61520   0.62289   0.63050   0.64129   0.65323
 Alpha virt. eigenvalues --    0.67494   0.72788   0.78413   0.81675   0.86126
 Alpha virt. eigenvalues --    0.87318   1.00059   1.08138   1.15555   1.17962
 Alpha virt. eigenvalues --    1.21811   1.28043   1.32435   1.38818   1.39315
 Alpha virt. eigenvalues --    1.41578   1.47050   1.49145   1.55785   1.58758
 Alpha virt. eigenvalues --    1.59626   1.60051   1.62481   1.65078   1.70848
 Alpha virt. eigenvalues --    1.72748   1.78371   1.80721   1.84076   1.87010
 Alpha virt. eigenvalues --    1.89986   1.97084   2.01712   2.03708   2.06822
 Alpha virt. eigenvalues --    2.15030   2.21609   2.22713   2.27938   2.36067
 Alpha virt. eigenvalues --    2.38274   2.39264   2.43122   2.49482   2.54014
 Alpha virt. eigenvalues --    2.58540   2.59567   2.63594   2.73887   2.93462
          Condensed to atoms (all electrons):
              1          2          3          4          5          6
     1  C    4.710108   0.325566   0.387415   0.386241  -0.021705   0.277231
     2  C    0.325566   4.828951  -0.007936  -0.021347   0.392633   0.252418
     3  H    0.387415  -0.007936   0.670445  -0.049206  -0.007661  -0.020655
     4  H    0.386241  -0.021347  -0.049206   0.647154   0.003736  -0.019013
     5  H   -0.021705   0.392633  -0.007661   0.003736   0.704734  -0.028351
     6  N    0.277231   0.252418  -0.020655  -0.019013  -0.028351   6.429502
     7  H   -0.021225  -0.022774  -0.015542   0.004884  -0.016181   0.350589
     8  C   -0.049190   0.437739   0.002639  -0.002090  -0.046018  -0.032456
     9  H    0.006491  -0.019668  -0.000274   0.000033  -0.003576  -0.002095
    10  H   -0.002508  -0.020678   0.000589  -0.000668  -0.004069   0.004311
    11  H   -0.008180  -0.014763   0.000206   0.003263   0.008919   0.000007
              7          8          9         10         11
     1  C   -0.021225  -0.049190   0.006491  -0.002508  -0.008180
     2  C   -0.022774   0.437739  -0.019668  -0.020678  -0.014763
     3  H   -0.015542   0.002639  -0.000274   0.000589   0.000206
     4  H    0.004884  -0.002090   0.000033  -0.000668   0.003263
     5  H   -0.016181  -0.046018  -0.003576  -0.004069   0.008919
     6  N    0.350589  -0.032456  -0.002095   0.004311   0.000007
     7  H    0.605420   0.004431   0.000676  -0.000457  -0.000574
     8  C    0.004431   4.567108   0.379543   0.378626   0.378255
     9  H    0.000676   0.379543   0.644514  -0.027735  -0.027113
    10  H   -0.000457   0.378626  -0.027735   0.651831  -0.027201
    11  H   -0.000574   0.378255  -0.027113  -0.027201   0.649174
 Mulliken atomic charges:
              1
     1  C    0.009757
     2  C   -0.130142
     3  H    0.039980
     4  H    0.047014
     5  H    0.017540
     6  N   -0.211487
     7  H    0.110755
     8  C   -0.018589
     9  H    0.049205
    10  H    0.047960
    11  H    0.038007
 Sum of Mulliken atomic charges =   0.00000
 Mulliken charges with hydrogens summed into heavy atoms:
              1
     1  C    0.096752
     2  C   -0.112602
     6  N   -0.100733
     8  C    0.116583
 Sum of Mulliken charges with hydrogens summed into heavy atoms =   0.00000
 Electronic spatial extent (au):  <R**2>=            280.7060
 Charge=              0.0000 electrons
 Dipole moment (field-independent basis, Debye):
    X=              0.0648    Y=              0.3856    Z=              1.4816  Tot=              1.5323
 Quadrupole moment (field-independent basis, Debye-Ang):
   XX=            -23.9670   YY=            -25.2966   ZZ=            -26.6331
   XY=             -0.2509   XZ=              1.9003   YZ=             -2.2681
 Traceless Quadrupole moment (field-independent basis, Debye-Ang):
   XX=              1.3319   YY=              0.0023   ZZ=             -1.3342
   XY=             -0.2509   XZ=              1.9003   YZ=             -2.2681
 Octapole moment (field-independent basis, Debye-Ang**2):
  XXX=              4.7014  YYY=             -1.9211  ZZZ=              1.3447  XYY=              1.9473
  XXY=             -2.0115  XXZ=              3.0094  XZZ=             -0.4499  YZZ=              0.7159
  YYZ=              0.9689  XYZ=             -1.6436
 Hexadecapole moment (field-independent basis, Debye-Ang**3):
 XXXX=           -223.0492 YYYY=            -83.1882 ZZZZ=            -59.5388 XXXY=             -4.6198
 XXXZ=              3.1680 YYYX=             -2.9307 YYYZ=             -3.1771 ZZZX=              2.0230
 ZZZY=             -3.2618 XXYY=            -47.4971 XXZZ=            -48.3737 YYZZ=            -24.5021
 XXYZ=             -0.4677 YYXZ=              1.4980 ZZXY=             -0.1682
 N-N= 1.252860809066D+02 E-N=-6.522243822992D+02  KE= 1.718405073413D+02
 No NMR shielding tensors so no spin-rotation constants.
 Leave Link  601 at Tue May 21 12:53:41 2013, MaxMem=  536870912 cpu:       0.0
 (Enter X:\G09W\l701.exe)
 Compute integral first derivatives.
 ... and contract with generalized density number  0.
 Leave Link  701 at Tue May 21 12:53:42 2013, MaxMem=  536870912 cpu:       0.0
 (Enter X:\G09W\l702.exe)
 L702 exits ... SP integral derivatives will be done elsewhere.
 Leave Link  702 at Tue May 21 12:53:42 2013, MaxMem=  536870912 cpu:       0.0
 (Enter X:\G09W\l703.exe)
 Compute integral first derivatives, UseDBF=F ICtDFT=           0.
 Integral derivatives from FoFDir, PRISM(SPDF).
 Calling FoFJK, ICntrl=      2127 FMM=F ISym2X=0 I1Cent= 0 IOpClX= 0 NMat=1 NMatS=1 NMatT=0.
 FoFCou: FMM=F IPFlag=           0 FMFlag=      100000 FMFlg1=         800
         NFxFlg=           0 DoJE=F BraDBF=F KetDBF=F FulRan=T
         Omega=  0.000000  0.000000  1.000000  0.000000  0.000000 ICntrl=    2127 IOpCl=  0
         NMat0=    1 NMatS0=    1 NMatT0=    0 NMatD0=    1 NMtDS0=    0 NMtDT0=    0
         I1Cent=           0 NGrid=           0.
 Symmetry not used in FoFCou.
 Leave Link  703 at Tue May 21 12:53:46 2013, MaxMem=  536870912 cpu:       4.0
 (Enter X:\G09W\l716.exe)
 Dipole        = 2.54909382D-02 1.51726038D-01 5.82906821D-01
 ***** Axes restored to original set *****
 -------------------------------------------------------------------
 Center     Atomic                   Forces (Hartrees/Bohr)
 Number     Number              X              Y              Z
 -------------------------------------------------------------------
      1        6          -0.006295944   -0.000968258    0.012265214
      2        6          -0.001790436   -0.003766669    0.010314748
      3        1           0.003446406   -0.005427459    0.000920445
      4        1          -0.003261751    0.006152338   -0.002771209
      5        1           0.002215666   -0.005861243    0.000445953
      6        7           0.009113588    0.004761004   -0.015678208
      7        1          -0.001051761   -0.001668942   -0.003894853
      8        6          -0.000390831    0.006101992   -0.003312338
      9        1           0.000015115   -0.000109177   -0.000512449
     10        1          -0.001838909   -0.000368751    0.000894934
     11        1          -0.000161143    0.001155165    0.001327763
 -------------------------------------------------------------------
 Cartesian Forces:  Max     0.015678208 RMS     0.005161868
 Leave Link  716 at Tue May 21 12:53:47 2013, MaxMem=  536870912 cpu:       0.0
 (Enter X:\G09W\l103.exe)

 GradGradGradGradGradGradGradGradGradGradGradGradGradGradGradGradGradGrad
 Berny optimization.
 Internal  Forces:  Max     0.014106016 RMS     0.004605942
 Search for a local minimum.
 Step number   1 out of a maximum of   56
 All quantities printed in internal units (Hartrees-Bohrs-Radians)
 RMS Force = .46059D-02 SwitMx=.10000D-02 MixMth= 1
 Mixed Optimization -- RFO/linear search
 Second derivative matrix not updated -- first step.
 ITU=  0
     Eigenvalues ---    0.00769   0.02224   0.02658   0.03733   0.03866
     Eigenvalues ---    0.05606   0.05698   0.05801   0.11683   0.12329
     Eigenvalues ---    0.15389   0.16000   0.16000   0.16000   0.16000
     Eigenvalues ---    0.17579   0.28988   0.32402   0.33243   0.33397
     Eigenvalues ---    0.33446   0.33461   0.33939   0.33999   0.34237
     Eigenvalues ---    0.36262   0.43659
 RFO step:  Lambda=-6.79613524D-03 EMin= 7.69097927D-03
 Linear search not attempted -- first point.
 Iteration  1 RMS(Cart)=  0.06258911 RMS(Int)=  0.00208042
 Iteration  2 RMS(Cart)=  0.00209135 RMS(Int)=  0.00080100
 Iteration  3 RMS(Cart)=  0.00000196 RMS(Int)=  0.00080100
 Iteration  4 RMS(Cart)=  0.00000000 RMS(Int)=  0.00080100
 Variable       Old X    -DE/DX   Delta X   Delta X   Delta X     New X
                                 (Linear)    (Quad)   (Total)
    R1        2.78823  -0.00257   0.00000  -0.00143  -0.00278   2.78545
    R2        2.06933   0.00023   0.00000   0.00065   0.00065   2.06998
    R3        2.07332  -0.00069   0.00000  -0.00199  -0.00199   2.07133
    R4        2.76566   0.00265   0.00000   0.00015   0.00191   2.76758
    R5        2.07434   0.00047   0.00000   0.00135   0.00135   2.07569
    R6        2.76305   0.00351   0.00000   0.01077   0.01037   2.77342
    R7        2.83414  -0.00158   0.00000  -0.00478  -0.00478   2.82936
    R8        1.93565  -0.00292   0.00000  -0.00659  -0.00659   1.92906
    R9        2.08359  -0.00019   0.00000  -0.00057  -0.00057   2.08302
   R10        2.08275  -0.00043   0.00000  -0.00126  -0.00126   2.08149
   R11        2.08626  -0.00135   0.00000  -0.00398  -0.00398   2.08229
    A1        2.10683  -0.00154   0.00000  -0.03477  -0.03459   2.07225
    A2        2.04385   0.00141   0.00000   0.04057   0.04116   2.08501
    A3        1.99823   0.00004   0.00000  -0.00196  -0.00182   1.99642
    A4        2.00936   0.01269   0.00000   0.07859   0.07987   2.08923
    A5        2.07562  -0.01411   0.00000  -0.08959  -0.08803   1.98759
    A6        2.05349  -0.00350   0.00000  -0.03849  -0.03869   2.01479
    A7        2.09422   0.00465   0.00000   0.03510   0.03631   2.13053
    A8        1.97012   0.01207   0.00000   0.08081   0.08113   2.05125
    A9        2.01101  -0.00038   0.00000  -0.00139  -0.00172   2.00929
   A10        2.09229  -0.01363   0.00000  -0.07456  -0.07274   2.01954
   A11        1.89869  -0.00739   0.00000  -0.02742  -0.02749   1.87120
   A12        1.86796  -0.00415   0.00000   0.01744   0.01802   1.88598
   A13        1.94552   0.00102   0.00000   0.00636   0.00637   1.95190
   A14        1.94938  -0.00286   0.00000  -0.01708  -0.01708   1.93229
   A15        1.92973  -0.00010   0.00000  -0.00092  -0.00093   1.92880
   A16        1.87613   0.00106   0.00000   0.00687   0.00689   1.88302
   A17        1.88100  -0.00049   0.00000  -0.00302  -0.00302   1.87798
   A18        1.87907   0.00149   0.00000   0.00849   0.00846   1.88754
    D1       -0.02257  -0.00036   0.00000   0.00056   0.00075  -0.02182
    D2        2.57938   0.00100   0.00000  -0.00991  -0.00894   2.57044
    D3       -2.60124  -0.00022   0.00000  -0.00707  -0.00824  -2.60949
    D4        0.00071   0.00113   0.00000  -0.01754  -0.01794  -0.01723
    D5        0.22494  -0.00536   0.00000  -0.10857  -0.10904   0.11590
    D6        2.69409  -0.00697   0.00000  -0.12580  -0.12475   2.56934
    D7       -0.12827   0.00264   0.00000   0.04239   0.04220  -0.08606
    D8       -2.58718   0.00481   0.00000   0.03191   0.03190  -2.55529
    D9        2.57814  -0.00079   0.00000   0.01518   0.01398   2.59212
   D10       -1.60593  -0.00070   0.00000   0.01659   0.01537  -1.59055
   D11        0.48616  -0.00077   0.00000   0.01541   0.01421   0.50038
   D12       -1.09062  -0.00043   0.00000  -0.00636  -0.00660  -1.09722
   D13        1.00850  -0.00034   0.00000  -0.00495  -0.00521   1.00330
   D14        3.10059  -0.00042   0.00000  -0.00613  -0.00637   3.09422
   D15        1.35323   0.00175   0.00000   0.03358   0.03504   1.38826
   D16       -2.83084   0.00184   0.00000   0.03500   0.03643  -2.79441
   D17       -0.73875   0.00176   0.00000   0.03381   0.03527  -0.70348
         Item               Value     Threshold  Converged?
 Maximum Force            0.014106     0.000015     NO 
 RMS     Force            0.004606     0.000010     NO 
 Maximum Displacement     0.205503     0.000060     NO 
 RMS     Displacement     0.062858     0.000040     NO 
 Predicted change in Energy=-3.641346D-03
 GradGradGradGradGradGradGradGradGradGradGradGradGradGradGradGradGradGrad

 Leave Link  103 at Tue May 21 12:53:47 2013, MaxMem=  536870912 cpu:       0.0
 (Enter X:\G09W\l202.exe)
                          Input orientation:                          
 ---------------------------------------------------------------------
 Center     Atomic      Atomic             Coordinates (Angstroms)
 Number     Number       Type             X           Y           Z
 ---------------------------------------------------------------------
      1          6           0       -1.025089   -0.655300   -0.117808
      2          6           0        0.159638   -0.053192    0.519808
      3          1           0       -1.783961   -1.124279    0.517837
      4          1           0       -0.933043   -1.099577   -1.115597
      5          1           0        0.181905   -0.103673    1.616829
      6          7           0       -0.861482    0.799955   -0.099377
      7          1           0       -1.462975    1.162183    0.641609
      8          6           0        1.501862   -0.045559   -0.143573
      9          1           0        2.091389    0.843476    0.134121
     10          1           0        2.081659   -0.938119    0.140024
     11          1           0        1.390717   -0.042539   -1.239848
 ---------------------------------------------------------------------
                    Distance matrix (angstroms):
                    1          2          3          4          5
     1  C    0.000000
     2  C    1.473997   0.000000
     3  H    1.095387   2.219190   0.000000
     4  H    1.096101   2.227874   1.841949   0.000000
     5  H    2.184054   1.098407   2.472660   3.114657   0.000000
     6  N    1.464538   1.467629   2.221395   2.155469   2.202399
     7  H    2.017846   2.030971   2.312198   2.912758   2.293267
     8  C    2.599602   1.497231   3.521041   2.825695   2.201064
     9  H    3.467309   2.164354   4.363213   3.805843   2.596467
    10  H    3.130231   2.149766   3.888497   3.269722   2.546825
    11  H    2.733234   2.147571   3.786581   2.555902   3.102510
                    6          7          8          9         10
     6  N    0.000000
     7  H    1.020815   0.000000
     8  C    2.510427   3.296272   0.000000
     9  H    2.962408   3.604527   1.102288   0.000000
    10  H    3.426410   4.150576   1.101478   1.781631   0.000000
    11  H    2.661366   3.624196   1.101898   1.778694   1.784239
                   11
    11  H    0.000000
 Stoichiometry    C3H7N
 Framework group  C1[X(C3H7N)]
 Deg. of freedom    27
 Full point group                 C1      NOp   1
 RotChk:  IX=0 Diff= 2.02D-01
 Largest Abelian subgroup         C1      NOp   1
 Largest concise Abelian subgroup C1      NOp   1
                         Standard orientation:                         
 ---------------------------------------------------------------------
 Center     Atomic      Atomic             Coordinates (Angstroms)
 Number     Number       Type             X           Y           Z
 ---------------------------------------------------------------------
      1          6           0        0.993791    0.683204   -0.056810
      2          6           0       -0.164514   -0.056606    0.475803
      3          1           0        1.769582    1.019128    0.639735
      4          1           0        0.865386    1.325842   -0.935426
      5          1           0       -0.150920   -0.238099    1.559027
      6          7           0        0.842187   -0.745654   -0.340101
      7          1           0        1.470625   -1.246713    0.289239
      8          6           0       -1.527822    0.055811   -0.132848
      9          1           0       -2.100931   -0.880203   -0.030566
     10          1           0       -2.104846    0.860323    0.349912
     11          1           0       -1.452933    0.284836   -1.208078
 ---------------------------------------------------------------------
 Rotational constants (GHZ):     17.1671874      6.5577334      5.8136493
 Leave Link  202 at Tue May 21 12:53:47 2013, MaxMem=  536870912 cpu:       0.0
 (Enter X:\G09W\l301.exe)
 Standard basis: CC-pVDZ (5D, 7F)
 Ernie: Thresh=  0.10000D-02 Tol=  0.10000D-05 Strict=F.
 Ernie:  8 primitive shells out of 123 were deleted.
 There are    91 symmetry adapted basis functions of A   symmetry.
 Integral buffers will be    131072 words long.
 Raffenetti 2 integral format.
 Two-electron integral symmetry is turned on.
    91 basis functions,   181 primitive gaussians,    95 cartesian basis functions
    16 alpha electrons       16 beta electrons
       nuclear repulsion energy       125.4020619536 Hartrees.
 IExCor= 4235 DFT=T Ex+Corr=M06 ExCW=0 ScaHFX=  0.270000
 ScaDFX=  1.000000  1.000000  1.000000  1.000000 ScalE2=  1.000000  1.000000
 IRadAn=      5 IRanWt=     -1 IRanGd=            0 ICorTp=0
 NAtoms=   11 NActive=   11 NUniq=   11 SFac= 1.00D+00 NAtFMM=   60 NAOKFM=F Big=F
 Leave Link  301 at Tue May 21 12:53:47 2013, MaxMem=  536870912 cpu:       0.0
 (Enter X:\G09W\l302.exe)
 NPDir=0 NMtPBC=     1 NCelOv=     1 NCel=       1 NClECP=     1 NCelD=      1
         NCelK=      1 NCelE2=     1 NClLst=     1 CellRange=     0.0.
 One-electron integrals computed using PRISM.
 NBasis=    91 RedAO= T  NBF=    91
 NBsUse=    91 1.00D-06 NBFU=    91
 Precomputing XC quadrature grid using
 IXCGrd= 2 IRadAn=           5 IRanWt=          -1 IRanGd=           0 AccXCQ= 0.00D+00.
 NRdTot=     904 NPtTot=      241920 NUsed=      248404 NTot=      248436
 NSgBfM=    95    95    95    95    95 NAtAll=    11    11.
 Leave Link  302 at Tue May 21 12:53:47 2013, MaxMem=  536870912 cpu:       0.0
 (Enter X:\G09W\l303.exe)
 DipDrv:  MaxL=1.
 Leave Link  303 at Tue May 21 12:53:47 2013, MaxMem=  536870912 cpu:       0.0
 (Enter X:\G09W\l401.exe)
 Initial guess read from the read-write file.
 B after Tr=     0.000000    0.000000    0.000000
         Rot=    1.000000    0.000000    0.000000    0.000000 Ang=   0.00 deg.
 Guess basis will be translated and rotated to current coordinates.
 Initial guess orbital symmetries:
       Occupied  (A) (A) (A) (A) (A) (A) (A) (A) (A) (A) (A) (A)
                 (A) (A) (A) (A)
       Virtual   (A) (A) (A) (A) (A) (A) (A) (A) (A) (A) (A) (A)
                 (A) (A) (A) (A) (A) (A) (A) (A) (A) (A) (A) (A)
                 (A) (A) (A) (A) (A) (A) (A) (A) (A) (A) (A) (A)
                 (A) (A) (A) (A) (A) (A) (A) (A) (A) (A) (A) (A)
                 (A) (A) (A) (A) (A) (A) (A) (A) (A) (A) (A) (A)
                 (A) (A) (A) (A) (A) (A) (A) (A) (A) (A) (A) (A)
                 (A) (A) (A)
 The electronic state of the initial guess is 1-A.
 Generating alternative initial guess.
 Harris functional with IExCor= 1009 diagonalized for initial guess.
 ExpMin= 1.22D-01 ExpMax= 9.05D+03 ExpMxC= 3.09D+02 IAcc=3 IRadAn=         5 AccDes= 0.00D+00
 HarFok:  IExCor= 1009 AccDes= 0.00D+00 IRadAn=         5 IDoV= 1
 ScaDFX=  1.000000  1.000000  1.000000  1.000000
 FoFCou: FMM=F IPFlag=           0 FMFlag=      100000 FMFlg1=           0
         NFxFlg=           0 DoJE=T BraDBF=F KetDBF=T FulRan=T
         Omega=  0.000000  0.000000  1.000000  0.000000  0.000000 ICntrl=     500 IOpCl=  0
         NMat0=    1 NMatS0=    1 NMatT0=    0 NMatD0=    1 NMtDS0=    0 NMtDT0=    0
         I1Cent=           4 NGrid=           0.
 Petite list used in FoFCou.
 Harris En= -173.094510981628    
 Leave Link  401 at Tue May 21 12:53:49 2013, MaxMem=  536870912 cpu:       2.0
 (Enter X:\G09W\l502.exe)
 Closed shell SCF:
 Requested convergence on RMS density matrix=1.00D-08 within 128 cycles.
 Requested convergence on MAX density matrix=1.00D-06.
 Requested convergence on             energy=1.00D-06.
 No special actions if energy rises.
 Using DIIS extrapolation, IDIIS=  1040.
 Integral symmetry usage will be decided dynamically.
       248292 words used for storage of precomputed grid.
 Keep R1 ints in memory in canonical form, NReq=11610975.
 IEnd=      294811 IEndB=      294811 NGot=   536870912 MDV=   526202754
 LenX=   526202754 LenY=   526193288
 Symmetry not used in FoFDir.
 MinBra= 0 MaxBra= 2 Meth= 1.
 IRaf=       0 NMat=   1 IRICut=       1 DoRegI=T DoRafI=F ISym2E= 0 JSym2E=0.
 Integral accuracy reduced to 1.0D-05 until final iterations.

 Cycle   1  Pass 0  IDiag  1:
 E= -173.093078262828    
 DIIS: error= 8.14D-03 at cycle   1 NSaved=   1.
 NSaved= 1 IEnMin= 1 EnMin= -173.093078262828     IErMin= 1 ErrMin= 8.14D-03
 ErrMax= 8.14D-03 EMaxC= 1.00D-01 BMatC= 1.04D-02 BMatP= 1.04D-02
 IDIUse=3 WtCom= 9.19D-01 WtEn= 8.14D-02
 Coeff-Com:  0.100D+01
 Coeff-En:   0.100D+01
 Coeff:      0.100D+01
 Gap=     0.323 Goal=   None    Shift=    0.000
 GapD=    0.323 DampG=1.000 DampE=1.000 DampFc=1.0000 IDamp=-1.
 RMSDP=1.71D-03 MaxDP=2.94D-02              OVMax= 3.61D-02

 Cycle   2  Pass 0  IDiag  1:
 E= -173.112385269948     Delta-E=       -0.019307007120 Rises=F Damp=F
 DIIS: error= 1.02D-03 at cycle   2 NSaved=   2.
 NSaved= 2 IEnMin= 2 EnMin= -173.112385269948     IErMin= 2 ErrMin= 1.02D-03
 ErrMax= 1.02D-03 EMaxC= 1.00D-01 BMatC= 1.38D-04 BMatP= 1.04D-02
 IDIUse=3 WtCom= 9.90D-01 WtEn= 1.02D-02
 Coeff-Com: -0.954D-01 0.110D+01
 Coeff-En:   0.000D+00 0.100D+01
 Coeff:     -0.944D-01 0.109D+01
 Gap=     0.319 Goal=   None    Shift=    0.000
 RMSDP=2.44D-04 MaxDP=3.30D-03 DE=-1.93D-02 OVMax= 5.92D-03

 Cycle   3  Pass 0  IDiag  1:
 E= -173.112680875459     Delta-E=       -0.000295605511 Rises=F Damp=F
 DIIS: error= 3.23D-04 at cycle   3 NSaved=   3.
 NSaved= 3 IEnMin= 3 EnMin= -173.112680875459     IErMin= 3 ErrMin= 3.23D-04
 ErrMax= 3.23D-04 EMaxC= 1.00D-01 BMatC= 1.70D-05 BMatP= 1.38D-04
 IDIUse=3 WtCom= 9.97D-01 WtEn= 3.23D-03
 Coeff-Com: -0.331D-01 0.334D+00 0.699D+00
 Coeff-En:   0.000D+00 0.000D+00 0.100D+01
 Coeff:     -0.330D-01 0.333D+00 0.700D+00
 Gap=     0.319 Goal=   None    Shift=    0.000
 RMSDP=6.30D-05 MaxDP=9.88D-04 DE=-2.96D-04 OVMax= 1.75D-03

 Cycle   4  Pass 0  IDiag  1:
 E= -173.112693480994     Delta-E=       -0.000012605535 Rises=F Damp=F
 DIIS: error= 1.49D-04 at cycle   4 NSaved=   4.
 NSaved= 4 IEnMin= 4 EnMin= -173.112693480994     IErMin= 4 ErrMin= 1.49D-04
 ErrMax= 1.49D-04 EMaxC= 1.00D-01 BMatC= 5.18D-06 BMatP= 1.70D-05
 IDIUse=3 WtCom= 9.99D-01 WtEn= 1.49D-03
 Coeff-Com: -0.597D-02 0.450D-01 0.358D+00 0.603D+00
 Coeff-En:   0.000D+00 0.000D+00 0.189D+00 0.811D+00
 Coeff:     -0.596D-02 0.450D-01 0.357D+00 0.604D+00
 Gap=     0.319 Goal=   None    Shift=    0.000
 RMSDP=2.42D-05 MaxDP=5.10D-04 DE=-1.26D-05 OVMax= 6.07D-04

 Cycle   5  Pass 0  IDiag  1:
 E= -173.112698456571     Delta-E=       -0.000004975576 Rises=F Damp=F
 DIIS: error= 2.60D-05 at cycle   5 NSaved=   5.
 NSaved= 5 IEnMin= 5 EnMin= -173.112698456571     IErMin= 5 ErrMin= 2.60D-05
 ErrMax= 2.60D-05 EMaxC= 1.00D-01 BMatC= 1.86D-07 BMatP= 5.18D-06
 IDIUse=1 WtCom= 1.00D+00 WtEn= 0.00D+00
 Coeff-Com:  0.734D-03-0.145D-01 0.675D-01 0.216D+00 0.730D+00
 Coeff:      0.734D-03-0.145D-01 0.675D-01 0.216D+00 0.730D+00
 Gap=     0.319 Goal=   None    Shift=    0.000
 RMSDP=4.85D-06 MaxDP=8.98D-05 DE=-4.98D-06 OVMax= 1.15D-04

 Initial convergence to 1.0D-05 achieved.  Increase integral accuracy.
 Cycle   6  Pass 1  IDiag  1:
 E= -173.112691602877     Delta-E=        0.000006853694 Rises=F Damp=F
 DIIS: error= 1.94D-05 at cycle   1 NSaved=   1.
 NSaved= 1 IEnMin= 1 EnMin= -173.112691602877     IErMin= 1 ErrMin= 1.94D-05
 ErrMax= 1.94D-05 EMaxC= 1.00D-01 BMatC= 7.47D-08 BMatP= 7.47D-08
 IDIUse=1 WtCom= 1.00D+00 WtEn= 0.00D+00
 Coeff-Com:  0.100D+01
 Coeff:      0.100D+01
 Gap=     0.319 Goal=   None    Shift=    0.000
 RMSDP=4.85D-06 MaxDP=8.98D-05 DE= 6.85D-06 OVMax= 1.02D-04

 Cycle   7  Pass 1  IDiag  1:
 E= -173.112691648175     Delta-E=       -0.000000045298 Rises=F Damp=F
 DIIS: error= 1.34D-05 at cycle   2 NSaved=   2.
 NSaved= 2 IEnMin= 2 EnMin= -173.112691648175     IErMin= 2 ErrMin= 1.34D-05
 ErrMax= 1.34D-05 EMaxC= 1.00D-01 BMatC= 3.80D-08 BMatP= 7.47D-08
 IDIUse=1 WtCom= 1.00D+00 WtEn= 0.00D+00
 Coeff-Com:  0.388D+00 0.612D+00
 Coeff:      0.388D+00 0.612D+00
 Gap=     0.319 Goal=   None    Shift=    0.000
 RMSDP=2.48D-06 MaxDP=5.82D-05 DE=-4.53D-08 OVMax= 8.44D-05

 Cycle   8  Pass 1  IDiag  1:
 E= -173.112691671344     Delta-E=       -0.000000023169 Rises=F Damp=F
 DIIS: error= 7.61D-06 at cycle   3 NSaved=   3.
 NSaved= 3 IEnMin= 3 EnMin= -173.112691671344     IErMin= 3 ErrMin= 7.61D-06
 ErrMax= 7.61D-06 EMaxC= 1.00D-01 BMatC= 1.19D-08 BMatP= 3.80D-08
 IDIUse=1 WtCom= 1.00D+00 WtEn= 0.00D+00
 Coeff-Com:  0.155D-01 0.358D+00 0.626D+00
 Coeff:      0.155D-01 0.358D+00 0.626D+00
 Gap=     0.319 Goal=   None    Shift=    0.000
 RMSDP=9.39D-07 MaxDP=2.36D-05 DE=-2.32D-08 OVMax= 3.20D-05

 Cycle   9  Pass 1  IDiag  1:
 E= -173.112691681528     Delta-E=       -0.000000010184 Rises=F Damp=F
 DIIS: error= 7.25D-07 at cycle   4 NSaved=   4.
 NSaved= 4 IEnMin= 4 EnMin= -173.112691681528     IErMin= 4 ErrMin= 7.25D-07
 ErrMax= 7.25D-07 EMaxC= 1.00D-01 BMatC= 1.13D-10 BMatP= 1.19D-08
 IDIUse=1 WtCom= 1.00D+00 WtEn= 0.00D+00
 Coeff-Com: -0.328D-02 0.118D+00 0.228D+00 0.657D+00
 Coeff:     -0.328D-02 0.118D+00 0.228D+00 0.657D+00
 Gap=     0.319 Goal=   None    Shift=    0.000
 RMSDP=1.27D-07 MaxDP=2.37D-06 DE=-1.02D-08 OVMax= 2.90D-06

 Cycle  10  Pass 1  IDiag  1:
 E= -173.112691681634     Delta-E=       -0.000000000106 Rises=F Damp=F
 DIIS: error= 3.71D-07 at cycle   5 NSaved=   5.
 NSaved= 5 IEnMin= 5 EnMin= -173.112691681634     IErMin= 5 ErrMin= 3.71D-07
 ErrMax= 3.71D-07 EMaxC= 1.00D-01 BMatC= 1.12D-11 BMatP= 1.13D-10
 IDIUse=1 WtCom= 1.00D+00 WtEn= 0.00D+00
 Coeff-Com: -0.284D-02 0.201D-01 0.434D-01 0.269D+00 0.671D+00
 Coeff:     -0.284D-02 0.201D-01 0.434D-01 0.269D+00 0.671D+00
 Gap=     0.319 Goal=   None    Shift=    0.000
 RMSDP=3.54D-08 MaxDP=7.96D-07 DE=-1.06D-10 OVMax= 8.95D-07

 Cycle  11  Pass 1  IDiag  1:
 E= -173.112691681643     Delta-E=       -0.000000000009 Rises=F Damp=F
 DIIS: error= 6.53D-08 at cycle   6 NSaved=   6.
 NSaved= 6 IEnMin= 6 EnMin= -173.112691681643     IErMin= 6 ErrMin= 6.53D-08
 ErrMax= 6.53D-08 EMaxC= 1.00D-01 BMatC= 5.33D-13 BMatP= 1.12D-11
 IDIUse=1 WtCom= 1.00D+00 WtEn= 0.00D+00
 Coeff-Com: -0.794D-03-0.168D-03 0.128D-02 0.486D-01 0.231D+00 0.720D+00
 Coeff:     -0.794D-03-0.168D-03 0.128D-02 0.486D-01 0.231D+00 0.720D+00
 Gap=     0.319 Goal=   None    Shift=    0.000
 RMSDP=1.00D-08 MaxDP=1.58D-07 DE=-8.98D-12 OVMax= 2.01D-07

 Cycle  12  Pass 1  IDiag  1:
 E= -173.112691681644     Delta-E=       -0.000000000001 Rises=F Damp=F
 DIIS: error= 1.06D-08 at cycle   7 NSaved=   7.
 NSaved= 7 IEnMin= 7 EnMin= -173.112691681644     IErMin= 7 ErrMin= 1.06D-08
 ErrMax= 1.06D-08 EMaxC= 1.00D-01 BMatC= 2.67D-14 BMatP= 5.33D-13
 IDIUse=1 WtCom= 1.00D+00 WtEn= 0.00D+00
 Coeff-Com: -0.103D-03-0.101D-02-0.159D-02 0.242D-02 0.407D-01 0.228D+00
 Coeff-Com:  0.732D+00
 Coeff:     -0.103D-03-0.101D-02-0.159D-02 0.242D-02 0.407D-01 0.228D+00
 Coeff:      0.732D+00
 Gap=     0.319 Goal=   None    Shift=    0.000
 RMSDP=2.41D-09 MaxDP=4.30D-08 DE=-1.31D-12 OVMax= 6.63D-08

 SCF Done:  E(RM06) =  -173.112691682     A.U. after   12 cycles
             Convg  =    0.2413D-08             -V/T =  2.0073
 KE= 1.718561022892D+02 PE=-6.524811315812D+02 EE= 1.821102756568D+02
 Leave Link  502 at Tue May 21 12:54:12 2013, MaxMem=  536870912 cpu:      23.0
 (Enter X:\G09W\l701.exe)
 Compute integral first derivatives.
 ... and contract with generalized density number  0.
 Leave Link  701 at Tue May 21 12:54:12 2013, MaxMem=  536870912 cpu:       0.0
 (Enter X:\G09W\l702.exe)
 L702 exits ... SP integral derivatives will be done elsewhere.
 Leave Link  702 at Tue May 21 12:54:12 2013, MaxMem=  536870912 cpu:       0.0
 (Enter X:\G09W\l703.exe)
 Compute integral first derivatives, UseDBF=F ICtDFT=           0.
 Integral derivatives from FoFDir, PRISM(SPDF).
 Calling FoFJK, ICntrl=      2127 FMM=F ISym2X=0 I1Cent= 0 IOpClX= 0 NMat=1 NMatS=1 NMatT=0.
 FoFCou: FMM=F IPFlag=           0 FMFlag=      100000 FMFlg1=         800
         NFxFlg=           0 DoJE=F BraDBF=F KetDBF=F FulRan=T
         Omega=  0.000000  0.000000  1.000000  0.000000  0.000000 ICntrl=    2127 IOpCl=  0
         NMat0=    1 NMatS0=    1 NMatT0=    0 NMatD0=    1 NMtDS0=    0 NMtDT0=    0
         I1Cent=           0 NGrid=           0.
 Symmetry not used in FoFCou.
 Leave Link  703 at Tue May 21 12:54:15 2013, MaxMem=  536870912 cpu:       3.0
 (Enter X:\G09W\l716.exe)
 Dipole        = 7.52577933D-02 1.93951201D-01 5.63740408D-01
 ***** Axes restored to original set *****
 -------------------------------------------------------------------
 Center     Atomic                   Forces (Hartrees/Bohr)
 Number     Number              X              Y              Z
 -------------------------------------------------------------------
      1        6           0.000700640   -0.001214323   -0.004261945
      2        6           0.000400732    0.001206129   -0.000946702
      3        1          -0.000277520    0.000559630    0.000282290
      4        1           0.000597898   -0.001294202    0.000301703
      5        1          -0.000401883    0.001206011    0.000204506
      6        7          -0.000510790   -0.002248452    0.004717235
      7        1          -0.001081021    0.003497739    0.000065818
      8        6           0.000961331   -0.001800964   -0.000848723
      9        1          -0.000742725   -0.000039345    0.000439518
     10        1           0.001043804   -0.000215199   -0.000323224
     11        1          -0.000690467    0.000342976    0.000369524
 -------------------------------------------------------------------
 Cartesian Forces:  Max     0.004717235 RMS     0.001512311
 Leave Link  716 at Tue May 21 12:54:16 2013, MaxMem=  536870912 cpu:       0.0
 (Enter X:\G09W\l103.exe)

 GradGradGradGradGradGradGradGradGradGradGradGradGradGradGradGradGradGrad
 Berny optimization.
 Using GEDIIS/GDIIS optimizer.
 Internal  Forces:  Max     0.004061456 RMS     0.001196444
 Search for a local minimum.
 Step number   2 out of a maximum of   56
 All quantities printed in internal units (Hartrees-Bohrs-Radians)
 RMS Force = .11964D-02 SwitMx=.10000D-02 MixMth= 1
 Mixed Optimization -- RFO/linear search
 Update second derivatives using D2CorX and points    1    2
 DE= -2.90D-03 DEPred=-3.64D-03 R= 7.96D-01
 SS=  1.41D+00  RLast= 2.62D-01 DXNew= 5.0454D-01 7.8650D-01
 Trust test= 7.96D-01 RLast= 2.62D-01 DXMaxT set to 5.05D-01
 ITU=  1  0
 Use linear search instead of GDIIS.
     Eigenvalues ---    0.00769   0.02249   0.02718   0.03693   0.03890
     Eigenvalues ---    0.05457   0.05744   0.05872   0.11892   0.12356
     Eigenvalues ---    0.15309   0.15984   0.16000   0.16000   0.16276
     Eigenvalues ---    0.21739   0.28591   0.32434   0.33228   0.33388
     Eigenvalues ---    0.33423   0.33564   0.33937   0.34009   0.34236
     Eigenvalues ---    0.36183   0.43877
 RFO step:  Lambda=-1.98259431D-04 EMin= 7.69162513D-03
 Quartic linear search produced a step of -0.12650.
 Iteration  1 RMS(Cart)=  0.01015979 RMS(Int)=  0.00012612
 Iteration  2 RMS(Cart)=  0.00007197 RMS(Int)=  0.00010000
 Iteration  3 RMS(Cart)=  0.00000001 RMS(Int)=  0.00010000
 Variable       Old X    -DE/DX   Delta X   Delta X   Delta X     New X
                                 (Linear)    (Quad)   (Total)
    R1        2.78545   0.00099   0.00035   0.00210   0.00260   2.78805
    R2        2.06998   0.00012  -0.00008   0.00040   0.00032   2.07030
    R3        2.07133   0.00030   0.00025   0.00046   0.00072   2.07205
    R4        2.76758   0.00122  -0.00024   0.00361   0.00315   2.77073
    R5        2.07569   0.00014  -0.00017   0.00057   0.00040   2.07609
    R6        2.77342  -0.00083  -0.00131  -0.00083  -0.00208   2.77134
    R7        2.82936   0.00067   0.00061   0.00106   0.00166   2.83102
    R8        1.92906   0.00193   0.00083   0.00284   0.00368   1.93274
    R9        2.08302  -0.00032   0.00007  -0.00092  -0.00085   2.08218
   R10        2.08149   0.00064   0.00016   0.00148   0.00164   2.08313
   R11        2.08229  -0.00030   0.00050  -0.00139  -0.00089   2.08140
    A1        2.07225   0.00054   0.00438  -0.00490  -0.00054   2.07171
    A2        2.08501  -0.00071  -0.00521  -0.00067  -0.00598   2.07903
    A3        1.99642   0.00003   0.00023   0.00075   0.00092   1.99733
    A4        2.08923  -0.00177  -0.01010   0.00495  -0.00532   2.08390
    A5        1.98759   0.00240   0.01114   0.00169   0.01263   2.00022
    A6        2.01479   0.00160   0.00489   0.00214   0.00708   2.02187
    A7        2.13053  -0.00255  -0.00459  -0.00248  -0.00725   2.12328
    A8        2.05125  -0.00178  -0.01026   0.00166  -0.00866   2.04260
    A9        2.00929   0.00074   0.00022   0.00302   0.00327   2.01255
   A10        2.01954   0.00112   0.00920  -0.00743   0.00157   2.02111
   A11        1.87120   0.00406   0.00348   0.01940   0.02285   1.89405
   A12        1.88598   0.00295  -0.00228   0.01748   0.01512   1.90110
   A13        1.95190  -0.00132  -0.00081  -0.00755  -0.00838   1.94352
   A14        1.93229   0.00182   0.00216   0.00921   0.01139   1.94368
   A15        1.92880  -0.00110   0.00012  -0.00678  -0.00669   1.92210
   A16        1.88302  -0.00013  -0.00087   0.00156   0.00071   1.88373
   A17        1.87798   0.00078   0.00038   0.00006   0.00037   1.87835
   A18        1.88754  -0.00002  -0.00107   0.00379   0.00274   1.89027
    D1       -0.02182  -0.00005  -0.00010  -0.00612  -0.00623  -0.02805
    D2        2.57044  -0.00014   0.00113   0.00014   0.00116   2.57160
    D3       -2.60949   0.00022   0.00104   0.00311   0.00429  -2.60520
    D4       -0.01723   0.00013   0.00227   0.00937   0.01168  -0.00555
    D5        0.11590  -0.00032   0.01379  -0.01916  -0.00535   0.11055
    D6        2.56934   0.00071   0.01578  -0.00849   0.00717   2.57651
    D7       -0.08606   0.00034  -0.00534   0.01143   0.00615  -0.07992
    D8       -2.55529  -0.00007  -0.00403   0.01429   0.01026  -2.54502
    D9        2.59212  -0.00011  -0.00177   0.00556   0.00396   2.59608
   D10       -1.59055   0.00009  -0.00194   0.00878   0.00698  -1.58357
   D11        0.50038   0.00052  -0.00180   0.01507   0.01340   0.51377
   D12       -1.09722   0.00005   0.00083   0.01155   0.01244  -1.08478
   D13        1.00330   0.00025   0.00066   0.01477   0.01546   1.01875
   D14        3.09422   0.00068   0.00081   0.02106   0.02188   3.11610
   D15        1.38826  -0.00053  -0.00443   0.00836   0.00378   1.39204
   D16       -2.79441  -0.00033  -0.00461   0.01158   0.00680  -2.78761
   D17       -0.70348   0.00010  -0.00446   0.01788   0.01322  -0.69026
         Item               Value     Threshold  Converged?
 Maximum Force            0.004061     0.000015     NO 
 RMS     Force            0.001196     0.000010     NO 
 Maximum Displacement     0.031819     0.000060     NO 
 RMS     Displacement     0.010159     0.000040     NO 
 Predicted change in Energy=-1.615922D-04
 GradGradGradGradGradGradGradGradGradGradGradGradGradGradGradGradGradGrad

 Leave Link  103 at Tue May 21 12:54:16 2013, MaxMem=  536870912 cpu:       0.0
 (Enter X:\G09W\l202.exe)
                          Input orientation:                          
 ---------------------------------------------------------------------
 Center     Atomic      Atomic             Coordinates (Angstroms)
 Number     Number       Type             X           Y           Z
 ---------------------------------------------------------------------
      1          6           0       -1.023487   -0.657878   -0.120449
      2          6           0        0.159099   -0.054165    0.522783
      3          1           0       -1.784921   -1.126578    0.512621
      4          1           0       -0.917974   -1.110396   -1.113606
      5          1           0        0.180203   -0.094610    1.620453
      6          7           0       -0.862190    0.799176   -0.093237
      7          1           0       -1.464136    1.179021    0.641213
      8          6           0        1.500680   -0.050420   -0.143911
      9          1           0        2.087123    0.838272    0.139571
     10          1           0        2.086331   -0.944115    0.127172
     11          1           0        1.379892   -0.034931   -1.238587
 ---------------------------------------------------------------------
                    Distance matrix (angstroms):
                    1          2          3          4          5
     1  C    0.000000
     2  C    1.475373   0.000000
     3  H    1.095554   2.220222   0.000000
     4  H    1.096480   2.225641   1.842952   0.000000
     5  H    2.190178   1.098618   2.480718   3.116552   0.000000
     6  N    1.466207   1.466527   2.219690   2.165809   2.195944
     7  H    2.036786   2.041976   2.331357   2.935833   2.298890
     8  C    2.596339   1.498110   3.519136   2.813138   2.204222
     9  H    3.461499   2.158836   4.358042   3.794518   2.588364
    10  H    3.132765   2.159338   3.894670   3.254693   2.566101
    11  H    2.722963   2.143159   3.778156   2.540164   3.101117
                    6          7          8          9         10
     6  N    0.000000
     7  H    1.022760   0.000000
     8  C    2.511481   3.304252   0.000000
     9  H    2.958746   3.602666   1.101840   0.000000
    10  H    3.432407   4.168664   1.102344   1.782430   0.000000
    11  H    2.652262   3.618816   1.101429   1.778195   1.786328
                   11
    11  H    0.000000
 Stoichiometry    C3H7N
 Framework group  C1[X(C3H7N)]
 Deg. of freedom    27
 Full point group                 C1      NOp   1
 RotChk:  IX=0 Diff= 1.90D-02
 Largest Abelian subgroup         C1      NOp   1
 Largest concise Abelian subgroup C1      NOp   1
                         Standard orientation:                         
 ---------------------------------------------------------------------
 Center     Atomic      Atomic             Coordinates (Angstroms)
 Number     Number       Type             X           Y           Z
 ---------------------------------------------------------------------
      1          6           0        0.989721    0.688906   -0.051781
      2          6           0       -0.163622   -0.064199    0.476762
      3          1           0        1.767310    1.018495    0.646047
      4          1           0        0.845436    1.349303   -0.915103
      5          1           0       -0.147578   -0.269673    1.555876
      6          7           0        0.845068   -0.740272   -0.345535
      7          1           0        1.475833   -1.263231    0.266583
      8          6           0       -1.527118    0.056409   -0.132062
      9          1           0       -2.093962   -0.883554   -0.036093
     10          1           0       -2.112689    0.856526    0.349688
     11          1           0       -1.443708    0.287341   -1.205774
 ---------------------------------------------------------------------
 Rotational constants (GHZ):     17.1020040      6.5675669      5.8131024
 Leave Link  202 at Tue May 21 12:54:16 2013, MaxMem=  536870912 cpu:       0.0
 (Enter X:\G09W\l301.exe)
 Standard basis: CC-pVDZ (5D, 7F)
 Ernie: Thresh=  0.10000D-02 Tol=  0.10000D-05 Strict=F.
 Ernie:  8 primitive shells out of 123 were deleted.
 There are    91 symmetry adapted basis functions of A   symmetry.
 Integral buffers will be    131072 words long.
 Raffenetti 2 integral format.
 Two-electron integral symmetry is turned on.
    91 basis functions,   181 primitive gaussians,    95 cartesian basis functions
    16 alpha electrons       16 beta electrons
       nuclear repulsion energy       125.3522782389 Hartrees.
 IExCor= 4235 DFT=T Ex+Corr=M06 ExCW=0 ScaHFX=  0.270000
 ScaDFX=  1.000000  1.000000  1.000000  1.000000 ScalE2=  1.000000  1.000000
 IRadAn=      5 IRanWt=     -1 IRanGd=            0 ICorTp=0
 NAtoms=   11 NActive=   11 NUniq=   11 SFac= 1.00D+00 NAtFMM=   60 NAOKFM=F Big=F
 Leave Link  301 at Tue May 21 12:54:16 2013, MaxMem=  536870912 cpu:       0.0
 (Enter X:\G09W\l302.exe)
 NPDir=0 NMtPBC=     1 NCelOv=     1 NCel=       1 NClECP=     1 NCelD=      1
         NCelK=      1 NCelE2=     1 NClLst=     1 CellRange=     0.0.
 One-electron integrals computed using PRISM.
 NBasis=    91 RedAO= T  NBF=    91
 NBsUse=    91 1.00D-06 NBFU=    91
 Precomputing XC quadrature grid using
 IXCGrd= 2 IRadAn=           5 IRanWt=          -1 IRanGd=           0 AccXCQ= 0.00D+00.
 NRdTot=     904 NPtTot=      241920 NUsed=      248404 NTot=      248436
 NSgBfM=    95    95    95    95    95 NAtAll=    11    11.
 Leave Link  302 at Tue May 21 12:54:16 2013, MaxMem=  536870912 cpu:       0.0
 (Enter X:\G09W\l303.exe)
 DipDrv:  MaxL=1.
 Leave Link  303 at Tue May 21 12:54:16 2013, MaxMem=  536870912 cpu:       0.0
 (Enter X:\G09W\l401.exe)
 Initial guess read from the read-write file.
 B after Tr=     0.000000    0.000000    0.000000
         Rot=    1.000000    0.000000    0.000000    0.000000 Ang=   0.00 deg.
 Guess basis will be translated and rotated to current coordinates.
 Initial guess orbital symmetries:
       Occupied  (A) (A) (A) (A) (A) (A) (A) (A) (A) (A) (A) (A)
                 (A) (A) (A) (A)
       Virtual   (A) (A) (A) (A) (A) (A) (A) (A) (A) (A) (A) (A)
                 (A) (A) (A) (A) (A) (A) (A) (A) (A) (A) (A) (A)
                 (A) (A) (A) (A) (A) (A) (A) (A) (A) (A) (A) (A)
                 (A) (A) (A) (A) (A) (A) (A) (A) (A) (A) (A) (A)
                 (A) (A) (A) (A) (A) (A) (A) (A) (A) (A) (A) (A)
                 (A) (A) (A) (A) (A) (A) (A) (A) (A) (A) (A) (A)
                 (A) (A) (A)
 The electronic state of the initial guess is 1-A.
 Generating alternative initial guess.
 Harris functional with IExCor= 1009 diagonalized for initial guess.
 ExpMin= 1.22D-01 ExpMax= 9.05D+03 ExpMxC= 3.09D+02 IAcc=3 IRadAn=         5 AccDes= 0.00D+00
 HarFok:  IExCor= 1009 AccDes= 0.00D+00 IRadAn=         5 IDoV= 1
 ScaDFX=  1.000000  1.000000  1.000000  1.000000
 FoFCou: FMM=F IPFlag=           0 FMFlag=      100000 FMFlg1=           0
         NFxFlg=           0 DoJE=T BraDBF=F KetDBF=T FulRan=T
         Omega=  0.000000  0.000000  1.000000  0.000000  0.000000 ICntrl=     500 IOpCl=  0
         NMat0=    1 NMatS0=    1 NMatT0=    0 NMatD0=    1 NMtDS0=    0 NMtDT0=    0
         I1Cent=           4 NGrid=           0.
 Petite list used in FoFCou.
 Harris En= -173.094683469624    
 Leave Link  401 at Tue May 21 12:54:17 2013, MaxMem=  536870912 cpu:       1.0
 (Enter X:\G09W\l502.exe)
 Closed shell SCF:
 Requested convergence on RMS density matrix=1.00D-08 within 128 cycles.
 Requested convergence on MAX density matrix=1.00D-06.
 Requested convergence on             energy=1.00D-06.
 No special actions if energy rises.
 Using DIIS extrapolation, IDIIS=  1040.
 Integral symmetry usage will be decided dynamically.
       248292 words used for storage of precomputed grid.
 Keep R1 ints in memory in canonical form, NReq=11610975.
 IEnd=      294811 IEndB=      294811 NGot=   536870912 MDV=   526202754
 LenX=   526202754 LenY=   526193288
 Symmetry not used in FoFDir.
 MinBra= 0 MaxBra= 2 Meth= 1.
 IRaf=       0 NMat=   1 IRICut=       1 DoRegI=T DoRafI=F ISym2E= 0 JSym2E=0.
 Integral accuracy reduced to 1.0D-05 until final iterations.

 Cycle   1  Pass 0  IDiag  1:
 E= -173.112666829216    
 DIIS: error= 1.05D-03 at cycle   1 NSaved=   1.
 NSaved= 1 IEnMin= 1 EnMin= -173.112666829216     IErMin= 1 ErrMin= 1.05D-03
 ErrMax= 1.05D-03 EMaxC= 1.00D-01 BMatC= 1.30D-04 BMatP= 1.30D-04
 IDIUse=3 WtCom= 9.89D-01 WtEn= 1.05D-02
 Coeff-Com:  0.100D+01
 Coeff-En:   0.100D+01
 Coeff:      0.100D+01
 Gap=     0.317 Goal=   None    Shift=    0.000
 GapD=    0.317 DampG=1.000 DampE=1.000 DampFc=1.0000 IDamp=-1.
 RMSDP=2.11D-04 MaxDP=3.93D-03              OVMax= 4.64D-03

 Cycle   2  Pass 0  IDiag  1:
 E= -173.112883852922     Delta-E=       -0.000217023706 Rises=F Damp=F
 DIIS: error= 1.23D-04 at cycle   2 NSaved=   2.
 NSaved= 2 IEnMin= 2 EnMin= -173.112883852922     IErMin= 2 ErrMin= 1.23D-04
 ErrMax= 1.23D-04 EMaxC= 1.00D-01 BMatC= 2.05D-06 BMatP= 1.30D-04
 IDIUse=3 WtCom= 9.99D-01 WtEn= 1.23D-03
 Coeff-Com: -0.694D-01 0.107D+01
 Coeff-En:   0.000D+00 0.100D+01
 Coeff:     -0.693D-01 0.107D+01
 Gap=     0.317 Goal=   None    Shift=    0.000
 RMSDP=3.09D-05 MaxDP=3.70D-04 DE=-2.17D-04 OVMax= 7.55D-04

 Cycle   3  Pass 0  IDiag  1:
 E= -173.112886488971     Delta-E=       -0.000002636049 Rises=F Damp=F
 DIIS: error= 7.80D-05 at cycle   3 NSaved=   3.
 NSaved= 3 IEnMin= 3 EnMin= -173.112886488971     IErMin= 3 ErrMin= 7.80D-05
 ErrMax= 7.80D-05 EMaxC= 1.00D-01 BMatC= 1.10D-06 BMatP= 2.05D-06
 IDIUse=1 WtCom= 1.00D+00 WtEn= 0.00D+00
 Coeff-Com: -0.393D-01 0.488D+00 0.551D+00
 Coeff:     -0.393D-01 0.488D+00 0.551D+00
 Gap=     0.317 Goal=   None    Shift=    0.000
 RMSDP=1.24D-05 MaxDP=2.62D-04 DE=-2.64D-06 OVMax= 4.11D-04

 Cycle   4  Pass 0  IDiag  1:
 E= -173.112887376965     Delta-E=       -0.000000887994 Rises=F Damp=F
 DIIS: error= 2.63D-05 at cycle   4 NSaved=   4.
 NSaved= 4 IEnMin= 4 EnMin= -173.112887376965     IErMin= 4 ErrMin= 2.63D-05
 ErrMax= 2.63D-05 EMaxC= 1.00D-01 BMatC= 1.68D-07 BMatP= 1.10D-06
 IDIUse=1 WtCom= 1.00D+00 WtEn= 0.00D+00
 Coeff-Com: -0.112D-01 0.113D+00 0.294D+00 0.605D+00
 Coeff:     -0.112D-01 0.113D+00 0.294D+00 0.605D+00
 Gap=     0.317 Goal=   None    Shift=    0.000
 RMSDP=3.83D-06 MaxDP=9.79D-05 DE=-8.88D-07 OVMax= 1.15D-04

 Initial convergence to 1.0D-05 achieved.  Increase integral accuracy.
 Cycle   5  Pass 1  IDiag  1:
 E= -173.112881683826     Delta-E=        0.000005693139 Rises=F Damp=F
 DIIS: error= 1.81D-05 at cycle   1 NSaved=   1.
 NSaved= 1 IEnMin= 1 EnMin= -173.112881683826     IErMin= 1 ErrMin= 1.81D-05
 ErrMax= 1.81D-05 EMaxC= 1.00D-01 BMatC= 6.01D-08 BMatP= 6.01D-08
 IDIUse=1 WtCom= 1.00D+00 WtEn= 0.00D+00
 Coeff-Com:  0.100D+01
 Coeff:      0.100D+01
 Gap=     0.317 Goal=   None    Shift=    0.000
 RMSDP=3.83D-06 MaxDP=9.79D-05 DE= 5.69D-06 OVMax= 6.83D-05

 Cycle   6  Pass 1  IDiag  1:
 E= -173.112881738505     Delta-E=       -0.000000054679 Rises=F Damp=F
 DIIS: error= 7.12D-06 at cycle   2 NSaved=   2.
 NSaved= 2 IEnMin= 2 EnMin= -173.112881738505     IErMin= 2 ErrMin= 7.12D-06
 ErrMax= 7.12D-06 EMaxC= 1.00D-01 BMatC= 1.08D-08 BMatP= 6.01D-08
 IDIUse=1 WtCom= 1.00D+00 WtEn= 0.00D+00
 Coeff-Com:  0.223D+00 0.777D+00
 Coeff:      0.223D+00 0.777D+00
 Gap=     0.317 Goal=   None    Shift=    0.000
 RMSDP=1.94D-06 MaxDP=3.40D-05 DE=-5.47D-08 OVMax= 4.05D-05

 Cycle   7  Pass 1  IDiag  1:
 E= -173.112881743132     Delta-E=       -0.000000004627 Rises=F Damp=F
 DIIS: error= 7.11D-06 at cycle   3 NSaved=   3.
 NSaved= 3 IEnMin= 3 EnMin= -173.112881743132     IErMin= 3 ErrMin= 7.11D-06
 ErrMax= 7.11D-06 EMaxC= 1.00D-01 BMatC= 6.75D-09 BMatP= 1.08D-08
 IDIUse=1 WtCom= 1.00D+00 WtEn= 0.00D+00
 Coeff-Com:  0.106D-01 0.440D+00 0.550D+00
 Coeff:      0.106D-01 0.440D+00 0.550D+00
 Gap=     0.317 Goal=   None    Shift=    0.000
 RMSDP=8.08D-07 MaxDP=1.84D-05 DE=-4.63D-09 OVMax= 2.16D-05

 Cycle   8  Pass 1  IDiag  1:
 E= -173.112881749190     Delta-E=       -0.000000006058 Rises=F Damp=F
 DIIS: error= 8.98D-07 at cycle   4 NSaved=   4.
 NSaved= 4 IEnMin= 4 EnMin= -173.112881749190     IErMin= 4 ErrMin= 8.98D-07
 ErrMax= 8.98D-07 EMaxC= 1.00D-01 BMatC= 1.73D-10 BMatP= 6.75D-09
 IDIUse=1 WtCom= 1.00D+00 WtEn= 0.00D+00
 Coeff-Com: -0.318D-02 0.178D+00 0.254D+00 0.571D+00
 Coeff:     -0.318D-02 0.178D+00 0.254D+00 0.571D+00
 Gap=     0.317 Goal=   None    Shift=    0.000
 RMSDP=1.47D-07 MaxDP=2.73D-06 DE=-6.06D-09 OVMax= 4.64D-06

 Cycle   9  Pass 1  IDiag  1:
 E= -173.112881749342     Delta-E=       -0.000000000152 Rises=F Damp=F
 DIIS: error= 3.39D-07 at cycle   5 NSaved=   5.
 NSaved= 5 IEnMin= 5 EnMin= -173.112881749342     IErMin= 5 ErrMin= 3.39D-07
 ErrMax= 3.39D-07 EMaxC= 1.00D-01 BMatC= 1.55D-11 BMatP= 1.73D-10
 IDIUse=1 WtCom= 1.00D+00 WtEn= 0.00D+00
 Coeff-Com: -0.284D-02 0.376D-01 0.591D-01 0.263D+00 0.643D+00
 Coeff:     -0.284D-02 0.376D-01 0.591D-01 0.263D+00 0.643D+00
 Gap=     0.317 Goal=   None    Shift=    0.000
 RMSDP=3.92D-08 MaxDP=6.33D-07 DE=-1.52D-10 OVMax= 1.08D-06

 Cycle  10  Pass 1  IDiag  1:
 E= -173.112881749355     Delta-E=       -0.000000000013 Rises=F Damp=F
 DIIS: error= 7.20D-08 at cycle   6 NSaved=   6.
 NSaved= 6 IEnMin= 6 EnMin= -173.112881749355     IErMin= 6 ErrMin= 7.20D-08
 ErrMax= 7.20D-08 EMaxC= 1.00D-01 BMatC= 7.34D-13 BMatP= 1.55D-11
 IDIUse=1 WtCom= 1.00D+00 WtEn= 0.00D+00
 Coeff-Com: -0.881D-03 0.712D-03 0.258D-02 0.544D-01 0.239D+00 0.704D+00
 Coeff:     -0.881D-03 0.712D-03 0.258D-02 0.544D-01 0.239D+00 0.704D+00
 Gap=     0.317 Goal=   None    Shift=    0.000
 RMSDP=1.08D-08 MaxDP=1.74D-07 DE=-1.28D-11 OVMax= 2.24D-07

 Cycle  11  Pass 1  IDiag  1:
 E= -173.112881749355     Delta-E=        0.000000000000 Rises=F Damp=F
 DIIS: error= 1.62D-08 at cycle   7 NSaved=   7.
 NSaved= 7 IEnMin= 7 EnMin= -173.112881749355     IErMin= 7 ErrMin= 1.62D-08
 ErrMax= 1.62D-08 EMaxC= 1.00D-01 BMatC= 3.97D-14 BMatP= 7.34D-13
 IDIUse=1 WtCom= 1.00D+00 WtEn= 0.00D+00
 Coeff-Com: -0.201D-03-0.111D-02-0.122D-02 0.949D-02 0.590D-01 0.254D+00
 Coeff-Com:  0.680D+00
 Coeff:     -0.201D-03-0.111D-02-0.122D-02 0.949D-02 0.590D-01 0.254D+00
 Coeff:      0.680D+00
 Gap=     0.317 Goal=   None    Shift=    0.000
 RMSDP=2.63D-09 MaxDP=6.98D-08 DE=-1.71D-13 OVMax= 7.36D-08

 SCF Done:  E(RM06) =  -173.112881749     A.U. after   11 cycles
             Convg  =    0.2630D-08             -V/T =  2.0074
 KE= 1.718417589676D+02 PE=-6.523768157996D+02 EE= 1.820698968437D+02
 Leave Link  502 at Tue May 21 12:54:39 2013, MaxMem=  536870912 cpu:      22.0
 (Enter X:\G09W\l701.exe)
 Compute integral first derivatives.
 ... and contract with generalized density number  0.
 Leave Link  701 at Tue May 21 12:54:39 2013, MaxMem=  536870912 cpu:       0.0
 (Enter X:\G09W\l702.exe)
 L702 exits ... SP integral derivatives will be done elsewhere.
 Leave Link  702 at Tue May 21 12:54:39 2013, MaxMem=  536870912 cpu:       0.0
 (Enter X:\G09W\l703.exe)
 Compute integral first derivatives, UseDBF=F ICtDFT=           0.
 Integral derivatives from FoFDir, PRISM(SPDF).
 Calling FoFJK, ICntrl=      2127 FMM=F ISym2X=0 I1Cent= 0 IOpClX= 0 NMat=1 NMatS=1 NMatT=0.
 FoFCou: FMM=F IPFlag=           0 FMFlag=      100000 FMFlg1=         800
         NFxFlg=           0 DoJE=F BraDBF=F KetDBF=F FulRan=T
         Omega=  0.000000  0.000000  1.000000  0.000000  0.000000 ICntrl=    2127 IOpCl=  0
         NMat0=    1 NMatS0=    1 NMatT0=    0 NMatD0=    1 NMtDS0=    0 NMtDT0=    0
         I1Cent=           0 NGrid=           0.
 Symmetry not used in FoFCou.
 Leave Link  703 at Tue May 21 12:54:43 2013, MaxMem=  536870912 cpu:       4.0
 (Enter X:\G09W\l716.exe)
 Dipole        = 7.57397316D-02 1.80366299D-01 5.62299501D-01
 ***** Axes restored to original set *****
 -------------------------------------------------------------------
 Center     Atomic                   Forces (Hartrees/Bohr)
 Number     Number              X              Y              Z
 -------------------------------------------------------------------
      1        6           0.000297389    0.000598306   -0.000791780
      2        6          -0.000392314    0.000803138    0.000076249
      3        1          -0.000050990    0.000226536    0.000142447
      4        1          -0.000061325    0.000014985    0.000024514
      5        1          -0.000181784    0.000122420   -0.000023887
      6        7           0.000326689   -0.002236625    0.001623616
[...]
     11  0.401186D+00 -0.113105D+01 -0.941400D-02 -0.126412D-01  0.340102D+00
                6             7             8             9            10 
      6  0.000000D+00
      7  0.192844D+02  0.000000D+00
      8  0.693087D+01  0.588749D+00  0.000000D+00
      9  0.489627D-01 -0.123837D-01  0.175766D+02  0.000000D+00
     10  0.195398D+01  0.308909D-01  0.172147D+02 -0.778954D+00  0.000000D+00
     11  0.514590D+00 -0.130137D-01  0.178479D+02 -0.794928D+00 -0.779480D+00
               11 
     11  0.000000D+00
 Fermi Contact (FC) contribution to J (Hz):
                1             2             3             4             5 
      1  0.000000D+00
      2  0.217704D+02  0.000000D+00
      3  0.179360D+03 -0.270375D+01  0.000000D+00
      4  0.188972D+03 -0.293103D+01 -0.110560D+02  0.000000D+00
      5 -0.211980D+01  0.175216D+03  0.708821D+01  0.237921D+01  0.000000D+00
      6 -0.537970D+01 -0.497094D+01 -0.638871D+00  0.453516D+01 -0.636103D+00
      7 -0.575307D+01 -0.499602D+01  0.121758D+02  0.842030D+01  0.111690D+02
      8 -0.995830D+00  0.481837D+02  0.123715D+01  0.315463D+01  0.390310D+01
      9  0.978988D+01 -0.728155D+01  0.536795D+00 -0.744118D+00  0.358619D+01
     10  0.967841D+00 -0.430177D+01  0.981776D-01 -0.222258D+00  0.222421D+01
     11  0.314807D+01 -0.887527D+01 -0.293716D+00 -0.394404D+00  0.106112D+02
                6             7             8             9            10 
      6  0.000000D+00
      7  0.434917D+02  0.000000D+00
      8  0.393127D+01  0.461986D+01  0.000000D+00
      9  0.110425D+00 -0.386372D+00  0.137922D+03  0.000000D+00
     10  0.440678D+01  0.963795D+00  0.135082D+03 -0.243033D+02  0.000000D+00
     11  0.116055D+01 -0.406026D+00  0.140050D+03 -0.248017D+02 -0.243198D+02
               11 
     11  0.000000D+00
 Spin-dipolar (SD) contribution to K (Hz):
                1             2             3             4             5 
      1  0.000000D+00
      2 -0.145371D+00  0.000000D+00
      3  0.279463D-01 -0.117566D-01  0.000000D+00
      4  0.250211D-01 -0.484352D-02  0.610116D-02  0.000000D+00
      5 -0.105428D-01  0.301459D-01  0.318710D-02  0.597292D-03  0.000000D+00
      6 -0.182001D-01 -0.195044D-01 -0.243589D-02 -0.180898D-01 -0.616611D-02
      7 -0.807180D-02 -0.104574D-01  0.731122D-02  0.184324D-03  0.760698D-02
      8 -0.249943D-02  0.347116D+00  0.241376D-02 -0.422965D-02  0.892321D-02
      9 -0.417921D-03  0.101642D-01  0.183497D-03 -0.441501D-03  0.169249D-02
     10  0.412673D-02  0.104138D-01 -0.145326D-03  0.474181D-03  0.143220D-02
     11 -0.623970D-02  0.957036D-02 -0.850360D-04  0.151322D-02 -0.195133D-03
                6             7             8             9            10 
      6  0.000000D+00
      7  0.361171D-01  0.000000D+00
      8  0.115722D-01  0.260896D-02  0.000000D+00
      9  0.456433D-02 -0.160766D-03  0.188307D-01  0.000000D+00
     10 -0.665358D-03  0.227930D-03  0.184245D-01  0.102634D-01  0.000000D+00
     11 -0.603207D-02 -0.308308D-03  0.169749D-01  0.103645D-01  0.951962D-02
               11 
     11  0.000000D+00
 Spin-dipolar (SD) contribution to J (Hz):
                1             2             3             4             5 
      1  0.000000D+00
      2 -0.286893D+00  0.000000D+00
      3  0.219292D+00 -0.922529D-01  0.000000D+00
      4  0.196338D+00 -0.380067D-01  0.190356D+00  0.000000D+00
      5 -0.827280D-01  0.236552D+00  0.994373D-01  0.186355D-01  0.000000D+00
      6 -0.103233D-01 -0.110631D-01 -0.549363D-02 -0.407977D-01 -0.139063D-01
      7 -0.633386D-01 -0.820581D-01  0.228110D+00  0.575089D-02  0.237337D+00
      8 -0.493269D-02  0.685042D+00  0.189405D-01 -0.331897D-01  0.700196D-01
      9 -0.327939D-02  0.797571D-01  0.572509D-02 -0.137748D-01  0.528055D-01
     10  0.323821D-01  0.817161D-01 -0.453416D-02  0.147944D-01  0.446845D-01
     11 -0.489623D-01  0.750976D-01 -0.265312D-02  0.472124D-01 -0.608813D-02
                6             7             8             9            10 
      6  0.000000D+00
      7  0.814543D-01  0.000000D+00
      8  0.656390D-02  0.204722D-01  0.000000D+00
      9  0.102939D-01 -0.501589D-02  0.147763D+00  0.000000D+00
     10 -0.150057D-02  0.711139D-02  0.144575D+00  0.320219D+00  0.000000D+00
     11 -0.136040D-01 -0.961921D-02  0.133200D+00  0.323372D+00  0.297012D+00
               11 
     11  0.000000D+00
 Paramagnetic spin-orbit (PSO) contribution to K (Hz):
                1             2             3             4             5 
      1  0.000000D+00
      2 -0.438556D+00  0.000000D+00
      3  0.563975D-01  0.361203D-01  0.000000D+00
      4  0.390055D-01  0.402060D-01  0.698804D-01  0.000000D+00
      5  0.299397D-01  0.538604D-01  0.732859D-02  0.626490D-01  0.000000D+00
      6 -0.229782D+00 -0.414093D+00  0.949608D-01  0.114870D+00  0.601246D-01
      7  0.599172D-01  0.486462D-01  0.954583D-02  0.779256D-01  0.342871D-02
      8 -0.531636D-01 -0.386425D+00  0.377536D-01  0.449048D-02  0.174328D-01
      9  0.352725D-01  0.759065D-02  0.428943D-01  0.367911D-01  0.172817D-01
     10  0.145490D-01  0.104617D-01  0.265237D-01  0.891758D-02  0.175249D-01
     11  0.493538D-02  0.135768D-01  0.396852D-01 -0.272652D-01  0.623597D-01
                6             7             8             9            10 
      6  0.000000D+00
      7  0.710528D+00  0.000000D+00
      8 -0.572540D-01  0.468500D-01  0.000000D+00
      9  0.975753D-02  0.292611D-01  0.126698D+00  0.000000D+00
     10  0.326030D-01  0.489915D-01  0.131946D+00  0.681427D-01  0.000000D+00
     11  0.182233D-01  0.508358D-01  0.117356D+00  0.638610D-01  0.655449D-01
               11 
     11  0.000000D+00
 Paramagnetic spin-orbit (PSO) contribution to J (Hz):
                1             2             3             4             5 
      1  0.000000D+00
      2 -0.865502D+00  0.000000D+00
      3  0.442545D+00  0.283432D+00  0.000000D+00
      4  0.306073D+00  0.315493D+00  0.218027D+01  0.000000D+00
      5  0.234934D+00  0.422638D+00  0.228652D+00  0.195465D+01  0.000000D+00
      6 -0.130335D+00 -0.234878D+00  0.214164D+00  0.259065D+00  0.135598D+00
      7  0.470165D+00  0.381722D+00  0.297829D+00  0.243127D+01  0.106976D+00
      8 -0.104920D+00 -0.762619D+00  0.296249D+00  0.352363D-01  0.136793D+00
      9  0.276780D+00  0.595631D-01  0.133830D+01  0.114788D+01  0.539189D+00
     10  0.114165D+00  0.820922D-01  0.827539D+00  0.278228D+00  0.546775D+00
     11  0.387275D-01  0.106536D+00  0.123818D+01 -0.850675D+00  0.194562D+01
                6             7             8             9            10 
      6  0.000000D+00
      7  0.160244D+01  0.000000D+00
      8 -0.324752D-01  0.367627D+00  0.000000D+00
      9  0.220060D-01  0.912946D+00  0.994185D+00  0.000000D+00
     10  0.735290D-01  0.152853D+01  0.103536D+01  0.212605D+01  0.000000D+00
     11  0.410987D-01  0.158607D+01  0.920879D+00  0.199246D+01  0.204500D+01
               11 
     11  0.000000D+00
 Diamagnetic spin-orbit (DSO) contribution to K (Hz):
                1             2             3             4             5 
      1  0.000000D+00
      2  0.107462D+00  0.000000D+00
      3  0.110915D+00 -0.396021D-01  0.000000D+00
      4  0.113518D+00 -0.403318D-01 -0.906342D-01  0.000000D+00
      5 -0.392884D-01  0.137474D+00 -0.765680D-02 -0.919983D-01  0.000000D+00
      6  0.884040D-01  0.101768D+00 -0.570172D-01 -0.403679D-01 -0.502117D-01
      7 -0.537589D-01 -0.465601D-01 -0.559252D-02 -0.109642D+00  0.949119D-03
      8 -0.195935D-01  0.107222D+00 -0.596800D-01 -0.268495D-02 -0.356488D-01
      9 -0.629817D-01 -0.144594D-01 -0.607096D-01 -0.520130D-01 -0.224990D-01
     10 -0.261342D-01 -0.144039D-01 -0.386684D-01 -0.127080D-01 -0.227280D-01
     11  0.140117D-02 -0.130177D-01 -0.563057D-01  0.405708D-01 -0.926971D-01
                6             7             8             9            10 
      6  0.000000D+00
      7  0.104452D+00  0.000000D+00
      8 -0.120551D-01 -0.717940D-01  0.000000D+00
      9 -0.191996D-01 -0.434843D-01  0.827066D-01  0.000000D+00
     10 -0.633760D-01 -0.694493D-01  0.821695D-01 -0.813335D-01  0.000000D+00
     11  0.906855D-02 -0.717853D-01  0.884644D-01 -0.762560D-01 -0.792356D-01
               11 
     11  0.000000D+00
 Diamagnetic spin-orbit (DSO) contribution to J (Hz):
                1             2             3             4             5 
      1  0.000000D+00
      2  0.212079D+00  0.000000D+00
      3  0.870338D+00 -0.310754D+00  0.000000D+00
      4  0.890762D+00 -0.316480D+00 -0.282778D+01  0.000000D+00
      5 -0.308293D+00  0.107875D+01 -0.238892D+00 -0.287034D+01  0.000000D+00
      6  0.501438D-01  0.577243D-01 -0.128590D+00 -0.910411D-01 -0.113242D+00
      7 -0.421841D+00 -0.365353D+00 -0.174486D+00 -0.342082D+01  0.296125D-01
      8 -0.386683D-01  0.211605D+00 -0.468303D+00 -0.210685D-01 -0.279733D+00
      9 -0.494211D+00 -0.113461D+00 -0.189414D+01 -0.162280D+01 -0.701969D+00
     10 -0.205072D+00 -0.113026D+00 -0.120645D+01 -0.396488D+00 -0.709112D+00
     11  0.109948D-01 -0.102149D+00 -0.175674D+01  0.126581D+01 -0.289215D+01
                6             7             8             9            10 
      6  0.000000D+00
      7  0.235568D+00  0.000000D+00
      8 -0.683781D-02 -0.563361D+00  0.000000D+00
      9 -0.433006D-01 -0.135671D+01  0.648990D+00  0.000000D+00
     10 -0.142931D+00 -0.216681D+01  0.644776D+00 -0.253760D+01  0.000000D+00
     11  0.204522D-01 -0.223970D+01  0.694172D+00 -0.237918D+01 -0.247215D+01
               11 
     11  0.000000D+00
 Total nuclear spin-spin coupling K (Hz): 
                1             2             3             4             5 
      1  0.000000D+00
      2  0.105547D+02  0.000000D+00
      3  0.230526D+02 -0.359801D+00  0.000000D+00
      4  0.242599D+02 -0.378496D+00 -0.369012D+00  0.000000D+00
      5 -0.290036D+00  0.225508D+02  0.230046D+00  0.475048D-01  0.000000D+00
      6 -0.964403D+01 -0.909564D+01 -0.247770D+00  0.206732D+01 -0.278303D+00
      7 -0.735078D+00 -0.645058D+00  0.401515D+00  0.238350D+00  0.369966D+00
      8 -0.579851D+00  0.244830D+02  0.138149D+00  0.399598D+00  0.488114D+00
      9  0.121948D+01 -0.924657D+00 -0.426721D-03 -0.395134D-01  0.111417D+00
     10  0.115882D+00 -0.541740D+00 -0.914327D-02 -0.104399D-01  0.675178D-01
     11  0.401283D+00 -0.112092D+01 -0.261195D-01  0.217758D-02  0.309570D+00
                6             7             8             9            10 
      6  0.000000D+00
      7  0.201355D+02  0.000000D+00
      8  0.687313D+01  0.566414D+00  0.000000D+00
      9  0.440850D-01 -0.267677D-01  0.178048D+02  0.000000D+00
     10  0.192254D+01  0.106611D-01  0.174472D+02 -0.781881D+00  0.000000D+00
     11  0.535850D+00 -0.342716D-01  0.180707D+02 -0.796959D+00 -0.783651D+00
               11 
     11  0.000000D+00
 Total nuclear spin-spin coupling J (Hz): 
                1             2             3             4             5 
      1  0.000000D+00
      2  0.208300D+02  0.000000D+00
      3  0.180892D+03 -0.282333D+01  0.000000D+00
      4  0.190365D+03 -0.297002D+01 -0.115132D+02  0.000000D+00
      5 -0.227589D+01  0.176954D+03  0.717741D+01  0.148215D+01  0.000000D+00
      6 -0.547021D+01 -0.515916D+01 -0.558791D+00  0.466239D+01 -0.627653D+00
      7 -0.576809D+01 -0.506171D+01  0.125272D+02  0.743651D+01  0.115429D+02
      8 -0.114435D+01  0.483177D+02  0.108404D+01  0.313560D+01  0.383018D+01
      9  0.956917D+01 -0.725569D+01 -0.133137D-01 -0.123282D+01  0.347622D+01
     10  0.909315D+00 -0.425098D+01 -0.285270D+00 -0.325724D+00  0.210655D+01
     11  0.314883D+01 -0.879579D+01 -0.814929D+00  0.679404D-01  0.965857D+01
                6             7             8             9            10 
      6  0.000000D+00
      7  0.454112D+02  0.000000D+00
      8  0.389852D+01  0.444459D+01  0.000000D+00
      9  0.994242D-01 -0.835151D+00  0.139713D+03  0.000000D+00
     10  0.433588D+01  0.332624D+00  0.136907D+03 -0.243947D+02  0.000000D+00
     11  0.120849D+01 -0.106927D+01  0.141799D+03 -0.248651D+02 -0.244499D+02
               11 
     11  0.000000D+00
 End of Minotr Frequency-dependent properties file   721 does not exist.
 End of Minotr Frequency-dependent properties file   722 does not exist.
 Leave Link 1002 at Tue May 21 14:32:13 2013, MaxMem=  536870912 cpu:    1395.0
 (Enter X:\G09W\l601.exe)
 Copying SCF densities to generalized density rwf, IOpCl= 0 IROHF=0.

 **********************************************************************

            Population analysis using the SCF density.

 **********************************************************************

 Orbital symmetries:
       Occupied  (A) (A) (A) (A) (A) (A) (A) (A) (A) (A) (A) (A)
                 (A) (A) (A) (A)
       Virtual   (A) (A) (A) (A) (A) (A) (A) (A) (A) (A) (A) (A)
                 (A) (A) (A) (A) (A) (A) (A) (A) (A) (A) (A) (A)
                 (A) (A) (A) (A) (A) (A) (A) (A) (A) (A) (A) (A)
                 (A) (A) (A) (A) (A) (A) (A) (A) (A) (A) (A) (A)
                 (A) (A) (A) (A) (A) (A) (A) (A) (A) (A) (A) (A)
                 (A) (A) (A) (A) (A) (A) (A) (A) (A) (A) (A) (A)
                 (A) (A) (A)
 The electronic state is 1-A.
 Alpha  occ. eigenvalues --  -14.39312 -10.27917 -10.27178 -10.24065  -0.97308
 Alpha  occ. eigenvalues --   -0.73830  -0.65007  -0.58278  -0.53248  -0.45266
 Alpha  occ. eigenvalues --   -0.41975  -0.40294  -0.36558  -0.33887  -0.32085
 Alpha  occ. eigenvalues --   -0.25782
 Alpha virt. eigenvalues --    0.05862   0.09435   0.11004   0.12107   0.12607
 Alpha virt. eigenvalues --    0.14584   0.15328   0.15850   0.22261   0.24623
 Alpha virt. eigenvalues --    0.30324   0.39201   0.42549   0.45913   0.47993
 Alpha virt. eigenvalues --    0.51190   0.54886   0.55795   0.56378   0.61010
 Alpha virt. eigenvalues --    0.61694   0.62295   0.62965   0.64060   0.65709
 Alpha virt. eigenvalues --    0.67624   0.72752   0.78818   0.81653   0.86064
 Alpha virt. eigenvalues --    0.87181   1.00239   1.08429   1.16227   1.19917
 Alpha virt. eigenvalues --    1.21478   1.27632   1.33257   1.36810   1.39930
 Alpha virt. eigenvalues --    1.41798   1.47485   1.49655   1.56685   1.58232
 Alpha virt. eigenvalues --    1.58858   1.59800   1.62686   1.64639   1.70992
 Alpha virt. eigenvalues --    1.72840   1.79022   1.80823   1.84053   1.85967
 Alpha virt. eigenvalues --    1.89819   1.96078   2.02082   2.04887   2.07424
 Alpha virt. eigenvalues --    2.14881   2.21751   2.22718   2.27982   2.35435
 Alpha virt. eigenvalues --    2.38835   2.40787   2.42520   2.46655   2.53271
 Alpha virt. eigenvalues --    2.58490   2.61346   2.63867   2.73706   2.94315
          Condensed to atoms (all electrons):
              1          2          3          4          5          6
     1  C    4.709133   0.324539   0.384809   0.387009  -0.024893   0.280277
     2  C    0.324539   4.829728  -0.010516  -0.016329   0.390849   0.256415
     3  H    0.384809  -0.010516   0.672205  -0.050288  -0.007275  -0.017720
     4  H    0.387009  -0.016329  -0.050288   0.651018   0.003737  -0.024485
     5  H   -0.024893   0.390849  -0.007275   0.003737   0.701366  -0.024501
     6  N    0.280277   0.256415  -0.017720  -0.024485  -0.024501   6.427222
     7  H   -0.023672  -0.021913  -0.015072   0.005217  -0.014190   0.347229
     8  C   -0.046014   0.439803   0.002598  -0.002251  -0.045271  -0.038735
     9  H    0.006420  -0.018760  -0.000301   0.000097  -0.004994  -0.002269
    10  H   -0.003351  -0.024670   0.000698  -0.000563  -0.002245   0.004957
    11  H   -0.007215  -0.014421   0.000237   0.002452   0.009084   0.001802
              7          8          9         10         11
     1  C   -0.023672  -0.046014   0.006420  -0.003351  -0.007215
     2  C   -0.021913   0.439803  -0.018760  -0.024670  -0.014421
     3  H   -0.015072   0.002598  -0.000301   0.000698   0.000237
     4  H    0.005217  -0.002251   0.000097  -0.000563   0.002452
     5  H   -0.014190  -0.045271  -0.004994  -0.002245   0.009084
     6  N    0.347229  -0.038735  -0.002269   0.004957   0.001802
     7  H    0.609679   0.004285   0.000787  -0.000497  -0.000662
     8  C    0.004285   4.560605   0.380857   0.378046   0.377227
     9  H    0.000787   0.380857   0.646047  -0.028501  -0.027385
    10  H   -0.000497   0.378046  -0.028501   0.657482  -0.025562
    11  H   -0.000662   0.377227  -0.027385  -0.025562   0.645703
 Mulliken atomic charges:
              1
     1  C    0.012959
     2  C   -0.134724
     3  H    0.040624
     4  H    0.044386
     5  H    0.018334
     6  N   -0.210191
     7  H    0.108809
     8  C   -0.011148
     9  H    0.048003
    10  H    0.044206
    11  H    0.038742
 Sum of Mulliken atomic charges =   0.00000
 Mulliken charges with hydrogens summed into heavy atoms:
              1
     1  C    0.097969
     2  C   -0.116389
     6  N   -0.101382
     8  C    0.119802
 Sum of Mulliken charges with hydrogens summed into heavy atoms =   0.00000
 Electronic spatial extent (au):  <R**2>=            279.2579
 Charge=              0.0000 electrons
 Dipole moment (field-independent basis, Debye):
    X=              0.2125    Y=              0.4320    Z=              1.4159  Tot=              1.4955
 Quadrupole moment (field-independent basis, Debye-Ang):
   XX=            -24.0202   YY=            -25.6997   ZZ=            -26.0597
   XY=             -0.1655   XZ=              1.6166   YZ=             -2.0711
 Traceless Quadrupole moment (field-independent basis, Debye-Ang):
   XX=              1.2397   YY=             -0.4399   ZZ=             -0.7998
   XY=             -0.1655   XZ=              1.6166   YZ=             -2.0711
 Octapole moment (field-independent basis, Debye-Ang**2):
  XXX=              4.6768  YYY=             -2.2188  ZZZ=              1.1503  XYY=              2.0307
  XXY=             -2.0258  XXZ=              2.6111  XZZ=              0.0310  YZZ=              0.8456
  YYZ=              1.2517  XYZ=             -1.5430
 Hexadecapole moment (field-independent basis, Debye-Ang**3):
 XXXX=           -222.6879 YYYY=            -82.7578 ZZZZ=            -59.6216 XXXY=             -4.1263
 XXXZ=              2.8219 YYYX=             -3.2502 YYYZ=             -2.9529 ZZZX=              1.7828
 ZZZY=             -2.8088 XXYY=            -46.3902 XXZZ=            -48.1847 YYZZ=            -24.7921
 XXYZ=             -0.6525 YYXZ=              1.1938 ZZXY=              0.2282
 N-N= 1.254228614238D+02 E-N=-6.525219906428D+02  KE= 1.718450493751D+02
 Calculating spin-rotation constants.
 Leave Link  601 at Tue May 21 14:32:14 2013, MaxMem=  536870912 cpu:       1.0
 (Enter X:\G09W\l9999.exe)

 Test job not archived.
 1|1|UNPC-ALAUNDO|SP|RM06|Gen|C3H7N1|KUPROV|21-May-2013|0||#P Geom=AllC
 heck Guess=TCheck SCRF=Check GenChk RM06/ChkBas NMR=ReadFC IOp(3/6=22)
 ||Methylaziridine NMR properties||0,1|C,0,-1.0204891209,-0.6629350312,
 -0.1163788936|C,0,0.1597965618,-0.0512075272,0.526085458|H,0,-1.781315
 3398,-1.1263638326,0.5215149995|H,0,-0.9138507067,-1.124154354,-1.1054
 01936|H,0,0.1779519549,-0.0854913469,1.6239293645|N,0,-0.8608742993,0.
 7912526492,-0.0983916215|H,0,-1.4698245701,1.1868973839,0.6209387282|C
 ,0,1.5009834572,-0.0497102235,-0.1434483691|H,0,2.0998964537,0.8238041
 38,0.1610232433|H,0,2.0764618272,-0.9573847556,0.1003739156|H,0,1.3718
 83462,-0.0013303601,-1.2362211488||Version=EM64W-G09RevC.01|State=1-A|
 HF=-173.1129216|RMSD=6.096e-009|Dipole=-0.068687,-0.2863327,0.50938|Qu
 adrupole=0.8424509,-0.9953248,0.1528739,0.1752074,-1.2143128,1.4554986
 |PG=C01 [X(C3H7N1)]||@


 AS FAR AS THE LAWS OF MATHEMATICS REFER TO REALITY,
 THEY ARE NOT CERTAIN; AND AS FAR AS THEY ARE CERTAIN,
 THEY DO NOT REFER TO REALITY.

                                         -- ALBERT EINSTEIN
 Job cpu time:  0 days  0 hours 23 minutes 44.0 seconds.
 File lengths (MBytes):  RWF=     35 Int=      0 D2E=      0 Chk=      4 Scr=      1
 Normal termination of Gaussian 09 at Tue May 21 14:32:14 2013.
