 Entering Gaussian System, Link 0=g03
 Initial command:
 /home/system/software/orac/g03_E.01/g03/l1.exe /scratch/pbs.76020.orac/Gau-229536.inp -scrdir=/scratch/pbs.76020.orac/
 Entering Link 1 = /home/system/software/orac/g03_E.01/g03/l1.exe PID=    229537.
  
 Copyright (c) 1988,1990,1992,1993,1995,1998,2003,2004,2007, Gaussian, Inc.
                  All Rights Reserved.
  
 This is the Gaussian(R) 03 program.  It is based on the
 the Gaussian(R) 98 system (copyright 1998, Gaussian, Inc.),
 the Gaussian(R) 94 system (copyright 1995, Gaussian, Inc.),
 the Gaussian 92(TM) system (copyright 1992, Gaussian, Inc.),
 the Gaussian 90(TM) system (copyright 1990, Gaussian, Inc.),
 the Gaussian 88(TM) system (copyright 1988, Gaussian, Inc.),
 the Gaussian 86(TM) system (copyright 1986, Carnegie Mellon
 University), and the Gaussian 82(TM) system (copyright 1983,
 Carnegie Mellon University). Gaussian is a federally registered
 trademark of Gaussian, Inc.
  
 This software contains proprietary and confidential information,
 including trade secrets, belonging to Gaussian, Inc.
  
 This software is provided under written license and may be
 used, copied, transmitted, or stored only in accord with that
 written license.
  
 The following legend is applicable only to US Government
 contracts under FAR:
  
                    RESTRICTED RIGHTS LEGEND
  
 Use, reproduction and disclosure by the US Government is
 subject to restrictions as set forth in subparagraphs (a)
 and (c) of the Commercial Computer Software - Restricted
 Rights clause in FAR 52.227-19.
  
 Gaussian, Inc.
 340 Quinnipiac St., Bldg. 40, Wallingford CT 06492
  
  
 ---------------------------------------------------------------
 Warning -- This program may not be used in any manner that
 competes with the business of Gaussian, Inc. or will provide
 assistance to any competitor of Gaussian, Inc.  The licensee
 of this program is prohibited from giving any competitor of
 Gaussian, Inc. access to this program.  By using this program,
 the user acknowledges that Gaussian, Inc. is engaged in the
 business of creating and licensing software in the field of
 computational chemistry and represents and warrants to the
 licensee that it is not a competitor of Gaussian, Inc. and that
 it will not use this program in any manner prohibited above.
 ---------------------------------------------------------------
  

 Cite this work as:
 Gaussian 03, Revision E.01,
 M. J. Frisch, G. W. Trucks, H. B. Schlegel, G. E. Scuseria, 
 M. A. Robb, J. R. Cheeseman, J. A. Montgomery, Jr., T. Vreven, 
 K. N. Kudin, J. C. Burant, J. M. Millam, S. S. Iyengar, J. Tomasi, 
 V. Barone, B. Mennucci, M. Cossi, G. Scalmani, N. Rega, 
 G. A. Petersson, H. Nakatsuji, M. Hada, M. Ehara, K. Toyota, 
 R. Fukuda, J. Hasegawa, M. Ishida, T. Nakajima, Y. Honda, O. Kitao, 
 H. Nakai, M. Klene, X. Li, J. E. Knox, H. P. Hratchian, J. B. Cross, 
 V. Bakken, C. Adamo, J. Jaramillo, R. Gomperts, R. E. Stratmann, 
 O. Yazyev, A. J. Austin, R. Cammi, C. Pomelli, J. W. Ochterski, 
 P. Y. Ayala, K. Morokuma, G. A. Voth, P. Salvador, J. J. Dannenberg, 
 V. G. Zakrzewski, S. Dapprich, A. D. Daniels, M. C. Strain, 
 O. Farkas, D. K. Malick, A. D. Rabuck, K. Raghavachari, 
 J. B. Foresman, J. V. Ortiz, Q. Cui, A. G. Baboul, S. Clifford, 
 J. Cioslowski, B. B. Stefanov, G. Liu, A. Liashenko, P. Piskorz, 
 I. Komaromi, R. L. Martin, D. J. Fox, T. Keith, M. A. Al-Laham, 
 C. Y. Peng, A. Nanayakkara, M. Challacombe, P. M. W. Gill, 
 B. Johnson, W. Chen, M. W. Wong, C. Gonzalez, and J. A. Pople, 
 Gaussian, Inc., Wallingford CT, 2004.
 
 ******************************************
 Gaussian 03:  IA64L-G03RevE.01 11-Sep-2007
                 8-Sep-2010 
 ******************************************
 %Mem=12GB
 %NProcShared=4
 Will use up to    4 processors via shared memory.
 %chk=HJH070910_Mol_EG2.chk
 ----------------------------------------------------------------------
 #p nmr=(giao,spinspin) b3lyp/epr-II geom=connectivity integral=(grid=ul
 trafine)
 ----------------------------------------------------------------------
 1/38=1,57=2/1;
 2/17=6,18=5,40=1/2;
 3/5=21,11=2,16=1,25=1,30=1,74=-5,75=5/1,2,8,3;
 4//1;
 5/5=2,38=5/2;
 8/6=1,10=90,11=11/1;
 10/13=100,45=16,47=1/2;
 6/7=2,8=2,9=2,10=2,28=1/1;
 99/9=1/99;
 ----------------------
 HJH_070910_Mol_EG2_nmr
 ----------------------
 Symbolic Z-matrix:
 Charge =  0 Multiplicity = 1
 C                     2.8607    4.7685   -0.4334 
 C                     4.1882    4.3309   -0.9042 
 C                     5.1787    5.1915   -1.084 
 C                     5.0001    6.6312   -0.8294 
 C                     2.7495    6.1724    0.0922 
 O                     1.8933    4.0387   -0.5192 
 O                     5.8043    7.4376   -1.2537 
 H                     4.2883    3.4108   -1.1041 
 H                     6.0114    4.9443   -1.4918 
 C                     3.7605    7.0476   -0.0922 
 C                     1.5099    6.5888    0.8294 
 C                     3.6493    8.4515    0.4334 
 C                     1.3313    8.0285    1.084 
 O                     0.7057    5.7824    1.2537 
 C                     2.3218    8.8891    0.9042 
 O                     4.6167    9.1813    0.5192 
 H                     0.4986    8.2757    1.4918 
 H                     2.2217    9.8092    1.1041 
 
                          Input orientation:                          
 ---------------------------------------------------------------------
 Center     Atomic     Atomic              Coordinates (Angstroms)
 Number     Number      Type              X           Y           Z
 ---------------------------------------------------------------------
    1          6             0        2.860700    4.768500   -0.433400
    2          6             0        4.188200    4.330900   -0.904200
    3          6             0        5.178700    5.191500   -1.084000
    4          6             0        5.000100    6.631200   -0.829400
    5          6             0        2.749500    6.172400    0.092200
    6          8             0        1.893300    4.038700   -0.519200
    7          8             0        5.804300    7.437600   -1.253700
    8          1             0        4.288300    3.410800   -1.104100
    9          1             0        6.011400    4.944300   -1.491800
   10          6             0        3.760500    7.047600   -0.092200
   11          6             0        1.509900    6.588800    0.829400
   12          6             0        3.649300    8.451500    0.433400
   13          6             0        1.331300    8.028500    1.084000
   14          8             0        0.705700    5.782400    1.253700
   15          6             0        2.321800    8.889100    0.904200
   16          8             0        4.616700    9.181300    0.519200
   17          1             0        0.498600    8.275700    1.491800
   18          1             0        2.221700    9.809200    1.104100
 ---------------------------------------------------------------------
                    Distance matrix (angstroms):
                    1          2          3          4          5
     1  C    0.000000
     2  C    1.474925   0.000000
     3  C    2.444450   1.324406   0.000000
     4  C    2.864175   2.440524   1.472907   0.000000
     5  C    1.503182   2.540432   2.871694   2.474883   0.000000
     6  O    1.214838   2.345245   3.527294   4.058262   2.378984
     7  O    4.057310   3.519306   2.337764   1.215339   3.569871
     8  H    2.081161   0.946871   1.991007   3.309546   3.380159
     9  H    3.328367   2.011366   0.959582   2.075363   3.828482
    10  C    2.473935   2.867530   2.537728   1.501153   1.349852
    11  C    2.594767   3.908551   4.367338   3.864571   1.501153
    12  C    3.864935   4.365654   3.907578   2.594767   2.473935
    13  C    3.907578   5.078096   5.248931   4.367338   2.537728
    14  O    2.918617   4.346400   5.081509   4.847849   2.382919
    15  C    4.365654   5.246994   5.078096   3.908551   2.867530
    16  O    4.843943   5.073072   4.336427   2.910108   3.566825
    17  H    4.646113   5.908926   6.168498   5.325021   3.383682
    18  H    5.308567   6.157285   5.903794   4.643018   3.811670
                    6          7          8          9         10
     6  O    0.000000
     7  O    5.233348   0.000000
     8  H    2.544090   4.305317   0.000000
     9  H    4.327217   2.513191   2.339018   0.000000
    10  C    3.566825   2.382919   3.811670   3.383682   0.000000
    11  C    2.910108   4.847849   4.643018   5.325021   2.474883
    12  C    4.843943   2.918617   5.308567   4.646113   1.503182
    13  C    4.336427   5.081509   5.903794   6.168498   2.871694
    14  O    2.755732   5.917978   4.900891   6.032465   3.569871
    15  C    5.073072   4.346400   6.157285   5.908926   2.540432
    16  O    5.911135   2.755732   6.003467   4.893003   2.378984
    17  H    4.893003   6.032465   6.690873   7.098666   3.828482
    18  H    6.003467   4.900891   7.077182   6.690873   3.380159
                   11         12         13         14         15
    11  C    0.000000
    12  C    2.864175   0.000000
    13  C    1.472907   2.444450   0.000000
    14  O    1.215339   4.057310   2.337764   0.000000
    15  C    2.440524   1.474925   1.324406   3.519306   0.000000
    16  O    4.058262   1.214838   3.527294   5.233348   2.345245
    17  H    2.075363   3.328367   0.959582   2.513191   2.011366
    18  H    3.309546   2.081161   1.991007   4.305317   0.946871
                   16         17         18
    16  O    0.000000
    17  H    4.327217   0.000000
    18  H    2.544090   2.339018   0.000000
 Stoichiometry    C10H4O4
 Framework group  CI[X(C10H4O4)]
 Deg. of freedom    24
 Full point group                 CI
 Largest Abelian subgroup         CI      NOp   2
 Largest concise Abelian subgroup CI      NOp   2
                         Standard orientation:                         
 ---------------------------------------------------------------------
 Center     Atomic     Atomic              Coordinates (Angstroms)
 Number     Number      Type              X           Y           Z
 ---------------------------------------------------------------------
    1          6             0       -0.394300   -1.841500   -0.433400
    2          6             0        0.933200   -2.279100   -0.904200
    3          6             0        1.923700   -1.418500   -1.084000
    4          6             0        1.745100    0.021200   -0.829400
    5          6             0       -0.505500   -0.437600    0.092200
    6          8             0       -1.361700   -2.571300   -0.519200
    7          8             0        2.549300    0.827600   -1.253700
    8          1             0        1.033300   -3.199200   -1.104100
    9          1             0        2.756400   -1.665700   -1.491800
   10          6             0        0.505500    0.437600   -0.092200
   11          6             0       -1.745100   -0.021200    0.829400
   12          6             0        0.394300    1.841500    0.433400
   13          6             0       -1.923700    1.418500    1.084000
   14          8             0       -2.549300   -0.827600    1.253700
   15          6             0       -0.933200    2.279100    0.904200
   16          8             0        1.361700    2.571300    0.519200
   17          1             0       -2.756400    1.665700    1.491800
   18          1             0       -1.033300    3.199200    1.104100
 ---------------------------------------------------------------------
 Rotational constants (GHZ):      0.9076876      0.8679859      0.4501719
 Standard basis: EPR-II (5D, 7F)
 There are   133 symmetry adapted basis functions of AG  symmetry.
 There are   133 symmetry adapted basis functions of AU  symmetry.
 Integral buffers will be    131072 words long.
 Raffenetti 2 integral format.
 Two-electron integral symmetry is turned on.
   266 basis functions,   470 primitive gaussians,   280 cartesian basis functions
    48 alpha electrons       48 beta electrons
       nuclear repulsion energy       817.3502861826 Hartrees.
 NAtoms=   18 NActive=   18 NUniq=    9 SFac= 3.00D+00 NAtFMM=   80 NAOKFM=F Big=F
 One-electron integrals computed using PRISM.
 NBasis=   266 RedAO= T  NBF=   133   133
 NBsUse=   266 1.00D-06 NBFU=   133   133
 Harris functional with IExCor=  402 diagonalized for initial guess.
 ExpMin= 4.79D-02 ExpMax= 7.82D+03 ExpMxC= 1.18D+03 IAcc=3 IRadAn=         5 AccDes= 0.00D+00
 HarFok:  IExCor= 402 AccDes= 0.00D+00 IRadAn=         5 IDoV=1
 ScaDFX=  1.000000  1.000000  1.000000  1.000000
 Initial guess orbital symmetries:
       Occupied  (AG) (AU) (AG) (AU) (AG) (AU) (AG) (AU) (AG) (AU)
                 (AG) (AU) (AG) (AU) (AG) (AU) (AU) (AG) (AG) (AU)
                 (AG) (AU) (AG) (AU) (AU) (AG) (AG) (AU) (AG) (AG)
                 (AU) (AU) (AU) (AG) (AU) (AG) (AU) (AG) (AG) (AG)
                 (AU) (AU) (AG) (AU) (AU) (AG) (AU) (AG)
       Virtual   (AG) (AU) (AG) (AG) (AU) (AU) (AG) (AU) (AG) (AU)
                 (AG) (AU) (AG) (AG) (AU) (AG) (AU) (AU) (AU) (AG)
                 (AU) (AG) (AU) (AG) (AU) (AG) (AU) (AU) (AG) (AU)
                 (AG) (AG) (AG) (AU) (AU) (AG) (AU) (AG) (AG) (AU)
                 (AG) (AU) (AG) (AU) (AG) (AG) (AU) (AG) (AU) (AU)
                 (AG) (AU) (AG) (AU) (AG) (AU) (AU) (AU) (AG) (AG)
                 (AU) (AG) (AU) (AG) (AU) (AG) (AG) (AU) (AG) (AU)
                 (AG) (AU) (AU) (AG) (AU) (AG) (AU) (AG) (AG) (AU)
                 (AU) (AG) (AG) (AG) (AU) (AU) (AG) (AU) (AG) (AU)
                 (AG) (AU) (AG) (AG) (AU) (AU) (AG) (AU) (AU) (AG)
                 (AG) (AU) (AG) (AU) (AU) (AG) (AG) (AU) (AG) (AU)
                 (AU) (AG) (AU) (AG) (AU) (AG) (AU) (AG) (AU) (AG)
                 (AG) (AU) (AG) (AU) (AG) (AU) (AG) (AU) (AG) (AU)
                 (AU) (AG) (AG) (AU) (AG) (AU) (AU) (AG) (AU) (AG)
                 (AU) (AU) (AG) (AG) (AG) (AU) (AU) (AG) (AG) (AU)
                 (AU) (AG) (AU) (AG) (AU) (AG) (AG) (AU) (AU) (AG)
                 (AG) (AU) (AU) (AG) (AU) (AG) (AU) (AG) (AU) (AG)
                 (AG) (AU) (AG) (AU) (AU) (AG) (AG) (AU) (AG) (AU)
                 (AU) (AG) (AG) (AU) (AG) (AU) (AU) (AG) (AG) (AU)
                 (AU) (AG) (AG) (AU) (AG) (AU) (AU) (AU) (AG) (AG)
                 (AG) (AU) (AU) (AU) (AG) (AG) (AU) (AG) (AG) (AU)
                 (AG) (AU) (AG) (AU) (AU) (AU) (AG) (AG)
 The electronic state of the initial guess is 1-AG.
 Requested convergence on RMS density matrix=1.00D-08 within 128 cycles.
 Requested convergence on MAX density matrix=1.00D-06.
 Requested convergence on             energy=1.00D-06.
 No special actions if energy rises.
 Keep R1 integrals in memory in canonical form, NReq=   786468214.
 SCF Done:  E(RB+HF-LYP) =  -684.351633498     A.U. after   14 cycles
             Convg  =    0.7780D-08             -V/T =  2.0053
             S**2   =   0.0000
 Range of M.O.s used for correlation:     1   266
 NBasis=   266 NAE=    48 NBE=    48 NFC=     0 NFV=     0
 NROrb=    266 NOA=    48 NOB=    48 NVA=   218 NVB=   218

 **** Warning!!: The largest alpha MO coefficient is  0.19790483D+02


 **** Warning!!: The smallest alpha delta epsilon is  0.99621080D-01

 DoAtom=TTTTTTTTTTTTTTTTTT
          Differentiating once with respect to magnetic field using GIAOs.
          Differentiating once with respect to nuclear magnetic moments.
          Differentiating once with respect to Fermi-contact and electric field gradient.
          Electric field/nuclear overlap derivatives assumed to be zero.
 Symmetry not used in FoFDir.
 MinBra= 0 MaxBra= 2 Meth= 1.
 IRaf=       0 NMat=   1 IRICut=       1 DoRegI=T DoRafI=F ISym2E= 0 JSym2E=0.
          There are  30 degrees of freedom in the 1st order CPHF.
    30 vectors were produced by pass  0.
 AX will form  30 AO Fock derivatives at one time.
    30 vectors were produced by pass  1.
    30 vectors were produced by pass  2.
    30 vectors were produced by pass  3.
    30 vectors were produced by pass  4.
    24 vectors were produced by pass  5.
     8 vectors were produced by pass  6.
 Inv2:  IOpt= 1 Iter= 1 AM= 2.66D-15 Conv= 1.00D-12.
 Inverted reduced A of dimension  182 with in-core refinement.
 Calculating GIAO nuclear magnetic shielding tensors.
 SCF GIAO Magnetic shielding tensor (ppm):
  1  C    Isotropic =    -3.6006   Anisotropy =   177.9841
   XX=   -45.3332   YX=     1.1533   ZX=    34.2339
   XY=     5.0856   YY=   -52.0000   ZY=   -61.8208
   XZ=    38.0064   YZ=   -56.2887   ZZ=    86.5313
   Eigenvalues:   -81.5389   -44.3183   115.0554
  2  C    Isotropic =    63.5418   Anisotropy =   134.2203
   XX=    57.5811   YX=    52.6425   ZX=    42.6147
   XY=    51.9533   YY=    -0.0320   ZY=   -44.1009
   XZ=    40.1341   YZ=   -32.8640   ZZ=   133.0764
   Eigenvalues:   -47.3714    84.9748   153.0220
  3  C    Isotropic =    62.8120   Anisotropy =   133.0522
   XX=    31.7021   YX=    54.9049   ZX=    55.2677
   XY=    54.1483   YY=    28.1027   ZY=   -45.2241
   XZ=    39.2174   YZ=   -38.7371   ZZ=   128.6312
   Eigenvalues:   -47.2562    84.1787   151.5134
  4  C    Isotropic =    -3.8773   Anisotropy =   179.8788
   XX=   -23.5610   YX=    10.7354   ZX=    81.9887
   XY=     5.9481   YY=   -57.5412   ZY=   -18.4307
   XZ=    76.7105   YZ=   -22.9508   ZZ=    69.4702
   Eigenvalues:   -82.0620   -45.6118   116.0419
  5  C    Isotropic =    76.2212   Anisotropy =   105.4110
   XX=    93.3965   YX=    58.5498   ZX=    47.2813
   XY=    61.3317   YY=    50.2276   ZY=   -64.6474
   XZ=    63.3931   YZ=   -81.0998   ZZ=    85.0396
   Eigenvalues:   -52.6496   134.8181   146.4952
  6  O    Isotropic =  -499.3158   Anisotropy =  1323.7417
   XX= -1050.8937   YX=  -547.0951   ZX=    36.2761
   XY=  -550.1682   YY=  -709.4491   ZY=  -319.9566
   XZ=    71.3956   YZ=  -286.4193   ZZ=   262.3953
   Eigenvalues: -1465.9387  -415.1874   383.1787
  7  O    Isotropic =  -502.5457   Anisotropy =  1327.1050
   XX=  -683.6799   YX=  -478.0260   ZX=   624.0887
   XY=  -479.2386   YY=  -863.6336   ZY=   234.8832
   XZ=   579.3962   YZ=   198.1322   ZZ=    39.6766
   Eigenvalues: -1473.6755  -416.1525   382.1910
  8  H    Isotropic =    27.9292   Anisotropy =     7.9077
   XX=    31.7033   YX=     3.6987   ZX=    -0.5024
   XY=     3.5559   YY=    23.5725   ZY=    -1.9032
   XZ=     0.1729   YZ=    -1.2690   ZZ=    28.5119
   Eigenvalues:    21.8819    28.7048    33.2010
  9  H    Isotropic =    27.7130   Anisotropy =     7.6777
   XX=    25.3357   YX=     4.4757   ZX=     2.3360
   XY=     4.3285   YY=    30.2041   ZY=    -1.4728
   XZ=     0.8655   YZ=    -1.3147   ZZ=    27.5992
   Eigenvalues:    21.9648    28.3427    32.8315
 10  C    Isotropic =    76.2212   Anisotropy =   105.4110
   XX=    93.3965   YX=    58.5498   ZX=    47.2813
   XY=    61.3317   YY=    50.2276   ZY=   -64.6474
   XZ=    63.3930   YZ=   -81.0998   ZZ=    85.0396
   Eigenvalues:   -52.6496   134.8181   146.4952
 11  C    Isotropic =    -3.8773   Anisotropy =   179.8788
   XX=   -23.5610   YX=    10.7354   ZX=    81.9887
   XY=     5.9481   YY=   -57.5412   ZY=   -18.4307
   XZ=    76.7105   YZ=   -22.9508   ZZ=    69.4702
   Eigenvalues:   -82.0621   -45.6118   116.0419
 12  C    Isotropic =    -3.6006   Anisotropy =   177.9840
   XX=   -45.3332   YX=     1.1533   ZX=    34.2339
   XY=     5.0856   YY=   -51.9999   ZY=   -61.8208
   XZ=    38.0064   YZ=   -56.2887   ZZ=    86.5313
   Eigenvalues:   -81.5389   -44.3183   115.0554
 13  C    Isotropic =    62.8120   Anisotropy =   133.0522
   XX=    31.7021   YX=    54.9049   ZX=    55.2677
   XY=    54.1483   YY=    28.1027   ZY=   -45.2241
   XZ=    39.2174   YZ=   -38.7371   ZZ=   128.6312
   Eigenvalues:   -47.2562    84.1787   151.5134
 14  O    Isotropic =  -502.5457   Anisotropy =  1327.1050
   XX=  -683.6799   YX=  -478.0260   ZX=   624.0886
   XY=  -479.2386   YY=  -863.6336   ZY=   234.8832
   XZ=   579.3962   YZ=   198.1322   ZZ=    39.6765
   Eigenvalues: -1473.6755  -416.1525   382.1910
 15  C    Isotropic =    63.5418   Anisotropy =   134.2203
   XX=    57.5811   YX=    52.6425   ZX=    42.6147
   XY=    51.9533   YY=    -0.0320   ZY=   -44.1009
   XZ=    40.1340   YZ=   -32.8640   ZZ=   133.0764
   Eigenvalues:   -47.3714    84.9748   153.0220
 16  O    Isotropic =  -499.3158   Anisotropy =  1323.7418
   XX= -1050.8938   YX=  -547.0951   ZX=    36.2762
   XY=  -550.1682   YY=  -709.4491   ZY=  -319.9566
   XZ=    71.3956   YZ=  -286.4194   ZZ=   262.3953
   Eigenvalues: -1465.9388  -415.1874   383.1787
 17  H    Isotropic =    27.7130   Anisotropy =     7.6777
   XX=    25.3357   YX=     4.4757   ZX=     2.3360
   XY=     4.3285   YY=    30.2041   ZY=    -1.4728
   XZ=     0.8655   YZ=    -1.3147   ZZ=    27.5992
   Eigenvalues:    21.9648    28.3427    32.8315
 18  H    Isotropic =    27.9292   Anisotropy =     7.9077
   XX=    31.7033   YX=     3.6987   ZX=    -0.5024
   XY=     3.5559   YY=    23.5725   ZY=    -1.9032
   XZ=     0.1728   YZ=    -1.2690   ZZ=    28.5119
   Eigenvalues:    21.8819    28.7048    33.2010
          There are  63 degrees of freedom in the 1st order CPHF.
    54 vectors were produced by pass  0.
    54 vectors were produced by pass  1.
    54 vectors were produced by pass  2.
    54 vectors were produced by pass  3.
    54 vectors were produced by pass  4.
    54 vectors were produced by pass  5.
    42 vectors were produced by pass  6.
     1 vectors were produced by pass  7.
 Inv2:  IOpt= 1 Iter= 1 AM= 4.33D-15 Conv= 1.00D-12.
 Inverted reduced A of dimension  367 with in-core refinement.
 There are a total of      408400 grid points.
 ElSum from density=      191.9999900096
 Fermi Contact (FC) contribution to K (Hz):
                1             2             3             4             5
      1  0.000000D+00
      2  0.296484D+02  0.000000D+00
      3 -0.594337D+00  0.355423D+02  0.000000D+00
      4  0.558592D+01 -0.639055D+00  0.290236D+02  0.000000D+00
      5  0.285343D+02  0.802991D+01 -0.749400D+00 -0.158268D+00  0.000000D+00
      6 -0.167064D+02  0.273178D+01  0.138622D+01 -0.890948D+00  0.183017D+01
      7 -0.899427D+00  0.142040D+01  0.290347D+01 -0.167090D+02  0.957680D+00
      8  0.206277D+00  0.213144D+02  0.345481D+00  0.130452D+01  0.534245D+00
      9  0.131886D+01  0.457323D+00  0.215613D+02  0.137569D+00 -0.788424D-01
     10 -0.171002D+00 -0.761192D+00  0.799580D+01  0.288594D+02  0.350741D+02
     11  0.260373D+00  0.971663D+00 -0.238671D+00  0.193029D+01  0.288594D+02
     12  0.194688D+01 -0.247574D+00  0.976612D+00  0.260373D+00 -0.171002D+00
     13  0.976612D+00  0.519738D+00 -0.105330D+00 -0.238671D+00  0.799580D+01
     14 -0.873275D-01 -0.296239D-01  0.832872D-01 -0.594806D-01  0.172926D+01
     15 -0.247574D+00 -0.110383D+00  0.519738D+00  0.971663D+00 -0.761192D+00
     16 -0.546850D-01  0.764429D-01 -0.290437D-01 -0.692187D-01  0.961627D+00
     17  0.141588D+00  0.297462D-01 -0.733296D-02  0.613265D-02  0.522395D+00
     18  0.666097D-02 -0.102371D-01  0.275729D-01  0.141558D+00 -0.741566D-01
                6             7             8             9            10
      6  0.000000D+00
      7  0.586556D+00  0.000000D+00
      8  0.341401D+00 -0.569011D-01  0.000000D+00
      9 -0.528180D-01  0.367794D+00  0.319419D+00  0.000000D+00
     10  0.961627D+00  0.172926D+01 -0.741566D-01  0.522395D+00  0.000000D+00
     11 -0.692187D-01 -0.594806D-01  0.141558D+00  0.613265D-02 -0.158268D+00
     12 -0.546850D-01 -0.873275D-01  0.666097D-02  0.141588D+00  0.285343D+02
     13 -0.290437D-01  0.832872D-01  0.275729D-01 -0.733296D-02 -0.749400D+00
     14  0.327932D+01  0.131433D+00  0.458530D-02 -0.609113D-02  0.957680D+00
     15  0.764429D-01 -0.296239D-01 -0.102371D-01  0.297462D-01  0.802991D+01
     16  0.133142D+00  0.327932D+01 -0.768870D-02  0.578156D-02  0.183017D+01
     17  0.578156D-02 -0.609113D-02  0.327302D-02  0.440476D-03 -0.788424D-01
     18 -0.768870D-02  0.458530D-02  0.117792D-03  0.327302D-02  0.534245D+00
               11            12            13            14            15
     11  0.000000D+00
     12  0.558592D+01  0.000000D+00
     13  0.290236D+02 -0.594337D+00  0.000000D+00
     14 -0.167090D+02 -0.899427D+00  0.290347D+01  0.000000D+00
     15 -0.639055D+00  0.296484D+02  0.355423D+02  0.142040D+01  0.000000D+00
     16 -0.890948D+00 -0.167064D+02  0.138622D+01  0.586556D+00  0.273178D+01
     17  0.137569D+00  0.131886D+01  0.215613D+02  0.367794D+00  0.457323D+00
     18  0.130452D+01  0.206277D+00  0.345481D+00 -0.569011D-01  0.213144D+02
               16            17            18
     16  0.000000D+00
     17 -0.528180D-01  0.000000D+00
     18  0.341401D+00  0.319419D+00  0.000000D+00
 Fermi Contact (FC) contribution to J (Hz):
                1             2             3             4             5
      1  0.000000D+00
      2  0.585119D+02  0.000000D+00
      3 -0.117294D+01  0.701436D+02  0.000000D+00
      4  0.110239D+02 -0.126119D+01  0.572789D+02  0.000000D+00
      5  0.563132D+02  0.158472D+02 -0.147896D+01 -0.312346D+00  0.000000D+00
      6  0.177786D+02 -0.290711D+01 -0.147519D+01  0.948129D+00 -0.194763D+01
      7  0.957153D+00 -0.151157D+01 -0.308981D+01  0.177814D+02 -0.101914D+01
      8  0.161864D+01  0.167252D+03  0.271095D+01  0.102365D+02  0.419217D+01
      9  0.103489D+02  0.358857D+01  0.169189D+03  0.107949D+01 -0.618669D+00
     10 -0.337476D+00 -0.150223D+01  0.157799D+02  0.569547D+02  0.692196D+02
     11  0.513853D+00  0.191760D+01 -0.471023D+00  0.380947D+01  0.569547D+02
     12  0.384222D+01 -0.488593D+00  0.192737D+01  0.513853D+00 -0.337476D+00
     13  0.192737D+01  0.102572D+01 -0.207872D+00 -0.471023D+00  0.157799D+02
     14  0.929322D-01  0.315252D-01 -0.886326D-01  0.632981D-01 -0.184024D+01
     15 -0.488593D+00 -0.217844D+00  0.102572D+01  0.191760D+01 -0.150223D+01
     16  0.581947D-01 -0.813491D-01  0.309078D-01  0.736612D-01 -0.102334D+01
     17  0.111102D+01  0.233415D+00 -0.575411D-01  0.481223D-01  0.409918D+01
     18  0.522680D-01 -0.803298D-01  0.216362D+00  0.111079D+01 -0.581899D+00
                6             7             8             9            10
      6  0.000000D+00
      7  0.336588D+00  0.000000D+00
      8 -0.144456D+01  0.240764D+00  0.000000D+00
      9  0.223487D+00 -0.155624D+01  0.996587D+01  0.000000D+00
     10 -0.102334D+01 -0.184024D+01 -0.581899D+00  0.409918D+01  0.000000D+00
     11  0.736612D-01  0.632981D-01  0.111079D+01  0.481223D-01 -0.312346D+00
     12  0.581947D-01  0.929322D-01  0.522680D-01  0.111102D+01  0.563132D+02
     13  0.309078D-01 -0.886326D-01  0.216362D+00 -0.575411D-01 -0.147896D+01
     14  0.188179D+01  0.754209D-01 -0.194017D-01  0.257732D-01 -0.101914D+01
     15 -0.813491D-01  0.315252D-01 -0.803298D-01  0.233415D+00  0.158472D+02
     16  0.764020D-01  0.188179D+01  0.325330D-01 -0.244634D-01 -0.194763D+01
     17 -0.244634D-01  0.257732D-01  0.102118D+00  0.137428D-01 -0.618669D+00
     18  0.325330D-01 -0.194017D-01  0.367512D-02  0.102118D+00  0.419217D+01
               11            12            13            14            15
     11  0.000000D+00
     12  0.110239D+02  0.000000D+00
     13  0.572789D+02 -0.117294D+01  0.000000D+00
     14  0.177814D+02  0.957153D+00 -0.308981D+01  0.000000D+00
     15 -0.126119D+01  0.585119D+02  0.701436D+02 -0.151157D+01  0.000000D+00
     16  0.948129D+00  0.177786D+02 -0.147519D+01  0.336588D+00 -0.290711D+01
     17  0.107949D+01  0.103489D+02  0.169189D+03 -0.155624D+01  0.358857D+01
     18  0.102365D+02  0.161864D+01  0.271095D+01  0.240764D+00  0.167252D+03
               16            17            18
     16  0.000000D+00
     17  0.223487D+00  0.000000D+00
     18 -0.144456D+01  0.996587D+01  0.000000D+00
 Spin-dipolar (SD) contribution to K (Hz):
                1             2             3             4             5
      1  0.000000D+00
      2  0.587411D+00  0.000000D+00
      3 -0.154802D+00  0.157231D+01  0.000000D+00
      4  0.450009D-01 -0.160918D+00  0.602750D+00  0.000000D+00
      5  0.604999D+00 -0.151746D+00  0.440738D-01 -0.104627D+00  0.000000D+00
      6  0.234734D+01 -0.227287D+00  0.265324D+01 -0.100319D+01  0.820871D+00
      7 -0.994837D+00  0.280314D+01 -0.212061D+00  0.232853D+01  0.248812D+01
      8  0.153256D-02  0.497866D-01  0.218699D-01 -0.320944D-02  0.356770D-02
      9 -0.291359D-02  0.178272D-01  0.503893D-01 -0.183453D-04 -0.386900D-02
     10 -0.105352D+00  0.421666D-01 -0.152037D+00  0.600990D+00  0.155568D+01
     11 -0.355074D-01  0.408403D-01 -0.725762D-02  0.310613D-01  0.600990D+00
     12  0.314585D-01 -0.749200D-02  0.413993D-01 -0.355074D-01 -0.105352D+00
     13  0.413993D-01 -0.113708D-02 -0.944223D-03 -0.725762D-02 -0.152037D+00
     14 -0.564294D-01  0.124939D+00  0.145700D+00 -0.509040D+00  0.828460D+00
     15 -0.749200D-02 -0.112325D-02 -0.113708D-02  0.408403D-01  0.421666D-01
     16 -0.507450D+00  0.143027D+00  0.127238D+00 -0.572861D-01  0.249964D+01
     17 -0.604486D-04  0.655898D-03 -0.857809D-03  0.182481D-02  0.437688D-02
     18  0.179156D-02 -0.835772D-03  0.640650D-03  0.938152D-04 -0.298040D-02
                6             7             8             9            10
      6  0.000000D+00
      7  0.161678D+01  0.000000D+00
      8  0.713660D-01 -0.273215D-01  0.000000D+00
      9 -0.225479D-01  0.761010D-01 -0.375993D-02  0.000000D+00
     10  0.249964D+01  0.828460D+00 -0.298040D-02  0.437688D-02  0.000000D+00
     11 -0.572861D-01 -0.509040D+00  0.938152D-04  0.182481D-02 -0.104627D+00
     12 -0.507450D+00 -0.564294D-01  0.179156D-02 -0.604486D-04  0.604999D+00
     13  0.127238D+00  0.145700D+00  0.640650D-03 -0.857809D-03  0.440738D-01
     14 -0.373784D+01 -0.141370D+01  0.658546D-02 -0.153576D-02  0.248812D+01
     15  0.143027D+00  0.124939D+00 -0.835772D-03  0.655898D-03 -0.151746D+00
     16 -0.142659D+01 -0.373784D+01 -0.132939D-02  0.615022D-02  0.820871D+00
     17  0.615022D-02 -0.153576D-02 -0.254679D-03 -0.336787D-04 -0.386900D-02
     18 -0.132939D-02  0.658546D-02 -0.267636D-04 -0.254679D-03  0.356770D-02
               11            12            13            14            15
     11  0.000000D+00
     12  0.450009D-01  0.000000D+00
     13  0.602750D+00 -0.154802D+00  0.000000D+00
     14  0.232853D+01 -0.994837D+00 -0.212061D+00  0.000000D+00
     15 -0.160918D+00  0.587411D+00  0.157231D+01  0.280314D+01  0.000000D+00
     16 -0.100319D+01  0.234734D+01  0.265324D+01  0.161678D+01 -0.227287D+00
     17 -0.183453D-04 -0.291359D-02  0.503893D-01  0.761010D-01  0.178272D-01
     18 -0.320944D-02  0.153256D-02  0.218699D-01 -0.273215D-01  0.497866D-01
               16            17            18
     16  0.000000D+00
     17 -0.225479D-01  0.000000D+00
     18  0.713660D-01 -0.375993D-02  0.000000D+00
 Spin-dipolar (SD) contribution to J (Hz):
                1             2             3             4             5
      1  0.000000D+00
      2  0.115927D+01  0.000000D+00
      3 -0.305506D+00  0.310299D+01  0.000000D+00
      4  0.888103D-01 -0.317576D+00  0.118954D+01  0.000000D+00
      5  0.119398D+01 -0.299474D+00  0.869808D-01 -0.206485D+00  0.000000D+00
      6 -0.249799D+01  0.241875D+00 -0.282353D+01  0.106757D+01 -0.873555D+00
      7  0.105869D+01 -0.298304D+01  0.225672D+00 -0.247798D+01 -0.264781D+01
      8  0.120258D-01  0.390671D+00  0.171611D+00 -0.251841D-01  0.279954D-01
      9 -0.228626D-01  0.139888D+00  0.395400D+00 -0.143954D-03 -0.303597D-01
     10 -0.207915D+00  0.832168D-01 -0.300048D+00  0.118607D+01  0.307017D+01
     11 -0.700748D-01  0.805994D-01 -0.143231D-01  0.613002D-01  0.118607D+01
     12  0.620842D-01 -0.147856D-01  0.817025D-01 -0.700748D-01 -0.207915D+00
     13  0.817025D-01 -0.224406D-02 -0.186345D-02 -0.143231D-01 -0.300048D+00
     14  0.600511D-01 -0.132958D+00 -0.155051D+00  0.541711D+00 -0.881631D+00
     15 -0.147856D-01 -0.221676D-02 -0.224406D-02  0.805994D-01  0.832168D-01
     16  0.540018D+00 -0.152207D+00 -0.135404D+00  0.609628D-01 -0.266007D+01
     17 -0.474335D-03  0.514676D-02 -0.673114D-02  0.143191D-01  0.343450D-01
     18  0.140582D-01 -0.655822D-02  0.502712D-02  0.736159D-03 -0.233869D-01
                6             7             8             9            10
      6  0.000000D+00
      7  0.927767D+00  0.000000D+00
      8 -0.301969D+00  0.115605D+00  0.000000D+00
      9  0.954063D-01 -0.322004D+00 -0.117310D+00  0.000000D+00
     10 -0.266007D+01 -0.881631D+00 -0.233869D-01  0.343450D-01  0.000000D+00
     11  0.609628D-01  0.541711D+00  0.736159D-03  0.143191D-01 -0.206485D+00
     12  0.540018D+00  0.600511D-01  0.140582D-01 -0.474335D-03  0.119398D+01
     13 -0.135404D+00 -0.155051D+00  0.502712D-02 -0.673114D-02  0.869808D-01
     14 -0.214491D+01 -0.811235D+00 -0.278649D-01  0.649822D-02 -0.264781D+01
     15 -0.152207D+00 -0.132958D+00 -0.655822D-02  0.514676D-02 -0.299474D+00
     16 -0.818629D+00 -0.214491D+01  0.562501D-02 -0.260233D-01 -0.873555D+00
     17 -0.260233D-01  0.649822D-02 -0.794597D-02 -0.105077D-02 -0.303597D-01
     18  0.562501D-02 -0.278649D-01 -0.835022D-03 -0.794597D-02  0.279954D-01
               11            12            13            14            15
     11  0.000000D+00
     12  0.888103D-01  0.000000D+00
     13  0.118954D+01 -0.305506D+00  0.000000D+00
     14 -0.247798D+01  0.105869D+01  0.225672D+00  0.000000D+00
     15 -0.317576D+00  0.115927D+01  0.310299D+01 -0.298304D+01  0.000000D+00
     16  0.106757D+01 -0.249799D+01 -0.282353D+01  0.927767D+00  0.241875D+00
     17 -0.143954D-03 -0.228626D-01  0.395400D+00 -0.322004D+00  0.139888D+00
     18 -0.251841D-01  0.120258D-01  0.171611D+00  0.115605D+00  0.390671D+00
               16            17            18
     16  0.000000D+00
     17  0.954063D-01  0.000000D+00
     18 -0.301969D+00 -0.117310D+00  0.000000D+00
 Paramagnetic spin-orbit (PSO) contribution to K (Hz):
                1             2             3             4             5
      1  0.000000D+00
      2 -0.116696D+01  0.000000D+00
      3  0.324214D+00 -0.557352D+01  0.000000D+00
      4 -0.223619D+00  0.337381D+00 -0.117226D+01  0.000000D+00
      5 -0.926178D+00 -0.282130D+00 -0.139211D+00  0.345513D+00  0.000000D+00
      6 -0.203433D+02  0.233303D+01  0.220276D+01 -0.121282D+01  0.431819D+01
      7 -0.121306D+01  0.227279D+01  0.242991D+01 -0.204397D+02  0.256604D+01
      8 -0.629241D-01 -0.219012D+00 -0.268334D+00  0.358057D-01  0.151950D-01
      9  0.350551D-01 -0.254800D+00 -0.208898D+00 -0.657086D-01  0.170590D-01
     10  0.347365D+00 -0.143558D+00 -0.277702D+00 -0.930020D+00 -0.606328D+01
     11 -0.664670D-01  0.471668D-01  0.171035D-02 -0.651155D-01 -0.930020D+00
     12 -0.642275D-01  0.230416D-02  0.476487D-01 -0.664670D-01  0.347365D+00
     13  0.476487D-01  0.269945D-01  0.586566D-02  0.171035D-02 -0.277702D+00
     14 -0.660864D+00  0.293431D+00  0.187968D+00 -0.836499D+00  0.428848D+01
     15  0.230416D-02  0.502960D-02  0.269945D-01  0.471668D-01 -0.143558D+00
     16 -0.837624D+00  0.194248D+00  0.290039D+00 -0.658207D+00  0.257924D+01
     17  0.206964D-01  0.214429D-01  0.202338D-01  0.200431D-01  0.144313D-01
     18  0.202569D-01  0.202976D-01  0.216787D-01  0.206273D-01  0.170213D-01
                6             7             8             9            10
      6  0.000000D+00
      7 -0.488475D+01  0.000000D+00
      8  0.751576D-01  0.444131D-01  0.000000D+00
      9  0.449055D-01  0.796910D-01  0.730104D-02  0.000000D+00
     10  0.257924D+01  0.428848D+01  0.170213D-01  0.144313D-01  0.000000D+00
     11 -0.658207D+00 -0.836499D+00  0.206273D-01  0.200431D-01  0.345513D+00
     12 -0.837624D+00 -0.660864D+00  0.202569D-01  0.206964D-01 -0.926178D+00
     13  0.290039D+00  0.187968D+00  0.216787D-01  0.202338D-01 -0.139211D+00
     14 -0.709204D+01 -0.626087D+01  0.308508D-01  0.183965D-01  0.256604D+01
     15  0.194248D+00  0.293431D+00  0.202976D-01  0.214429D-01 -0.282130D+00
     16 -0.630456D+01 -0.709204D+01  0.186676D-01  0.317388D-01  0.431819D+01
     17  0.317388D-01  0.183965D-01  0.236917D-01  0.239946D-01  0.170590D-01
     18  0.186676D-01  0.308508D-01  0.242631D-01  0.236917D-01  0.151950D-01
               11            12            13            14            15
     11  0.000000D+00
     12 -0.223619D+00  0.000000D+00
     13 -0.117226D+01  0.324214D+00  0.000000D+00
     14 -0.204397D+02 -0.121306D+01  0.242991D+01  0.000000D+00
     15  0.337381D+00 -0.116696D+01 -0.557352D+01  0.227279D+01  0.000000D+00
     16 -0.121282D+01 -0.203433D+02  0.220276D+01 -0.488475D+01  0.233303D+01
     17 -0.657086D-01  0.350551D-01 -0.208898D+00  0.796910D-01 -0.254800D+00
     18  0.358057D-01 -0.629241D-01 -0.268334D+00  0.444131D-01 -0.219012D+00
               16            17            18
     16  0.000000D+00
     17  0.449055D-01  0.000000D+00
     18  0.751576D-01  0.730104D-02  0.000000D+00
 Paramagnetic spin-orbit (PSO) contribution to J (Hz):
                1             2             3             4             5
      1  0.000000D+00
      2 -0.230303D+01  0.000000D+00
      3  0.639844D+00 -0.109995D+02  0.000000D+00
      4 -0.441317D+00  0.665831D+00 -0.231349D+01  0.000000D+00
      5 -0.182784D+01 -0.556790D+00 -0.274736D+00  0.681879D+00  0.000000D+00
      6  0.216489D+02 -0.248277D+01 -0.234413D+01  0.129066D+01 -0.459534D+01
      7  0.129092D+01 -0.241866D+01 -0.258587D+01  0.217515D+02 -0.273073D+01
      8 -0.493759D+00 -0.171857D+01 -0.210559D+01  0.280964D+00  0.119234D+00
      9  0.275074D+00 -0.199939D+01 -0.163920D+01 -0.515609D+00  0.133860D+00
     10  0.685534D+00 -0.283315D+00 -0.548052D+00 -0.183542D+01 -0.119660D+02
     11 -0.131174D+00  0.930849D-01  0.337542D-02 -0.128507D+00 -0.183542D+01
     12 -0.126755D+00  0.454732D-02  0.940359D-01 -0.131174D+00  0.685534D+00
     13  0.940359D-01  0.532743D-01  0.115760D-01  0.337542D-02 -0.548052D+00
     14  0.703279D+00 -0.312263D+00 -0.200032D+00  0.890186D+00 -0.456372D+01
     15  0.454732D-02  0.992603D-02  0.532743D-01  0.930849D-01 -0.283315D+00
     16  0.891384D+00 -0.206715D+00 -0.308654D+00  0.700451D+00 -0.274478D+01
     17  0.162403D+00  0.168260D+00  0.158773D+00  0.157277D+00  0.113241D+00
     18  0.158954D+00  0.159274D+00  0.170111D+00  0.161861D+00  0.133564D+00
                6             7             8             9            10
      6  0.000000D+00
      7 -0.280305D+01  0.000000D+00
      8 -0.318013D+00 -0.187924D+00  0.000000D+00
      9 -0.190007D+00 -0.337194D+00  0.227792D+00  0.000000D+00
     10 -0.274478D+01 -0.456372D+01  0.133564D+00  0.113241D+00  0.000000D+00
     11  0.700451D+00  0.890186D+00  0.161861D+00  0.157277D+00  0.681879D+00
     12  0.891384D+00  0.703279D+00  0.158954D+00  0.162403D+00 -0.182784D+01
     13 -0.308654D+00 -0.200032D+00  0.170111D+00  0.158773D+00 -0.274736D+00
     14 -0.406967D+01 -0.359271D+01 -0.130538D+00 -0.778408D-01 -0.273073D+01
     15 -0.206715D+00 -0.312263D+00  0.159274D+00  0.168260D+00 -0.556790D+00
     16 -0.361779D+01 -0.406967D+01 -0.789877D-01 -0.134296D+00 -0.459534D+01
     17 -0.134296D+00 -0.778408D-01  0.739179D+00  0.748631D+00  0.133860D+00
     18 -0.789877D-01 -0.130538D+00  0.757006D+00  0.739179D+00  0.119234D+00
               11            12            13            14            15
     11  0.000000D+00
     12 -0.441317D+00  0.000000D+00
     13 -0.231349D+01  0.639844D+00  0.000000D+00
     14  0.217515D+02  0.129092D+01 -0.258587D+01  0.000000D+00
     15  0.665831D+00 -0.230303D+01 -0.109995D+02 -0.241866D+01  0.000000D+00
     16  0.129066D+01  0.216489D+02 -0.234413D+01 -0.280305D+01 -0.248277D+01
     17 -0.515609D+00  0.275074D+00 -0.163920D+01 -0.337194D+00 -0.199939D+01
     18  0.280964D+00 -0.493759D+00 -0.210559D+01 -0.187924D+00 -0.171857D+01
               16            17            18
     16  0.000000D+00
     17 -0.190007D+00  0.000000D+00
     18 -0.318013D+00  0.227792D+00  0.000000D+00
 Diamagnetic spin-orbit (DSO) contribution to K (Hz):
                1             2             3             4             5
      1  0.000000D+00
      2  0.173253D+00  0.000000D+00
      3  0.256317D-01  0.128007D+00  0.000000D+00
      4  0.534783D-01  0.258984D-01  0.172894D+00  0.000000D+00
      5  0.198185D+00  0.332419D-01  0.258064D-01  0.464591D-01  0.000000D+00
      6  0.109074D+00 -0.138716D-01 -0.444599D-01 -0.231754D-01  0.343256D-02
      7 -0.231068D-01 -0.444174D-01 -0.137182D-01  0.109556D+00 -0.341205D-01
      8 -0.121624D-01  0.153834D+00 -0.625768D-01 -0.518449D-01 -0.480433D-01
      9 -0.504140D-01 -0.628921D-01  0.151136D+00 -0.873279D-02 -0.445010D-01
     10  0.467241D-01  0.262378D-01  0.330063D-01  0.198644D+00  0.180232D+00
     11  0.446686D-01 -0.132769D-01 -0.140728D-01 -0.149192D-02  0.198644D+00
     12 -0.152344D-02 -0.140617D-01 -0.135184D-01  0.446686D-01  0.467241D-01
     13 -0.135184D-01 -0.225792D-01 -0.219274D-01 -0.140728D-01  0.330063D-01
     14  0.150160D-01 -0.222267D-01 -0.256535D-01 -0.229233D-01  0.280493D-02
     15 -0.140617D-01 -0.217855D-01 -0.225792D-01 -0.132769D-01  0.262378D-01
     16 -0.229217D-01 -0.256583D-01 -0.222793D-01  0.158128D-01 -0.341790D-01
     17 -0.337295D-01 -0.330799D-01 -0.329684D-01 -0.341574D-01 -0.475400D-01
     18 -0.345068D-01 -0.332273D-01 -0.334367D-01 -0.338337D-01 -0.451406D-01
                6             7             8             9            10
      6  0.000000D+00
      7 -0.385361D-01  0.000000D+00
      8 -0.497602D-02 -0.529593D-01  0.000000D+00
      9 -0.519629D-01 -0.152306D-02 -0.262315D-01  0.000000D+00
     10 -0.341790D-01  0.280493D-02 -0.451406D-01 -0.475400D-01  0.000000D+00
     11  0.158128D-01 -0.229233D-01 -0.338337D-01 -0.341574D-01  0.464591D-01
     12 -0.229217D-01  0.150160D-01 -0.345068D-01 -0.337295D-01  0.198185D+00
     13 -0.222793D-01 -0.256535D-01 -0.334367D-01 -0.329684D-01  0.258064D-01
     14  0.299314D-01 -0.332505D-01 -0.293820D-01 -0.356249D-01 -0.341205D-01
     15 -0.256583D-01 -0.222267D-01 -0.332273D-01 -0.330799D-01  0.332419D-01
     16 -0.332888D-01  0.299314D-01 -0.357905D-01 -0.294368D-01  0.343256D-02
     17 -0.294368D-01 -0.356249D-01 -0.361114D-01 -0.367006D-01 -0.445010D-01
     18 -0.357905D-01 -0.293820D-01 -0.372310D-01 -0.361114D-01 -0.480433D-01
               11            12            13            14            15
     11  0.000000D+00
     12  0.534783D-01  0.000000D+00
     13  0.172894D+00  0.256317D-01  0.000000D+00
     14  0.109556D+00 -0.231068D-01 -0.137182D-01  0.000000D+00
     15  0.258984D-01  0.173253D+00  0.128007D+00 -0.444174D-01  0.000000D+00
     16 -0.231754D-01  0.109074D+00 -0.444599D-01 -0.385361D-01 -0.138716D-01
     17 -0.873279D-02 -0.504140D-01  0.151136D+00 -0.152306D-02 -0.628921D-01
     18 -0.518449D-01 -0.121624D-01 -0.625768D-01 -0.529593D-01  0.153834D+00
               16            17            18
     16  0.000000D+00
     17 -0.519629D-01  0.000000D+00
     18 -0.497602D-02 -0.262315D-01  0.000000D+00
 Diamagnetic spin-orbit (DSO) contribution to J (Hz):
                1             2             3             4             5
      1  0.000000D+00
      2  0.341919D+00  0.000000D+00
      3  0.505848D-01  0.252626D+00  0.000000D+00
      4  0.105541D+00  0.511112D-01  0.341211D+00  0.000000D+00
      5  0.391124D+00  0.656038D-01  0.509296D-01  0.916882D-01  0.000000D+00
      6 -0.116074D+00  0.147619D-01  0.473134D-01  0.246628D-01 -0.365287D-02
      7  0.245898D-01  0.472681D-01  0.145986D-01 -0.116588D+00  0.363104D-01
      8 -0.954368D-01  0.120712D+01 -0.491034D+00 -0.406822D+00 -0.376991D+00
      9 -0.395594D+00 -0.493508D+00  0.118595D+01 -0.685254D-01 -0.349195D+00
     10  0.922111D-01  0.517810D-01  0.651387D-01  0.392029D+00  0.355693D+00
     11  0.881546D-01 -0.262023D-01 -0.277730D-01 -0.294433D-02  0.392029D+00
     12 -0.300655D-02 -0.277511D-01 -0.266788D-01  0.881546D-01  0.922111D-01
     13 -0.266788D-01 -0.445606D-01 -0.432742D-01 -0.277730D-01  0.651387D-01
     14 -0.159797D-01  0.236532D-01  0.272999D-01  0.243945D-01 -0.298495D-02
     15 -0.277511D-01 -0.429942D-01 -0.445606D-01 -0.262023D-01  0.517810D-01
     16  0.243928D-01  0.273051D-01  0.237092D-01 -0.168276D-01  0.363727D-01
     17 -0.264672D+00 -0.259575D+00 -0.258700D+00 -0.268029D+00 -0.373041D+00
     18 -0.270772D+00 -0.260732D+00 -0.262375D+00 -0.265490D+00 -0.354214D+00
                6             7             8             9            10
      6  0.000000D+00
      7 -0.221134D-01  0.000000D+00
      8  0.210549D-01  0.224085D+00  0.000000D+00
      9  0.219869D+00  0.644450D-02 -0.818421D+00  0.000000D+00
     10  0.363727D-01 -0.298495D-02 -0.354214D+00 -0.373041D+00  0.000000D+00
     11 -0.168276D-01  0.243945D-01 -0.265490D+00 -0.268029D+00  0.916882D-01
     12  0.243928D-01 -0.159797D-01 -0.270772D+00 -0.264672D+00  0.391124D+00
     13  0.237092D-01  0.272999D-01 -0.262375D+00 -0.258700D+00  0.509296D-01
     14  0.171757D-01 -0.190803D-01  0.124323D+00  0.150739D+00  0.363104D-01
     15  0.273051D-01  0.236532D-01 -0.260732D+00 -0.259575D+00  0.656038D-01
     16 -0.191023D-01  0.171757D-01  0.151439D+00  0.124555D+00 -0.365287D-02
     17  0.124555D+00  0.150739D+00 -0.112667D+01 -0.114506D+01 -0.349195D+00
     18  0.151439D+00  0.124323D+00 -0.116161D+01 -0.112667D+01 -0.376991D+00
               11            12            13            14            15
     11  0.000000D+00
     12  0.105541D+00  0.000000D+00
     13  0.341211D+00  0.505848D-01  0.000000D+00
     14 -0.116588D+00  0.245898D-01  0.145986D-01  0.000000D+00
     15  0.511112D-01  0.341919D+00  0.252626D+00  0.472681D-01  0.000000D+00
     16  0.246628D-01 -0.116074D+00  0.473134D-01 -0.221134D-01  0.147619D-01
     17 -0.685254D-01 -0.395594D+00  0.118595D+01  0.644450D-02 -0.493508D+00
     18 -0.406822D+00 -0.954368D-01 -0.491034D+00  0.224085D+00  0.120712D+01
               16            17            18
     16  0.000000D+00
     17  0.219869D+00  0.000000D+00
     18  0.210549D-01 -0.818421D+00  0.000000D+00
 Total nuclear spin-spin coupling K (Hz): 
                1             2             3             4             5
      1  0.000000D+00
      2  0.292421D+02  0.000000D+00
      3 -0.399294D+00  0.316691D+02  0.000000D+00
      4  0.546078D+01 -0.436693D+00  0.286270D+02  0.000000D+00
      5  0.284113D+02  0.762928D+01 -0.818731D+00  0.129077D+00  0.000000D+00
      6 -0.345932D+02  0.482366D+01  0.619777D+01 -0.313013D+01  0.697266D+01
      7 -0.313043D+01  0.645192D+01  0.510760D+01 -0.347106D+02  0.597771D+01
      8  0.132723D+00  0.212990D+02  0.364396D-01  0.128527D+01  0.504965D+00
      9  0.130058D+01  0.157459D+00  0.215539D+02  0.631090D-01 -0.110153D+00
     10  0.117736D+00 -0.836345D+00  0.759906D+01  0.287290D+02  0.307467D+02
     11  0.203068D+00  0.104639D+01 -0.258291D+00  0.189474D+01  0.287290D+02
     12  0.191259D+01 -0.266823D+00  0.105214D+01  0.203068D+00  0.117736D+00
     13  0.105214D+01  0.523016D+00 -0.122336D+00 -0.258291D+00  0.759906D+01
     14 -0.789605D+00  0.366520D+00  0.391302D+00 -0.142794D+01  0.684901D+01
     15 -0.266823D+00 -0.128262D+00  0.523016D+00  0.104639D+01 -0.836345D+00
     16 -0.142268D+01  0.388060D+00  0.365954D+00 -0.768899D+00  0.600633D+01
     17  0.128494D+00  0.187650D-01 -0.209254D-01 -0.615675D-02  0.493663D+00
     18 -0.579744D-02 -0.240026D-01  0.164556D-01  0.128446D+00 -0.105256D+00
                6             7             8             9            10
      6  0.000000D+00
      7 -0.271995D+01  0.000000D+00
      8  0.482949D+00 -0.927688D-01  0.000000D+00
      9 -0.824232D-01  0.522063D+00  0.296729D+00  0.000000D+00
     10  0.600633D+01  0.684901D+01 -0.105256D+00  0.493663D+00  0.000000D+00
     11 -0.768899D+00 -0.142794D+01  0.128446D+00 -0.615675D-02  0.129077D+00
     12 -0.142268D+01 -0.789605D+00 -0.579744D-02  0.128494D+00  0.284113D+02
     13  0.365954D+00  0.391302D+00  0.164556D-01 -0.209254D-01 -0.818731D+00
     14 -0.752062D+01 -0.757639D+01  0.126396D-01 -0.248552D-01  0.597771D+01
     15  0.388060D+00  0.366520D+00 -0.240026D-01  0.187650D-01  0.762928D+01
     16 -0.763129D+01 -0.752062D+01 -0.261410D-01  0.142338D-01  0.697266D+01
     17  0.142338D-01 -0.248552D-01 -0.940141D-02 -0.122992D-01 -0.110153D+00
     18 -0.261410D-01  0.126396D-01 -0.128769D-01 -0.940141D-02  0.504965D+00
               11            12            13            14            15
     11  0.000000D+00
     12  0.546078D+01  0.000000D+00
     13  0.286270D+02 -0.399294D+00  0.000000D+00
     14 -0.347106D+02 -0.313043D+01  0.510760D+01  0.000000D+00
     15 -0.436693D+00  0.292421D+02  0.316691D+02  0.645192D+01  0.000000D+00
     16 -0.313013D+01 -0.345932D+02  0.619777D+01 -0.271995D+01  0.482366D+01
     17  0.631090D-01  0.130058D+01  0.215539D+02  0.522063D+00  0.157459D+00
     18  0.128527D+01  0.132723D+00  0.364396D-01 -0.927688D-01  0.212990D+02
               16            17            18
     16  0.000000D+00
     17 -0.824232D-01  0.000000D+00
     18  0.482949D+00  0.296729D+00  0.000000D+00
 Total nuclear spin-spin coupling J (Hz): 
                1             2             3             4             5
      1  0.000000D+00
      2  0.577100D+02  0.000000D+00
      3 -0.788016D+00  0.624997D+02  0.000000D+00
      4  0.107770D+02 -0.861824D+00  0.564961D+02  0.000000D+00
      5  0.560704D+02  0.150566D+02 -0.161579D+01  0.254736D+00  0.000000D+00
      6  0.368135D+02 -0.513325D+01 -0.659554D+01  0.333103D+01 -0.742017D+01
      7  0.333135D+01 -0.686601D+01 -0.543541D+01  0.369383D+02 -0.636137D+01
      8  0.104147D+01  0.167131D+03  0.285938D+00  0.100854D+02  0.396241D+01
      9  0.102056D+02  0.123556D+01  0.169132D+03  0.495210D+00 -0.864363D+00
     10  0.232354D+00 -0.165055D+01  0.149969D+02  0.566974D+02  0.606794D+02
     11  0.400759D+00  0.206508D+01 -0.509744D+00  0.373932D+01  0.566974D+02
     12  0.377454D+01 -0.526582D+00  0.207643D+01  0.400759D+00  0.232354D+00
     13  0.207643D+01  0.103219D+01 -0.241434D+00 -0.509744D+00  0.149969D+02
     14  0.840283D+00 -0.390043D+00 -0.416416D+00  0.151959D+01 -0.728858D+01
     15 -0.526582D+00 -0.253129D+00  0.103219D+01  0.206508D+01 -0.165055D+01
     16  0.151399D+01 -0.412966D+00 -0.389442D+00  0.818248D+00 -0.639182D+01
     17  0.100828D+01  0.147247D+00 -0.164199D+00 -0.483114D-01  0.387373D+01
     18 -0.454920D-01 -0.188346D+00  0.129125D+00  0.100790D+01 -0.825936D+00
                6             7             8             9            10
      6  0.000000D+00
      7 -0.156081D+01  0.000000D+00
      8 -0.204349D+01  0.392530D+00  0.000000D+00
      9  0.348755D+00 -0.220899D+01  0.925793D+01  0.000000D+00
     10 -0.639182D+01 -0.728858D+01 -0.825936D+00  0.387373D+01  0.000000D+00
     11  0.818248D+00  0.151959D+01  0.100790D+01 -0.483114D-01  0.254736D+00
     12  0.151399D+01  0.840283D+00 -0.454920D-01  0.100828D+01  0.560704D+02
     13 -0.389442D+00 -0.416416D+00  0.129125D+00 -0.164199D+00 -0.161579D+01
     14 -0.431561D+01 -0.434761D+01 -0.534817D-01  0.105169D+00 -0.636137D+01
     15 -0.412966D+00 -0.390043D+00 -0.188346D+00  0.147247D+00  0.150566D+02
     16 -0.437912D+01 -0.431561D+01  0.110610D+00 -0.602270D-01 -0.742017D+01
     17 -0.602270D-01  0.105169D+00 -0.293323D+00 -0.383734D+00 -0.864363D+00
     18  0.110610D+00 -0.534817D-01 -0.401759D+00 -0.293323D+00  0.396241D+01
               11            12            13            14            15
     11  0.000000D+00
     12  0.107770D+02  0.000000D+00
     13  0.564961D+02 -0.788016D+00  0.000000D+00
     14  0.369383D+02  0.333135D+01 -0.543541D+01  0.000000D+00
     15 -0.861824D+00  0.577100D+02  0.624997D+02 -0.686601D+01  0.000000D+00
     16  0.333103D+01  0.368135D+02 -0.659554D+01 -0.156081D+01 -0.513325D+01
     17  0.495210D+00  0.102056D+02  0.169132D+03 -0.220899D+01  0.123556D+01
     18  0.100854D+02  0.104147D+01  0.285938D+00  0.392530D+00  0.167131D+03
               16            17            18
     16  0.000000D+00
     17  0.348755D+00  0.000000D+00
     18 -0.204349D+01  0.925793D+01  0.000000D+00
 End of Minotr Frequency-dependent properties file   721 does not exist.

 **********************************************************************

            Population analysis using the SCF density.

 **********************************************************************

 Orbital symmetries:
       Occupied  (AG) (AU) (AG) (AU) (AG) (AU) (AG) (AU) (AG) (AU)
                 (AU) (AG) (AG) (AU) (AG) (AU) (AU) (AG) (AG) (AU)
                 (AG) (AU) (AG) (AU) (AU) (AG) (AG) (AG) (AU) (AG)
                 (AU) (AU) (AU) (AG) (AU) (AU) (AG) (AG) (AG) (AG)
                 (AU) (AU) (AU) (AG) (AU) (AG) (AU) (AG)
       Virtual   (AG) (AU) (AG) (AG) (AG) (AU) (AU) (AG) (AU) (AU)
                 (AG) (AU) (AU) (AG) (AG) (AG) (AG) (AU) (AU) (AU)
                 (AU) (AG) (AG) (AU) (AG) (AU) (AU) (AG) (AU) (AU)
                 (AG) (AG) (AU) (AU) (AG) (AG) (AU) (AG) (AU) (AG)
                 (AG) (AU) (AG) (AG) (AU) (AU) (AG) (AG) (AU) (AU)
                 (AU) (AU) (AG) (AG) (AU) (AG) (AU) (AG) (AU) (AU)
                 (AG) (AG) (AG) (AU) (AG) (AG) (AU) (AU) (AG) (AU)
                 (AG) (AU) (AU) (AG) (AU) (AG) (AU) (AG) (AG) (AU)
                 (AU) (AG) (AG) (AG) (AU) (AU) (AG) (AU) (AG) (AG)
                 (AU) (AU) (AG) (AG) (AU) (AU) (AG) (AU) (AU) (AG)
                 (AG) (AU) (AU) (AG) (AG) (AU) (AG) (AG) (AU) (AU)
                 (AU) (AG) (AU) (AU) (AG) (AG) (AG) (AU) (AG) (AU)
                 (AG) (AU) (AG) (AU) (AU) (AG) (AG) (AU) (AU) (AG)
                 (AG) (AU) (AG) (AU) (AG) (AU) (AU) (AG) (AU) (AG)
                 (AU) (AU) (AG) (AG) (AG) (AU) (AU) (AG) (AG) (AU)
                 (AU) (AG) (AU) (AG) (AU) (AG) (AG) (AU) (AG) (AU)
                 (AG) (AU) (AU) (AG) (AU) (AU) (AG) (AG) (AU) (AG)
                 (AG) (AU) (AG) (AU) (AU) (AG) (AG) (AU) (AG) (AU)
                 (AU) (AG) (AG) (AU) (AG) (AU) (AU) (AG) (AU) (AG)
                 (AU) (AG) (AG) (AU) (AG) (AU) (AU) (AU) (AG) (AG)
                 (AG) (AU) (AU) (AU) (AG) (AG) (AU) (AG) (AG) (AU)
                 (AG) (AU) (AG) (AU) (AU) (AU) (AG) (AG)
 The electronic state is 1-AG.
 Alpha  occ. eigenvalues --  -19.17680 -19.17680 -19.17665 -19.17664 -10.32473
 Alpha  occ. eigenvalues --  -10.32473 -10.32408 -10.32408 -10.27239 -10.27160
 Alpha  occ. eigenvalues --  -10.23914 -10.23914 -10.23797 -10.23797  -1.09081
 Alpha  occ. eigenvalues --   -1.08791  -1.07738  -1.07595  -0.90496  -0.86781
 Alpha  occ. eigenvalues --   -0.82656  -0.74867  -0.71818  -0.68340  -0.68013
 Alpha  occ. eigenvalues --   -0.59365  -0.57555  -0.55805  -0.53684  -0.53339
 Alpha  occ. eigenvalues --   -0.50523  -0.49506  -0.48239  -0.46230  -0.46203
 Alpha  occ. eigenvalues --   -0.46101  -0.45111  -0.44421  -0.43318  -0.43092
 Alpha  occ. eigenvalues --   -0.42093  -0.33118  -0.32678  -0.32606  -0.31962
 Alpha  occ. eigenvalues --   -0.30760  -0.29026  -0.26348
 Alpha virt. eigenvalues --   -0.16386  -0.12391  -0.05099  -0.04619   0.00513
 Alpha virt. eigenvalues --    0.01099   0.02120   0.03923   0.04114   0.04843
 Alpha virt. eigenvalues --    0.05866   0.07743   0.08476   0.09315   0.12451
 Alpha virt. eigenvalues --    0.13895   0.14612   0.14749   0.15691   0.16519
 Alpha virt. eigenvalues --    0.20063   0.21106   0.21238   0.21566   0.21784
 Alpha virt. eigenvalues --    0.25092   0.25339   0.27208   0.27766   0.28679
 Alpha virt. eigenvalues --    0.29401   0.30873   0.31883   0.31955   0.32908
 Alpha virt. eigenvalues --    0.33294   0.33642   0.33683   0.35737   0.37546
 Alpha virt. eigenvalues --    0.37913   0.38163   0.39117   0.39919   0.40860
 Alpha virt. eigenvalues --    0.41213   0.41380   0.41763   0.42816   0.43662
 Alpha virt. eigenvalues --    0.46416   0.47313   0.48491   0.49021   0.49332
 Alpha virt. eigenvalues --    0.50095   0.53436   0.55468   0.55953   0.56302
 Alpha virt. eigenvalues --    0.56595   0.59200   0.60090   0.60360   0.64967
 Alpha virt. eigenvalues --    0.66767   0.66975   0.68242   0.69292   0.70864
 Alpha virt. eigenvalues --    0.76178   0.77080   0.78801   0.79978   0.80140
 Alpha virt. eigenvalues --    0.80844   0.83441   0.83870   0.85022   0.87757
 Alpha virt. eigenvalues --    0.89100   0.89915   0.90905   0.93087   0.93406
 Alpha virt. eigenvalues --    0.94125   0.95201   0.96366   0.97797   0.99913
 Alpha virt. eigenvalues --    1.00376   1.01304   1.01844   1.04214   1.04367
 Alpha virt. eigenvalues --    1.05904   1.08178   1.08553   1.09875   1.10979
 Alpha virt. eigenvalues --    1.13559   1.13884   1.14845   1.15400   1.22268
 Alpha virt. eigenvalues --    1.22407   1.28817   1.30415   1.32591   1.35722
 Alpha virt. eigenvalues --    1.42174   1.43076   1.45449   1.48948   1.48983
 Alpha virt. eigenvalues --    1.50686   1.52108   1.53966   1.55565   1.56013
 Alpha virt. eigenvalues --    1.60246   1.60770   1.62064   1.62111   1.65630
 Alpha virt. eigenvalues --    1.65970   1.66483   1.67946   1.68800   1.68883
 Alpha virt. eigenvalues --    1.74044   1.74773   1.79162   1.79526   1.80120
 Alpha virt. eigenvalues --    1.80964   1.83441   1.83725   1.85817   1.86640
 Alpha virt. eigenvalues --    1.94526   1.99507   2.01463   2.03628   2.08789
 Alpha virt. eigenvalues --    2.11754   2.13152   2.14775   2.17773   2.19095
 Alpha virt. eigenvalues --    2.22170   2.25715   2.42360   2.55300   2.59155
 Alpha virt. eigenvalues --    2.59782   2.65187   2.65241   2.68109   2.68345
 Alpha virt. eigenvalues --    2.68644   2.68828   2.69398   2.69947   2.72244
 Alpha virt. eigenvalues --    2.74466   2.75233   2.85261   3.00553   3.00774
 Alpha virt. eigenvalues --    3.03617   3.06589   3.18707   3.18886   3.27213
 Alpha virt. eigenvalues --    3.32180   3.33819   3.39605   3.39755   3.42133
 Alpha virt. eigenvalues --    3.51132   3.54941   4.93257   5.12575   5.16738
 Alpha virt. eigenvalues --    5.29105   5.34625   5.38762   5.42135   5.42940
 Alpha virt. eigenvalues --    5.44287   5.44793   5.54972   5.60191   5.87410
 Alpha virt. eigenvalues --    6.03503   9.03836   9.10197   9.10468   9.11992
 Alpha virt. eigenvalues --   29.47077  29.77162  29.83162  29.86977  29.88353
 Alpha virt. eigenvalues --   29.91568  30.01528  30.03562  30.21348  30.33426
 Alpha virt. eigenvalues --   36.71685  36.72906  36.92320  36.94997  53.57747
 Alpha virt. eigenvalues --   53.63511  53.64551  53.65330
          Condensed to atoms (all electrons):
              1          2          3          4          5          6
     1  C    5.270946   0.351630  -0.004455  -0.043645   0.041540   0.361751
     2  C    0.351630   4.941017   0.658866  -0.000181  -0.083193  -0.038905
     3  C   -0.004455   0.658866   4.939320   0.347295  -0.029579  -0.011936
     4  C   -0.043645  -0.000181   0.347295   5.282547  -0.030830  -0.001278
     5  C    0.041540  -0.083193  -0.029579  -0.030830   5.203672  -0.006621
     6  O    0.361751  -0.038905  -0.011936  -0.001278  -0.006621   7.909537
     7  O   -0.001158  -0.013311  -0.038164   0.359834  -0.006960  -0.000077
     8  H   -0.039672   0.416323  -0.045892  -0.001397  -0.010712   0.008009
     9  H   -0.001825  -0.042834   0.415900  -0.040206   0.004829   0.000187
    10  C   -0.028274  -0.034807  -0.073439   0.028182   0.770888  -0.007640
    11  C    0.084100  -0.010036   0.006183   0.007713   0.028182  -0.014589
    12  C    0.005765   0.007165  -0.011165   0.084100  -0.028274   0.001599
    13  C   -0.011165  -0.003166   0.001878   0.006183  -0.073439  -0.002091
    14  O   -0.013988  -0.001941  -0.000327   0.001532  -0.006164   0.002048
    15  C    0.007165   0.002015  -0.003166  -0.010036  -0.034807  -0.000260
    16  O    0.001599  -0.000260  -0.002091  -0.014589  -0.007640  -0.000043
    17  H    0.000926  -0.000188   0.000083   0.000061  -0.010937  -0.000095
    18  H    0.000082   0.000081  -0.000179   0.000946   0.004177  -0.000001
              7          8          9         10         11         12
     1  C   -0.001158  -0.039672  -0.001825  -0.028274   0.084100   0.005765
     2  C   -0.013311   0.416323  -0.042834  -0.034807  -0.010036   0.007165
     3  C   -0.038164  -0.045892   0.415900  -0.073439   0.006183  -0.011165
     4  C    0.359834  -0.001397  -0.040206   0.028182   0.007713   0.084100
     5  C   -0.006960  -0.010712   0.004829   0.770888   0.028182  -0.028274
     6  O   -0.000077   0.008009   0.000187  -0.007640  -0.014589   0.001599
     7  O    7.911567   0.000190   0.008736  -0.006164   0.001532  -0.013988
     8  H    0.000190   0.483427  -0.008242   0.004177   0.000946   0.000082
     9  H    0.008736  -0.008242   0.486179  -0.010937   0.000061   0.000926
    10  C   -0.006164   0.004177  -0.010937   5.203672  -0.030830   0.041540
    11  C    0.001532   0.000946   0.000061  -0.030830   5.282547  -0.043645
    12  C   -0.013988   0.000082   0.000926   0.041540  -0.043645   5.270946
    13  C   -0.000327  -0.000179   0.000083  -0.029579   0.347295  -0.004455
    14  O   -0.000042  -0.000088  -0.000001  -0.006960   0.359834  -0.001158
    15  C   -0.001941   0.000081  -0.000188  -0.083193  -0.000181   0.351630
    16  O    0.002048  -0.000001  -0.000095  -0.006621  -0.001278   0.361751
    17  H   -0.000001   0.000000   0.000000   0.004829  -0.040206  -0.001825
    18  H   -0.000088   0.000000   0.000000  -0.010712  -0.001397  -0.039672
             13         14         15         16         17         18
     1  C   -0.011165  -0.013988   0.007165   0.001599   0.000926   0.000082
     2  C   -0.003166  -0.001941   0.002015  -0.000260  -0.000188   0.000081
     3  C    0.001878  -0.000327  -0.003166  -0.002091   0.000083  -0.000179
     4  C    0.006183   0.001532  -0.010036  -0.014589   0.000061   0.000946
     5  C   -0.073439  -0.006164  -0.034807  -0.007640  -0.010937   0.004177
     6  O   -0.002091   0.002048  -0.000260  -0.000043  -0.000095  -0.000001
     7  O   -0.000327  -0.000042  -0.001941   0.002048  -0.000001  -0.000088
     8  H   -0.000179  -0.000088   0.000081  -0.000001   0.000000   0.000000
     9  H    0.000083  -0.000001  -0.000188  -0.000095   0.000000   0.000000
    10  C   -0.029579  -0.006960  -0.083193  -0.006621   0.004829  -0.010712
    11  C    0.347295   0.359834  -0.000181  -0.001278  -0.040206  -0.001397
    12  C   -0.004455  -0.001158   0.351630   0.361751  -0.001825  -0.039672
    13  C    4.939320  -0.038164   0.658866  -0.011936   0.415900  -0.045892
    14  O   -0.038164   7.911567  -0.013311  -0.000077   0.008736   0.000190
    15  C    0.658866  -0.013311   4.941017  -0.038905  -0.042834   0.416323
    16  O   -0.011936  -0.000077  -0.038905   7.909537   0.000187   0.008009
    17  H    0.415900   0.008736  -0.042834   0.000187   0.486179  -0.008242
    18  H   -0.045892   0.000190   0.416323   0.008009  -0.008242   0.483427
 Mulliken atomic charges:
              1
     1  C    0.018677
     2  C   -0.148277
     3  C   -0.149133
     4  C    0.023767
     5  C    0.275868
     6  O   -0.199595
     7  O   -0.201686
     8  H    0.192949
     9  H    0.187428
    10  C    0.275868
    11  C    0.023767
    12  C    0.018677
    13  C   -0.149133
    14  O   -0.201686
    15  C   -0.148277
    16  O   -0.199595
    17  H    0.187428
    18  H    0.192949
 Sum of Mulliken charges=   0.00000
 Atomic charges with hydrogens summed into heavy atoms:
              1
     1  C    0.018677
     2  C    0.044672
     3  C    0.038296
     4  C    0.023767
     5  C    0.275868
     6  O   -0.199595
     7  O   -0.201686
     8  H    0.000000
     9  H    0.000000
    10  C    0.275868
    11  C    0.023767
    12  C    0.018677
    13  C    0.038296
    14  O   -0.201686
    15  C    0.044672
    16  O   -0.199595
    17  H    0.000000
    18  H    0.000000
 Sum of Mulliken charges=   0.00000
 Electronic spatial extent (au):  <R**2>=  2288.4349
 Charge=     0.0000 electrons
 Dipole moment (field-independent basis, Debye):
    X=     0.0000    Y=     0.0000    Z=     0.0000  Tot=     0.0000
 Quadrupole moment (field-independent basis, Debye-Ang):
   XX=   -86.5722   YY=   -79.4983   ZZ=   -76.0180
   XY=   -21.7868   XZ=     0.6997   YZ=     5.4056
 Traceless Quadrupole moment (field-independent basis, Debye-Ang):
   XX=    -5.8760   YY=     1.1978   ZZ=     4.6782
   XY=   -21.7868   XZ=     0.6997   YZ=     5.4056
 Octapole moment (field-independent basis, Debye-Ang**2):
  XXX=     0.0000  YYY=     0.0000  ZZZ=     0.0000  XYY=     0.0000
  XXY=     0.0000  XXZ=     0.0000  XZZ=     0.0000  YZZ=     0.0000
  YYZ=     0.0000  XYZ=     0.0000
 Hexadecapole moment (field-independent basis, Debye-Ang**3):
 XXXX= -1241.3154 YYYY= -1311.2346 ZZZZ=  -399.8895 XXXY=  -139.6763
 XXXZ=   256.6473 YYYX=  -158.3322 YYYZ=  -147.3236 ZZZX=   237.8879
 ZZZY=  -157.4045 XXYY=  -442.6569 XXZZ=  -275.0239 YYZZ=  -274.8438
 XXYZ=   -13.2931 YYXZ=    43.3789 ZZXY=   -36.7780
 N-N= 8.173502861826D+02 E-N=-3.233150151329D+03  KE= 6.807408669450D+02
 Symmetry AG   KE= 3.409832539367D+02
 Symmetry AU   KE= 3.397576130083D+02
 1\1\GINC-ORAC\SP\RB3LYP\EPR-II\C10H4O4\HOGBEN\08-Sep-2010\0\\# nmr=(gi
 ao,spinspin) b3lyp/epr-II geom=connectivity integral=(grid=ultrafine)\
 \HJH_070910_Mol_EG2_nmr\\0,1\C,0,2.8607,4.7685,-0.4334\C,0,4.1882,4.33
 09,-0.9042\C,0,5.1787,5.1915,-1.084\C,0,5.0001,6.6312,-0.8294\C,0,2.74
 95,6.1724,0.0922\O,0,1.8933,4.0387,-0.5192\O,0,5.8043,7.4376,-1.2537\H
 ,0,4.2883,3.4108,-1.1041\H,0,6.0114,4.9443,-1.4918\C,0,3.7605,7.0476,-
 0.0922\C,0,1.5099,6.5888,0.8294\C,0,3.6493,8.4515,0.4334\C,0,1.3313,8.
 0285,1.084\O,0,0.7057,5.7824,1.2537\C,0,2.3218,8.8891,0.9042\O,0,4.616
 7,9.1813,0.5192\H,0,0.4986,8.2757,1.4918\H,0,2.2217,9.8092,1.1041\\Ver
 sion=IA64L-G03RevE.01\State=1-AG\HF=-684.3516335\RMSD=7.780e-09\Therma
 l=0.\Dipole=0.,0.,0.\PG=CI [X(C10H4O4)]\\@


 LIFE CAN ONLY BE UNDERSTOOD BACKWARD, BUT MUST
 BE LIVED FORWARD. -- KIRKEGAARD
 Job cpu time:  0 days  1 hours 12 minutes 52.5 seconds.
 File lengths (MBytes):  RWF=    216 Int=      0 D2E=      0 Chk=     13 Scr=      1
 Normal termination of Gaussian 03 at Wed Sep  8 12:16:04 2010.
