 Entering Gaussian System, Link 0=g03
 Input=nitroxide.com
 Output=nitroxide.log
 Initial command:
 /home/system/software/orac/g03_E.01/g03/l1.exe /scratch/pbs.71185.orac/Gau-234426.inp -scrdir=/scratch/pbs.71185.orac/
 Entering Link 1 = /home/system/software/orac/g03_E.01/g03/l1.exe PID=    234428.
  
 Copyright (c) 1988,1990,1992,1993,1995,1998,2003,2004,2007, Gaussian, Inc.
                  All Rights Reserved.
  
 This is the Gaussian(R) 03 program.  It is based on the
 the Gaussian(R) 98 system (copyright 1998, Gaussian, Inc.),
 the Gaussian(R) 94 system (copyright 1995, Gaussian, Inc.),
 the Gaussian 92(TM) system (copyright 1992, Gaussian, Inc.),
 the Gaussian 90(TM) system (copyright 1990, Gaussian, Inc.),
 the Gaussian 88(TM) system (copyright 1988, Gaussian, Inc.),
 the Gaussian 86(TM) system (copyright 1986, Carnegie Mellon
 University), and the Gaussian 82(TM) system (copyright 1983,
 Carnegie Mellon University). Gaussian is a federally registered
 trademark of Gaussian, Inc.
  
 This software contains proprietary and confidential information,
 including trade secrets, belonging to Gaussian, Inc.
  
 This software is provided under written license and may be
 used, copied, transmitted, or stored only in accord with that
 written license.
  
 The following legend is applicable only to US Government
 contracts under FAR:
  
                    RESTRICTED RIGHTS LEGEND
  
 Use, reproduction and disclosure by the US Government is
 subject to restrictions as set forth in subparagraphs (a)
 and (c) of the Commercial Computer Software - Restricted
 Rights clause in FAR 52.227-19.
  
 Gaussian, Inc.
 340 Quinnipiac St., Bldg. 40, Wallingford CT 06492
  
  
 ---------------------------------------------------------------
 Warning -- This program may not be used in any manner that
 competes with the business of Gaussian, Inc. or will provide
 assistance to any competitor of Gaussian, Inc.  The licensee
 of this program is prohibited from giving any competitor of
 Gaussian, Inc. access to this program.  By using this program,
 the user acknowledges that Gaussian, Inc. is engaged in the
 business of creating and licensing software in the field of
 computational chemistry and represents and warrants to the
 licensee that it is not a competitor of Gaussian, Inc. and that
 it will not use this program in any manner prohibited above.
 ---------------------------------------------------------------
  

 Cite this work as:
 Gaussian 03, Revision E.01,
 M. J. Frisch, G. W. Trucks, H. B. Schlegel, G. E. Scuseria, 
 M. A. Robb, J. R. Cheeseman, J. A. Montgomery, Jr., T. Vreven, 
 K. N. Kudin, J. C. Burant, J. M. Millam, S. S. Iyengar, J. Tomasi, 
 V. Barone, B. Mennucci, M. Cossi, G. Scalmani, N. Rega, 
 G. A. Petersson, H. Nakatsuji, M. Hada, M. Ehara, K. Toyota, 
 R. Fukuda, J. Hasegawa, M. Ishida, T. Nakajima, Y. Honda, O. Kitao, 
 H. Nakai, M. Klene, X. Li, J. E. Knox, H. P. Hratchian, J. B. Cross, 
 V. Bakken, C. Adamo, J. Jaramillo, R. Gomperts, R. E. Stratmann, 
 O. Yazyev, A. J. Austin, R. Cammi, C. Pomelli, J. W. Ochterski, 
 P. Y. Ayala, K. Morokuma, G. A. Voth, P. Salvador, J. J. Dannenberg, 
 V. G. Zakrzewski, S. Dapprich, A. D. Daniels, M. C. Strain, 
 O. Farkas, D. K. Malick, A. D. Rabuck, K. Raghavachari, 
 J. B. Foresman, J. V. Ortiz, Q. Cui, A. G. Baboul, S. Clifford, 
 J. Cioslowski, B. B. Stefanov, G. Liu, A. Liashenko, P. Piskorz, 
 I. Komaromi, R. L. Martin, D. J. Fox, T. Keith, M. A. Al-Laham, 
 C. Y. Peng, A. Nanayakkara, M. Challacombe, P. M. W. Gill, 
 B. Johnson, W. Chen, M. W. Wong, C. Gonzalez, and J. A. Pople, 
 Gaussian, Inc., Wallingford CT, 2004.
 
 ******************************************
 Gaussian 03:  IA64L-G03RevE.01 11-Sep-2007
                 5-Mar-2010 
 ******************************************
 %Mem=4GB
 %Chk=nitroxide.chk
 %NProcShared=16
 Will use up to   16 processors via shared memory.
 ----------------------------------------------------------------------
 #p nmr=giao ub3lyp/EPR-II guess=mix geom=checkpoint scf=tight integral
 =(grid=ultrafine)
 ----------------------------------------------------------------------
 1/29=2,38=1/1;
 2/40=1/2;
 3/5=21,11=2,16=1,25=1,30=1,74=-5,75=5/1,2,8,3;
 4/7=2,9=2,13=1/1;
 5/5=2,32=2,38=5/2;
 8/6=1,10=90,11=11/1;
 10/13=100,45=16/2;
 6/7=2,8=2,9=2,10=2,28=1/1;
 99/9=1/99;
 Leave Link    1 at Fri Mar  5 12:00:22 2010, MaxMem=  536870912 cpu:       3.2
 (Enter /home/system/software/orac/g03_E.01/g03/l101.exe)
 -----------------------
 Nitroxide optimization.
 -----------------------
 Redundant internal coordinates taken from checkpoint file:
 nitroxide.chk
 Charge =  0 Multiplicity = 2
 C,0,-1.5562443586,-0.7321592078,-1.6732453241
 H,0,-2.2289962026,-0.0676181271,-1.1254481784
 H,0,-1.6776965281,-0.5267023994,-2.7413835722
 H,0,-1.8558429944,-1.765162469,-1.4809101316
 C,0,0.8145034269,-1.3995396658,-2.1905015324
 H,0,0.7368076678,-1.0316022219,-3.2182117906
 H,0,1.8617364644,-1.3449204205,-1.8786008963
 H,0,0.5028578038,-2.4442811238,-2.161444082
 C,0,0.3549962373,0.9407171929,-1.38022971
 H,0,1.4531840119,0.9941943436,-1.3854156183
 H,0,0.0066740068,1.3385041929,-2.3391052159
 C,0,-0.1539788528,1.8237243284,-0.2370884535
 H,0,-1.247986201,1.8521416823,-0.2375428397
 C,0,0.3624013642,1.2654816502,1.0922888818
 H,0,1.4605595421,1.3176330847,1.0770223473
 H,0,0.0194244218,1.8976640154,1.917951081
 C,0,-0.06532524,-0.1925441224,1.3699770059
 C,0,-1.5457855545,-0.2735053159,1.8186204443
 H,0,-2.2222669022,0.2275435268,1.12176001
 H,0,-1.8457087317,-1.3209069104,1.9013481074
 H,0,-1.6611061703,0.2009201876,2.7981632128
 C,0,0.8284829475,-0.7865035832,2.4767067268
 H,0,0.7565543102,-0.1655898228,3.3749802067
 H,0,0.5174805152,-1.8030707427,2.720264691
 H,0,1.8738188318,-0.8150914816,2.1551199044
 C,0,-0.0732309048,-0.5392318891,-1.2694538767
 N,0,0.1306619554,-1.0336565203,0.1373736473
 O,0,0.0198412091,-2.3031676302,0.3044553947
 O,0,0.2260721461,3.1916931181,-0.4179121505
 H,0,1.1906993187,3.2338326011,-0.4262630892
 Recover connectivity data from disk.
                    Isotopes and Nuclear Properties:
 (Nuclear quadrupole moments (NQMom) in fm**2, nuclear magnetic moments (NMagM)
  in nuclear magnetons)

  Atom         1           2           3           4           5           6           7           8           9          10
 IAtWgt=          12           1           1           1          12           1           1           1          12           1
 AtmWgt=  12.0000000   1.0078250   1.0078250   1.0078250  12.0000000   1.0078250   1.0078250   1.0078250  12.0000000   1.0078250
 NucSpn=           0           1           1           1           0           1           1           1           0           1
 AtZEff=  -3.6000000  -1.0000000  -1.0000000  -1.0000000  -3.6000000  -1.0000000  -1.0000000  -1.0000000  -3.6000000  -1.0000000
 NQMom=    0.0000000   0.0000000   0.0000000   0.0000000   0.0000000   0.0000000   0.0000000   0.0000000   0.0000000   0.0000000
 NMagM=    0.0000000   2.7928460   2.7928460   2.7928460   0.0000000   2.7928460   2.7928460   2.7928460   0.0000000   2.7928460

  Atom        11          12          13          14          15          16          17          18          19          20
 IAtWgt=           1          12           1          12           1           1          12          12           1           1
 AtmWgt=   1.0078250  12.0000000   1.0078250  12.0000000   1.0078250   1.0078250  12.0000000  12.0000000   1.0078250   1.0078250
 NucSpn=           1           0           1           0           1           1           0           0           1           1
 AtZEff=  -1.0000000  -3.6000000  -1.0000000  -3.6000000  -1.0000000  -1.0000000  -3.6000000  -3.6000000  -1.0000000  -1.0000000
 NQMom=    0.0000000   0.0000000   0.0000000   0.0000000   0.0000000   0.0000000   0.0000000   0.0000000   0.0000000   0.0000000
 NMagM=    2.7928460   0.0000000   2.7928460   0.0000000   2.7928460   2.7928460   0.0000000   0.0000000   2.7928460   2.7928460

  Atom        21          22          23          24          25          26          27          28          29          30
 IAtWgt=           1          12           1           1           1          12          14          16          16           1
 AtmWgt=   1.0078250  12.0000000   1.0078250   1.0078250   1.0078250  12.0000000  14.0030740  15.9949146  15.9949146   1.0078250
 NucSpn=           1           0           1           1           1           0           2           0           0           1
 AtZEff=  -1.0000000  -3.6000000  -1.0000000  -1.0000000  -1.0000000  -3.6000000  -4.5500000  -5.6000000  -5.6000000  -1.0000000
 NQMom=    0.0000000   0.0000000   0.0000000   0.0000000   0.0000000   0.0000000   2.0440000   0.0000000   0.0000000   0.0000000
 NMagM=    2.7928460   0.0000000   2.7928460   2.7928460   2.7928460   0.0000000   0.4037610   0.0000000   0.0000000   2.7928460
 Leave Link  101 at Fri Mar  5 12:00:22 2010, MaxMem=  536870912 cpu:       1.2
 (Enter /home/system/software/orac/g03_E.01/g03/l202.exe)
                          Input orientation:                          
 ---------------------------------------------------------------------
 Center     Atomic     Atomic              Coordinates (Angstroms)
 Number     Number      Type              X           Y           Z
 ---------------------------------------------------------------------
    1          6             0       -1.556244   -0.732159   -1.673245
    2          1             0       -2.228996   -0.067618   -1.125448
    3          1             0       -1.677697   -0.526702   -2.741384
    4          1             0       -1.855843   -1.765162   -1.480910
    5          6             0        0.814503   -1.399540   -2.190502
    6          1             0        0.736808   -1.031602   -3.218212
    7          1             0        1.861736   -1.344920   -1.878601
    8          1             0        0.502858   -2.444281   -2.161444
    9          6             0        0.354996    0.940717   -1.380230
   10          1             0        1.453184    0.994194   -1.385416
   11          1             0        0.006674    1.338504   -2.339105
   12          6             0       -0.153979    1.823724   -0.237088
   13          1             0       -1.247986    1.852142   -0.237543
   14          6             0        0.362401    1.265482    1.092289
   15          1             0        1.460560    1.317633    1.077022
   16          1             0        0.019424    1.897664    1.917951
   17          6             0       -0.065325   -0.192544    1.369977
   18          6             0       -1.545786   -0.273505    1.818620
   19          1             0       -2.222267    0.227544    1.121760
   20          1             0       -1.845709   -1.320907    1.901348
   21          1             0       -1.661106    0.200920    2.798163
   22          6             0        0.828483   -0.786504    2.476707
   23          1             0        0.756554   -0.165590    3.374980
   24          1             0        0.517481   -1.803071    2.720265
   25          1             0        1.873819   -0.815091    2.155120
   26          6             0       -0.073231   -0.539232   -1.269454
   27          7             0        0.130662   -1.033657    0.137374
   28          8             0        0.019841   -2.303168    0.304455
   29          8             0        0.226072    3.191693   -0.417912
   30          1             0        1.190699    3.233833   -0.426263
 ---------------------------------------------------------------------
                    Distance matrix (angstroms):
                    1          2          3          4          5
     1  C    0.000000
     2  H    1.092836   0.000000
     3  H    1.094478   1.768032   0.000000
     4  H    1.092633   1.774050   1.776039   0.000000
     5  C    2.516624   3.488731   2.697476   2.787104   0.000000
     6  H    2.781128   3.755651   2.512393   3.205958   1.094350
     7  H    3.478540   4.351188   3.733827   3.762334   1.094058
     8  H    2.722058   3.766277   2.961124   2.547116   1.090620
     9  C    2.556798   2.785439   2.852700   3.495673   2.518827
    10  H    3.481351   3.841026   3.735531   4.309621   2.605003
    11  H    2.678382   2.906607   2.545177   3.719975   2.858593
    12  C    3.249836   2.944836   3.757355   4.162156   3.891428
    13  H    2.972352   2.331573   3.480340   3.873027   4.317562
    14  C    3.914071   3.662083   4.697975   4.552666   4.252464
    15  H    4.568011   4.514711   5.275457   5.200497   4.298503
    16  H    4.721800   4.263802   5.519708   5.337151   5.327578
    17  C    3.431505   3.305182   4.428847   3.715729   3.861081
    18  C    3.521874   3.029308   4.568933   3.634292   4.786646
    19  H    3.029302   2.266519   3.973578   3.298338   4.779168
    20  H    3.634299   3.298354   4.713167   3.411325   4.881203
    21  H    4.568931   3.973580   5.587154   4.713159   5.794557
    22  C    4.786646   4.779173   5.794558   4.881200   4.707318
    23  H    5.581632   5.401571   6.592866   5.741335   5.700928
    24  H    4.974949   5.034326   6.023082   4.825347   4.936262
    25  H    5.140875   5.306028   6.055756   5.294689   4.510893
    26  C    1.549063   2.211443   2.177394   2.173781   1.541600
    27  N    2.492969   2.845336   3.437209   2.664610   2.453673
    28  O    2.977149   3.478444   3.913387   2.644839   2.769989
    29  O    4.488778   4.141386   4.780096   5.480397   4.956586
    30  H    4.982946   4.804451   5.265843   5.948416   4.972142
                    6          7          8          9         10
     6  H    0.000000
     7  H    1.777130   0.000000
     8  H    1.779649   1.770634   0.000000
     9  C    2.722866   2.782585   3.477121   0.000000
    10  H    2.824215   2.425202   3.650815   1.099501   0.000000
    11  H    2.631222   3.294554   3.819323   1.094991   1.766484
    12  C    4.222971   4.098534   4.727626   1.531512   2.142370
    13  H    4.597801   4.752331   5.022559   2.169327   3.057778
    14  C    4.898693   4.229467   4.936481   2.493767   2.720739
    15  H    4.948915   3.998230   5.055379   2.720740   2.483600
    16  H    5.956124   5.321868   5.977262   3.450558   3.712702
    17  C    4.732749   3.949025   4.226593   3.004095   3.362500
    18  C    5.581633   5.140874   4.974949   3.914071   4.568011
    19  H    5.401567   5.306024   5.034320   3.662083   4.514712
    20  H    5.741340   5.294690   4.825351   4.552669   5.200500
    21  H    6.592865   6.055755   6.023083   4.697971   5.275454
    22  C    5.700928   4.510892   4.936264   4.252463   4.298503
    23  H    6.649853   5.496577   5.992394   4.898692   4.948915
    24  H    5.992393   4.813158   4.923662   4.936479   5.055378
    25  H    5.496578   4.068386   4.813161   4.229466   3.998230
    26  C    2.167083   2.182726   2.180995   1.544636   2.166745
    27  N    3.409893   2.675380   2.722674   2.500319   2.860093
    28  O    3.813149   3.012731   2.516720   3.670597   3.972749
    29  O    5.093010   5.038836   5.905990   2.451442   2.696455
    30  H    5.118098   4.850212   5.977036   2.620464   2.450480
                   11         12         13         14         15
    11  H    0.000000
    12  C    2.163267   0.000000
    13  H    2.500912   1.094376   0.000000
    14  C    3.450556   1.531512   2.169325   0.000000
    15  H    3.712701   2.142370   3.057777   1.099502   0.000000
    16  H    4.293641   2.163269   2.500911   1.094991   1.766484
    17  C    4.013301   2.579895   2.857192   1.544636   2.166745
    18  C    4.721799   3.249836   2.972350   2.556798   3.481350
    19  H    4.263801   2.944839   2.331576   2.785443   3.841029
    20  H    5.337156   4.162159   3.873030   3.495673   4.309619
    21  H    5.519702   3.757350   3.480332   2.852697   3.735528
    22  C    5.327577   3.891427   4.317560   2.518827   2.605001
    23  H    5.956122   4.222971   4.597798   2.722866   2.824214
    24  H    5.977260   4.727625   5.022557   3.477121   3.650813
    25  H    5.321867   4.098533   4.752329   2.782585   2.425199
    26  C    2.162506   2.579895   2.857194   3.004096   3.362501
    27  N    3.431540   2.895836   3.220103   2.500320   2.860093
    28  O    4.500040   4.165900   4.378098   3.670598   3.972748
    29  O    2.678326   1.431249   1.999945   2.451445   2.696459
    30  H    2.941624   1.957639   2.809248   2.620397   2.450411
                   16         17         18         19         20
    16  H    0.000000
    17  C    2.162505   0.000000
    18  C    2.678381   1.549064   0.000000
    19  H    2.906614   2.211444   1.092836   0.000000
    20  H    3.719973   2.173781   1.092633   1.774050   0.000000
    21  H    2.545171   2.177394   1.094478   1.768032   1.776039
    22  C    2.858590   1.541600   2.516624   3.488731   2.787100
    23  H    2.631218   2.167083   2.781128   3.755653   3.205951
    24  H    3.819320   2.180994   2.722058   3.766275   2.547110
    25  H    3.294552   2.182726   3.478540   4.351188   3.762331
    26  C    4.013303   2.662114   3.431506   3.305178   3.715734
    27  N    3.431540   1.505056   2.492969   2.845332   2.664613
    28  O    4.500039   2.365866   2.977148   3.478439   2.644840
    29  O    2.678334   3.838557   4.488781   4.141393   5.480402
    30  H    2.941525   4.067448   4.982898   4.804424   5.948378
                   21         22         23         24         25
    21  H    0.000000
    22  C    2.697479   0.000000
    23  H    2.512395   1.094350   0.000000
    24  H    2.961129   1.090620   1.779650   0.000000
    25  H    3.733829   1.094058   1.777130   1.770634   0.000000
    26  C    4.428847   3.861082   4.732750   4.226592   3.949026
    27  N    3.437210   2.453674   3.409894   2.722674   2.675382
    28  O    3.913390   2.769990   3.813149   2.516719   3.012733
    29  O    4.780095   4.956588   5.093014   5.905992   5.038838
    30  H    5.265765   4.972076   5.118008   5.976977   4.850152
                   26         27         28         29         30
    26  C    0.000000
    27  N    1.505055   0.000000
    28  O    2.365866   1.285246   0.000000
    29  O    3.838555   4.262749   5.545975   0.000000
    30  H    4.067494   4.433151   5.706420   0.965583   0.000000
 Stoichiometry    C9H18NO2(2)
 Framework group  C1[X(C9H18NO2)]
 Deg. of freedom    84
 Full point group                 C1
 Largest Abelian subgroup         C1      NOp   1
 Largest concise Abelian subgroup C1      NOp   1
                         Standard orientation:                         
 ---------------------------------------------------------------------
 Center     Atomic     Atomic              Coordinates (Angstroms)
 Number     Number      Type              X           Y           Z
 ---------------------------------------------------------------------
    1          6             0        0.611070   -1.760920    1.453015
    2          1             0        0.070743   -1.133262    2.166025
    3          1             0        0.277133   -2.793571    1.594437
    4          1             0        1.678277   -1.705609    1.680736
    5          6             0        1.042717   -2.353627   -0.954427
    6          1             0        0.550344   -3.324910   -0.845881
    7          1             0        0.958057   -2.034163   -1.997373
    8          1             0        2.101112   -2.461768   -0.714516
    9          6             0       -1.135525   -1.246918   -0.342096
   10          1             0       -1.263773   -1.241838   -1.434081
   11          1             0       -1.630066   -2.146869    0.038065
   12          6             0       -1.825634   -0.000056    0.218807
   13          1             0       -1.779411   -0.000054    1.312207
   14          6             0       -1.135601    1.246849   -0.342095
   15          1             0       -1.263847    1.241762   -1.434080
   16          1             0       -1.630194    2.146771    0.038067
   17          6             0        0.371841    1.331067   -0.015866
   18          6             0        0.610963    1.760955    1.453016
   19          1             0        0.070682    1.133258    2.166027
   20          1             0        1.678175    1.705716    1.680734
   21          1             0        0.276957    2.793583    1.594442
   22          6             0        1.042573    2.353691   -0.954425
   23          1             0        0.550142    3.324943   -0.845877
   24          1             0        2.100961    2.461894   -0.714514
   25          1             0        0.957931    2.034223   -1.997372
   26          6             0        0.371922   -1.331046   -0.015867
   27          7             0        1.030153    0.000031   -0.261137
   28          8             0        2.315184    0.000070   -0.237643
   29          8             0       -3.228151   -0.000102   -0.066536
   30          1             0       -3.336514   -0.000032   -1.026020
 ---------------------------------------------------------------------
 Rotational constants (GHZ):      1.0481559      0.9493381      0.6450695
 Leave Link  202 at Fri Mar  5 12:00:22 2010, MaxMem=  536870912 cpu:       0.7
 (Enter /home/system/software/orac/g03_E.01/g03/l301.exe)
 Standard basis: EPR-II (5D, 7F)
 There are   330 symmetry adapted basis functions of A   symmetry.
 Integral buffers will be    131072 words long.
 Raffenetti 2 integral format.
 Two-electron integral symmetry is turned on.
   330 basis functions,   534 primitive gaussians,   342 cartesian basis functions
    48 alpha electrons       47 beta electrons
       nuclear repulsion energy       818.8392161493 Hartrees.
 IExCor= 402 DFT=T Ex=B+HF Corr=LYP ExCW=0 ScaHFX=  0.200000
 ScaDFX=  0.800000  0.720000  1.000000  0.810000
 IRadAn=      5 IRanWt=     -1 IRanGd=            0 ICorTp=0
 NAtoms=   30 NActive=   30 NUniq=   30 SFac= 7.50D-01 NAtFMM=   80 NAOKFM=F Big=F
 Leave Link  301 at Fri Mar  5 12:00:22 2010, MaxMem=  536870912 cpu:       0.5
 (Enter /home/system/software/orac/g03_E.01/g03/l302.exe)
 NPDir=0 NMtPBC=     1 NCelOv=     1 NCel=       1 NClECP=     1 NCelD=      1
         NCelK=      1 NCelE2=     1 NClLst=     1 CellRange=     0.0.
 One-electron integrals computed using PRISM.
 NBasis=   330 RedAO= T  NBF=   330
 NBsUse=   330 1.00D-06 NBFU=   330
 Precomputing XC quadrature grid using
 IXCGrd= 2 IRadAn=           5 IRanWt=          -1 IRanGd=           0.
 NRdTot=    2539 NPtTot=      682844 NUsed=      700738 NTot=      700770
 NSgBfM=   330   330   331   332.
 Leave Link  302 at Fri Mar  5 12:00:23 2010, MaxMem=  536870912 cpu:      12.1
 (Enter /home/system/software/orac/g03_E.01/g03/l308.exe)
 Leave Link  308 at Fri Mar  5 12:00:23 2010, MaxMem=  536870912 cpu:       2.6
 (Enter /home/system/software/orac/g03_E.01/g03/l303.exe)
 DipDrv:  MaxL=1.
 Leave Link  303 at Fri Mar  5 12:00:23 2010, MaxMem=  536870912 cpu:       1.7
 (Enter /home/system/software/orac/g03_E.01/g03/l401.exe)
 SCF N**3 symmetry information disabled.
 Harris functional with IExCor=  402 diagonalized for initial guess.
 ExpMin= 4.79D-02 ExpMax= 7.82D+03 ExpMxC= 1.18D+03 IAcc=3 IRadAn=         5 AccDes= 0.00D+00
 HarFok:  IExCor= 402 AccDes= 0.00D+00 IRadAn=         5 IDoV=1
 ScaDFX=  1.000000  1.000000  1.000000  1.000000
 Harris En= -559.224895432101    
 Initial guess orbital symmetries:
 Alpha Orbitals:
       Occupied  (A) (A) (A) (A) (A) (A) (A) (A) (A) (A) (A) (A)
                 (A) (A) (A) (A) (A) (A) (A) (A) (A) (A) (A) (A)
                 (A) (A) (A) (A) (A) (A) (A) (A) (A) (A) (A) (A)
                 (A) (A) (A) (A) (A) (A) (A) (A) (A) (A) (A) (A)
       Virtual   (A) (A) (A) (A) (A) (A) (A) (A) (A) (A) (A) (A)
                 (A) (A) (A) (A) (A) (A) (A) (A) (A) (A) (A) (A)
                 (A) (A) (A) (A) (A) (A) (A) (A) (A) (A) (A) (A)
                 (A) (A) (A) (A) (A) (A) (A) (A) (A) (A) (A) (A)
                 (A) (A) (A) (A) (A) (A) (A) (A) (A) (A) (A) (A)
                 (A) (A) (A) (A) (A) (A) (A) (A) (A) (A) (A) (A)
                 (A) (A) (A) (A) (A) (A) (A) (A) (A) (A) (A) (A)
                 (A) (A) (A) (A) (A) (A) (A) (A) (A) (A) (A) (A)
                 (A) (A) (A) (A) (A) (A) (A) (A) (A) (A) (A) (A)
                 (A) (A) (A) (A) (A) (A) (A) (A) (A) (A) (A) (A)
                 (A) (A) (A) (A) (A) (A) (A) (A) (A) (A) (A) (A)
                 (A) (A) (A) (A) (A) (A) (A) (A) (A) (A) (A) (A)
                 (A) (A) (A) (A) (A) (A) (A) (A) (A) (A) (A) (A)
                 (A) (A) (A) (A) (A) (A) (A) (A) (A) (A) (A) (A)
                 (A) (A) (A) (A) (A) (A) (A) (A) (A) (A) (A) (A)
                 (A) (A) (A) (A) (A) (A) (A) (A) (A) (A) (A) (A)
                 (A) (A) (A) (A) (A) (A) (A) (A) (A) (A) (A) (A)
                 (A) (A) (A) (A) (A) (A) (A) (A) (A) (A) (A) (A)
                 (A) (A) (A) (A) (A) (A) (A) (A) (A) (A) (A) (A)
                 (A) (A) (A) (A) (A) (A) (A) (A) (A) (A) (A) (A)
                 (A) (A) (A) (A) (A) (A) (A) (A) (A) (A) (A) (A)
                 (A) (A) (A) (A) (A) (A) (A) (A) (A) (A) (A) (A)
                 (A) (A) (A) (A) (A) (A) (A) (A) (A) (A) (A) (A)
                 (A) (A) (A) (A) (A) (A)
 Beta  Orbitals:
       Occupied  (A) (A) (A) (A) (A) (A) (A) (A) (A) (A) (A) (A)
                 (A) (A) (A) (A) (A) (A) (A) (A) (A) (A) (A) (A)
                 (A) (A) (A) (A) (A) (A) (A) (A) (A) (A) (A) (A)
                 (A) (A) (A) (A) (A) (A) (A) (A) (A) (A) (A)
       Virtual   (A) (A) (A) (A) (A) (A) (A) (A) (A) (A) (A) (A)
                 (A) (A) (A) (A) (A) (A) (A) (A) (A) (A) (A) (A)
                 (A) (A) (A) (A) (A) (A) (A) (A) (A) (A) (A) (A)
                 (A) (A) (A) (A) (A) (A) (A) (A) (A) (A) (A) (A)
                 (A) (A) (A) (A) (A) (A) (A) (A) (A) (A) (A) (A)
                 (A) (A) (A) (A) (A) (A) (A) (A) (A) (A) (A) (A)
                 (A) (A) (A) (A) (A) (A) (A) (A) (A) (A) (A) (A)
                 (A) (A) (A) (A) (A) (A) (A) (A) (A) (A) (A) (A)
                 (A) (A) (A) (A) (A) (A) (A) (A) (A) (A) (A) (A)
                 (A) (A) (A) (A) (A) (A) (A) (A) (A) (A) (A) (A)
                 (A) (A) (A) (A) (A) (A) (A) (A) (A) (A) (A) (A)
                 (A) (A) (A) (A) (A) (A) (A) (A) (A) (A) (A) (A)
                 (A) (A) (A) (A) (A) (A) (A) (A) (A) (A) (A) (A)
                 (A) (A) (A) (A) (A) (A) (A) (A) (A) (A) (A) (A)
                 (A) (A) (A) (A) (A) (A) (A) (A) (A) (A) (A) (A)
                 (A) (A) (A) (A) (A) (A) (A) (A) (A) (A) (A) (A)
                 (A) (A) (A) (A) (A) (A) (A) (A) (A) (A) (A) (A)
                 (A) (A) (A) (A) (A) (A) (A) (A) (A) (A) (A) (A)
                 (A) (A) (A) (A) (A) (A) (A) (A) (A) (A) (A) (A)
                 (A) (A) (A) (A) (A) (A) (A) (A) (A) (A) (A) (A)
                 (A) (A) (A) (A) (A) (A) (A) (A) (A) (A) (A) (A)
                 (A) (A) (A) (A) (A) (A) (A) (A) (A) (A) (A) (A)
                 (A) (A) (A) (A) (A) (A) (A) (A) (A) (A) (A) (A)
                 (A) (A) (A) (A) (A) (A) (A)
 The electronic state of the initial guess is 2-A.
 <S**2> of initial guess= 1.0000
 Leave Link  401 at Fri Mar  5 12:00:25 2010, MaxMem=  536870912 cpu:      32.3
 (Enter /home/system/software/orac/g03_E.01/g03/l502.exe)
 UHF open shell SCF:
 Requested convergence on RMS density matrix=1.00D-08 within 128 cycles.
 Requested convergence on MAX density matrix=1.00D-06.
 Requested convergence on             energy=1.00D-06.
 No special actions if energy rises.
 Using DIIS extrapolation, IDIIS=  1040.
 Integral symmetry usage will be decided dynamically.
       700737 words used for storage of precomputed grid.
 IEnd=   1135160 IEndB=   1135160 NGot= 536870912 MDV= 535869699
 LenX= 535869699
 Fock matrices will be formed incrementally for  20 cycles.

 Cycle   1  Pass 1  IDiag  1:
 Petite list used in FoFDir.
 MinBra= 0 MaxBra= 2 Meth= 1.
 IRaf=       0 NMat=   1 IRICut=       1 DoRegI=T DoRafI=F ISym2E= 1 JSym2E=1.
 E= -558.435386387645    
 DIIS: error= 2.72D-02 at cycle   1 NSaved=   1.
 NSaved= 1 IEnMin= 1 EnMin= -558.435386387645     IErMin= 1 ErrMin= 2.72D-02
 ErrMax= 2.72D-02 EMaxC= 1.00D-01 BMatC= 1.96D+00 BMatP= 1.96D+00
 IDIUse=3 WtCom= 7.28D-01 WtEn= 2.72D-01
 Coeff-Com:  0.100D+01
 Coeff-En:   0.100D+01
 Coeff:      0.100D+01
 Gap=     0.035 Goal=   None    Shift=    0.000
 Gap=     0.087 Goal=   None    Shift=    0.000
 GapD=    0.035 DampG=0.250 DampE=0.500 DampFc=0.2500 IDamp=-1.
 Damping current iteration by 2.50D-01
 RMSDP=1.25D-02 MaxDP=1.06D+00              OVMax= 8.65D-01

 Cycle   2  Pass 1  IDiag  1:
 RMSU=  2.40D-03    CP:  8.77D-01
 E= -558.602683695469     Delta-E=       -0.167297307825 Rises=F Damp=T
 DIIS: error= 1.39D-02 at cycle   2 NSaved=   2.
 NSaved= 2 IEnMin= 2 EnMin= -558.602683695469     IErMin= 2 ErrMin= 1.39D-02
 ErrMax= 1.39D-02 EMaxC= 1.00D-01 BMatC= 4.39D-01 BMatP= 1.96D+00
 IDIUse=3 WtCom= 8.61D-01 WtEn= 1.39D-01
 Coeff-Com: -0.469D+00 0.147D+01
 Coeff-En:   0.000D+00 0.100D+01
 Coeff:     -0.404D+00 0.140D+01
 Gap=     0.382 Goal=   None    Shift=    0.000
 Gap=    -0.264 Goal=   None    Shift=    0.000
 RMSDP=8.31D-03 MaxDP=5.69D-01 DE=-1.67D-01 OVMax= 5.55D-01

 Cycle   3  Pass 1  IDiag  1:
 RMSU=  8.30D-03    CP:  8.93D-01  9.64D-01
 E= -558.837648171765     Delta-E=       -0.234964476296 Rises=F Damp=F
 DIIS: error= 2.39D-02 at cycle   3 NSaved=   3.
 NSaved= 3 IEnMin= 3 EnMin= -558.837648171765     IErMin= 2 ErrMin= 1.39D-02
 ErrMax= 2.39D-02 EMaxC= 1.00D-01 BMatC= 7.59D-01 BMatP= 4.39D-01
 IDIUse=2 WtCom= 0.00D+00 WtEn= 1.00D+00
 Coeff-En:   0.000D+00 0.000D+00 0.100D+01
 Coeff:      0.000D+00 0.000D+00 0.100D+01
 Gap=     0.330 Goal=   None    Shift=    0.000
 Gap=     0.285 Goal=   None    Shift=    0.000
 RMSDP=1.28D-02 MaxDP=1.04D+00 DE=-2.35D-01 OVMax= 9.37D-01

 Cycle   4  Pass 1  IDiag  1:
 RMSU=  3.38D-03    CP:  5.37D-01  3.00D+00 -9.61D-02
 E= -557.581033556668     Delta-E=        1.256614615097 Rises=F Damp=F
 DIIS: error= 5.79D-02 at cycle   4 NSaved=   4.
 NSaved= 4 IEnMin= 3 EnMin= -558.837648171765     IErMin= 2 ErrMin= 1.39D-02
 ErrMax= 5.79D-02 EMaxC= 1.00D-01 BMatC= 4.86D+00 BMatP= 4.39D-01
 IDIUse=2 WtCom= 0.00D+00 WtEn= 1.00D+00
 Coeff-En:   0.000D+00 0.000D+00 0.828D+00 0.172D+00
 Coeff:      0.000D+00 0.000D+00 0.828D+00 0.172D+00
 Gap=     0.342 Goal=   None    Shift=    0.000
 Gap=     0.088 Goal=   None    Shift=    0.000
 RMSDP=4.19D-03 MaxDP=4.91D-01 DE= 1.26D+00 OVMax= 9.74D-01

 Cycle   5  Pass 1  IDiag  1:
 RMSU=  3.83D-03    CP:  5.34D-01  2.84D+00  1.97D-02  7.22D-01
 E= -559.006001476858     Delta-E=       -1.424967920190 Rises=F Damp=F
 DIIS: error= 1.48D-02 at cycle   5 NSaved=   5.
 NSaved= 5 IEnMin= 5 EnMin= -559.006001476858     IErMin= 2 ErrMin= 1.39D-02
 ErrMax= 1.48D-02 EMaxC= 1.00D-01 BMatC= 2.02D-01 BMatP= 4.39D-01
 IDIUse=3 WtCom= 8.52D-01 WtEn= 1.48D-01
 Coeff-Com: -0.187D+00 0.386D+00 0.331D+00-0.609D-02 0.476D+00
 Coeff-En:   0.000D+00 0.000D+00 0.150D+00 0.000D+00 0.850D+00
 Coeff:     -0.159D+00 0.329D+00 0.304D+00-0.519D-02 0.532D+00
 Gap=     0.173 Goal=   None    Shift=    0.000
 Gap=     0.211 Goal=   None    Shift=    0.000
 RMSDP=1.43D-03 MaxDP=8.77D-02 DE=-1.42D+00 OVMax= 1.03D-01

 Cycle   6  Pass 1  IDiag  1:
 RMSU=  1.25D-03    CP:  5.27D-01  2.93D+00  6.19D-02  5.81D-01  1.06D+00
 E= -559.048782334416     Delta-E=       -0.042780857558 Rises=F Damp=F
 DIIS: error= 5.20D-03 at cycle   6 NSaved=   6.
 NSaved= 6 IEnMin= 6 EnMin= -559.048782334416     IErMin= 6 ErrMin= 5.20D-03
 ErrMax= 5.20D-03 EMaxC= 1.00D-01 BMatC= 2.34D-02 BMatP= 2.02D-01
 IDIUse=3 WtCom= 9.48D-01 WtEn= 5.20D-02
 Coeff-Com: -0.838D-01 0.130D+00 0.110D+00-0.192D-01 0.346D+00 0.516D+00
 Coeff-En:   0.000D+00 0.000D+00 0.000D+00 0.000D+00 0.000D+00 0.100D+01
 Coeff:     -0.794D-01 0.124D+00 0.104D+00-0.182D-01 0.328D+00 0.541D+00
 Gap=     0.196 Goal=   None    Shift=    0.000
 Gap=     0.180 Goal=   None    Shift=    0.000
 RMSDP=5.20D-04 MaxDP=2.87D-02 DE=-4.28D-02 OVMax= 5.66D-02

 Cycle   7  Pass 1  IDiag  1:
 RMSU=  3.75D-04    CP:  5.24D-01  2.94D+00  3.84D-02  5.89D-01  1.05D+00
                    CP:  7.70D-01
 E= -559.053730185725     Delta-E=       -0.004947851308 Rises=F Damp=F
 DIIS: error= 2.12D-03 at cycle   7 NSaved=   7.
 NSaved= 7 IEnMin= 7 EnMin= -559.053730185725     IErMin= 7 ErrMin= 2.12D-03
 ErrMax= 2.12D-03 EMaxC= 1.00D-01 BMatC= 4.96D-03 BMatP= 2.34D-02
 IDIUse=3 WtCom= 9.79D-01 WtEn= 2.12D-02
 Coeff-Com: -0.154D-01 0.297D-01-0.267D-02-0.209D-02 0.298D-01 0.327D+00
 Coeff-Com:  0.634D+00
 Coeff-En:   0.000D+00 0.000D+00 0.000D+00 0.000D+00 0.000D+00 0.559D-01
 Coeff-En:   0.944D+00
 Coeff:     -0.151D-01 0.291D-01-0.261D-02-0.205D-02 0.292D-01 0.321D+00
 Coeff:      0.641D+00
 Gap=     0.201 Goal=   None    Shift=    0.000
 Gap=     0.182 Goal=   None    Shift=    0.000
 RMSDP=2.00D-04 MaxDP=1.83D-02 DE=-4.95D-03 OVMax= 2.80D-02

 Cycle   8  Pass 1  IDiag  1:
 RMSU=  1.78D-04    CP:  5.23D-01  2.94D+00  3.54D-02  5.92D-01  1.05D+00
                    CP:  8.26D-01  1.12D+00
 E= -559.054979597943     Delta-E=       -0.001249412219 Rises=F Damp=F
 DIIS: error= 8.27D-04 at cycle   8 NSaved=   8.
 NSaved= 8 IEnMin= 8 EnMin= -559.054979597943     IErMin= 8 ErrMin= 8.27D-04
 ErrMax= 8.27D-04 EMaxC= 1.00D-01 BMatC= 1.22D-03 BMatP= 4.96D-03
 IDIUse=3 WtCom= 9.92D-01 WtEn= 8.27D-03
 Coeff-Com:  0.184D-01-0.303D-01-0.268D-01 0.752D-02-0.610D-01 0.767D-01
 Coeff-Com:  0.414D+00 0.601D+00
 Coeff-En:   0.000D+00 0.000D+00 0.000D+00 0.000D+00 0.000D+00 0.000D+00
 Coeff-En:   0.000D+00 0.100D+01
 Coeff:      0.183D-01-0.300D-01-0.266D-01 0.746D-02-0.605D-01 0.761D-01
 Coeff:      0.411D+00 0.604D+00
 Gap=     0.201 Goal=   None    Shift=    0.000
 Gap=     0.188 Goal=   None    Shift=    0.000
 RMSDP=1.21D-04 MaxDP=1.10D-02 DE=-1.25D-03 OVMax= 2.43D-02

 Cycle   9  Pass 1  IDiag  1:
 RMSU=  7.96D-05    CP:  5.22D-01  2.95D+00  3.43D-02  5.90D-01  1.05D+00
                    CP:  8.49D-01  1.33D+00  1.05D+00
 E= -559.055414755470     Delta-E=       -0.000435157527 Rises=F Damp=F
 DIIS: error= 4.33D-04 at cycle   9 NSaved=   9.
 NSaved= 9 IEnMin= 9 EnMin= -559.055414755470     IErMin= 9 ErrMin= 4.33D-04
 ErrMax= 4.33D-04 EMaxC= 1.00D-01 BMatC= 9.82D-05 BMatP= 1.22D-03
 IDIUse=3 WtCom= 9.96D-01 WtEn= 4.33D-03
 Coeff-Com: -0.917D-03 0.326D-02 0.285D-03 0.591D-03-0.364D-02-0.699D-01
 Coeff-Com: -0.679D-01 0.702D-01 0.107D+01
 Coeff-En:   0.000D+00 0.000D+00 0.000D+00 0.000D+00 0.000D+00 0.000D+00
 Coeff-En:   0.000D+00 0.000D+00 0.100D+01
 Coeff:     -0.913D-03 0.325D-02 0.284D-03 0.588D-03-0.363D-02-0.696D-01
 Coeff:     -0.676D-01 0.699D-01 0.107D+01
 Gap=     0.203 Goal=   None    Shift=    0.000
 Gap=     0.188 Goal=   None    Shift=    0.000
 RMSDP=8.33D-05 MaxDP=9.21D-03 DE=-4.35D-04 OVMax= 1.96D-02

 Cycle  10  Pass 1  IDiag  1:
 RMSU=  4.57D-05    CP:  5.22D-01  2.95D+00  3.35D-02  5.93D-01  1.04D+00
                    CP:  8.23D-01  1.42D+00  1.23D+00  1.44D+00
 E= -559.055525195251     Delta-E=       -0.000110439780 Rises=F Damp=F
 DIIS: error= 1.80D-04 at cycle  10 NSaved=  10.
 NSaved=10 IEnMin=10 EnMin= -559.055525195251     IErMin=10 ErrMin= 1.80D-04
 ErrMax= 1.80D-04 EMaxC= 1.00D-01 BMatC= 1.13D-05 BMatP= 9.82D-05
 IDIUse=3 WtCom= 9.98D-01 WtEn= 1.80D-03
 Coeff-Com: -0.255D-02 0.389D-02 0.397D-02-0.640D-03 0.798D-02-0.117D-01
 Coeff-Com: -0.648D-01-0.937D-01 0.698D-01 0.109D+01
 Coeff-En:   0.000D+00 0.000D+00 0.000D+00 0.000D+00 0.000D+00 0.000D+00
 Coeff-En:   0.000D+00 0.000D+00 0.000D+00 0.100D+01
 Coeff:     -0.255D-02 0.389D-02 0.396D-02-0.639D-03 0.797D-02-0.117D-01
 Coeff:     -0.647D-01-0.935D-01 0.697D-01 0.109D+01
 Gap=     0.203 Goal=   None    Shift=    0.000
 Gap=     0.188 Goal=   None    Shift=    0.000
 RMSDP=3.64D-05 MaxDP=4.56D-03 DE=-1.10D-04 OVMax= 9.57D-03

 Cycle  11  Pass 1  IDiag  1:
 RMSU=  1.37D-05    CP:  5.21D-01  2.95D+00  3.36D-02  5.93D-01  1.04D+00
                    CP:  8.20D-01  1.45D+00  1.32D+00  1.69D+00  1.38D+00
 E= -559.055543176547     Delta-E=       -0.000017981297 Rises=F Damp=F
 DIIS: error= 5.27D-05 at cycle  11 NSaved=  11.
 NSaved=11 IEnMin=11 EnMin= -559.055543176547     IErMin=11 ErrMin= 5.27D-05
 ErrMax= 5.27D-05 EMaxC= 1.00D-01 BMatC= 3.04D-06 BMatP= 1.13D-05
 IDIUse=1 WtCom= 1.00D+00 WtEn= 0.00D+00
 Coeff-Com: -0.330D-03 0.243D-03 0.822D-03-0.310D-03 0.178D-02 0.587D-02
 Coeff-Com: -0.121D-01-0.363D-01-0.136D+00 0.399D+00 0.777D+00
 Coeff:     -0.330D-03 0.243D-03 0.822D-03-0.310D-03 0.178D-02 0.587D-02
 Coeff:     -0.121D-01-0.363D-01-0.136D+00 0.399D+00 0.777D+00
 Gap=     0.202 Goal=   None    Shift=    0.000
 Gap=     0.188 Goal=   None    Shift=    0.000
 RMSDP=1.19D-05 MaxDP=1.33D-03 DE=-1.80D-05 OVMax= 2.77D-03

 Cycle  12  Pass 1  IDiag  1:
 RMSU=  5.16D-06    CP:  5.21D-01  2.96D+00  3.37D-02  5.93D-01  1.04D+00
                    CP:  8.22D-01  1.47D+00  1.34D+00  1.78D+00  1.47D+00
                    CP:  1.00D+00
 E= -559.055545080391     Delta-E=       -0.000001903844 Rises=F Damp=F
 DIIS: error= 1.71D-05 at cycle  12 NSaved=  12.
 NSaved=12 IEnMin=12 EnMin= -559.055545080391     IErMin=12 ErrMin= 1.71D-05
 ErrMax= 1.71D-05 EMaxC= 1.00D-01 BMatC= 6.63D-07 BMatP= 3.04D-06
 IDIUse=1 WtCom= 1.00D+00 WtEn= 0.00D+00
 Coeff-Com:  0.196D-03-0.362D-03 0.383D-04-0.106D-03 0.120D-03 0.448D-02
 Coeff-Com:  0.240D-02-0.223D-02-0.748D-01 0.106D-01 0.368D+00 0.691D+00
 Coeff:      0.196D-03-0.362D-03 0.383D-04-0.106D-03 0.120D-03 0.448D-02
 Coeff:      0.240D-02-0.223D-02-0.748D-01 0.106D-01 0.368D+00 0.691D+00
 Gap=     0.203 Goal=   None    Shift=    0.000
 Gap=     0.188 Goal=   None    Shift=    0.000
 RMSDP=3.64D-06 MaxDP=3.97D-04 DE=-1.90D-06 OVMax= 8.23D-04

 Cycle  13  Pass 1  IDiag  1:
 RMSU=  1.86D-06    CP:  5.21D-01  2.96D+00  3.36D-02  5.93D-01  1.04D+00
                    CP:  8.22D-01  1.47D+00  1.35D+00  1.79D+00  1.51D+00
                    CP:  1.09D+00  1.01D+00
 E= -559.055545351315     Delta-E=       -0.000000270923 Rises=F Damp=F
 DIIS: error= 5.62D-06 at cycle  13 NSaved=  13.
 NSaved=13 IEnMin=13 EnMin= -559.055545351315     IErMin=13 ErrMin= 5.62D-06
 ErrMax= 5.62D-06 EMaxC= 1.00D-01 BMatC= 5.32D-08 BMatP= 6.63D-07
 IDIUse=1 WtCom= 1.00D+00 WtEn= 0.00D+00
 Coeff-Com:  0.155D-03-0.220D-03-0.980D-04-0.177D-04-0.181D-03 0.681D-03
 Coeff-Com:  0.192D-02 0.521D-02-0.496D-02-0.506D-01 0.327D-02 0.184D+00
 Coeff-Com:  0.860D+00
 Coeff:      0.155D-03-0.220D-03-0.980D-04-0.177D-04-0.181D-03 0.681D-03
 Coeff:      0.192D-02 0.521D-02-0.496D-02-0.506D-01 0.327D-02 0.184D+00
 Coeff:      0.860D+00
 Gap=     0.203 Goal=   None    Shift=    0.000
 Gap=     0.188 Goal=   None    Shift=    0.000
 RMSDP=1.20D-06 MaxDP=1.12D-04 DE=-2.71D-07 OVMax= 2.33D-04

 Cycle  14  Pass 1  IDiag  1:
 RMSU=  4.81D-07    CP:  5.21D-01  2.96D+00  3.36D-02  5.93D-01  1.04D+00
                    CP:  8.22D-01  1.47D+00  1.35D+00  1.80D+00  1.51D+00
                    CP:  1.12D+00  1.12D+00  1.05D+00
 E= -559.055545372127     Delta-E=       -0.000000020812 Rises=F Damp=F
 DIIS: error= 1.76D-06 at cycle  14 NSaved=  14.
 NSaved=14 IEnMin=14 EnMin= -559.055545372127     IErMin=14 ErrMin= 1.76D-06
 ErrMax= 1.76D-06 EMaxC= 1.00D-01 BMatC= 7.23D-09 BMatP= 5.32D-08
 IDIUse=1 WtCom= 1.00D+00 WtEn= 0.00D+00
 Coeff-Com:  0.339D-04-0.372D-04-0.208D-04-0.872D-05-0.605D-04-0.790D-04
 Coeff-Com:  0.260D-03 0.203D-02 0.453D-02-0.179D-01-0.296D-01 0.321D-03
 Coeff-Com:  0.276D+00 0.764D+00
 Coeff:      0.339D-04-0.372D-04-0.208D-04-0.872D-05-0.605D-04-0.790D-04
 Coeff:      0.260D-03 0.203D-02 0.453D-02-0.179D-01-0.296D-01 0.321D-03
 Coeff:      0.276D+00 0.764D+00
 Gap=     0.202 Goal=   None    Shift=    0.000
 Gap=     0.188 Goal=   None    Shift=    0.000
 RMSDP=3.19D-07 MaxDP=2.00D-05 DE=-2.08D-08 OVMax= 4.27D-05

 Cycle  15  Pass 1  IDiag  1:
 RMSU=  1.55D-07    CP:  5.21D-01  2.96D+00  3.36D-02  5.93D-01  1.04D+00
                    CP:  8.22D-01  1.47D+00  1.35D+00  1.80D+00  1.51D+00
                    CP:  1.13D+00  1.13D+00  1.10D+00  8.83D-01
 E= -559.055545374348     Delta-E=       -0.000000002221 Rises=F Damp=F
 DIIS: error= 8.01D-07 at cycle  15 NSaved=  15.
 NSaved=15 IEnMin=15 EnMin= -559.055545374348     IErMin=15 ErrMin= 8.01D-07
 ErrMax= 8.01D-07 EMaxC= 1.00D-01 BMatC= 1.06D-09 BMatP= 7.23D-09
 IDIUse=1 WtCom= 1.00D+00 WtEn= 0.00D+00
 Coeff-Com: -0.583D-05 0.132D-04 0.901D-05-0.376D-05-0.439D-05-0.125D-03
 Coeff-Com: -0.215D-03 0.172D-03 0.271D-02-0.692D-03-0.133D-01-0.248D-01
 Coeff-Com: -0.106D-01 0.301D+00 0.746D+00
 Coeff:     -0.583D-05 0.132D-04 0.901D-05-0.376D-05-0.439D-05-0.125D-03
 Coeff:     -0.215D-03 0.172D-03 0.271D-02-0.692D-03-0.133D-01-0.248D-01
 Coeff:     -0.106D-01 0.301D+00 0.746D+00
 Gap=     0.202 Goal=   None    Shift=    0.000
 Gap=     0.188 Goal=   None    Shift=    0.000
 RMSDP=1.10D-07 MaxDP=6.73D-06 DE=-2.22D-09 OVMax= 1.43D-05

 Cycle  16  Pass 1  IDiag  1:
 RMSU=  5.99D-08    CP:  5.21D-01  2.96D+00  3.36D-02  5.93D-01  1.04D+00
                    CP:  8.22D-01  1.47D+00  1.35D+00  1.80D+00  1.51D+00
                    CP:  1.13D+00  1.14D+00  1.11D+00  9.47D-01  1.00D+00
 E= -559.055545374726     Delta-E=       -0.000000000378 Rises=F Damp=F
 DIIS: error= 1.69D-07 at cycle  16 NSaved=  16.
 NSaved=16 IEnMin=16 EnMin= -559.055545374726     IErMin=16 ErrMin= 1.69D-07
 ErrMax= 1.69D-07 EMaxC= 1.00D-01 BMatC= 8.40D-11 BMatP= 1.06D-09
 IDIUse=1 WtCom= 1.00D+00 WtEn= 0.00D+00
 Coeff-Com: -0.434D-05 0.574D-05 0.461D-05-0.707D-06 0.149D-05-0.369D-04
 Coeff-Com: -0.112D-03-0.173D-03 0.420D-03 0.191D-02-0.139D-02-0.803D-02
 Coeff-Com: -0.386D-01 0.138D-01 0.264D+00 0.768D+00
 Coeff:     -0.434D-05 0.574D-05 0.461D-05-0.707D-06 0.149D-05-0.369D-04
 Coeff:     -0.112D-03-0.173D-03 0.420D-03 0.191D-02-0.139D-02-0.803D-02
 Coeff:     -0.386D-01 0.138D-01 0.264D+00 0.768D+00
 Gap=     0.202 Goal=   None    Shift=    0.000
 Gap=     0.188 Goal=   None    Shift=    0.000
 RMSDP=3.59D-08 MaxDP=2.57D-06 DE=-3.78D-10 OVMax= 4.30D-06

 Cycle  17  Pass 1  IDiag  1:
 RMSU=  2.18D-08    CP:  5.21D-01  2.96D+00  3.36D-02  5.93D-01  1.04D+00
                    CP:  8.22D-01  1.47D+00  1.35D+00  1.80D+00  1.51D+00
                    CP:  1.13D+00  1.14D+00  1.11D+00  9.65D-01  1.07D+00
                    CP:  1.08D+00
 E= -559.055545374798     Delta-E=       -0.000000000072 Rises=F Damp=F
 DIIS: error= 4.58D-08 at cycle  17 NSaved=  17.
 NSaved=17 IEnMin=17 EnMin= -559.055545374798     IErMin=17 ErrMin= 4.58D-08
 ErrMax= 4.58D-08 EMaxC= 1.00D-01 BMatC= 8.57D-12 BMatP= 8.40D-11
 IDIUse=1 WtCom= 1.00D+00 WtEn= 0.00D+00
 Coeff-Com: -0.614D-07-0.944D-06 0.709D-06 0.142D-06 0.306D-05 0.214D-05
 Coeff-Com: -0.601D-05-0.726D-04-0.191D-03 0.625D-03 0.116D-02 0.818D-03
 Coeff-Com: -0.974D-02-0.333D-01-0.165D-01 0.245D+00 0.812D+00
 Coeff:     -0.614D-07-0.944D-06 0.709D-06 0.142D-06 0.306D-05 0.214D-05
 Coeff:     -0.601D-05-0.726D-04-0.191D-03 0.625D-03 0.116D-02 0.818D-03
 Coeff:     -0.974D-02-0.333D-01-0.165D-01 0.245D+00 0.812D+00
 Gap=     0.202 Goal=   None    Shift=    0.000
 Gap=     0.188 Goal=   None    Shift=    0.000
 RMSDP=9.98D-09 MaxDP=5.19D-07 DE=-7.19D-11 OVMax= 5.66D-07

 SCF Done:  E(UB+HF-LYP) =  -559.055545375     A.U. after   17 cycles
             Convg  =    0.9976D-08             -V/T =  2.0074
             S**2   =   0.7542
 KE= 5.549473433543D+02 PE=-2.938870415291D+03 EE= 1.006028310413D+03
 Annihilation of the first spin contaminant:
 S**2 before annihilation     0.7542,   after     0.7500
 Leave Link  502 at Fri Mar  5 12:03:20 2010, MaxMem=  536870912 cpu:    2732.3
 (Enter /home/system/software/orac/g03_E.01/g03/l801.exe)
 Range of M.O.s used for correlation:     1   330
 NBasis=   330 NAE=    48 NBE=    47 NFC=     0 NFV=     0
 NROrb=    330 NOA=    48 NOB=    47 NVA=   282 NVB=   283

 **** Warning!!: The largest alpha MO coefficient is  0.15605278D+02


 **** Warning!!: The largest beta MO coefficient is  0.15910086D+02

 Leave Link  801 at Fri Mar  5 12:03:20 2010, MaxMem=  536870912 cpu:       0.2
 (Enter /home/system/software/orac/g03_E.01/g03/l1002.exe)
 Minotr:  UHF wavefunction.
          Direct CPHF calculation.
          Solving linear equations simultaneously.
          Differentiating once with respect to magnetic field using GIAOs.
          Electric field/nuclear overlap derivatives assumed to be zero.
          Requested convergence is 1.0D-08 RMS, and 1.0D-07 maximum.
          Secondary convergence is 1.0D-12 RMS, and 1.0D-12 maximum.
          NewPWx=T KeepS1=F KeepF1=F KeepIn=T MapXYZ=F.
          MDV=     536870670 using IRadAn=       1.
 Generate precomputed XC quadrature information.
 Symmetry not used in FoFDir.
 MinBra= 0 MaxBra= 2 Meth= 1.
 IRaf=       0 NMat=   1 IRICut=       1 DoRegI=T DoRafI=F ISym2E= 0 JSym2E=0.
          There are   3 degrees of freedom in the 1st order CPHF.
     3 vectors were produced by pass  0.
 AX will form   3 AO Fock derivatives at one time.
     3 vectors were produced by pass  1.
     3 vectors were produced by pass  2.
     3 vectors were produced by pass  3.
     3 vectors were produced by pass  4.
     3 vectors were produced by pass  5.
     2 vectors were produced by pass  6.
 Inv2:  IOpt= 1 Iter= 1 AM= 4.89D-16 Conv= 1.00D-12.
 Inverted reduced A of dimension   20 with in-core refinement.
 Calculating GIAO nuclear magnetic shielding tensors.
 SCF GIAO Magnetic shielding tensor (ppm):
  1  C    Isotropic =   159.3069   Anisotropy =    38.2295
   XX=   145.8300   YX=     0.7646   ZX=     6.6141
   XY=     4.4752   YY=   152.9013   ZY=   -13.3054
   XZ=     6.7735   YZ=   -11.3653   ZZ=   179.1893
   Eigenvalues:   141.4991   151.6284   184.7932
  2  H    Isotropic =    30.4713   Anisotropy =     5.3448
   XX=    27.5200   YX=    -2.4324   ZX=     0.5106
   XY=    -1.5768   YY=    30.0470   ZY=    -0.2694
   XZ=    -1.7436   YZ=     1.2105   ZZ=    33.8468
   Eigenvalues:    26.4006    30.9787    34.0345
  3  H    Isotropic =    31.1717   Anisotropy =     8.8512
   XX=    27.5999   YX=     0.4059   ZX=    -0.1395
   XY=     0.8842   YY=    34.8416   ZY=    -3.1499
   XZ=    -0.9587   YZ=    -4.0002   ZZ=    31.0737
   Eigenvalues:    27.5128    28.9298    37.0725
  4  H    Isotropic =    30.3680   Anisotropy =     7.4287
   XX=    32.7819   YX=    -0.8398   ZX=     2.6430
   XY=    -0.6179   YY=    28.0063   ZY=    -1.1347
   XZ=     3.9344   YZ=    -1.5757   ZZ=    30.3157
   Eigenvalues:    27.1905    28.5930    35.3204
  5  C    Isotropic =   155.1907   Anisotropy =    43.7776
   XX=   145.5428   YX=   -13.0393   ZX=    -9.8650
   XY=   -15.6081   YY=   157.0172   ZY=    17.0498
   XZ=   -12.2608   YZ=    14.8906   ZZ=   163.0120
   Eigenvalues:   135.8470   145.3492   184.3757
  6  H    Isotropic =    31.2860   Anisotropy =     8.0505
   XX=    28.6439   YX=    -0.1712   ZX=    -0.3527
   XY=     0.4212   YY=    36.2029   ZY=     1.7203
   XZ=    -0.3689   YZ=     1.9886   ZZ=    29.0114
   Eigenvalues:    28.2202    28.9849    36.6530
  7  H    Isotropic =    31.0418   Anisotropy =     8.0220
   XX=    28.4506   YX=    -1.3881   ZX=    -2.0134
   XY=    -1.2659   YY=    28.8341   ZY=     1.7267
   XZ=    -0.7950   YZ=     0.7745   ZZ=    35.8406
   Eigenvalues:    27.2935    29.4421    36.3898
  8  H    Isotropic =    29.8893   Anisotropy =     8.2493
   XX=    34.0723   YX=    -1.9690   ZX=    -0.1523
   XY=    -3.4595   YY=    28.7738   ZY=     1.2466
   XZ=    -1.2173   YZ=     1.7162   ZZ=    26.8219
   Eigenvalues:    25.9470    28.3321    35.3889
  9  C    Isotropic =   136.3344   Anisotropy =    37.7594
   XX=   149.3176   YX=   -18.4075   ZX=    10.2683
   XY=   -17.6102   YY=   134.7629   ZY=     4.7802
   XZ=     0.2148   YZ=     6.3472   ZZ=   124.9227
   Eigenvalues:   116.1242   131.3716   161.5073
 10  H    Isotropic =    30.6363   Anisotropy =     3.4769
   XX=    30.6812   YX=    -1.5466   ZX=     1.9444
   XY=    -0.9947   YY=    30.0792   ZY=     2.3336
   XZ=     1.3285   YZ=     1.8270   ZZ=    31.1486
   Eigenvalues:    27.2687    31.6860    32.9542
 11  H    Isotropic =    29.7772   Anisotropy =     5.1756
   XX=    30.5346   YX=     0.6224   ZX=    -0.0785
   XY=     2.1721   YY=    32.4250   ZY=    -1.0449
   XZ=     0.3853   YZ=    -0.5735   ZZ=    26.3722
   Eigenvalues:    26.2380    29.8661    33.2277
 12  C    Isotropic =   123.5125   Anisotropy =    63.1923
   XX=   155.7801   YX=     0.0013   ZX=    21.4395
   XY=     0.0011   YY=   108.8189   ZY=     0.0013
   XZ=    27.0869   YZ=     0.0015   ZZ=   105.9386
   Eigenvalues:    96.0779   108.8189   165.6407
 13  H    Isotropic =    27.8216   Anisotropy =     3.1604
   XX=    29.0115   YX=     0.0001   ZX=     1.6506
   XY=     0.0000   YY=    25.1200   ZY=     0.0002
   XZ=    -0.1730   YZ=     0.0000   ZZ=    29.3331
   Eigenvalues:    25.1200    28.4162    29.9285
 14  C    Isotropic =   136.3343   Anisotropy =    37.7596
   XX=   149.3152   YX=    18.4086   ZX=    10.2687
   XY=    17.6116   YY=   134.7649   ZY=    -4.7797
   XZ=     0.2155   YZ=    -6.3475   ZZ=   124.9229
   Eigenvalues:   116.1237   131.3718   161.5074
 15  H    Isotropic =    30.6363   Anisotropy =     3.4768
   XX=    30.6810   YX=     1.5466   ZX=     1.9445
   XY=     0.9948   YY=    30.0793   ZY=    -2.3334
   XZ=     1.3286   YZ=    -1.8269   ZZ=    31.1486
   Eigenvalues:    27.2688    31.6860    32.9542
 16  H    Isotropic =    29.7772   Anisotropy =     5.1756
   XX=    30.5347   YX=    -0.6225   ZX=    -0.0786
   XY=    -2.1722   YY=    32.4248   ZY=     1.0449
   XZ=     0.3853   YZ=     0.5736   ZZ=    26.3722
   Eigenvalues:    26.2380    29.8661    33.2276
 17  C    Isotropic =   117.1617   Anisotropy =    50.9687
   XX=   106.7202   YX=   -19.0640   ZX=    -0.4488
   XY=   -22.4851   YY=   141.0377   ZY=     2.1988
   XZ=    -8.8357   YZ=     1.9857   ZZ=   103.7271
   Eigenvalues:    95.5503   104.7939   151.1408
 18  C    Isotropic =   159.3068   Anisotropy =    38.2296
   XX=   145.8302   YX=    -0.7649   ZX=     6.6134
   XY=    -4.4756   YY=   152.9008   ZY=    13.3058
   XZ=     6.7729   YZ=    11.3657   ZZ=   179.1893
   Eigenvalues:   141.4989   151.6282   184.7932
 19  H    Isotropic =    30.4713   Anisotropy =     5.3448
   XX=    27.5198   YX=     2.4323   ZX=     0.5106
   XY=     1.5767   YY=    30.0473   ZY=     0.2694
   XZ=    -1.7434   YZ=    -1.2107   ZZ=    33.8468
   Eigenvalues:    26.4006    30.9787    34.0345
 20  H    Isotropic =    30.3680   Anisotropy =     7.4287
   XX=    32.7818   YX=     0.8401   ZX=     2.6429
   XY=     0.6182   YY=    28.0064   ZY=     1.1348
   XZ=     3.9343   YZ=     1.5759   ZZ=    30.3157
   Eigenvalues:    27.1905    28.5930    35.3204
 21  H    Isotropic =    31.1717   Anisotropy =     8.8512
   XX=    27.5999   YX=    -0.4063   ZX=    -0.1397
   XY=    -0.8847   YY=    34.8415   ZY=     3.1499
   XZ=    -0.9590   YZ=     4.0002   ZZ=    31.0737
   Eigenvalues:    27.5128    28.9298    37.0725
 22  C    Isotropic =   155.1906   Anisotropy =    43.7777
   XX=   145.5410   YX=    13.0387   ZX=    -9.8639
   XY=    15.6075   YY=   157.0188   ZY=   -17.0505
   XZ=   -12.2599   YZ=   -14.8914   ZZ=   163.0118
   Eigenvalues:   135.8469   145.3491   184.3757
 23  H    Isotropic =    31.2860   Anisotropy =     8.0505
   XX=    28.6439   YX=     0.1708   ZX=    -0.3526
   XY=    -0.4216   YY=    36.2028   ZY=    -1.7203
   XZ=    -0.3688   YZ=    -1.9886   ZZ=    29.0114
   Eigenvalues:    28.2202    28.9849    36.6530
 24  H    Isotropic =    29.8893   Anisotropy =     8.2493
   XX=    34.0719   YX=     1.9694   ZX=    -0.1522
   XY=     3.4598   YY=    28.7741   ZY=    -1.2466
   XZ=    -1.2172   YZ=    -1.7162   ZZ=    26.8219
   Eigenvalues:    25.9470    28.3321    35.3889
 25  H    Isotropic =    31.0418   Anisotropy =     8.0220
   XX=    28.4504   YX=     1.3880   ZX=    -2.0132
   XY=     1.2659   YY=    28.8343   ZY=    -1.7268
   XZ=    -0.7950   YZ=    -0.7745   ZZ=    35.8406
   Eigenvalues:    27.2935    29.4421    36.3898
 26  C    Isotropic =   117.1619   Anisotropy =    50.9688
   XX=   106.7178   YX=    19.0620   ZX=    -0.4486
   XY=    22.4830   YY=   141.0405   ZY=    -2.1988
   XZ=    -8.8356   YZ=    -1.9864   ZZ=   103.7273
   Eigenvalues:    95.5504   104.7941   151.1411
 27  N    Isotropic =   -14.5186   Anisotropy =   153.1168
   XX=   -30.0382   YX=     0.0024   ZX=    12.2041
   XY=     0.0024   YY=  -100.3807   ZY=     0.0003
   XZ=     5.8921   YZ=     0.0001   ZZ=    86.8631
   Eigenvalues:  -100.3807   -30.7343    87.5593
 28  O    Isotropic =  -316.7669   Anisotropy =   844.6702
   XX=  -968.2831   YX=    -0.0226   ZX=    25.0132
   XY=    -0.0227   YY=  -226.5785   ZY=     0.0008
   XZ=    68.1292   YZ=     0.0020   ZZ=   244.5610
   Eigenvalues:  -970.0687  -226.5785   246.3466
 29  O    Isotropic =   260.6702   Anisotropy =    52.9148
   XX=   279.6106   YX=     0.0035   ZX=     5.4371
   XY=     0.0039   YY=   230.9712   ZY=    -0.0058
   XZ=    34.5893   YZ=    -0.0029   ZZ=   271.4287
   Eigenvalues:   230.9712   255.0927   295.9467
 30  H    Isotropic =    32.2497   Anisotropy =    14.3788
   XX=    33.3344   YX=     0.0001   ZX=     5.3762
   XY=     0.0000   YY=    24.8192   ZY=    -0.0010
   XZ=     5.1204   YZ=    -0.0010   ZZ=    38.5954
   Eigenvalues:    24.8192    30.0943    41.8355
 g value of the free electron [g_e]: 0.20023193D+01
 relativistic mass correction [g_RMC]:-0.29470014D-03
 diamagnetic correction to g tensor [g_DC]:
   XX= 0.14185866D-03   YX= 0.88324512D-09   ZX=-0.82927552D-05
   XY= 0.82225508D-09   YY= 0.11369971D-03   ZY=-0.24238992D-09
   XZ=-0.36092674D-04   YZ=-0.91670492D-09   ZZ= 0.63809932D-04
 orbital Zeeman and spin-orbit coupling contribution to g tensor [g_OZ/SOC]:
   XX= 0.82801402D-02   YX= 0.11925618D-06   ZX=-0.34319837D-03
   XY= 0.12096582D-06   YY= 0.42763685D-02   ZY=-0.95854091D-08
   XZ=-0.54041072D-03   YZ=-0.15551073D-07   ZZ= 0.25366366D-04
 g tensor [g = g_e + g_RMC + g_DC + g_OZ/SOC]:
   XX= 0.20104466D+01   YX= 0.12013942D-06   ZX=-0.35149112D-03
   XY= 0.12178808D-06   YY= 0.20064147D+01   ZY=-0.98277990D-08
   XZ=-0.57650339D-03   YZ=-0.16467778D-07   ZZ= 0.20021138D+01
 g shifts relative to the free electron (ppm):
   xx=         -231.3   yy=         4095.4   zz=         8153.1
 End of Minotr Frequency-dependent properties file   721 does not exist.
 Leave Link 1002 at Fri Mar  5 12:05:28 2010, MaxMem=  536870912 cpu:    1874.1
 (Enter /home/system/software/orac/g03_E.01/g03/l601.exe)
 Copying SCF densities to generalized density rwf, ISCF=1 IROHF=0.

 **********************************************************************

            Population analysis using the SCF density.

 **********************************************************************

 Orbital symmetries:
 Alpha Orbitals:
       Occupied  (A) (A) (A) (A) (A) (A) (A) (A) (A) (A) (A) (A)
                 (A) (A) (A) (A) (A) (A) (A) (A) (A) (A) (A) (A)
                 (A) (A) (A) (A) (A) (A) (A) (A) (A) (A) (A) (A)
                 (A) (A) (A) (A) (A) (A) (A) (A) (A) (A) (A) (A)
       Virtual   (A) (A) (A) (A) (A) (A) (A) (A) (A) (A) (A) (A)
                 (A) (A) (A) (A) (A) (A) (A) (A) (A) (A) (A) (A)
                 (A) (A) (A) (A) (A) (A) (A) (A) (A) (A) (A) (A)
                 (A) (A) (A) (A) (A) (A) (A) (A) (A) (A) (A) (A)
                 (A) (A) (A) (A) (A) (A) (A) (A) (A) (A) (A) (A)
                 (A) (A) (A) (A) (A) (A) (A) (A) (A) (A) (A) (A)
                 (A) (A) (A) (A) (A) (A) (A) (A) (A) (A) (A) (A)
                 (A) (A) (A) (A) (A) (A) (A) (A) (A) (A) (A) (A)
                 (A) (A) (A) (A) (A) (A) (A) (A) (A) (A) (A) (A)
                 (A) (A) (A) (A) (A) (A) (A) (A) (A) (A) (A) (A)
                 (A) (A) (A) (A) (A) (A) (A) (A) (A) (A) (A) (A)
                 (A) (A) (A) (A) (A) (A) (A) (A) (A) (A) (A) (A)
                 (A) (A) (A) (A) (A) (A) (A) (A) (A) (A) (A) (A)
                 (A) (A) (A) (A) (A) (A) (A) (A) (A) (A) (A) (A)
                 (A) (A) (A) (A) (A) (A) (A) (A) (A) (A) (A) (A)
                 (A) (A) (A) (A) (A) (A) (A) (A) (A) (A) (A) (A)
                 (A) (A) (A) (A) (A) (A) (A) (A) (A) (A) (A) (A)
                 (A) (A) (A) (A) (A) (A) (A) (A) (A) (A) (A) (A)
                 (A) (A) (A) (A) (A) (A) (A) (A) (A) (A) (A) (A)
                 (A) (A) (A) (A) (A) (A) (A) (A) (A) (A) (A) (A)
                 (A) (A) (A) (A) (A) (A) (A) (A) (A) (A) (A) (A)
                 (A) (A) (A) (A) (A) (A) (A) (A) (A) (A) (A) (A)
                 (A) (A) (A) (A) (A) (A) (A) (A) (A) (A) (A) (A)
                 (A) (A) (A) (A) (A) (A)
 Beta  Orbitals:
       Occupied  (A) (A) (A) (A) (A) (A) (A) (A) (A) (A) (A) (A)
                 (A) (A) (A) (A) (A) (A) (A) (A) (A) (A) (A) (A)
                 (A) (A) (A) (A) (A) (A) (A) (A) (A) (A) (A) (A)
                 (A) (A) (A) (A) (A) (A) (A) (A) (A) (A) (A)
       Virtual   (A) (A) (A) (A) (A) (A) (A) (A) (A) (A) (A) (A)
                 (A) (A) (A) (A) (A) (A) (A) (A) (A) (A) (A) (A)
                 (A) (A) (A) (A) (A) (A) (A) (A) (A) (A) (A) (A)
                 (A) (A) (A) (A) (A) (A) (A) (A) (A) (A) (A) (A)
                 (A) (A) (A) (A) (A) (A) (A) (A) (A) (A) (A) (A)
                 (A) (A) (A) (A) (A) (A) (A) (A) (A) (A) (A) (A)
                 (A) (A) (A) (A) (A) (A) (A) (A) (A) (A) (A) (A)
                 (A) (A) (A) (A) (A) (A) (A) (A) (A) (A) (A) (A)
                 (A) (A) (A) (A) (A) (A) (A) (A) (A) (A) (A) (A)
                 (A) (A) (A) (A) (A) (A) (A) (A) (A) (A) (A) (A)
                 (A) (A) (A) (A) (A) (A) (A) (A) (A) (A) (A) (A)
                 (A) (A) (A) (A) (A) (A) (A) (A) (A) (A) (A) (A)
                 (A) (A) (A) (A) (A) (A) (A) (A) (A) (A) (A) (A)
                 (A) (A) (A) (A) (A) (A) (A) (A) (A) (A) (A) (A)
                 (A) (A) (A) (A) (A) (A) (A) (A) (A) (A) (A) (A)
                 (A) (A) (A) (A) (A) (A) (A) (A) (A) (A) (A) (A)
                 (A) (A) (A) (A) (A) (A) (A) (A) (A) (A) (A) (A)
                 (A) (A) (A) (A) (A) (A) (A) (A) (A) (A) (A) (A)
                 (A) (A) (A) (A) (A) (A) (A) (A) (A) (A) (A) (A)
                 (A) (A) (A) (A) (A) (A) (A) (A) (A) (A) (A) (A)
                 (A) (A) (A) (A) (A) (A) (A) (A) (A) (A) (A) (A)
                 (A) (A) (A) (A) (A) (A) (A) (A) (A) (A) (A) (A)
                 (A) (A) (A) (A) (A) (A) (A) (A) (A) (A) (A) (A)
                 (A) (A) (A) (A) (A) (A) (A)
 The electronic state is 2-A.
 Alpha  occ. eigenvalues --  -19.15005 -19.14073 -14.41748 -10.24909 -10.24681
 Alpha  occ. eigenvalues --  -10.24681 -10.19663 -10.19663 -10.18356 -10.18356
 Alpha  occ. eigenvalues --  -10.17773 -10.17773  -1.09047  -1.02948  -0.86741
 Alpha  occ. eigenvalues --   -0.82313  -0.76149  -0.72207  -0.69987  -0.69426
 Alpha  occ. eigenvalues --   -0.69044  -0.62028  -0.60149  -0.53332  -0.50710
 Alpha  occ. eigenvalues --   -0.49294  -0.47862  -0.47753  -0.45901  -0.45421
 Alpha  occ. eigenvalues --   -0.43425  -0.41971  -0.41150  -0.40514  -0.39632
 Alpha  occ. eigenvalues --   -0.38661  -0.38104  -0.37915  -0.37559  -0.37044
 Alpha  occ. eigenvalues --   -0.36286  -0.35138  -0.34186  -0.33763  -0.31785
 Alpha  occ. eigenvalues --   -0.27916  -0.25724  -0.19755
 Alpha virt. eigenvalues --    0.00494   0.02289   0.02609   0.03181   0.05805
 Alpha virt. eigenvalues --    0.06138   0.06305   0.07300   0.09825   0.12146
 Alpha virt. eigenvalues --    0.12180   0.13617   0.13962   0.15600   0.15647
 Alpha virt. eigenvalues --    0.16836   0.17200   0.18035   0.18237   0.19230
 Alpha virt. eigenvalues --    0.19476   0.20264   0.20781   0.20810   0.21413
 Alpha virt. eigenvalues --    0.21885   0.23144   0.23886   0.24381   0.24428
 Alpha virt. eigenvalues --    0.24501   0.25624   0.25848   0.27506   0.27813
 Alpha virt. eigenvalues --    0.29427   0.30134   0.30371   0.31169   0.31951
 Alpha virt. eigenvalues --    0.32368   0.33803   0.34565   0.35465   0.35913
 Alpha virt. eigenvalues --    0.36093   0.38790   0.39440   0.40778   0.40827
 Alpha virt. eigenvalues --    0.43072   0.43884   0.45010   0.45035   0.46534
 Alpha virt. eigenvalues --    0.46783   0.48024   0.50517   0.50876   0.51213
 Alpha virt. eigenvalues --    0.51876   0.53524   0.54835   0.55009   0.58417
 Alpha virt. eigenvalues --    0.59006   0.61872   0.62768   0.70585   0.72678
 Alpha virt. eigenvalues --    0.73930   0.76798   0.76921   0.80760   0.81605
 Alpha virt. eigenvalues --    0.83109   0.83729   0.84248   0.84468   0.84584
 Alpha virt. eigenvalues --    0.86275   0.87103   0.87700   0.89355   0.89402
 Alpha virt. eigenvalues --    0.91180   0.91667   0.92376   0.92541   0.93601
 Alpha virt. eigenvalues --    0.94229   0.95657   0.97468   0.97660   0.98018
 Alpha virt. eigenvalues --    0.98991   0.99390   1.00690   1.02149   1.02752
 Alpha virt. eigenvalues --    1.05134   1.06469   1.07880   1.09996   1.11694
 Alpha virt. eigenvalues --    1.12344   1.16700   1.16870   1.18505   1.19583
 Alpha virt. eigenvalues --    1.19798   1.23229   1.23257   1.24065   1.26898
 Alpha virt. eigenvalues --    1.27244   1.29013   1.30947   1.33669   1.35154
 Alpha virt. eigenvalues --    1.35554   1.39726   1.40913   1.41201   1.42478
 Alpha virt. eigenvalues --    1.42905   1.43468   1.44213   1.46234   1.47225
 Alpha virt. eigenvalues --    1.48107   1.48446   1.49646   1.51320   1.51327
 Alpha virt. eigenvalues --    1.54539   1.56738   1.57778   1.59792   1.60260
 Alpha virt. eigenvalues --    1.63327   1.63432   1.64879   1.65501   1.65517
 Alpha virt. eigenvalues --    1.68576   1.68611   1.70360   1.70402   1.72509
 Alpha virt. eigenvalues --    1.73064   1.73105   1.73933   1.76494   1.77346
 Alpha virt. eigenvalues --    1.82604   1.85821   1.86075   1.88313   1.88972
 Alpha virt. eigenvalues --    1.89570   1.90236   1.90764   1.91913   1.92787
 Alpha virt. eigenvalues --    1.95448   1.96814   1.98878   1.99174   2.00361
 Alpha virt. eigenvalues --    2.03001   2.03897   2.04522   2.08885   2.09462
 Alpha virt. eigenvalues --    2.09698   2.11331   2.11383   2.15771   2.17438
 Alpha virt. eigenvalues --    2.19833   2.20201   2.21271   2.26245   2.28627
 Alpha virt. eigenvalues --    2.30251   2.32858   2.35572   2.36349   2.38733
 Alpha virt. eigenvalues --    2.40767   2.41366   2.42599   2.43054   2.44096
 Alpha virt. eigenvalues --    2.44733   2.45633   2.45957   2.47777   2.48682
 Alpha virt. eigenvalues --    2.50203   2.51906   2.52937   2.53437   2.53761
 Alpha virt. eigenvalues --    2.54743   2.55141   2.57140   2.58235   2.62777
 Alpha virt. eigenvalues --    2.65266   2.69787   2.72068   2.80373   2.93073
 Alpha virt. eigenvalues --    3.02625   3.03823   3.05949   3.24066   3.24323
 Alpha virt. eigenvalues --    3.48085   3.54877   4.98681   5.01240   5.01545
 Alpha virt. eigenvalues --    5.02139   5.02419   5.03240   5.03767   5.04156
 Alpha virt. eigenvalues --    5.04422   5.08030   5.10125   5.15003   5.21904
 Alpha virt. eigenvalues --    5.23416   5.31137   5.35988   5.38489   5.41915
 Alpha virt. eigenvalues --    5.43259   5.49438   5.50460   5.63152   5.64890
 Alpha virt. eigenvalues --    5.71434   5.74519   5.84580   5.86828   7.25627
 Alpha virt. eigenvalues --    8.99330   9.04755  29.66712  29.77938  29.91520
 Alpha virt. eigenvalues --   30.05451  30.08220  30.14122  30.15937  30.26018
 Alpha virt. eigenvalues --   30.26210  36.58171  36.62059  36.62713  36.64307
 Alpha virt. eigenvalues --   36.64568  36.65228  36.65636  36.66131  36.66255
 Alpha virt. eigenvalues --   36.68664  36.71072  36.80577  36.89204  36.91883
 Alpha virt. eigenvalues --   36.96261  36.97925  36.98663  36.99072  41.18161
 Alpha virt. eigenvalues --   53.53122  53.57615
  Beta  occ. eigenvalues --  -19.15004 -19.12686 -14.40669 -10.24911 -10.24716
  Beta  occ. eigenvalues --  -10.24716 -10.19660 -10.19660 -10.18301 -10.18301
  Beta  occ. eigenvalues --  -10.17753 -10.17753  -1.06564  -1.02943  -0.85838
  Beta  occ. eigenvalues --   -0.82210  -0.75676  -0.70804  -0.69835  -0.69372
  Beta  occ. eigenvalues --   -0.68980  -0.61898  -0.59856  -0.52981  -0.50246
  Beta  occ. eigenvalues --   -0.49099  -0.47279  -0.46618  -0.45371  -0.44257
  Beta  occ. eigenvalues --   -0.43391  -0.41715  -0.40613  -0.40109  -0.39549
  Beta  occ. eigenvalues --   -0.38468  -0.38073  -0.37411  -0.36997  -0.36954
  Beta  occ. eigenvalues --   -0.35278  -0.35036  -0.34066  -0.31827  -0.30527
  Beta  occ. eigenvalues --   -0.27897  -0.24498
  Beta virt. eigenvalues --   -0.05666   0.00519   0.02298   0.02647   0.03208
  Beta virt. eigenvalues --    0.05816   0.06144   0.06345   0.07413   0.10334
  Beta virt. eigenvalues --    0.12188   0.12311   0.13893   0.14075   0.15748
  Beta virt. eigenvalues --    0.15787   0.17058   0.17249   0.18230   0.18271
  Beta virt. eigenvalues --    0.19276   0.19506   0.20483   0.20866   0.21124
  Beta virt. eigenvalues --    0.21542   0.21989   0.23259   0.23938   0.24487
  Beta virt. eigenvalues --    0.24792   0.24834   0.25703   0.25892   0.27614
  Beta virt. eigenvalues --    0.28021   0.29710   0.30172   0.30620   0.31191
  Beta virt. eigenvalues --    0.32090   0.32408   0.33931   0.34631   0.35696
  Beta virt. eigenvalues --    0.36144   0.36319   0.39023   0.39489   0.40807
  Beta virt. eigenvalues --    0.40932   0.43164   0.43928   0.45181   0.45246
  Beta virt. eigenvalues --    0.46662   0.46885   0.48228   0.50537   0.50973
  Beta virt. eigenvalues --    0.51307   0.51911   0.53586   0.54977   0.55041
  Beta virt. eigenvalues --    0.58469   0.59217   0.61873   0.62945   0.70752
  Beta virt. eigenvalues --    0.73480   0.75063   0.76963   0.78855   0.80805
  Beta virt. eigenvalues --    0.82229   0.83197   0.83868   0.84303   0.84511
  Beta virt. eigenvalues --    0.84620   0.86323   0.87162   0.87808   0.89460
  Beta virt. eigenvalues --    0.89519   0.91217   0.91754   0.92471   0.92987
  Beta virt. eigenvalues --    0.93650   0.94428   0.95823   0.97706   0.97827
  Beta virt. eigenvalues --    0.98054   0.99016   0.99581   1.00770   1.02652
  Beta virt. eigenvalues --    1.02777   1.05379   1.06557   1.08247   1.10111
  Beta virt. eigenvalues --    1.11741   1.12439   1.16903   1.16978   1.18652
  Beta virt. eigenvalues --    1.19699   1.20130   1.23284   1.23392   1.24241
  Beta virt. eigenvalues --    1.26997   1.27572   1.29277   1.30998   1.33723
  Beta virt. eigenvalues --    1.35349   1.35630   1.39944   1.40935   1.41243
  Beta virt. eigenvalues --    1.42520   1.42977   1.43569   1.44246   1.46258
  Beta virt. eigenvalues --    1.47244   1.48191   1.48507   1.49692   1.51338
  Beta virt. eigenvalues --    1.51463   1.54643   1.56912   1.57821   1.60024
  Beta virt. eigenvalues --    1.60267   1.63451   1.63475   1.65495   1.65765
  Beta virt. eigenvalues --    1.65804   1.68657   1.68796   1.70370   1.70459
  Beta virt. eigenvalues --    1.72567   1.73151   1.73266   1.74098   1.76589
  Beta virt. eigenvalues --    1.77358   1.83379   1.86146   1.86170   1.88858
  Beta virt. eigenvalues --    1.89015   1.89947   1.90469   1.90980   1.92117
  Beta virt. eigenvalues --    1.92995   1.95858   1.96999   1.99011   1.99200
  Beta virt. eigenvalues --    2.00528   2.03369   2.04009   2.04604   2.08958
  Beta virt. eigenvalues --    2.09687   2.09744   2.11374   2.11598   2.15816
  Beta virt. eigenvalues --    2.17627   2.19992   2.20342   2.21532   2.27322
  Beta virt. eigenvalues --    2.28962   2.30311   2.33354   2.35894   2.36419
  Beta virt. eigenvalues --    2.38784   2.40831   2.41556   2.42684   2.43515
  Beta virt. eigenvalues --    2.44211   2.44961   2.45713   2.46155   2.47860
  Beta virt. eigenvalues --    2.48910   2.50255   2.52167   2.53020   2.53490
  Beta virt. eigenvalues --    2.53820   2.54802   2.55233   2.57251   2.58417
  Beta virt. eigenvalues --    2.63341   2.66054   2.72250   2.75491   2.82283
  Beta virt. eigenvalues --    2.93091   3.02647   3.03857   3.10022   3.24079
  Beta virt. eigenvalues --    3.25029   3.49750   3.54932   4.98682   5.01237
  Beta virt. eigenvalues --    5.01540   5.02156   5.02418   5.03229   5.03760
  Beta virt. eigenvalues --    5.04147   5.04435   5.08032   5.10114   5.15037
  Beta virt. eigenvalues --    5.21904   5.23438   5.31132   5.35980   5.38512
  Beta virt. eigenvalues --    5.41920   5.43257   5.49446   5.50484   5.63232
  Beta virt. eigenvalues --    5.64959   5.71483   5.74557   5.84578   5.86832
  Beta virt. eigenvalues --    7.27984   9.00169   9.07013  29.66707  29.77945
  Beta virt. eigenvalues --   29.91537  30.05497  30.08258  30.14128  30.15975
  Beta virt. eigenvalues --   30.26019  30.26191  36.58170  36.62061  36.62706
  Beta virt. eigenvalues --   36.64302  36.64551  36.65227  36.65623  36.66112
  Beta virt. eigenvalues --   36.66237  36.68651  36.71046  36.80575  36.89187
  Beta virt. eigenvalues --   36.91865  36.96242  36.97925  36.98661  36.99053
  Beta virt. eigenvalues --   41.19508  53.53831  53.58539
          Condensed to atoms (all electrons):
              1          2          3          4          5          6
     1  C    5.081097   0.404242   0.409121   0.416793  -0.020694  -0.004891
     2  H    0.404242   0.523292  -0.022622  -0.017123   0.000362   0.000126
     3  H    0.409121  -0.022622   0.519004  -0.021161  -0.000714   0.001754
     4  H    0.416793  -0.017123  -0.021161   0.476495  -0.003127  -0.000254
     5  C   -0.020694   0.000362  -0.000714  -0.003127   5.144745   0.403072
     6  H   -0.004891   0.000126   0.001754  -0.000254   0.403072   0.527241
     7  H   -0.000804  -0.000065   0.000125   0.000063   0.408200  -0.023646
     8  H    0.004586   0.000098  -0.000572   0.001958   0.407694  -0.022669
     9  C   -0.005782  -0.007784   0.003395  -0.001428   0.001040   0.004134
    10  H   -0.000954   0.000071   0.000092  -0.000069   0.000859  -0.000735
    11  H   -0.000415  -0.000627   0.000576   0.000171  -0.006803  -0.000298
    12  C   -0.005370   0.009954  -0.001933  -0.001497   0.009903  -0.000326
    13  H   -0.001550   0.001364   0.000069  -0.000083   0.000824  -0.000001
    14  C   -0.005213  -0.001841   0.000015   0.000787  -0.003311  -0.000021
    15  H    0.000489   0.000000  -0.000001   0.000000   0.000296  -0.000003
    16  H   -0.000020   0.000013   0.000000   0.000000   0.000020   0.000000
    17  C    0.012964   0.000462   0.000340  -0.001272  -0.005964   0.000313
    18  C   -0.000188   0.001056  -0.000629   0.000916  -0.001595  -0.000048
    19  H    0.001056   0.002008   0.000062  -0.000356  -0.000034   0.000000
    20  H    0.000916  -0.000356   0.000006  -0.000039  -0.000209   0.000000
    21  H   -0.000629   0.000062  -0.000001   0.000006  -0.000009   0.000000
    22  C   -0.001595  -0.000034  -0.000009  -0.000209   0.005419   0.000023
    23  H   -0.000048   0.000000   0.000000   0.000000   0.000023   0.000000
    24  H   -0.000094   0.000000   0.000000   0.000000  -0.000154   0.000000
    25  H   -0.000022  -0.000001   0.000000   0.000000  -0.000308   0.000000
    26  C    0.257873  -0.027496  -0.030884  -0.024907   0.222060  -0.022354
    27  N   -0.020075   0.000862  -0.000274  -0.003662  -0.022306  -0.002232
    28  O   -0.013316  -0.000714   0.000066   0.004757   0.005807   0.000383
    29  O    0.000863  -0.000210  -0.000035   0.000011  -0.000475   0.000022
    30  H    0.000056   0.000001   0.000000   0.000000   0.000187  -0.000001
              7          8          9         10         11         12
     1  C   -0.000804   0.004586  -0.005782  -0.000954  -0.000415  -0.005370
     2  H   -0.000065   0.000098  -0.007784   0.000071  -0.000627   0.009954
     3  H    0.000125  -0.000572   0.003395   0.000092   0.000576  -0.001933
     4  H    0.000063   0.001958  -0.001428  -0.000069   0.000171  -0.001497
     5  C    0.408200   0.407694   0.001040   0.000859  -0.006803   0.009903
     6  H   -0.023646  -0.022669   0.004134  -0.000735  -0.000298  -0.000326
     7  H    0.502559  -0.013959  -0.002961   0.002799   0.000061  -0.001666
     8  H   -0.013959   0.478506  -0.004542   0.000211  -0.000087   0.000725
     9  C   -0.002961  -0.004542   4.980506   0.397393   0.406775   0.319447
    10  H    0.002799   0.000211   0.397393   0.572701  -0.038073  -0.013257
    11  H    0.000061  -0.000087   0.406775  -0.038073   0.549648  -0.022658
    12  C   -0.001666   0.000725   0.319447  -0.013257  -0.022658   4.917036
    13  H   -0.000006   0.000001  -0.022107   0.003453  -0.006416   0.412425
    14  C    0.000370  -0.000314   0.006449   0.003324  -0.003905   0.319447
    15  H   -0.000032   0.000000   0.003324   0.000032   0.000232  -0.013256
    16  H    0.000000   0.000000  -0.003905   0.000232  -0.000128  -0.022660
    17  C    0.000557   0.001351  -0.006277  -0.012968   0.003914  -0.021410
    18  C   -0.000022  -0.000094  -0.005213   0.000489  -0.000020  -0.005370
    19  H   -0.000001   0.000000  -0.001841   0.000000   0.000013   0.009954
    20  H    0.000000   0.000000   0.000787   0.000000   0.000000  -0.001497
    21  H    0.000000   0.000000   0.000015  -0.000001   0.000000  -0.001933
    22  C   -0.000308  -0.000154  -0.003311   0.000296   0.000020   0.009902
    23  H    0.000000   0.000000  -0.000021  -0.000003   0.000000  -0.000326
    24  H    0.000000   0.000000  -0.000314   0.000000   0.000000   0.000725
    25  H   -0.000022   0.000000   0.000370  -0.000032   0.000000  -0.001666
    26  C   -0.027953  -0.022468   0.288998  -0.038140  -0.024902  -0.021413
    27  N    0.008073  -0.006991  -0.005011   0.003968  -0.000499  -0.015654
    28  O   -0.004177   0.002289  -0.000747  -0.000382   0.000125  -0.001017
    29  O    0.000023  -0.000008   0.003094  -0.012347   0.004641   0.184771
    30  H    0.000000   0.000000  -0.004060   0.004725  -0.001749  -0.007254
             13         14         15         16         17         18
     1  C   -0.001550  -0.005213   0.000489  -0.000020   0.012964  -0.000188
     2  H    0.001364  -0.001841   0.000000   0.000013   0.000462   0.001056
     3  H    0.000069   0.000015  -0.000001   0.000000   0.000340  -0.000629
     4  H   -0.000083   0.000787   0.000000   0.000000  -0.001272   0.000916
     5  C    0.000824  -0.003311   0.000296   0.000020  -0.005964  -0.001595
     6  H   -0.000001  -0.000021  -0.000003   0.000000   0.000313  -0.000048
     7  H   -0.000006   0.000370  -0.000032   0.000000   0.000557  -0.000022
     8  H    0.000001  -0.000314   0.000000   0.000000   0.001351  -0.000094
     9  C   -0.022107   0.006449   0.003324  -0.003905  -0.006277  -0.005213
    10  H    0.003453   0.003324   0.000032   0.000232  -0.012968   0.000489
    11  H   -0.006416  -0.003905   0.000232  -0.000128   0.003914  -0.000020
    12  C    0.412425   0.319447  -0.013256  -0.022660  -0.021410  -0.005370
    13  H    0.588143  -0.022110   0.003453  -0.006416  -0.013436  -0.001551
    14  C   -0.022110   4.980515   0.397389   0.406776   0.289001  -0.005783
    15  H    0.003453   0.397389   0.572705  -0.038074  -0.038140  -0.000954
    16  H   -0.006416   0.406776  -0.038074   0.549649  -0.024901  -0.000415
    17  C   -0.013436   0.289001  -0.038140  -0.024901   4.845498   0.257875
    18  C   -0.001551  -0.005783  -0.000954  -0.000415   0.257875   5.081096
    19  H    0.001364  -0.007784   0.000071  -0.000627  -0.027495   0.404241
    20  H   -0.000083  -0.001428  -0.000069   0.000171  -0.024907   0.416793
    21  H    0.000069   0.003395   0.000092   0.000576  -0.030884   0.409121
    22  C    0.000824   0.001040   0.000859  -0.006803   0.222059  -0.020694
    23  H   -0.000001   0.004134  -0.000735  -0.000298  -0.022353  -0.004890
    24  H    0.000001  -0.004542   0.000211  -0.000087  -0.022468   0.004586
    25  H   -0.000006  -0.002961   0.002799   0.000061  -0.027953  -0.000804
    26  C   -0.013438  -0.006275  -0.012969   0.003914  -0.062380   0.012964
    27  N    0.002074  -0.005013   0.003968  -0.000499   0.323644  -0.020075
    28  O   -0.000162  -0.000747  -0.000382   0.000125  -0.004544  -0.013316
    29  O   -0.068794   0.003094  -0.012348   0.004641   0.002698   0.000863
    30  H    0.008807  -0.004060   0.004726  -0.001749  -0.001879   0.000056
             19         20         21         22         23         24
     1  C    0.001056   0.000916  -0.000629  -0.001595  -0.000048  -0.000094
     2  H    0.002008  -0.000356   0.000062  -0.000034   0.000000   0.000000
     3  H    0.000062   0.000006  -0.000001  -0.000009   0.000000   0.000000
     4  H   -0.000356  -0.000039   0.000006  -0.000209   0.000000   0.000000
     5  C   -0.000034  -0.000209  -0.000009   0.005419   0.000023  -0.000154
     6  H    0.000000   0.000000   0.000000   0.000023   0.000000   0.000000
     7  H   -0.000001   0.000000   0.000000  -0.000308   0.000000   0.000000
     8  H    0.000000   0.000000   0.000000  -0.000154   0.000000   0.000000
     9  C   -0.001841   0.000787   0.000015  -0.003311  -0.000021  -0.000314
    10  H    0.000000   0.000000  -0.000001   0.000296  -0.000003   0.000000
    11  H    0.000013   0.000000   0.000000   0.000020   0.000000   0.000000
    12  C    0.009954  -0.001497  -0.001933   0.009902  -0.000326   0.000725
    13  H    0.001364  -0.000083   0.000069   0.000824  -0.000001   0.000001
    14  C   -0.007784  -0.001428   0.003395   0.001040   0.004134  -0.004542
    15  H    0.000071  -0.000069   0.000092   0.000859  -0.000735   0.000211
    16  H   -0.000627   0.000171   0.000576  -0.006803  -0.000298  -0.000087
    17  C   -0.027495  -0.024907  -0.030884   0.222059  -0.022353  -0.022468
    18  C    0.404241   0.416793   0.409121  -0.020694  -0.004890   0.004586
    19  H    0.523291  -0.017123  -0.022622   0.000362   0.000126   0.000098
    20  H   -0.017123   0.476495  -0.021161  -0.003127  -0.000254   0.001958
    21  H   -0.022622  -0.021161   0.519004  -0.000715   0.001754  -0.000572
    22  C    0.000362  -0.003127  -0.000715   5.144746   0.403072   0.407694
    23  H    0.000126  -0.000254   0.001754   0.403072   0.527241  -0.022668
    24  H    0.000098   0.001958  -0.000572   0.407694  -0.022668   0.478505
    25  H   -0.000065   0.000063   0.000125   0.408200  -0.023646  -0.013958
    26  C    0.000462  -0.001272   0.000340  -0.005965   0.000313   0.001352
    27  N    0.000862  -0.003662  -0.000274  -0.022306  -0.002232  -0.006991
    28  O   -0.000714   0.004757   0.000066   0.005806   0.000383   0.002289
    29  O   -0.000210   0.000011  -0.000035  -0.000475   0.000022  -0.000008
    30  H    0.000001   0.000000   0.000000   0.000187  -0.000001   0.000000
             25         26         27         28         29         30
     1  C   -0.000022   0.257873  -0.020075  -0.013316   0.000863   0.000056
     2  H   -0.000001  -0.027496   0.000862  -0.000714  -0.000210   0.000001
     3  H    0.000000  -0.030884  -0.000274   0.000066  -0.000035   0.000000
     4  H    0.000000  -0.024907  -0.003662   0.004757   0.000011   0.000000
     5  C   -0.000308   0.222060  -0.022306   0.005807  -0.000475   0.000187
     6  H    0.000000  -0.022354  -0.002232   0.000383   0.000022  -0.000001
     7  H   -0.000022  -0.027953   0.008073  -0.004177   0.000023   0.000000
     8  H    0.000000  -0.022468  -0.006991   0.002289  -0.000008   0.000000
     9  C    0.000370   0.288998  -0.005011  -0.000747   0.003094  -0.004060
    10  H   -0.000032  -0.038140   0.003968  -0.000382  -0.012347   0.004725
    11  H    0.000000  -0.024902  -0.000499   0.000125   0.004641  -0.001749
    12  C   -0.001666  -0.021413  -0.015654  -0.001017   0.184771  -0.007254
    13  H   -0.000006  -0.013438   0.002074  -0.000162  -0.068794   0.008807
    14  C   -0.002961  -0.006275  -0.005013  -0.000747   0.003094  -0.004060
    15  H    0.002799  -0.012969   0.003968  -0.000382  -0.012348   0.004726
    16  H    0.000061   0.003914  -0.000499   0.000125   0.004641  -0.001749
    17  C   -0.027953  -0.062380   0.323644  -0.004544   0.002698  -0.001879
    18  C   -0.000804   0.012964  -0.020075  -0.013316   0.000863   0.000056
    19  H   -0.000065   0.000462   0.000862  -0.000714  -0.000210   0.000001
[...]
    13  H    0.000000  -0.000035   0.000065   0.000002  -0.000100  -0.000001
    14  C   -0.000309   0.000449  -0.000172   0.000204   0.001872   0.000029
    15  H    0.000008   0.000146  -0.000113   0.000018   0.000025  -0.000005
    16  H    0.000009  -0.000056   0.000124  -0.000004   0.000111   0.000001
    17  C    0.003307   0.008620   0.043821  -0.017143   0.000848   0.000022
    18  C    0.000209  -0.000322  -0.017530   0.005545   0.000244   0.000001
    19  H   -0.000002  -0.000123   0.001159  -0.000165  -0.000021   0.000000
    20  H    0.000012   0.000362  -0.002241   0.001627   0.000002   0.000000
    21  H   -0.000019  -0.000403   0.000711  -0.000158  -0.000018   0.000000
    22  C   -0.004889  -0.006254  -0.029998   0.009138  -0.000333  -0.000006
    23  H    0.000021  -0.000063  -0.000273  -0.000010  -0.000002   0.000000
    24  H    0.000021   0.000044   0.000264  -0.000237   0.000000   0.000000
    25  H    0.000259   0.000387   0.002168  -0.000578   0.000005   0.000000
    26  C    0.000387  -0.002672   0.043820  -0.017143   0.000848   0.000022
    27  N    0.002168   0.043820   0.610289  -0.154128   0.000140   0.000001
    28  O   -0.000578  -0.017143  -0.154128   0.666573  -0.000007   0.000000
    29  O    0.000005   0.000848   0.000140  -0.000007   0.001736   0.000042
    30  H    0.000000   0.000022   0.000001   0.000000   0.000042  -0.000017
 Mulliken atomic spin densities:
              1
     1  C    0.027622
     2  H   -0.000649
     3  H    0.001770
     4  H   -0.001013
     5  C    0.000814
     6  H   -0.001514
     7  H    0.000274
     8  H   -0.000417
     9  C    0.002868
    10  H   -0.000125
    11  H   -0.000703
    12  C   -0.004534
    13  H    0.000104
    14  C    0.002868
    15  H   -0.000125
    16  H   -0.000703
    17  C   -0.005256
    18  C    0.027623
    19  H   -0.000649
    20  H   -0.001013
    21  H    0.001770
    22  C    0.000814
    23  H   -0.001514
    24  H   -0.000417
    25  H    0.000274
    26  C   -0.005256
    27  N    0.447446
    28  O    0.508960
    29  O    0.000688
    30  H   -0.000008
 Sum of Mulliken spin densities=   1.00000
 Electronic spatial extent (au):  <R**2>=  2054.8791
 Charge=     0.0000 electrons
 Dipole moment (field-independent basis, Debye):
    X=    -1.4699    Y=     0.0001    Z=    -0.5250  Tot=     1.5609
 Quadrupole moment (field-independent basis, Debye-Ang):
   XX=   -89.7364   YY=   -70.8509   ZZ=   -72.0983
   XY=    -0.0010   XZ=     5.7683   YZ=     0.0000
 Traceless Quadrupole moment (field-independent basis, Debye-Ang):
   XX=   -12.1745   YY=     6.7110   ZZ=     5.4635
   XY=    -0.0010   XZ=     5.7683   YZ=     0.0000
 Octapole moment (field-independent basis, Debye-Ang**2):
  XXX=     6.4400  YYY=     0.0001  ZZZ=    -5.8368  XYY=     0.6249
  XXY=     0.0016  XXZ=   -13.6114  XZZ=    -8.4218  YZZ=    -0.0001
  YYZ=     1.8773  XYZ=     0.0001
 Hexadecapole moment (field-independent basis, Debye-Ang**3):
 XXXX= -1234.4863 YYYY= -1141.7749 ZZZZ=  -443.9378 XXXY=    -0.0080
 XXXZ=    73.9789 YYYX=     0.0008 YYYZ=    -0.0001 ZZZX=     5.0829
 ZZZY=    -0.0001 XXYY=  -375.3854 XXZZ=  -232.3390 YYZZ=  -277.8544
 XXYZ=     0.0005 YYXZ=    -1.2006 ZZXY=     0.0010
 N-N= 8.188392161493D+02 E-N=-2.938870422247D+03  KE= 5.549473433543D+02
                          Isotropic Fermi Contact Couplings
        Atom                 a.u.       MegaHertz       Gauss      10(-4) cm-1
     1  C(13)              0.01469      16.51802       5.89404       5.50982
     2  H(1)              -0.00038      -1.70767      -0.60934      -0.56962
     3  H(1)               0.00105       4.68079       1.67022       1.56135
     4  H(1)              -0.00063      -2.80452      -1.00072      -0.93549
     5  C(13)              0.00664       7.46866       2.66500       2.49128
     6  H(1)              -0.00043      -1.91560      -0.68353      -0.63898
     7  H(1)              -0.00024      -1.05477      -0.37637      -0.35183
     8  H(1)              -0.00018      -0.80895      -0.28865      -0.26984
     9  C(13)              0.00136       1.53372       0.54727       0.51159
    10  H(1)              -0.00012      -0.54634      -0.19495      -0.18224
    11  H(1)              -0.00035      -1.54884      -0.55267      -0.51664
    12  C(13)             -0.00051      -0.57596      -0.20552      -0.19212
    13  H(1)               0.00002       0.08752       0.03123       0.02919
    14  C(13)              0.00136       1.53382       0.54731       0.51163
    15  H(1)              -0.00012      -0.54642      -0.19498      -0.18227
    16  H(1)              -0.00035      -1.54892      -0.55269      -0.51667
    17  C(13)             -0.00812      -9.13341      -3.25903      -3.04658
    18  C(13)              0.01469      16.51817       5.89409       5.50987
    19  H(1)              -0.00038      -1.70775      -0.60937      -0.56964
    20  H(1)              -0.00063      -2.80459      -1.00075      -0.93551
    21  H(1)               0.00105       4.68069       1.67019       1.56131
    22  C(13)              0.00664       7.46880       2.66505       2.49132
    23  H(1)              -0.00043      -1.91569      -0.68357      -0.63900
    24  H(1)              -0.00018      -0.80905      -0.28869      -0.26987
    25  H(1)              -0.00024      -1.05486      -0.37640      -0.35186
    26  C(13)             -0.00812      -9.13322      -3.25896      -3.04651
    27  N(14)              0.10920      35.28403      12.59022      11.76948
    28  O(17)              0.06270     -38.01137     -13.56340     -12.67923
    29  O(17)              0.00012      -0.07193      -0.02567      -0.02399
    30  H(1)              -0.00001      -0.02822      -0.01007      -0.00941
 --------------------------------------------------------
       Center         ----  Spin Dipole Couplings  ----
                      3XX-RR        3YY-RR        3ZZ-RR
 --------------------------------------------------------
     1   Atom       -0.015623     -0.008287      0.023910
     2   Atom       -0.002890     -0.002704      0.005594
     3   Atom       -0.002855      0.004006     -0.001150
     4   Atom       -0.003520      0.000938      0.002582
     5   Atom       -0.006551      0.015686     -0.009135
     6   Atom       -0.002375      0.005398     -0.003024
     7   Atom       -0.005408      0.004613      0.000795
     8   Atom       -0.005049      0.011716     -0.006667
     9   Atom        0.007084     -0.002138     -0.004946
    10   Atom        0.004708     -0.001946     -0.002762
    11   Atom        0.002449     -0.000148     -0.002301
    12   Atom        0.007205     -0.004092     -0.003113
    13   Atom        0.004112     -0.002817     -0.001295
    14   Atom        0.007085     -0.002139     -0.004946
    15   Atom        0.004709     -0.001947     -0.002762
    16   Atom        0.002449     -0.000149     -0.002301
    17   Atom       -0.002316      0.012218     -0.009902
    18   Atom       -0.015623     -0.008287      0.023910
    19   Atom       -0.002890     -0.002705      0.005594
    20   Atom       -0.003520      0.000938      0.002582
    21   Atom       -0.002855      0.004005     -0.001150
    22   Atom       -0.006552      0.015687     -0.009135
    23   Atom       -0.002374      0.005398     -0.003024
    24   Atom       -0.005049      0.011716     -0.006667
    25   Atom       -0.005408      0.004613      0.000795
    26   Atom       -0.002318      0.012220     -0.009902
    27   Atom       -0.594521     -0.622698      1.217220
    28   Atom       -1.126947     -1.076735      2.203682
    29   Atom        0.003630     -0.001859     -0.001771
    30   Atom        0.002396     -0.001297     -0.001099
 --------------------------------------------------------
                        XY            XZ            YZ
 --------------------------------------------------------
     1   Atom       -0.003659      0.012073     -0.025157
     2   Atom        0.001231     -0.005385     -0.002652
     3   Atom        0.003441     -0.000550     -0.003485
     4   Atom        0.001295      0.000036     -0.010425
     5   Atom       -0.003729     -0.002658      0.009566
     6   Atom        0.002348      0.000192      0.001296
     7   Atom        0.002062      0.001649      0.008190
     8   Atom       -0.002295     -0.000151      0.003060
     9   Atom        0.006362     -0.001278      0.000037
    10   Atom        0.004740      0.003728      0.001609
    11   Atom        0.003597     -0.000402     -0.000365
    12   Atom        0.000000     -0.001517      0.000000
    13   Atom        0.000000     -0.003417      0.000000
    14   Atom       -0.006362     -0.001278     -0.000037
    15   Atom       -0.004740      0.003728     -0.001609
    16   Atom       -0.003597     -0.000402      0.000365
    17   Atom       -0.014663     -0.005193      0.009866
    18   Atom        0.003658      0.012072      0.025157
    19   Atom       -0.001231     -0.005385      0.002651
    20   Atom       -0.001295      0.000035      0.010425
    21   Atom       -0.003442     -0.000550      0.003485
    22   Atom        0.003728     -0.002658     -0.009566
    23   Atom       -0.002349      0.000192     -0.001296
    24   Atom        0.002294     -0.000151     -0.003060
    25   Atom       -0.002063      0.001650     -0.008189
    26   Atom        0.014662     -0.005192     -0.009866
    27   Atom        0.000001      0.164015      0.000004
    28   Atom       -0.000002      0.098173      0.000003
    29   Atom        0.000000     -0.000407      0.000000
    30   Atom        0.000000      0.000550      0.000000
 --------------------------------------------------------


 ---------------------------------------------------------------------------------
              Anisotropic Spin Dipole Couplings in Principal Axis System
 ---------------------------------------------------------------------------------

       Atom             a.u.   MegaHertz   Gauss  10(-4) cm-1        Axes

              Baa    -0.0233    -3.132    -1.117    -1.045 -0.4425  0.7398  0.5069
     1 C(13)  Bbb    -0.0171    -2.290    -0.817    -0.764  0.8705  0.4902  0.0445
              Bcc     0.0404     5.422     1.935     1.809  0.2156 -0.4610  0.8608
 
              Baa    -0.0055    -2.937    -1.048    -0.980  0.8973  0.0231  0.4409
     2 H(1)   Bbb    -0.0034    -1.834    -0.654    -0.612 -0.1275  0.9696  0.2087
              Bcc     0.0089     4.771     1.702     1.591 -0.4227 -0.2434  0.8730
 
              Baa    -0.0046    -2.448    -0.873    -0.816  0.8165 -0.4655 -0.3414
     3 H(1)   Bbb    -0.0023    -1.237    -0.441    -0.413  0.4769  0.2107  0.8533
              Bcc     0.0069     3.685     1.315     1.229  0.3253  0.8596 -0.3941
 
              Baa    -0.0089    -4.736    -1.690    -1.580 -0.1802  0.7273  0.6623
     4 H(1)   Bbb    -0.0034    -1.808    -0.645    -0.603  0.9821  0.0960  0.1618
              Bcc     0.0123     6.543     2.335     2.183 -0.0541 -0.6796  0.7316
 
              Baa    -0.0127    -1.705    -0.608    -0.569  0.2304 -0.2834  0.9309
     5 C(13)  Bbb    -0.0070    -0.936    -0.334    -0.312  0.9590  0.2286 -0.1677
              Bcc     0.0197     2.641     0.942     0.881 -0.1653  0.9314  0.3244
 
              Baa    -0.0033    -1.761    -0.629    -0.588  0.4586 -0.2508  0.8526
     6 H(1)   Bbb    -0.0029    -1.565    -0.559    -0.522  0.8487 -0.1609 -0.5038
              Bcc     0.0062     3.327     1.187     1.110  0.2635  0.9546  0.1391
 
              Baa    -0.0058    -3.106    -1.108    -1.036  0.9844 -0.0666 -0.1630
     7 H(1)   Bbb    -0.0057    -3.044    -1.086    -1.015  0.0852 -0.6298  0.7721
              Bcc     0.0115     6.149     2.194     2.051  0.1541  0.7739  0.6143
 
              Baa    -0.0072    -3.836    -1.369    -1.279 -0.1159 -0.1724  0.9782
     8 H(1)   Bbb    -0.0053    -2.839    -1.013    -0.947  0.9848  0.1083  0.1358
              Bcc     0.0125     6.675     2.382     2.227 -0.1293  0.9791  0.1572
 
              Baa    -0.0058    -0.784    -0.280    -0.262 -0.4005  0.6936 -0.5988
     9 C(13)  Bbb    -0.0046    -0.613    -0.219    -0.204 -0.2193  0.5619  0.7976
              Bcc     0.0104     1.397     0.499     0.466  0.8897  0.4508 -0.0730
 
              Baa    -0.0046    -2.455    -0.876    -0.819 -0.5435  0.6446  0.5376
    10 H(1)   Bbb    -0.0040    -2.141    -0.764    -0.714  0.0137 -0.6336  0.7736
              Bcc     0.0086     4.596     1.640     1.533  0.8393  0.4278  0.3355
 
              Baa    -0.0027    -1.434    -0.512    -0.478 -0.5531  0.8110  0.1906
    11 H(1)   Bbb    -0.0023    -1.242    -0.443    -0.414  0.1689 -0.1149  0.9789
              Bcc     0.0050     2.675     0.955     0.892  0.8158  0.5736 -0.0734
 
              Baa    -0.0041    -0.549    -0.196    -0.183  0.0000  1.0000  0.0000
    12 C(13)  Bbb    -0.0033    -0.447    -0.160    -0.149  0.1425  0.0000  0.9898
              Bcc     0.0074     0.996     0.355     0.332  0.9898  0.0000 -0.1425
 
              Baa    -0.0029    -1.573    -0.561    -0.525  0.4356  0.0000  0.9001
    13 H(1)   Bbb    -0.0028    -1.503    -0.536    -0.501  0.0000  1.0000  0.0000
              Bcc     0.0058     3.076     1.098     1.026  0.9001  0.0000 -0.4356
 
              Baa    -0.0058    -0.784    -0.280    -0.262  0.4005  0.6936  0.5987
    14 C(13)  Bbb    -0.0046    -0.613    -0.219    -0.204 -0.2193 -0.5619  0.7976
              Bcc     0.0104     1.397     0.499     0.466  0.8897 -0.4507 -0.0730
 
              Baa    -0.0046    -2.455    -0.876    -0.819  0.5435  0.6447 -0.5376
    15 H(1)   Bbb    -0.0040    -2.141    -0.764    -0.714  0.0137  0.6336  0.7736
              Bcc     0.0086     4.596     1.640     1.533  0.8393 -0.4278  0.3355
 
              Baa    -0.0027    -1.434    -0.512    -0.478  0.5531  0.8110 -0.1906
    16 H(1)   Bbb    -0.0023    -1.242    -0.443    -0.414  0.1689  0.1149  0.9789
              Bcc     0.0050     2.676     0.955     0.892  0.8159 -0.5736 -0.0734
 
              Baa    -0.0137    -1.839    -0.656    -0.613 -0.1135 -0.4088  0.9055
    17 C(13)  Bbb    -0.0112    -1.499    -0.535    -0.500  0.8606  0.4150  0.2952
              Bcc     0.0249     3.338     1.191     1.113 -0.4965  0.8128  0.3047
 
              Baa    -0.0233    -3.132    -1.117    -1.045  0.4424  0.7398 -0.5069
    18 C(13)  Bbb    -0.0171    -2.290    -0.817    -0.764  0.8705 -0.4901  0.0445
              Bcc     0.0404     5.422     1.935     1.809  0.2156  0.4610  0.8608
 
              Baa    -0.0055    -2.937    -1.048    -0.980  0.8973 -0.0231  0.4409
    19 H(1)   Bbb    -0.0034    -1.834    -0.654    -0.612  0.1275  0.9696 -0.2087
              Bcc     0.0089     4.771     1.702     1.591 -0.4227  0.2434  0.8730
 
              Baa    -0.0089    -4.736    -1.690    -1.580  0.1802  0.7273 -0.6623
    20 H(1)   Bbb    -0.0034    -1.808    -0.645    -0.603  0.9821 -0.0960  0.1618
              Bcc     0.0123     6.543     2.335     2.183 -0.0541  0.6796  0.7316
 
              Baa    -0.0046    -2.448    -0.873    -0.816  0.8165  0.4655 -0.3414
    21 H(1)   Bbb    -0.0023    -1.237    -0.441    -0.413  0.4769 -0.2107  0.8533
              Bcc     0.0069     3.685     1.315     1.229 -0.3253  0.8596  0.3941
 
              Baa    -0.0127    -1.705    -0.608    -0.569  0.2304  0.2834  0.9309
    22 C(13)  Bbb    -0.0070    -0.936    -0.334    -0.312  0.9590 -0.2286 -0.1677
              Bcc     0.0197     2.641     0.942     0.881  0.1652  0.9314 -0.3244
 
              Baa    -0.0033    -1.761    -0.629    -0.588  0.4585  0.2508  0.8526
    23 H(1)   Bbb    -0.0029    -1.565    -0.559    -0.522  0.8487  0.1609 -0.5038
              Bcc     0.0062     3.327     1.187     1.110 -0.2635  0.9546 -0.1391
 
              Baa    -0.0072    -3.836    -1.369    -1.279 -0.1159  0.1724  0.9782
    24 H(1)   Bbb    -0.0053    -2.839    -1.013    -0.947  0.9848 -0.1082  0.1358
              Bcc     0.0125     6.675     2.382     2.227  0.1293  0.9791 -0.1572
 
              Baa    -0.0058    -3.106    -1.108    -1.036  0.9844  0.0667 -0.1629
    25 H(1)   Bbb    -0.0057    -3.044    -1.086    -1.015  0.0851  0.6298  0.7721
              Bcc     0.0115     6.149     2.194     2.051 -0.1541  0.7739 -0.6143
 
              Baa    -0.0137    -1.839    -0.656    -0.613 -0.1135  0.4088  0.9055
    26 C(13)  Bbb    -0.0112    -1.499    -0.535    -0.500  0.8606 -0.4150  0.2952
              Bcc     0.0249     3.338     1.191     1.113  0.4965  0.8128 -0.3047
 
              Baa    -0.6227   -24.016    -8.570    -8.011  0.0000  1.0000  0.0000
    27 N(14)  Bbb    -0.6092   -23.497    -8.384    -7.838  0.9960  0.0000 -0.0894
              Bcc     1.2319    47.513    16.954    15.849  0.0894  0.0000  0.9960
 
              Baa    -1.1298    81.754    29.172    27.270  0.9996  0.0000 -0.0294
    28 O(17)  Bbb    -1.0767    77.912    27.801    25.989  0.0000  1.0000  0.0000
              Bcc     2.2066  -159.666   -56.973   -53.259  0.0294  0.0000  0.9996
 
              Baa    -0.0019     0.135     0.048     0.045  0.0000  1.0000  0.0002
    29 O(17)  Bbb    -0.0018     0.130     0.047     0.043  0.0748 -0.0002  0.9972
              Bcc     0.0037    -0.265    -0.095    -0.088  0.9972  0.0000 -0.0748
 
              Baa    -0.0013    -0.692    -0.247    -0.231  0.0000  1.0000  0.0000
    30 H(1)   Bbb    -0.0012    -0.631    -0.225    -0.211 -0.1518  0.0000  0.9884
              Bcc     0.0025     1.323     0.472     0.441  0.9884  0.0000  0.1518
 

 ---------------------------------------------------------------------------------

 Calculating spin-rotation constants.
 Leave Link  601 at Fri Mar  5 12:06:01 2010, MaxMem=  536870912 cpu:     148.2
 (Enter /home/system/software/orac/g03_E.01/g03/l9999.exe)
 1\1\GINC-ORAC\SP\UB3LYP\EPR-II\C9H18N1O2(2)\KUPROV\05-Mar-2010\0\\#p n
 mr=giao ub3lyp/EPR-II guess=mix geom=checkpoint scf=tight integral=(gr
 id=ultrafine)\\Nitroxide optimization.\\0,2\C,0,-1.5562443586,-0.73215
 92078,-1.6732453241\H,0,-2.2289962026,-0.0676181271,-1.1254481784\H,0,
 -1.6776965281,-0.5267023994,-2.7413835722\H,0,-1.8558429944,-1.7651624
 69,-1.4809101316\C,0,0.8145034269,-1.3995396658,-2.1905015324\H,0,0.73
 68076678,-1.0316022219,-3.2182117906\H,0,1.8617364644,-1.3449204205,-1
 .8786008963\H,0,0.5028578038,-2.4442811238,-2.161444082\C,0,0.35499623
 73,0.9407171929,-1.38022971\H,0,1.4531840119,0.9941943436,-1.385415618
 3\H,0,0.0066740068,1.3385041929,-2.3391052159\C,0,-0.1539788528,1.8237
 243284,-0.2370884535\H,0,-1.247986201,1.8521416823,-0.2375428397\C,0,0
 .3624013642,1.2654816502,1.0922888818\H,0,1.4605595421,1.3176330847,1.
 0770223473\H,0,0.0194244218,1.8976640154,1.917951081\C,0,-0.06532524,-
 0.1925441224,1.3699770059\C,0,-1.5457855545,-0.2735053159,1.8186204443
 \H,0,-2.2222669022,0.2275435268,1.12176001\H,0,-1.8457087317,-1.320906
 9104,1.9013481074\H,0,-1.6611061703,0.2009201876,2.7981632128\C,0,0.82
 84829475,-0.7865035832,2.4767067268\H,0,0.7565543102,-0.1655898228,3.3
 749802067\H,0,0.5174805152,-1.8030707427,2.720264691\H,0,1.8738188318,
 -0.8150914816,2.1551199044\C,0,-0.0732309048,-0.5392318891,-1.26945387
 67\N,0,0.1306619554,-1.0336565203,0.1373736473\O,0,0.0198412091,-2.303
 1676302,0.3044553947\O,0,0.2260721461,3.1916931181,-0.4179121505\H,0,1
 .1906993187,3.2338326011,-0.4262630892\\Version=IA64L-G03RevE.01\State
 =2-A\HF=-559.0555454\S2=0.754237\S2-1=0.\S2A=0.750012\RMSD=9.976e-09\T
 hermal=0.\Dipole=0.2453998,0.5580528,-0.0739891\PG=C01 [X(C9H18N1O2)]\
 \@


 THE RARE EARTHS PERPLEX US IN OUR RESEARCHES,
 BAFFLE US IN OUR SPECULATIONS, AND HAUNT US IN OUR
 VERY DREAMS.  THEY STRETCH LIKE AN UNKNOWN BEFORE US,
 MOCKING, MYSTIFYING, AND MURMURING STRANGE REVELATIONS
 AND POSSIBILITIES.  -- SIR WILLIAM CROOKE, 1832-1919
 Job cpu time:  0 days  1 hours 20 minutes 21.6 seconds.
 File lengths (MBytes):  RWF=    119 Int=      0 D2E=      0 Chk=     18 Scr=      1
 Normal termination of Gaussian 03 at Fri Mar  5 12:06:01 2010.
