 Entering Gaussian System, Link 0=g03
 Input=pfp_radical.com
 Output=pfp_radical.log
 Initial command:
 /system/software/orac/g03_E.01/g03/l1.exe /scratch/pbs.90240.orac/Gau-90465.inp -scrdir=/scratch/pbs.90240.orac/
 Entering Link 1 = /system/software/orac/g03_E.01/g03/l1.exe PID=     90466.
  
 Copyright (c) 1988,1990,1992,1993,1995,1998,2003,2004,2007, Gaussian, Inc.
                  All Rights Reserved.
  
 This is the Gaussian(R) 03 program.  It is based on the
 the Gaussian(R) 98 system (copyright 1998, Gaussian, Inc.),
 the Gaussian(R) 94 system (copyright 1995, Gaussian, Inc.),
 the Gaussian 92(TM) system (copyright 1992, Gaussian, Inc.),
 the Gaussian 90(TM) system (copyright 1990, Gaussian, Inc.),
 the Gaussian 88(TM) system (copyright 1988, Gaussian, Inc.),
 the Gaussian 86(TM) system (copyright 1986, Carnegie Mellon
 University), and the Gaussian 82(TM) system (copyright 1983,
 Carnegie Mellon University). Gaussian is a federally registered
 trademark of Gaussian, Inc.
  
 This software contains proprietary and confidential information,
 including trade secrets, belonging to Gaussian, Inc.
  
 This software is provided under written license and may be
 used, copied, transmitted, or stored only in accord with that
 written license.
  
 The following legend is applicable only to US Government
 contracts under FAR:
  
                    RESTRICTED RIGHTS LEGEND
  
 Use, reproduction and disclosure by the US Government is
 subject to restrictions as set forth in subparagraphs (a)
 and (c) of the Commercial Computer Software - Restricted
 Rights clause in FAR 52.227-19.
  
 Gaussian, Inc.
 340 Quinnipiac St., Bldg. 40, Wallingford CT 06492
  
  
 ---------------------------------------------------------------
 Warning -- This program may not be used in any manner that
 competes with the business of Gaussian, Inc. or will provide
 assistance to any competitor of Gaussian, Inc.  The licensee
 of this program is prohibited from giving any competitor of
 Gaussian, Inc. access to this program.  By using this program,
 the user acknowledges that Gaussian, Inc. is engaged in the
 business of creating and licensing software in the field of
 computational chemistry and represents and warrants to the
 licensee that it is not a competitor of Gaussian, Inc. and that
 it will not use this program in any manner prohibited above.
 ---------------------------------------------------------------
  

 Cite this work as:
 Gaussian 03, Revision E.01,
 M. J. Frisch, G. W. Trucks, H. B. Schlegel, G. E. Scuseria, 
 M. A. Robb, J. R. Cheeseman, J. A. Montgomery, Jr., T. Vreven, 
 K. N. Kudin, J. C. Burant, J. M. Millam, S. S. Iyengar, J. Tomasi, 
 V. Barone, B. Mennucci, M. Cossi, G. Scalmani, N. Rega, 
 G. A. Petersson, H. Nakatsuji, M. Hada, M. Ehara, K. Toyota, 
 R. Fukuda, J. Hasegawa, M. Ishida, T. Nakajima, Y. Honda, O. Kitao, 
 H. Nakai, M. Klene, X. Li, J. E. Knox, H. P. Hratchian, J. B. Cross, 
 V. Bakken, C. Adamo, J. Jaramillo, R. Gomperts, R. E. Stratmann, 
 O. Yazyev, A. J. Austin, R. Cammi, C. Pomelli, J. W. Ochterski, 
 P. Y. Ayala, K. Morokuma, G. A. Voth, P. Salvador, J. J. Dannenberg, 
 V. G. Zakrzewski, S. Dapprich, A. D. Daniels, M. C. Strain, 
 O. Farkas, D. K. Malick, A. D. Rabuck, K. Raghavachari, 
 J. B. Foresman, J. V. Ortiz, Q. Cui, A. G. Baboul, S. Clifford, 
 J. Cioslowski, B. B. Stefanov, G. Liu, A. Liashenko, P. Piskorz, 
 I. Komaromi, R. L. Martin, D. J. Fox, T. Keith, M. A. Al-Laham, 
 C. Y. Peng, A. Nanayakkara, M. Challacombe, P. M. W. Gill, 
 B. Johnson, W. Chen, M. W. Wong, C. Gonzalez, and J. A. Pople, 
 Gaussian, Inc., Wallingford CT, 2004.
 
 ******************************************
 Gaussian 03:  IA64L-G03RevE.01 11-Sep-2007
                12-Mar-2011 
 ******************************************
 %Mem=32GB
 %NProcShared=32
 Will use up to   32 processors via shared memory.
 %Chk=pfp_radical.chk
 -------------------------------------------------------------
 #p opt=tight b3lyp/EPR-II scf=tight integral=(grid=ultrafine)
 -------------------------------------------------------------
 1/7=10,14=-1,18=20,26=3,38=1/1,3;
 2/9=110,17=6,18=5,40=1/2;
 3/5=21,11=2,16=1,25=1,30=1,74=-5,75=5/1,2,3;
 4//1;
 5/5=2,32=2,38=5/2;
 6/7=2,8=2,9=2,10=2,28=1/1;
 7//1,2,3,16;
 1/14=-1,18=20/3(3);
 2/9=110/2;
 6/7=2,8=2,9=2,10=2,19=2,28=1/1;
 99//99;
 2/9=110/2;
 3/5=21,11=2,16=1,25=1,30=1,74=-5,75=5/1,2,3;
 4/5=5,16=3/1;
 5/5=2,32=2,38=5/2;
 7//1,2,3,16;
 1/14=-1,18=20/3(-5);
 2/9=110/2;
 6/7=2,8=2,9=2,10=2,19=2,28=1/1;
 99/9=1/99;
 Leave Link    1 at Sat Mar 12 15:10:14 2011, MaxMem= 4294967296 cpu:       5.7
 (Enter /system/software/orac/g03_E.01/g03/l101.exe)
 -------------------------------
 Perfluoropyrene cation radical.
 -------------------------------
 Symbolic Z-matrix:
 Charge =  1 Multiplicity = 2
 C                    -4.35865  -4.52119   0.00177 
 C                    -2.96581  -4.52119   0.00177 
 C                    -2.25734  -3.31271   0.00177 
 C                    -2.97446  -2.0881    0.00181 
 C                    -4.39359  -2.09744   0.00184 
 C                    -5.0704   -3.32385   0.00174 
 C                    -0.81829  -3.27063   0.00184 
 C                    -2.26567  -0.84229   0.00203 
 C                    -0.84658  -0.83297   0.00206 
 C                    -0.14746  -2.09149   0.00193 
 C                    -0.16974   0.39352   0.00222 
 C                    -0.88146   1.59079   0.00237 
 C                    -2.27438   1.59079   0.0024 
 C                    -2.9828    0.38235   0.00219 
 C                    -4.42189   0.34022   0.00198 
 C                    -5.09271  -0.83889   0.00183 
 F                    -5.08198   1.51784   0.00208 
 F                    -6.44227  -0.87329   0.00119 
 F                    -6.42031  -3.3396    0.00127 
 F                    -5.02627  -5.69456   0.00145 
 F                    -2.28966  -5.68966   0.00166 
 F                    -0.15836  -4.44833   0.00148 
 F                     1.2021   -2.05722   0.00158 
 F                     1.18017   0.40931   0.00218 
 F                    -0.21397   2.76423   0.00234 
 F                    -2.95042   2.75932   0.00242 
 
                    Isotopes and Nuclear Properties:
 (Nuclear quadrupole moments (NQMom) in fm**2, nuclear magnetic moments (NMagM)
  in nuclear magnetons)

  Atom         1           2           3           4           5           6           7           8           9          10
 IAtWgt=          12          12          12          12          12          12          12          12          12          12
 AtmWgt=  12.0000000  12.0000000  12.0000000  12.0000000  12.0000000  12.0000000  12.0000000  12.0000000  12.0000000  12.0000000
 NucSpn=           0           0           0           0           0           0           0           0           0           0
 AtZEff=   0.0000000   0.0000000   0.0000000   0.0000000   0.0000000   0.0000000   0.0000000   0.0000000   0.0000000   0.0000000
 NQMom=    0.0000000   0.0000000   0.0000000   0.0000000   0.0000000   0.0000000   0.0000000   0.0000000   0.0000000   0.0000000
 NMagM=    0.0000000   0.0000000   0.0000000   0.0000000   0.0000000   0.0000000   0.0000000   0.0000000   0.0000000   0.0000000

  Atom        11          12          13          14          15          16          17          18          19          20
 IAtWgt=          12          12          12          12          12          12          19          19          19          19
 AtmWgt=  12.0000000  12.0000000  12.0000000  12.0000000  12.0000000  12.0000000  18.9984032  18.9984032  18.9984032  18.9984032
 NucSpn=           0           0           0           0           0           0           1           1           1           1
 AtZEff=   0.0000000   0.0000000   0.0000000   0.0000000   0.0000000   0.0000000   0.0000000   0.0000000   0.0000000   0.0000000
 NQMom=    0.0000000   0.0000000   0.0000000   0.0000000   0.0000000   0.0000000   0.0000000   0.0000000   0.0000000   0.0000000
 NMagM=    0.0000000   0.0000000   0.0000000   0.0000000   0.0000000   0.0000000   2.6288670   2.6288670   2.6288670   2.6288670

  Atom        21          22          23          24          25          26
 IAtWgt=          19          19          19          19          19          19
 AtmWgt=  18.9984032  18.9984032  18.9984032  18.9984032  18.9984032  18.9984032
 NucSpn=           1           1           1           1           1           1
 AtZEff=   0.0000000   0.0000000   0.0000000   0.0000000   0.0000000   0.0000000
 NQMom=    0.0000000   0.0000000   0.0000000   0.0000000   0.0000000   0.0000000
 NMagM=    2.6288670   2.6288670   2.6288670   2.6288670   2.6288670   2.6288670
 Leave Link  101 at Sat Mar 12 15:10:14 2011, MaxMem= 4294967296 cpu:       1.5
 (Enter /system/software/orac/g03_E.01/g03/l103.exe)

 GradGradGradGradGradGradGradGradGradGradGradGradGradGradGradGradGradGrad
 Berny optimization.
 Initialization pass.
                           ----------------------------
                           !    Initial Parameters    !
                           ! (Angstroms and Degrees)  !
 --------------------------                            --------------------------
 ! Name  Definition              Value          Derivative Info.                !
 --------------------------------------------------------------------------------
 ! R1    R(1,2)                  1.3928         estimate D2E/DX2                !
 ! R2    R(1,6)                  1.3929         estimate D2E/DX2                !
 ! R3    R(1,20)                 1.35           estimate D2E/DX2                !
 ! R4    R(2,3)                  1.4008         estimate D2E/DX2                !
 ! R5    R(2,21)                 1.35           estimate D2E/DX2                !
 ! R6    R(3,4)                  1.4191         estimate D2E/DX2                !
 ! R7    R(3,7)                  1.4397         estimate D2E/DX2                !
 ! R8    R(4,5)                  1.4192         estimate D2E/DX2                !
 ! R9    R(4,8)                  1.4333         estimate D2E/DX2                !
 ! R10   R(5,6)                  1.4008         estimate D2E/DX2                !
 ! R11   R(5,16)                 1.4397         estimate D2E/DX2                !
 ! R12   R(6,19)                 1.35           estimate D2E/DX2                !
 ! R13   R(7,10)                 1.3566         estimate D2E/DX2                !
 ! R14   R(7,22)                 1.35           estimate D2E/DX2                !
 ! R15   R(8,9)                  1.4191         estimate D2E/DX2                !
 ! R16   R(8,14)                 1.4192         estimate D2E/DX2                !
 ! R17   R(9,10)                 1.4397         estimate D2E/DX2                !
 ! R18   R(9,11)                 1.4009         estimate D2E/DX2                !
 ! R19   R(10,23)                1.35           estimate D2E/DX2                !
 ! R20   R(11,12)                1.3928         estimate D2E/DX2                !
 ! R21   R(11,24)                1.35           estimate D2E/DX2                !
 ! R22   R(12,13)                1.3929         estimate D2E/DX2                !
 ! R23   R(12,25)                1.35           estimate D2E/DX2                !
 ! R24   R(13,14)                1.4008         estimate D2E/DX2                !
 ! R25   R(13,26)                1.35           estimate D2E/DX2                !
 ! R26   R(14,15)                1.4397         estimate D2E/DX2                !
 ! R27   R(15,16)                1.3566         estimate D2E/DX2                !
 ! R28   R(15,17)                1.35           estimate D2E/DX2                !
 ! R29   R(16,18)                1.35           estimate D2E/DX2                !
 ! A1    A(2,1,6)              120.7291         estimate D2E/DX2                !
 ! A2    A(2,1,20)             119.6389         estimate D2E/DX2                !
 ! A3    A(6,1,20)             119.6321         estimate D2E/DX2                !
 ! A4    A(1,2,3)              120.3809         estimate D2E/DX2                !
 ! A5    A(1,2,21)             120.0564         estimate D2E/DX2                !
 ! A6    A(3,2,21)             119.5627         estimate D2E/DX2                !
 ! A7    A(2,3,4)              119.2663         estimate D2E/DX2                !
 ! A8    A(2,3,7)              122.0559         estimate D2E/DX2                !
 ! A9    A(4,3,7)              118.6779         estimate D2E/DX2                !
 ! A10   A(3,4,5)              119.9757         estimate D2E/DX2                !
 ! A11   A(3,4,8)              120.0099         estimate D2E/DX2                !
 ! A12   A(5,4,8)              120.0143         estimate D2E/DX2                !
 ! A13   A(4,5,6)              119.2698         estimate D2E/DX2                !
 ! A14   A(4,5,16)             118.6749         estimate D2E/DX2                !
 ! A15   A(6,5,16)             122.0553         estimate D2E/DX2                !
 ! A16   A(1,6,5)              120.3783         estimate D2E/DX2                !
 ! A17   A(1,6,19)             120.0606         estimate D2E/DX2                !
 ! A18   A(5,6,19)             119.5611         estimate D2E/DX2                !
 ! A19   A(3,7,10)             121.3111         estimate D2E/DX2                !
 ! A20   A(3,7,22)             117.5894         estimate D2E/DX2                !
 ! A21   A(10,7,22)            121.0995         estimate D2E/DX2                !
 ! A22   A(4,8,9)              120.0135         estimate D2E/DX2                !
 ! A23   A(4,8,14)             120.0102         estimate D2E/DX2                !
 ! A24   A(9,8,14)             119.9763         estimate D2E/DX2                !
 ! A25   A(8,9,10)             118.6763         estimate D2E/DX2                !
 ! A26   A(8,9,11)             119.2685         estimate D2E/DX2                !
 ! A27   A(10,9,11)            122.0552         estimate D2E/DX2                !
 ! A28   A(7,10,9)             121.3112         estimate D2E/DX2                !
 ! A29   A(7,10,23)            121.0908         estimate D2E/DX2                !
 ! A30   A(9,10,23)            117.598          estimate D2E/DX2                !
 ! A31   A(9,11,12)            120.3784         estimate D2E/DX2                !
 ! A32   A(9,11,24)            119.5623         estimate D2E/DX2                !
 ! A33   A(12,11,24)           120.0593         estimate D2E/DX2                !
 ! A34   A(11,12,13)           120.7295         estimate D2E/DX2                !
 ! A35   A(11,12,25)           119.6379         estimate D2E/DX2                !
 ! A36   A(13,12,25)           119.6326         estimate D2E/DX2                !
 ! A37   A(12,13,14)           120.38           estimate D2E/DX2                !
 ! A38   A(12,13,26)           120.051          estimate D2E/DX2                !
 ! A39   A(14,13,26)           119.569          estimate D2E/DX2                !
 ! A40   A(8,14,13)            119.2675         estimate D2E/DX2                !
 ! A41   A(8,14,15)            118.6757         estimate D2E/DX2                !
 ! A42   A(13,14,15)           122.0569         estimate D2E/DX2                !
 ! A43   A(14,15,16)           121.3133         estimate D2E/DX2                !
 ! A44   A(14,15,17)           117.595          estimate D2E/DX2                !
 ! A45   A(16,15,17)           121.0917         estimate D2E/DX2                !
 ! A46   A(5,16,15)            121.3115         estimate D2E/DX2                !
 ! A47   A(5,16,18)            117.5919         estimate D2E/DX2                !
 ! A48   A(15,16,18)           121.0966         estimate D2E/DX2                !
 ! D1    D(6,1,2,3)              0.0014         estimate D2E/DX2                !
 ! D2    D(6,1,2,21)          -179.9932         estimate D2E/DX2                !
 ! D3    D(20,1,2,3)           179.9844         estimate D2E/DX2                !
 ! D4    D(20,1,2,21)           -0.0102         estimate D2E/DX2                !
 ! D5    D(2,1,6,5)             -0.0062         estimate D2E/DX2                !
 ! D6    D(2,1,6,19)           179.9769         estimate D2E/DX2                !
 ! D7    D(20,1,6,5)          -179.9891         estimate D2E/DX2                !
 ! D8    D(20,1,6,19)           -0.006          estimate D2E/DX2                !
 ! D9    D(1,2,3,4)              0.0019         estimate D2E/DX2                !
 ! D10   D(1,2,3,7)            179.9967         estimate D2E/DX2                !
 ! D11   D(21,2,3,4)           179.9965         estimate D2E/DX2                !
 ! D12   D(21,2,3,7)            -0.0087         estimate D2E/DX2                !
 ! D13   D(2,3,4,5)             -0.0004         estimate D2E/DX2                !
 ! D14   D(2,3,4,8)            179.9899         estimate D2E/DX2                !
 ! D15   D(7,3,4,5)           -179.9955         estimate D2E/DX2                !
 ! D16   D(7,3,4,8)             -0.0052         estimate D2E/DX2                !
 ! D17   D(2,3,7,10)          -179.9955         estimate D2E/DX2                !
 ! D18   D(2,3,7,22)             0.0204         estimate D2E/DX2                !
 ! D19   D(4,3,7,10)            -0.0006         estimate D2E/DX2                !
 ! D20   D(4,3,7,22)          -179.9847         estimate D2E/DX2                !
 ! D21   D(3,4,5,6)             -0.0042         estimate D2E/DX2                !
 ! D22   D(3,4,5,16)          -179.9977         estimate D2E/DX2                !
 ! D23   D(8,4,5,6)           -179.9945         estimate D2E/DX2                !
 ! D24   D(8,4,5,16)             0.012          estimate D2E/DX2                !
 ! D25   D(3,4,8,9)              0.0069         estimate D2E/DX2                !
 ! D26   D(3,4,8,14)          -179.9944         estimate D2E/DX2                !
 ! D27   D(5,4,8,9)            179.9972         estimate D2E/DX2                !
 ! D28   D(5,4,8,14)            -0.0041         estimate D2E/DX2                !
 ! D29   D(4,5,6,1)              0.0075         estimate D2E/DX2                !
 ! D30   D(4,5,6,19)          -179.9757         estimate D2E/DX2                !
 ! D31   D(16,5,6,1)          -179.9992         estimate D2E/DX2                !
 ! D32   D(16,5,6,19)            0.0176         estimate D2E/DX2                !
 ! D33   D(4,5,16,15)           -0.0093         estimate D2E/DX2                !
 ! D34   D(4,5,16,18)          179.968          estimate D2E/DX2                !
 ! D35   D(6,5,16,15)          179.9974         estimate D2E/DX2                !
 ! D36   D(6,5,16,18)           -0.0254         estimate D2E/DX2                !
 ! D37   D(3,7,10,9)             0.0047         estimate D2E/DX2                !
 ! D38   D(3,7,10,23)         -179.9794         estimate D2E/DX2                !
 ! D39   D(22,7,10,9)          179.9882         estimate D2E/DX2                !
 ! D40   D(22,7,10,23)           0.0041         estimate D2E/DX2                !
 ! D41   D(4,8,9,10)            -0.0029         estimate D2E/DX2                !
 ! D42   D(4,8,9,11)           179.9974         estimate D2E/DX2                !
 ! D43   D(14,8,9,10)          179.9984         estimate D2E/DX2                !
 ! D44   D(14,8,9,11)           -0.0013         estimate D2E/DX2                !
 ! D45   D(4,8,14,13)         -179.9998         estimate D2E/DX2                !
 ! D46   D(4,8,14,15)           -0.0066         estimate D2E/DX2                !
 ! D47   D(9,8,14,13)           -0.0011         estimate D2E/DX2                !
 ! D48   D(9,8,14,15)          179.9921         estimate D2E/DX2                !
 ! D49   D(8,9,10,7)            -0.0029         estimate D2E/DX2                !
 ! D50   D(8,9,10,23)          179.9817         estimate D2E/DX2                !
 ! D51   D(11,9,10,7)          179.9968         estimate D2E/DX2                !
 ! D52   D(11,9,10,23)          -0.0185         estimate D2E/DX2                !
 ! D53   D(8,9,11,12)            0.001          estimate D2E/DX2                !
 ! D54   D(8,9,11,24)         -179.9966         estimate D2E/DX2                !
 ! D55   D(10,9,11,12)        -179.9987         estimate D2E/DX2                !
 ! D56   D(10,9,11,24)           0.0037         estimate D2E/DX2                !
 ! D57   D(9,11,12,13)           0.0017         estimate D2E/DX2                !
 ! D58   D(9,11,12,25)        -179.9911         estimate D2E/DX2                !
 ! D59   D(24,11,12,13)        179.9994         estimate D2E/DX2                !
 ! D60   D(24,11,12,25)          0.0066         estimate D2E/DX2                !
 ! D61   D(11,12,13,14)         -0.0042         estimate D2E/DX2                !
 ! D62   D(11,12,13,26)       -179.9938         estimate D2E/DX2                !
 ! D63   D(25,12,13,14)        179.9886         estimate D2E/DX2                !
 ! D64   D(25,12,13,26)         -0.001          estimate D2E/DX2                !
 ! D65   D(12,13,14,8)           0.0039         estimate D2E/DX2                !
 ! D66   D(12,13,14,15)       -179.9891         estimate D2E/DX2                !
 ! D67   D(26,13,14,8)         179.9935         estimate D2E/DX2                !
 ! D68   D(26,13,14,15)          0.0006         estimate D2E/DX2                !
 ! D69   D(8,14,15,16)           0.0096         estimate D2E/DX2                !
 ! D70   D(8,14,15,17)        -179.9972         estimate D2E/DX2                !
 ! D71   D(13,14,15,16)       -179.9974         estimate D2E/DX2                !
 ! D72   D(13,14,15,17)         -0.0043         estimate D2E/DX2                !
 ! D73   D(14,15,16,5)          -0.0016         estimate D2E/DX2                !
 ! D74   D(14,15,16,18)       -179.978          estimate D2E/DX2                !
 ! D75   D(17,15,16,5)        -179.9945         estimate D2E/DX2                !
 ! D76   D(17,15,16,18)          0.029          estimate D2E/DX2                !
 --------------------------------------------------------------------------------
 Trust Radius=3.00D-01 FncErr=1.00D-07 GrdErr=1.00D-06
 Number of steps in this run= 156 maximum allowed number of steps= 156.
 GradGradGradGradGradGradGradGradGradGradGradGradGradGradGradGradGradGrad

 Leave Link  103 at Sat Mar 12 15:10:15 2011, MaxMem= 4294967296 cpu:       0.9
 (Enter /system/software/orac/g03_E.01/g03/l202.exe)
                          Input orientation:                          
 ---------------------------------------------------------------------
 Center     Atomic     Atomic              Coordinates (Angstroms)
 Number     Number      Type              X           Y           Z
 ---------------------------------------------------------------------
    1          6             0       -4.358650   -4.521190    0.001770
    2          6             0       -2.965810   -4.521190    0.001770
    3          6             0       -2.257340   -3.312710    0.001770
    4          6             0       -2.974460   -2.088100    0.001810
    5          6             0       -4.393590   -2.097440    0.001840
    6          6             0       -5.070400   -3.323850    0.001740
    7          6             0       -0.818290   -3.270630    0.001840
    8          6             0       -2.265670   -0.842290    0.002030
    9          6             0       -0.846580   -0.832970    0.002060
   10          6             0       -0.147460   -2.091490    0.001930
   11          6             0       -0.169740    0.393520    0.002220
   12          6             0       -0.881460    1.590790    0.002370
   13          6             0       -2.274380    1.590790    0.002400
   14          6             0       -2.982800    0.382350    0.002190
   15          6             0       -4.421890    0.340220    0.001980
   16          6             0       -5.092710   -0.838890    0.001830
   17          9             0       -5.081980    1.517840    0.002080
   18          9             0       -6.442270   -0.873290    0.001190
   19          9             0       -6.420310   -3.339600    0.001270
   20          9             0       -5.026270   -5.694560    0.001450
   21          9             0       -2.289660   -5.689660    0.001660
   22          9             0       -0.158360   -4.448330    0.001480
   23          9             0        1.202100   -2.057220    0.001580
   24          9             0        1.180170    0.409310    0.002180
   25          9             0       -0.213970    2.764230    0.002340
   26          9             0       -2.950420    2.759320    0.002420
 ---------------------------------------------------------------------
                    Distance matrix (angstroms):
                    1          2          3          4          5
     1  C    0.000000
     2  C    1.392840   0.000000
     3  C    2.424031   1.400840   0.000000
     4  C    2.799269   2.433105   1.419130   0.000000
     5  C    2.424002   2.813027   2.457732   1.419161   0.000000
     6  C    1.392915   2.421347   2.813082   2.433114   1.400769
     7  C    3.754737   2.485104   1.439665   2.459156   3.762864
     8  C    4.232596   3.744930   2.470434   1.433327   2.470515
     9  C    5.092897   4.253716   2.852955   2.470471   3.765656
    10  C    4.861848   3.721094   2.437821   2.827002   4.246134
    11  C    6.457658   5.654413   4.253730   3.744982   4.903651
    12  C    7.031867   6.457617   5.092873   4.232597   5.092946
    13  C    6.457591   6.150965   4.903530   3.744909   4.253715
    14  C    5.092904   4.903569   3.765602   2.470464   2.853014
    15  C    4.861821   5.074788   4.246078   2.826976   2.437824
    16  C    3.754754   4.252415   3.762859   2.459168   1.439693
    17  F    6.082194   6.399067   5.595785   4.176655   3.680235
    18  F    4.201029   5.039142   4.844008   3.674435   2.386553
    19  F    2.376257   3.650990   4.163057   3.666079   2.377090
    20  F    1.350005   2.371137   3.652422   4.149274   3.652336
    21  F    2.376140   1.350000   2.377170   3.666086   4.163000
    22  F    4.200922   2.808395   2.386493   3.674385   4.843951
    23  F    6.082194   4.841758   3.680215   4.176674   5.595835
    24  F    7.415414   6.441970   5.066548   4.847474   6.111513
    25  F    8.381868   7.787809   6.411284   5.582599   6.411323
    26  F    7.415453   7.280526   6.111457   4.847480   5.066642
                    6          7          8          9         10
     6  C    0.000000
     7  C    4.252443   0.000000
     8  C    3.744950   2.826967   0.000000
     9  C    4.903584   2.437824   1.419121   0.000000
    10  C    5.074845   1.356608   2.459129   1.439667   0.000000
    11  C    6.151041   3.721104   2.433136   1.400853   2.485110
    12  C    6.457624   4.861830   2.799271   2.424011   3.754723
    13  C    5.654327   5.074801   2.433096   2.813046   4.252408
    14  C    4.253703   4.246100   1.419161   2.457730   3.762850
    15  C    3.721018   5.101389   2.459190   3.762873   4.917720
    16  C    2.485060   4.917726   2.827042   4.246134   5.101422
    17  F    4.841704   6.411591   3.674482   4.844060   6.113653
    18  F    2.808429   6.113623   4.176715   5.595835   6.411602
    19  F    1.350002   5.602445   4.847431   6.111437   6.395813
    20  F    2.371121   4.856185   5.582601   6.411308   6.065056
    21  F    3.650969   2.831366   4.847429   5.066549   4.187583
    22  F    5.039106   1.349994   4.176635   3.680282   2.356865
    23  F    6.399110   2.356765   3.674437   2.386604   1.349995
    24  F    7.280529   4.187577   3.666104   2.377178   2.831360
    25  F    7.787787   6.065042   4.149272   3.652402   4.856175
    26  F    6.441993   6.395801   3.666126   4.163015   5.602405
                   11         12         13         14         15
    11  C    0.000000
    12  C    1.392839   0.000000
    13  C    2.421356   1.392920   0.000000
    14  C    2.813082   2.424037   1.400781   0.000000
    15  C    4.252484   3.754806   2.485101   1.439707   0.000000
    16  C    5.074886   4.861890   3.721066   2.437857   1.356577
    17  F    5.039266   4.201153   2.808548   2.386607   1.350003
    18  F    6.399175   6.082294   4.841797   3.680294   2.356808
    19  F    7.280509   7.415363   6.441854   5.066497   4.187452
    20  F    7.787850   8.381872   7.787761   6.411287   6.064969
    21  F    6.441983   7.415388   7.280466   6.111444   6.395769
    22  F    4.841863   6.082257   6.399102   5.595796   6.411544
    23  F    2.808571   4.201095   5.039235   4.844057   6.113672
    24  F    1.350002   2.376176   3.651001   4.163057   5.602486
    25  F    2.371123   1.350002   2.371129   3.652365   4.856173
    26  F    3.650916   2.376143   1.349997   2.377191   2.831478
                   16         17         18         19         20
    16  C    0.000000
    17  F    2.356754   0.000000
    18  F    1.349999   2.750980   0.000000
    19  F    2.831267   5.038437   2.466408   0.000000
    20  F    4.856125   7.212615   5.024908   2.736637   0.000000
    21  F    5.602415   7.729496   6.359370   4.752373   2.736614
    22  F    6.113581   7.735452   7.229691   6.359347   5.024902
    23  F    6.411627   7.229849   7.735508   7.729530   7.212686
    24  F    6.395860   6.359510   7.729596   8.474764   8.705006
    25  F    6.065029   5.025038   7.212716   8.704907   9.731873
    26  F    4.187663   2.466743   5.038737   7.016906   8.705012
                   21         22         23         24         25
    21  F    0.000000
    22  F    2.466443   0.000000
    23  F    5.038552   2.751047   0.000000
    24  F    7.016919   5.038683   2.466628   0.000000
    25  F    8.704984   7.212774   5.025100   2.736654   0.000000
    26  F    8.474778   7.729542   6.359440   4.752296   2.736454
                   26
    26  F    0.000000
 Stoichiometry    C16F10(1+,2)
 Framework group  C1[X(C16F10)]
 Deg. of freedom    72
 Full point group                 C1
 Largest Abelian subgroup         C1      NOp   1
 Largest concise Abelian subgroup C1      NOp   1
                         Standard orientation:                         
 ---------------------------------------------------------------------
 Center     Atomic     Atomic              Coordinates (Angstroms)
 Number     Number      Type              X           Y           Z
 ---------------------------------------------------------------------
    1          6             0       -3.515923   -0.000071   -0.000102
    2          6             0       -2.827163   -1.210696   -0.000102
    3          6             0       -1.426441   -1.228888   -0.000102
    4          6             0       -0.716653   -0.000014   -0.000062
    5          6             0       -1.426532    1.228843   -0.000032
    6          6             0       -2.827183    1.210651   -0.000132
    7          6             0       -0.678255   -2.458870   -0.000032
    8          6             0        0.716673   -0.000025    0.000158
    9          6             0        1.426515   -1.228857    0.000188
   10          6             0        0.678353   -2.458855    0.000058
   11          6             0        2.827250   -1.210651    0.000348
   12          6             0        3.515944    0.000010    0.000498
   13          6             0        2.827144    1.210705    0.000528
   14          6             0        1.426482    1.228874    0.000318
   15          6             0        0.678233    2.458865    0.000108
   16          6             0       -0.678344    2.458856   -0.000042
   17          9             0        1.375379    3.614934    0.000208
   18          9             0       -1.375601    3.614852   -0.000682
   19          9             0       -3.508403    2.376174   -0.000602
   20          9             0       -4.865928   -0.000023   -0.000422
   21          9             0       -3.508414   -2.376199   -0.000212
   22          9             0       -1.375549   -3.614839   -0.000392
   23          9             0        1.375497   -3.614915   -0.000292
   24          9             0        3.508505   -2.376154    0.000308
   25          9             0        4.865946    0.000110    0.000468
   26          9             0        3.508502    2.376142    0.000548
 ---------------------------------------------------------------------
 Rotational constants (GHZ):      0.2724180      0.1810550      0.1087664
 Leave Link  202 at Sat Mar 12 15:10:15 2011, MaxMem= 4294967296 cpu:       4.1
 (Enter /system/software/orac/g03_E.01/g03/l301.exe)
 Standard basis: EPR-II (5D, 7F)
 There are   472 symmetry adapted basis functions of A   symmetry.
 Integral buffers will be    131072 words long.
 Raffenetti 2 integral format.
 Two-electron integral symmetry is turned on.
   472 basis functions,   836 primitive gaussians,   498 cartesian basis functions
    93 alpha electrons       92 beta electrons
       nuclear repulsion energy      2425.7649422386 Hartrees.
 IExCor= 402 DFT=T Ex=B+HF Corr=LYP ExCW=0 ScaHFX=  0.200000
 ScaDFX=  0.800000  0.720000  1.000000  0.810000
 IRadAn=      5 IRanWt=     -1 IRanGd=            0 ICorTp=0
 NAtoms=   26 NActive=   26 NUniq=   26 SFac= 7.50D-01 NAtFMM=   80 NAOKFM=F Big=F
 Leave Link  301 at Sat Mar 12 15:10:15 2011, MaxMem= 4294967296 cpu:       0.6
 (Enter /system/software/orac/g03_E.01/g03/l302.exe)
 NPDir=0 NMtPBC=     1 NCelOv=     1 NCel=       1 NClECP=     1 NCelD=      1
         NCelK=      1 NCelE2=     1 NClLst=     1 CellRange=     0.0.
 One-electron integrals computed using PRISM.
 NBasis=   472 RedAO= T  NBF=   472
 NBsUse=   472 1.00D-06 NBFU=   472
 Precomputing XC quadrature grid using
 IXCGrd= 2 IRadAn=           5 IRanWt=          -1 IRanGd=           0.
 NRdTot=    2216 NPtTot=      599152 NUsed=      614769 NTot=      614801
 NSgBfM=   476   476   476   476.
 Leave Link  302 at Sat Mar 12 15:10:17 2011, MaxMem= 4294967296 cpu:      28.9
 (Enter /system/software/orac/g03_E.01/g03/l303.exe)
 DipDrv:  MaxL=1.
 Leave Link  303 at Sat Mar 12 15:10:17 2011, MaxMem= 4294967296 cpu:       5.1
 (Enter /system/software/orac/g03_E.01/g03/l401.exe)
 Harris functional with IExCor=  402 diagonalized for initial guess.
 ExpMin= 4.79D-02 ExpMax= 9.99D+03 ExpMxC= 1.51D+03 IAcc=3 IRadAn=         5 AccDes= 0.00D+00
 HarFok:  IExCor= 402 AccDes= 0.00D+00 IRadAn=         5 IDoV=1
 ScaDFX=  1.000000  1.000000  1.000000  1.000000
 Harris En= -1608.18482897147    
 Initial guess orbital symmetries:
 Alpha Orbitals:
       Occupied  (A) (A) (A) (A) (A) (A) (A) (A) (A) (A) (A) (A)
                 (A) (A) (A) (A) (A) (A) (A) (A) (A) (A) (A) (A)
                 (A) (A) (A) (A) (A) (A) (A) (A) (A) (A) (A) (A)
                 (A) (A) (A) (A) (A) (A) (A) (A) (A) (A) (A) (A)
                 (A) (A) (A) (A) (A) (A) (A) (A) (A) (A) (A) (A)
                 (A) (A) (A) (A) (A) (A) (A) (A) (A) (A) (A) (A)
                 (A) (A) (A) (A) (A) (A) (A) (A) (A) (A) (A) (A)
                 (A) (A) (A) (A) (A) (A) (A) (A) (A)
       Virtual   (A) (A) (A) (A) (A) (A) (A) (A) (A) (A) (A) (A)
                 (A) (A) (A) (A) (A) (A) (A) (A) (A) (A) (A) (A)
                 (A) (A) (A) (A) (A) (A) (A) (A) (A) (A) (A) (A)
                 (A) (A) (A) (A) (A) (A) (A) (A) (A) (A) (A) (A)
                 (A) (A) (A) (A) (A) (A) (A) (A) (A) (A) (A) (A)
                 (A) (A) (A) (A) (A) (A) (A) (A) (A) (A) (A) (A)
                 (A) (A) (A) (A) (A) (A) (A) (A) (A) (A) (A) (A)
                 (A) (A) (A) (A) (A) (A) (A) (A) (A) (A) (A) (A)
                 (A) (A) (A) (A) (A) (A) (A) (A) (A) (A) (A) (A)
                 (A) (A) (A) (A) (A) (A) (A) (A) (A) (A) (A) (A)
                 (A) (A) (A) (A) (A) (A) (A) (A) (A) (A) (A) (A)
                 (A) (A) (A) (A) (A) (A) (A) (A) (A) (A) (A) (A)
                 (A) (A) (A) (A) (A) (A) (A) (A) (A) (A) (A) (A)
                 (A) (A) (A) (A) (A) (A) (A) (A) (A) (A) (A) (A)
                 (A) (A) (A) (A) (A) (A) (A) (A) (A) (A) (A) (A)
                 (A) (A) (A) (A) (A) (A) (A) (A) (A) (A) (A) (A)
                 (A) (A) (A) (A) (A) (A) (A) (A) (A) (A) (A) (A)
                 (A) (A) (A) (A) (A) (A) (A) (A) (A) (A) (A) (A)
                 (A) (A) (A) (A) (A) (A) (A) (A) (A) (A) (A) (A)
                 (A) (A) (A) (A) (A) (A) (A) (A) (A) (A) (A) (A)
                 (A) (A) (A) (A) (A) (A) (A) (A) (A) (A) (A) (A)
                 (A) (A) (A) (A) (A) (A) (A) (A) (A) (A) (A) (A)
                 (A) (A) (A) (A) (A) (A) (A) (A) (A) (A) (A) (A)
                 (A) (A) (A) (A) (A) (A) (A) (A) (A) (A) (A) (A)
                 (A) (A) (A) (A) (A) (A) (A) (A) (A) (A) (A) (A)
                 (A) (A) (A) (A) (A) (A) (A) (A) (A) (A) (A) (A)
                 (A) (A) (A) (A) (A) (A) (A) (A) (A) (A) (A) (A)
                 (A) (A) (A) (A) (A) (A) (A) (A) (A) (A) (A) (A)
                 (A) (A) (A) (A) (A) (A) (A) (A) (A) (A) (A) (A)
                 (A) (A) (A) (A) (A) (A) (A) (A) (A) (A) (A) (A)
                 (A) (A) (A) (A) (A) (A) (A) (A) (A) (A) (A) (A)
                 (A) (A) (A) (A) (A) (A) (A)
 Beta  Orbitals:
       Occupied  (A) (A) (A) (A) (A) (A) (A) (A) (A) (A) (A) (A)
                 (A) (A) (A) (A) (A) (A) (A) (A) (A) (A) (A) (A)
                 (A) (A) (A) (A) (A) (A) (A) (A) (A) (A) (A) (A)
                 (A) (A) (A) (A) (A) (A) (A) (A) (A) (A) (A) (A)
                 (A) (A) (A) (A) (A) (A) (A) (A) (A) (A) (A) (A)
                 (A) (A) (A) (A) (A) (A) (A) (A) (A) (A) (A) (A)
                 (A) (A) (A) (A) (A) (A) (A) (A) (A) (A) (A) (A)
                 (A) (A) (A) (A) (A) (A) (A) (A)
       Virtual   (A) (A) (A) (A) (A) (A) (A) (A) (A) (A) (A) (A)
                 (A) (A) (A) (A) (A) (A) (A) (A) (A) (A) (A) (A)
                 (A) (A) (A) (A) (A) (A) (A) (A) (A) (A) (A) (A)
                 (A) (A) (A) (A) (A) (A) (A) (A) (A) (A) (A) (A)
                 (A) (A) (A) (A) (A) (A) (A) (A) (A) (A) (A) (A)
                 (A) (A) (A) (A) (A) (A) (A) (A) (A) (A) (A) (A)
                 (A) (A) (A) (A) (A) (A) (A) (A) (A) (A) (A) (A)
                 (A) (A) (A) (A) (A) (A) (A) (A) (A) (A) (A) (A)
                 (A) (A) (A) (A) (A) (A) (A) (A) (A) (A) (A) (A)
                 (A) (A) (A) (A) (A) (A) (A) (A) (A) (A) (A) (A)
                 (A) (A) (A) (A) (A) (A) (A) (A) (A) (A) (A) (A)
                 (A) (A) (A) (A) (A) (A) (A) (A) (A) (A) (A) (A)
                 (A) (A) (A) (A) (A) (A) (A) (A) (A) (A) (A) (A)
                 (A) (A) (A) (A) (A) (A) (A) (A) (A) (A) (A) (A)
                 (A) (A) (A) (A) (A) (A) (A) (A) (A) (A) (A) (A)
                 (A) (A) (A) (A) (A) (A) (A) (A) (A) (A) (A) (A)
                 (A) (A) (A) (A) (A) (A) (A) (A) (A) (A) (A) (A)
                 (A) (A) (A) (A) (A) (A) (A) (A) (A) (A) (A) (A)
                 (A) (A) (A) (A) (A) (A) (A) (A) (A) (A) (A) (A)
                 (A) (A) (A) (A) (A) (A) (A) (A) (A) (A) (A) (A)
                 (A) (A) (A) (A) (A) (A) (A) (A) (A) (A) (A) (A)
                 (A) (A) (A) (A) (A) (A) (A) (A) (A) (A) (A) (A)
                 (A) (A) (A) (A) (A) (A) (A) (A) (A) (A) (A) (A)
                 (A) (A) (A) (A) (A) (A) (A) (A) (A) (A) (A) (A)
                 (A) (A) (A) (A) (A) (A) (A) (A) (A) (A) (A) (A)
                 (A) (A) (A) (A) (A) (A) (A) (A) (A) (A) (A) (A)
                 (A) (A) (A) (A) (A) (A) (A) (A) (A) (A) (A) (A)
                 (A) (A) (A) (A) (A) (A) (A) (A) (A) (A) (A) (A)
                 (A) (A) (A) (A) (A) (A) (A) (A) (A) (A) (A) (A)
                 (A) (A) (A) (A) (A) (A) (A) (A) (A) (A) (A) (A)
                 (A) (A) (A) (A) (A) (A) (A) (A) (A) (A) (A) (A)
                 (A) (A) (A) (A) (A) (A) (A) (A)
 The electronic state of the initial guess is 2-A.
 <S**2> of initial guess= 0.7500
 Leave Link  401 at Sat Mar 12 15:10:21 2011, MaxMem= 4294967296 cpu:      51.3
 (Enter /system/software/orac/g03_E.01/g03/l502.exe)
 UHF open shell SCF:
 Requested convergence on RMS density matrix=1.00D-08 within 128 cycles.
 Requested convergence on MAX density matrix=1.00D-06.
 Requested convergence on             energy=1.00D-06.
 No special actions if energy rises.
 Using DIIS extrapolation, IDIIS=  1040.
 Integral symmetry usage will be decided dynamically.
       614768 words used for storage of precomputed grid.
 IEnd=   1519333 IEndB=   1519333 NGot=4294967296 MDV=4293713106
 LenX=4293713106
 Fock matrices will be formed incrementally for  20 cycles.

 Cycle   1  Pass 1  IDiag  1:
 Petite list used in FoFDir.
 MinBra= 0 MaxBra= 2 Meth= 1.
 IRaf=       0 NMat=   1 IRICut=       1 DoRegI=T DoRafI=F ISym2E= 1 JSym2E=1.
 E= -1607.93533247530    
 DIIS: error= 2.06D-02 at cycle   1 NSaved=   1.
 NSaved= 1 IEnMin= 1 EnMin= -1607.93533247530     IErMin= 1 ErrMin= 2.06D-02
 ErrMax= 2.06D-02 EMaxC= 1.00D-01 BMatC= 9.42D-01 BMatP= 9.42D-01
 IDIUse=3 WtCom= 7.94D-01 WtEn= 2.06D-01
 Coeff-Com:  0.100D+01
 Coeff-En:   0.100D+01
 Coeff:      0.100D+01
 Gap=     0.133 Goal=   None    Shift=    0.000
 Gap=     0.056 Goal=   None    Shift=    0.000
 GapD=    0.056 DampG=0.500 DampE=0.500 DampFc=0.2500 IDamp=-1.
 Damping current iteration by 2.50D-01
 RMSDP=2.01D-02 MaxDP=2.49D+00              OVMax= 2.15D-01

 Cycle   2  Pass 1  IDiag  1:
 RMSU=  2.06D-03    CP:  8.80D-01
 E= -1607.99581388696     Delta-E=       -0.060481411659 Rises=F Damp=T
 DIIS: error= 1.05D-02 at cycle   2 NSaved=   2.
 NSaved= 2 IEnMin= 2 EnMin= -1607.99581388696     IErMin= 2 ErrMin= 1.05D-02
 ErrMax= 1.05D-02 EMaxC= 1.00D-01 BMatC= 3.02D-01 BMatP= 9.42D-01
 IDIUse=3 WtCom= 8.95D-01 WtEn= 1.05D-01
 Coeff-Com: -0.896D+00 0.190D+01
 Coeff-En:   0.000D+00 0.100D+01
 Coeff:     -0.802D+00 0.180D+01
 Gap=     0.178 Goal=   None    Shift=    0.000
 Gap=     0.089 Goal=   None    Shift=    0.000
 RMSDP=1.25D-02 MaxDP=1.45D+00 DE=-6.05D-02 OVMax= 1.72D-01

 Cycle   3  Pass 1  IDiag  1:
 RMSU=  2.58D-03    CP:  5.79D-01  3.00D+00
 E= -1608.08580665759     Delta-E=       -0.089992770630 Rises=F Damp=F
 DIIS: error= 1.05D-02 at cycle   3 NSaved=   3.
 NSaved= 3 IEnMin= 3 EnMin= -1608.08580665759     IErMin= 2 ErrMin= 1.05D-02
 ErrMax= 1.05D-02 EMaxC= 1.00D-01 BMatC= 1.02D-01 BMatP= 3.02D-01
 IDIUse=3 WtCom= 8.95D-01 WtEn= 1.05D-01
 Coeff-Com: -0.594D+00 0.102D+01 0.577D+00
 Coeff-En:   0.000D+00 0.000D+00 0.100D+01
 Coeff:     -0.531D+00 0.910D+00 0.622D+00
 Gap=     0.137 Goal=   None    Shift=    0.000
 Gap=     0.073 Goal=   None    Shift=    0.000
 RMSDP=1.19D-03 MaxDP=5.46D-02 DE=-9.00D-02 OVMax= 7.51D-02

 Cycle   4  Pass 1  IDiag  1:
 RMSU=  5.86D-04    CP:  5.82D-01  3.00D+00  5.98D-01
 E= -1608.10752392325     Delta-E=       -0.021717265655 Rises=F Damp=F
 DIIS: error= 4.31D-03 at cycle   4 NSaved=   4.
 NSaved= 4 IEnMin= 4 EnMin= -1608.10752392325     IErMin= 4 ErrMin= 4.31D-03
 ErrMax= 4.31D-03 EMaxC= 1.00D-01 BMatC= 2.86D-02 BMatP= 1.02D-01
 IDIUse=3 WtCom= 9.57D-01 WtEn= 4.31D-02
 Coeff-Com: -0.238D+00 0.373D+00 0.395D+00 0.470D+00
 Coeff-En:   0.000D+00 0.000D+00 0.214D+00 0.786D+00
 Coeff:     -0.227D+00 0.357D+00 0.387D+00 0.484D+00
 Gap=     0.137 Goal=   None    Shift=    0.000
 Gap=     0.072 Goal=   None    Shift=    0.000
 RMSDP=4.49D-04 MaxDP=4.91D-02 DE=-2.17D-02 OVMax= 2.46D-02

 Cycle   5  Pass 1  IDiag  1:
 RMSU=  1.33D-04    CP:  5.88D-01  3.00D+00  6.91D-01  5.67D-01
 E= -1608.11378134781     Delta-E=       -0.006257424560 Rises=F Damp=F
 DIIS: error= 1.14D-03 at cycle   5 NSaved=   5.
 NSaved= 5 IEnMin= 5 EnMin= -1608.11378134781     IErMin= 5 ErrMin= 1.14D-03
 ErrMax= 1.14D-03 EMaxC= 1.00D-01 BMatC= 1.50D-03 BMatP= 2.86D-02
 IDIUse=3 WtCom= 9.89D-01 WtEn= 1.14D-02
 Coeff-Com: -0.453D-01 0.661D-01 0.133D+00 0.259D+00 0.587D+00
 Coeff-En:   0.000D+00 0.000D+00 0.000D+00 0.000D+00 0.100D+01
 Coeff:     -0.448D-01 0.654D-01 0.131D+00 0.256D+00 0.592D+00
 Gap=     0.137 Goal=   None    Shift=    0.000
 Gap=     0.073 Goal=   None    Shift=    0.000
 RMSDP=1.19D-04 MaxDP=1.21D-02 DE=-6.26D-03 OVMax= 5.12D-03

 Cycle   6  Pass 1  IDiag  1:
 RMSU=  6.59D-05    CP:  5.86D-01  3.00D+00  6.82D-01  6.09D-01  6.53D-01
 E= -1608.11408051427     Delta-E=       -0.000299166461 Rises=F Damp=F
 DIIS: error= 3.06D-04 at cycle   6 NSaved=   6.
 NSaved= 6 IEnMin= 6 EnMin= -1608.11408051427     IErMin= 6 ErrMin= 3.06D-04
 ErrMax= 3.06D-04 EMaxC= 1.00D-01 BMatC= 1.95D-04 BMatP= 1.50D-03
 IDIUse=3 WtCom= 9.97D-01 WtEn= 3.06D-03
 Coeff-Com: -0.492D-02 0.416D-02 0.406D-01 0.984D-01 0.346D+00 0.516D+00
 Coeff-En:   0.000D+00 0.000D+00 0.000D+00 0.000D+00 0.182D-01 0.982D+00
 Coeff:     -0.490D-02 0.415D-02 0.404D-01 0.981D-01 0.345D+00 0.517D+00
 Gap=     0.137 Goal=   None    Shift=    0.000
 Gap=     0.073 Goal=   None    Shift=    0.000
 RMSDP=3.05D-05 MaxDP=2.19D-03 DE=-2.99D-04 OVMax= 2.82D-03

 Cycle   7  Pass 1  IDiag  1:
 RMSU=  1.99D-05    CP:  5.86D-01  3.00D+00  6.87D-01  6.04D-01  6.92D-01
                    CP:  7.57D-01
 E= -1608.11412769766     Delta-E=       -0.000047183397 Rises=F Damp=F
 DIIS: error= 1.18D-04 at cycle   7 NSaved=   7.
 NSaved= 7 IEnMin= 7 EnMin= -1608.11412769766     IErMin= 7 ErrMin= 1.18D-04
 ErrMax= 1.18D-04 EMaxC= 1.00D-01 BMatC= 1.21D-05 BMatP= 1.95D-04
 IDIUse=3 WtCom= 9.99D-01 WtEn= 1.18D-03
 Coeff-Com:  0.490D-02-0.805D-02-0.382D-02-0.351D-02 0.494D-01 0.154D+00
 Coeff-Com:  0.808D+00
 Coeff-En:   0.000D+00 0.000D+00 0.000D+00 0.000D+00 0.000D+00 0.000D+00
 Coeff-En:   0.100D+01
 Coeff:      0.489D-02-0.804D-02-0.382D-02-0.350D-02 0.493D-01 0.153D+00
 Coeff:      0.808D+00
 Gap=     0.137 Goal=   None    Shift=    0.000
 Gap=     0.073 Goal=   None    Shift=    0.000
 RMSDP=1.37D-05 MaxDP=1.13D-03 DE=-4.72D-05 OVMax= 1.51D-03

 Cycle   8  Pass 1  IDiag  1:
 RMSU=  1.18D-05    CP:  5.86D-01  3.00D+00  6.88D-01  6.07D-01  7.21D-01
                    CP:  7.33D-01  1.12D+00
 E= -1608.11413683129     Delta-E=       -0.000009133622 Rises=F Damp=F
 DIIS: error= 5.66D-05 at cycle   8 NSaved=   8.
 NSaved= 8 IEnMin= 8 EnMin= -1608.11413683129     IErMin= 8 ErrMin= 5.66D-05
 ErrMax= 5.66D-05 EMaxC= 1.00D-01 BMatC= 2.94D-06 BMatP= 1.21D-05
 IDIUse=1 WtCom= 1.00D+00 WtEn= 0.00D+00
 Coeff-Com:  0.250D-02-0.284D-02-0.129D-01-0.295D-01-0.102D+00-0.151D+00
 Coeff-Com:  0.781D-01 0.122D+01
 Coeff:      0.250D-02-0.284D-02-0.129D-01-0.295D-01-0.102D+00-0.151D+00
 Coeff:      0.781D-01 0.122D+01
 Gap=     0.137 Goal=   None    Shift=    0.000
 Gap=     0.074 Goal=   None    Shift=    0.000
 RMSDP=1.04D-05 MaxDP=1.15D-03 DE=-9.13D-06 OVMax= 1.47D-03

 Cycle   9  Pass 1  IDiag  1:
 RMSU=  4.74D-06    CP:  5.86D-01  3.00D+00  6.88D-01  6.09D-01  7.35D-01
                    CP:  7.90D-01  1.44D+00  1.43D+00
 E= -1608.11414073390     Delta-E=       -0.000003902611 Rises=F Damp=F
 DIIS: error= 3.88D-05 at cycle   9 NSaved=   9.
 NSaved= 9 IEnMin= 9 EnMin= -1608.11414073390     IErMin= 9 ErrMin= 3.88D-05
 ErrMax= 3.88D-05 EMaxC= 1.00D-01 BMatC= 2.00D-06 BMatP= 2.94D-06
 IDIUse=1 WtCom= 1.00D+00 WtEn= 0.00D+00
 Coeff-Com:  0.971D-03-0.720D-03-0.766D-02-0.180D-01-0.742D-01-0.120D+00
 Coeff-Com: -0.856D-01 0.803D+00 0.503D+00
 Coeff:      0.971D-03-0.720D-03-0.766D-02-0.180D-01-0.742D-01-0.120D+00
 Coeff:     -0.856D-01 0.803D+00 0.503D+00
 Gap=     0.137 Goal=   None    Shift=    0.000
 Gap=     0.074 Goal=   None    Shift=    0.000
 RMSDP=4.06D-06 MaxDP=3.05D-04 DE=-3.90D-06 OVMax= 4.62D-04

 Cycle  10  Pass 1  IDiag  1:
 RMSU=  2.28D-06    CP:  5.86D-01  3.00D+00  6.88D-01  6.07D-01  7.40D-01
                    CP:  8.04D-01  1.55D+00  1.50D+00  7.70D-01
 E= -1608.11414138557     Delta-E=       -0.000000651670 Rises=F Damp=F
 DIIS: error= 1.03D-05 at cycle  10 NSaved=  10.
 NSaved=10 IEnMin=10 EnMin= -1608.11414138557     IErMin=10 ErrMin= 1.03D-05
 ErrMax= 1.03D-05 EMaxC= 1.00D-01 BMatC= 1.20D-07 BMatP= 2.00D-06
 IDIUse=1 WtCom= 1.00D+00 WtEn= 0.00D+00
 Coeff-Com: -0.132D-03 0.244D-03 0.126D-03 0.167D-03-0.415D-02-0.675D-02
 Coeff-Com: -0.485D-01-0.780D-02 0.184D+00 0.883D+00
 Coeff:     -0.132D-03 0.244D-03 0.126D-03 0.167D-03-0.415D-02-0.675D-02
 Coeff:     -0.485D-01-0.780D-02 0.184D+00 0.883D+00
 Gap=     0.137 Goal=   None    Shift=    0.000
 Gap=     0.074 Goal=   None    Shift=    0.000
 RMSDP=1.42D-06 MaxDP=1.52D-04 DE=-6.52D-07 OVMax= 1.87D-04

 Cycle  11  Pass 1  IDiag  1:
 RMSU=  6.10D-07    CP:  5.86D-01  3.00D+00  6.88D-01  6.07D-01  7.41D-01
                    CP:  8.08D-01  1.57D+00  1.56D+00  9.44D-01  1.07D+00
 E= -1608.11414145271     Delta-E=       -0.000000067141 Rises=F Damp=F
 DIIS: error= 4.55D-06 at cycle  11 NSaved=  11.
 NSaved=11 IEnMin=11 EnMin= -1608.11414145271     IErMin=11 ErrMin= 4.55D-06
 ErrMax= 4.55D-06 EMaxC= 1.00D-01 BMatC= 3.33D-08 BMatP= 1.20D-07
 IDIUse=1 WtCom= 1.00D+00 WtEn= 0.00D+00
 Coeff-Com: -0.148D-03 0.191D-03 0.683D-03 0.152D-02 0.363D-02 0.578D-02
 Coeff-Com: -0.200D-01-0.675D-01 0.600D-01 0.485D+00 0.531D+00
 Coeff:     -0.148D-03 0.191D-03 0.683D-03 0.152D-02 0.363D-02 0.578D-02
 Coeff:     -0.200D-01-0.675D-01 0.600D-01 0.485D+00 0.531D+00
 Gap=     0.137 Goal=   None    Shift=    0.000
 Gap=     0.074 Goal=   None    Shift=    0.000
 RMSDP=3.37D-07 MaxDP=2.75D-05 DE=-6.71D-08 OVMax= 4.61D-05

 Cycle  12  Pass 1  IDiag  1:
 RMSU=  2.72D-07    CP:  5.86D-01  3.00D+00  6.88D-01  6.07D-01  7.41D-01
                    CP:  8.08D-01  1.58D+00  1.56D+00  9.47D-01  1.14D+00
                    CP:  8.93D-01
 E= -1608.11414146057     Delta-E=       -0.000000007862 Rises=F Damp=F
 DIIS: error= 1.84D-06 at cycle  12 NSaved=  12.
 NSaved=12 IEnMin=12 EnMin= -1608.11414146057     IErMin=12 ErrMin= 1.84D-06
 ErrMax= 1.84D-06 EMaxC= 1.00D-01 BMatC= 4.13D-09 BMatP= 3.33D-08
 IDIUse=1 WtCom= 1.00D+00 WtEn= 0.00D+00
 Coeff-Com: -0.360D-04 0.300D-04 0.274D-03 0.613D-03 0.277D-02 0.418D-02
 Coeff-Com:  0.533D-02-0.268D-01-0.254D-01-0.330D-01 0.237D+00 0.835D+00
 Coeff:     -0.360D-04 0.300D-04 0.274D-03 0.613D-03 0.277D-02 0.418D-02
 Coeff:      0.533D-02-0.268D-01-0.254D-01-0.330D-01 0.237D+00 0.835D+00
 Gap=     0.137 Goal=   None    Shift=    0.000
 Gap=     0.074 Goal=   None    Shift=    0.000
 RMSDP=2.65D-07 MaxDP=2.22D-05 DE=-7.86D-09 OVMax= 4.00D-05

 Cycle  13  Pass 1  IDiag  1:
 RMSU=  1.75D-07    CP:  5.86D-01  3.00D+00  6.88D-01  6.07D-01  7.41D-01
                    CP:  8.08D-01  1.57D+00  1.56D+00  9.63D-01  1.16D+00
                    CP:  1.01D+00  9.43D-01
 E= -1608.11414146167     Delta-E=       -0.000000001097 Rises=F Damp=F
 DIIS: error= 1.46D-06 at cycle  13 NSaved=  13.
 NSaved=13 IEnMin=13 EnMin= -1608.11414146167     IErMin=13 ErrMin= 1.46D-06
 ErrMax= 1.46D-06 EMaxC= 1.00D-01 BMatC= 1.93D-09 BMatP= 4.13D-09
 IDIUse=1 WtCom= 1.00D+00 WtEn= 0.00D+00
 Coeff-Com: -0.939D-05 0.107D-05 0.108D-03 0.243D-03 0.144D-02 0.207D-02
 Coeff-Com:  0.588D-02-0.986D-02-0.239D-01-0.803D-01 0.932D-01 0.558D+00
 Coeff-Com:  0.453D+00
 Coeff:     -0.939D-05 0.107D-05 0.108D-03 0.243D-03 0.144D-02 0.207D-02
 Coeff:      0.588D-02-0.986D-02-0.239D-01-0.803D-01 0.932D-01 0.558D+00
 Coeff:      0.453D+00
 Gap=     0.137 Goal=   None    Shift=    0.000
 Gap=     0.074 Goal=   None    Shift=    0.000
 RMSDP=1.21D-07 MaxDP=7.01D-06 DE=-1.10D-09 OVMax= 2.87D-05

 Cycle  14  Pass 1  IDiag  1:
 RMSU=  7.99D-08    CP:  5.86D-01  3.00D+00  6.88D-01  6.07D-01  7.41D-01
                    CP:  8.08D-01  1.57D+00  1.56D+00  9.65D-01  1.17D+00
                    CP:  1.02D+00  1.14D+00  5.98D-01
 E= -1608.11414146203     Delta-E=       -0.000000000365 Rises=F Damp=F
 DIIS: error= 6.27D-07 at cycle  14 NSaved=  14.
 NSaved=14 IEnMin=14 EnMin= -1608.11414146203     IErMin=14 ErrMin= 6.27D-07
 ErrMax= 6.27D-07 EMaxC= 1.00D-01 BMatC= 3.85D-10 BMatP= 1.93D-09
 IDIUse=1 WtCom= 1.00D+00 WtEn= 0.00D+00
 Coeff-Com:  0.603D-05-0.969D-05-0.240D-04-0.493D-04-0.399D-05-0.133D-03
 Coeff-Com:  0.211D-02 0.308D-02-0.729D-02-0.459D-01-0.223D-01 0.939D-01
 Coeff-Com:  0.332D+00 0.644D+00
 Coeff:      0.603D-05-0.969D-05-0.240D-04-0.493D-04-0.399D-05-0.133D-03
 Coeff:      0.211D-02 0.308D-02-0.729D-02-0.459D-01-0.223D-01 0.939D-01
 Coeff:      0.332D+00 0.644D+00
 Gap=     0.137 Goal=   None    Shift=    0.000
 Gap=     0.074 Goal=   None    Shift=    0.000
 RMSDP=5.55D-08 MaxDP=4.04D-06 DE=-3.65D-10 OVMax= 9.86D-06

 Cycle  15  Pass 1  IDiag  1:
 RMSU=  1.75D-08    CP:  5.86D-01  3.00D+00  6.88D-01  6.07D-01  7.41D-01
                    CP:  8.08D-01  1.57D+00  1.56D+00  9.65D-01  1.18D+00
                    CP:  1.06D+00  1.13D+00  7.50D-01  7.28D-01
 E= -1608.11414146213     Delta-E=       -0.000000000101 Rises=F Damp=F
 DIIS: error= 9.99D-08 at cycle  15 NSaved=  15.
 NSaved=15 IEnMin=15 EnMin= -1608.11414146213     IErMin=15 ErrMin= 9.99D-08
 ErrMax= 9.99D-08 EMaxC= 1.00D-01 BMatC= 2.20D-11 BMatP= 3.85D-10
 IDIUse=1 WtCom= 1.00D+00 WtEn= 0.00D+00
 Coeff-Com:  0.486D-05-0.648D-05-0.234D-04-0.486D-04-0.121D-03-0.239D-03
 Coeff-Com:  0.689D-03 0.239D-02-0.203D-02-0.180D-01-0.178D-01 0.113D-01
 Coeff-Com:  0.142D+00 0.330D+00 0.552D+00
 Coeff:      0.486D-05-0.648D-05-0.234D-04-0.486D-04-0.121D-03-0.239D-03
 Coeff:      0.689D-03 0.239D-02-0.203D-02-0.180D-01-0.178D-01 0.113D-01
 Coeff:      0.142D+00 0.330D+00 0.552D+00
 Gap=     0.137 Goal=   None    Shift=    0.000
 Gap=     0.074 Goal=   None    Shift=    0.000
 RMSDP=9.85D-09 MaxDP=6.36D-07 DE=-1.01D-10 OVMax= 8.89D-07

 SCF Done:  E(UB+HF-LYP) =  -1608.11414146     A.U. after   15 cycles
             Convg  =    0.9854D-08             -V/T =  2.0063
             S**2   =   0.7650
 KE= 1.598018700963D+03 PE=-8.613038936149D+03 EE= 2.981141151486D+03
 Annihilation of the first spin contaminant:
 S**2 before annihilation     0.7650,   after     0.7502
 Leave Link  502 at Sat Mar 12 15:14:52 2011, MaxMem= 4294967296 cpu:    6248.8
 (Enter /system/software/orac/g03_E.01/g03/l601.exe)
 Copying SCF densities to generalized density rwf, ISCF=1 IROHF=0.

 **********************************************************************

            Population analysis using the SCF density.

 **********************************************************************

 Orbital symmetries:
 Alpha Orbitals:
       Occupied  (A) (A) (A) (A) (A) (A) (A) (A) (A) (A) (A) (A)
                 (A) (A) (A) (A) (A) (A) (A) (A) (A) (A) (A) (A)
                 (A) (A) (A) (A) (A) (A) (A) (A) (A) (A) (A) (A)
                 (A) (A) (A) (A) (A) (A) (A) (A) (A) (A) (A) (A)
                 (A) (A) (A) (A) (A) (A) (A) (A) (A) (A) (A) (A)
                 (A) (A) (A) (A) (A) (A) (A) (A) (A) (A) (A) (A)
                 (A) (A) (A) (A) (A) (A) (A) (A) (A) (A) (A) (A)
                 (A) (A) (A) (A) (A) (A) (A) (A) (A)
       Virtual   (A) (A) (A) (A) (A) (A) (A) (A) (A) (A) (A) (A)
                 (A) (A) (A) (A) (A) (A) (A) (A) (A) (A) (A) (A)
                 (A) (A) (A) (A) (A) (A) (A) (A) (A) (A) (A) (A)
                 (A) (A) (A) (A) (A) (A) (A) (A) (A) (A) (A) (A)
                 (A) (A) (A) (A) (A) (A) (A) (A) (A) (A) (A) (A)
                 (A) (A) (A) (A) (A) (A) (A) (A) (A) (A) (A) (A)
                 (A) (A) (A) (A) (A) (A) (A) (A) (A) (A) (A) (A)
                 (A) (A) (A) (A) (A) (A) (A) (A) (A) (A) (A) (A)
                 (A) (A) (A) (A) (A) (A) (A) (A) (A) (A) (A) (A)
                 (A) (A) (A) (A) (A) (A) (A) (A) (A) (A) (A) (A)
                 (A) (A) (A) (A) (A) (A) (A) (A) (A) (A) (A) (A)
                 (A) (A) (A) (A) (A) (A) (A) (A) (A) (A) (A) (A)
                 (A) (A) (A) (A) (A) (A) (A) (A) (A) (A) (A) (A)
                 (A) (A) (A) (A) (A) (A) (A) (A) (A) (A) (A) (A)
                 (A) (A) (A) (A) (A) (A) (A) (A) (A) (A) (A) (A)
                 (A) (A) (A) (A) (A) (A) (A) (A) (A) (A) (A) (A)
                 (A) (A) (A) (A) (A) (A) (A) (A) (A) (A) (A) (A)
                 (A) (A) (A) (A) (A) (A) (A) (A) (A) (A) (A) (A)
                 (A) (A) (A) (A) (A) (A) (A) (A) (A) (A) (A) (A)
                 (A) (A) (A) (A) (A) (A) (A) (A) (A) (A) (A) (A)
                 (A) (A) (A) (A) (A) (A) (A) (A) (A) (A) (A) (A)
                 (A) (A) (A) (A) (A) (A) (A) (A) (A) (A) (A) (A)
                 (A) (A) (A) (A) (A) (A) (A) (A) (A) (A) (A) (A)
                 (A) (A) (A) (A) (A) (A) (A) (A) (A) (A) (A) (A)
                 (A) (A) (A) (A) (A) (A) (A) (A) (A) (A) (A) (A)
                 (A) (A) (A) (A) (A) (A) (A) (A) (A) (A) (A) (A)
                 (A) (A) (A) (A) (A) (A) (A) (A) (A) (A) (A) (A)
                 (A) (A) (A) (A) (A) (A) (A) (A) (A) (A) (A) (A)
                 (A) (A) (A) (A) (A) (A) (A) (A) (A) (A) (A) (A)
                 (A) (A) (A) (A) (A) (A) (A) (A) (A) (A) (A) (A)
                 (A) (A) (A) (A) (A) (A) (A) (A) (A) (A) (A) (A)
                 (A) (A) (A) (A) (A) (A) (A)
 Beta  Orbitals:
       Occupied  (A) (A) (A) (A) (A) (A) (A) (A) (A) (A) (A) (A)
                 (A) (A) (A) (A) (A) (A) (A) (A) (A) (A) (A) (A)
                 (A) (A) (A) (A) (A) (A) (A) (A) (A) (A) (A) (A)
                 (A) (A) (A) (A) (A) (A) (A) (A) (A) (A) (A) (A)
                 (A) (A) (A) (A) (A) (A) (A) (A) (A) (A) (A) (A)
                 (A) (A) (A) (A) (A) (A) (A) (A) (A) (A) (A) (A)
                 (A) (A) (A) (A) (A) (A) (A) (A) (A) (A) (A) (A)
                 (A) (A) (A) (A) (A) (A) (A) (A)
       Virtual   (A) (A) (A) (A) (A) (A) (A) (A) (A) (A) (A) (A)
                 (A) (A) (A) (A) (A) (A) (A) (A) (A) (A) (A) (A)
                 (A) (A) (A) (A) (A) (A) (A) (A) (A) (A) (A) (A)
                 (A) (A) (A) (A) (A) (A) (A) (A) (A) (A) (A) (A)
                 (A) (A) (A) (A) (A) (A) (A) (A) (A) (A) (A) (A)
                 (A) (A) (A) (A) (A) (A) (A) (A) (A) (A) (A) (A)
                 (A) (A) (A) (A) (A) (A) (A) (A) (A) (A) (A) (A)
                 (A) (A) (A) (A) (A) (A) (A) (A) (A) (A) (A) (A)
                 (A) (A) (A) (A) (A) (A) (A) (A) (A) (A) (A) (A)
                 (A) (A) (A) (A) (A) (A) (A) (A) (A) (A) (A) (A)
                 (A) (A) (A) (A) (A) (A) (A) (A) (A) (A) (A) (A)
                 (A) (A) (A) (A) (A) (A) (A) (A) (A) (A) (A) (A)
                 (A) (A) (A) (A) (A) (A) (A) (A) (A) (A) (A) (A)
                 (A) (A) (A) (A) (A) (A) (A) (A) (A) (A) (A) (A)
                 (A) (A) (A) (A) (A) (A) (A) (A) (A) (A) (A) (A)
                 (A) (A) (A) (A) (A) (A) (A) (A) (A) (A) (A) (A)
                 (A) (A) (A) (A) (A) (A) (A) (A) (A) (A) (A) (A)
                 (A) (A) (A) (A) (A) (A) (A) (A) (A) (A) (A) (A)
                 (A) (A) (A) (A) (A) (A) (A) (A) (A) (A) (A) (A)
                 (A) (A) (A) (A) (A) (A) (A) (A) (A) (A) (A) (A)
                 (A) (A) (A) (A) (A) (A) (A) (A) (A) (A) (A) (A)
                 (A) (A) (A) (A) (A) (A) (A) (A) (A) (A) (A) (A)
                 (A) (A) (A) (A) (A) (A) (A) (A) (A) (A) (A) (A)
                 (A) (A) (A) (A) (A) (A) (A) (A) (A) (A) (A) (A)
                 (A) (A) (A) (A) (A) (A) (A) (A) (A) (A) (A) (A)
                 (A) (A) (A) (A) (A) (A) (A) (A) (A) (A) (A) (A)
                 (A) (A) (A) (A) (A) (A) (A) (A) (A) (A) (A) (A)
                 (A) (A) (A) (A) (A) (A) (A) (A) (A) (A) (A) (A)
                 (A) (A) (A) (A) (A) (A) (A) (A) (A) (A) (A) (A)
                 (A) (A) (A) (A) (A) (A) (A) (A) (A) (A) (A) (A)
                 (A) (A) (A) (A) (A) (A) (A) (A) (A) (A) (A) (A)
                 (A) (A) (A) (A) (A) (A) (A) (A)
 The electronic state is 2-A.
 Alpha  occ. eigenvalues --  -24.90827 -24.90827 -24.90827 -24.90827 -24.90322
 Alpha  occ. eigenvalues --  -24.90322 -24.90322 -24.90322 -24.89427 -24.89427
 Alpha  occ. eigenvalues --  -10.51272 -10.51271 -10.51271 -10.51271 -10.50652
 Alpha  occ. eigenvalues --  -10.50652 -10.50578 -10.50578 -10.49438 -10.49438
 Alpha  occ. eigenvalues --  -10.44320 -10.44319 -10.44318 -10.44317 -10.43878
 Alpha  occ. eigenvalues --  -10.43835  -1.43016  -1.42836  -1.42758  -1.42377
 Alpha  occ. eigenvalues --   -1.42029  -1.41710  -1.40991  -1.40827  -1.40172
 Alpha  occ. eigenvalues --   -1.40126  -1.12918  -1.08894  -1.06196  -1.03040
 Alpha  occ. eigenvalues --   -0.99859  -0.97097  -0.96177  -0.94862  -0.87630
 Alpha  occ. eigenvalues --   -0.87004  -0.85192  -0.84997  -0.79460  -0.78200
 Alpha  occ. eigenvalues --   -0.77893  -0.77517  -0.76022  -0.74398  -0.73767
 Alpha  occ. eigenvalues --   -0.73650  -0.72445  -0.71707  -0.71627  -0.70397
 Alpha  occ. eigenvalues --   -0.70094  -0.70004  -0.68865  -0.68393  -0.68243
 Alpha  occ. eigenvalues --   -0.67815  -0.67023  -0.66197  -0.65278  -0.64701
 Alpha  occ. eigenvalues --   -0.64686  -0.63856  -0.63452  -0.62671  -0.62553
 Alpha  occ. eigenvalues --   -0.61657  -0.60387  -0.60328  -0.60291  -0.59225
 Alpha  occ. eigenvalues --   -0.58664  -0.58536  -0.58103  -0.55971  -0.55390
 Alpha  occ. eigenvalues --   -0.55386  -0.54628  -0.53086  -0.48674  -0.48584
 Alpha  occ. eigenvalues --   -0.45957  -0.43868  -0.41382
 Alpha virt. eigenvalues --   -0.27653  -0.24452  -0.21814  -0.20560  -0.18066
 Alpha virt. eigenvalues --   -0.16797  -0.15429  -0.14507  -0.13402  -0.12154
 Alpha virt. eigenvalues --   -0.09845  -0.08928  -0.08474  -0.08128  -0.06366
 Alpha virt. eigenvalues --   -0.06362  -0.04830  -0.04696  -0.04449  -0.04109
 Alpha virt. eigenvalues --   -0.03136  -0.01632  -0.01173  -0.01132  -0.00705
 Alpha virt. eigenvalues --   -0.00321  -0.00164  -0.00090   0.01409   0.01911
 Alpha virt. eigenvalues --    0.01973   0.02189   0.02358   0.02596   0.03329
 Alpha virt. eigenvalues --    0.04427   0.05405   0.05615   0.05881   0.06252
 Alpha virt. eigenvalues --    0.06561   0.06980   0.07020   0.07157   0.07301
 Alpha virt. eigenvalues --    0.07702   0.08622   0.09333   0.09335   0.10387
 Alpha virt. eigenvalues --    0.10590   0.11308   0.11312   0.11666   0.11835
 Alpha virt. eigenvalues --    0.13139   0.13545   0.14367   0.14573   0.14806
 Alpha virt. eigenvalues --    0.15022   0.15453   0.15863   0.16196   0.16463
 Alpha virt. eigenvalues --    0.16592   0.17631   0.18168   0.19154   0.19324
 Alpha virt. eigenvalues --    0.19678   0.20380   0.20531   0.20854   0.21210
 Alpha virt. eigenvalues --    0.21406   0.22199   0.22846   0.23084   0.25501
 Alpha virt. eigenvalues --    0.27180   0.27415   0.27509   0.27824   0.28311
 Alpha virt. eigenvalues --    0.28609   0.29610   0.30002   0.30919   0.31246
 Alpha virt. eigenvalues --    0.31323   0.31715   0.32453   0.34166   0.34233
 Alpha virt. eigenvalues --    0.34766   0.34834   0.35020   0.35133   0.35523
 Alpha virt. eigenvalues --    0.35632   0.36676   0.37758   0.37839   0.38396
 Alpha virt. eigenvalues --    0.39303   0.39558   0.39999   0.40020   0.40651
 Alpha virt. eigenvalues --    0.40920   0.41452   0.41932   0.44714   0.45055
 Alpha virt. eigenvalues --    0.46501   0.46699   0.46879   0.47438   0.47952
 Alpha virt. eigenvalues --    0.48145   0.49838   0.51780   0.52976   0.53107
 Alpha virt. eigenvalues --    0.53984   0.55261   0.56070   0.59364   0.60210
 Alpha virt. eigenvalues --    0.60351   0.62520   0.62639   0.63028   0.64383
 Alpha virt. eigenvalues --    0.66004   0.66211   0.68439   0.69062   0.71398
 Alpha virt. eigenvalues --    0.74839   0.75656   0.77023   0.77256   0.78382
 Alpha virt. eigenvalues --    0.80127   0.81160   0.81382   0.82358   0.82667
 Alpha virt. eigenvalues --    0.83636   0.84993   0.85023   0.86023   0.86081
 Alpha virt. eigenvalues --    0.87007   0.87354   0.87400   0.88809   0.91797
 Alpha virt. eigenvalues --    0.93889   0.94529   0.95533   0.96743   0.97018
 Alpha virt. eigenvalues --    0.97105   0.97614   0.98186   0.98495   0.99072
 Alpha virt. eigenvalues --    0.99207   0.99608   1.01073   1.01489   1.01760
 Alpha virt. eigenvalues --    1.01884   1.03134   1.03297   1.04482   1.06632
 Alpha virt. eigenvalues --    1.07356   1.08941   1.10634   1.12313   1.12318
 Alpha virt. eigenvalues --    1.13257   1.13597   1.13651   1.13694   1.14359
 Alpha virt. eigenvalues --    1.15488   1.16891   1.17273   1.20636   1.22312
 Alpha virt. eigenvalues --    1.23516   1.23612   1.23876   1.25631   1.25640
 Alpha virt. eigenvalues --    1.26660   1.27322   1.31594   1.31675   1.32398
 Alpha virt. eigenvalues --    1.32723   1.33854   1.34098   1.35075   1.35823
 Alpha virt. eigenvalues --    1.36106   1.36573   1.37367   1.38507   1.39447
 Alpha virt. eigenvalues --    1.40087   1.42715   1.43358   1.43725   1.45488
 Alpha virt. eigenvalues --    1.46055   1.47111   1.47792   1.48322   1.48558
 Alpha virt. eigenvalues --    1.48999   1.51650   1.53576   1.53689   1.54134
 Alpha virt. eigenvalues --    1.54367   1.55421   1.57538   1.58937   1.59199
 Alpha virt. eigenvalues --    1.60197   1.63176   1.67363   1.67957   1.68113
 Alpha virt. eigenvalues --    1.69159   1.73831   1.80634   1.80857   1.81185
 Alpha virt. eigenvalues --    1.81809   1.84848   1.86097   1.89465   1.90236
 Alpha virt. eigenvalues --    1.92329   1.92450   1.92603   1.96216   1.96938
 Alpha virt. eigenvalues --    1.97462   1.98613   2.02060   2.05460   2.05586
 Alpha virt. eigenvalues --    2.05810   2.05971   2.06047   2.06940   2.09260
 Alpha virt. eigenvalues --    2.09922   2.11859   2.14482   2.18255   2.21335
 Alpha virt. eigenvalues --    2.27225   2.29096   2.35364   2.66856   2.79936
 Alpha virt. eigenvalues --    2.92838   2.97289   3.37624   3.37767   3.37778
 Alpha virt. eigenvalues --    3.37810   3.37936   3.38019   3.39672   3.39916
 Alpha virt. eigenvalues --    3.40017   3.40854   3.40954   3.41084   3.41536
 Alpha virt. eigenvalues --    3.41900   3.41959   3.42324   3.43575   3.43971
 Alpha virt. eigenvalues --    3.44416   3.46500   3.51511   3.51726   3.52401
 Alpha virt. eigenvalues --    3.52527   3.55821   3.56052   3.61001   3.62133
 Alpha virt. eigenvalues --    3.62337   3.63192   3.65111   3.65727   3.65977
 Alpha virt. eigenvalues --    3.67514   3.73757   3.74555   3.81552   3.82382
 Alpha virt. eigenvalues --    3.82975   3.83900   3.84503   3.86585   3.88052
 Alpha virt. eigenvalues --    3.90672   3.91463   3.91627   4.02962   4.05423
 Alpha virt. eigenvalues --    4.07432   4.11368   4.85982   5.16864   5.21909
 Alpha virt. eigenvalues --    5.29092   5.39316   5.41647   5.42396   5.46126
 Alpha virt. eigenvalues --    5.46364   5.49025   5.50321   5.52182   5.73012
 Alpha virt. eigenvalues --    5.75567   5.85037   6.06620  11.05250  11.06434
 Alpha virt. eigenvalues --   11.07456  11.09017  11.10648  11.12098  11.12298
 Alpha virt. eigenvalues --   11.15875  11.16713  11.17367  29.40957  29.66772
 Alpha virt. eigenvalues --   29.70806  29.74916  29.78789  29.80173  29.81281
 Alpha virt. eigenvalues --   29.81908  29.89944  29.91339  29.97084  29.98275
 Alpha virt. eigenvalues --   30.09669  30.14478  30.16261  30.34477  67.97612
 Alpha virt. eigenvalues --   67.98772  68.00238  68.01413  68.03638  68.04784
 Alpha virt. eigenvalues --   68.05052  68.08922  68.09542  68.09884
  Beta  occ. eigenvalues --  -24.90718 -24.90718 -24.90717 -24.90717 -24.90257
  Beta  occ. eigenvalues --  -24.90257 -24.90257 -24.90257 -24.89452 -24.89452
  Beta  occ. eigenvalues --  -10.51012 -10.51012 -10.51011 -10.51010 -10.50502
  Beta  occ. eigenvalues --  -10.50502 -10.50429 -10.50429 -10.49546 -10.49546
  Beta  occ. eigenvalues --  -10.44319 -10.44318 -10.44317 -10.44316 -10.43893
  Beta  occ. eigenvalues --  -10.43850  -1.42829  -1.42644  -1.42565  -1.42143
  Beta  occ. eigenvalues --   -1.41875  -1.41489  -1.40881  -1.40663  -1.40158
  Beta  occ. eigenvalues --   -1.40089  -1.12740  -1.08579  -1.05833  -1.02700
  Beta  occ. eigenvalues --   -0.99465  -0.96726  -0.96151  -0.94151  -0.87500
  Beta  occ. eigenvalues --   -0.86669  -0.84916  -0.84879  -0.79268  -0.78107
  Beta  occ. eigenvalues --   -0.77798  -0.77341  -0.75901  -0.74314  -0.73671
  Beta  occ. eigenvalues --   -0.73534  -0.72293  -0.71646  -0.71462  -0.70370
  Beta  occ. eigenvalues --   -0.69847  -0.69407  -0.68219  -0.68153  -0.67746
  Beta  occ. eigenvalues --   -0.67641  -0.66445  -0.65362  -0.64649  -0.64605
  Beta  occ. eigenvalues --   -0.64402  -0.63544  -0.62917  -0.62504  -0.62278
  Beta  occ. eigenvalues --   -0.61575  -0.60295  -0.60263  -0.60036  -0.59176
  Beta  occ. eigenvalues --   -0.58608  -0.58488  -0.58017  -0.55875  -0.55256
  Beta  occ. eigenvalues --   -0.54732  -0.54524  -0.52160  -0.47756  -0.47367
  Beta  occ. eigenvalues --   -0.44511  -0.43744
  Beta virt. eigenvalues --   -0.36377  -0.25685  -0.24014  -0.21303  -0.19241
  Beta virt. eigenvalues --   -0.17960  -0.16630  -0.14477  -0.14355  -0.13212
  Beta virt. eigenvalues --   -0.12074  -0.08829  -0.08775  -0.08339  -0.07843
  Beta virt. eigenvalues --   -0.06253  -0.05471  -0.04812  -0.04594  -0.04322
  Beta virt. eigenvalues --   -0.03994  -0.02865  -0.01604  -0.01102  -0.01083
  Beta virt. eigenvalues --   -0.00629  -0.00235  -0.00099   0.00020   0.01460
  Beta virt. eigenvalues --    0.01912   0.02070   0.02213   0.02458   0.03224
  Beta virt. eigenvalues --    0.03382   0.04563   0.05469   0.05620   0.05965
  Beta virt. eigenvalues --    0.06380   0.06689   0.07073   0.07148   0.07372
  Beta virt. eigenvalues --    0.07417   0.07720   0.08637   0.09535   0.09923
  Beta virt. eigenvalues --    0.10430   0.10614   0.11335   0.11361   0.11710
  Beta virt. eigenvalues --    0.11847   0.13191   0.13805   0.14418   0.14626
  Beta virt. eigenvalues --    0.15137   0.15151   0.15476   0.16016   0.16207
  Beta virt. eigenvalues --    0.16468   0.16624   0.17856   0.18207   0.19192
  Beta virt. eigenvalues --    0.19355   0.19717   0.20400   0.20903   0.21067
  Beta virt. eigenvalues --    0.21223   0.21532   0.22372   0.23047   0.23096
  Beta virt. eigenvalues --    0.25888   0.27257   0.27471   0.27706   0.27869
  Beta virt. eigenvalues --    0.28398   0.28959   0.29740   0.30006   0.31011
  Beta virt. eigenvalues --    0.31280   0.31759   0.32027   0.32555   0.34205
  Beta virt. eigenvalues --    0.34457   0.34811   0.34854   0.35039   0.35141
  Beta virt. eigenvalues --    0.35554   0.35988   0.36773   0.37843   0.37951
  Beta virt. eigenvalues --    0.38486   0.39645   0.39754   0.40025   0.40079
  Beta virt. eigenvalues --    0.40674   0.41018   0.41605   0.41958   0.44724
  Beta virt. eigenvalues --    0.45149   0.46787   0.46834   0.47143   0.47584
  Beta virt. eigenvalues --    0.48085   0.48219   0.50036   0.51809   0.53065
  Beta virt. eigenvalues --    0.53153   0.54168   0.55383   0.56214   0.59520
  Beta virt. eigenvalues --    0.60286   0.60430   0.62858   0.62905   0.63093
  Beta virt. eigenvalues --    0.64497   0.66045   0.66270   0.68557   0.69490
  Beta virt. eigenvalues --    0.71904   0.74894   0.75998   0.77239   0.77694
  Beta virt. eigenvalues --    0.78546   0.80200   0.81220   0.81802   0.82849
  Beta virt. eigenvalues --    0.83092   0.83838   0.84989   0.85089   0.86110
  Beta virt. eigenvalues --    0.86466   0.87332   0.87531   0.87573   0.89011
  Beta virt. eigenvalues --    0.92066   0.94132   0.94620   0.95686   0.96864
  Beta virt. eigenvalues --    0.97102   0.97486   0.97908   0.98290   0.98618
  Beta virt. eigenvalues --    0.99383   0.99425   0.99807   1.01146   1.01650
  Beta virt. eigenvalues --    1.01977   1.02147   1.03260   1.03465   1.04652
  Beta virt. eigenvalues --    1.06771   1.07392   1.09040   1.10726   1.12452
  Beta virt. eigenvalues --    1.12541   1.13543   1.13687   1.13735   1.14116
  Beta virt. eigenvalues --    1.14423   1.16083   1.16937   1.17389   1.20744
  Beta virt. eigenvalues --    1.22358   1.23607   1.23919   1.24164   1.25712
  Beta virt. eigenvalues --    1.25721   1.26765   1.27410   1.31744   1.31884
  Beta virt. eigenvalues --    1.32449   1.33242   1.33951   1.34286   1.35166
  Beta virt. eigenvalues --    1.35888   1.36197   1.36597   1.37436   1.38583
  Beta virt. eigenvalues --    1.39703   1.40177   1.42865   1.43681   1.43927
  Beta virt. eigenvalues --    1.45630   1.46155   1.47287   1.47920   1.48405
  Beta virt. eigenvalues --    1.49004   1.49249   1.51907   1.53894   1.54002
  Beta virt. eigenvalues --    1.54177   1.54779   1.55629   1.57700   1.58976
  Beta virt. eigenvalues --    1.59502   1.60464   1.63622   1.67876   1.68099
  Beta virt. eigenvalues --    1.68465   1.69411   1.74250   1.80866   1.81135
  Beta virt. eigenvalues --    1.81213   1.81991   1.84888   1.86403   1.89782
  Beta virt. eigenvalues --    1.90381   1.92502   1.92699   1.92770   1.96441
  Beta virt. eigenvalues --    1.96959   1.97660   1.98730   2.02276   2.05564
  Beta virt. eigenvalues --    2.05707   2.06106   2.06216   2.06273   2.07101
  Beta virt. eigenvalues --    2.09488   2.09986   2.11942   2.14555   2.18315
  Beta virt. eigenvalues --    2.21437   2.27332   2.29173   2.35445   2.66971
  Beta virt. eigenvalues --    2.80005   2.92904   2.97342   3.37807   3.37953
  Beta virt. eigenvalues --    3.37953   3.38000   3.38250   3.38333   3.39862
  Beta virt. eigenvalues --    3.40111   3.40237   3.40927   3.41036   3.41411
  Beta virt. eigenvalues --    3.41840   3.42129   3.42148   3.42375   3.43581
  Beta virt. eigenvalues --    3.44206   3.44599   3.46740   3.51659   3.51853
  Beta virt. eigenvalues --    3.52618   3.52721   3.56165   3.56397   3.61031
  Beta virt. eigenvalues --    3.62329   3.62364   3.63418   3.65260   3.65765
  Beta virt. eigenvalues --    3.66153   3.67552   3.73804   3.74605   3.81620
  Beta virt. eigenvalues --    3.82440   3.83036   3.84002   3.84610   3.86614
  Beta virt. eigenvalues --    3.88170   3.90712   3.91553   3.91771   4.03060
  Beta virt. eigenvalues --    4.05523   4.07507   4.11452   4.86180   5.17065
  Beta virt. eigenvalues --    5.22217   5.29135   5.39545   5.41967   5.42438
  Beta virt. eigenvalues --    5.46584   5.46756   5.49102   5.50633   5.52213
  Beta virt. eigenvalues --    5.73357   5.75808   5.85262   6.06761  11.05426
  Beta virt. eigenvalues --   11.06577  11.07508  11.09201  11.10779  11.12177
  Beta virt. eigenvalues --   11.12445  11.16079  11.16884  11.17396  29.41101
  Beta virt. eigenvalues --   29.66888  29.71056  29.74849  29.78854  29.80339
  Beta virt. eigenvalues --   29.81572  29.82268  29.90013  29.91510  29.97177
  Beta virt. eigenvalues --   29.98316  30.09830  30.14551  30.16368  30.34530
  Beta virt. eigenvalues --   67.97706  67.98852  68.00261  68.01511  68.03702
  Beta virt. eigenvalues --   68.04866  68.05098  68.09029  68.09633  68.09902
          Condensed to atoms (all electrons):
              1          2          3          4          5          6
     1  C    5.364170   0.275503  -0.067645  -0.099859  -0.067614   0.275397
     2  C    0.275503   5.994982  -0.234175   0.181099  -0.125068  -0.250149
     3  C   -0.067645  -0.234175   7.474942  -1.692348   0.455240  -0.125162
     4  C   -0.099859   0.181099  -1.692348  10.256040  -1.692899   0.181322
     5  C   -0.067614  -0.125068   0.455240  -1.692899   7.475301  -0.234298
     6  C    0.275397  -0.250149  -0.125162   0.181322  -0.234298   5.995013
     7  C   -0.000160   0.060886  -0.270655   0.396556  -0.101184   0.035842
     8  C    0.013603  -0.157865   1.085921  -3.136042   1.086184  -0.157789
     9  C    0.006050   0.124610  -0.333378   1.086179  -0.300873  -0.007026
    10  C   -0.006650  -0.018520  -0.102005  -0.354677   0.073538   0.002395
    11  C    0.000973  -0.004675   0.124609  -0.157827  -0.007031  -0.001806
    12  C   -0.000081   0.000973   0.006044   0.013628   0.006045   0.000973
    13  C    0.000973  -0.001807  -0.007023  -0.157875   0.124618  -0.004677
    14  C    0.006047  -0.007033  -0.300831   1.086028  -0.333512   0.124598
    15  C   -0.006652   0.002403   0.073482  -0.354620  -0.101943  -0.018526
    16  C   -0.000180   0.035845  -0.101109   0.396532  -0.270604   0.060769
    17  F   -0.000653   0.000551   0.000157   0.001501  -0.038629   0.000168
    18  F   -0.008393   0.002866   0.000037   0.055259  -0.091535  -0.066306
    19  F   -0.084033  -0.003600   0.005383   0.022435  -0.148781   0.255407
    20  F    0.194886  -0.073180  -0.016115   0.013655  -0.016106  -0.073128
    21  F   -0.084017   0.255358  -0.148749   0.022427   0.005390  -0.003605
    22  F   -0.008398  -0.066302  -0.091501   0.055266   0.000029   0.002869
    23  F   -0.000653   0.000165  -0.038624   0.001488   0.000160   0.000551
    24  F    0.000007  -0.000148   0.007433  -0.005788  -0.000848  -0.000072
    25  F   -0.000002   0.000003   0.000872  -0.003904   0.000872   0.000003
    26  F    0.000007  -0.000072  -0.000848  -0.005788   0.007432  -0.000148
              7          8          9         10         11         12
     1  C   -0.000160   0.013603   0.006050  -0.006650   0.000973  -0.000081
     2  C    0.060886  -0.157865   0.124610  -0.018520  -0.004675   0.000973
     3  C   -0.270655   1.085921  -0.333378  -0.102005   0.124609   0.006044
     4  C    0.396556  -3.136042   1.086179  -0.354677  -0.157827   0.013628
     5  C   -0.101184   1.086184  -0.300873   0.073538  -0.007031   0.006045
     6  C    0.035842  -0.157789  -0.007026   0.002395  -0.001806   0.000973
     7  C    5.960971  -0.354649  -0.102052   0.213950  -0.018519  -0.006650
     8  C   -0.354649  10.256228  -1.692701   0.396617   0.181190  -0.099898
     9  C   -0.102052  -1.692701   7.475220  -0.270624  -0.234304  -0.067617
    10  C    0.213950   0.396617  -0.270624   5.960902   0.060842  -0.000182
    11  C   -0.018519   0.181190  -0.234304   0.060842   5.995028   0.275475
    12  C   -0.006650  -0.099898  -0.067617  -0.000182   0.275475   5.364194
    13  C    0.002399   0.181365  -0.125200   0.035847  -0.250118   0.275419
    14  C    0.073532  -1.692658   0.455301  -0.101165  -0.125106  -0.067627
    15  C   -0.014893   0.396429  -0.101143   0.012515   0.035832  -0.000170
    16  C    0.012510  -0.354674   0.073499  -0.014895   0.002402  -0.006650
    17  F   -0.000066   0.055229   0.000038   0.000084   0.002865  -0.008389
    18  F    0.000084   0.001484   0.000158  -0.000066   0.000551  -0.000653
    19  F    0.000593  -0.005784  -0.000848   0.000592  -0.000072   0.000007
    20  F    0.003650  -0.003903   0.000872  -0.000889   0.000003  -0.000002
    21  F   -0.032780  -0.005784   0.007431  -0.013252  -0.000147   0.000007
    22  F    0.208415   0.001498  -0.038640  -0.106431   0.000163  -0.000653
    23  F   -0.106357   0.055257  -0.091553   0.208396  -0.066294  -0.008394
    24  F   -0.013257   0.022439  -0.148790  -0.032751   0.255384  -0.084022
    25  F   -0.000889   0.013659  -0.016115   0.003650  -0.073173   0.194910
    26  F    0.000592   0.022444   0.005380   0.000593  -0.003593  -0.084020
             13         14         15         16         17         18
     1  C    0.000973   0.006047  -0.006652  -0.000180  -0.000653  -0.008393
     2  C   -0.001807  -0.007033   0.002403   0.035845   0.000551   0.002866
     3  C   -0.007023  -0.300831   0.073482  -0.101109   0.000157   0.000037
     4  C   -0.157875   1.086028  -0.354620   0.396532   0.001501   0.055259
     5  C    0.124618  -0.333512  -0.101943  -0.270604  -0.038629  -0.091535
     6  C   -0.004677   0.124598  -0.018526   0.060769   0.000168  -0.066306
     7  C    0.002399   0.073532  -0.014893   0.012510  -0.000066   0.000084
     8  C    0.181365  -1.692658   0.396429  -0.354674   0.055229   0.001484
     9  C   -0.125200   0.455301  -0.101143   0.073499   0.000038   0.000158
    10  C    0.035847  -0.101165   0.012515  -0.014895   0.000084  -0.000066
    11  C   -0.250118  -0.125106   0.035832   0.002402   0.002865   0.000551
    12  C    0.275419  -0.067627  -0.000170  -0.006650  -0.008389  -0.000653
    13  C    5.995048  -0.234379   0.060851  -0.018532  -0.066277   0.000166
    14  C   -0.234379   7.475128  -0.270558  -0.101955  -0.091520  -0.038622
    15  C    0.060851  -0.270558   5.960873   0.214034   0.208397  -0.106400
    16  C   -0.018532  -0.101955   0.214034   5.960880  -0.106368   0.208439
    17  F   -0.066277  -0.091520   0.208397  -0.106368   9.132196   0.005941
    18  F    0.000166  -0.038622  -0.106400   0.208439   0.005941   9.132227
    19  F   -0.000148   0.007432  -0.013255  -0.032785  -0.000535  -0.014851
    20  F    0.000003   0.000872  -0.000889   0.003651  -0.000030  -0.000130
    21  F   -0.000072  -0.000848   0.000592   0.000593   0.000018   0.000097
    22  F    0.000551   0.000161  -0.000066   0.000084   0.000004  -0.000031
    23  F    0.002867   0.000032   0.000085  -0.000066  -0.000031   0.000004
[...]
    19  F    0.000007  -0.000216   0.000180   0.001273  -0.000016  -0.001050
    20  F   -0.000002   0.000033  -0.000017   0.000108   0.000000   0.000016
    21  F    0.000004  -0.000043   0.000010  -0.000053   0.000000  -0.000001
    22  F   -0.000007   0.000002  -0.000001   0.000008   0.000000   0.000000
    23  F   -0.000076  -0.000063   0.000008  -0.000001   0.000000   0.000000
    24  F    0.000196   0.000717  -0.000053   0.000010  -0.000001   0.000000
    25  F    0.000591  -0.000953   0.000108  -0.000017   0.000016   0.000000
    26  F   -0.028542   0.001123   0.001273   0.000180  -0.001050  -0.000016
             19         20         21         22         23         24
     1  C    0.002182   0.009633   0.002182  -0.000104   0.000003  -0.000002
     2  C    0.000196   0.000591  -0.028542   0.002189   0.000026   0.000007
     3  C    0.000717  -0.000953   0.001123   0.003366   0.001549  -0.000216
     4  C   -0.001112   0.001033  -0.001112  -0.000037  -0.000363   0.000471
     5  C    0.001123  -0.000953   0.000717  -0.000063   0.000002  -0.000043
     6  C   -0.028542   0.000591   0.000196  -0.000076  -0.000007   0.000004
     7  C   -0.000053   0.000108   0.001273  -0.014467  -0.003014   0.000180
     8  C    0.000471  -0.000231   0.000471  -0.000363  -0.000037  -0.001112
     9  C   -0.000043   0.000033  -0.000216   0.001549   0.003366   0.001123
    10  C    0.000010  -0.000017   0.000180  -0.003014  -0.014467   0.001273
    11  C    0.000004  -0.000002   0.000007   0.000026   0.002189  -0.028542
    12  C   -0.000002   0.000000  -0.000002   0.000003  -0.000104   0.002182
    13  C    0.000007  -0.000002   0.000004  -0.000007  -0.000076   0.000196
    14  C   -0.000216   0.000033  -0.000043   0.000002  -0.000063   0.000717
    15  C    0.000180  -0.000017   0.000010  -0.000001   0.000008  -0.000053
    16  C    0.001273   0.000108  -0.000053   0.000008  -0.000001   0.000010
    17  F   -0.000016   0.000000   0.000000   0.000000   0.000000  -0.000001
    18  F   -0.001050   0.000016  -0.000001   0.000000   0.000000   0.000000
    19  F    0.047724   0.000092  -0.000046  -0.000001   0.000000   0.000000
    20  F    0.000092  -0.014721   0.000092   0.000016   0.000000   0.000000
    21  F   -0.000046   0.000092   0.047724  -0.001050  -0.000016   0.000000
    22  F   -0.000001   0.000016  -0.001050   0.026671   0.000488  -0.000016
    23  F    0.000000   0.000000  -0.000016   0.000488   0.026671  -0.001050
    24  F    0.000000   0.000000   0.000000  -0.000016  -0.001050   0.047724
    25  F    0.000000   0.000000   0.000000   0.000000   0.000016   0.000092
    26  F    0.000000   0.000000   0.000000   0.000000  -0.000001  -0.000046
             25         26
     1  C    0.000000  -0.000002
     2  C   -0.000002   0.000004
     3  C    0.000033  -0.000043
     4  C   -0.000231   0.000471
     5  C    0.000033  -0.000216
     6  C   -0.000002   0.000007
     7  C   -0.000017   0.000010
     8  C    0.001033  -0.001112
     9  C   -0.000953   0.000717
    10  C    0.000108  -0.000053
    11  C    0.000591   0.000196
    12  C    0.009633   0.002182
    13  C    0.000591  -0.028542
    14  C   -0.000953   0.001123
    15  C    0.000108   0.001273
    16  C   -0.000017   0.000180
    17  F    0.000016  -0.001050
    18  F    0.000000  -0.000016
    19  F    0.000000   0.000000
    20  F    0.000000   0.000000
    21  F    0.000000   0.000000
    22  F    0.000000   0.000000
    23  F    0.000016  -0.000001
    24  F    0.000092  -0.000046
    25  F   -0.014721   0.000092
    26  F    0.000092   0.047724
 Mulliken atomic spin densities:
              1
     1  C   -0.069767
     2  C    0.168007
     3  C   -0.007088
     4  C   -0.015354
     5  C   -0.007088
     6  C    0.168007
     7  C    0.095900
     8  C   -0.015354
     9  C   -0.007088
    10  C    0.095900
    11  C    0.168007
    12  C   -0.069767
    13  C    0.168007
    14  C   -0.007088
    15  C    0.095900
    16  C    0.095900
    17  F    0.015117
    18  F    0.015117
    19  F    0.022899
    20  F   -0.004548
    21  F    0.022899
    22  F    0.015117
    23  F    0.015117
    24  F    0.022899
    25  F   -0.004548
    26  F    0.022899
 Sum of Mulliken spin densities=   1.00000
 Electronic spatial extent (au):  <R**2>=  8302.5058
 Charge=     1.0000 electrons
 Dipole moment (field-independent basis, Debye):
    X=     0.0000    Y=     0.0000    Z=     0.0000  Tot=     0.0000
 Quadrupole moment (field-independent basis, Debye-Ang):
   XX=  -114.7572   YY=  -128.4220   ZZ=  -128.9774
   XY=     0.0000   XZ=    -0.0015   YZ=     0.0000
 Traceless Quadrupole moment (field-independent basis, Debye-Ang):
   XX=     9.2950   YY=    -4.3698   ZZ=    -4.9252
   XY=     0.0000   XZ=    -0.0015   YZ=     0.0000
 Octapole moment (field-independent basis, Debye-Ang**2):
  XXX=     0.0000  YYY=     0.0000  ZZZ=    -0.0002  XYY=     0.0000
  XXY=     0.0000  XXZ=     0.0001  XZZ=     0.0000  YZZ=     0.0000
  YYZ=     0.0001  XYZ=     0.0000
 Hexadecapole moment (field-independent basis, Debye-Ang**3):
 XXXX= -5370.5787 YYYY= -3486.2928 ZZZZ=  -113.3856 XXXY=     0.0000
 XXXZ=     0.2863 YYYX=     0.0000 YYYZ=     0.0154 ZZZX=     0.2642
 ZZZY=     0.0136 XXYY= -1486.2365 XXZZ=  -878.8115 YYZZ=  -565.8843
 XXYZ=     0.0052 YYXZ=     0.0964 ZZXY=     0.0000
 N-N= 2.423769122302D+03 E-N=-8.609414053995D+03  KE= 1.598247318668D+03
                          Isotropic Fermi Contact Couplings
        Atom                 a.u.       MegaHertz       Gauss      10(-4) cm-1
     1  C(13)             -0.01569     -17.63767      -6.29356      -5.88329
     2  C(13)              0.01437      16.16019       5.76636       5.39046
     3  C(13)             -0.00747      -8.39859      -2.99683      -2.80147
     4  C(13)             -0.00122      -1.37311      -0.48996      -0.45802
     5  C(13)             -0.00747      -8.39858      -2.99682      -2.80147
     6  C(13)              0.01437      16.16018       5.76636       5.39046
     7  C(13)              0.00370       4.15583       1.48290       1.38624
     8  C(13)             -0.00122      -1.37311      -0.48996      -0.45802
     9  C(13)             -0.00747      -8.39859      -2.99683      -2.80147
    10  C(13)              0.00370       4.15584       1.48291       1.38624
    11  C(13)              0.01437      16.16018       5.76636       5.39046
    12  C(13)             -0.01569     -17.63766      -6.29356      -5.88329
    13  C(13)              0.01437      16.16019       5.76636       5.39046
    14  C(13)             -0.00747      -8.39860      -2.99683      -2.80147
    15  C(13)              0.00370       4.15584       1.48291       1.38624
    16  C(13)              0.00370       4.15582       1.48290       1.38623
    17  F(19)              0.00408      17.17390       6.12807       5.72860
    18  F(19)              0.00408      17.17387       6.12806       5.72859
    19  F(19)              0.00777      32.70798      11.67102      10.91021
    20  F(19)             -0.00266     -11.20677      -3.99886      -3.73818
    21  F(19)              0.00777      32.70798      11.67102      10.91021
    22  F(19)              0.00408      17.17390       6.12807       5.72859
    23  F(19)              0.00408      17.17390       6.12808       5.72860
    24  F(19)              0.00777      32.70796      11.67101      10.91020
    25  F(19)             -0.00266     -11.20677      -3.99886      -3.73818
    26  F(19)              0.00777      32.70798      11.67102      10.91021
 --------------------------------------------------------
       Center         ----  Spin Dipole Couplings  ----
                      3XX-RR        3YY-RR        3ZZ-RR
 --------------------------------------------------------
     1   Atom        0.037608      0.041648     -0.079256
     2   Atom       -0.112053     -0.113616      0.225669
     3   Atom        0.002432     -0.005380      0.002949
     4   Atom        0.007638      0.007789     -0.015426
     5   Atom        0.002432     -0.005380      0.002949
     6   Atom       -0.112053     -0.113616      0.225669
     7   Atom       -0.058762     -0.069590      0.128351
     8   Atom        0.007638      0.007789     -0.015426
     9   Atom        0.002432     -0.005380      0.002949
    10   Atom       -0.058762     -0.069590      0.128351
    11   Atom       -0.112053     -0.113616      0.225669
    12   Atom        0.037608      0.041648     -0.079256
    13   Atom       -0.112053     -0.113616      0.225669
    14   Atom        0.002432     -0.005380      0.002948
    15   Atom       -0.058762     -0.069590      0.128351
    16   Atom       -0.058762     -0.069590      0.128351
    17   Atom       -0.070776     -0.073835      0.144611
    18   Atom       -0.070776     -0.073835      0.144611
    19   Atom       -0.123815     -0.133247      0.257062
    20   Atom        0.038248      0.023531     -0.061780
    21   Atom       -0.123815     -0.133247      0.257062
    22   Atom       -0.070776     -0.073835      0.144611
    23   Atom       -0.070776     -0.073835      0.144611
    24   Atom       -0.123815     -0.133246      0.257062
    25   Atom        0.038248      0.023531     -0.061780
    26   Atom       -0.123815     -0.133247      0.257062
 --------------------------------------------------------
                        XY            XZ            YZ
 --------------------------------------------------------
     1   Atom        0.000000     -0.000012     -0.000001
     2   Atom        0.000466      0.000036      0.000003
     3   Atom       -0.004058      0.000000      0.000001
     4   Atom        0.000000     -0.000002      0.000000
     5   Atom        0.004058      0.000000      0.000000
     6   Atom       -0.000466      0.000036      0.000003
     7   Atom       -0.001230      0.000020      0.000002
     8   Atom        0.000000     -0.000002      0.000000
     9   Atom        0.004058      0.000000      0.000000
    10   Atom        0.001230      0.000019      0.000002
    11   Atom       -0.000466      0.000035      0.000003
    12   Atom        0.000000     -0.000012     -0.000001
    13   Atom        0.000466      0.000035      0.000002
    14   Atom       -0.004058      0.000000      0.000001
    15   Atom       -0.001230      0.000019      0.000001
    16   Atom        0.001230      0.000019      0.000001
    17   Atom       -0.003891      0.000022      0.000002
    18   Atom        0.003891      0.000023      0.000001
    19   Atom        0.007140      0.000041      0.000002
    20   Atom        0.000000     -0.000011     -0.000001
    21   Atom       -0.007140      0.000041      0.000005
    22   Atom       -0.003891      0.000023      0.000003
    23   Atom        0.003891      0.000022      0.000002
    24   Atom        0.007140      0.000039      0.000003
    25   Atom        0.000000     -0.000010     -0.000001
    26   Atom       -0.007140      0.000039      0.000003
 --------------------------------------------------------


 ---------------------------------------------------------------------------------
              Anisotropic Spin Dipole Couplings in Principal Axis System
 ---------------------------------------------------------------------------------

       Atom             a.u.   MegaHertz   Gauss  10(-4) cm-1        Axes

              Baa    -0.0793   -10.635    -3.795    -3.548  0.0001  0.0000  1.0000
     1 C(13)  Bbb     0.0376     5.047     1.801     1.683  1.0000  0.0000 -0.0001
              Bcc     0.0416     5.589     1.994     1.864  0.0000  1.0000  0.0000
 
              Baa    -0.1137   -15.263    -5.446    -5.091 -0.2657  0.9640  0.0000
     2 C(13)  Bbb    -0.1119   -15.019    -5.359    -5.010  0.9640  0.2657 -0.0001
              Bcc     0.2257    30.283    10.806    10.101  0.0001  0.0000  1.0000
 
              Baa    -0.0071    -0.954    -0.340    -0.318  0.3915  0.9202 -0.0001
     3 C(13)  Bbb     0.0029     0.396     0.141     0.132  0.0001  0.0000  1.0000
              Bcc     0.0042     0.558     0.199     0.186  0.9202 -0.3915 -0.0001
 
              Baa    -0.0154    -2.070    -0.739    -0.691  0.0001  0.0000  1.0000
     4 C(13)  Bbb     0.0076     1.025     0.366     0.342  1.0000  0.0000 -0.0001
              Bcc     0.0078     1.045     0.373     0.349  0.0000  1.0000  0.0000
 
              Baa    -0.0071    -0.954    -0.340    -0.318 -0.3915  0.9202  0.0000
     5 C(13)  Bbb     0.0029     0.396     0.141     0.132  0.0003  0.0001  1.0000
              Bcc     0.0042     0.558     0.199     0.186  0.9202  0.3915 -0.0003
 
              Baa    -0.1137   -15.263    -5.446    -5.091  0.2657  0.9640  0.0000
     6 C(13)  Bbb    -0.1119   -15.019    -5.359    -5.010  0.9640 -0.2657 -0.0001
              Bcc     0.2257    30.283    10.806    10.101  0.0001  0.0000  1.0000
 
              Baa    -0.0697    -9.357    -3.339    -3.121  0.1115  0.9938  0.0000
     7 C(13)  Bbb    -0.0586    -7.867    -2.807    -2.624  0.9938 -0.1115 -0.0001
              Bcc     0.1284    17.224     6.146     5.745  0.0001  0.0000  1.0000
 
              Baa    -0.0154    -2.070    -0.739    -0.691  0.0001  0.0000  1.0000
     8 C(13)  Bbb     0.0076     1.025     0.366     0.342  1.0000  0.0000 -0.0001
              Bcc     0.0078     1.045     0.373     0.349  0.0000  1.0000  0.0000
 
              Baa    -0.0071    -0.954    -0.340    -0.318 -0.3915  0.9202  0.0000
     9 C(13)  Bbb     0.0029     0.396     0.141     0.132  0.0001  0.0000  1.0000
              Bcc     0.0042     0.558     0.199     0.186  0.9202  0.3915 -0.0001
 
              Baa    -0.0697    -9.357    -3.339    -3.121 -0.1115  0.9938  0.0000
    10 C(13)  Bbb    -0.0586    -7.867    -2.807    -2.624  0.9938  0.1115 -0.0001
              Bcc     0.1284    17.224     6.146     5.745  0.0001  0.0000  1.0000
 
              Baa    -0.1137   -15.263    -5.446    -5.091  0.2657  0.9640  0.0000
    11 C(13)  Bbb    -0.1119   -15.019    -5.359    -5.010  0.9640 -0.2657 -0.0001
              Bcc     0.2257    30.283    10.806    10.101  0.0001  0.0000  1.0000
 
              Baa    -0.0793   -10.635    -3.795    -3.548  0.0001  0.0000  1.0000
    12 C(13)  Bbb     0.0376     5.047     1.801     1.683  1.0000  0.0000 -0.0001
              Bcc     0.0416     5.589     1.994     1.864  0.0000  1.0000  0.0000
 
              Baa    -0.1137   -15.263    -5.446    -5.091 -0.2657  0.9640  0.0000
    13 C(13)  Bbb    -0.1119   -15.019    -5.359    -5.010  0.9640  0.2657 -0.0001
              Bcc     0.2257    30.283    10.806    10.101  0.0001  0.0000  1.0000
 
              Baa    -0.0071    -0.954    -0.340    -0.318  0.3915  0.9202 -0.0001
    14 C(13)  Bbb     0.0029     0.396     0.141     0.132  0.0001  0.0000  1.0000
              Bcc     0.0042     0.558     0.199     0.186  0.9202 -0.3915 -0.0001
 
              Baa    -0.0697    -9.357    -3.339    -3.121  0.1115  0.9938  0.0000
    15 C(13)  Bbb    -0.0586    -7.867    -2.807    -2.624  0.9938 -0.1115 -0.0001
              Bcc     0.1284    17.224     6.146     5.745  0.0001  0.0000  1.0000
 
              Baa    -0.0697    -9.357    -3.339    -3.121 -0.1115  0.9938  0.0000
    16 C(13)  Bbb    -0.0586    -7.867    -2.807    -2.624  0.9938  0.1115 -0.0001
              Bcc     0.1284    17.224     6.146     5.745  0.0001  0.0000  1.0000
 
              Baa    -0.0765   -38.413   -13.707   -12.813  0.5631  0.8264 -0.0001
    17 F(19)  Bbb    -0.0681   -34.214   -12.208   -11.413  0.8264 -0.5631 -0.0001
              Bcc     0.1446    72.627    25.915    24.226  0.0001  0.0000  1.0000
 
              Baa    -0.0765   -38.413   -13.707   -12.813 -0.5631  0.8264  0.0001
    18 F(19)  Bbb    -0.0681   -34.214   -12.208   -11.413  0.8264  0.5631 -0.0001
              Bcc     0.1446    72.627    25.915    24.226  0.0001  0.0000  1.0000
 
              Baa    -0.1371   -68.849   -24.567   -22.966 -0.4738  0.8807  0.0000
    19 F(19)  Bbb    -0.1200   -60.254   -21.500   -20.099  0.8807  0.4738 -0.0001
              Bcc     0.2571   129.103    46.067    43.064  0.0001  0.0000  1.0000
 
              Baa    -0.0618   -31.027   -11.071   -10.350  0.0001  0.0000  1.0000
    20 F(19)  Bbb     0.0235    11.818     4.217     3.942  0.0000  1.0000  0.0000
              Bcc     0.0382    19.209     6.854     6.407  1.0000  0.0000 -0.0001
 
              Baa    -0.1371   -68.849   -24.567   -22.966  0.4738  0.8807 -0.0001
    21 F(19)  Bbb    -0.1200   -60.254   -21.500   -20.099  0.8807 -0.4738 -0.0001
              Bcc     0.2571   129.103    46.067    43.064  0.0001  0.0000  1.0000
 
              Baa    -0.0765   -38.413   -13.707   -12.813  0.5631  0.8264 -0.0001
    22 F(19)  Bbb    -0.0681   -34.214   -12.208   -11.413  0.8264 -0.5631 -0.0001
              Bcc     0.1446    72.627    25.915    24.226  0.0001  0.0000  1.0000
 
              Baa    -0.0765   -38.413   -13.707   -12.813 -0.5631  0.8264  0.0000
    23 F(19)  Bbb    -0.0681   -34.214   -12.208   -11.413  0.8264  0.5631 -0.0001
              Bcc     0.1446    72.627    25.915    24.226  0.0001  0.0000  1.0000
 
              Baa    -0.1371   -68.849   -24.567   -22.966 -0.4738  0.8807  0.0000
    24 F(19)  Bbb    -0.1200   -60.254   -21.500   -20.099  0.8807  0.4738 -0.0001
              Bcc     0.2571   129.103    46.067    43.064  0.0001  0.0000  1.0000
 
              Baa    -0.0618   -31.027   -11.071   -10.350  0.0001  0.0000  1.0000
    25 F(19)  Bbb     0.0235    11.818     4.217     3.942  0.0000  1.0000  0.0000
              Bcc     0.0382    19.209     6.854     6.407  1.0000  0.0000 -0.0001
 
              Baa    -0.1371   -68.849   -24.567   -22.966  0.4738  0.8807 -0.0001
    26 F(19)  Bbb    -0.1200   -60.254   -21.500   -20.099  0.8807 -0.4738 -0.0001
              Bcc     0.2571   129.103    46.067    43.064  0.0001  0.0000  1.0000
 

 ---------------------------------------------------------------------------------

 Calculating spin-rotation constants.
 Leave Link  601 at Sat Mar 12 15:57:50 2011, MaxMem= 4294967296 cpu:     302.1
 (Enter /system/software/orac/g03_E.01/g03/l9999.exe)
 1\1\GINC-ORAC\SP\UB3LYP\EPR-II\C16F10(1+,2)\KUPROV\12-Mar-2011\0\\#p n
 mr=giao b3lyp/EPR-II scf=tight integral=(grid=ultrafine) geom=checkpoi
 nt\\Perfluoropyrene cation radical.\\1,2\C,0,-4.381877676,-4.561947147
 1,0.0015185503\C,0,-2.9825265831,-4.5505286185,0.0015813179\C,0,-2.250
 3698358,-3.3248075586,0.0017334353\C,0,-2.9726110066,-2.0848394584,0.0
 018214407\C,0,-4.4075295339,-2.0975644901,0.0017565142\C,0,-5.08706842
 86,-3.3532205066,0.0016053406\C,0,-0.8306238067,-3.2867234579,0.001799
 6366\C,0,-2.2675581076,-0.8455480594,0.001970971\C,0,-0.8326394824,-0.
 8328231216,0.0020352399\C,0,-0.1399497773,-2.0727065237,0.0019468634\C
 ,0,-0.1531005443,0.4228332474,0.0021823819\C,0,-0.8582913296,1.6315597
 306,0.0022650474\C,0,-2.257642531,1.6201410892,0.0022023765\C,0,-2.989
 7994793,0.3944200275,0.0020548218\C,0,-4.4095459169,0.3563354278,0.001
 9865726\C,0,-5.1002195128,-0.8576815789,0.0018430788\F,0,-5.1193431054
 ,1.4688900645,0.0020587474\F,0,-6.4192543027,-0.8160022796,0.001783704
 1\F,0,-6.4009172206,-3.4090036372,0.0015387022\F,0,-5.0348420987,-5.70
 96807515,0.0013773192\F,0,-2.3591598102,-5.7084251079,0.0014953781\F,0
 ,-0.1208273375,-4.3992785694,0.0017207413\F,0,1.1790849567,-2.11438697
 24,0.0019973519\F,0,1.1607482262,0.478616783,0.0022439695\F,0,-0.20532
 71771,2.7792935307,0.0023997801\F,0,-2.8810085788,2.7780379377,0.00228
 07172\\Version=IA64L-G03RevE.01\State=2-A\HF=-1608.1327357\S2=0.767412
 \S2-1=0.\S2A=0.750254\RMSD=5.515e-09\Thermal=0.\Dipole=-0.0000045,0.00
 0002,0.0000071\PG=C01 [X(C16F10)]\\@


 FROM THE ASHES OF OUR DESPAIR GROW THE FLOWERS OF TOMORROW.
 Job cpu time:  0 days  3 hours 46 minutes 55.8 seconds.
 File lengths (MBytes):  RWF=    223 Int=      0 D2E=      0 Chk=     23 Scr=      1
 Normal termination of Gaussian 03 at Sat Mar 12 15:57:51 2011.
