 Entering Gaussian System, Link 0=g03
 Input=pfp.com
 Output=pfp.log
 Initial command:
 /system/software/orac/g03_E.01/g03/l1.exe /scratch/pbs.90238.orac/Gau-85741.inp -scrdir=/scratch/pbs.90238.orac/
 Entering Link 1 = /system/software/orac/g03_E.01/g03/l1.exe PID=     85742.
  
 Copyright (c) 1988,1990,1992,1993,1995,1998,2003,2004,2007, Gaussian, Inc.
                  All Rights Reserved.
  
 This is the Gaussian(R) 03 program.  It is based on the
 the Gaussian(R) 98 system (copyright 1998, Gaussian, Inc.),
 the Gaussian(R) 94 system (copyright 1995, Gaussian, Inc.),
 the Gaussian 92(TM) system (copyright 1992, Gaussian, Inc.),
 the Gaussian 90(TM) system (copyright 1990, Gaussian, Inc.),
 the Gaussian 88(TM) system (copyright 1988, Gaussian, Inc.),
 the Gaussian 86(TM) system (copyright 1986, Carnegie Mellon
 University), and the Gaussian 82(TM) system (copyright 1983,
 Carnegie Mellon University). Gaussian is a federally registered
 trademark of Gaussian, Inc.
  
 This software contains proprietary and confidential information,
 including trade secrets, belonging to Gaussian, Inc.
  
 This software is provided under written license and may be
 used, copied, transmitted, or stored only in accord with that
 written license.
  
 The following legend is applicable only to US Government
 contracts under FAR:
  
                    RESTRICTED RIGHTS LEGEND
  
 Use, reproduction and disclosure by the US Government is
 subject to restrictions as set forth in subparagraphs (a)
 and (c) of the Commercial Computer Software - Restricted
 Rights clause in FAR 52.227-19.
  
 Gaussian, Inc.
 340 Quinnipiac St., Bldg. 40, Wallingford CT 06492
  
  
 ---------------------------------------------------------------
 Warning -- This program may not be used in any manner that
 competes with the business of Gaussian, Inc. or will provide
 assistance to any competitor of Gaussian, Inc.  The licensee
 of this program is prohibited from giving any competitor of
 Gaussian, Inc. access to this program.  By using this program,
 the user acknowledges that Gaussian, Inc. is engaged in the
 business of creating and licensing software in the field of
 computational chemistry and represents and warrants to the
 licensee that it is not a competitor of Gaussian, Inc. and that
 it will not use this program in any manner prohibited above.
 ---------------------------------------------------------------
  

 Cite this work as:
 Gaussian 03, Revision E.01,
 M. J. Frisch, G. W. Trucks, H. B. Schlegel, G. E. Scuseria, 
 M. A. Robb, J. R. Cheeseman, J. A. Montgomery, Jr., T. Vreven, 
 K. N. Kudin, J. C. Burant, J. M. Millam, S. S. Iyengar, J. Tomasi, 
 V. Barone, B. Mennucci, M. Cossi, G. Scalmani, N. Rega, 
 G. A. Petersson, H. Nakatsuji, M. Hada, M. Ehara, K. Toyota, 
 R. Fukuda, J. Hasegawa, M. Ishida, T. Nakajima, Y. Honda, O. Kitao, 
 H. Nakai, M. Klene, X. Li, J. E. Knox, H. P. Hratchian, J. B. Cross, 
 V. Bakken, C. Adamo, J. Jaramillo, R. Gomperts, R. E. Stratmann, 
 O. Yazyev, A. J. Austin, R. Cammi, C. Pomelli, J. W. Ochterski, 
 P. Y. Ayala, K. Morokuma, G. A. Voth, P. Salvador, J. J. Dannenberg, 
 V. G. Zakrzewski, S. Dapprich, A. D. Daniels, M. C. Strain, 
 O. Farkas, D. K. Malick, A. D. Rabuck, K. Raghavachari, 
 J. B. Foresman, J. V. Ortiz, Q. Cui, A. G. Baboul, S. Clifford, 
 J. Cioslowski, B. B. Stefanov, G. Liu, A. Liashenko, P. Piskorz, 
 I. Komaromi, R. L. Martin, D. J. Fox, T. Keith, M. A. Al-Laham, 
 C. Y. Peng, A. Nanayakkara, M. Challacombe, P. M. W. Gill, 
 B. Johnson, W. Chen, M. W. Wong, C. Gonzalez, and J. A. Pople, 
 Gaussian, Inc., Wallingford CT, 2004.
 
 ******************************************
 Gaussian 03:  IA64L-G03RevE.01 11-Sep-2007
                12-Mar-2011 
 ******************************************
 %Mem=32GB
 %NProcShared=32
 Will use up to   32 processors via shared memory.
 %Chk=pfp_neutral.chk
 -------------------------------------------------------------
 #p opt=tight b3lyp/EPR-II scf=tight integral=(grid=ultrafine)
 -------------------------------------------------------------
 1/7=10,14=-1,18=20,26=3,38=1/1,3;
 2/9=110,17=6,18=5,40=1/2;
 3/5=21,11=2,16=1,25=1,30=1,74=-5,75=5/1,2,3;
 4//1;
 5/5=2,32=2,38=5/2;
 6/7=2,8=2,9=2,10=2,28=1/1;
 7//1,2,3,16;
 1/14=-1,18=20/3(3);
 2/9=110/2;
 6/7=2,8=2,9=2,10=2,19=2,28=1/1;
 99//99;
 2/9=110/2;
 3/5=21,11=2,16=1,25=1,30=1,74=-5,75=5/1,2,3;
 4/5=5,16=3/1;
 5/5=2,32=2,38=5/2;
 7//1,2,3,16;
 1/14=-1,18=20/3(-5);
 2/9=110/2;
 6/7=2,8=2,9=2,10=2,19=2,28=1/1;
 99/9=1/99;
 Leave Link    1 at Sat Mar 12 14:35:21 2011, MaxMem= 4294967296 cpu:       3.5
 (Enter /system/software/orac/g03_E.01/g03/l101.exe)
 ---------------------------------
 Perfluoropyrene neutral molecule.
 ---------------------------------
 Symbolic Z-matrix:
 Charge =  0 Multiplicity = 1
 C                    -4.35865  -4.52119   0.00177 
 C                    -2.96581  -4.52119   0.00177 
 C                    -2.25734  -3.31271   0.00177 
 C                    -2.97446  -2.0881    0.00181 
 C                    -4.39359  -2.09744   0.00184 
 C                    -5.0704   -3.32385   0.00174 
 C                    -0.81829  -3.27063   0.00184 
 C                    -2.26567  -0.84229   0.00203 
 C                    -0.84658  -0.83297   0.00206 
 C                    -0.14746  -2.09149   0.00193 
 C                    -0.16974   0.39352   0.00222 
 C                    -0.88146   1.59079   0.00237 
 C                    -2.27438   1.59079   0.0024 
 C                    -2.9828    0.38235   0.00219 
 C                    -4.42189   0.34022   0.00198 
 C                    -5.09271  -0.83889   0.00183 
 F                    -5.08198   1.51784   0.00208 
 F                    -6.44227  -0.87329   0.00119 
 F                    -6.42031  -3.3396    0.00127 
 F                    -5.02627  -5.69456   0.00145 
 F                    -2.28966  -5.68966   0.00166 
 F                    -0.15836  -4.44833   0.00148 
 F                     1.2021   -2.05722   0.00158 
 F                     1.18017   0.40931   0.00218 
 F                    -0.21397   2.76423   0.00234 
 F                    -2.95042   2.75932   0.00242 
 
                    Isotopes and Nuclear Properties:
 (Nuclear quadrupole moments (NQMom) in fm**2, nuclear magnetic moments (NMagM)
  in nuclear magnetons)

  Atom         1           2           3           4           5           6           7           8           9          10
 IAtWgt=          12          12          12          12          12          12          12          12          12          12
 AtmWgt=  12.0000000  12.0000000  12.0000000  12.0000000  12.0000000  12.0000000  12.0000000  12.0000000  12.0000000  12.0000000
 NucSpn=           0           0           0           0           0           0           0           0           0           0
 AtZEff=   0.0000000   0.0000000   0.0000000   0.0000000   0.0000000   0.0000000   0.0000000   0.0000000   0.0000000   0.0000000
 NQMom=    0.0000000   0.0000000   0.0000000   0.0000000   0.0000000   0.0000000   0.0000000   0.0000000   0.0000000   0.0000000
 NMagM=    0.0000000   0.0000000   0.0000000   0.0000000   0.0000000   0.0000000   0.0000000   0.0000000   0.0000000   0.0000000

  Atom        11          12          13          14          15          16          17          18          19          20
 IAtWgt=          12          12          12          12          12          12          19          19          19          19
 AtmWgt=  12.0000000  12.0000000  12.0000000  12.0000000  12.0000000  12.0000000  18.9984032  18.9984032  18.9984032  18.9984032
 NucSpn=           0           0           0           0           0           0           1           1           1           1
 AtZEff=   0.0000000   0.0000000   0.0000000   0.0000000   0.0000000   0.0000000   0.0000000   0.0000000   0.0000000   0.0000000
 NQMom=    0.0000000   0.0000000   0.0000000   0.0000000   0.0000000   0.0000000   0.0000000   0.0000000   0.0000000   0.0000000
 NMagM=    0.0000000   0.0000000   0.0000000   0.0000000   0.0000000   0.0000000   2.6288670   2.6288670   2.6288670   2.6288670

  Atom        21          22          23          24          25          26
 IAtWgt=          19          19          19          19          19          19
 AtmWgt=  18.9984032  18.9984032  18.9984032  18.9984032  18.9984032  18.9984032
 NucSpn=           1           1           1           1           1           1
 AtZEff=   0.0000000   0.0000000   0.0000000   0.0000000   0.0000000   0.0000000
 NQMom=    0.0000000   0.0000000   0.0000000   0.0000000   0.0000000   0.0000000
 NMagM=    2.6288670   2.6288670   2.6288670   2.6288670   2.6288670   2.6288670
 Leave Link  101 at Sat Mar 12 14:35:21 2011, MaxMem= 4294967296 cpu:       1.0
 (Enter /system/software/orac/g03_E.01/g03/l103.exe)

 GradGradGradGradGradGradGradGradGradGradGradGradGradGradGradGradGradGrad
 Berny optimization.
 Initialization pass.
                           ----------------------------
                           !    Initial Parameters    !
                           ! (Angstroms and Degrees)  !
 --------------------------                            --------------------------
 ! Name  Definition              Value          Derivative Info.                !
 --------------------------------------------------------------------------------
 ! R1    R(1,2)                  1.3928         estimate D2E/DX2                !
 ! R2    R(1,6)                  1.3929         estimate D2E/DX2                !
 ! R3    R(1,20)                 1.35           estimate D2E/DX2                !
 ! R4    R(2,3)                  1.4008         estimate D2E/DX2                !
 ! R5    R(2,21)                 1.35           estimate D2E/DX2                !
 ! R6    R(3,4)                  1.4191         estimate D2E/DX2                !
 ! R7    R(3,7)                  1.4397         estimate D2E/DX2                !
 ! R8    R(4,5)                  1.4192         estimate D2E/DX2                !
 ! R9    R(4,8)                  1.4333         estimate D2E/DX2                !
 ! R10   R(5,6)                  1.4008         estimate D2E/DX2                !
 ! R11   R(5,16)                 1.4397         estimate D2E/DX2                !
 ! R12   R(6,19)                 1.35           estimate D2E/DX2                !
 ! R13   R(7,10)                 1.3566         estimate D2E/DX2                !
 ! R14   R(7,22)                 1.35           estimate D2E/DX2                !
 ! R15   R(8,9)                  1.4191         estimate D2E/DX2                !
 ! R16   R(8,14)                 1.4192         estimate D2E/DX2                !
 ! R17   R(9,10)                 1.4397         estimate D2E/DX2                !
 ! R18   R(9,11)                 1.4009         estimate D2E/DX2                !
 ! R19   R(10,23)                1.35           estimate D2E/DX2                !
 ! R20   R(11,12)                1.3928         estimate D2E/DX2                !
 ! R21   R(11,24)                1.35           estimate D2E/DX2                !
 ! R22   R(12,13)                1.3929         estimate D2E/DX2                !
 ! R23   R(12,25)                1.35           estimate D2E/DX2                !
 ! R24   R(13,14)                1.4008         estimate D2E/DX2                !
 ! R25   R(13,26)                1.35           estimate D2E/DX2                !
 ! R26   R(14,15)                1.4397         estimate D2E/DX2                !
 ! R27   R(15,16)                1.3566         estimate D2E/DX2                !
 ! R28   R(15,17)                1.35           estimate D2E/DX2                !
 ! R29   R(16,18)                1.35           estimate D2E/DX2                !
 ! A1    A(2,1,6)              120.7291         estimate D2E/DX2                !
 ! A2    A(2,1,20)             119.6389         estimate D2E/DX2                !
 ! A3    A(6,1,20)             119.6321         estimate D2E/DX2                !
 ! A4    A(1,2,3)              120.3809         estimate D2E/DX2                !
 ! A5    A(1,2,21)             120.0564         estimate D2E/DX2                !
 ! A6    A(3,2,21)             119.5627         estimate D2E/DX2                !
 ! A7    A(2,3,4)              119.2663         estimate D2E/DX2                !
 ! A8    A(2,3,7)              122.0559         estimate D2E/DX2                !
 ! A9    A(4,3,7)              118.6779         estimate D2E/DX2                !
 ! A10   A(3,4,5)              119.9757         estimate D2E/DX2                !
 ! A11   A(3,4,8)              120.0099         estimate D2E/DX2                !
 ! A12   A(5,4,8)              120.0143         estimate D2E/DX2                !
 ! A13   A(4,5,6)              119.2698         estimate D2E/DX2                !
 ! A14   A(4,5,16)             118.6749         estimate D2E/DX2                !
 ! A15   A(6,5,16)             122.0553         estimate D2E/DX2                !
 ! A16   A(1,6,5)              120.3783         estimate D2E/DX2                !
 ! A17   A(1,6,19)             120.0606         estimate D2E/DX2                !
 ! A18   A(5,6,19)             119.5611         estimate D2E/DX2                !
 ! A19   A(3,7,10)             121.3111         estimate D2E/DX2                !
 ! A20   A(3,7,22)             117.5894         estimate D2E/DX2                !
 ! A21   A(10,7,22)            121.0995         estimate D2E/DX2                !
 ! A22   A(4,8,9)              120.0135         estimate D2E/DX2                !
 ! A23   A(4,8,14)             120.0102         estimate D2E/DX2                !
 ! A24   A(9,8,14)             119.9763         estimate D2E/DX2                !
 ! A25   A(8,9,10)             118.6763         estimate D2E/DX2                !
 ! A26   A(8,9,11)             119.2685         estimate D2E/DX2                !
 ! A27   A(10,9,11)            122.0552         estimate D2E/DX2                !
 ! A28   A(7,10,9)             121.3112         estimate D2E/DX2                !
 ! A29   A(7,10,23)            121.0908         estimate D2E/DX2                !
 ! A30   A(9,10,23)            117.598          estimate D2E/DX2                !
 ! A31   A(9,11,12)            120.3784         estimate D2E/DX2                !
 ! A32   A(9,11,24)            119.5623         estimate D2E/DX2                !
 ! A33   A(12,11,24)           120.0593         estimate D2E/DX2                !
 ! A34   A(11,12,13)           120.7295         estimate D2E/DX2                !
 ! A35   A(11,12,25)           119.6379         estimate D2E/DX2                !
 ! A36   A(13,12,25)           119.6326         estimate D2E/DX2                !
 ! A37   A(12,13,14)           120.38           estimate D2E/DX2                !
 ! A38   A(12,13,26)           120.051          estimate D2E/DX2                !
 ! A39   A(14,13,26)           119.569          estimate D2E/DX2                !
 ! A40   A(8,14,13)            119.2675         estimate D2E/DX2                !
 ! A41   A(8,14,15)            118.6757         estimate D2E/DX2                !
 ! A42   A(13,14,15)           122.0569         estimate D2E/DX2                !
 ! A43   A(14,15,16)           121.3133         estimate D2E/DX2                !
 ! A44   A(14,15,17)           117.595          estimate D2E/DX2                !
 ! A45   A(16,15,17)           121.0917         estimate D2E/DX2                !
 ! A46   A(5,16,15)            121.3115         estimate D2E/DX2                !
 ! A47   A(5,16,18)            117.5919         estimate D2E/DX2                !
 ! A48   A(15,16,18)           121.0966         estimate D2E/DX2                !
 ! D1    D(6,1,2,3)              0.0014         estimate D2E/DX2                !
 ! D2    D(6,1,2,21)          -179.9932         estimate D2E/DX2                !
 ! D3    D(20,1,2,3)           179.9844         estimate D2E/DX2                !
 ! D4    D(20,1,2,21)           -0.0102         estimate D2E/DX2                !
 ! D5    D(2,1,6,5)             -0.0062         estimate D2E/DX2                !
 ! D6    D(2,1,6,19)           179.9769         estimate D2E/DX2                !
 ! D7    D(20,1,6,5)          -179.9891         estimate D2E/DX2                !
 ! D8    D(20,1,6,19)           -0.006          estimate D2E/DX2                !
 ! D9    D(1,2,3,4)              0.0019         estimate D2E/DX2                !
 ! D10   D(1,2,3,7)            179.9967         estimate D2E/DX2                !
 ! D11   D(21,2,3,4)           179.9965         estimate D2E/DX2                !
 ! D12   D(21,2,3,7)            -0.0087         estimate D2E/DX2                !
 ! D13   D(2,3,4,5)             -0.0004         estimate D2E/DX2                !
 ! D14   D(2,3,4,8)            179.9899         estimate D2E/DX2                !
 ! D15   D(7,3,4,5)           -179.9955         estimate D2E/DX2                !
 ! D16   D(7,3,4,8)             -0.0052         estimate D2E/DX2                !
 ! D17   D(2,3,7,10)          -179.9955         estimate D2E/DX2                !
 ! D18   D(2,3,7,22)             0.0204         estimate D2E/DX2                !
 ! D19   D(4,3,7,10)            -0.0006         estimate D2E/DX2                !
 ! D20   D(4,3,7,22)          -179.9847         estimate D2E/DX2                !
 ! D21   D(3,4,5,6)             -0.0042         estimate D2E/DX2                !
 ! D22   D(3,4,5,16)          -179.9977         estimate D2E/DX2                !
 ! D23   D(8,4,5,6)           -179.9945         estimate D2E/DX2                !
 ! D24   D(8,4,5,16)             0.012          estimate D2E/DX2                !
 ! D25   D(3,4,8,9)              0.0069         estimate D2E/DX2                !
 ! D26   D(3,4,8,14)          -179.9944         estimate D2E/DX2                !
 ! D27   D(5,4,8,9)            179.9972         estimate D2E/DX2                !
 ! D28   D(5,4,8,14)            -0.0041         estimate D2E/DX2                !
 ! D29   D(4,5,6,1)              0.0075         estimate D2E/DX2                !
 ! D30   D(4,5,6,19)          -179.9757         estimate D2E/DX2                !
 ! D31   D(16,5,6,1)          -179.9992         estimate D2E/DX2                !
 ! D32   D(16,5,6,19)            0.0176         estimate D2E/DX2                !
 ! D33   D(4,5,16,15)           -0.0093         estimate D2E/DX2                !
 ! D34   D(4,5,16,18)          179.968          estimate D2E/DX2                !
 ! D35   D(6,5,16,15)          179.9974         estimate D2E/DX2                !
 ! D36   D(6,5,16,18)           -0.0254         estimate D2E/DX2                !
 ! D37   D(3,7,10,9)             0.0047         estimate D2E/DX2                !
 ! D38   D(3,7,10,23)         -179.9794         estimate D2E/DX2                !
 ! D39   D(22,7,10,9)          179.9882         estimate D2E/DX2                !
 ! D40   D(22,7,10,23)           0.0041         estimate D2E/DX2                !
 ! D41   D(4,8,9,10)            -0.0029         estimate D2E/DX2                !
 ! D42   D(4,8,9,11)           179.9974         estimate D2E/DX2                !
 ! D43   D(14,8,9,10)          179.9984         estimate D2E/DX2                !
 ! D44   D(14,8,9,11)           -0.0013         estimate D2E/DX2                !
 ! D45   D(4,8,14,13)         -179.9998         estimate D2E/DX2                !
 ! D46   D(4,8,14,15)           -0.0066         estimate D2E/DX2                !
 ! D47   D(9,8,14,13)           -0.0011         estimate D2E/DX2                !
 ! D48   D(9,8,14,15)          179.9921         estimate D2E/DX2                !
 ! D49   D(8,9,10,7)            -0.0029         estimate D2E/DX2                !
 ! D50   D(8,9,10,23)          179.9817         estimate D2E/DX2                !
 ! D51   D(11,9,10,7)          179.9968         estimate D2E/DX2                !
 ! D52   D(11,9,10,23)          -0.0185         estimate D2E/DX2                !
 ! D53   D(8,9,11,12)            0.001          estimate D2E/DX2                !
 ! D54   D(8,9,11,24)         -179.9966         estimate D2E/DX2                !
 ! D55   D(10,9,11,12)        -179.9987         estimate D2E/DX2                !
 ! D56   D(10,9,11,24)           0.0037         estimate D2E/DX2                !
 ! D57   D(9,11,12,13)           0.0017         estimate D2E/DX2                !
 ! D58   D(9,11,12,25)        -179.9911         estimate D2E/DX2                !
 ! D59   D(24,11,12,13)        179.9994         estimate D2E/DX2                !
 ! D60   D(24,11,12,25)          0.0066         estimate D2E/DX2                !
 ! D61   D(11,12,13,14)         -0.0042         estimate D2E/DX2                !
 ! D62   D(11,12,13,26)       -179.9938         estimate D2E/DX2                !
 ! D63   D(25,12,13,14)        179.9886         estimate D2E/DX2                !
 ! D64   D(25,12,13,26)         -0.001          estimate D2E/DX2                !
 ! D65   D(12,13,14,8)           0.0039         estimate D2E/DX2                !
 ! D66   D(12,13,14,15)       -179.9891         estimate D2E/DX2                !
 ! D67   D(26,13,14,8)         179.9935         estimate D2E/DX2                !
 ! D68   D(26,13,14,15)          0.0006         estimate D2E/DX2                !
 ! D69   D(8,14,15,16)           0.0096         estimate D2E/DX2                !
 ! D70   D(8,14,15,17)        -179.9972         estimate D2E/DX2                !
 ! D71   D(13,14,15,16)       -179.9974         estimate D2E/DX2                !
 ! D72   D(13,14,15,17)         -0.0043         estimate D2E/DX2                !
 ! D73   D(14,15,16,5)          -0.0016         estimate D2E/DX2                !
 ! D74   D(14,15,16,18)       -179.978          estimate D2E/DX2                !
 ! D75   D(17,15,16,5)        -179.9945         estimate D2E/DX2                !
 ! D76   D(17,15,16,18)          0.029          estimate D2E/DX2                !
 --------------------------------------------------------------------------------
 Trust Radius=3.00D-01 FncErr=1.00D-07 GrdErr=1.00D-06
 Number of steps in this run= 156 maximum allowed number of steps= 156.
 GradGradGradGradGradGradGradGradGradGradGradGradGradGradGradGradGradGrad

 Leave Link  103 at Sat Mar 12 14:35:21 2011, MaxMem= 4294967296 cpu:       0.7
 (Enter /system/software/orac/g03_E.01/g03/l202.exe)
                          Input orientation:                          
 ---------------------------------------------------------------------
 Center     Atomic     Atomic              Coordinates (Angstroms)
 Number     Number      Type              X           Y           Z
 ---------------------------------------------------------------------
    1          6             0       -4.358650   -4.521190    0.001770
    2          6             0       -2.965810   -4.521190    0.001770
    3          6             0       -2.257340   -3.312710    0.001770
    4          6             0       -2.974460   -2.088100    0.001810
    5          6             0       -4.393590   -2.097440    0.001840
    6          6             0       -5.070400   -3.323850    0.001740
    7          6             0       -0.818290   -3.270630    0.001840
    8          6             0       -2.265670   -0.842290    0.002030
    9          6             0       -0.846580   -0.832970    0.002060
   10          6             0       -0.147460   -2.091490    0.001930
   11          6             0       -0.169740    0.393520    0.002220
   12          6             0       -0.881460    1.590790    0.002370
   13          6             0       -2.274380    1.590790    0.002400
   14          6             0       -2.982800    0.382350    0.002190
   15          6             0       -4.421890    0.340220    0.001980
   16          6             0       -5.092710   -0.838890    0.001830
   17          9             0       -5.081980    1.517840    0.002080
   18          9             0       -6.442270   -0.873290    0.001190
   19          9             0       -6.420310   -3.339600    0.001270
   20          9             0       -5.026270   -5.694560    0.001450
   21          9             0       -2.289660   -5.689660    0.001660
   22          9             0       -0.158360   -4.448330    0.001480
   23          9             0        1.202100   -2.057220    0.001580
   24          9             0        1.180170    0.409310    0.002180
   25          9             0       -0.213970    2.764230    0.002340
   26          9             0       -2.950420    2.759320    0.002420
 ---------------------------------------------------------------------
                    Distance matrix (angstroms):
                    1          2          3          4          5
     1  C    0.000000
     2  C    1.392840   0.000000
     3  C    2.424031   1.400840   0.000000
     4  C    2.799269   2.433105   1.419130   0.000000
     5  C    2.424002   2.813027   2.457732   1.419161   0.000000
     6  C    1.392915   2.421347   2.813082   2.433114   1.400769
     7  C    3.754737   2.485104   1.439665   2.459156   3.762864
     8  C    4.232596   3.744930   2.470434   1.433327   2.470515
     9  C    5.092897   4.253716   2.852955   2.470471   3.765656
    10  C    4.861848   3.721094   2.437821   2.827002   4.246134
    11  C    6.457658   5.654413   4.253730   3.744982   4.903651
    12  C    7.031867   6.457617   5.092873   4.232597   5.092946
    13  C    6.457591   6.150965   4.903530   3.744909   4.253715
    14  C    5.092904   4.903569   3.765602   2.470464   2.853014
    15  C    4.861821   5.074788   4.246078   2.826976   2.437824
    16  C    3.754754   4.252415   3.762859   2.459168   1.439693
    17  F    6.082194   6.399067   5.595785   4.176655   3.680235
    18  F    4.201029   5.039142   4.844008   3.674435   2.386553
    19  F    2.376257   3.650990   4.163057   3.666079   2.377090
    20  F    1.350005   2.371137   3.652422   4.149274   3.652336
    21  F    2.376140   1.350000   2.377170   3.666086   4.163000
    22  F    4.200922   2.808395   2.386493   3.674385   4.843951
    23  F    6.082194   4.841758   3.680215   4.176674   5.595835
    24  F    7.415414   6.441970   5.066548   4.847474   6.111513
    25  F    8.381868   7.787809   6.411284   5.582599   6.411323
    26  F    7.415453   7.280526   6.111457   4.847480   5.066642
                    6          7          8          9         10
     6  C    0.000000
     7  C    4.252443   0.000000
     8  C    3.744950   2.826967   0.000000
     9  C    4.903584   2.437824   1.419121   0.000000
    10  C    5.074845   1.356608   2.459129   1.439667   0.000000
    11  C    6.151041   3.721104   2.433136   1.400853   2.485110
    12  C    6.457624   4.861830   2.799271   2.424011   3.754723
    13  C    5.654327   5.074801   2.433096   2.813046   4.252408
    14  C    4.253703   4.246100   1.419161   2.457730   3.762850
    15  C    3.721018   5.101389   2.459190   3.762873   4.917720
    16  C    2.485060   4.917726   2.827042   4.246134   5.101422
    17  F    4.841704   6.411591   3.674482   4.844060   6.113653
    18  F    2.808429   6.113623   4.176715   5.595835   6.411602
    19  F    1.350002   5.602445   4.847431   6.111437   6.395813
    20  F    2.371121   4.856185   5.582601   6.411308   6.065056
    21  F    3.650969   2.831366   4.847429   5.066549   4.187583
    22  F    5.039106   1.349994   4.176635   3.680282   2.356865
    23  F    6.399110   2.356765   3.674437   2.386604   1.349995
    24  F    7.280529   4.187577   3.666104   2.377178   2.831360
    25  F    7.787787   6.065042   4.149272   3.652402   4.856175
    26  F    6.441993   6.395801   3.666126   4.163015   5.602405
                   11         12         13         14         15
    11  C    0.000000
    12  C    1.392839   0.000000
    13  C    2.421356   1.392920   0.000000
    14  C    2.813082   2.424037   1.400781   0.000000
    15  C    4.252484   3.754806   2.485101   1.439707   0.000000
    16  C    5.074886   4.861890   3.721066   2.437857   1.356577
    17  F    5.039266   4.201153   2.808548   2.386607   1.350003
    18  F    6.399175   6.082294   4.841797   3.680294   2.356808
    19  F    7.280509   7.415363   6.441854   5.066497   4.187452
    20  F    7.787850   8.381872   7.787761   6.411287   6.064969
    21  F    6.441983   7.415388   7.280466   6.111444   6.395769
    22  F    4.841863   6.082257   6.399102   5.595796   6.411544
    23  F    2.808571   4.201095   5.039235   4.844057   6.113672
    24  F    1.350002   2.376176   3.651001   4.163057   5.602486
    25  F    2.371123   1.350002   2.371129   3.652365   4.856173
    26  F    3.650916   2.376143   1.349997   2.377191   2.831478
                   16         17         18         19         20
    16  C    0.000000
    17  F    2.356754   0.000000
    18  F    1.349999   2.750980   0.000000
    19  F    2.831267   5.038437   2.466408   0.000000
    20  F    4.856125   7.212615   5.024908   2.736637   0.000000
    21  F    5.602415   7.729496   6.359370   4.752373   2.736614
    22  F    6.113581   7.735452   7.229691   6.359347   5.024902
    23  F    6.411627   7.229849   7.735508   7.729530   7.212686
    24  F    6.395860   6.359510   7.729596   8.474764   8.705006
    25  F    6.065029   5.025038   7.212716   8.704907   9.731873
    26  F    4.187663   2.466743   5.038737   7.016906   8.705012
                   21         22         23         24         25
    21  F    0.000000
    22  F    2.466443   0.000000
    23  F    5.038552   2.751047   0.000000
    24  F    7.016919   5.038683   2.466628   0.000000
    25  F    8.704984   7.212774   5.025100   2.736654   0.000000
    26  F    8.474778   7.729542   6.359440   4.752296   2.736454
                   26
    26  F    0.000000
 Stoichiometry    C16F10
 Framework group  C1[X(C16F10)]
 Deg. of freedom    72
 Full point group                 C1
 Largest Abelian subgroup         C1      NOp   1
 Largest concise Abelian subgroup C1      NOp   1
                         Standard orientation:                         
 ---------------------------------------------------------------------
 Center     Atomic     Atomic              Coordinates (Angstroms)
 Number     Number      Type              X           Y           Z
 ---------------------------------------------------------------------
    1          6             0       -3.515923   -0.000071   -0.000102
    2          6             0       -2.827163   -1.210696   -0.000102
    3          6             0       -1.426441   -1.228888   -0.000102
    4          6             0       -0.716653   -0.000014   -0.000062
    5          6             0       -1.426532    1.228843   -0.000032
    6          6             0       -2.827183    1.210651   -0.000132
    7          6             0       -0.678255   -2.458870   -0.000032
    8          6             0        0.716673   -0.000025    0.000158
    9          6             0        1.426515   -1.228857    0.000188
   10          6             0        0.678353   -2.458855    0.000058
   11          6             0        2.827250   -1.210651    0.000348
   12          6             0        3.515944    0.000010    0.000498
   13          6             0        2.827144    1.210705    0.000528
   14          6             0        1.426482    1.228874    0.000318
   15          6             0        0.678233    2.458865    0.000108
   16          6             0       -0.678344    2.458856   -0.000042
   17          9             0        1.375379    3.614934    0.000208
   18          9             0       -1.375601    3.614852   -0.000682
   19          9             0       -3.508403    2.376174   -0.000602
   20          9             0       -4.865928   -0.000023   -0.000422
   21          9             0       -3.508414   -2.376199   -0.000212
   22          9             0       -1.375549   -3.614839   -0.000392
   23          9             0        1.375497   -3.614915   -0.000292
   24          9             0        3.508505   -2.376154    0.000308
   25          9             0        4.865946    0.000110    0.000468
   26          9             0        3.508502    2.376142    0.000548
 ---------------------------------------------------------------------
 Rotational constants (GHZ):      0.2724180      0.1810550      0.1087664
 Leave Link  202 at Sat Mar 12 14:35:21 2011, MaxMem= 4294967296 cpu:       0.6
 (Enter /system/software/orac/g03_E.01/g03/l301.exe)
 Standard basis: EPR-II (5D, 7F)
 There are   472 symmetry adapted basis functions of A   symmetry.
 Integral buffers will be    131072 words long.
 Raffenetti 2 integral format.
 Two-electron integral symmetry is turned on.
   472 basis functions,   836 primitive gaussians,   498 cartesian basis functions
    93 alpha electrons       93 beta electrons
       nuclear repulsion energy      2425.7649422386 Hartrees.
 IExCor= 402 DFT=T Ex=B+HF Corr=LYP ExCW=0 ScaHFX=  0.200000
 ScaDFX=  0.800000  0.720000  1.000000  0.810000
 IRadAn=      5 IRanWt=     -1 IRanGd=            0 ICorTp=0
 NAtoms=   26 NActive=   26 NUniq=   26 SFac= 7.50D-01 NAtFMM=   80 NAOKFM=F Big=F
 Leave Link  301 at Sat Mar 12 14:35:22 2011, MaxMem= 4294967296 cpu:       0.4
 (Enter /system/software/orac/g03_E.01/g03/l302.exe)
 NPDir=0 NMtPBC=     1 NCelOv=     1 NCel=       1 NClECP=     1 NCelD=      1
         NCelK=      1 NCelE2=     1 NClLst=     1 CellRange=     0.0.
 One-electron integrals computed using PRISM.
 NBasis=   472 RedAO= T  NBF=   472
 NBsUse=   472 1.00D-06 NBFU=   472
 Precomputing XC quadrature grid using
 IXCGrd= 2 IRadAn=           5 IRanWt=          -1 IRanGd=           0.
 NRdTot=    2216 NPtTot=      599152 NUsed=      614769 NTot=      614801
 NSgBfM=   476   476   476   476.
 Leave Link  302 at Sat Mar 12 14:35:24 2011, MaxMem= 4294967296 cpu:      23.3
 (Enter /system/software/orac/g03_E.01/g03/l303.exe)
 DipDrv:  MaxL=1.
 Leave Link  303 at Sat Mar 12 14:35:24 2011, MaxMem= 4294967296 cpu:       2.3
 (Enter /system/software/orac/g03_E.01/g03/l401.exe)
 Harris functional with IExCor=  402 diagonalized for initial guess.
 ExpMin= 4.79D-02 ExpMax= 9.99D+03 ExpMxC= 1.51D+03 IAcc=3 IRadAn=         5 AccDes= 0.00D+00
 HarFok:  IExCor= 402 AccDes= 0.00D+00 IRadAn=         5 IDoV=1
 ScaDFX=  1.000000  1.000000  1.000000  1.000000
 Harris En= -1608.44276327672    
 Initial guess orbital symmetries:
       Occupied  (A) (A) (A) (A) (A) (A) (A) (A) (A) (A) (A) (A)
                 (A) (A) (A) (A) (A) (A) (A) (A) (A) (A) (A) (A)
                 (A) (A) (A) (A) (A) (A) (A) (A) (A) (A) (A) (A)
                 (A) (A) (A) (A) (A) (A) (A) (A) (A) (A) (A) (A)
                 (A) (A) (A) (A) (A) (A) (A) (A) (A) (A) (A) (A)
                 (A) (A) (A) (A) (A) (A) (A) (A) (A) (A) (A) (A)
                 (A) (A) (A) (A) (A) (A) (A) (A) (A) (A) (A) (A)
                 (A) (A) (A) (A) (A) (A) (A) (A) (A)
       Virtual   (A) (A) (A) (A) (A) (A) (A) (A) (A) (A) (A) (A)
                 (A) (A) (A) (A) (A) (A) (A) (A) (A) (A) (A) (A)
                 (A) (A) (A) (A) (A) (A) (A) (A) (A) (A) (A) (A)
                 (A) (A) (A) (A) (A) (A) (A) (A) (A) (A) (A) (A)
                 (A) (A) (A) (A) (A) (A) (A) (A) (A) (A) (A) (A)
                 (A) (A) (A) (A) (A) (A) (A) (A) (A) (A) (A) (A)
                 (A) (A) (A) (A) (A) (A) (A) (A) (A) (A) (A) (A)
                 (A) (A) (A) (A) (A) (A) (A) (A) (A) (A) (A) (A)
                 (A) (A) (A) (A) (A) (A) (A) (A) (A) (A) (A) (A)
                 (A) (A) (A) (A) (A) (A) (A) (A) (A) (A) (A) (A)
                 (A) (A) (A) (A) (A) (A) (A) (A) (A) (A) (A) (A)
                 (A) (A) (A) (A) (A) (A) (A) (A) (A) (A) (A) (A)
                 (A) (A) (A) (A) (A) (A) (A) (A) (A) (A) (A) (A)
                 (A) (A) (A) (A) (A) (A) (A) (A) (A) (A) (A) (A)
                 (A) (A) (A) (A) (A) (A) (A) (A) (A) (A) (A) (A)
                 (A) (A) (A) (A) (A) (A) (A) (A) (A) (A) (A) (A)
                 (A) (A) (A) (A) (A) (A) (A) (A) (A) (A) (A) (A)
                 (A) (A) (A) (A) (A) (A) (A) (A) (A) (A) (A) (A)
                 (A) (A) (A) (A) (A) (A) (A) (A) (A) (A) (A) (A)
                 (A) (A) (A) (A) (A) (A) (A) (A) (A) (A) (A) (A)
                 (A) (A) (A) (A) (A) (A) (A) (A) (A) (A) (A) (A)
                 (A) (A) (A) (A) (A) (A) (A) (A) (A) (A) (A) (A)
                 (A) (A) (A) (A) (A) (A) (A) (A) (A) (A) (A) (A)
                 (A) (A) (A) (A) (A) (A) (A) (A) (A) (A) (A) (A)
                 (A) (A) (A) (A) (A) (A) (A) (A) (A) (A) (A) (A)
                 (A) (A) (A) (A) (A) (A) (A) (A) (A) (A) (A) (A)
                 (A) (A) (A) (A) (A) (A) (A) (A) (A) (A) (A) (A)
                 (A) (A) (A) (A) (A) (A) (A) (A) (A) (A) (A) (A)
                 (A) (A) (A) (A) (A) (A) (A) (A) (A) (A) (A) (A)
                 (A) (A) (A) (A) (A) (A) (A) (A) (A) (A) (A) (A)
                 (A) (A) (A) (A) (A) (A) (A) (A) (A) (A) (A) (A)
                 (A) (A) (A) (A) (A) (A) (A)
 The electronic state of the initial guess is 1-A.
 Leave Link  401 at Sat Mar 12 14:35:28 2011, MaxMem= 4294967296 cpu:      47.9
 (Enter /system/software/orac/g03_E.01/g03/l502.exe)
 Closed shell SCF:
 Requested convergence on RMS density matrix=1.00D-08 within 128 cycles.
 Requested convergence on MAX density matrix=1.00D-06.
 Requested convergence on             energy=1.00D-06.
 No special actions if energy rises.
 Using DIIS extrapolation, IDIIS=  1040.
 Integral symmetry usage will be decided dynamically.
       614768 words used for storage of precomputed grid.
 IEnd=   1519333 IEndB=   1519333 NGot=4294967296 MDV=4293713106
 LenX=4293713106
 Fock matrices will be formed incrementally for  20 cycles.

 Cycle   1  Pass 1  IDiag  1:
 Petite list used in FoFDir.
 MinBra= 0 MaxBra= 2 Meth= 1.
 IRaf=       0 NMat=   1 IRICut=       1 DoRegI=T DoRafI=F ISym2E= 1 JSym2E=1.
 E= -1608.20539246461    
 DIIS: error= 2.23D-02 at cycle   1 NSaved=   1.
 NSaved= 1 IEnMin= 1 EnMin= -1608.20539246461     IErMin= 1 ErrMin= 2.23D-02
 ErrMax= 2.23D-02 EMaxC= 1.00D-01 BMatC= 2.60D-01 BMatP= 2.60D-01
 IDIUse=3 WtCom= 7.77D-01 WtEn= 2.23D-01
 Coeff-Com:  0.100D+01
 Coeff-En:   0.100D+01
 Coeff:      0.100D+01
 Gap=     0.129 Goal=   None    Shift=    0.000
 GapD=    0.129 DampG=1.000 DampE=0.500 DampFc=0.5000 IDamp=-1.
 Damping current iteration by 5.00D-01
 RMSDP=1.88D-02 MaxDP=2.27D+00              OVMax= 2.52D-01

 Cycle   2  Pass 1  IDiag  1:
 RMSU=  3.76D-03    CP:  7.75D-01
 E= -1608.28009210573     Delta-E=       -0.074699641119 Rises=F Damp=T
 DIIS: error= 7.76D-03 at cycle   2 NSaved=   2.
 NSaved= 2 IEnMin= 2 EnMin= -1608.28009210573     IErMin= 2 ErrMin= 7.76D-03
 ErrMax= 7.76D-03 EMaxC= 1.00D-01 BMatC= 3.59D-02 BMatP= 2.60D-01
 IDIUse=3 WtCom= 9.22D-01 WtEn= 7.76D-02
 Coeff-Com:  0.625D-01 0.937D+00
 Coeff-En:   0.238D+00 0.762D+00
 Coeff:      0.762D-01 0.924D+00
 Gap=     0.125 Goal=   None    Shift=    0.000
 RMSDP=6.63D-03 MaxDP=6.26D-01 DE=-7.47D-02 OVMax= 2.24D-01

 Cycle   3  Pass 1  IDiag  1:
 RMSU=  3.06D-03    CP:  6.26D-01  1.40D+00
 E= -1608.36240163075     Delta-E=       -0.082309525026 Rises=F Damp=F
 DIIS: error= 1.38D-02 at cycle   3 NSaved=   3.
 NSaved= 3 IEnMin= 3 EnMin= -1608.36240163075     IErMin= 2 ErrMin= 7.76D-03
 ErrMax= 1.38D-02 EMaxC= 1.00D-01 BMatC= 5.35D-02 BMatP= 3.59D-02
 IDIUse=2 WtCom= 0.00D+00 WtEn= 1.00D+00
 Coeff-En:   0.000D+00 0.939D-01 0.906D+00
 Coeff:      0.000D+00 0.939D-01 0.906D+00
 Gap=     0.128 Goal=   None    Shift=    0.000
 RMSDP=3.64D-03 MaxDP=3.22D-01 DE=-8.23D-02 OVMax= 1.90D-01

 Cycle   4  Pass 1  IDiag  1:
 RMSU=  9.44D-04    CP:  5.99D-01  1.80D+00  1.91D-02
 E= -1608.22206540634     Delta-E=        0.140336224410 Rises=F Damp=F
 DIIS: error= 2.16D-02 at cycle   4 NSaved=   4.
 NSaved= 4 IEnMin= 3 EnMin= -1608.36240163075     IErMin= 2 ErrMin= 7.76D-03
 ErrMax= 2.16D-02 EMaxC= 1.00D-01 BMatC= 1.81D-01 BMatP= 3.59D-02
 IDIUse=2 WtCom= 0.00D+00 WtEn= 1.00D+00
 Coeff-En:   0.000D+00 0.000D+00 0.718D+00 0.282D+00
 Coeff:      0.000D+00 0.000D+00 0.718D+00 0.282D+00
 Gap=     0.133 Goal=   None    Shift=    0.000
 RMSDP=1.97D-03 MaxDP=2.06D-01 DE= 1.40D-01 OVMax= 9.96D-02

 Cycle   5  Pass 1  IDiag  1:
 RMSU=  1.58D-04    CP:  6.23D-01  1.57D+00  4.85D-01  5.41D-01
 E= -1608.41101156210     Delta-E=       -0.188946155753 Rises=F Damp=F
 DIIS: error= 5.31D-03 at cycle   5 NSaved=   5.
 NSaved= 5 IEnMin= 5 EnMin= -1608.41101156210     IErMin= 5 ErrMin= 5.31D-03
 ErrMax= 5.31D-03 EMaxC= 1.00D-01 BMatC= 8.99D-03 BMatP= 3.59D-02
 IDIUse=3 WtCom= 9.47D-01 WtEn= 5.31D-02
 Coeff-Com:  0.118D-01-0.244D-01 0.249D+00-0.290D-01 0.792D+00
 Coeff-En:   0.000D+00 0.000D+00 0.190D+00 0.000D+00 0.810D+00
 Coeff:      0.111D-01-0.231D-01 0.246D+00-0.275D-01 0.793D+00
 Gap=     0.136 Goal=   None    Shift=    0.000
 RMSDP=5.38D-04 MaxDP=4.45D-02 DE=-1.89D-01 OVMax= 2.75D-02

 Cycle   6  Pass 1  IDiag  1:
 RMSU=  7.02D-05    CP:  6.26D-01  1.51D+00  6.28D-01  3.72D-01  7.00D-01
 E= -1608.42085544615     Delta-E=       -0.009843884054 Rises=F Damp=F
 DIIS: error= 3.98D-04 at cycle   6 NSaved=   6.
 NSaved= 6 IEnMin= 6 EnMin= -1608.42085544615     IErMin= 6 ErrMin= 3.98D-04
 ErrMax= 3.98D-04 EMaxC= 1.00D-01 BMatC= 8.73D-05 BMatP= 8.99D-03
 IDIUse=3 WtCom= 9.96D-01 WtEn= 3.98D-03
 Coeff-Com:  0.181D-02-0.699D-02 0.902D-01-0.452D-01 0.444D+00 0.516D+00
 Coeff-En:   0.000D+00 0.000D+00 0.000D+00 0.000D+00 0.000D+00 0.100D+01
 Coeff:      0.180D-02-0.696D-02 0.898D-01-0.450D-01 0.442D+00 0.518D+00
 Gap=     0.136 Goal=   None    Shift=    0.000
 RMSDP=3.76D-05 MaxDP=1.92D-03 DE=-9.84D-03 OVMax= 2.55D-03

 Cycle   7  Pass 1  IDiag  1:
 RMSU=  1.82D-05    CP:  6.26D-01  1.51D+00  6.25D-01  3.78D-01  8.00D-01
                    CP:  6.18D-01
 E= -1608.42092671607     Delta-E=       -0.000071269916 Rises=F Damp=F
 DIIS: error= 1.20D-04 at cycle   7 NSaved=   7.
 NSaved= 7 IEnMin= 7 EnMin= -1608.42092671607     IErMin= 7 ErrMin= 1.20D-04
 ErrMax= 1.20D-04 EMaxC= 1.00D-01 BMatC= 4.83D-06 BMatP= 8.73D-05
 IDIUse=3 WtCom= 9.99D-01 WtEn= 1.20D-03
 Coeff-Com: -0.520D-04-0.903D-03 0.368D-01-0.247D-01 0.202D+00 0.281D+00
 Coeff-Com:  0.505D+00
 Coeff-En:   0.000D+00 0.000D+00 0.000D+00 0.000D+00 0.000D+00 0.000D+00
 Coeff-En:   0.100D+01
 Coeff:     -0.519D-04-0.902D-03 0.368D-01-0.247D-01 0.202D+00 0.281D+00
 Coeff:      0.506D+00
 Gap=     0.136 Goal=   None    Shift=    0.000
 RMSDP=1.01D-05 MaxDP=5.44D-04 DE=-7.13D-05 OVMax= 4.92D-04

 Cycle   8  Pass 1  IDiag  1:
 RMSU=  4.04D-06    CP:  6.26D-01  1.51D+00  6.26D-01  3.81D-01  8.05D-01
                    CP:  5.91D-01  6.07D-01
 E= -1608.42093121996     Delta-E=       -0.000004503895 Rises=F Damp=F
 DIIS: error= 2.18D-05 at cycle   8 NSaved=   8.
 NSaved= 8 IEnMin= 8 EnMin= -1608.42093121996     IErMin= 8 ErrMin= 2.18D-05
 ErrMax= 2.18D-05 EMaxC= 1.00D-01 BMatC= 1.39D-07 BMatP= 4.83D-06
 IDIUse=1 WtCom= 1.00D+00 WtEn= 0.00D+00
 Coeff-Com:  0.576D-04-0.386D-03 0.121D-01-0.841D-02 0.663D-01 0.928D-01
 Coeff-Com:  0.199D+00 0.638D+00
 Coeff:      0.576D-04-0.386D-03 0.121D-01-0.841D-02 0.663D-01 0.928D-01
 Coeff:      0.199D+00 0.638D+00
 Gap=     0.136 Goal=   None    Shift=    0.000
 RMSDP=1.84D-06 MaxDP=8.71D-05 DE=-4.50D-06 OVMax= 1.27D-04

 Cycle   9  Pass 1  IDiag  1:
 RMSU=  1.23D-06    CP:  6.26D-01  1.51D+00  6.26D-01  3.80D-01  8.06D-01
                    CP:  5.92D-01  6.29D-01  8.95D-01
 E= -1608.42093131653     Delta-E=       -0.000000096573 Rises=F Damp=F
 DIIS: error= 8.54D-06 at cycle   9 NSaved=   9.
 NSaved= 9 IEnMin= 9 EnMin= -1608.42093131653     IErMin= 9 ErrMin= 8.54D-06
 ErrMax= 8.54D-06 EMaxC= 1.00D-01 BMatC= 5.12D-08 BMatP= 1.39D-07
 IDIUse=1 WtCom= 1.00D+00 WtEn= 0.00D+00
 Coeff-Com:  0.322D-04-0.646D-04 0.413D-03-0.534D-03 0.210D-02 0.392D-02
 Coeff-Com:  0.288D-01 0.423D+00 0.542D+00
 Coeff:      0.322D-04-0.646D-04 0.413D-03-0.534D-03 0.210D-02 0.392D-02
 Coeff:      0.288D-01 0.423D+00 0.542D+00
 Gap=     0.136 Goal=   None    Shift=    0.000
 RMSDP=7.40D-07 MaxDP=2.80D-05 DE=-9.66D-08 OVMax= 4.89D-05

 Cycle  10  Pass 1  IDiag  1:
 RMSU=  3.47D-07    CP:  6.26D-01  1.51D+00  6.26D-01  3.80D-01  8.06D-01
                    CP:  5.93D-01  6.24D-01  9.19D-01  6.45D-01
 E= -1608.42093135949     Delta-E=       -0.000000042951 Rises=F Damp=F
 DIIS: error= 1.05D-06 at cycle  10 NSaved=  10.
 NSaved=10 IEnMin=10 EnMin= -1608.42093135949     IErMin=10 ErrMin= 1.05D-06
 ErrMax= 1.05D-06 EMaxC= 1.00D-01 BMatC= 3.93D-10 BMatP= 5.12D-08
 IDIUse=1 WtCom= 1.00D+00 WtEn= 0.00D+00
 Coeff-Com:  0.153D-04-0.272D-04-0.260D-03 0.103D-03-0.150D-02-0.196D-02
 Coeff-Com:  0.281D-02 0.127D+00 0.185D+00 0.689D+00
 Coeff:      0.153D-04-0.272D-04-0.260D-03 0.103D-03-0.150D-02-0.196D-02
 Coeff:      0.281D-02 0.127D+00 0.185D+00 0.689D+00
 Gap=     0.136 Goal=   None    Shift=    0.000
 RMSDP=1.26D-07 MaxDP=9.49D-06 DE=-4.30D-08 OVMax= 7.75D-06

 Cycle  11  Pass 1  IDiag  1:
 RMSU=  8.51D-08    CP:  6.26D-01  1.51D+00  6.26D-01  3.80D-01  8.06D-01
                    CP:  5.93D-01  6.24D-01  9.27D-01  6.21D-01  9.29D-01
 E= -1608.42093135986     Delta-E=       -0.000000000375 Rises=F Damp=F
 DIIS: error= 3.89D-07 at cycle  11 NSaved=  11.
 NSaved=11 IEnMin=11 EnMin= -1608.42093135986     IErMin=11 ErrMin= 3.89D-07
 ErrMax= 3.89D-07 EMaxC= 1.00D-01 BMatC= 1.14D-10 BMatP= 3.93D-10
 IDIUse=1 WtCom= 1.00D+00 WtEn= 0.00D+00
 Coeff-Com:  0.475D-05-0.757D-05-0.217D-03 0.115D-03-0.117D-02-0.165D-02
 Coeff-Com: -0.946D-03 0.370D-01 0.601D-01 0.381D+00 0.526D+00
 Coeff:      0.475D-05-0.757D-05-0.217D-03 0.115D-03-0.117D-02-0.165D-02
 Coeff:     -0.946D-03 0.370D-01 0.601D-01 0.381D+00 0.526D+00
 Gap=     0.136 Goal=   None    Shift=    0.000
 RMSDP=4.81D-08 MaxDP=3.74D-06 DE=-3.75D-10 OVMax= 3.77D-06

 Cycle  12  Pass 1  IDiag  1:
 RMSU=  2.67D-08    CP:  6.26D-01  1.51D+00  6.26D-01  3.80D-01  8.06D-01
                    CP:  5.93D-01  6.25D-01  9.28D-01  6.26D-01  9.33D-01
                    CP:  8.91D-01
 E= -1608.42093136003     Delta-E=       -0.000000000173 Rises=F Damp=F
 DIIS: error= 9.72D-08 at cycle  12 NSaved=  12.
 NSaved=12 IEnMin=12 EnMin= -1608.42093136003     IErMin=12 ErrMin= 9.72D-08
 ErrMax= 9.72D-08 EMaxC= 1.00D-01 BMatC= 4.06D-12 BMatP= 1.14D-10
 IDIUse=1 WtCom= 1.00D+00 WtEn= 0.00D+00
 Coeff-Com: -0.112D-05 0.293D-05-0.136D-04 0.732D-05-0.432D-04-0.107D-03
 Coeff-Com: -0.393D-03-0.574D-02-0.802D-02 0.217D-02 0.137D+00 0.875D+00
 Coeff:     -0.112D-05 0.293D-05-0.136D-04 0.732D-05-0.432D-04-0.107D-03
 Coeff:     -0.393D-03-0.574D-02-0.802D-02 0.217D-02 0.137D+00 0.875D+00
 Gap=     0.136 Goal=   None    Shift=    0.000
 RMSDP=1.37D-08 MaxDP=4.37D-07 DE=-1.73D-10 OVMax= 1.54D-06

 Cycle  13  Pass 1  IDiag  1:
 RMSU=  7.73D-09    CP:  6.26D-01  1.51D+00  6.26D-01  3.80D-01  8.06D-01
                    CP:  5.93D-01  6.25D-01  9.28D-01  6.25D-01  9.49D-01
                    CP:  9.42D-01  9.10D-01
 E= -1608.42093136109     Delta-E=       -0.000000001053 Rises=F Damp=F
 DIIS: error= 2.97D-08 at cycle  13 NSaved=  13.
 NSaved=13 IEnMin=13 EnMin= -1608.42093136109     IErMin=13 ErrMin= 2.97D-08
 ErrMax= 2.97D-08 EMaxC= 1.00D-01 BMatC= 3.48D-13 BMatP= 4.06D-12
 IDIUse=1 WtCom= 1.00D+00 WtEn= 0.00D+00
 Coeff-Com: -0.672D-06 0.166D-05 0.834D-07-0.124D-06 0.140D-04-0.380D-06
 Coeff-Com: -0.156D-03-0.362D-02-0.530D-02-0.118D-01 0.413D-01 0.398D+00
 Coeff-Com:  0.581D+00
 Coeff:     -0.672D-06 0.166D-05 0.834D-07-0.124D-06 0.140D-04-0.380D-06
 Coeff:     -0.156D-03-0.362D-02-0.530D-02-0.118D-01 0.413D-01 0.398D+00
 Coeff:      0.581D+00
 Gap=     0.136 Goal=   None    Shift=    0.000
 RMSDP=4.17D-09 MaxDP=1.85D-07 DE=-1.05D-09 OVMax= 4.00D-07

 SCF Done:  E(RB+HF-LYP) =  -1608.42093136     A.U. after   13 cycles
             Convg  =    0.4170D-08             -V/T =  2.0062
             S**2   =   0.0000
 KE= 1.598528229843D+03 PE=-8.641470273373D+03 EE= 3.008756169930D+03
 Leave Link  502 at Sat Mar 12 14:38:42 2011, MaxMem= 4294967296 cpu:    3928.2
 (Enter /system/software/orac/g03_E.01/g03/l601.exe)
 Copying SCF densities to generalized density rwf, ISCF=0 IROHF=0.

 **********************************************************************

            Population analysis using the SCF density.

 **********************************************************************

 Orbital symmetries:
       Occupied  (A) (A) (A) (A) (A) (A) (A) (A) (A) (A) (A) (A)
                 (A) (A) (A) (A) (A) (A) (A) (A) (A) (A) (A) (A)
                 (A) (A) (A) (A) (A) (A) (A) (A) (A) (A) (A) (A)
                 (A) (A) (A) (A) (A) (A) (A) (A) (A) (A) (A) (A)
                 (A) (A) (A) (A) (A) (A) (A) (A) (A) (A) (A) (A)
                 (A) (A) (A) (A) (A) (A) (A) (A) (A) (A) (A) (A)
                 (A) (A) (A) (A) (A) (A) (A) (A) (A) (A) (A) (A)
                 (A) (A) (A) (A) (A) (A) (A) (A) (A)
       Virtual   (A) (A) (A) (A) (A) (A) (A) (A) (A) (A) (A) (A)
                 (A) (A) (A) (A) (A) (A) (A) (A) (A) (A) (A) (A)
                 (A) (A) (A) (A) (A) (A) (A) (A) (A) (A) (A) (A)
                 (A) (A) (A) (A) (A) (A) (A) (A) (A) (A) (A) (A)
                 (A) (A) (A) (A) (A) (A) (A) (A) (A) (A) (A) (A)
                 (A) (A) (A) (A) (A) (A) (A) (A) (A) (A) (A) (A)
                 (A) (A) (A) (A) (A) (A) (A) (A) (A) (A) (A) (A)
                 (A) (A) (A) (A) (A) (A) (A) (A) (A) (A) (A) (A)
                 (A) (A) (A) (A) (A) (A) (A) (A) (A) (A) (A) (A)
                 (A) (A) (A) (A) (A) (A) (A) (A) (A) (A) (A) (A)
                 (A) (A) (A) (A) (A) (A) (A) (A) (A) (A) (A) (A)
                 (A) (A) (A) (A) (A) (A) (A) (A) (A) (A) (A) (A)
                 (A) (A) (A) (A) (A) (A) (A) (A) (A) (A) (A) (A)
                 (A) (A) (A) (A) (A) (A) (A) (A) (A) (A) (A) (A)
                 (A) (A) (A) (A) (A) (A) (A) (A) (A) (A) (A) (A)
                 (A) (A) (A) (A) (A) (A) (A) (A) (A) (A) (A) (A)
                 (A) (A) (A) (A) (A) (A) (A) (A) (A) (A) (A) (A)
                 (A) (A) (A) (A) (A) (A) (A) (A) (A) (A) (A) (A)
                 (A) (A) (A) (A) (A) (A) (A) (A) (A) (A) (A) (A)
                 (A) (A) (A) (A) (A) (A) (A) (A) (A) (A) (A) (A)
                 (A) (A) (A) (A) (A) (A) (A) (A) (A) (A) (A) (A)
                 (A) (A) (A) (A) (A) (A) (A) (A) (A) (A) (A) (A)
                 (A) (A) (A) (A) (A) (A) (A) (A) (A) (A) (A) (A)
                 (A) (A) (A) (A) (A) (A) (A) (A) (A) (A) (A) (A)
                 (A) (A) (A) (A) (A) (A) (A) (A) (A) (A) (A) (A)
                 (A) (A) (A) (A) (A) (A) (A) (A) (A) (A) (A) (A)
                 (A) (A) (A) (A) (A) (A) (A) (A) (A) (A) (A) (A)
                 (A) (A) (A) (A) (A) (A) (A) (A) (A) (A) (A) (A)
                 (A) (A) (A) (A) (A) (A) (A) (A) (A) (A) (A) (A)
                 (A) (A) (A) (A) (A) (A) (A) (A) (A) (A) (A) (A)
                 (A) (A) (A) (A) (A) (A) (A) (A) (A) (A) (A) (A)
                 (A) (A) (A) (A) (A) (A) (A)
 The electronic state is 1-A.
 Alpha  occ. eigenvalues --  -24.76188 -24.76188 -24.75874 -24.75874 -24.75874
 Alpha  occ. eigenvalues --  -24.75874 -24.75378 -24.75378 -24.75378 -24.75378
 Alpha  occ. eigenvalues --  -10.34585 -10.34585 -10.34567 -10.34567 -10.34480
 Alpha  occ. eigenvalues --  -10.34480 -10.33893 -10.33892 -10.33819 -10.33818
 Alpha  occ. eigenvalues --  -10.28395 -10.28357 -10.28281 -10.28280 -10.28271
 Alpha  occ. eigenvalues --  -10.28266  -1.28514  -1.28428  -1.28026  -1.27612
 Alpha  occ. eigenvalues --   -1.27566  -1.26923  -1.26817  -1.26392  -1.26055
 Alpha  occ. eigenvalues --   -1.25944  -0.97008  -0.92926  -0.89978  -0.87198
 Alpha  occ. eigenvalues --   -0.83802  -0.81094  -0.80785  -0.78602  -0.72161
 Alpha  occ. eigenvalues --   -0.71578  -0.69736  -0.69560  -0.64718  -0.63020
 Alpha  occ. eigenvalues --   -0.62919  -0.62539  -0.61332  -0.59989  -0.58882
 Alpha  occ. eigenvalues --   -0.58878  -0.57536  -0.57140  -0.56262  -0.55938
 Alpha  occ. eigenvalues --   -0.54960  -0.54657  -0.54155  -0.53183  -0.53051
 Alpha  occ. eigenvalues --   -0.52833  -0.52328  -0.51276  -0.50379  -0.50015
 Alpha  occ. eigenvalues --   -0.49695  -0.49695  -0.49060  -0.48748  -0.48525
 Alpha  occ. eigenvalues --   -0.47051  -0.46226  -0.45442  -0.45433  -0.45141
 Alpha  occ. eigenvalues --   -0.44587  -0.43580  -0.43469  -0.41358  -0.40234
 Alpha  occ. eigenvalues --   -0.40072  -0.39709  -0.37431  -0.33514  -0.32751
 Alpha  occ. eigenvalues --   -0.30048  -0.28847  -0.24984
 Alpha virt. eigenvalues --   -0.11358  -0.09172  -0.06047  -0.04462  -0.04405
 Alpha virt. eigenvalues --   -0.03163  -0.00967   0.00153   0.00248   0.01858
 Alpha virt. eigenvalues --    0.03417   0.04419   0.05141   0.06316   0.06842
 Alpha virt. eigenvalues --    0.06875   0.07542   0.07597   0.07805   0.09395
 Alpha virt. eigenvalues --    0.09771   0.09963   0.10445   0.11040   0.11111
 Alpha virt. eigenvalues --    0.11379   0.11832   0.12731   0.12761   0.12968
 Alpha virt. eigenvalues --    0.13321   0.13433   0.14932   0.15017   0.16128
 Alpha virt. eigenvalues --    0.16350   0.17099   0.17133   0.18113   0.18567
 Alpha virt. eigenvalues --    0.18667   0.19673   0.20138   0.20349   0.21059
 Alpha virt. eigenvalues --    0.21274   0.21423   0.22113   0.22123   0.22421
 Alpha virt. eigenvalues --    0.22576   0.22690   0.24421   0.24683   0.24715
 Alpha virt. eigenvalues --    0.25228   0.25924   0.26553   0.26924   0.27042
 Alpha virt. eigenvalues --    0.27519   0.27823   0.27831   0.28518   0.29759
 Alpha virt. eigenvalues --    0.29847   0.30012   0.30894   0.31619   0.31914
 Alpha virt. eigenvalues --    0.31987   0.32296   0.32500   0.34656   0.34681
 Alpha virt. eigenvalues --    0.35463   0.36113   0.36687   0.37218   0.39110
 Alpha virt. eigenvalues --    0.39441   0.39718   0.40865   0.41388   0.41778
 Alpha virt. eigenvalues --    0.42621   0.43213   0.43492   0.45106   0.45144
 Alpha virt. eigenvalues --    0.45176   0.45280   0.45581   0.46193   0.46390
 Alpha virt. eigenvalues --    0.46999   0.47197   0.47387   0.48238   0.48306
 Alpha virt. eigenvalues --    0.49810   0.50209   0.50920   0.51358   0.51883
 Alpha virt. eigenvalues --    0.52851   0.52880   0.53119   0.53224   0.53261
 Alpha virt. eigenvalues --    0.53290   0.53524   0.55730   0.57913   0.58400
 Alpha virt. eigenvalues --    0.60132   0.60253   0.61087   0.61937   0.61953
 Alpha virt. eigenvalues --    0.62291   0.63756   0.65956   0.66309   0.66599
 Alpha virt. eigenvalues --    0.69022   0.69343   0.70624   0.73654   0.73792
 Alpha virt. eigenvalues --    0.74298   0.76739   0.78201   0.78267   0.78583
 Alpha virt. eigenvalues --    0.79347   0.80278   0.82317   0.84826   0.87433
 Alpha virt. eigenvalues --    0.87672   0.90603   0.91409   0.92302   0.93062
 Alpha virt. eigenvalues --    0.93732   0.95136   0.96159   0.97474   0.97637
 Alpha virt. eigenvalues --    0.98198   0.98953   0.99297   1.00069   1.00951
 Alpha virt. eigenvalues --    1.01034   1.01830   1.02033   1.02515   1.06181
 Alpha virt. eigenvalues --    1.07750   1.08893   1.09267   1.10970   1.11012
 Alpha virt. eigenvalues --    1.11698   1.11917   1.11933   1.12267   1.13197
 Alpha virt. eigenvalues --    1.13809   1.13934   1.14595   1.15418   1.15796
 Alpha virt. eigenvalues --    1.16156   1.16612   1.17832   1.18293   1.20387
 Alpha virt. eigenvalues --    1.21206   1.22475   1.24639   1.26854   1.27183
 Alpha virt. eigenvalues --    1.27489   1.27707   1.27922   1.27952   1.29411
 Alpha virt. eigenvalues --    1.29783   1.31283   1.31625   1.34674   1.36247
 Alpha virt. eigenvalues --    1.37191   1.38282   1.39350   1.39433   1.39862
 Alpha virt. eigenvalues --    1.40138   1.41843   1.45716   1.45845   1.45986
 Alpha virt. eigenvalues --    1.47542   1.48267   1.48512   1.48562   1.48812
 Alpha virt. eigenvalues --    1.49412   1.50894   1.51238   1.53652   1.54364
 Alpha virt. eigenvalues --    1.54741   1.57895   1.59038   1.59308   1.60677
 Alpha virt. eigenvalues --    1.61549   1.62321   1.62697   1.62764   1.64381
 Alpha virt. eigenvalues --    1.64448   1.67350   1.69215   1.69250   1.69449
 Alpha virt. eigenvalues --    1.70234   1.70714   1.73161   1.74183   1.74613
 Alpha virt. eigenvalues --    1.75741   1.78632   1.83261   1.83323   1.83904
 Alpha virt. eigenvalues --    1.84493   1.89816   1.95255   1.95696   1.95758
 Alpha virt. eigenvalues --    1.96800   1.98970   2.01228   2.04570   2.05059
 Alpha virt. eigenvalues --    2.06662   2.06867   2.07730   2.10757   2.10973
 Alpha virt. eigenvalues --    2.12221   2.12943   2.17109   2.19684   2.19922
 Alpha virt. eigenvalues --    2.20925   2.21014   2.21590   2.21851   2.24926
 Alpha virt. eigenvalues --    2.24978   2.27527   2.29875   2.33321   2.36749
 Alpha virt. eigenvalues --    2.42814   2.44816   2.51072   2.82523   2.95351
 Alpha virt. eigenvalues --    3.08543   3.12776   3.51450   3.51507   3.52234
 Alpha virt. eigenvalues --    3.52351   3.52469   3.52552   3.54124   3.54159
 Alpha virt. eigenvalues --    3.54483   3.54495   3.54695   3.55614   3.55894
 Alpha virt. eigenvalues --    3.55970   3.56084   3.56483   3.57154   3.58556
 Alpha virt. eigenvalues --    3.58622   3.60964   3.65367   3.65481   3.67074
 Alpha virt. eigenvalues --    3.67104   3.70505   3.70741   3.74904   3.76130
 Alpha virt. eigenvalues --    3.76657   3.77914   3.79039   3.80105   3.80301
 Alpha virt. eigenvalues --    3.81972   3.88175   3.88968   3.95726   3.96852
 Alpha virt. eigenvalues --    3.96895   3.98495   3.99233   4.00899   4.02625
 Alpha virt. eigenvalues --    4.04802   4.05627   4.06300   4.17630   4.20182
 Alpha virt. eigenvalues --    4.21569   4.25705   5.01854   5.32468   5.38120
 Alpha virt. eigenvalues --    5.44331   5.55402   5.57765   5.57891   5.62226
 Alpha virt. eigenvalues --    5.62439   5.64579   5.66355   5.67708   5.88948
 Alpha virt. eigenvalues --    5.91687   6.00691   6.22410  11.19843  11.20746
 Alpha virt. eigenvalues --   11.21141  11.23675  11.24837  11.26108  11.26956
 Alpha virt. eigenvalues --   11.30521  11.31146  11.31366  29.57103  29.82569
 Alpha virt. eigenvalues --   29.87486  29.90239  29.94720  29.96571  29.97808
 Alpha virt. eigenvalues --   29.98549  30.06090  30.07852  30.12991  30.14121
 Alpha virt. eigenvalues --   30.25892  30.30662  30.32210  30.50400  68.12456
 Alpha virt. eigenvalues --   68.13340  68.14047  68.16295  68.17976  68.19346
 Alpha virt. eigenvalues --   68.19665  68.23803  68.23924  68.24423
          Condensed to atoms (all electrons):
              1          2          3          4          5          6
     1  C    5.358812   0.300388  -0.051925  -0.121805  -0.051888   0.300250
     2  C    0.300388   6.067485  -0.253422   0.229214  -0.145168  -0.266534
     3  C   -0.051925  -0.253422   7.660829  -1.914767   0.529203  -0.145263
     4  C   -0.121805   0.229214  -1.914767  10.814607  -1.915365   0.229446
     5  C   -0.051888  -0.145168   0.529203  -1.915365   7.661221  -0.253538
     6  C    0.300250  -0.266534  -0.145263   0.229446  -0.253538   6.067531
     7  C   -0.003703   0.063187  -0.327927   0.444372  -0.114928   0.040736
     8  C    0.020599  -0.178639   1.216002  -3.504855   1.216284  -0.178556
     9  C    0.004448   0.136108  -0.390872   1.216270  -0.333291  -0.004943
    10  C   -0.005983  -0.026072  -0.079218  -0.403165   0.084118   0.001156
    11  C    0.001082  -0.005150   0.136108  -0.178600  -0.004947  -0.002023
    12  C   -0.000095   0.001083   0.004441   0.020628   0.004443   0.001083
    13  C    0.001083  -0.002025  -0.004940  -0.178650   0.136117  -0.005152
    14  C    0.004445  -0.004949  -0.333246   1.216112  -0.391015   0.136095
    15  C   -0.005985   0.001164   0.084060  -0.403111  -0.079151  -0.026079
    16  C   -0.003724   0.040739  -0.114847   0.444346  -0.327871   0.063063
    17  F   -0.000629   0.000546   0.000394  -0.001298  -0.038691   0.000157
    18  F   -0.008463   0.002883  -0.000540   0.060140  -0.092951  -0.066442
    19  F   -0.086740  -0.002396   0.005029   0.024666  -0.160047   0.218301
    20  F    0.163673  -0.074590  -0.017401   0.013140  -0.017391  -0.074536
    21  F   -0.086722   0.218245  -0.160007   0.024656   0.005037  -0.002401
    22  F   -0.008469  -0.066438  -0.092917   0.060146  -0.000548   0.002886
    23  F   -0.000630   0.000154  -0.038687  -0.001312   0.000397   0.000545
    24  F    0.000009  -0.000177   0.007897  -0.006704  -0.000799  -0.000081
    25  F   -0.000003   0.000007   0.000899  -0.004061   0.000900   0.000007
    26  F    0.000009  -0.000081  -0.000800  -0.006704   0.007895  -0.000177
              7          8          9         10         11         12
     1  C   -0.003703   0.020599   0.004448  -0.005983   0.001082  -0.000095
     2  C    0.063187  -0.178639   0.136108  -0.026072  -0.005150   0.001083
     3  C   -0.327927   1.216002  -0.390872  -0.079218   0.136108   0.004441
     4  C    0.444372  -3.504855   1.216270  -0.403165  -0.178600   0.020628
     5  C   -0.114928   1.216284  -0.333291   0.084118  -0.004947   0.004443
     6  C    0.040736  -0.178556  -0.004943   0.001156  -0.002023   0.001083
     7  C    6.021738  -0.403140  -0.079264   0.272378  -0.026073  -0.005983
     8  C   -0.403140  10.814783  -1.915133   0.444429   0.229312  -0.121847
     9  C   -0.079264  -1.915133   7.661111  -0.327880  -0.253556  -0.051891
    10  C    0.272378   0.444429  -0.327880   6.021655   0.063138  -0.003729
    11  C   -0.026073   0.229312  -0.253556   0.063138   6.067538   0.300349
    12  C   -0.005983  -0.121847  -0.051891  -0.003729   0.300349   5.358830
    13  C    0.001160   0.229489  -0.145301   0.040743  -0.266500   0.300280
    14  C    0.084111  -1.915079   0.529257  -0.114907  -0.145204  -0.051895
    15  C   -0.016994   0.444232  -0.114883   0.013993   0.040725  -0.003714
    16  C    0.013987  -0.403167   0.084078  -0.016997   0.001163  -0.005984
    17  F   -0.000113   0.060107  -0.000538   0.000191   0.002882  -0.008459
    18  F    0.000192  -0.001317   0.000395  -0.000114   0.000546  -0.000629
    19  F    0.000791  -0.006700  -0.000800   0.000588  -0.000081   0.000009
    20  F    0.003983  -0.004060   0.000899  -0.000919   0.000007  -0.000003
    21  F   -0.031371  -0.006700   0.007894  -0.013909  -0.000177   0.000009
    22  F    0.173556  -0.001302  -0.038704  -0.116227   0.000152  -0.000629
    23  F   -0.116152   0.060136  -0.092967   0.173530  -0.066431  -0.008465
    24  F   -0.013915   0.024670  -0.160050  -0.031342   0.218272  -0.086726
    25  F   -0.000919   0.013144  -0.017401   0.003984  -0.074585   0.163698
    26  F    0.000588   0.024675   0.005026   0.000791  -0.002388  -0.086726
             13         14         15         16         17         18
     1  C    0.001083   0.004445  -0.005985  -0.003724  -0.000629  -0.008463
     2  C   -0.002025  -0.004949   0.001164   0.040739   0.000546   0.002883
     3  C   -0.004940  -0.333246   0.084060  -0.114847   0.000394  -0.000540
     4  C   -0.178650   1.216112  -0.403111   0.444346  -0.001298   0.060140
     5  C    0.136117  -0.391015  -0.079151  -0.327871  -0.038691  -0.092951
     6  C   -0.005152   0.136095  -0.026079   0.063063   0.000157  -0.066442
     7  C    0.001160   0.084111  -0.016994   0.013987  -0.000113   0.000192
     8  C    0.229489  -1.915079   0.444232  -0.403167   0.060107  -0.001317
     9  C   -0.145301   0.529257  -0.114883   0.084078  -0.000538   0.000395
    10  C    0.040743  -0.114907   0.013993  -0.016997   0.000191  -0.000114
    11  C   -0.266500  -0.145204   0.040725   0.001163   0.002882   0.000546
    12  C    0.300280  -0.051895  -0.003714  -0.005984  -0.008459  -0.000629
    13  C    6.067558  -0.253617   0.063150  -0.026086  -0.066414   0.000155
    14  C   -0.253617   7.660996  -0.327816  -0.079164  -0.092932  -0.038684
    15  C    0.063150  -0.327816   6.021633   0.272470   0.173532  -0.116197
    16  C   -0.026086  -0.079164   0.272470   6.021639  -0.116165   0.173579
    17  F   -0.066414  -0.092932   0.173532  -0.116165   9.234464   0.005860
    18  F    0.000155  -0.038684  -0.116197   0.173579   0.005860   9.234495
    19  F   -0.000177   0.007895  -0.013913  -0.031375  -0.000611  -0.020591
    20  F    0.000007   0.000899  -0.000919   0.003984  -0.000035  -0.000145
    21  F   -0.000081  -0.000800   0.000588   0.000791   0.000019   0.000096
    22  F    0.000545   0.000398  -0.000114   0.000192   0.000004  -0.000033
    23  F    0.002884  -0.000545   0.000192  -0.000114  -0.000033   0.000004
    24  F   -0.002393   0.005031   0.000791   0.000588   0.000096   0.000019
    25  F   -0.074552  -0.017397   0.003984  -0.000919  -0.000145  -0.000035
    26  F    0.218273  -0.160064  -0.031354  -0.013914  -0.020552  -0.000611
             19         20         21         22         23         24
     1  C   -0.086740   0.163673  -0.086722  -0.008469  -0.000630   0.000009
     2  C   -0.002396  -0.074590   0.218245  -0.066438   0.000154  -0.000177
     3  C    0.005029  -0.017401  -0.160007  -0.092917  -0.038687   0.007897
     4  C    0.024666   0.013140   0.024656   0.060146  -0.001312  -0.006704
     5  C   -0.160047  -0.017391   0.005037  -0.000548   0.000397  -0.000799
     6  C    0.218301  -0.074536  -0.002401   0.002886   0.000545  -0.000081
     7  C    0.000791   0.003983  -0.031371   0.173556  -0.116152  -0.013915
     8  C   -0.006700  -0.004060  -0.006700  -0.001302   0.060136   0.024670
     9  C   -0.000800   0.000899   0.007894  -0.038704  -0.092967  -0.160050
    10  C    0.000588  -0.000919  -0.013909  -0.116227   0.173530  -0.031342
    11  C   -0.000081   0.000007  -0.000177   0.000152  -0.066431   0.218272
    12  C    0.000009  -0.000003   0.000009  -0.000629  -0.008465  -0.086726
    13  C   -0.000177   0.000007  -0.000081   0.000545   0.002884  -0.002393
    14  C    0.007895   0.000899  -0.000800   0.000398  -0.000545   0.005031
    15  C   -0.013913  -0.000919   0.000588  -0.000114   0.000192   0.000791
    16  C   -0.031375   0.003984   0.000791   0.000192  -0.000114   0.000588
    17  F   -0.000611  -0.000035   0.000019   0.000004  -0.000033   0.000096
    18  F   -0.020591  -0.000145   0.000096  -0.000033   0.000004   0.000019
    19  F    9.210195  -0.013967  -0.002133   0.000096   0.000019  -0.000002
    20  F   -0.013967   9.169040  -0.013968  -0.000145  -0.000035   0.000000
    21  F   -0.002133  -0.013968   9.210195  -0.020587  -0.000611   0.000015
    22  F    0.000096  -0.000145  -0.020587   9.234499   0.005867  -0.000611
    23  F    0.000019  -0.000035  -0.000611   0.005867   9.234486  -0.020566
    24  F   -0.000002   0.000000   0.000015  -0.000611  -0.020566   9.210158
    25  F    0.000000   0.000000   0.000000  -0.000035  -0.000145  -0.013967
    26  F    0.000015   0.000000  -0.000002   0.000019   0.000096  -0.002133
             25         26
     1  C   -0.000003   0.000009
     2  C    0.000007  -0.000081
     3  C    0.000899  -0.000800
     4  C   -0.004061  -0.006704
     5  C    0.000900   0.007895
     6  C    0.000007  -0.000177
     7  C   -0.000919   0.000588
     8  C    0.013144   0.024675
     9  C   -0.017401   0.005026
    10  C    0.003984   0.000791
    11  C   -0.074585  -0.002388
    12  C    0.163698  -0.086726
    13  C   -0.074552   0.218273
    14  C   -0.017397  -0.160064
    15  C    0.003984  -0.031354
    16  C   -0.000919  -0.013914
    17  F   -0.000145  -0.020552
    18  F   -0.000035  -0.000611
    19  F    0.000000   0.000015
    20  F    0.000000   0.000000
    21  F    0.000000  -0.000002
    22  F   -0.000035   0.000019
    23  F   -0.000145   0.000096
    24  F   -0.013967  -0.002133
    25  F    9.169024  -0.013969
    26  F   -0.013969   9.210165
 Mulliken atomic charges:
              1
     1  C    0.281967
     2  C   -0.035561
     3  C    0.281918
     4  C   -0.157347
     5  C    0.281975
     6  C   -0.035531
     7  C    0.019702
     8  C   -0.157366
     9  C    0.281987
    10  C    0.019768
    11  C   -0.035560
    12  C    0.281924
    13  C   -0.035557
    14  C    0.282077
    15  C    0.019717
    16  C    0.019709
    17  F   -0.131636
    18  F   -0.131613
    19  F   -0.128073
    20  F   -0.137519
    21  F   -0.128080
    22  F   -0.131602
    23  F   -0.131621
    24  F   -0.128081
    25  F   -0.137516
    26  F   -0.128082
 Sum of Mulliken charges=   0.00000
 Atomic charges with hydrogens summed into heavy atoms:
              1
     1  C    0.281967
     2  C   -0.035561
     3  C    0.281918
     4  C   -0.157347
     5  C    0.281975
     6  C   -0.035531
     7  C    0.019702
     8  C   -0.157366
     9  C    0.281987
    10  C    0.019768
    11  C   -0.035560
    12  C    0.281924
    13  C   -0.035557
    14  C    0.282077
    15  C    0.019717
    16  C    0.019709
    17  F   -0.131636
    18  F   -0.131613
    19  F   -0.128073
    20  F   -0.137519
    21  F   -0.128080
    22  F   -0.131602
    23  F   -0.131621
    24  F   -0.128081
    25  F   -0.137516
    26  F   -0.128082
 Sum of Mulliken charges=   0.00000
 Electronic spatial extent (au):  <R**2>=  8311.6060
 Charge=     0.0000 electrons
 Dipole moment (field-independent basis, Debye):
    X=     0.0001    Y=    -0.0003    Z=     0.0010  Tot=     0.0010
 Quadrupole moment (field-independent basis, Debye-Ang):
   XX=  -157.3058   YY=  -159.6775   ZZ=  -132.6949
   XY=    -0.0005   XZ=    -0.0034   YZ=     0.0000
 Traceless Quadrupole moment (field-independent basis, Debye-Ang):
   XX=    -7.4131   YY=    -9.7848   ZZ=    17.1978
   XY=    -0.0005   XZ=    -0.0034   YZ=     0.0000
 Octapole moment (field-independent basis, Debye-Ang**2):
  XXX=    -0.0017  YYY=    -0.0026  ZZZ=    -0.0117  XYY=    -0.0002
  XXY=    -0.0002  XXZ=     0.0034  XZZ=    -0.0004  YZZ=     0.0001
  YYZ=     0.0079  XYZ=    -0.0056
 Hexadecapole moment (field-independent basis, Debye-Ang**3):
 XXXX= -6005.8334 YYYY= -3878.9235 ZZZZ=  -119.8631 XXXY=    -0.0103
 XXXZ=    -0.3485 YYYX=     0.0005 YYYZ=    -0.0192 ZZZX=    -0.2676
 ZZZY=    -0.0142 XXYY= -1651.3736 XXZZ=  -894.7479 YYZZ=  -590.0904
 XXYZ=    -0.0012 YYXZ=    -0.1191 ZZXY=     0.0001
 N-N= 2.425764942239D+03 E-N=-8.641470273022D+03  KE= 1.598528229843D+03
 No NMR shielding tensors so no spin-rotation constants.
 Leave Link  601 at Sat Mar 12 14:38:43 2011, MaxMem= 4294967296 cpu:      23.2
 (Enter /system/software/orac/g03_E.01/g03/l701.exe)
 Compute integral first derivatives.
 ... and contract with generalized density number  0.
 Leave Link  701 at Sat Mar 12 14:38:44 2011, MaxMem= 4294967296 cpu:      23.0
 (Enter /system/software/orac/g03_E.01/g03/l702.exe)
 L702 exits ... SP integral derivatives will be done elsewhere.
 Leave Link  702 at Sat Mar 12 14:38:44 2011, MaxMem= 4294967296 cpu:       0.1
 (Enter /system/software/orac/g03_E.01/g03/l703.exe)
 Compute integral first derivatives, UseDBF=F.
 Integral derivatives from FoFDir, PRISM(SPDF).
 Symmetry not used in FoFDir.
 MinBra= 0 MaxBra= 2 Meth= 1.
 IRaf=       0 NMat=   1 IRICut=       1 DoRegI=T DoRafI=F ISym2E= 0 JSym2E=0.
 Leave Link  703 at Sat Mar 12 14:39:18 2011, MaxMem= 4294967296 cpu:     711.5
 (Enter /system/software/orac/g03_E.01/g03/l716.exe)
 Dipole        = 3.21498025D-05-1.01876995D-04 3.88700063D-04
 ***** Axes restored to original set *****
 -------------------------------------------------------------------
 Center     Atomic                   Forces (Hartrees/Bohr)
 Number     Number              X              Y              Z
 -------------------------------------------------------------------
    1          6          -0.011017179   -0.019261747   -0.000022062
    2          6           0.010472712   -0.008070872   -0.000004102
    3          6           0.007996301   -0.003335320    0.000016771
    4          6           0.003439785    0.006045798    0.000025389
    5          6          -0.006930758    0.005223554   -0.000004957
    6          6          -0.012271657    0.004829757   -0.000021704
    7          6          -0.000887334   -0.017101705   -0.000023268
    8          6          -0.003465132   -0.006037421   -0.000001564
    9          6           0.006976534   -0.005172824    0.000006907
   10          6           0.014257448    0.009461866   -0.000018915
   11          6           0.012276029   -0.004888894   -0.000001802
   12          6           0.010937296    0.019296014   -0.000006136
   13          6          -0.010404762    0.008089681   -0.000008895
   14          6          -0.008034800    0.003313492   -0.000001675
   15          6           0.000879835    0.017115397    0.000023722
   16          6          -0.014254403   -0.009511325   -0.000040292
   17          9          -0.003361384   -0.012908325   -0.000011046
   18          9           0.009380060    0.009509641    0.000024894
   19          9           0.012365935   -0.010475698    0.000018340
   20          9           0.005170950    0.009072755    0.000010267
   21          9          -0.015307869    0.005278486    0.000004358
   22          9           0.003390752    0.012924136    0.000009540
   23          9          -0.009375151   -0.009486421    0.000011713
   24          9          -0.012363499    0.010458152    0.000003390
   25          9          -0.005159560   -0.009077922    0.000006304
   26          9           0.015289848   -0.005290255    0.000004823
 -------------------------------------------------------------------
 Cartesian Forces:  Max     0.019296014 RMS     0.008190602
 Leave Link  716 at Sat Mar 12 14:39:18 2011, MaxMem= 4294967296 cpu:       0.1
 (Enter /system/software/orac/g03_E.01/g03/l103.exe)

 GradGradGradGradGradGradGradGradGradGradGradGradGradGradGradGradGradGrad
 Berny optimization.
 Internal  Forces:  Max     0.015145580 RMS     0.006025369
 Search for a local minimum.
 Step number   1 out of a maximum of 156
 All quantities printed in internal units (Hartrees-Bohrs-Radians)
 Second derivative matrix not updated -- first step.
     Eigenvalues ---    0.01648   0.01740   0.01779   0.01799   0.01799
     Eigenvalues ---    0.01820   0.01877   0.01916   0.01976   0.02067
     Eigenvalues ---    0.02072   0.02074   0.02075   0.02123   0.02123
     Eigenvalues ---    0.02132   0.02133   0.02156   0.02157   0.02183
     Eigenvalues ---    0.02183   0.02273   0.02300   0.25000   0.25000
     Eigenvalues ---    0.25000   0.25000   0.25000   0.25000   0.25000
     Eigenvalues ---    0.25000   0.25000   0.25000   0.25000   0.25000
     Eigenvalues ---    0.25000   0.25000   0.25000   0.25000   0.25000
     Eigenvalues ---    0.25000   0.25000   0.25000   0.33236   0.35715
     Eigenvalues ---    0.37343   0.39091   0.39681   0.39930   0.40222
     Eigenvalues ---    0.40435   0.40863   0.43400   0.43472   0.45432
     Eigenvalues ---    0.45471   0.45492   0.45509   0.46625   0.46628
     Eigenvalues ---    0.51912   0.52272   0.55020   0.55021   0.55021
     Eigenvalues ---    0.55021   0.55021   0.55021   0.55022   0.55022
     Eigenvalues ---    0.55022   0.550231000.000001000.000001000.00000
     Eigenvalues --- 1000.000001000.000001000.000001000.000001000.00000
     Eigenvalues --- 1000.000001000.000001000.000001000.000001000.00000
     Eigenvalues --- 1000.000001000.000001000.000001000.000001000.00000
     Eigenvalues --- 1000.000001000.000001000.000001000.000001000.00000
     Eigenvalues --- 1000.000001000.000001000.000001000.000001000.00000
     Eigenvalues --- 1000.000001000.000001000.000001000.000001000.00000
     Eigenvalues --- 1000.000001000.000001000.000001000.000001000.00000
     Eigenvalues --- 1000.000001000.000001000.000001000.000001000.00000
     Eigenvalues --- 1000.000001000.000001000.000001000.000001000.00000
     Eigenvalues --- 1000.000001000.000001000.000001000.000001000.00000
     Eigenvalues --- 1000.000001000.000001000.000001000.000001000.00000
     Eigenvalues --- 1000.000001000.000001000.000001000.000001000.00000
     Eigenvalues --- 1000.000001000.000001000.000001000.000001000.00000
     Eigenvalues --- 1000.000001000.000001000.000001000.000001000.00000
     Eigenvalues --- 1000.000001000.000001000.000001000.000001000.00000
     Eigenvalues --- 1000.000001000.000001000.00000
 RFO step:  Lambda=-1.61765473D-02.
 Linear search not attempted -- first point.
 Iteration  1 RMS(Cart)=  0.03961934 RMS(Int)=  0.00082922
 Iteration  2 RMS(Cart)=  0.00087531 RMS(Int)=  0.00001688
 Iteration  3 RMS(Cart)=  0.00000033 RMS(Int)=  0.00001688
 Variable       Old X    -DE/DX   Delta X   Delta X   Delta X     New X
                                 (Linear)    (Quad)   (Total)
    R1        2.63209   0.00095   0.00000   0.00016   0.00013   2.63221
    R2        2.63223   0.00091   0.00000   0.00009   0.00005   2.63228
    R3        2.55114  -0.01044   0.00000  -0.01844  -0.01844   2.53270
    R4        2.64720   0.01070   0.00000   0.02269   0.02269   2.66989
    R5        2.55113  -0.01224   0.00000  -0.02160  -0.02160   2.52953
    R6        2.68177   0.01406   0.00000   0.03466   0.03471   2.71648
    R7        2.72057   0.00509   0.00000   0.01134   0.01133   2.73190
    R8        2.68183   0.01404   0.00000   0.03463   0.03468   2.71650
    R9        2.70860   0.00669   0.00000   0.01971   0.01975   2.72835
   R10        2.64707   0.01074   0.00000   0.02277   0.02277   2.66984
   R11        2.72063   0.00509   0.00000   0.01132   0.01131   2.73194
   R12        2.55113  -0.01224   0.00000  -0.02162  -0.02162   2.52952
   R13        2.56362   0.00520   0.00000   0.00795   0.00793   2.57154
   R14        2.55112  -0.00962   0.00000  -0.01698  -0.01698   2.53414
   R15        2.68175   0.01406   0.00000   0.03466   0.03470   2.71645
   R16        2.68183   0.01404   0.00000   0.03462   0.03467   2.71649
   R17        2.72058   0.00508   0.00000   0.01130   0.01129   2.73187
   R18        2.64723   0.01069   0.00000   0.02266   0.02266   2.66989
   R19        2.55112  -0.00961   0.00000  -0.01697  -0.01697   2.53415
   R20        2.63208   0.00095   0.00000   0.00017   0.00013   2.63222
   R21        2.55113  -0.01224   0.00000  -0.02161  -0.02161   2.52952
   R22        2.63224   0.00091   0.00000   0.00009   0.00005   2.63229
   R23        2.55113  -0.01044   0.00000  -0.01844  -0.01844   2.53270
   R24        2.64709   0.01071   0.00000   0.02271   0.02271   2.66980
   R25        2.55112  -0.01224   0.00000  -0.02160  -0.02160   2.52952
   R26        2.72065   0.00506   0.00000   0.01124   0.01123   2.73188
   R27        2.56356   0.00522   0.00000   0.00798   0.00796   2.57152
   R28        2.55114  -0.00962   0.00000  -0.01698  -0.01698   2.53416
   R29        2.55113  -0.00962   0.00000  -0.01698  -0.01698   2.53414
    A1        2.10712   0.00129   0.00000   0.00029   0.00024   2.10736
    A2        2.08809  -0.00065   0.00000  -0.00018  -0.00015   2.08794
    A3        2.08797  -0.00063   0.00000  -0.00011  -0.00008   2.08789
    A4        2.10104   0.00319   0.00000   0.01069   0.01067   2.11171
    A5        2.09538  -0.01512   0.00000  -0.05617  -0.05616   2.03922
    A6        2.08676   0.01193   0.00000   0.04548   0.04549   2.13225
    A7        2.08159  -0.00367   0.00000  -0.01033  -0.01029   2.07130
    A8        2.13028   0.00621   0.00000   0.01882   0.01878   2.14906
    A9        2.07132  -0.00255   0.00000  -0.00850  -0.00849   2.06283
   A10        2.09397  -0.00033   0.00000  -0.00100  -0.00098   2.09299
   A11        2.09457   0.00017   0.00000   0.00052   0.00051   2.09508
   A12        2.09465   0.00016   0.00000   0.00048   0.00047   2.09511
   A13        2.08165  -0.00368   0.00000  -0.01038  -0.01035   2.07130
   A14        2.07127  -0.00254   0.00000  -0.00847  -0.00847   2.06280
   A15        2.13027   0.00622   0.00000   0.01886   0.01881   2.14908
   A16        2.10100   0.00320   0.00000   0.01073   0.01071   2.11171
   A17        2.09545  -0.01515   0.00000  -0.05625  -0.05624   2.03921
   A18        2.08674   0.01195   0.00000   0.04552   0.04553   2.13227
   A19        2.11728   0.00238   0.00000   0.00797   0.00798   2.12526
   A20        2.05232   0.01064   0.00000   0.04046   0.04046   2.09278
   A21        2.11359  -0.01302   0.00000  -0.04844  -0.04844   2.06515
   A22        2.09463   0.00016   0.00000   0.00050   0.00049   2.09512
[...]
 Alpha  occ. eigenvalues --   -0.29606  -0.28375  -0.24487
 Alpha virt. eigenvalues --   -0.11232  -0.09125  -0.06008  -0.04122  -0.03885
 Alpha virt. eigenvalues --   -0.02628  -0.00613   0.00247   0.00617   0.02241
 Alpha virt. eigenvalues --    0.03451   0.04834   0.05229   0.06455   0.07000
 Alpha virt. eigenvalues --    0.07239   0.07748   0.08000   0.08175   0.09348
 Alpha virt. eigenvalues --    0.10034   0.10073   0.10391   0.11064   0.11209
 Alpha virt. eigenvalues --    0.11298   0.11981   0.12760   0.12781   0.12804
 Alpha virt. eigenvalues --    0.13316   0.13318   0.14930   0.15277   0.16193
 Alpha virt. eigenvalues --    0.16346   0.17000   0.17107   0.17947   0.18319
 Alpha virt. eigenvalues --    0.18665   0.19877   0.20703   0.20745   0.21339
 Alpha virt. eigenvalues --    0.21376   0.21423   0.22099   0.22139   0.22497
 Alpha virt. eigenvalues --    0.22537   0.22833   0.24446   0.24553   0.25133
 Alpha virt. eigenvalues --    0.25499   0.25832   0.26122   0.26798   0.26970
 Alpha virt. eigenvalues --    0.27612   0.27712   0.28116   0.28780   0.29943
 Alpha virt. eigenvalues --    0.29945   0.30231   0.30538   0.31069   0.31249
 Alpha virt. eigenvalues --    0.31967   0.31999   0.32088   0.34401   0.34771
 Alpha virt. eigenvalues --    0.35608   0.36041   0.36695   0.37143   0.39410
 Alpha virt. eigenvalues --    0.39490   0.40081   0.40678   0.41108   0.41847
 Alpha virt. eigenvalues --    0.42783   0.43243   0.43489   0.45118   0.45137
 Alpha virt. eigenvalues --    0.45400   0.45411   0.45541   0.45772   0.46290
 Alpha virt. eigenvalues --    0.46388   0.47471   0.47888   0.48271   0.48338
 Alpha virt. eigenvalues --    0.50271   0.50452   0.51044   0.51160   0.52051
 Alpha virt. eigenvalues --    0.52234   0.52614   0.52722   0.53040   0.53121
 Alpha virt. eigenvalues --    0.53423   0.53448   0.55407   0.58223   0.58445
 Alpha virt. eigenvalues --    0.59959   0.60083   0.61011   0.61412   0.61588
 Alpha virt. eigenvalues --    0.62283   0.64005   0.65056   0.65328   0.66623
 Alpha virt. eigenvalues --    0.68763   0.68838   0.69697   0.73903   0.74706
 Alpha virt. eigenvalues --    0.74757   0.76824   0.78326   0.78432   0.78780
 Alpha virt. eigenvalues --    0.79226   0.79923   0.81675   0.84642   0.87036
 Alpha virt. eigenvalues --    0.87302   0.90970   0.92232   0.92665   0.92968
 Alpha virt. eigenvalues --    0.94072   0.94481   0.96423   0.97895   0.97930
 Alpha virt. eigenvalues --    0.98419   0.98600   0.98734   0.99987   1.00557
 Alpha virt. eigenvalues --    1.00946   1.02153   1.02326   1.02360   1.06424
 Alpha virt. eigenvalues --    1.07799   1.08957   1.09047   1.11099   1.11761
 Alpha virt. eigenvalues --    1.12385   1.12388   1.12579   1.12634   1.12913
 Alpha virt. eigenvalues --    1.14007   1.14071   1.14636   1.15088   1.16041
 Alpha virt. eigenvalues --    1.16152   1.16540   1.17648   1.18377   1.21308
 Alpha virt. eigenvalues --    1.23717   1.24923   1.25849   1.27019   1.27025
 Alpha virt. eigenvalues --    1.27223   1.27356   1.28036   1.28407   1.28472
 Alpha virt. eigenvalues --    1.29300   1.30881   1.31065   1.33449   1.33942
 Alpha virt. eigenvalues --    1.38056   1.38145   1.38905   1.39062   1.39455
 Alpha virt. eigenvalues --    1.40662   1.41146   1.43815   1.44700   1.45671
 Alpha virt. eigenvalues --    1.46745   1.47478   1.47487   1.47734   1.47857
 Alpha virt. eigenvalues --    1.49398   1.50216   1.50318   1.52508   1.54214
 Alpha virt. eigenvalues --    1.54460   1.56788   1.58802   1.59187   1.60287
 Alpha virt. eigenvalues --    1.60845   1.61273   1.61616   1.62893   1.63817
 Alpha virt. eigenvalues --    1.64457   1.66933   1.68912   1.68958   1.69949
 Alpha virt. eigenvalues --    1.70012   1.70290   1.72642   1.72824   1.73723
 Alpha virt. eigenvalues --    1.73919   1.77347   1.81985   1.82666   1.83278
 Alpha virt. eigenvalues --    1.83538   1.89949   1.95540   1.96649   1.96746
 Alpha virt. eigenvalues --    1.97389   1.99449   2.02852   2.03440   2.03942
 Alpha virt. eigenvalues --    2.06220   2.06805   2.06943   2.09673   2.10320
 Alpha virt. eigenvalues --    2.10486   2.12409   2.15467   2.19113   2.20445
 Alpha virt. eigenvalues --    2.20497   2.20923   2.21087   2.22771   2.22981
 Alpha virt. eigenvalues --    2.25441   2.26596   2.28497   2.32046   2.37158
 Alpha virt. eigenvalues --    2.43899   2.44173   2.51178   2.82303   2.94292
 Alpha virt. eigenvalues --    3.06490   3.10656   3.51236   3.51296   3.52108
 Alpha virt. eigenvalues --    3.52217   3.52363   3.52421   3.53745   3.54101
 Alpha virt. eigenvalues --    3.54442   3.54491   3.54739   3.55595   3.55629
 Alpha virt. eigenvalues --    3.55921   3.56464   3.56822   3.57905   3.58141
 Alpha virt. eigenvalues --    3.58604   3.60046   3.66106   3.66250   3.67747
 Alpha virt. eigenvalues --    3.67862   3.71306   3.71737   3.74703   3.75983
 Alpha virt. eigenvalues --    3.77156   3.78555   3.79996   3.80006   3.81126
 Alpha virt. eigenvalues --    3.81385   3.89040   3.89503   3.97209   3.98516
 Alpha virt. eigenvalues --    3.98768   3.99783   4.00905   4.03088   4.04709
 Alpha virt. eigenvalues --    4.06043   4.06695   4.07969   4.17494   4.20155
 Alpha virt. eigenvalues --    4.21652   4.25886   5.00811   5.31323   5.36954
 Alpha virt. eigenvalues --    5.44146   5.55793   5.56702   5.58525   5.61667
 Alpha virt. eigenvalues --    5.63327   5.63992   5.66925   5.67293   5.88986
 Alpha virt. eigenvalues --    5.91671   5.99908   6.21090  11.17941  11.19315
 Alpha virt. eigenvalues --   11.21759  11.21805  11.25878  11.26013  11.27694
 Alpha virt. eigenvalues --   11.31936  11.32078  11.33301  29.56037  29.81628
 Alpha virt. eigenvalues --   29.86522  29.90003  29.93642  29.96899  29.98530
 Alpha virt. eigenvalues --   29.98727  30.05913  30.07509  30.11746  30.12769
 Alpha virt. eigenvalues --   30.26320  30.30625  30.31857  30.49326  68.10986
 Alpha virt. eigenvalues --   68.12217  68.14736  68.14847  68.18789  68.18919
 Alpha virt. eigenvalues --   68.20740  68.24650  68.25132  68.26107
          Condensed to atoms (all electrons):
              1          2          3          4          5          6
     1  C    5.381774   0.289350  -0.025194  -0.161818  -0.025194   0.289349
     2  C    0.289350   6.056522  -0.233890   0.233007  -0.171920  -0.255479
     3  C   -0.025194  -0.233890   7.677974  -1.920209   0.521442  -0.171922
     4  C   -0.161818   0.233007  -1.920209  10.679289  -1.920215   0.233011
     5  C   -0.025194  -0.171920   0.521442  -1.920215   7.677976  -0.233891
     6  C    0.289349  -0.255479  -0.171922   0.233011  -0.233891   6.056522
     7  C   -0.008180   0.070566  -0.305050   0.414861  -0.114485   0.041474
     8  C    0.030179  -0.175370   1.133349  -3.177184   1.133351  -0.175369
     9  C    0.002552   0.135693  -0.356812   1.133349  -0.322008  -0.004866
    10  C   -0.005600  -0.038701  -0.080671  -0.375955   0.093890   0.000457
    11  C    0.001149  -0.003857   0.135692  -0.175369  -0.004866  -0.002505
    12  C   -0.000143   0.001149   0.002552   0.030179   0.002552   0.001149
    13  C    0.001149  -0.002505  -0.004866  -0.175369   0.135693  -0.003857
    14  C    0.002552  -0.004866  -0.322008   1.133350  -0.356815   0.135693
    15  C   -0.005600   0.000457   0.093889  -0.375955  -0.080669  -0.038701
    16  C   -0.008180   0.041474  -0.114484   0.414860  -0.305050   0.070565
    17  F   -0.000616   0.000509   0.001022   0.003210  -0.040668  -0.000869
    18  F   -0.007635   0.003038  -0.002428   0.055339  -0.103762  -0.057492
    19  F   -0.080473   0.004273   0.000436   0.029622  -0.170524   0.213091
    20  F    0.177926  -0.080034  -0.015252   0.010893  -0.015252  -0.080034
    21  F   -0.080473   0.213091  -0.170524   0.029621   0.000436   0.004273
    22  F   -0.007635  -0.057492  -0.103762   0.055339  -0.002428   0.003038
    23  F   -0.000616  -0.000869  -0.040668   0.003210   0.001022   0.000509
    24  F    0.000004  -0.000137   0.006677  -0.006640  -0.000575  -0.000073
    25  F   -0.000003   0.000007   0.000820  -0.003629   0.000820   0.000007
    26  F    0.000004  -0.000073  -0.000575  -0.006640   0.006677  -0.000137
              7          8          9         10         11         12
     1  C   -0.008180   0.030179   0.002552  -0.005600   0.001149  -0.000143
     2  C    0.070566  -0.175370   0.135693  -0.038701  -0.003857   0.001149
     3  C   -0.305050   1.133349  -0.356812  -0.080671   0.135692   0.002552
     4  C    0.414861  -3.177184   1.133349  -0.375955  -0.175369   0.030179
     5  C   -0.114485   1.133351  -0.322008   0.093890  -0.004866   0.002552
     6  C    0.041474  -0.175369  -0.004866   0.000457  -0.002505   0.001149
     7  C    5.978486  -0.375955  -0.080671   0.296792  -0.038701  -0.005600
     8  C   -0.375955  10.679288  -1.920209   0.414861   0.233007  -0.161818
     9  C   -0.080671  -1.920209   7.677974  -0.305051  -0.233890  -0.025195
    10  C    0.296792   0.414861  -0.305051   5.978486   0.070566  -0.008180
    11  C   -0.038701   0.233007  -0.233890   0.070566   6.056523   0.289350
    12  C   -0.005600  -0.161818  -0.025195  -0.008180   0.289350   5.381775
    13  C    0.000457   0.233009  -0.171922   0.041474  -0.255480   0.289349
    14  C    0.093890  -1.920214   0.521441  -0.114485  -0.171920  -0.025195
    15  C   -0.017534   0.414860  -0.114484   0.014267   0.041474  -0.008180
    16  C    0.014267  -0.375955   0.093889  -0.017534   0.000457  -0.005600
    17  F   -0.000162   0.055339  -0.002428   0.000215   0.003038  -0.007635
    18  F    0.000215   0.003210   0.001022  -0.000162   0.000509  -0.000616
    19  F    0.001073  -0.006640  -0.000575   0.000457  -0.000073   0.000004
    20  F    0.003525  -0.003629   0.000820  -0.000818   0.000007  -0.000003
    21  F   -0.025915  -0.006640   0.006677  -0.011419  -0.000137   0.000004
    22  F    0.168990   0.003210  -0.040668  -0.105043  -0.000869  -0.000616
    23  F   -0.105043   0.055339  -0.103762   0.168990  -0.057492  -0.007635
    24  F   -0.011419   0.029621  -0.170524  -0.025916   0.213091  -0.080473
    25  F   -0.000818   0.010893  -0.015252   0.003525  -0.080034   0.177926
    26  F    0.000457   0.029621   0.000436   0.001073   0.004273  -0.080473
             13         14         15         16         17         18
     1  C    0.001149   0.002552  -0.005600  -0.008180  -0.000616  -0.007635
     2  C   -0.002505  -0.004866   0.000457   0.041474   0.000509   0.003038
     3  C   -0.004866  -0.322008   0.093889  -0.114484   0.001022  -0.002428
     4  C   -0.175369   1.133350  -0.375955   0.414860   0.003210   0.055339
     5  C    0.135693  -0.356815  -0.080669  -0.305050  -0.040668  -0.103762
     6  C   -0.003857   0.135693  -0.038701   0.070565  -0.000869  -0.057492
     7  C    0.000457   0.093890  -0.017534   0.014267  -0.000162   0.000215
     8  C    0.233009  -1.920214   0.414860  -0.375955   0.055339   0.003210
     9  C   -0.171922   0.521441  -0.114484   0.093889  -0.002428   0.001022
    10  C    0.041474  -0.114485   0.014267  -0.017534   0.000215  -0.000162
    11  C   -0.255480  -0.171920   0.041474   0.000457   0.003038   0.000509
    12  C    0.289349  -0.025195  -0.008180  -0.005600  -0.007635  -0.000616
    13  C    6.056523  -0.233890   0.070566  -0.038701  -0.057492  -0.000869
    14  C   -0.233890   7.677977  -0.305050  -0.080669  -0.103761  -0.040668
    15  C    0.070566  -0.305050   5.978485   0.296793   0.168990  -0.105043
    16  C   -0.038701  -0.080669   0.296793   5.978485  -0.105043   0.168990
    17  F   -0.057492  -0.103761   0.168990  -0.105043   9.216946   0.006753
    18  F   -0.000869  -0.040668  -0.105043   0.168990   0.006753   9.216945
    19  F   -0.000137   0.006677  -0.011419  -0.025916  -0.000462  -0.008630
    20  F    0.000007   0.000820  -0.000818   0.003525  -0.000031  -0.000165
    21  F   -0.000073  -0.000575   0.000457   0.001073   0.000017   0.000090
    22  F    0.000509   0.001022  -0.000162   0.000215   0.000004  -0.000029
    23  F    0.003038  -0.002428   0.000215  -0.000162  -0.000029   0.000004
    24  F    0.004273   0.000436   0.001073   0.000457   0.000090   0.000017
    25  F   -0.080033  -0.015252   0.003525  -0.000818  -0.000165  -0.000031
    26  F    0.213091  -0.170524  -0.025916  -0.011419  -0.008630  -0.000462
             19         20         21         22         23         24
     1  C   -0.080473   0.177926  -0.080473  -0.007635  -0.000616   0.000004
     2  C    0.004273  -0.080034   0.213091  -0.057492  -0.000869  -0.000137
     3  C    0.000436  -0.015252  -0.170524  -0.103762  -0.040668   0.006677
     4  C    0.029622   0.010893   0.029621   0.055339   0.003210  -0.006640
     5  C   -0.170524  -0.015252   0.000436  -0.002428   0.001022  -0.000575
     6  C    0.213091  -0.080034   0.004273   0.003038   0.000509  -0.000073
     7  C    0.001073   0.003525  -0.025915   0.168990  -0.105043  -0.011419
     8  C   -0.006640  -0.003629  -0.006640   0.003210   0.055339   0.029621
     9  C   -0.000575   0.000820   0.006677  -0.040668  -0.103762  -0.170524
    10  C    0.000457  -0.000818  -0.011419  -0.105043   0.168990  -0.025916
    11  C   -0.000073   0.000007  -0.000137  -0.000869  -0.057492   0.213091
    12  C    0.000004  -0.000003   0.000004  -0.000616  -0.007635  -0.080473
    13  C   -0.000137   0.000007  -0.000073   0.000509   0.003038   0.004273
    14  C    0.006677   0.000820  -0.000575   0.001022  -0.002428   0.000436
    15  C   -0.011419  -0.000818   0.000457  -0.000162   0.000215   0.001073
    16  C   -0.025916   0.003525   0.001073   0.000215  -0.000162   0.000457
    17  F   -0.000462  -0.000031   0.000017   0.000004  -0.000029   0.000090
    18  F   -0.008630  -0.000165   0.000090  -0.000029   0.000004   0.000017
    19  F    9.192393  -0.015890  -0.001800   0.000090   0.000017  -0.000001
    20  F   -0.015890   9.154218  -0.015890  -0.000165  -0.000031   0.000000
    21  F   -0.001800  -0.015890   9.192393  -0.008630  -0.000462   0.000012
    22  F    0.000090  -0.000165  -0.008630   9.216946   0.006753  -0.000462
    23  F    0.000017  -0.000031  -0.000462   0.006753   9.216946  -0.008630
    24  F   -0.000001   0.000000   0.000012  -0.000462  -0.008630   9.192393
    25  F    0.000000   0.000000   0.000000  -0.000031  -0.000165  -0.015890
    26  F    0.000012   0.000000  -0.000001   0.000017   0.000090  -0.001800
             25         26
     1  C   -0.000003   0.000004
     2  C    0.000007  -0.000073
     3  C    0.000820  -0.000575
     4  C   -0.003629  -0.006640
     5  C    0.000820   0.006677
     6  C    0.000007  -0.000137
     7  C   -0.000818   0.000457
     8  C    0.010893   0.029621
     9  C   -0.015252   0.000436
    10  C    0.003525   0.001073
    11  C   -0.080034   0.004273
    12  C    0.177926  -0.080473
    13  C   -0.080033   0.213091
    14  C   -0.015252  -0.170524
    15  C    0.003525  -0.025916
    16  C   -0.000818  -0.011419
    17  F   -0.000165  -0.008630
    18  F   -0.000031  -0.000462
    19  F    0.000000   0.000012
    20  F    0.000000   0.000000
    21  F    0.000000  -0.000001
    22  F   -0.000031   0.000017
    23  F   -0.000165   0.000090
    24  F   -0.015890  -0.001800
    25  F    9.154218  -0.015890
    26  F   -0.015890   9.192393
 Mulliken atomic charges:
              1
     1  C    0.241372
     2  C   -0.023942
     3  C    0.294461
     4  C   -0.160156
     5  C    0.294462
     6  C   -0.023942
     7  C    0.004482
     8  C   -0.160156
     9  C    0.294461
    10  C    0.004482
    11  C   -0.023942
    12  C    0.241373
    13  C   -0.023942
    14  C    0.294462
    15  C    0.004482
    16  C    0.004483
    17  F   -0.128140
    18  F   -0.128140
    19  F   -0.125606
    20  F   -0.123727
    21  F   -0.125606
    22  F   -0.128140
    23  F   -0.128140
    24  F   -0.125606
    25  F   -0.123727
    26  F   -0.125606
 Sum of Mulliken charges=   0.00000
 Atomic charges with hydrogens summed into heavy atoms:
              1
     1  C    0.241372
     2  C   -0.023942
     3  C    0.294461
     4  C   -0.160156
     5  C    0.294462
     6  C   -0.023942
     7  C    0.004482
     8  C   -0.160156
     9  C    0.294461
    10  C    0.004482
    11  C   -0.023942
    12  C    0.241373
    13  C   -0.023942
    14  C    0.294462
    15  C    0.004482
    16  C    0.004483
    17  F   -0.128140
    18  F   -0.128140
    19  F   -0.125606
    20  F   -0.123727
    21  F   -0.125606
    22  F   -0.128140
    23  F   -0.128140
    24  F   -0.125606
    25  F   -0.123727
    26  F   -0.125606
 Sum of Mulliken charges=   0.00000
 Electronic spatial extent (au):  <R**2>=  8383.9689
 Charge=     0.0000 electrons
 Dipole moment (field-independent basis, Debye):
    X=     0.0000    Y=     0.0000    Z=     0.0000  Tot=     0.0000
 Quadrupole moment (field-independent basis, Debye-Ang):
   XX=  -156.0897   YY=  -158.9605   ZZ=  -132.9021
   XY=     0.0000   XZ=     0.0024   YZ=     0.0002
 Traceless Quadrupole moment (field-independent basis, Debye-Ang):
   XX=    -6.7723   YY=    -9.6431   ZZ=    16.4153
   XY=     0.0000   XZ=     0.0024   YZ=     0.0002
 Octapole moment (field-independent basis, Debye-Ang**2):
  XXX=     0.0000  YYY=     0.0000  ZZZ=    -0.0001  XYY=     0.0000
  XXY=     0.0000  XXZ=     0.0000  XZZ=     0.0000  YZZ=     0.0000
  YYZ=     0.0000  XYZ=     0.0000
 Hexadecapole moment (field-independent basis, Debye-Ang**3):
 XXXX= -6047.1913 YYYY= -3886.8033 ZZZZ=  -120.5318 XXXY=     0.0000
 XXXZ=     0.3493 YYYX=     0.0000 YYYZ=     0.0181 ZZZX=     0.2719
 ZZZY=     0.0142 XXYY= -1656.8967 XXZZ=  -904.9330 YYZZ=  -591.5547
 XXYZ=     0.0065 YYXZ=     0.1116 ZZXY=     0.0000
 N-N= 2.417896549260D+03 E-N=-8.625663376333D+03  KE= 1.598458392596D+03
 Calculating spin-rotation constants.
 Leave Link  601 at Sat Mar 12 17:30:11 2011, MaxMem= 4294967296 cpu:     169.4
 (Enter /system/software/orac/g03_E.01/g03/l9999.exe)
 1\1\GINC-ORAC\SP\RB3LYP\EPR-II\C16F10\KUPROV\12-Mar-2011\0\\#p nmr=(gi
 ao,spinspin) b3lyp/EPR-II scf=tight integral=(grid=ultrafine) geom=che
 ckpoint\\Perfluoropyrene neutral molecule.\\0,1\C,0,-4.3697152189,-4.5
 405695525,0.001521497\C,0,-2.9728449587,-4.5386342497,0.0015834793\C,0
 ,-2.2496804773,-3.3306920182,0.0017314063\C,0,-2.97502081,-2.089075522
 8,0.001817956\C,0,-4.4129403421,-2.0999786857,0.0017536271\C,0,-5.0817
 905026,-3.3388201636,0.0016055399\C,0,-0.8131489249,-3.2795029001,0.00
 17992979\C,0,-2.2651482555,-0.841312562,0.0019684892\C,0,-0.8272291602
 ,-0.8304092632,0.0020330104\C,0,-0.1372277488,-2.0914171866,0.00194314
 62\C,0,-0.158378339,0.4084329667,0.0021807701\C,0,-0.870453562,1.61018
 14561,0.0022636386\C,0,-2.26732487,1.6082457035,0.0022008437\C,0,-2.99
 04888121,0.4003044521,0.0020532772\C,0,-4.4270205416,0.3491152812,0.00
 19841404\C,0,-5.1029416153,-0.8389699353,0.0018424126\F,0,-5.131488205
 2,1.487785315,0.0020604268\F,0,-6.4417020001,-0.815213042,0.0017840535
 \F,0,-6.416345354,-3.41595972,0.0015390359\F,0,-5.0296976984,-5.700637
 5561,0.0013808744\F,0,-2.3572550305,-5.7252411663,0.0014971535\F,0,-0.
 1086796125,-4.4181717388,0.001720294\F,0,1.201532634,-2.1151741498,0.0
 019987128\F,0,1.1761766098,0.4855707421,0.0022476233\F,0,-0.2104728564
 ,2.7702504794,0.0024034263\F,0,-2.8829143476,2.7948530165,0.0022858675
 \\Version=IA64L-G03RevE.01\State=1-A\HF=-1608.4280772\RMSD=4.007e-09\T
 hermal=0.\Dipole=0.0000006,-0.000001,0.0000013\PG=C01 [X(C16F10)]\\@


 The earth never tires,
 The earth is rude, silent, incomprehensible at first,
 Nature is rude and incomprehensible at first,
 Be not discouraged, keep on,
 There are divine things well envelop'd,
 I swear to you there are divine things more beautiful than words can tell.
                                 -- Walt Whitman
 Job cpu time:  1 days 20 hours 14 minutes 15.0 seconds.
 File lengths (MBytes):  RWF=   2230 Int=      0 D2E=      0 Chk=     22 Scr=      1
 Normal termination of Gaussian 03 at Sat Mar 12 17:30:12 2011.
