 Entering Gaussian System, Link 0=g03
 Input=pyrene.com
 Output=pyrene.log
 Initial command:
 /system/software/orac/g03_E.01/g03/l1.exe /scratch/pbs.90239.orac/Gau-89393.inp -scrdir=/scratch/pbs.90239.orac/
 Entering Link 1 = /system/software/orac/g03_E.01/g03/l1.exe PID=     89394.
  
 Copyright (c) 1988,1990,1992,1993,1995,1998,2003,2004,2007, Gaussian, Inc.
                  All Rights Reserved.
  
 This is the Gaussian(R) 03 program.  It is based on the
 the Gaussian(R) 98 system (copyright 1998, Gaussian, Inc.),
 the Gaussian(R) 94 system (copyright 1995, Gaussian, Inc.),
 the Gaussian 92(TM) system (copyright 1992, Gaussian, Inc.),
 the Gaussian 90(TM) system (copyright 1990, Gaussian, Inc.),
 the Gaussian 88(TM) system (copyright 1988, Gaussian, Inc.),
 the Gaussian 86(TM) system (copyright 1986, Carnegie Mellon
 University), and the Gaussian 82(TM) system (copyright 1983,
 Carnegie Mellon University). Gaussian is a federally registered
 trademark of Gaussian, Inc.
  
 This software contains proprietary and confidential information,
 including trade secrets, belonging to Gaussian, Inc.
  
 This software is provided under written license and may be
 used, copied, transmitted, or stored only in accord with that
 written license.
  
 The following legend is applicable only to US Government
 contracts under FAR:
  
                    RESTRICTED RIGHTS LEGEND
  
 Use, reproduction and disclosure by the US Government is
 subject to restrictions as set forth in subparagraphs (a)
 and (c) of the Commercial Computer Software - Restricted
 Rights clause in FAR 52.227-19.
  
 Gaussian, Inc.
 340 Quinnipiac St., Bldg. 40, Wallingford CT 06492
  
  
 ---------------------------------------------------------------
 Warning -- This program may not be used in any manner that
 competes with the business of Gaussian, Inc. or will provide
 assistance to any competitor of Gaussian, Inc.  The licensee
 of this program is prohibited from giving any competitor of
 Gaussian, Inc. access to this program.  By using this program,
 the user acknowledges that Gaussian, Inc. is engaged in the
 business of creating and licensing software in the field of
 computational chemistry and represents and warrants to the
 licensee that it is not a competitor of Gaussian, Inc. and that
 it will not use this program in any manner prohibited above.
 ---------------------------------------------------------------
  

 Cite this work as:
 Gaussian 03, Revision E.01,
 M. J. Frisch, G. W. Trucks, H. B. Schlegel, G. E. Scuseria, 
 M. A. Robb, J. R. Cheeseman, J. A. Montgomery, Jr., T. Vreven, 
 K. N. Kudin, J. C. Burant, J. M. Millam, S. S. Iyengar, J. Tomasi, 
 V. Barone, B. Mennucci, M. Cossi, G. Scalmani, N. Rega, 
 G. A. Petersson, H. Nakatsuji, M. Hada, M. Ehara, K. Toyota, 
 R. Fukuda, J. Hasegawa, M. Ishida, T. Nakajima, Y. Honda, O. Kitao, 
 H. Nakai, M. Klene, X. Li, J. E. Knox, H. P. Hratchian, J. B. Cross, 
 V. Bakken, C. Adamo, J. Jaramillo, R. Gomperts, R. E. Stratmann, 
 O. Yazyev, A. J. Austin, R. Cammi, C. Pomelli, J. W. Ochterski, 
 P. Y. Ayala, K. Morokuma, G. A. Voth, P. Salvador, J. J. Dannenberg, 
 V. G. Zakrzewski, S. Dapprich, A. D. Daniels, M. C. Strain, 
 O. Farkas, D. K. Malick, A. D. Rabuck, K. Raghavachari, 
 J. B. Foresman, J. V. Ortiz, Q. Cui, A. G. Baboul, S. Clifford, 
 J. Cioslowski, B. B. Stefanov, G. Liu, A. Liashenko, P. Piskorz, 
 I. Komaromi, R. L. Martin, D. J. Fox, T. Keith, M. A. Al-Laham, 
 C. Y. Peng, A. Nanayakkara, M. Challacombe, P. M. W. Gill, 
 B. Johnson, W. Chen, M. W. Wong, C. Gonzalez, and J. A. Pople, 
 Gaussian, Inc., Wallingford CT, 2004.
 
 ******************************************
 Gaussian 03:  IA64L-G03RevE.01 11-Sep-2007
                12-Mar-2011 
 ******************************************
 %Mem=32GB
 %NProcShared=32
 Will use up to   32 processors via shared memory.
 %Chk=pyrene_neutral.chk
 -------------------------------------------------------------
 #p opt=tight b3lyp/EPR-II scf=tight integral=(grid=ultrafine)
 -------------------------------------------------------------
 1/7=10,14=-1,18=20,26=3,38=1/1,3;
 2/9=110,17=6,18=5,40=1/2;
 3/5=21,11=2,16=1,25=1,30=1,74=-5,75=5/1,2,3;
 4//1;
 5/5=2,32=2,38=5/2;
 6/7=2,8=2,9=2,10=2,28=1/1;
 7//1,2,3,16;
 1/14=-1,18=20/3(3);
 2/9=110/2;
 6/7=2,8=2,9=2,10=2,19=2,28=1/1;
 99//99;
 2/9=110/2;
 3/5=21,11=2,16=1,25=1,30=1,74=-5,75=5/1,2,3;
 4/5=5,16=3/1;
 5/5=2,32=2,38=5/2;
 7//1,2,3,16;
 1/14=-1,18=20/3(-5);
 2/9=110/2;
 6/7=2,8=2,9=2,10=2,19=2,28=1/1;
 99/9=1/99;
 Leave Link    1 at Sat Mar 12 15:07:16 2011, MaxMem= 4294967296 cpu:       3.2
 (Enter /system/software/orac/g03_E.01/g03/l101.exe)
 ------------------------
 Pyrene neutral molecule.
 ------------------------
 Symbolic Z-matrix:
 Charge =  0 Multiplicity = 1
 C                    -4.35865  -4.52119   0.00177 
 C                    -2.96581  -4.52119   0.00177 
 C                    -2.25734  -3.31271   0.00177 
 C                    -2.97446  -2.0881    0.00181 
 C                    -4.39359  -2.09744   0.00184 
 C                    -5.0704   -3.32385   0.00174 
 C                    -0.81829  -3.27063   0.00184 
 C                    -2.26567  -0.84229   0.00203 
 C                    -0.84658  -0.83297   0.00206 
 C                    -0.14746  -2.09149   0.00193 
 C                    -0.16974   0.39352   0.00222 
 C                    -0.88146   1.59079   0.00237 
 C                    -2.27438   1.59079   0.0024 
 C                    -2.9828    0.38235   0.00219 
 C                    -4.42189   0.34022   0.00198 
 C                    -5.09271  -0.83889   0.00183 
 H                    -5.08198   1.51784   0.00208 
 H                    -6.44227  -0.87329   0.00119 
 H                    -6.42031  -3.3396    0.00127 
 H                    -5.02627  -5.69456   0.00145 
 H                    -2.28966  -5.68966   0.00166 
 H                    -0.15836  -4.44833   0.00148 
 H                     1.2021   -2.05722   0.00158 
 H                     1.18017   0.40931   0.00218 
 H                    -0.21397   2.76423   0.00234 
 H                    -2.95042   2.75932   0.00242 
 
                    Isotopes and Nuclear Properties:
 (Nuclear quadrupole moments (NQMom) in fm**2, nuclear magnetic moments (NMagM)
  in nuclear magnetons)

  Atom         1           2           3           4           5           6           7           8           9          10
 IAtWgt=          12          12          12          12          12          12          12          12          12          12
 AtmWgt=  12.0000000  12.0000000  12.0000000  12.0000000  12.0000000  12.0000000  12.0000000  12.0000000  12.0000000  12.0000000
 NucSpn=           0           0           0           0           0           0           0           0           0           0
 AtZEff=   0.0000000   0.0000000   0.0000000   0.0000000   0.0000000   0.0000000   0.0000000   0.0000000   0.0000000   0.0000000
 NQMom=    0.0000000   0.0000000   0.0000000   0.0000000   0.0000000   0.0000000   0.0000000   0.0000000   0.0000000   0.0000000
 NMagM=    0.0000000   0.0000000   0.0000000   0.0000000   0.0000000   0.0000000   0.0000000   0.0000000   0.0000000   0.0000000

  Atom        11          12          13          14          15          16          17          18          19          20
 IAtWgt=          12          12          12          12          12          12           1           1           1           1
 AtmWgt=  12.0000000  12.0000000  12.0000000  12.0000000  12.0000000  12.0000000   1.0078250   1.0078250   1.0078250   1.0078250
 NucSpn=           0           0           0           0           0           0           1           1           1           1
 AtZEff=   0.0000000   0.0000000   0.0000000   0.0000000   0.0000000   0.0000000   0.0000000   0.0000000   0.0000000   0.0000000
 NQMom=    0.0000000   0.0000000   0.0000000   0.0000000   0.0000000   0.0000000   0.0000000   0.0000000   0.0000000   0.0000000
 NMagM=    0.0000000   0.0000000   0.0000000   0.0000000   0.0000000   0.0000000   2.7928460   2.7928460   2.7928460   2.7928460

  Atom        21          22          23          24          25          26
 IAtWgt=           1           1           1           1           1           1
 AtmWgt=   1.0078250   1.0078250   1.0078250   1.0078250   1.0078250   1.0078250
 NucSpn=           1           1           1           1           1           1
 AtZEff=   0.0000000   0.0000000   0.0000000   0.0000000   0.0000000   0.0000000
 NQMom=    0.0000000   0.0000000   0.0000000   0.0000000   0.0000000   0.0000000
 NMagM=    2.7928460   2.7928460   2.7928460   2.7928460   2.7928460   2.7928460
 Leave Link  101 at Sat Mar 12 15:07:16 2011, MaxMem= 4294967296 cpu:       1.3
 (Enter /system/software/orac/g03_E.01/g03/l103.exe)

 GradGradGradGradGradGradGradGradGradGradGradGradGradGradGradGradGradGrad
 Berny optimization.
 Initialization pass.
                           ----------------------------
                           !    Initial Parameters    !
                           ! (Angstroms and Degrees)  !
 --------------------------                            --------------------------
 ! Name  Definition              Value          Derivative Info.                !
 --------------------------------------------------------------------------------
 ! R1    R(1,2)                  1.3928         estimate D2E/DX2                !
 ! R2    R(1,6)                  1.3929         estimate D2E/DX2                !
 ! R3    R(1,20)                 1.35           estimate D2E/DX2                !
 ! R4    R(2,3)                  1.4008         estimate D2E/DX2                !
 ! R5    R(2,21)                 1.35           estimate D2E/DX2                !
 ! R6    R(3,4)                  1.4191         estimate D2E/DX2                !
 ! R7    R(3,7)                  1.4397         estimate D2E/DX2                !
 ! R8    R(4,5)                  1.4192         estimate D2E/DX2                !
 ! R9    R(4,8)                  1.4333         estimate D2E/DX2                !
 ! R10   R(5,6)                  1.4008         estimate D2E/DX2                !
 ! R11   R(5,16)                 1.4397         estimate D2E/DX2                !
 ! R12   R(6,19)                 1.35           estimate D2E/DX2                !
 ! R13   R(7,10)                 1.3566         estimate D2E/DX2                !
 ! R14   R(7,22)                 1.35           estimate D2E/DX2                !
 ! R15   R(8,9)                  1.4191         estimate D2E/DX2                !
 ! R16   R(8,14)                 1.4192         estimate D2E/DX2                !
 ! R17   R(9,10)                 1.4397         estimate D2E/DX2                !
 ! R18   R(9,11)                 1.4009         estimate D2E/DX2                !
 ! R19   R(10,23)                1.35           estimate D2E/DX2                !
 ! R20   R(11,12)                1.3928         estimate D2E/DX2                !
 ! R21   R(11,24)                1.35           estimate D2E/DX2                !
 ! R22   R(12,13)                1.3929         estimate D2E/DX2                !
 ! R23   R(12,25)                1.35           estimate D2E/DX2                !
 ! R24   R(13,14)                1.4008         estimate D2E/DX2                !
 ! R25   R(13,26)                1.35           estimate D2E/DX2                !
 ! R26   R(14,15)                1.4397         estimate D2E/DX2                !
 ! R27   R(15,16)                1.3566         estimate D2E/DX2                !
 ! R28   R(15,17)                1.35           estimate D2E/DX2                !
 ! R29   R(16,18)                1.35           estimate D2E/DX2                !
 ! A1    A(2,1,6)              120.7291         estimate D2E/DX2                !
 ! A2    A(2,1,20)             119.6389         estimate D2E/DX2                !
 ! A3    A(6,1,20)             119.6321         estimate D2E/DX2                !
 ! A4    A(1,2,3)              120.3809         estimate D2E/DX2                !
 ! A5    A(1,2,21)             120.0564         estimate D2E/DX2                !
 ! A6    A(3,2,21)             119.5627         estimate D2E/DX2                !
 ! A7    A(2,3,4)              119.2663         estimate D2E/DX2                !
 ! A8    A(2,3,7)              122.0559         estimate D2E/DX2                !
 ! A9    A(4,3,7)              118.6779         estimate D2E/DX2                !
 ! A10   A(3,4,5)              119.9757         estimate D2E/DX2                !
 ! A11   A(3,4,8)              120.0099         estimate D2E/DX2                !
 ! A12   A(5,4,8)              120.0143         estimate D2E/DX2                !
 ! A13   A(4,5,6)              119.2698         estimate D2E/DX2                !
 ! A14   A(4,5,16)             118.6749         estimate D2E/DX2                !
 ! A15   A(6,5,16)             122.0553         estimate D2E/DX2                !
 ! A16   A(1,6,5)              120.3783         estimate D2E/DX2                !
 ! A17   A(1,6,19)             120.0606         estimate D2E/DX2                !
 ! A18   A(5,6,19)             119.5611         estimate D2E/DX2                !
 ! A19   A(3,7,10)             121.3111         estimate D2E/DX2                !
 ! A20   A(3,7,22)             117.5894         estimate D2E/DX2                !
 ! A21   A(10,7,22)            121.0995         estimate D2E/DX2                !
 ! A22   A(4,8,9)              120.0135         estimate D2E/DX2                !
 ! A23   A(4,8,14)             120.0102         estimate D2E/DX2                !
 ! A24   A(9,8,14)             119.9763         estimate D2E/DX2                !
 ! A25   A(8,9,10)             118.6763         estimate D2E/DX2                !
 ! A26   A(8,9,11)             119.2685         estimate D2E/DX2                !
 ! A27   A(10,9,11)            122.0552         estimate D2E/DX2                !
 ! A28   A(7,10,9)             121.3112         estimate D2E/DX2                !
 ! A29   A(7,10,23)            121.0908         estimate D2E/DX2                !
 ! A30   A(9,10,23)            117.598          estimate D2E/DX2                !
 ! A31   A(9,11,12)            120.3784         estimate D2E/DX2                !
 ! A32   A(9,11,24)            119.5623         estimate D2E/DX2                !
 ! A33   A(12,11,24)           120.0593         estimate D2E/DX2                !
 ! A34   A(11,12,13)           120.7295         estimate D2E/DX2                !
 ! A35   A(11,12,25)           119.6379         estimate D2E/DX2                !
 ! A36   A(13,12,25)           119.6326         estimate D2E/DX2                !
 ! A37   A(12,13,14)           120.38           estimate D2E/DX2                !
 ! A38   A(12,13,26)           120.051          estimate D2E/DX2                !
 ! A39   A(14,13,26)           119.569          estimate D2E/DX2                !
 ! A40   A(8,14,13)            119.2675         estimate D2E/DX2                !
 ! A41   A(8,14,15)            118.6757         estimate D2E/DX2                !
 ! A42   A(13,14,15)           122.0569         estimate D2E/DX2                !
 ! A43   A(14,15,16)           121.3133         estimate D2E/DX2                !
 ! A44   A(14,15,17)           117.595          estimate D2E/DX2                !
 ! A45   A(16,15,17)           121.0917         estimate D2E/DX2                !
 ! A46   A(5,16,15)            121.3115         estimate D2E/DX2                !
 ! A47   A(5,16,18)            117.5919         estimate D2E/DX2                !
 ! A48   A(15,16,18)           121.0966         estimate D2E/DX2                !
 ! D1    D(6,1,2,3)              0.0014         estimate D2E/DX2                !
 ! D2    D(6,1,2,21)          -179.9932         estimate D2E/DX2                !
 ! D3    D(20,1,2,3)           179.9844         estimate D2E/DX2                !
 ! D4    D(20,1,2,21)           -0.0102         estimate D2E/DX2                !
 ! D5    D(2,1,6,5)             -0.0062         estimate D2E/DX2                !
 ! D6    D(2,1,6,19)           179.9769         estimate D2E/DX2                !
 ! D7    D(20,1,6,5)          -179.9891         estimate D2E/DX2                !
 ! D8    D(20,1,6,19)           -0.006          estimate D2E/DX2                !
 ! D9    D(1,2,3,4)              0.0019         estimate D2E/DX2                !
 ! D10   D(1,2,3,7)            179.9967         estimate D2E/DX2                !
 ! D11   D(21,2,3,4)           179.9965         estimate D2E/DX2                !
 ! D12   D(21,2,3,7)            -0.0087         estimate D2E/DX2                !
 ! D13   D(2,3,4,5)             -0.0004         estimate D2E/DX2                !
 ! D14   D(2,3,4,8)            179.9899         estimate D2E/DX2                !
 ! D15   D(7,3,4,5)           -179.9955         estimate D2E/DX2                !
 ! D16   D(7,3,4,8)             -0.0052         estimate D2E/DX2                !
 ! D17   D(2,3,7,10)          -179.9955         estimate D2E/DX2                !
 ! D18   D(2,3,7,22)             0.0204         estimate D2E/DX2                !
 ! D19   D(4,3,7,10)            -0.0006         estimate D2E/DX2                !
 ! D20   D(4,3,7,22)          -179.9847         estimate D2E/DX2                !
 ! D21   D(3,4,5,6)             -0.0042         estimate D2E/DX2                !
 ! D22   D(3,4,5,16)          -179.9977         estimate D2E/DX2                !
 ! D23   D(8,4,5,6)           -179.9945         estimate D2E/DX2                !
 ! D24   D(8,4,5,16)             0.012          estimate D2E/DX2                !
 ! D25   D(3,4,8,9)              0.0069         estimate D2E/DX2                !
 ! D26   D(3,4,8,14)          -179.9944         estimate D2E/DX2                !
 ! D27   D(5,4,8,9)            179.9972         estimate D2E/DX2                !
 ! D28   D(5,4,8,14)            -0.0041         estimate D2E/DX2                !
 ! D29   D(4,5,6,1)              0.0075         estimate D2E/DX2                !
 ! D30   D(4,5,6,19)          -179.9757         estimate D2E/DX2                !
 ! D31   D(16,5,6,1)          -179.9992         estimate D2E/DX2                !
 ! D32   D(16,5,6,19)            0.0176         estimate D2E/DX2                !
 ! D33   D(4,5,16,15)           -0.0093         estimate D2E/DX2                !
 ! D34   D(4,5,16,18)          179.968          estimate D2E/DX2                !
 ! D35   D(6,5,16,15)          179.9974         estimate D2E/DX2                !
 ! D36   D(6,5,16,18)           -0.0254         estimate D2E/DX2                !
 ! D37   D(3,7,10,9)             0.0047         estimate D2E/DX2                !
 ! D38   D(3,7,10,23)         -179.9794         estimate D2E/DX2                !
 ! D39   D(22,7,10,9)          179.9882         estimate D2E/DX2                !
 ! D40   D(22,7,10,23)           0.0041         estimate D2E/DX2                !
 ! D41   D(4,8,9,10)            -0.0029         estimate D2E/DX2                !
 ! D42   D(4,8,9,11)           179.9974         estimate D2E/DX2                !
 ! D43   D(14,8,9,10)          179.9984         estimate D2E/DX2                !
 ! D44   D(14,8,9,11)           -0.0013         estimate D2E/DX2                !
 ! D45   D(4,8,14,13)         -179.9998         estimate D2E/DX2                !
 ! D46   D(4,8,14,15)           -0.0066         estimate D2E/DX2                !
 ! D47   D(9,8,14,13)           -0.0011         estimate D2E/DX2                !
 ! D48   D(9,8,14,15)          179.9921         estimate D2E/DX2                !
 ! D49   D(8,9,10,7)            -0.0029         estimate D2E/DX2                !
 ! D50   D(8,9,10,23)          179.9817         estimate D2E/DX2                !
 ! D51   D(11,9,10,7)          179.9968         estimate D2E/DX2                !
 ! D52   D(11,9,10,23)          -0.0185         estimate D2E/DX2                !
 ! D53   D(8,9,11,12)            0.001          estimate D2E/DX2                !
 ! D54   D(8,9,11,24)         -179.9966         estimate D2E/DX2                !
 ! D55   D(10,9,11,12)        -179.9987         estimate D2E/DX2                !
 ! D56   D(10,9,11,24)           0.0037         estimate D2E/DX2                !
 ! D57   D(9,11,12,13)           0.0017         estimate D2E/DX2                !
 ! D58   D(9,11,12,25)        -179.9911         estimate D2E/DX2                !
 ! D59   D(24,11,12,13)        179.9994         estimate D2E/DX2                !
 ! D60   D(24,11,12,25)          0.0066         estimate D2E/DX2                !
 ! D61   D(11,12,13,14)         -0.0042         estimate D2E/DX2                !
 ! D62   D(11,12,13,26)       -179.9938         estimate D2E/DX2                !
 ! D63   D(25,12,13,14)        179.9886         estimate D2E/DX2                !
 ! D64   D(25,12,13,26)         -0.001          estimate D2E/DX2                !
 ! D65   D(12,13,14,8)           0.0039         estimate D2E/DX2                !
 ! D66   D(12,13,14,15)       -179.9891         estimate D2E/DX2                !
 ! D67   D(26,13,14,8)         179.9935         estimate D2E/DX2                !
 ! D68   D(26,13,14,15)          0.0006         estimate D2E/DX2                !
 ! D69   D(8,14,15,16)           0.0096         estimate D2E/DX2                !
 ! D70   D(8,14,15,17)        -179.9972         estimate D2E/DX2                !
 ! D71   D(13,14,15,16)       -179.9974         estimate D2E/DX2                !
 ! D72   D(13,14,15,17)         -0.0043         estimate D2E/DX2                !
 ! D73   D(14,15,16,5)          -0.0016         estimate D2E/DX2                !
 ! D74   D(14,15,16,18)       -179.978          estimate D2E/DX2                !
 ! D75   D(17,15,16,5)        -179.9945         estimate D2E/DX2                !
 ! D76   D(17,15,16,18)          0.029          estimate D2E/DX2                !
 --------------------------------------------------------------------------------
 Trust Radius=3.00D-01 FncErr=1.00D-07 GrdErr=1.00D-06
 Number of steps in this run= 156 maximum allowed number of steps= 156.
 GradGradGradGradGradGradGradGradGradGradGradGradGradGradGradGradGradGrad

 Leave Link  103 at Sat Mar 12 15:07:16 2011, MaxMem= 4294967296 cpu:       0.6
 (Enter /system/software/orac/g03_E.01/g03/l202.exe)
                          Input orientation:                          
 ---------------------------------------------------------------------
 Center     Atomic     Atomic              Coordinates (Angstroms)
 Number     Number      Type              X           Y           Z
 ---------------------------------------------------------------------
    1          6             0       -4.358650   -4.521190    0.001770
    2          6             0       -2.965810   -4.521190    0.001770
    3          6             0       -2.257340   -3.312710    0.001770
    4          6             0       -2.974460   -2.088100    0.001810
    5          6             0       -4.393590   -2.097440    0.001840
    6          6             0       -5.070400   -3.323850    0.001740
    7          6             0       -0.818290   -3.270630    0.001840
    8          6             0       -2.265670   -0.842290    0.002030
    9          6             0       -0.846580   -0.832970    0.002060
   10          6             0       -0.147460   -2.091490    0.001930
   11          6             0       -0.169740    0.393520    0.002220
   12          6             0       -0.881460    1.590790    0.002370
   13          6             0       -2.274380    1.590790    0.002400
   14          6             0       -2.982800    0.382350    0.002190
   15          6             0       -4.421890    0.340220    0.001980
   16          6             0       -5.092710   -0.838890    0.001830
   17          1             0       -5.081980    1.517840    0.002080
   18          1             0       -6.442270   -0.873290    0.001190
   19          1             0       -6.420310   -3.339600    0.001270
   20          1             0       -5.026270   -5.694560    0.001450
   21          1             0       -2.289660   -5.689660    0.001660
   22          1             0       -0.158360   -4.448330    0.001480
   23          1             0        1.202100   -2.057220    0.001580
   24          1             0        1.180170    0.409310    0.002180
   25          1             0       -0.213970    2.764230    0.002340
   26          1             0       -2.950420    2.759320    0.002420
 ---------------------------------------------------------------------
                    Distance matrix (angstroms):
                    1          2          3          4          5
     1  C    0.000000
     2  C    1.392840   0.000000
     3  C    2.424031   1.400840   0.000000
     4  C    2.799269   2.433105   1.419130   0.000000
     5  C    2.424002   2.813027   2.457732   1.419161   0.000000
     6  C    1.392915   2.421347   2.813082   2.433114   1.400769
     7  C    3.754737   2.485104   1.439665   2.459156   3.762864
     8  C    4.232596   3.744930   2.470434   1.433327   2.470515
     9  C    5.092897   4.253716   2.852955   2.470471   3.765656
    10  C    4.861848   3.721094   2.437821   2.827002   4.246134
    11  C    6.457658   5.654413   4.253730   3.744982   4.903651
    12  C    7.031867   6.457617   5.092873   4.232597   5.092946
    13  C    6.457591   6.150965   4.903530   3.744909   4.253715
    14  C    5.092904   4.903569   3.765602   2.470464   2.853014
    15  C    4.861821   5.074788   4.246078   2.826976   2.437824
    16  C    3.754754   4.252415   3.762859   2.459168   1.439693
    17  H    6.082194   6.399067   5.595785   4.176655   3.680235
    18  H    4.201029   5.039142   4.844008   3.674435   2.386553
    19  H    2.376257   3.650990   4.163057   3.666079   2.377090
    20  H    1.350005   2.371137   3.652422   4.149274   3.652336
    21  H    2.376140   1.350000   2.377170   3.666086   4.163000
    22  H    4.200922   2.808395   2.386493   3.674385   4.843951
    23  H    6.082194   4.841758   3.680215   4.176674   5.595835
    24  H    7.415414   6.441970   5.066548   4.847474   6.111513
    25  H    8.381868   7.787809   6.411284   5.582599   6.411323
    26  H    7.415453   7.280526   6.111457   4.847480   5.066642
                    6          7          8          9         10
     6  C    0.000000
     7  C    4.252443   0.000000
     8  C    3.744950   2.826967   0.000000
     9  C    4.903584   2.437824   1.419121   0.000000
    10  C    5.074845   1.356608   2.459129   1.439667   0.000000
    11  C    6.151041   3.721104   2.433136   1.400853   2.485110
    12  C    6.457624   4.861830   2.799271   2.424011   3.754723
    13  C    5.654327   5.074801   2.433096   2.813046   4.252408
    14  C    4.253703   4.246100   1.419161   2.457730   3.762850
    15  C    3.721018   5.101389   2.459190   3.762873   4.917720
    16  C    2.485060   4.917726   2.827042   4.246134   5.101422
    17  H    4.841704   6.411591   3.674482   4.844060   6.113653
    18  H    2.808429   6.113623   4.176715   5.595835   6.411602
    19  H    1.350002   5.602445   4.847431   6.111437   6.395813
    20  H    2.371121   4.856185   5.582601   6.411308   6.065056
    21  H    3.650969   2.831366   4.847429   5.066549   4.187583
    22  H    5.039106   1.349994   4.176635   3.680282   2.356865
    23  H    6.399110   2.356765   3.674437   2.386604   1.349995
    24  H    7.280529   4.187577   3.666104   2.377178   2.831360
    25  H    7.787787   6.065042   4.149272   3.652402   4.856175
    26  H    6.441993   6.395801   3.666126   4.163015   5.602405
                   11         12         13         14         15
    11  C    0.000000
    12  C    1.392839   0.000000
    13  C    2.421356   1.392920   0.000000
    14  C    2.813082   2.424037   1.400781   0.000000
    15  C    4.252484   3.754806   2.485101   1.439707   0.000000
    16  C    5.074886   4.861890   3.721066   2.437857   1.356577
    17  H    5.039266   4.201153   2.808548   2.386607   1.350003
    18  H    6.399175   6.082294   4.841797   3.680294   2.356808
    19  H    7.280509   7.415363   6.441854   5.066497   4.187452
    20  H    7.787850   8.381872   7.787761   6.411287   6.064969
    21  H    6.441983   7.415388   7.280466   6.111444   6.395769
    22  H    4.841863   6.082257   6.399102   5.595796   6.411544
    23  H    2.808571   4.201095   5.039235   4.844057   6.113672
    24  H    1.350002   2.376176   3.651001   4.163057   5.602486
    25  H    2.371123   1.350002   2.371129   3.652365   4.856173
    26  H    3.650916   2.376143   1.349997   2.377191   2.831478
                   16         17         18         19         20
    16  C    0.000000
    17  H    2.356754   0.000000
    18  H    1.349999   2.750980   0.000000
    19  H    2.831267   5.038437   2.466408   0.000000
    20  H    4.856125   7.212615   5.024908   2.736637   0.000000
    21  H    5.602415   7.729496   6.359370   4.752373   2.736614
    22  H    6.113581   7.735452   7.229691   6.359347   5.024902
    23  H    6.411627   7.229849   7.735508   7.729530   7.212686
    24  H    6.395860   6.359510   7.729596   8.474764   8.705006
    25  H    6.065029   5.025038   7.212716   8.704907   9.731873
    26  H    4.187663   2.466743   5.038737   7.016906   8.705012
                   21         22         23         24         25
    21  H    0.000000
    22  H    2.466443   0.000000
    23  H    5.038552   2.751047   0.000000
    24  H    7.016919   5.038683   2.466628   0.000000
    25  H    8.704984   7.212774   5.025100   2.736654   0.000000
    26  H    8.474778   7.729542   6.359440   4.752296   2.736454
                   26
    26  H    0.000000
 Stoichiometry    C16H10
 Framework group  C1[X(C16H10)]
 Deg. of freedom    72
 Full point group                 C1
 Largest Abelian subgroup         C1      NOp   1
 Largest concise Abelian subgroup C1      NOp   1
                         Standard orientation:                         
 ---------------------------------------------------------------------
 Center     Atomic     Atomic              Coordinates (Angstroms)
 Number     Number      Type              X           Y           Z
 ---------------------------------------------------------------------
    1          6             0        3.515928   -0.000078    0.000182
    2          6             0        2.827163   -1.210701    0.000182
    3          6             0        1.426441   -1.228888    0.000182
    4          6             0        0.716658   -0.000010    0.000142
    5          6             0        1.426542    1.228844    0.000112
    6          6             0        2.827192    1.210647    0.000212
    7          6             0        0.678251   -2.458866    0.000112
    8          6             0       -0.716668   -0.000016   -0.000078
    9          6             0       -1.426514   -1.228845   -0.000108
   10          6             0       -0.678357   -2.458846    0.000022
   11          6             0       -2.827249   -1.210634   -0.000268
   12          6             0       -3.515939    0.000030   -0.000418
   13          6             0       -2.827135    1.210722   -0.000448
   14          6             0       -1.426472    1.228885   -0.000238
   15          6             0       -0.678218    2.458873   -0.000028
   16          6             0        0.678358    2.458860    0.000122
   17          1             0       -1.375360    3.614945   -0.000128
   18          1             0        1.375620    3.614853    0.000762
   19          1             0        3.508417    2.376167    0.000682
   20          1             0        4.865933   -0.000035    0.000502
   21          1             0        3.508410   -2.376206    0.000292
   22          1             0        1.375541   -3.614838    0.000472
   23          1             0       -1.375506   -3.614904    0.000372
   24          1             0       -3.508509   -2.376135   -0.000228
   25          1             0       -4.865940    0.000134   -0.000388
   26          1             0       -3.508488    2.376161   -0.000468
 ---------------------------------------------------------------------
 Rotational constants (GHZ):      0.9938847      0.5508786      0.3544296
 Leave Link  202 at Sat Mar 12 15:07:16 2011, MaxMem= 4294967296 cpu:       0.6
 (Enter /system/software/orac/g03_E.01/g03/l301.exe)
 Standard basis: EPR-II (5D, 7F)
 There are   342 symmetry adapted basis functions of A   symmetry.
 Integral buffers will be    131072 words long.
 Raffenetti 2 integral format.
 Two-electron integral symmetry is turned on.
   342 basis functions,   586 primitive gaussians,   358 cartesian basis functions
    53 alpha electrons       53 beta electrons
       nuclear repulsion energy       954.3736358778 Hartrees.
 IExCor= 402 DFT=T Ex=B+HF Corr=LYP ExCW=0 ScaHFX=  0.200000
 ScaDFX=  0.800000  0.720000  1.000000  0.810000
 IRadAn=      5 IRanWt=     -1 IRanGd=            0 ICorTp=0
 NAtoms=   26 NActive=   26 NUniq=   26 SFac= 7.50D-01 NAtFMM=   80 NAOKFM=F Big=F
 Leave Link  301 at Sat Mar 12 15:07:17 2011, MaxMem= 4294967296 cpu:       0.5
 (Enter /system/software/orac/g03_E.01/g03/l302.exe)
 NPDir=0 NMtPBC=     1 NCelOv=     1 NCel=       1 NClECP=     1 NCelD=      1
         NCelK=      1 NCelE2=     1 NClLst=     1 CellRange=     0.0.
 One-electron integrals computed using PRISM.
 NBasis=   342 RedAO= T  NBF=   342
 NBsUse=   342 1.00D-06 NBFU=   342
 Precomputing XC quadrature grid using
 IXCGrd= 2 IRadAn=           5 IRanWt=          -1 IRanGd=           0.
 NRdTot=    2204 NPtTot=      592404 NUsed=      607937 NTot=      607969
 NSgBfM=   341   341   341   341.
 Leave Link  302 at Sat Mar 12 15:07:18 2011, MaxMem= 4294967296 cpu:      22.1
 (Enter /system/software/orac/g03_E.01/g03/l303.exe)
 DipDrv:  MaxL=1.
 Leave Link  303 at Sat Mar 12 15:07:18 2011, MaxMem= 4294967296 cpu:       2.3
 (Enter /system/software/orac/g03_E.01/g03/l401.exe)
 Harris functional with IExCor=  402 diagonalized for initial guess.
 ExpMin= 4.79D-02 ExpMax= 4.23D+03 ExpMxC= 6.35D+02 IAcc=3 IRadAn=         5 AccDes= 0.00D+00
 HarFok:  IExCor= 402 AccDes= 0.00D+00 IRadAn=         5 IDoV=1
 ScaDFX=  1.000000  1.000000  1.000000  1.000000
 Harris En= -615.660236820337    
 Initial guess orbital symmetries:
       Occupied  (A) (A) (A) (A) (A) (A) (A) (A) (A) (A) (A) (A)
                 (A) (A) (A) (A) (A) (A) (A) (A) (A) (A) (A) (A)
                 (A) (A) (A) (A) (A) (A) (A) (A) (A) (A) (A) (A)
                 (A) (A) (A) (A) (A) (A) (A) (A) (A) (A) (A) (A)
                 (A) (A) (A) (A) (A)
       Virtual   (A) (A) (A) (A) (A) (A) (A) (A) (A) (A) (A) (A)
                 (A) (A) (A) (A) (A) (A) (A) (A) (A) (A) (A) (A)
                 (A) (A) (A) (A) (A) (A) (A) (A) (A) (A) (A) (A)
                 (A) (A) (A) (A) (A) (A) (A) (A) (A) (A) (A) (A)
                 (A) (A) (A) (A) (A) (A) (A) (A) (A) (A) (A) (A)
                 (A) (A) (A) (A) (A) (A) (A) (A) (A) (A) (A) (A)
                 (A) (A) (A) (A) (A) (A) (A) (A) (A) (A) (A) (A)
                 (A) (A) (A) (A) (A) (A) (A) (A) (A) (A) (A) (A)
                 (A) (A) (A) (A) (A) (A) (A) (A) (A) (A) (A) (A)
                 (A) (A) (A) (A) (A) (A) (A) (A) (A) (A) (A) (A)
                 (A) (A) (A) (A) (A) (A) (A) (A) (A) (A) (A) (A)
                 (A) (A) (A) (A) (A) (A) (A) (A) (A) (A) (A) (A)
                 (A) (A) (A) (A) (A) (A) (A) (A) (A) (A) (A) (A)
                 (A) (A) (A) (A) (A) (A) (A) (A) (A) (A) (A) (A)
                 (A) (A) (A) (A) (A) (A) (A) (A) (A) (A) (A) (A)
                 (A) (A) (A) (A) (A) (A) (A) (A) (A) (A) (A) (A)
                 (A) (A) (A) (A) (A) (A) (A) (A) (A) (A) (A) (A)
                 (A) (A) (A) (A) (A) (A) (A) (A) (A) (A) (A) (A)
                 (A) (A) (A) (A) (A) (A) (A) (A) (A) (A) (A) (A)
                 (A) (A) (A) (A) (A) (A) (A) (A) (A) (A) (A) (A)
                 (A) (A) (A) (A) (A) (A) (A) (A) (A) (A) (A) (A)
                 (A) (A) (A) (A) (A) (A) (A) (A) (A) (A) (A) (A)
                 (A) (A) (A) (A) (A) (A) (A) (A) (A) (A) (A) (A)
                 (A) (A) (A) (A) (A) (A) (A) (A) (A) (A) (A) (A)
                 (A)
 The electronic state of the initial guess is 1-A.
 Leave Link  401 at Sat Mar 12 15:07:21 2011, MaxMem= 4294967296 cpu:      35.0
 (Enter /system/software/orac/g03_E.01/g03/l502.exe)
 Closed shell SCF:
 Requested convergence on RMS density matrix=1.00D-08 within 128 cycles.
 Requested convergence on MAX density matrix=1.00D-06.
 Requested convergence on             energy=1.00D-06.
 No special actions if energy rises.
 Using DIIS extrapolation, IDIIS=  1040.
 Integral symmetry usage will be decided dynamically.
       607936 words used for storage of precomputed grid.
 Keep R1 integrals in memory in canonical form, NReq=  2089811796.
 IEnd=   1087631 IEndB=   1087631 NGot=4294967296 MDV=2229254623
 LenX=2229254623
 Symmetry not used in FoFDir.
 MinBra= 0 MaxBra= 2 Meth= 1.
 IRaf=       0 NMat=   1 IRICut=       1 DoRegI=T DoRafI=F ISym2E= 0 JSym2E=0.

 Cycle   1  Pass 1  IDiag  1:
 E= -615.119329912732    
 DIIS: error= 3.52D-02 at cycle   1 NSaved=   1.
 NSaved= 1 IEnMin= 1 EnMin= -615.119329912732     IErMin= 1 ErrMin= 3.52D-02
 ErrMax= 3.52D-02 EMaxC= 1.00D-01 BMatC= 3.27D-01 BMatP= 3.27D-01
 IDIUse=3 WtCom= 6.48D-01 WtEn= 3.52D-01
 Coeff-Com:  0.100D+01
 Coeff-En:   0.100D+01
 Coeff:      0.100D+01
 Gap=     0.142 Goal=   None    Shift=    0.000
 GapD=    0.142 DampG=1.000 DampE=0.500 DampFc=0.5000 IDamp=-1.
 Damping current iteration by 5.00D-01
 RMSDP=2.35D-02 MaxDP=1.24D+00              OVMax= 2.45D-01

 Cycle   2  Pass 1  IDiag  1:
 E= -615.251517817863     Delta-E=       -0.132187905130 Rises=F Damp=T
 DIIS: error= 1.09D-02 at cycle   2 NSaved=   2.
 NSaved= 2 IEnMin= 2 EnMin= -615.251517817863     IErMin= 2 ErrMin= 1.09D-02
 ErrMax= 1.09D-02 EMaxC= 1.00D-01 BMatC= 3.33D-02 BMatP= 3.27D-01
 IDIUse=3 WtCom= 8.91D-01 WtEn= 1.09D-01
 Coeff-Com:  0.177D+00 0.823D+00
 Coeff-En:   0.324D+00 0.676D+00
 Coeff:      0.193D+00 0.807D+00
 Gap=     0.197 Goal=   None    Shift=    0.000
 RMSDP=9.32D-03 MaxDP=5.74D-01 DE=-1.32D-01 OVMax= 1.89D-01

 Cycle   3  Pass 1  IDiag  1:
 E= -615.540893514607     Delta-E=       -0.289375696744 Rises=F Damp=F
 DIIS: error= 1.12D-02 at cycle   3 NSaved=   3.
 NSaved= 3 IEnMin= 3 EnMin= -615.540893514607     IErMin= 2 ErrMin= 1.09D-02
 ErrMax= 1.12D-02 EMaxC= 1.00D-01 BMatC= 1.70D-02 BMatP= 3.33D-02
 IDIUse=3 WtCom= 8.88D-01 WtEn= 1.12D-01
 Coeff-Com:  0.480D-01 0.414D+00 0.538D+00
 Coeff-En:   0.000D+00 0.000D+00 0.100D+01
 Coeff:      0.427D-01 0.368D+00 0.589D+00
 Gap=     0.142 Goal=   None    Shift=    0.000
 RMSDP=1.03D-03 MaxDP=4.06D-02 DE=-2.89D-01 OVMax= 6.96D-02

 Cycle   4  Pass 1  IDiag  1:
 E= -615.550328989109     Delta-E=       -0.009435474502 Rises=F Damp=F
 DIIS: error= 7.45D-03 at cycle   4 NSaved=   4.
 NSaved= 4 IEnMin= 4 EnMin= -615.550328989109     IErMin= 4 ErrMin= 7.45D-03
 ErrMax= 7.45D-03 EMaxC= 1.00D-01 BMatC= 8.94D-03 BMatP= 1.70D-02
 IDIUse=3 WtCom= 9.26D-01 WtEn= 7.45D-02
 Coeff-Com: -0.106D-01 0.926D-01 0.419D+00 0.499D+00
 Coeff-En:   0.000D+00 0.000D+00 0.371D+00 0.629D+00
 Coeff:     -0.979D-02 0.857D-01 0.415D+00 0.509D+00
 Gap=     0.142 Goal=   None    Shift=    0.000
 RMSDP=4.25D-04 MaxDP=1.81D-02 DE=-9.44D-03 OVMax= 3.02D-02

 Cycle   5  Pass 1  IDiag  1:
 E= -615.560088416502     Delta-E=       -0.009759427393 Rises=F Damp=F
 DIIS: error= 1.36D-03 at cycle   5 NSaved=   5.
 NSaved= 5 IEnMin= 5 EnMin= -615.560088416502     IErMin= 5 ErrMin= 1.36D-03
 ErrMax= 1.36D-03 EMaxC= 1.00D-01 BMatC= 2.76D-04 BMatP= 8.94D-03
 IDIUse=3 WtCom= 9.86D-01 WtEn= 1.36D-02
 Coeff-Com: -0.747D-02 0.220D-01 0.171D+00 0.256D+00 0.558D+00
 Coeff-En:   0.000D+00 0.000D+00 0.000D+00 0.000D+00 0.100D+01
 Coeff:     -0.737D-02 0.217D-01 0.169D+00 0.253D+00 0.564D+00
 Gap=     0.143 Goal=   None    Shift=    0.000
 RMSDP=1.25D-04 MaxDP=3.19D-03 DE=-9.76D-03 OVMax= 7.21D-03

 Cycle   6  Pass 1  IDiag  1:
 E= -615.560319552132     Delta-E=       -0.000231135630 Rises=F Damp=F
 DIIS: error= 6.35D-04 at cycle   6 NSaved=   6.
 NSaved= 6 IEnMin= 6 EnMin= -615.560319552132     IErMin= 6 ErrMin= 6.35D-04
 ErrMax= 6.35D-04 EMaxC= 1.00D-01 BMatC= 7.12D-05 BMatP= 2.76D-04
 IDIUse=3 WtCom= 9.94D-01 WtEn= 6.35D-03
 Coeff-Com: -0.300D-02-0.197D-03 0.432D-01 0.842D-01 0.373D+00 0.503D+00
 Coeff-En:   0.000D+00 0.000D+00 0.000D+00 0.000D+00 0.235D+00 0.765D+00
 Coeff:     -0.298D-02-0.196D-03 0.429D-01 0.836D-01 0.372D+00 0.505D+00
 Gap=     0.143 Goal=   None    Shift=    0.000
 RMSDP=5.42D-05 MaxDP=1.94D-03 DE=-2.31D-04 OVMax= 2.63D-03

 Cycle   7  Pass 1  IDiag  1:
 E= -615.560400970413     Delta-E=       -0.000081418281 Rises=F Damp=F
 DIIS: error= 9.30D-05 at cycle   7 NSaved=   7.
 NSaved= 7 IEnMin= 7 EnMin= -615.560400970413     IErMin= 7 ErrMin= 9.30D-05
 ErrMax= 9.30D-05 EMaxC= 1.00D-01 BMatC= 1.35D-06 BMatP= 7.12D-05
 IDIUse=1 WtCom= 1.00D+00 WtEn= 0.00D+00
 Coeff-Com: -0.102D-02-0.107D-02 0.147D-01 0.310D-01 0.158D+00 0.239D+00
 Coeff-Com:  0.559D+00
 Coeff:     -0.102D-02-0.107D-02 0.147D-01 0.310D-01 0.158D+00 0.239D+00
 Coeff:      0.559D+00
 Gap=     0.143 Goal=   None    Shift=    0.000
 RMSDP=8.79D-06 MaxDP=4.78D-04 DE=-8.14D-05 OVMax= 3.83D-04

 Cycle   8  Pass 1  IDiag  1:
 E= -615.560402278560     Delta-E=       -0.000001308147 Rises=F Damp=F
 DIIS: error= 2.38D-05 at cycle   8 NSaved=   8.
 NSaved= 8 IEnMin= 8 EnMin= -615.560402278560     IErMin= 8 ErrMin= 2.38D-05
 ErrMax= 2.38D-05 EMaxC= 1.00D-01 BMatC= 1.33D-07 BMatP= 1.35D-06
 IDIUse=1 WtCom= 1.00D+00 WtEn= 0.00D+00
 Coeff-Com:  0.118D-04-0.572D-03 0.476D-03 0.213D-02 0.199D-01 0.377D-01
 Coeff-Com:  0.263D+00 0.677D+00
 Coeff:      0.118D-04-0.572D-03 0.476D-03 0.213D-02 0.199D-01 0.377D-01
 Coeff:      0.263D+00 0.677D+00
 Gap=     0.143 Goal=   None    Shift=    0.000
 RMSDP=2.54D-06 MaxDP=9.54D-05 DE=-1.31D-06 OVMax= 8.93D-05

 Cycle   9  Pass 1  IDiag  1:
 E= -615.560402405409     Delta-E=       -0.000000126849 Rises=F Damp=F
 DIIS: error= 2.37D-06 at cycle   9 NSaved=   9.
 NSaved= 9 IEnMin= 9 EnMin= -615.560402405409     IErMin= 9 ErrMin= 2.37D-06
 ErrMax= 2.37D-06 EMaxC= 1.00D-01 BMatC= 1.17D-09 BMatP= 1.33D-07
 IDIUse=1 WtCom= 1.00D+00 WtEn= 0.00D+00
 Coeff-Com:  0.186D-04-0.637D-04-0.234D-03-0.285D-03 0.179D-03 0.145D-02
 Coeff-Com:  0.447D-01 0.142D+00 0.812D+00
 Coeff:      0.186D-04-0.637D-04-0.234D-03-0.285D-03 0.179D-03 0.145D-02
 Coeff:      0.447D-01 0.142D+00 0.812D+00
 Gap=     0.143 Goal=   None    Shift=    0.000
 RMSDP=3.93D-07 MaxDP=2.26D-05 DE=-1.27D-07 OVMax= 1.20D-05

 Cycle  10  Pass 1  IDiag  1:
 E= -615.560402406492     Delta-E=       -0.000000001083 Rises=F Damp=F
 DIIS: error= 1.19D-06 at cycle  10 NSaved=  10.
 NSaved=10 IEnMin=10 EnMin= -615.560402406492     IErMin=10 ErrMin= 1.19D-06
 ErrMax= 1.19D-06 EMaxC= 1.00D-01 BMatC= 3.59D-10 BMatP= 1.17D-09
 IDIUse=1 WtCom= 1.00D+00 WtEn= 0.00D+00
 Coeff-Com:  0.667D-05-0.108D-04-0.118D-03-0.197D-03-0.522D-03-0.439D-03
 Coeff-Com:  0.139D-01 0.447D-01 0.415D+00 0.527D+00
 Coeff:      0.667D-05-0.108D-04-0.118D-03-0.197D-03-0.522D-03-0.439D-03
 Coeff:      0.139D-01 0.447D-01 0.415D+00 0.527D+00
 Gap=     0.143 Goal=   None    Shift=    0.000
 RMSDP=8.89D-08 MaxDP=4.95D-06 DE=-1.08D-09 OVMax= 5.87D-06

 Cycle  11  Pass 1  IDiag  1:
 E= -615.560402406819     Delta-E=       -0.000000000327 Rises=F Damp=F
 DIIS: error= 3.63D-07 at cycle  11 NSaved=  11.
 NSaved=11 IEnMin=11 EnMin= -615.560402406819     IErMin=11 ErrMin= 3.63D-07
 ErrMax= 3.63D-07 EMaxC= 1.00D-01 BMatC= 2.98D-11 BMatP= 3.59D-10
 IDIUse=1 WtCom= 1.00D+00 WtEn= 0.00D+00
 Coeff-Com:  0.884D-06 0.199D-05-0.288D-04-0.695D-04-0.276D-03-0.377D-03
 Coeff-Com:  0.177D-02 0.356D-02 0.107D+00 0.251D+00 0.637D+00
 Coeff:      0.884D-06 0.199D-05-0.288D-04-0.695D-04-0.276D-03-0.377D-03
 Coeff:      0.177D-02 0.356D-02 0.107D+00 0.251D+00 0.637D+00
 Gap=     0.143 Goal=   None    Shift=    0.000
 RMSDP=3.52D-08 MaxDP=1.12D-06 DE=-3.27D-10 OVMax= 1.43D-06

 Cycle  12  Pass 1  IDiag  1:
 E= -615.560402406842     Delta-E=       -0.000000000024 Rises=F Damp=F
 DIIS: error= 6.28D-08 at cycle  12 NSaved=  12.
 NSaved=12 IEnMin=12 EnMin= -615.560402406842     IErMin=12 ErrMin= 6.28D-08
 ErrMax= 6.28D-08 EMaxC= 1.00D-01 BMatC= 1.35D-12 BMatP= 2.98D-11
 IDIUse=1 WtCom= 1.00D+00 WtEn= 0.00D+00
 Coeff-Com: -0.487D-08 0.682D-06-0.611D-06-0.112D-04-0.450D-04-0.924D-04
 Coeff-Com: -0.192D-03-0.209D-02 0.499D-02 0.251D-01 0.171D+00 0.801D+00
 Coeff:     -0.487D-08 0.682D-06-0.611D-06-0.112D-04-0.450D-04-0.924D-04
 Coeff:     -0.192D-03-0.209D-02 0.499D-02 0.251D-01 0.171D+00 0.801D+00
 Gap=     0.143 Goal=   None    Shift=    0.000
 RMSDP=1.26D-08 MaxDP=4.72D-07 DE=-2.36D-11 OVMax= 7.50D-07

 Cycle  13  Pass 1  IDiag  1:
 E= -615.560402406843     Delta-E=       -0.000000000001 Rises=F Damp=F
 DIIS: error= 6.18D-08 at cycle  13 NSaved=  13.
 NSaved=13 IEnMin=13 EnMin= -615.560402406843     IErMin=13 ErrMin= 6.18D-08
 ErrMax= 6.18D-08 EMaxC= 1.00D-01 BMatC= 6.98D-13 BMatP= 1.35D-12
 IDIUse=1 WtCom= 1.00D+00 WtEn= 0.00D+00
 Coeff-Com: -0.443D-07 0.333D-06 0.137D-05-0.379D-05-0.150D-04-0.431D-04
 Coeff-Com: -0.228D-03-0.171D-02-0.280D-02 0.920D-03 0.801D-01 0.564D+00
 Coeff-Com:  0.360D+00
 Coeff:     -0.443D-07 0.333D-06 0.137D-05-0.379D-05-0.150D-04-0.431D-04
 Coeff:     -0.228D-03-0.171D-02-0.280D-02 0.920D-03 0.801D-01 0.564D+00
 Coeff:      0.360D+00
 Gap=     0.143 Goal=   None    Shift=    0.000
 RMSDP=5.52D-09 MaxDP=2.73D-07 DE=-9.09D-13 OVMax= 4.51D-07

 SCF Done:  E(RB+HF-LYP) =  -615.560402407     A.U. after   13 cycles
             Convg  =    0.5520D-08             -V/T =  2.0118
             S**2   =   0.0000
 KE= 6.083958855901D+02 PE=-3.331765905830D+03 EE= 1.153435981955D+03
 Leave Link  502 at Sat Mar 12 15:18:08 2011, MaxMem= 4294967296 cpu:    3058.0
 (Enter /system/software/orac/g03_E.01/g03/l601.exe)
 Copying SCF densities to generalized density rwf, ISCF=0 IROHF=0.

 **********************************************************************

            Population analysis using the SCF density.

 **********************************************************************

 Orbital symmetries:
       Occupied  (A) (A) (A) (A) (A) (A) (A) (A) (A) (A) (A) (A)
                 (A) (A) (A) (A) (A) (A) (A) (A) (A) (A) (A) (A)
                 (A) (A) (A) (A) (A) (A) (A) (A) (A) (A) (A) (A)
                 (A) (A) (A) (A) (A) (A) (A) (A) (A) (A) (A) (A)
                 (A) (A) (A) (A) (A)
       Virtual   (A) (A) (A) (A) (A) (A) (A) (A) (A) (A) (A) (A)
                 (A) (A) (A) (A) (A) (A) (A) (A) (A) (A) (A) (A)
                 (A) (A) (A) (A) (A) (A) (A) (A) (A) (A) (A) (A)
                 (A) (A) (A) (A) (A) (A) (A) (A) (A) (A) (A) (A)
                 (A) (A) (A) (A) (A) (A) (A) (A) (A) (A) (A) (A)
                 (A) (A) (A) (A) (A) (A) (A) (A) (A) (A) (A) (A)
                 (A) (A) (A) (A) (A) (A) (A) (A) (A) (A) (A) (A)
                 (A) (A) (A) (A) (A) (A) (A) (A) (A) (A) (A) (A)
                 (A) (A) (A) (A) (A) (A) (A) (A) (A) (A) (A) (A)
                 (A) (A) (A) (A) (A) (A) (A) (A) (A) (A) (A) (A)
                 (A) (A) (A) (A) (A) (A) (A) (A) (A) (A) (A) (A)
                 (A) (A) (A) (A) (A) (A) (A) (A) (A) (A) (A) (A)
                 (A) (A) (A) (A) (A) (A) (A) (A) (A) (A) (A) (A)
                 (A) (A) (A) (A) (A) (A) (A) (A) (A) (A) (A) (A)
                 (A) (A) (A) (A) (A) (A) (A) (A) (A) (A) (A) (A)
                 (A) (A) (A) (A) (A) (A) (A) (A) (A) (A) (A) (A)
                 (A) (A) (A) (A) (A) (A) (A) (A) (A) (A) (A) (A)
                 (A) (A) (A) (A) (A) (A) (A) (A) (A) (A) (A) (A)
                 (A) (A) (A) (A) (A) (A) (A) (A) (A) (A) (A) (A)
                 (A) (A) (A) (A) (A) (A) (A) (A) (A) (A) (A) (A)
                 (A) (A) (A) (A) (A) (A) (A) (A) (A) (A) (A) (A)
                 (A) (A) (A) (A) (A) (A) (A) (A) (A) (A) (A) (A)
                 (A) (A) (A) (A) (A) (A) (A) (A) (A) (A) (A) (A)
                 (A) (A) (A) (A) (A) (A) (A) (A) (A) (A) (A) (A)
                 (A)
 The electronic state is 1-A.
 Alpha  occ. eigenvalues --  -10.23430 -10.23430 -10.23281 -10.23281 -10.23251
 Alpha  occ. eigenvalues --  -10.23251 -10.23242 -10.23242 -10.23206 -10.23206
 Alpha  occ. eigenvalues --  -10.22503 -10.22503 -10.22498 -10.22498 -10.22292
 Alpha  occ. eigenvalues --  -10.22250  -0.90854  -0.86485  -0.84044  -0.80491
 Alpha  occ. eigenvalues --   -0.77385  -0.75137  -0.73648  -0.71170  -0.62978
 Alpha  occ. eigenvalues --   -0.62192  -0.61965  -0.60206  -0.52827  -0.51377
 Alpha  occ. eigenvalues --   -0.50684  -0.49623  -0.46680  -0.44816  -0.43308
 Alpha  occ. eigenvalues --   -0.43081  -0.42639  -0.41022  -0.39989  -0.38684
 Alpha  occ. eigenvalues --   -0.37719  -0.36907  -0.35923  -0.35545  -0.35241
 Alpha  occ. eigenvalues --   -0.34668  -0.32810  -0.31973  -0.31128  -0.28831
 Alpha  occ. eigenvalues --   -0.26979  -0.24638  -0.21286
 Alpha virt. eigenvalues --   -0.07015  -0.04098  -0.02265  -0.01627  -0.00552
 Alpha virt. eigenvalues --   -0.00096   0.00368   0.02816   0.03001   0.04071
 Alpha virt. eigenvalues --    0.04164   0.04200   0.05288   0.06658   0.07354
 Alpha virt. eigenvalues --    0.07511   0.08263   0.08683   0.09141   0.11807
 Alpha virt. eigenvalues --    0.12577   0.13326   0.14531   0.14657   0.15187
 Alpha virt. eigenvalues --    0.16224   0.17149   0.17700   0.19784   0.20630
 Alpha virt. eigenvalues --    0.21344   0.22116   0.22677   0.22798   0.23301
 Alpha virt. eigenvalues --    0.23814   0.26513   0.26946   0.27180   0.27552
 Alpha virt. eigenvalues --    0.28006   0.28717   0.29460   0.30018   0.30543
 Alpha virt. eigenvalues --    0.30919   0.33219   0.33232   0.33537   0.35620
 Alpha virt. eigenvalues --    0.36723   0.37160   0.38274   0.38307   0.39144
 Alpha virt. eigenvalues --    0.41145   0.41295   0.42347   0.44018   0.44285
 Alpha virt. eigenvalues --    0.44574   0.45011   0.45104   0.46383   0.46479
 Alpha virt. eigenvalues --    0.46510   0.47063   0.47172   0.47244   0.49339
 Alpha virt. eigenvalues --    0.49888   0.50068   0.51219   0.51231   0.51317
 Alpha virt. eigenvalues --    0.53775   0.54041   0.55288   0.55757   0.57438
 Alpha virt. eigenvalues --    0.57679   0.61106   0.61319   0.62582   0.64960
 Alpha virt. eigenvalues --    0.65730   0.66012   0.66709   0.67001   0.67204
 Alpha virt. eigenvalues --    0.67412   0.68307   0.69401   0.70933   0.71035
 Alpha virt. eigenvalues --    0.73131   0.74686   0.75044   0.77137   0.77313
 Alpha virt. eigenvalues --    0.80787   0.81069   0.82646   0.83361   0.84413
 Alpha virt. eigenvalues --    0.86379   0.87503   0.87556   0.87744   0.89174
 Alpha virt. eigenvalues --    0.89666   0.91117   0.92823   0.93164   0.94210
 Alpha virt. eigenvalues --    0.94229   0.94599   0.95655   0.97083   0.97591
 Alpha virt. eigenvalues --    0.97616   0.98806   1.00909   1.00921   1.04568
 Alpha virt. eigenvalues --    1.04673   1.05386   1.08971   1.08986   1.09618
 Alpha virt. eigenvalues --    1.10196   1.12820   1.15935   1.18872   1.19064
 Alpha virt. eigenvalues --    1.20627   1.22881   1.28496   1.29431   1.32092
 Alpha virt. eigenvalues --    1.32506   1.32850   1.33001   1.33711   1.33970
 Alpha virt. eigenvalues --    1.34134   1.35468   1.35593   1.37699   1.40276
 Alpha virt. eigenvalues --    1.40491   1.42569   1.42655   1.44854   1.46400
 Alpha virt. eigenvalues --    1.47717   1.47794   1.48822   1.49920   1.50283
 Alpha virt. eigenvalues --    1.50985   1.51316   1.51490   1.52573   1.52598
 Alpha virt. eigenvalues --    1.53229   1.53583   1.55038   1.57825   1.60111
 Alpha virt. eigenvalues --    1.61259   1.63463   1.64764   1.65245   1.65437
 Alpha virt. eigenvalues --    1.65492   1.67100   1.67229   1.67328   1.70636
 Alpha virt. eigenvalues --    1.70737   1.71659   1.71937   1.72389   1.72687
 Alpha virt. eigenvalues --    1.74038   1.74497   1.74927   1.75156   1.75736
 Alpha virt. eigenvalues --    1.77392   1.78525   1.79297   1.79975   1.82992
 Alpha virt. eigenvalues --    1.85039   1.85821   1.87462   1.90511   1.91436
 Alpha virt. eigenvalues --    1.95119   1.96369   1.99550   2.00860   2.01536
 Alpha virt. eigenvalues --    2.03445   2.04404   2.09241   2.09513   2.09571
 Alpha virt. eigenvalues --    2.12606   2.16069   2.16082   2.22100   2.25705
 Alpha virt. eigenvalues --    2.26664   2.31036   2.32672   2.33078   2.33903
 Alpha virt. eigenvalues --    2.34415   2.35641   2.36034   2.41130   2.41223
 Alpha virt. eigenvalues --    2.46587   2.46997   2.48075   2.56844   2.57359
 Alpha virt. eigenvalues --    2.61784   2.64349   2.71032   3.02376   3.14844
 Alpha virt. eigenvalues --    3.25427   3.33590   4.83392   4.95665   4.95951
 Alpha virt. eigenvalues --    4.96277   5.02436   5.03382   5.07136   5.14888
 Alpha virt. eigenvalues --    5.15567   5.17923   5.19987   5.29552   5.32869
 Alpha virt. eigenvalues --    5.33899   5.47282   5.47441   5.53454   5.54165
 Alpha virt. eigenvalues --    5.59658   5.61650   5.62749   5.66530   5.77936
 Alpha virt. eigenvalues --    5.86464   5.93102   6.18566  29.55813  29.79100
 Alpha virt. eigenvalues --   29.81194  29.84645  29.92781  29.92858  29.95146
 Alpha virt. eigenvalues --   29.97183  30.06740  30.06745  30.12099  30.12482
 Alpha virt. eigenvalues --   30.23058  30.29119  30.30133  30.48989  36.55467
 Alpha virt. eigenvalues --   36.58407  36.58494  36.59581  36.62835  36.64306
 Alpha virt. eigenvalues --   36.73785  36.74210  36.75577  36.77097
          Condensed to atoms (all electrons):
              1          2          3          4          5          6
     1  C    5.124862   0.296864   0.048799  -0.032981   0.048765   0.296793
     2  C    0.296864   5.654298   0.001608   0.051078  -0.022778  -0.042872
     3  C    0.048799   0.001608   5.458912  -0.057992   0.121852  -0.022794
     4  C   -0.032981   0.051078  -0.057992   6.425375  -0.058212   0.051067
     5  C    0.048765  -0.022778   0.121852  -0.058212   5.459022   0.001693
     6  C    0.296793  -0.042872  -0.022794   0.051067   0.001693   5.654358
     7  C   -0.003738   0.083620  -0.096340   0.160967  -0.039817   0.008569
     8  C    0.023041  -0.076273   0.366391  -0.912375   0.366541  -0.076236
     9  C    0.005188   0.042725  -0.132025   0.366543  -0.107295  -0.006318
    10  C   -0.011997  -0.014599   0.045799  -0.139211   0.023474   0.010404
    11  C    0.000524  -0.002405   0.042716  -0.076232  -0.006318  -0.001060
    12  C   -0.000112   0.000524   0.005188   0.023053   0.005189   0.000524
    13  C    0.000524  -0.001061  -0.006319  -0.076278   0.042723  -0.002405
    14  C    0.005190  -0.006320  -0.107270   0.366410  -0.132089   0.042717
    15  C   -0.011999   0.010407   0.023462  -0.139184   0.045844  -0.014609
    16  C   -0.003728   0.008566  -0.039799   0.161027  -0.096443   0.083595
    17  H   -0.000174   0.000067   0.000478  -0.007993   0.007301   0.000103
    18  H    0.001292   0.000054  -0.000536   0.014225  -0.142725   0.021815
    19  H   -0.056905   0.002836  -0.000264   0.005195  -0.158469   0.453100
    20  H    0.418075  -0.069148  -0.003937   0.003323  -0.003938  -0.069132
    21  H   -0.056913   0.453106  -0.158467   0.005194  -0.000264   0.002839
    22  H    0.001292   0.021810  -0.142704   0.014222  -0.000536   0.000054
    23  H   -0.000174   0.000103   0.007299  -0.007992   0.000478   0.000067
    24  H   -0.000004   0.000001   0.001330  -0.002526  -0.000045   0.000002
    25  H   -0.000001   0.000001   0.000026   0.000372   0.000026   0.000001
    26  H   -0.000004   0.000002  -0.000045  -0.002526   0.001329   0.000001
              7          8          9         10         11         12
     1  C   -0.003738   0.023041   0.005188  -0.011997   0.000524  -0.000112
     2  C    0.083620  -0.076273   0.042725  -0.014599  -0.002405   0.000524
     3  C   -0.096340   0.366391  -0.132025   0.045799   0.042716   0.005188
     4  C    0.160967  -0.912375   0.366543  -0.139211  -0.076232   0.023053
     5  C   -0.039817   0.366541  -0.107295   0.023474  -0.006318   0.005189
     6  C    0.008569  -0.076236  -0.006318   0.010404  -0.001060   0.000524
     7  C    5.577303  -0.139127   0.045777   0.352866  -0.014604  -0.012000
     8  C   -0.139127   6.425280  -0.058153   0.161060   0.051054  -0.032974
     9  C    0.045777  -0.058153   5.459021  -0.096396   0.001679   0.048792
    10  C    0.352866   0.161060  -0.096396   5.577352   0.083559  -0.003741
    11  C   -0.014604   0.051054   0.001679   0.083559   5.654292   0.296864
    12  C   -0.012000  -0.032974   0.048792  -0.003741   0.296864   5.124799
    13  C    0.010406   0.051099  -0.022810   0.008572  -0.042866   0.296820
    14  C    0.023472  -0.058109   0.121846  -0.039796  -0.022774   0.048764
    15  C   -0.001854   0.160993  -0.039793   0.000711   0.008562  -0.003731
    16  C    0.000712  -0.139216   0.023471  -0.001855   0.010405  -0.011998
    17  H    0.000022   0.014225  -0.000536  -0.000065   0.000054   0.001291
    18  H   -0.000065  -0.007993   0.000478   0.000022   0.000067  -0.000174
    19  H   -0.000070  -0.002527  -0.000045   0.000090   0.000002  -0.000004
    20  H    0.001001   0.000372   0.000026  -0.000218   0.000001  -0.000001
    21  H    0.034405  -0.002525   0.001329  -0.000053   0.000001  -0.000004
    22  H    0.454779  -0.007989   0.007293  -0.074636   0.000103  -0.000174
    23  H   -0.074620   0.014220  -0.142722   0.454786   0.021809   0.001292
    24  H   -0.000053   0.005197  -0.158461   0.034406   0.453101  -0.056912
    25  H   -0.000218   0.003323  -0.003937   0.001001  -0.069149   0.418072
    26  H    0.000090   0.005191  -0.000263  -0.000070   0.002839  -0.056897
             13         14         15         16         17         18
     1  C    0.000524   0.005190  -0.011999  -0.003728  -0.000174   0.001292
     2  C   -0.001061  -0.006320   0.010407   0.008566   0.000067   0.000054
     3  C   -0.006319  -0.107270   0.023462  -0.039799   0.000478  -0.000536
     4  C   -0.076278   0.366410  -0.139184   0.161027  -0.007993   0.014225
     5  C    0.042723  -0.132089   0.045844  -0.096443   0.007301  -0.142725
     6  C   -0.002405   0.042717  -0.014609   0.083595   0.000103   0.021815
     7  C    0.010406   0.023472  -0.001854   0.000712   0.000022  -0.000065
     8  C    0.051099  -0.058109   0.160993  -0.139216   0.014225  -0.007993
     9  C   -0.022810   0.121846  -0.039793   0.023471  -0.000536   0.000478
    10  C    0.008572  -0.039796   0.000711  -0.001855  -0.000065   0.000022
    11  C   -0.042866  -0.022774   0.008562   0.010405   0.000054   0.000067
    12  C    0.296820   0.048764  -0.003731  -0.011998   0.001291  -0.000174
    13  C    5.654348   0.001683   0.083587  -0.014613   0.021813   0.000102
    14  C    0.001683   5.459051  -0.096413   0.045865  -0.142729   0.007301
    15  C    0.083587  -0.096413   5.577346   0.352866   0.454797  -0.074635
    16  C   -0.014613   0.045865   0.352866   5.577337  -0.074633   0.454791
    17  H    0.021813  -0.142729   0.454797  -0.074633   0.636837  -0.004121
    18  H    0.000102   0.007301  -0.074635   0.454791  -0.004121   0.636838
    19  H    0.000001   0.001330  -0.000053   0.034410  -0.000003   0.001335
    20  H    0.000001   0.000026  -0.000218   0.001002   0.000000  -0.000003
    21  H    0.000002  -0.000045   0.000090  -0.000070   0.000000   0.000000
    22  H    0.000067   0.000478   0.000022  -0.000065   0.000000   0.000000
    23  H    0.000054  -0.000536  -0.000064   0.000022   0.000000   0.000000
    24  H    0.002838  -0.000264  -0.000070   0.000090   0.000000   0.000000
    25  H   -0.069126  -0.003937   0.001001  -0.000218  -0.000003   0.000000
    26  H    0.453096  -0.158461   0.034400  -0.000053   0.001334  -0.000003
             19         20         21         22         23         24
     1  C   -0.056905   0.418075  -0.056913   0.001292  -0.000174  -0.000004
     2  C    0.002836  -0.069148   0.453106   0.021810   0.000103   0.000001
     3  C   -0.000264  -0.003937  -0.158467  -0.142704   0.007299   0.001330
     4  C    0.005195   0.003323   0.005194   0.014222  -0.007992  -0.002526
     5  C   -0.158469  -0.003938  -0.000264  -0.000536   0.000478  -0.000045
     6  C    0.453100  -0.069132   0.002839   0.000054   0.000067   0.000002
     7  C   -0.000070   0.001001   0.034405   0.454779  -0.074620  -0.000053
     8  C   -0.002527   0.000372  -0.002525  -0.007989   0.014220   0.005197
     9  C   -0.000045   0.000026   0.001329   0.007293  -0.142722  -0.158461
    10  C    0.000090  -0.000218  -0.000053  -0.074636   0.454786   0.034406
    11  C    0.000002   0.000001   0.000001   0.000103   0.021809   0.453101
    12  C   -0.000004  -0.000001  -0.000004  -0.000174   0.001292  -0.056912
    13  C    0.000001   0.000001   0.000002   0.000067   0.000054   0.002838
    14  C    0.001330   0.000026  -0.000045   0.000478  -0.000536  -0.000264
    15  C   -0.000053  -0.000218   0.000090   0.000022  -0.000064  -0.000070
    16  C    0.034410   0.001002  -0.000070  -0.000065   0.000022   0.000090
    17  H   -0.000003   0.000000   0.000000   0.000000   0.000000   0.000000
    18  H    0.001335  -0.000003   0.000000   0.000000   0.000000   0.000000
    19  H    0.627144  -0.004577  -0.000038   0.000000   0.000000   0.000000
    20  H   -0.004577   0.645668  -0.004578  -0.000003   0.000000   0.000000
    21  H   -0.000038  -0.004578   0.627158   0.001335  -0.000003   0.000000
    22  H    0.000000  -0.000003   0.001335   0.636833  -0.004120  -0.000003
    23  H    0.000000   0.000000  -0.000003  -0.004120   0.636834   0.001334
    24  H    0.000000   0.000000   0.000000  -0.000003   0.001334   0.627145
    25  H    0.000000   0.000000   0.000000   0.000000  -0.000003  -0.004578
    26  H    0.000000   0.000000   0.000000   0.000000   0.000000  -0.000038
             25         26
     1  C   -0.000001  -0.000004
     2  C    0.000001   0.000002
     3  C    0.000026  -0.000045
     4  C    0.000372  -0.002526
     5  C    0.000026   0.001329
     6  C    0.000001   0.000001
     7  C   -0.000218   0.000090
     8  C    0.003323   0.005191
     9  C   -0.003937  -0.000263
    10  C    0.001001  -0.000070
    11  C   -0.069149   0.002839
    12  C    0.418072  -0.056897
    13  C   -0.069126   0.453096
    14  C   -0.003937  -0.158461
    15  C    0.001001   0.034400
    16  C   -0.000218  -0.000053
    17  H   -0.000003   0.001334
    18  H    0.000000  -0.000003
    19  H    0.000000   0.000000
    20  H    0.000000   0.000000
    21  H    0.000000   0.000000
    22  H    0.000000   0.000000
    23  H   -0.000003   0.000000
    24  H   -0.004578  -0.000038
    25  H    0.645667  -0.004579
    26  H   -0.004579   0.627149
 Mulliken atomic charges:
              1
     1  C   -0.092479
     2  C   -0.392216
     3  C    0.644630
     4  C   -0.134550
     5  C    0.644693
     6  C   -0.392276
     7  C   -0.371482
     8  C   -0.134490
     9  C    0.644587
    10  C   -0.371466
    11  C   -0.392222
    12  C   -0.092449
    13  C   -0.392259
    14  C    0.644610
    15  C   -0.371464
    16  C   -0.371467
    17  H    0.091936
    18  H    0.091935
    19  H    0.097513
    20  H    0.086257
    21  H    0.097501
    22  H    0.091942
    23  H    0.091938
    24  H    0.097511
    25  H    0.086257
    26  H    0.097510
 Sum of Mulliken charges=   0.00000
 Atomic charges with hydrogens summed into heavy atoms:
              1
     1  C   -0.006222
     2  C   -0.294715
     3  C    0.644630
     4  C   -0.134550
     5  C    0.644693
     6  C   -0.294763
     7  C   -0.279540
     8  C   -0.134490
     9  C    0.644587
    10  C   -0.279529
    11  C   -0.294711
    12  C   -0.006192
    13  C   -0.294749
    14  C    0.644610
    15  C   -0.279528
    16  C   -0.279532
    17  H    0.000000
    18  H    0.000000
    19  H    0.000000
    20  H    0.000000
    21  H    0.000000
    22  H    0.000000
    23  H    0.000000
    24  H    0.000000
    25  H    0.000000
    26  H    0.000000
 Sum of Mulliken charges=   0.00000
 Electronic spatial extent (au):  <R**2>=  3061.7800
 Charge=     0.0000 electrons
 Dipole moment (field-independent basis, Debye):
    X=     0.0000    Y=     0.0000    Z=     0.0011  Tot=     0.0011
 Quadrupole moment (field-independent basis, Debye-Ang):
   XX=   -83.2245   YY=   -83.4773   ZZ=  -100.5103
   XY=     0.0003   XZ=     0.0028   YZ=     0.0001
 Traceless Quadrupole moment (field-independent basis, Debye-Ang):
   XX=     5.8463   YY=     5.5934   ZZ=   -11.4396
   XY=     0.0003   XZ=     0.0028   YZ=     0.0001
 Octapole moment (field-independent basis, Debye-Ang**2):
  XXX=    -0.0033  YYY=    -0.0011  ZZZ=     0.0008  XYY=     0.0010
  XXY=     0.0025  XXZ=     0.0111  XZZ=     0.0001  YZZ=    -0.0001
  YYZ=     0.0138  XYZ=     0.0055
 Hexadecapole moment (field-independent basis, Debye-Ang**3):
 XXXX= -2496.2057 YYYY= -1472.4109 ZZZZ=  -114.4545 XXXY=    -0.0040
 XXXZ=    -0.0774 YYYX=     0.0069 YYYZ=     0.0057 ZZZX=    -0.1466
 ZZZY=     0.0104 XXYY=  -645.6499 XXZZ=  -536.4796 YYZZ=  -324.4305
 XXYZ=     0.0088 YYXZ=    -0.0193 ZZXY=     0.0003
 N-N= 9.543736358778D+02 E-N=-3.331765906553D+03  KE= 6.083958855901D+02
 No NMR shielding tensors so no spin-rotation constants.
 Leave Link  601 at Sat Mar 12 15:18:11 2011, MaxMem= 4294967296 cpu:      19.9
 (Enter /system/software/orac/g03_E.01/g03/l701.exe)
 Compute integral first derivatives.
 ... and contract with generalized density number  0.
 Leave Link  701 at Sat Mar 12 15:18:13 2011, MaxMem= 4294967296 cpu:      18.6
 (Enter /system/software/orac/g03_E.01/g03/l702.exe)
 L702 exits ... SP integral derivatives will be done elsewhere.
 Leave Link  702 at Sat Mar 12 15:18:13 2011, MaxMem= 4294967296 cpu:       0.0
 (Enter /system/software/orac/g03_E.01/g03/l703.exe)
 Compute integral first derivatives, UseDBF=F.
 Integral derivatives from FoFDir, PRISM(SPDF).
 Symmetry not used in FoFDir.
 MinBra= 0 MaxBra= 2 Meth= 1.
 IRaf=       0 NMat=   1 IRICut=       1 DoRegI=T DoRafI=F ISym2E= 0 JSym2E=0.
 Leave Link  703 at Sat Mar 12 15:18:28 2011, MaxMem= 4294967296 cpu:     283.5
 (Enter /system/software/orac/g03_E.01/g03/l716.exe)
 Dipole        =-6.58831766D-06-2.78771980D-06 4.24045631D-04
 ***** Axes restored to original set *****
 -------------------------------------------------------------------
 Center     Atomic                   Forces (Hartrees/Bohr)
 Number     Number              X              Y              Z
 -------------------------------------------------------------------
    1          6          -0.046285582   -0.081264917   -0.000038546
    2          6           0.038142880   -0.078330395   -0.000009981
    3          6           0.010114164   -0.010421497    0.000014907
    4          6           0.004614379    0.008108562    0.000025626
    5          6          -0.014103658    0.003423537   -0.000012853
    6          6          -0.086806941   -0.007289678   -0.000040267
    7          6           0.043905417   -0.076756726   -0.000041965
    8          6          -0.004639737   -0.008099447   -0.000004081
    9          6           0.014145025   -0.003373825    0.000006682
   10          6           0.088421283    0.001446333   -0.000035883
   11          6           0.086809988    0.007222645   -0.000004109
   12          6           0.046206423    0.081303504   -0.000004121
   13          6          -0.038074724    0.078356384   -0.000006631
   14          6          -0.010147024    0.010390297   -0.000000773
   15          6          -0.043905941    0.076771272    0.000019347
   16          6          -0.088417955   -0.001490332   -0.000062085
   17          1           0.042912578   -0.076628388   -0.000011716
   18          1           0.087796152    0.002279425    0.000056012
   19          1           0.088103014    0.001984165    0.000041224
   20          1           0.043683744    0.076767399    0.000027298
   21          1          -0.043301504    0.076751235    0.000009432
   22          1          -0.042892357    0.076639336    0.000029604
   23          1          -0.087796534   -0.002262953    0.000032040
   24          1          -0.088102907   -0.001991034    0.000002907
   25          1          -0.043669220   -0.076775356    0.000006699
   26          1           0.043289038   -0.076759545    0.000001233
 -------------------------------------------------------------------
 Cartesian Forces:  Max     0.088421283 RMS     0.044959802
 Leave Link  716 at Sat Mar 12 15:18:28 2011, MaxMem= 4294967296 cpu:       1.1
 (Enter /system/software/orac/g03_E.01/g03/l103.exe)

 GradGradGradGradGradGradGradGradGradGradGradGradGradGradGradGradGradGrad
 Berny optimization.
 Internal  Forces:  Max     0.088326122 RMS     0.022658368
 Search for a local minimum.
 Step number   1 out of a maximum of 156
 All quantities printed in internal units (Hartrees-Bohrs-Radians)
 Second derivative matrix not updated -- first step.
     Eigenvalues ---    0.01648   0.01740   0.01779   0.01799   0.01799
     Eigenvalues ---    0.01820   0.01877   0.01916   0.01976   0.02067
     Eigenvalues ---    0.02072   0.02074   0.02075   0.02123   0.02123
     Eigenvalues ---    0.02132   0.02133   0.02156   0.02157   0.02183
     Eigenvalues ---    0.02183   0.02273   0.02300   0.16000   0.16000
     Eigenvalues ---    0.16000   0.16000   0.16000   0.16000   0.16000
     Eigenvalues ---    0.16000   0.16000   0.16000   0.16304   0.16304
     Eigenvalues ---    0.16304   0.16304   0.16304   0.16304   0.16304
     Eigenvalues ---    0.16304   0.16304   0.16304   0.22078   0.22189
     Eigenvalues ---    0.22401   0.22675   0.23441   0.23620   0.24531
     Eigenvalues ---    0.24588   0.24912   0.25000   0.32769   0.35469
     Eigenvalues ---    0.37155   0.39024   0.39627   0.39836   0.40114
     Eigenvalues ---    0.40306   0.40682   0.43307   0.43402   0.45392
     Eigenvalues ---    0.45431   0.45490   0.45493   0.46622   0.46625
     Eigenvalues ---    0.51877   0.522051000.000001000.000001000.00000
     Eigenvalues --- 1000.000001000.000001000.000001000.000001000.00000
     Eigenvalues --- 1000.000001000.000001000.000001000.000001000.00000
     Eigenvalues --- 1000.000001000.000001000.000001000.000001000.00000
     Eigenvalues --- 1000.000001000.000001000.000001000.000001000.00000
     Eigenvalues --- 1000.000001000.000001000.000001000.000001000.00000
     Eigenvalues --- 1000.000001000.000001000.000001000.000001000.00000
     Eigenvalues --- 1000.000001000.000001000.000001000.000001000.00000
     Eigenvalues --- 1000.000001000.000001000.000001000.000001000.00000
     Eigenvalues --- 1000.000001000.000001000.000001000.000001000.00000
     Eigenvalues --- 1000.000001000.000001000.000001000.000001000.00000
     Eigenvalues --- 1000.000001000.000001000.000001000.000001000.00000
     Eigenvalues --- 1000.000001000.000001000.000001000.000001000.00000
     Eigenvalues --- 1000.000001000.000001000.000001000.000001000.00000
     Eigenvalues --- 1000.000001000.000001000.000001000.000001000.00000
     Eigenvalues --- 1000.000001000.000001000.000001000.000001000.00000
     Eigenvalues --- 1000.000001000.000001000.00000
 RFO step:  Lambda=-2.09708192D-01.
 Linear search not attempted -- first point.
 Maximum step size (   0.300) exceeded in Quadratic search.
    -- Step size scaled by   0.401
 Iteration  1 RMS(Cart)=  0.02272238 RMS(Int)=  0.00000836
 Iteration  2 RMS(Cart)=  0.00001417 RMS(Int)=  0.00000057
 Iteration  3 RMS(Cart)=  0.00000000 RMS(Int)=  0.00000057
 Variable       Old X    -DE/DX   Delta X   Delta X   Delta X     New X
                                 (Linear)    (Quad)   (Total)
    R1        2.63209   0.00244   0.00000   0.00122   0.00122   2.63331
    R2        2.63223   0.00241   0.00000   0.00120   0.00120   2.63342
    R3        2.55114  -0.08833   0.00000  -0.09492  -0.09492   2.45622
    R4        2.64720   0.00659   0.00000   0.00397   0.00397   2.65117
    R5        2.55113  -0.08812   0.00000  -0.09469  -0.09469   2.45644
    R6        2.68177   0.01152   0.00000   0.00761   0.00761   2.68937
    R7        2.72057   0.00320   0.00000   0.00200   0.00200   2.72257
    R8        2.68183   0.01151   0.00000   0.00760   0.00760   2.68942
    R9        2.70860   0.00260   0.00000   0.00214   0.00214   2.71073
   R10        2.64707   0.00663   0.00000   0.00399   0.00399   2.65106
   R11        2.72063   0.00320   0.00000   0.00200   0.00200   2.72262
   R12        2.55113  -0.08812   0.00000  -0.09469  -0.09469   2.45644
   R13        2.56362   0.00421   0.00000   0.00208   0.00208   2.56569
   R14        2.55112  -0.08783   0.00000  -0.09438  -0.09438   2.45674
   R15        2.68175   0.01153   0.00000   0.00761   0.00761   2.68936
   R16        2.68183   0.01151   0.00000   0.00760   0.00760   2.68943
   R17        2.72058   0.00320   0.00000   0.00200   0.00200   2.72257
   R18        2.64723   0.00658   0.00000   0.00396   0.00396   2.65119
   R19        2.55112  -0.08783   0.00000  -0.09438  -0.09438   2.45674
   R20        2.63208   0.00245   0.00000   0.00122   0.00122   2.63330
   R21        2.55113  -0.08812   0.00000  -0.09469  -0.09469   2.45644
   R22        2.63224   0.00240   0.00000   0.00120   0.00120   2.63343
   R23        2.55113  -0.08833   0.00000  -0.09492  -0.09492   2.45622
   R24        2.64709   0.00661   0.00000   0.00398   0.00398   2.65107
   R25        2.55112  -0.08812   0.00000  -0.09469  -0.09469   2.45643
   R26        2.72065   0.00318   0.00000   0.00199   0.00199   2.72264
   R27        2.56356   0.00423   0.00000   0.00209   0.00209   2.56565
   R28        2.55114  -0.08783   0.00000  -0.09438  -0.09438   2.45676
   R29        2.55113  -0.08783   0.00000  -0.09438  -0.09438   2.45675
    A1        2.10712  -0.00050   0.00000  -0.00104  -0.00104   2.10608
    A2        2.08809   0.00025   0.00000   0.00052   0.00052   2.08861
    A3        2.08797   0.00026   0.00000   0.00053   0.00053   2.08850
    A4        2.10104   0.00313   0.00000   0.00270   0.00270   2.10374
    A5        2.09538  -0.00034   0.00000  -0.00002  -0.00002   2.09536
    A6        2.08676  -0.00279   0.00000  -0.00268  -0.00268   2.08408
    A7        2.08159  -0.00253   0.00000  -0.00189  -0.00189   2.07970
    A8        2.13028   0.00465   0.00000   0.00367   0.00367   2.13394
    A9        2.07132  -0.00212   0.00000  -0.00178  -0.00178   2.06954
   A10        2.09397  -0.00070   0.00000  -0.00057  -0.00057   2.09340
   A11        2.09457   0.00036   0.00000   0.00029   0.00029   2.09486
   A12        2.09465   0.00034   0.00000   0.00028   0.00028   2.09492
   A13        2.08165  -0.00254   0.00000  -0.00190  -0.00190   2.07975
   A14        2.07127  -0.00212   0.00000  -0.00177  -0.00177   2.06950
   A15        2.13027   0.00466   0.00000   0.00367   0.00367   2.13394
   A16        2.10100   0.00314   0.00000   0.00271   0.00271   2.10370
   A17        2.09545  -0.00035   0.00000  -0.00003  -0.00003   2.09542
   A18        2.08674  -0.00279   0.00000  -0.00267  -0.00267   2.08406
   A19        2.11728   0.00177   0.00000   0.00149   0.00149   2.11877
   A20        2.05232  -0.00083   0.00000  -0.00068  -0.00068   2.05164
   A21        2.11359  -0.00094   0.00000  -0.00081  -0.00081   2.11278
   A22        2.09463   0.00034   0.00000   0.00028   0.00028   2.09491
   A23        2.09457   0.00036   0.00000   0.00029   0.00029   2.09487
   A24        2.09398  -0.00070   0.00000  -0.00057  -0.00057   2.09341
   A25        2.07129  -0.00212   0.00000  -0.00177  -0.00177   2.06952
   A26        2.08163  -0.00253   0.00000  -0.00190  -0.00190   2.07973
   A27        2.13027   0.00465   0.00000   0.00367   0.00367   2.13393
   A28        2.11728   0.00177   0.00000   0.00149   0.00149   2.11877
   A29        2.11343  -0.00093   0.00000  -0.00079  -0.00079   2.11264
   A30        2.05247  -0.00084   0.00000  -0.00070  -0.00070   2.05177
   A31        2.10100   0.00314   0.00000   0.00271   0.00270   2.10370
   A32        2.08676  -0.00279   0.00000  -0.00268  -0.00268   2.08408
   A33        2.09543  -0.00034   0.00000  -0.00003  -0.00003   2.09541
   A34        2.10713  -0.00050   0.00000  -0.00104  -0.00104   2.10608
   A35        2.08808   0.00025   0.00000   0.00052   0.00052   2.08859
   A36        2.08798   0.00025   0.00000   0.00052   0.00053   2.08851
   A37        2.10103   0.00313   0.00000   0.00270   0.00270   2.10373
   A38        2.09529  -0.00033   0.00000  -0.00001  -0.00001   2.09528
   A39        2.08687  -0.00280   0.00000  -0.00269  -0.00269   2.08418
   A40        2.08161  -0.00253   0.00000  -0.00189  -0.00189   2.07972
   A41        2.07128  -0.00212   0.00000  -0.00177  -0.00177   2.06951
   A42        2.13029   0.00465   0.00000   0.00367   0.00366   2.13396
   A43        2.11732   0.00176   0.00000   0.00148   0.00148   2.11880
   A44        2.05242  -0.00084   0.00000  -0.00069  -0.00069   2.05173
   A45        2.11345  -0.00093   0.00000  -0.00079  -0.00079   2.11266
   A46        2.11729   0.00177   0.00000   0.00149   0.00149   2.11878
   A47        2.05237  -0.00083   0.00000  -0.00069  -0.00069   2.05168
   A48        2.11353  -0.00094   0.00000  -0.00080  -0.00080   2.11273
    D1        0.00003   0.00000   0.00000   0.00000   0.00000   0.00002
    D2       -3.14147   0.00000   0.00000  -0.00001  -0.00001  -3.14148
    D3        3.14132   0.00001   0.00000   0.00001   0.00001   3.14133
    D4       -0.00018   0.00000   0.00000   0.00001   0.00001  -0.00017
    D5       -0.00011   0.00000   0.00000   0.00000   0.00000  -0.00010
    D6        3.14119   0.00001   0.00000   0.00001   0.00001   3.14120
    D7       -3.14140   0.00000   0.00000  -0.00001  -0.00001  -3.14141
    D8       -0.00010   0.00000   0.00000   0.00000   0.00000  -0.00010
    D9        0.00003   0.00000   0.00000   0.00000   0.00000   0.00003
   D10        3.14154   0.00000   0.00000   0.00000   0.00000   3.14154
   D11        3.14153   0.00000   0.00000   0.00000   0.00000   3.14153
   D12       -0.00015   0.00000   0.00000   0.00001   0.00001  -0.00014
   D13       -0.00001   0.00000   0.00000   0.00000   0.00000  -0.00001
   D14        3.14142   0.00000   0.00000   0.00000   0.00000   3.14142
   D15       -3.14151   0.00000   0.00000   0.00000   0.00000  -3.14152
   D16       -0.00009   0.00000   0.00000   0.00000   0.00000  -0.00009
   D17       -3.14151   0.00000   0.00000   0.00000   0.00000  -3.14151
   D18        0.00036  -0.00001   0.00000  -0.00001  -0.00001   0.00035
   D19       -0.00001   0.00000   0.00000   0.00000   0.00000  -0.00001
   D20       -3.14133   0.00000   0.00000  -0.00001  -0.00001  -3.14133
   D21       -0.00007   0.00000   0.00000   0.00000   0.00000  -0.00007
   D22       -3.14155   0.00000   0.00000   0.00000   0.00000  -3.14156
   D23       -3.14150   0.00000   0.00000   0.00000   0.00000  -3.14150
   D24        0.00021   0.00000   0.00000  -0.00001  -0.00001   0.00020
   D25        0.00012   0.00000   0.00000   0.00000   0.00000   0.00012
   D26       -3.14150   0.00000   0.00000   0.00000   0.00000  -3.14150
   D27        3.14154   0.00000   0.00000   0.00000   0.00000   3.14155
   D28       -0.00007   0.00000   0.00000   0.00000   0.00000  -0.00007
   D29        0.00013   0.00000   0.00000  -0.00001  -0.00001   0.00013
   D30       -3.14117  -0.00001   0.00000  -0.00002  -0.00002  -3.14118
   D31       -3.14158   0.00000   0.00000   0.00000   0.00000  -3.14158
   D32        0.00031  -0.00001   0.00000  -0.00001  -0.00001   0.00030
   D33       -0.00016   0.00000   0.00000   0.00000   0.00000  -0.00016
   D34        3.14103   0.00001   0.00000   0.00002   0.00002   3.14105
   D35        3.14155   0.00000   0.00000   0.00000   0.00000   3.14155
   D36       -0.00044   0.00001   0.00000   0.00001   0.00001  -0.00043
   D37        0.00008   0.00000   0.00000   0.00000   0.00000   0.00008
   D38       -3.14123  -0.00001   0.00000  -0.00001  -0.00001  -3.14125
[...]
                 (A) (A) (A) (A) (A) (A) (A) (A) (A) (A) (A) (A)
                 (A) (A) (A) (A) (A) (A) (A) (A) (A) (A) (A) (A)
                 (A) (A) (A) (A) (A) (A) (A) (A) (A) (A) (A) (A)
                 (A) (A) (A) (A) (A) (A) (A) (A) (A) (A) (A) (A)
                 (A) (A) (A) (A) (A) (A) (A) (A) (A) (A) (A) (A)
                 (A) (A) (A) (A) (A) (A) (A) (A) (A) (A) (A) (A)
                 (A) (A) (A) (A) (A) (A) (A) (A) (A) (A) (A) (A)
                 (A) (A) (A) (A) (A) (A) (A) (A) (A) (A) (A) (A)
                 (A) (A) (A) (A) (A) (A) (A) (A) (A) (A) (A) (A)
                 (A) (A) (A) (A) (A) (A) (A) (A) (A) (A) (A) (A)
                 (A) (A) (A) (A) (A) (A) (A) (A) (A) (A) (A) (A)
                 (A) (A) (A) (A) (A) (A) (A) (A) (A) (A) (A) (A)
                 (A)
 The electronic state is 1-A.
 Alpha  occ. eigenvalues --  -10.21295 -10.21295 -10.21291 -10.21291 -10.21097
 Alpha  occ. eigenvalues --  -10.21054 -10.20407 -10.20407 -10.20363 -10.20363
 Alpha  occ. eigenvalues --  -10.20339 -10.20339 -10.20230 -10.20230 -10.20219
 Alpha  occ. eigenvalues --  -10.20219  -0.89207  -0.85058  -0.83082  -0.79706
 Alpha  occ. eigenvalues --   -0.76768  -0.74970  -0.73188  -0.71162  -0.63020
 Alpha  occ. eigenvalues --   -0.62959  -0.62522  -0.61033  -0.54806  -0.52522
 Alpha  occ. eigenvalues --   -0.52028  -0.50335  -0.49415  -0.47325  -0.44396
 Alpha  occ. eigenvalues --   -0.43555  -0.43356  -0.41836  -0.41161  -0.40466
 Alpha  occ. eigenvalues --   -0.39968  -0.39382  -0.36971  -0.36761  -0.36335
 Alpha  occ. eigenvalues --   -0.34380  -0.33261  -0.32375  -0.30022  -0.27720
 Alpha  occ. eigenvalues --   -0.25950  -0.23502  -0.20332
 Alpha virt. eigenvalues --   -0.06502  -0.03486  -0.01671   0.00529   0.01702
 Alpha virt. eigenvalues --    0.02533   0.02808   0.04151   0.04446   0.05414
 Alpha virt. eigenvalues --    0.05623   0.06219   0.07835   0.08961   0.09710
 Alpha virt. eigenvalues --    0.09771   0.10210   0.11520   0.12751   0.13001
 Alpha virt. eigenvalues --    0.16334   0.17530   0.17758   0.18389   0.19877
 Alpha virt. eigenvalues --    0.20148   0.21040   0.21808   0.22815   0.24395
 Alpha virt. eigenvalues --    0.25472   0.26059   0.26307   0.26800   0.27110
 Alpha virt. eigenvalues --    0.27946   0.28147   0.29022   0.29105   0.29505
 Alpha virt. eigenvalues --    0.30415   0.30880   0.31422   0.32639   0.32646
 Alpha virt. eigenvalues --    0.33815   0.34120   0.34273   0.34431   0.36655
 Alpha virt. eigenvalues --    0.37351   0.37775   0.38214   0.39080   0.40017
 Alpha virt. eigenvalues --    0.41956   0.42052   0.43373   0.44719   0.44917
 Alpha virt. eigenvalues --    0.45492   0.45547   0.45608   0.45936   0.46933
 Alpha virt. eigenvalues --    0.47212   0.47215   0.47374   0.47916   0.48132
 Alpha virt. eigenvalues --    0.48459   0.49975   0.51217   0.51283   0.52405
 Alpha virt. eigenvalues --    0.53808   0.54012   0.56158   0.56403   0.56575
 Alpha virt. eigenvalues --    0.58317   0.60577   0.61613   0.63856   0.65346
 Alpha virt. eigenvalues --    0.65787   0.66775   0.66875   0.67723   0.68109
 Alpha virt. eigenvalues --    0.69217   0.69419   0.70434   0.72426   0.73879
 Alpha virt. eigenvalues --    0.74606   0.78811   0.81324   0.81782   0.83499
 Alpha virt. eigenvalues --    0.84193   0.85192   0.86210   0.89358   0.89498
 Alpha virt. eigenvalues --    0.90371   0.90936   0.91409   0.93524   0.93733
 Alpha virt. eigenvalues --    0.94510   0.94620   0.94693   0.96307   0.96515
 Alpha virt. eigenvalues --    0.96596   0.97586   0.97766   0.97949   1.00595
 Alpha virt. eigenvalues --    1.00878   1.00998   1.01841   1.02871   1.04176
 Alpha virt. eigenvalues --    1.04265   1.07909   1.08612   1.08879   1.09139
 Alpha virt. eigenvalues --    1.09897   1.14282   1.16492   1.18650   1.19881
 Alpha virt. eigenvalues --    1.20943   1.22693   1.30620   1.31002   1.31535
 Alpha virt. eigenvalues --    1.32746   1.33114   1.34007   1.34387   1.35612
 Alpha virt. eigenvalues --    1.36799   1.37644   1.38871   1.42197   1.43081
 Alpha virt. eigenvalues --    1.44096   1.46074   1.46403   1.46965   1.47969
 Alpha virt. eigenvalues --    1.50530   1.51256   1.52472   1.52712   1.53500
 Alpha virt. eigenvalues --    1.56375   1.57246   1.59103   1.59621   1.62198
 Alpha virt. eigenvalues --    1.63079   1.63800   1.64408   1.64595   1.66155
 Alpha virt. eigenvalues --    1.66218   1.66449   1.66557   1.68310   1.71186
 Alpha virt. eigenvalues --    1.71755   1.73321   1.73753   1.73802   1.75755
 Alpha virt. eigenvalues --    1.76317   1.76699   1.77788   1.78046   1.78556
 Alpha virt. eigenvalues --    1.79265   1.79286   1.80344   1.81660   1.84203
 Alpha virt. eigenvalues --    1.84290   1.84620   1.92345   1.92810   2.02767
 Alpha virt. eigenvalues --    2.03162   2.03202   2.03513   2.05438   2.09633
 Alpha virt. eigenvalues --    2.09643   2.10956   2.12110   2.12376   2.12791
 Alpha virt. eigenvalues --    2.14136   2.16152   2.17572   2.18728   2.18898
 Alpha virt. eigenvalues --    2.27710   2.30740   2.37325   2.37523   2.41372
 Alpha virt. eigenvalues --    2.43279   2.44572   2.45116   2.46205   2.46259
 Alpha virt. eigenvalues --    2.48139   2.50352   2.52066   2.53767   2.64218
 Alpha virt. eigenvalues --    2.64459   2.65824   2.67671   2.70670   2.74523
 Alpha virt. eigenvalues --    2.75211   2.80454   2.83253   3.14945   3.27136
 Alpha virt. eigenvalues --    3.33522   3.44338   4.99987   5.07896   5.11986
 Alpha virt. eigenvalues --    5.12370   5.13954   5.15886   5.21001   5.27871
 Alpha virt. eigenvalues --    5.32219   5.32634   5.39091   5.40848   5.42563
 Alpha virt. eigenvalues --    5.44307   5.54460   5.57420   5.62609   5.63641
 Alpha virt. eigenvalues --    5.64530   5.66981   5.67821   5.70337   5.83519
 Alpha virt. eigenvalues --    5.94045   6.03194   6.30204  29.59666  29.85139
 Alpha virt. eigenvalues --   29.86148  29.90728  29.95915  30.00599  30.02418
 Alpha virt. eigenvalues --   30.05149  30.08238  30.17226  30.17492  30.17902
 Alpha virt. eigenvalues --   30.25379  30.32595  30.35975  30.56741  36.69042
 Alpha virt. eigenvalues --   36.73286  36.73544  36.75063  36.79453  36.79943
 Alpha virt. eigenvalues --   36.94806  36.96574  36.98834  36.99922
          Condensed to atoms (all electrons):
              1          2          3          4          5          6
     1  C    4.821738   0.492369  -0.008886   0.004188  -0.008886   0.492368
     2  C    0.492369   5.303941   0.226274  -0.001060  -0.002573  -0.105096
     3  C   -0.008886   0.226274   5.110958   0.187284   0.038628  -0.002573
     4  C    0.004188  -0.001060   0.187284   5.824657   0.187283  -0.001059
     5  C   -0.008886  -0.002573   0.038628   0.187283   5.110959   0.226274
     6  C    0.492368  -0.105096  -0.002573  -0.001059   0.226274   5.303941
     7  C   -0.006949   0.048460   0.193940   0.031124  -0.019168   0.004638
     8  C    0.008787  -0.039267   0.165870  -0.342437   0.165870  -0.039267
     9  C    0.007503   0.028520  -0.030967   0.165870  -0.066631  -0.007861
    10  C   -0.011216  -0.018319  -0.070706  -0.033378   0.015878   0.011707
    11  C    0.000345  -0.000924   0.028520  -0.039267  -0.007861  -0.001055
    12  C   -0.000029   0.000345   0.007503   0.008787   0.007503   0.000345
    13  C    0.000345  -0.001055  -0.007861  -0.039267   0.028520  -0.000924
    14  C    0.007503  -0.007861  -0.066631   0.165870  -0.030968   0.028520
    15  C   -0.011216   0.011707   0.015878  -0.033378  -0.070706  -0.018319
    16  C   -0.006948   0.004638  -0.019168   0.031124   0.193939   0.048460
    17  H   -0.000324   0.000145   0.000605   0.001412  -0.011212   0.000359
    18  H    0.001358  -0.000269   0.000396  -0.004344  -0.092998   0.013858
    19  H   -0.042669  -0.005006   0.003758  -0.010407  -0.121249   0.435690
    20  H    0.397996  -0.047468  -0.016150   0.008542  -0.016150  -0.047468
    21  H   -0.042669   0.435690  -0.121249  -0.010407   0.003758  -0.005006
    22  H    0.001358   0.013858  -0.092998  -0.004344   0.000396  -0.000269
    23  H   -0.000324   0.000359  -0.011212   0.001412   0.000605   0.000145
    24  H   -0.000008   0.000043   0.000339  -0.001195  -0.000082   0.000001
    25  H   -0.000001   0.000003   0.000037   0.000703   0.000037   0.000003
    26  H   -0.000008   0.000001  -0.000082  -0.001195   0.000339   0.000043
              7          8          9         10         11         12
     1  C   -0.006949   0.008787   0.007503  -0.011216   0.000345  -0.000029
     2  C    0.048460  -0.039267   0.028520  -0.018319  -0.000924   0.000345
     3  C    0.193940   0.165870  -0.030967  -0.070706   0.028520   0.007503
     4  C    0.031124  -0.342437   0.165870  -0.033378  -0.039267   0.008787
     5  C   -0.019168   0.165870  -0.066631   0.015878  -0.007861   0.007503
     6  C    0.004638  -0.039267  -0.007861   0.011707  -0.001055   0.000345
     7  C    5.171833  -0.033378  -0.070706   0.594041  -0.018319  -0.011216
     8  C   -0.033378   5.824657   0.187284   0.031124  -0.001059   0.004188
     9  C   -0.070706   0.187284   5.110958   0.193940   0.226274  -0.008886
    10  C    0.594041   0.031124   0.193940   5.171833   0.048460  -0.006949
    11  C   -0.018319  -0.001059   0.226274   0.048460   5.303940   0.492369
    12  C   -0.011216   0.004188  -0.008886  -0.006949   0.492369   4.821738
    13  C    0.011707  -0.001059  -0.002573   0.004638  -0.105096   0.492368
    14  C    0.015878   0.187283   0.038628  -0.019168  -0.002573  -0.008886
    15  C    0.000920   0.031124  -0.019168  -0.002862   0.004638  -0.006949
    16  C   -0.002862  -0.033378   0.015878   0.000920   0.011707  -0.011216
    17  H    0.000047  -0.004344   0.000396  -0.000141  -0.000269   0.001358
    18  H   -0.000141   0.001412   0.000605   0.000047   0.000145  -0.000324
    19  H   -0.000119  -0.001195  -0.000082   0.000156   0.000001  -0.000008
    20  H    0.001358   0.000703   0.000037  -0.000356   0.000003  -0.000001
    21  H    0.029146  -0.001195   0.000339   0.000697   0.000043  -0.000008
    22  H    0.412500   0.001412  -0.011212  -0.048524   0.000359  -0.000324
    23  H   -0.048524  -0.004344  -0.092998   0.412500   0.013858   0.001358
    24  H    0.000697  -0.010407  -0.121249   0.029146   0.435690  -0.042669
    25  H   -0.000356   0.008542  -0.016150   0.001358  -0.047468   0.397996
    26  H    0.000156  -0.010407   0.003758  -0.000119  -0.005006  -0.042669
             13         14         15         16         17         18
     1  C    0.000345   0.007503  -0.011216  -0.006948  -0.000324   0.001358
     2  C   -0.001055  -0.007861   0.011707   0.004638   0.000145  -0.000269
     3  C   -0.007861  -0.066631   0.015878  -0.019168   0.000605   0.000396
     4  C   -0.039267   0.165870  -0.033378   0.031124   0.001412  -0.004344
     5  C    0.028520  -0.030968  -0.070706   0.193939  -0.011212  -0.092998
     6  C   -0.000924   0.028520  -0.018319   0.048460   0.000359   0.013858
     7  C    0.011707   0.015878   0.000920  -0.002862   0.000047  -0.000141
     8  C   -0.001059   0.187283   0.031124  -0.033378  -0.004344   0.001412
     9  C   -0.002573   0.038628  -0.019168   0.015878   0.000396   0.000605
    10  C    0.004638  -0.019168  -0.002862   0.000920  -0.000141   0.000047
    11  C   -0.105096  -0.002573   0.004638   0.011707  -0.000269   0.000145
    12  C    0.492368  -0.008886  -0.006949  -0.011216   0.001358  -0.000324
    13  C    5.303941   0.226274   0.048460  -0.018319   0.013858   0.000359
    14  C    0.226274   5.110959   0.193939  -0.070706  -0.092998  -0.011212
    15  C    0.048460   0.193939   5.171833   0.594041   0.412500  -0.048524
    16  C   -0.018319  -0.070706   0.594041   5.171833  -0.048524   0.412500
    17  H    0.013858  -0.092998   0.412500  -0.048524   0.622977  -0.004265
    18  H    0.000359  -0.011212  -0.048524   0.412500  -0.004265   0.622977
    19  H    0.000043   0.000339   0.000697   0.029146  -0.000010   0.002013
    20  H    0.000003   0.000037  -0.000356   0.001358   0.000000  -0.000007
    21  H    0.000001  -0.000082   0.000156  -0.000119   0.000000   0.000000
    22  H    0.000145   0.000605   0.000047  -0.000141   0.000000   0.000000
    23  H   -0.000269   0.000396  -0.000141   0.000047   0.000000   0.000000
    24  H   -0.005006   0.003758  -0.000119   0.000156   0.000000   0.000000
    25  H   -0.047468  -0.016150   0.001358  -0.000356  -0.000007   0.000000
    26  H    0.435690  -0.121249   0.029146   0.000697   0.002013  -0.000010
             19         20         21         22         23         24
     1  C   -0.042669   0.397996  -0.042669   0.001358  -0.000324  -0.000008
     2  C   -0.005006  -0.047468   0.435690   0.013858   0.000359   0.000043
     3  C    0.003758  -0.016150  -0.121249  -0.092998  -0.011212   0.000339
     4  C   -0.010407   0.008542  -0.010407  -0.004344   0.001412  -0.001195
     5  C   -0.121249  -0.016150   0.003758   0.000396   0.000605  -0.000082
     6  C    0.435690  -0.047468  -0.005006  -0.000269   0.000145   0.000001
     7  C   -0.000119   0.001358   0.029146   0.412500  -0.048524   0.000697
     8  C   -0.001195   0.000703  -0.001195   0.001412  -0.004344  -0.010407
     9  C   -0.000082   0.000037   0.000339  -0.011212  -0.092998  -0.121249
    10  C    0.000156  -0.000356   0.000697  -0.048524   0.412500   0.029146
    11  C    0.000001   0.000003   0.000043   0.000359   0.013858   0.435690
    12  C   -0.000008  -0.000001  -0.000008  -0.000324   0.001358  -0.042669
    13  C    0.000043   0.000003   0.000001   0.000145  -0.000269  -0.005006
    14  C    0.000339   0.000037  -0.000082   0.000605   0.000396   0.003758
    15  C    0.000697  -0.000356   0.000156   0.000047  -0.000141  -0.000119
    16  C    0.029146   0.001358  -0.000119  -0.000141   0.000047   0.000156
    17  H   -0.000010   0.000000   0.000000   0.000000   0.000000   0.000000
    18  H    0.002013  -0.000007   0.000000   0.000000   0.000000   0.000000
    19  H    0.600063  -0.005217  -0.000174   0.000000   0.000000   0.000000
    20  H   -0.005217   0.630078  -0.005217  -0.000007   0.000000   0.000000
    21  H   -0.000174  -0.005217   0.600063   0.002013  -0.000010   0.000000
    22  H    0.000000  -0.000007   0.002013   0.622977  -0.004265  -0.000010
    23  H    0.000000   0.000000  -0.000010  -0.004265   0.622977   0.002013
    24  H    0.000000   0.000000   0.000000  -0.000010   0.002013   0.600063
    25  H    0.000000   0.000000   0.000000   0.000000  -0.000007  -0.005217
    26  H    0.000000   0.000000   0.000000   0.000000   0.000000  -0.000174
             25         26
     1  C   -0.000001  -0.000008
     2  C    0.000003   0.000001
     3  C    0.000037  -0.000082
     4  C    0.000703  -0.001195
     5  C    0.000037   0.000339
     6  C    0.000003   0.000043
     7  C   -0.000356   0.000156
     8  C    0.008542  -0.010407
     9  C   -0.016150   0.003758
    10  C    0.001358  -0.000119
    11  C   -0.047468  -0.005006
    12  C    0.397996  -0.042669
    13  C   -0.047468   0.435690
    14  C   -0.016150  -0.121249
    15  C    0.001358   0.029146
    16  C   -0.000356   0.000697
    17  H   -0.000007   0.002013
    18  H    0.000000  -0.000010
    19  H    0.000000   0.000000
    20  H    0.000000   0.000000
    21  H    0.000000   0.000000
    22  H    0.000000   0.000000
    23  H   -0.000007   0.000000
    24  H   -0.005217  -0.000174
    25  H    0.630078  -0.005217
    26  H   -0.005217   0.600063
 Mulliken atomic charges:
              1
     1  C   -0.095725
     2  C   -0.337456
     3  C    0.468494
     4  C   -0.096519
     5  C    0.468494
     6  C   -0.337456
     7  C   -0.304708
     8  C   -0.096519
     9  C    0.468494
    10  C   -0.304708
    11  C   -0.337456
    12  C   -0.095725
    13  C   -0.337456
    14  C    0.468494
    15  C   -0.304708
    16  C   -0.304708
    17  H    0.106424
    18  H    0.106424
    19  H    0.114226
    20  H    0.098283
    21  H    0.114226
    22  H    0.106424
    23  H    0.106424
    24  H    0.114226
    25  H    0.098283
    26  H    0.114226
 Sum of Mulliken charges=   0.00000
 Atomic charges with hydrogens summed into heavy atoms:
              1
     1  C    0.002559
     2  C   -0.223230
     3  C    0.468494
     4  C   -0.096519
     5  C    0.468494
     6  C   -0.223230
     7  C   -0.198284
     8  C   -0.096519
     9  C    0.468494
    10  C   -0.198284
    11  C   -0.223230
    12  C    0.002559
    13  C   -0.223230
    14  C    0.468494
    15  C   -0.198284
    16  C   -0.198284
    17  H    0.000000
    18  H    0.000000
    19  H    0.000000
    20  H    0.000000
    21  H    0.000000
    22  H    0.000000
    23  H    0.000000
    24  H    0.000000
    25  H    0.000000
    26  H    0.000000
 Sum of Mulliken charges=   0.00000
 Electronic spatial extent (au):  <R**2>=  3014.7711
 Charge=     0.0000 electrons
 Dipole moment (field-independent basis, Debye):
    X=     0.0000    Y=     0.0000    Z=     0.0000  Tot=     0.0000
 Quadrupole moment (field-independent basis, Debye-Ang):
   XX=   -79.4670   YY=   -79.7386   ZZ=   -98.5258
   XY=     0.0000   XZ=     0.0020   YZ=    -0.0002
 Traceless Quadrupole moment (field-independent basis, Debye-Ang):
   XX=     6.4435   YY=     6.1719   ZZ=   -12.6154
   XY=     0.0000   XZ=     0.0020   YZ=    -0.0002
 Octapole moment (field-independent basis, Debye-Ang**2):
  XXX=     0.0000  YYY=     0.0000  ZZZ=     0.0000  XYY=     0.0000
  XXY=     0.0000  XXZ=     0.0000  XZZ=     0.0000  YZZ=     0.0000
  YYZ=     0.0000  XYZ=     0.0000
 Hexadecapole moment (field-independent basis, Debye-Ang**3):
 XXXX= -2357.9311 YYYY= -1367.9010 ZZZZ=  -111.9666 XXXY=     0.0000
 XXXZ=    -0.0869 YYYX=     0.0000 YYYZ=     0.0042 ZZZX=    -0.1476
 ZZZY=     0.0070 XXYY=  -614.1810 XXZZ=  -508.5193 YYZZ=  -300.3507
 XXYZ=     0.0009 YYXZ=    -0.0328 ZZXY=     0.0000
 N-N= 9.616207779116D+02 E-N=-3.349037376385D+03  KE= 6.105908302558D+02
 Calculating spin-rotation constants.
 Leave Link  601 at Sat Mar 12 17:43:47 2011, MaxMem= 4294967296 cpu:     181.9
 (Enter /system/software/orac/g03_E.01/g03/l9999.exe)
 1\1\GINC-ORAC\SP\RB3LYP\EPR-II\C16H10\KUPROV\12-Mar-2011\0\\#p nmr=(gi
 ao,spinspin) b3lyp/EPR-II scf=tight integral=(grid=ultrafine) geom=che
 ckpoint\\Pyrene neutral molecule.\\0,1\C,0,-4.3698147027,-4.5407455553
 ,0.0015229997\C,0,-2.9683786676,-4.5393640393,0.0015845295\C,0,-2.2514
 251541,-3.324313906,0.0017315808\C,0,-2.9739491704,-2.0871917456,0.001
 8177419\C,0,-4.4065660906,-2.0982202585,0.0017538171\C,0,-5.0846995951
 ,-3.3353551676,0.0016061899\C,0,-0.8079311134,-3.2836722408,0.00179887
 24\C,0,-2.2662201273,-0.8431960363,0.0019672031\C,0,-0.8336033606,-0.8
 321677997,0.0020309535\C,0,-0.130977524,-2.0937715834,0.0019417272\C,0
 ,-0.1554693039,0.4049677386,0.0021782952\C,0,-0.8703537758,1.610357857
 6,0.0022618123\C,0,-2.2717906329,1.6089764503,0.0022002591\C,0,-2.9887
 44185,0.3939266803,0.0020532725\C,0,-4.4322387148,0.3532843639,0.00198
 59094\C,0,-5.1091919759,-0.8366162263,0.0018429582\H,0,-4.9752754606,1
 .295147616,0.0020515544\H,0,-6.196291899,-0.8510688649,0.0017936151\H,
 0,-6.1717460388,-3.346163798,0.0015572518\H,0,-4.9070884171,-5.4851264
 768,0.0014096401\H,0,-2.4222364027,-5.4793190105,0.0015190588\H,0,-0.2
 648944769,-4.2255353923,0.0017328419\H,0,0.9561224274,-2.0793192556,0.
 0019904725\H,0,0.9315772082,0.4157754126,0.0022267194\H,0,-0.333080721
 9,2.5547392508,0.0023750777\H,0,-2.8179321244,2.5489319868,0.002265646
 4\\Version=IA64L-G03RevE.01\State=1-A\HF=-615.8393063\RMSD=4.050e-09\T
 hermal=0.\Dipole=0.0000003,0.,-0.0000004\PG=C01 [X(C16H10)]\\@


 TOWERING GENIUS DISDAINS A BEATEN PATH.  IT SEEKS 
 REGIONS HITHERTO UNEXPLORED.

                                -- ABRAHAM LINCOLN
 Job cpu time:  0 days 17 hours  2 minutes 29.9 seconds.
 File lengths (MBytes):  RWF=    807 Int=      0 D2E=      0 Chk=     17 Scr=      1
 Normal termination of Gaussian 03 at Sat Mar 12 17:43:48 2011.
