 Entering Gaussian System, Link 0=g03
 Input=sucrose.com
 Output=sucrose.log
 Initial command:
 /home/system/software/orac/g03_E.01/g03/l1.exe /scratch/pbs.74867.orac/Gau-170185.inp -scrdir=/scratch/pbs.74867.orac/
 Entering Link 1 = /home/system/software/orac/g03_E.01/g03/l1.exe PID=    170186.
  
 Copyright (c) 1988,1990,1992,1993,1995,1998,2003,2004,2007, Gaussian, Inc.
                  All Rights Reserved.
  
 This is the Gaussian(R) 03 program.  It is based on the
 the Gaussian(R) 98 system (copyright 1998, Gaussian, Inc.),
 the Gaussian(R) 94 system (copyright 1995, Gaussian, Inc.),
 the Gaussian 92(TM) system (copyright 1992, Gaussian, Inc.),
 the Gaussian 90(TM) system (copyright 1990, Gaussian, Inc.),
 the Gaussian 88(TM) system (copyright 1988, Gaussian, Inc.),
 the Gaussian 86(TM) system (copyright 1986, Carnegie Mellon
 University), and the Gaussian 82(TM) system (copyright 1983,
 Carnegie Mellon University). Gaussian is a federally registered
 trademark of Gaussian, Inc.
  
 This software contains proprietary and confidential information,
 including trade secrets, belonging to Gaussian, Inc.
  
 This software is provided under written license and may be
 used, copied, transmitted, or stored only in accord with that
 written license.
  
 The following legend is applicable only to US Government
 contracts under FAR:
  
                    RESTRICTED RIGHTS LEGEND
  
 Use, reproduction and disclosure by the US Government is
 subject to restrictions as set forth in subparagraphs (a)
 and (c) of the Commercial Computer Software - Restricted
 Rights clause in FAR 52.227-19.
  
 Gaussian, Inc.
 340 Quinnipiac St., Bldg. 40, Wallingford CT 06492
  
  
 ---------------------------------------------------------------
 Warning -- This program may not be used in any manner that
 competes with the business of Gaussian, Inc. or will provide
 assistance to any competitor of Gaussian, Inc.  The licensee
 of this program is prohibited from giving any competitor of
 Gaussian, Inc. access to this program.  By using this program,
 the user acknowledges that Gaussian, Inc. is engaged in the
 business of creating and licensing software in the field of
 computational chemistry and represents and warrants to the
 licensee that it is not a competitor of Gaussian, Inc. and that
 it will not use this program in any manner prohibited above.
 ---------------------------------------------------------------
  

 Cite this work as:
 Gaussian 03, Revision E.01,
 M. J. Frisch, G. W. Trucks, H. B. Schlegel, G. E. Scuseria, 
 M. A. Robb, J. R. Cheeseman, J. A. Montgomery, Jr., T. Vreven, 
 K. N. Kudin, J. C. Burant, J. M. Millam, S. S. Iyengar, J. Tomasi, 
 V. Barone, B. Mennucci, M. Cossi, G. Scalmani, N. Rega, 
 G. A. Petersson, H. Nakatsuji, M. Hada, M. Ehara, K. Toyota, 
 R. Fukuda, J. Hasegawa, M. Ishida, T. Nakajima, Y. Honda, O. Kitao, 
 H. Nakai, M. Klene, X. Li, J. E. Knox, H. P. Hratchian, J. B. Cross, 
 V. Bakken, C. Adamo, J. Jaramillo, R. Gomperts, R. E. Stratmann, 
 O. Yazyev, A. J. Austin, R. Cammi, C. Pomelli, J. W. Ochterski, 
 P. Y. Ayala, K. Morokuma, G. A. Voth, P. Salvador, J. J. Dannenberg, 
 V. G. Zakrzewski, S. Dapprich, A. D. Daniels, M. C. Strain, 
 O. Farkas, D. K. Malick, A. D. Rabuck, K. Raghavachari, 
 J. B. Foresman, J. V. Ortiz, Q. Cui, A. G. Baboul, S. Clifford, 
 J. Cioslowski, B. B. Stefanov, G. Liu, A. Liashenko, P. Piskorz, 
 I. Komaromi, R. L. Martin, D. J. Fox, T. Keith, M. A. Al-Laham, 
 C. Y. Peng, A. Nanayakkara, M. Challacombe, P. M. W. Gill, 
 B. Johnson, W. Chen, M. W. Wong, C. Gonzalez, and J. A. Pople, 
 Gaussian, Inc., Wallingford CT, 2004.
 
 ******************************************
 Gaussian 03:  IA64L-G03RevE.01 11-Sep-2007
                25-May-2010 
 ******************************************
 %Mem=64GB
 %NprocShared=16
 Will use up to   16 processors via shared memory.
 %Chk=sucrose.chk
 ----------------------------------------------------------------------
 #p nmr=(giao,spinspin,mixed) b3lyp/cc-pvdz geom=checkpoint scf=tight i
 ntegral=(grid=ultrafine)
 ----------------------------------------------------------------------
 1/29=2,38=1/1;
 2/40=1/2;
 3/5=16,10=1100000,11=2,16=1,25=1,30=1,74=-5,75=5/1,2,8,3;
 4//1;
 5/5=2,32=2,38=5/2;
 8/6=1,10=90,11=11/1;
 10/13=100,45=16,47=3/2;
 6/7=2,8=2,9=2,10=2,28=1/1;
 99/9=1/99;
 Leave Link    1 at Tue May 25 12:16:29 2010, MaxMem= 8589934592 cpu:       4.4
 (Enter /home/system/software/orac/g03_E.01/g03/l101.exe)
 -----------------------
 Sucrose NMR properties.
 -----------------------
 Redundant internal coordinates taken from checkpoint file:
 sucrose.chk
 Charge =  0 Multiplicity = 1
 C,0,-0.1540004597,0.9834221064,-0.6471401948
 C,0,-0.5118793475,1.20858709,-2.1213157186
 C,0,-0.1256715266,-0.029163177,-2.9343065299
 C,0,1.3457284431,-0.3652705381,-2.7274196794
 C,0,1.6181593002,-0.5350658377,-1.2319441528
 C,0,3.0875383018,-0.753568303,-0.8994712056
 O,0,-0.9683721266,-0.0776460687,-0.1917515663
 O,0,-1.8743766325,1.541208966,-2.3207968809
 O,0,-0.3287274292,0.1828986716,-4.3271620275
 O,0,1.707814954,-1.570208786,-3.3859887414
 O,0,1.2265095348,0.6663940495,-0.5253698162
 O,0,3.3076240895,-0.7772566853,0.5074977427
 C,0,-3.0161153627,-0.0132758584,0.9973107143
 C,0,-1.4958532387,-0.0955851849,1.1410849076
 C,0,-1.0326337317,-1.3771960303,1.8561744895
 C,0,0.2961202867,-0.9489157624,2.4672270582
 C,0,-0.0181471162,0.4951172733,2.8848435479
 C,0,1.1777629639,1.4237801475,2.9059928841
 O,0,-3.3301787827,1.0796908353,0.1405201832
 O,0,-1.0144081667,0.9625480202,1.9381871482
 O,0,-0.9779297324,-2.4805026202,0.9853655746
 O,0,0.6238731486,-1.8160318127,3.5450625984
 O,0,0.7888997744,2.6475777797,3.5043256726
 H,0,-0.309249489,1.8847381103,-0.0421362259
 H,0,0.0871987052,2.0611166495,-2.4858987333
 H,0,-0.731981974,-0.8855798931,-2.5820545517
 H,0,1.9501738558,0.4853824777,-3.1070890669
 H,0,1.0248409479,-1.3827227997,-0.8491776043
 H,0,3.6999271223,0.0331623972,-1.3835140545
 H,0,3.4064812115,-1.7256242138,-1.2998456088
 H,0,-2.3855397924,1.162708092,-1.5774052565
 H,0,-1.235706728,0.5207130825,-4.4093844321
 H,0,1.3257413076,-1.5078848617,-4.2761489588
 H,0,2.9936921189,0.0837145225,0.8242094208
 H,0,-3.4541105411,0.125302697,2.0008845645
 H,0,-3.3689202435,-0.9726845285,0.5747412391
 H,0,-1.7291547806,-1.564877471,2.7008809916
 H,0,1.0814297908,-0.9750973343,1.693868016
 H,0,-0.4735119688,0.4897123732,3.8913979881
 H,0,1.979212392,0.9200355198,3.4904014154
 H,0,1.5389916236,1.5611511071,1.8690391254
 H,0,-4.2847739981,1.2304843698,0.1711495983
 H,0,-0.599535387,-3.2125658083,1.4968853441
 H,0,1.586158949,-1.8208953314,3.6437855652
 H,0,1.512012054,3.2798062484,3.3922808965
 Recover connectivity data from disk.
                    Isotopes and Nuclear Properties:
 (Nuclear quadrupole moments (NQMom) in fm**2, nuclear magnetic moments (NMagM)
  in nuclear magnetons)

  Atom         1           2           3           4           5           6           7           8           9          10
 IAtWgt=          12          12          12          12          12          12          16          16          16          16
 AtmWgt=  12.0000000  12.0000000  12.0000000  12.0000000  12.0000000  12.0000000  15.9949146  15.9949146  15.9949146  15.9949146
 NucSpn=           0           0           0           0           0           0           0           0           0           0
 AtZEff=  -3.6000000  -3.6000000  -3.6000000  -3.6000000  -3.6000000  -3.6000000  -5.6000000  -5.6000000  -5.6000000  -5.6000000
 NQMom=    0.0000000   0.0000000   0.0000000   0.0000000   0.0000000   0.0000000   0.0000000   0.0000000   0.0000000   0.0000000
 NMagM=    0.0000000   0.0000000   0.0000000   0.0000000   0.0000000   0.0000000   0.0000000   0.0000000   0.0000000   0.0000000

  Atom        11          12          13          14          15          16          17          18          19          20
 IAtWgt=          16          16          12          12          12          12          12          12          16          16
 AtmWgt=  15.9949146  15.9949146  12.0000000  12.0000000  12.0000000  12.0000000  12.0000000  12.0000000  15.9949146  15.9949146
 NucSpn=           0           0           0           0           0           0           0           0           0           0
 AtZEff=  -5.6000000  -5.6000000  -3.6000000  -3.6000000  -3.6000000  -3.6000000  -3.6000000  -3.6000000  -5.6000000  -5.6000000
 NQMom=    0.0000000   0.0000000   0.0000000   0.0000000   0.0000000   0.0000000   0.0000000   0.0000000   0.0000000   0.0000000
 NMagM=    0.0000000   0.0000000   0.0000000   0.0000000   0.0000000   0.0000000   0.0000000   0.0000000   0.0000000   0.0000000

  Atom        21          22          23          24          25          26          27          28          29          30
 IAtWgt=          16          16          16           1           1           1           1           1           1           1
 AtmWgt=  15.9949146  15.9949146  15.9949146   1.0078250   1.0078250   1.0078250   1.0078250   1.0078250   1.0078250   1.0078250
 NucSpn=           0           0           0           1           1           1           1           1           1           1
 AtZEff=  -5.6000000  -5.6000000  -5.6000000  -1.0000000  -1.0000000  -1.0000000  -1.0000000  -1.0000000  -1.0000000  -1.0000000
 NQMom=    0.0000000   0.0000000   0.0000000   0.0000000   0.0000000   0.0000000   0.0000000   0.0000000   0.0000000   0.0000000
 NMagM=    0.0000000   0.0000000   0.0000000   2.7928460   2.7928460   2.7928460   2.7928460   2.7928460   2.7928460   2.7928460

  Atom        31          32          33          34          35          36          37          38          39          40
 IAtWgt=           1           1           1           1           1           1           1           1           1           1
 AtmWgt=   1.0078250   1.0078250   1.0078250   1.0078250   1.0078250   1.0078250   1.0078250   1.0078250   1.0078250   1.0078250
 NucSpn=           1           1           1           1           1           1           1           1           1           1
 AtZEff=  -1.0000000  -1.0000000  -1.0000000  -1.0000000  -1.0000000  -1.0000000  -1.0000000  -1.0000000  -1.0000000  -1.0000000
 NQMom=    0.0000000   0.0000000   0.0000000   0.0000000   0.0000000   0.0000000   0.0000000   0.0000000   0.0000000   0.0000000
 NMagM=    2.7928460   2.7928460   2.7928460   2.7928460   2.7928460   2.7928460   2.7928460   2.7928460   2.7928460   2.7928460

  Atom        41          42          43          44          45
 IAtWgt=           1           1           1           1           1
 AtmWgt=   1.0078250   1.0078250   1.0078250   1.0078250   1.0078250
 NucSpn=           1           1           1           1           1
 AtZEff=  -1.0000000  -1.0000000  -1.0000000  -1.0000000  -1.0000000
 NQMom=    0.0000000   0.0000000   0.0000000   0.0000000   0.0000000
 NMagM=    2.7928460   2.7928460   2.7928460   2.7928460   2.7928460
 Leave Link  101 at Tue May 25 12:16:29 2010, MaxMem= 8589934592 cpu:       1.1
 (Enter /home/system/software/orac/g03_E.01/g03/l202.exe)
                          Input orientation:                          
 ---------------------------------------------------------------------
 Center     Atomic     Atomic              Coordinates (Angstroms)
 Number     Number      Type              X           Y           Z
 ---------------------------------------------------------------------
    1          6             0       -0.154000    0.983422   -0.647140
    2          6             0       -0.511879    1.208587   -2.121316
    3          6             0       -0.125672   -0.029163   -2.934307
    4          6             0        1.345728   -0.365271   -2.727420
    5          6             0        1.618159   -0.535066   -1.231944
    6          6             0        3.087538   -0.753568   -0.899471
    7          8             0       -0.968372   -0.077646   -0.191752
    8          8             0       -1.874377    1.541209   -2.320797
    9          8             0       -0.328727    0.182899   -4.327162
   10          8             0        1.707815   -1.570209   -3.385989
   11          8             0        1.226510    0.666394   -0.525370
   12          8             0        3.307624   -0.777257    0.507498
   13          6             0       -3.016115   -0.013276    0.997311
   14          6             0       -1.495853   -0.095585    1.141085
   15          6             0       -1.032634   -1.377196    1.856174
   16          6             0        0.296120   -0.948916    2.467227
   17          6             0       -0.018147    0.495117    2.884844
   18          6             0        1.177763    1.423780    2.905993
   19          8             0       -3.330179    1.079691    0.140520
   20          8             0       -1.014408    0.962548    1.938187
   21          8             0       -0.977930   -2.480503    0.985366
   22          8             0        0.623873   -1.816032    3.545063
   23          8             0        0.788900    2.647578    3.504326
   24          1             0       -0.309249    1.884738   -0.042136
   25          1             0        0.087199    2.061117   -2.485899
   26          1             0       -0.731982   -0.885580   -2.582055
   27          1             0        1.950174    0.485382   -3.107089
   28          1             0        1.024841   -1.382723   -0.849178
   29          1             0        3.699927    0.033162   -1.383514
   30          1             0        3.406481   -1.725624   -1.299846
   31          1             0       -2.385540    1.162708   -1.577405
   32          1             0       -1.235707    0.520713   -4.409384
   33          1             0        1.325741   -1.507885   -4.276149
   34          1             0        2.993692    0.083715    0.824209
   35          1             0       -3.454111    0.125303    2.000885
   36          1             0       -3.368920   -0.972685    0.574741
   37          1             0       -1.729155   -1.564877    2.700881
   38          1             0        1.081430   -0.975097    1.693868
   39          1             0       -0.473512    0.489712    3.891398
   40          1             0        1.979212    0.920036    3.490401
   41          1             0        1.538992    1.561151    1.869039
   42          1             0       -4.284774    1.230484    0.171150
   43          1             0       -0.599535   -3.212566    1.496885
   44          1             0        1.586159   -1.820895    3.643786
   45          1             0        1.512012    3.279806    3.392281
 ---------------------------------------------------------------------
                    Distance matrix (angstroms):
                    1          2          3          4          5
     1  C    0.000000
     2  C    1.533613   0.000000
     3  C    2.501452   1.530404   0.000000
     4  C    2.897537   2.509003   1.523413   0.000000
     5  C    2.405899   2.892814   2.488960   1.529541   0.000000
     6  C    3.686242   4.277706   3.871697   2.554618   1.522287
     7  O    1.412956   2.363472   2.869513   3.444910   2.825133
     8  O    2.464132   1.416626   2.429081   3.764184   4.206462
     9  O    3.770136   2.439537   1.423464   2.379804   3.726421
    10  O    4.181947   3.774672   2.437316   1.420104   2.391541
    11  O    1.421669   2.421366   2.848714   2.434660   1.447806
    12  O    4.051669   5.044090   4.918656   3.805714   2.436925
    13  C    3.448090   4.182102   4.879809   5.746581   5.168979
    14  C    2.482453   3.648606   4.300073   4.807561   3.939731
    15  C    3.551211   4.772619   5.058506   5.262123   4.156003
    16  C    3.692671   5.134433   5.495491   5.331667   3.950054
    17  C    3.568166   5.080791   5.843709   5.839343   4.548265
    18  C    3.819982   5.308016   6.157847   5.913058   4.599299
    19  O    3.273803   3.615982   4.577443   5.672486   5.383043
    20  O    2.724822   4.097882   5.051192   5.394556   4.384403
    21  O    3.916977   4.845416   4.700983   4.863987   3.929487
    22  O    5.100646   6.522737   6.762909   6.478412   5.044727
    23  O    4.570902   5.950677   7.032593   6.944204   5.766207
    24  H    1.096587   2.195729   3.472948   3.874563   3.314513
    25  H    2.144909   1.103912   2.148407   2.744009   3.264415
    26  H    2.751568   2.155519   1.106862   2.146796   2.732915
    27  H    3.275201   2.748905   2.145634   1.110457   2.160490
    28  H    2.651250   3.270280   2.739264   2.160086   1.103204
    29  H    4.037078   4.434556   4.128444   2.739906   2.163242
    30  H    4.521281   4.963664   4.245650   2.852233   2.149450
    31  H    2.424315   1.951550   2.892878   4.192805   4.362498
    32  H    3.941912   2.496469   1.926239   3.205898   4.399471
    33  H    4.643915   3.924204   2.468554   1.924715   3.209216
    34  H    3.589194   4.714922   4.885654   3.940995   2.550048
    35  H    4.317306   5.179070   5.954702   6.755441   6.051049
    36  H    3.956647   4.493256   4.870556   5.788016   5.322273
    37  H    4.492682   5.694510   6.056807   6.352984   5.266131
    38  H    3.292781   4.675761   4.875642   4.470965   3.007006
    39  H    4.576480   6.055657   6.854230   6.917325   5.627956
    40  H    4.655520   6.146558   6.827034   6.380800   4.954617
    41  H    3.087256   4.500367   5.326569   4.987573   3.743860
    42  H    4.218285   4.414817   5.341227   6.530750   6.319055
    43  H    4.733039   5.713638   5.476683   5.453063   4.419693
    44  H    5.413353   6.842216   7.029364   6.539794   5.042531
    45  H    4.936183   6.227827   7.325093   7.124954   5.995663
                    6          7          8          9         10
     6  C    0.000000
     7  O    4.172307   0.000000
     8  O    5.648608   2.823893   0.000000
     9  O    4.929189   4.192690   2.873941   0.000000
    10  O    2.958599   4.426384   4.862885   2.847226   0.000000
    11  O    2.370585   2.341453   3.688408   4.135959   3.662948
    12  O    1.424275   4.388912   6.342528   6.125266   4.283386
    13  C    6.434314   2.368811   3.837946   5.967457   6.629696
    14  C    5.060068   1.433531   3.847987   5.598344   5.738676
    15  C    4.995829   2.426306   5.164563   6.415842   5.918411
    16  C    4.377766   3.070541   5.816954   6.916297   6.053018
    17  C    5.052280   3.270539   5.624819   7.225439   6.824064
    18  C    4.782222   4.056624   6.053815   7.491851   6.988130
    19  O    6.754962   2.651031   2.896626   5.456476   6.696239
    20  O    5.274782   2.370815   4.383302   6.350796   6.494013
    21  O    4.802389   2.675708   5.282849   5.978137   5.210624
    22  O    5.191566   4.418259   7.205597   8.177719   7.019603
    23  O    6.020379   4.916893   6.499934   8.285888   8.130840
    24  H    4.385641   2.075519   2.785665   4.610649   5.214073
    25  H    4.409222   3.309327   2.036011   2.662883   4.077142
    26  H    4.175793   2.534203   2.694926   2.085584   2.658503
    27  H    2.775279   4.163425   4.044776   2.602588   2.088535
    28  H    2.157101   2.471504   4.372700   4.047183   2.633821
    29  H    1.108270   4.819294   5.850262   4.991747   3.247955
    30  H    1.098598   4.804482   6.293012   5.172899   2.694738
    31  H    5.838347   2.338136   0.978357   3.570947   5.243602
    32  H    5.712594   4.268247   2.410707   0.971334   3.752814
    33  H    3.882638   4.898045   4.833335   2.366140   0.970696
    34  H    1.918574   4.093430   5.976073   6.130656   4.702628
    35  H    7.209553   3.320804   4.814279   7.058010   7.651055
    36  H    6.626249   2.674180   4.115515   5.882755   6.466657
    37  H    6.068055   3.340355   5.906447   7.376266   6.990191
    38  H    3.286176   2.926204   5.584454   6.291447   5.152811
    39  H    6.097479   4.151975   6.454412   8.225559   7.871583
    40  H    4.827040   4.820983   7.000431   8.184391   7.318450
    41  H    3.926904   3.635848   5.404277   6.616711   6.119578
    42  H    7.709324   3.583493   3.480857   6.081328   7.510542
    43  H    5.038224   3.579840   6.228828   6.747003   5.644791
    44  H    4.902500   4.927057   7.671721   8.439075   7.035295
    45  H    6.096682   5.501825   6.865101   8.518742   8.337021
                   11         12         13         14         15
    11  O    0.000000
    12  O    2.735321   0.000000
    13  C    4.558549   6.388526   0.000000
    14  C    3.281607   4.892801   1.529262   0.000000
    15  C    3.866748   4.584397   2.555802   1.538978   0.000000
    16  C    3.525689   3.597105   3.742590   2.387047   1.523941
    17  C    3.634290   4.281526   3.578974   2.360771   2.364931
    18  C    3.514294   3.890199   4.826677   3.545644   3.719333
    19  O    4.623595   6.902417   1.423834   2.397322   3.776040
    20  O    3.343431   4.873782   2.417501   1.409541   2.341252
    21  O    4.128539   4.636311   3.200242   2.445470   1.406622
    22  O    4.805625   4.184301   4.794839   3.637621   2.406021
    23  O    4.511656   5.201388   5.276685   4.281349   4.715208
    24  H    2.019018   4.524388   3.465549   2.594171   3.842796
    25  H    2.662133   5.233347   5.105527   4.506931   5.650630
    26  H    3.236397   5.086795   4.334747   3.881927   4.475484
    27  H    2.687328   4.062286   6.462104   5.500873   6.082789
    28  H    2.084323   2.723648   4.649111   3.460024   3.398847
    29  H    2.693546   2.094423   7.125708   5.778089   5.906084
    30  H    3.327738   2.043444   7.032696   5.713847   5.457802
    31  H    3.794734   6.365721   2.899953   3.124905   4.480060
    32  H    4.601011   6.819260   5.717285   5.590636   6.549849
    33  H    4.336552   5.229240   6.992493   6.269163   6.571484
    34  H    2.298655   0.969604   6.013082   4.504284   4.405736
    35  H    5.346302   6.983257   1.103723   2.150074   2.853418
    36  H    5.001480   6.679742   1.106120   2.144395   2.695169
    37  H    4.911539   5.549812   2.639297   2.155508   1.110808
    38  H    2.764156   2.530327   4.266166   2.778758   2.158076
    39  H    4.735940   5.230008   3.885044   2.991985   2.817818
    40  H    4.093570   3.680108   5.660377   4.315884   4.125432
    41  H    2.575156   3.232647   4.897727   3.533409   3.904780
    42  H    5.583689   7.860577   1.959331   3.236868   4.496190
    43  H    4.740283   4.709088   4.040407   3.262752   1.919699
    44  H    4.868040   3.726785   5.608230   4.328857   3.201640
    45  H    4.717989   5.292065   6.089681   5.050585   5.524719
                   16         17         18         19         20
    16  C    0.000000
    17  C    1.535708   0.000000
    18  C    2.568948   1.514286   0.000000
    19  O    4.762232   4.340805   5.299790   0.000000
    20  O    2.377196   1.451615   2.440286   2.933960   0.000000
    21  O    2.482917   3.658348   4.855846   4.349921   3.572646
    22  O    1.421633   2.487868   3.348371   5.967466   3.603681
    23  O    3.775337   2.380792   1.416650   5.544390   2.923018
    24  H    3.833141   3.253152   3.333940   3.131689   2.295510
    25  H    5.799776   5.595384   5.537872   4.420378   4.689662
    26  H    5.153276   5.683560   6.252914   4.245625   4.891618
    27  H    5.988832   6.306952   6.134685   6.227543   5.871222
    28  H    3.423122   4.307786   4.690538   5.099920   4.174714
    29  H    5.232455   5.679468   5.166720   7.269133   5.841439
    30  H    4.946560   5.845630   5.707452   7.438214   6.103719
    31  H    5.292382   5.095281   5.732900   1.962270   3.778817
    32  H    7.196811   7.395192   7.755973   5.039931   6.366778
    33  H    6.844391   7.556313   7.758848   6.919545   7.085006
    34  H    3.323060   3.672416   3.070374   6.438225   4.251842
    35  H    3.928823   3.567070   4.894846   2.094558   2.580128
    36  H    4.124874   4.326511   5.643590   2.098164   3.338838
    37  H    2.129728   2.684207   4.174244   4.014034   2.735040
    38  H    1.102488   2.188384   2.689450   5.108555   2.864734
    39  H    2.165698   1.104780   2.137806   4.751600   2.081147
    40  H    2.715265   2.129953   1.112481   6.279875   3.372379
    41  H    2.864087   2.143121   1.106630   5.189258   2.623539
    42  H    5.568334   5.109697   6.111959   0.966917   3.726863
    43  H    2.620663   4.001419   5.161403   5.264941   4.218820
    44  H    1.951624   2.917825   3.352468   6.697510   4.173676
    45  H    4.496244   3.217666   1.947571   6.233881   3.723825
                   21         22         23         24         25
    21  O    0.000000
    22  O    3.091819   0.000000
    23  O    5.980306   4.466845   0.000000
    24  H    4.534117   5.237787   3.790151   0.000000
    25  H    5.814678   7.189770   6.059629   2.481986   0.000000
    26  H    3.915451   6.343946   7.200021   3.782136   3.059955
    27  H    5.841100   7.162870   7.052266   4.056738   2.517835
    28  H    2.929464   4.433721   5.937338   3.620416   3.926584
    29  H    5.814847   6.096925   6.261008   4.615314   4.287150
    30  H    5.001509   5.587863   7.004048   5.331342   5.173371
    31  H    4.671418   6.645986   6.172997   2.681298   2.783331
    32  H    6.178760   8.496566   8.440936   4.668163   2.796912
    33  H    5.825497   7.858685   8.836960   5.666564   4.180521
    34  H    4.730218   4.077759   4.314803   3.860526   4.828523
    35  H    3.735368   4.773177   5.159975   4.142427   6.034855
    36  H    2.856390   5.047419   6.243095   4.231665   5.524149
    37  H    2.084635   2.512461   4.973017   4.630348   6.584046
    38  H    2.647486   2.084095   4.060432   3.623032   5.260945
    39  H    4.185886   2.576948   2.529801   4.176813   6.591936
    40  H    5.155924   3.053849   2.097961   4.318163   6.371652
    41  H    4.842596   3.879673   2.101695   2.678301   4.617700
    42  H    5.036824   6.690244   6.233810   4.034642   5.183049
    43  H    0.969923   2.764429   6.348138   5.332482   6.644238
    44  H    3.751910   0.967349   4.541181   5.559704   7.408774
    45  H    6.721176   5.174910   0.967036   4.130185   6.169951
                   26         27         28         29         30
    26  H    0.000000
    27  H    3.057639   0.000000
    28  H    2.517229   3.073145   0.000000
    29  H    4.682137   2.497369   3.073489   0.000000
    30  H    4.413231   3.205544   2.448039   1.785061   0.000000
    31  H    2.817633   4.647270   4.317433   6.192445   6.478195
    32  H    2.360198   3.441955   4.626901   5.809826   6.022057
    33  H    2.737050   2.393686   3.442432   4.047088   3.638031
    34  H    5.140313   4.087221   2.971033   2.318484   2.820587
    35  H    5.425422   7.444954   5.518877   7.914727   7.835079
    36  H    4.114169   6.631334   4.636897   7.403722   7.070153
    37  H    5.418967   7.174506   4.496731   6.979323   6.512020
    38  H    4.645427   5.092829   2.576129   4.164540   3.864127
    39  H    6.622977   7.406287   5.312639   6.741716   6.849166
    40  H    6.890976   6.611857   5.004545   5.244278   5.655358
    41  H    5.563816   5.107661   4.039733   4.193268   4.932772
    42  H    4.967916   7.083544   6.005159   8.222287   8.370054
    43  H    4.697888   6.432140   3.389828   6.108750   5.106943
    44  H    6.708925   7.143230   4.549043   5.760146   5.268979
    45  H    7.620934   7.088201   6.321905   6.175426   7.117542
                   31         32         33         34         35
    31  H    0.000000
    32  H    3.123200   0.000000
    33  H    5.309321   3.270165   0.000000
    34  H    5.989000   6.743092   5.597223   0.000000
    35  H    3.875850   6.794793   8.057012   6.554422   0.000000
    36  H    3.187267   5.623375   6.771811   6.454537   1.801865
    37  H    5.116082   7.426241   7.616731   5.342755   2.514394
    38  H    5.224109   6.697482   5.998721   2.352474   4.677207
    39  H    5.832374   8.335760   8.598635   4.646933   3.548352
    40  H    6.692729   8.538254   8.163402   2.972740   5.689575
    41  H    5.238195   6.942627   6.872248   2.321776   5.197125
    42  H    2.582466   5.548142   7.665182   7.397137   2.293329
    43  H    5.637739   7.016132   6.319854   4.922321   4.420857
    44  H    7.206741   8.848706   7.930394   3.682214   5.647223
    45  H    6.661141   8.719434   9.042207   4.359515   6.045598
                   36         37         38         39         40
    36  H    0.000000
    37  H    2.749544   0.000000
    38  H    4.588907   3.043239   0.000000
    39  H    4.639203   2.686133   3.064743   0.000000
    40  H    6.378557   4.533224   2.761354   2.522267   0.000000
    41  H    5.673018   4.598347   2.583138   3.047636   1.798232
    42  H    2.419840   4.554644   5.998284   5.377240   7.095868
    43  H    3.679254   2.332493   2.805479   4.410945   5.263311
    44  H    5.889932   3.456287   2.184560   3.105232   2.773215
    45  H    7.060149   5.869766   4.601545   3.460643   2.407576
                   41         42         43         44         45
    41  H    0.000000
    42  H    6.075230   0.000000
    43  H    5.244060   5.922774   0.000000
    44  H    3.819710   7.472481   3.364994   0.000000
    45  H    2.296687   6.941047   7.085341   5.107437   0.000000
 Stoichiometry    C12H22O11
 Framework group  C1[X(C12H22O11)]
 Deg. of freedom   129
 Full point group                 C1
 Largest Abelian subgroup         C1      NOp   1
 Largest concise Abelian subgroup C1      NOp   1
                         Standard orientation:                         
 ---------------------------------------------------------------------
 Center     Atomic     Atomic              Coordinates (Angstroms)
 Number     Number      Type              X           Y           Z
 ---------------------------------------------------------------------
    1          6             0       -0.654528    0.511718   -0.891463
    2          6             0       -2.076884    1.068270   -1.029747
    3          6             0       -2.976447    0.438474    0.036217
    4          6             0       -2.924704   -1.081470   -0.052551
    5          6             0       -1.470643   -1.543203    0.057015
    6          6             0       -1.288633   -3.041403   -0.142046
    7          8             0       -0.171262    0.946646    0.363024
    8          8             0       -2.131719    2.482496   -0.968195
    9          8             0       -4.333153    0.835155   -0.131835
   10          8             0       -3.666962   -1.695023    0.991145
   11          8             0       -0.677997   -0.907344   -0.974265
   12          8             0        0.088787   -3.403309   -0.159292
   13          6             0        1.207898    2.797157    0.896683
   14          6             0        1.203418    1.307792    0.549675
   15          6             0        1.814376    0.434585    1.659941
   16          6             0        2.315212   -0.777852    0.884340
   17          6             0        2.823830   -0.118472   -0.405980
   18          6             0        2.772573   -1.003767   -1.633452
   19          8             0        0.433599    3.489997   -0.076834
   20          8             0        1.997178    1.060712   -0.588616
   21          8             0        0.894594    0.164748    2.689395
   22          8             0        3.317993   -1.443633    1.640783
   23          8             0        3.458287   -0.353177   -2.688642
   24          1             0        0.001525    0.848695   -1.702969
   25          1             0       -2.458645    0.771431   -2.022102
   26          1             0       -2.606436    0.742408    1.034144
   27          1             0       -3.322060   -1.382401   -1.044853
   28          1             0       -1.071128   -1.252381    1.043357
   29          1             0       -1.793357   -3.356962   -1.076893
   30          1             0       -1.759776   -3.575504    0.694421
   31          1             0       -1.360676    2.788401   -0.449450
   32          1             0       -4.314242    1.803786   -0.201738
   33          1             0       -4.513368   -1.221000    1.025042
   34          1             0        0.471362   -2.896314   -0.891908
   35          1             0        2.253534    3.150444    0.902814
   36          1             0        0.778799    2.910276    1.909885
   37          1             0        2.712117    0.960196    2.049415
   38          1             0        1.470617   -1.455197    0.676150
   39          1             0        3.867738    0.210970   -0.256775
   40          1             0        3.255790   -1.969685   -1.366773
   41          1             0        1.713146   -1.203416   -1.883223
   42          1             0        0.561021    4.440335    0.047865
   43          1             0        1.335303   -0.453325    3.293143
   44          1             0        3.324912   -2.373995    1.375940
   45          1             0        3.306254   -0.855892   -3.500629
 ---------------------------------------------------------------------
 Rotational constants (GHZ):      0.3313635      0.2180787      0.1771345
 Leave Link  202 at Tue May 25 12:16:30 2010, MaxMem= 8589934592 cpu:       0.9
 (Enter /home/system/software/orac/g03_E.01/g03/l301.exe)
 Standard basis: CC-pVDZ (5D, 7F)
 Converting basis for Fermi contact spin-spin IFCMod=1.
 AO basis functions are being uncontracted.
 There are  1024 symmetry adapted basis functions of A   symmetry.
 Integral buffers will be    131072 words long.
 Raffenetti 2 integral format.
 Two-electron integral symmetry is turned on.
  1024 basis functions,  1047 primitive gaussians,  1047 cartesian basis functions
    91 alpha electrons       91 beta electrons
       nuclear repulsion energy      2424.8123114655 Hartrees.
 IExCor= 402 DFT=T Ex=B+HF Corr=LYP ExCW=0 ScaHFX=  0.200000
 ScaDFX=  0.800000  0.720000  1.000000  0.810000
 IRadAn=      5 IRanWt=     -1 IRanGd=            0 ICorTp=0
 NAtoms=   45 NActive=   45 NUniq=   45 SFac= 7.50D-01 NAtFMM=   80 NAOKFM=F Big=F
 Leave Link  301 at Tue May 25 12:16:30 2010, MaxMem= 8589934592 cpu:       0.9
 (Enter /home/system/software/orac/g03_E.01/g03/l302.exe)
 NPDir=0 NMtPBC=     1 NCelOv=     1 NCel=       1 NClECP=     1 NCelD=      1
         NCelK=      1 NCelE2=     1 NClLst=     1 CellRange=     0.0.
 One-electron integrals computed using PRISM.
 NBasis=  1024 RedAO= T  NBF=  1024
 NBsUse=   886 1.00D-06 NBFU=   886
 Precomputing XC quadrature grid using
 IXCGrd= 2 IRadAn=           5 IRanWt=          -1 IRanGd=           0.
 NRdTot=    3780 NPtTot=     1017976 NUsed=     1044617 NTot=     1044649
 NSgBfM=   702   702   702   702.
 Leave Link  302 at Tue May 25 12:16:34 2010, MaxMem= 8589934592 cpu:      45.2
 (Enter /home/system/software/orac/g03_E.01/g03/l308.exe)
 Leave Link  308 at Tue May 25 12:16:36 2010, MaxMem= 8589934592 cpu:       8.7
 (Enter /home/system/software/orac/g03_E.01/g03/l303.exe)
 DipDrv:  MaxL=1.
 Leave Link  303 at Tue May 25 12:16:37 2010, MaxMem= 8589934592 cpu:       6.5
 (Enter /home/system/software/orac/g03_E.01/g03/l401.exe)
 Harris functional with IExCor=  402 diagonalized for initial guess.
 ExpMin= 1.22D-01 ExpMax= 1.05D+05 ExpMxC= 1.05D+05 IAcc=4 IRadAn=    199590 AccDes= 0.00D+00
 HarFok:  IExCor= 402 AccDes= 0.00D+00 IRadAn=    199590 IDoV=1
 ScaDFX=  1.000000  1.000000  1.000000  1.000000
 Harris En= -1298.33403064811    
 Initial guess orbital symmetries:
       Occupied  (A) (A) (A) (A) (A) (A) (A) (A) (A) (A) (A) (A)
                 (A) (A) (A) (A) (A) (A) (A) (A) (A) (A) (A) (A)
                 (A) (A) (A) (A) (A) (A) (A) (A) (A) (A) (A) (A)
                 (A) (A) (A) (A) (A) (A) (A) (A) (A) (A) (A) (A)
                 (A) (A) (A) (A) (A) (A) (A) (A) (A) (A) (A) (A)
                 (A) (A) (A) (A) (A) (A) (A) (A) (A) (A) (A) (A)
                 (A) (A) (A) (A) (A) (A) (A) (A) (A) (A) (A) (A)
                 (A) (A) (A) (A) (A) (A) (A)
       Virtual   (A) (A) (A) (A) (A) (A) (A) (A) (A) (A) (A) (A)
                 (A) (A) (A) (A) (A) (A) (A) (A) (A) (A) (A) (A)
                 (A) (A) (A) (A) (A) (A) (A) (A) (A) (A) (A) (A)
                 (A) (A) (A) (A) (A) (A) (A) (A) (A) (A) (A) (A)
                 (A) (A) (A) (A) (A) (A) (A) (A) (A) (A) (A) (A)
                 (A) (A) (A) (A) (A) (A) (A) (A) (A) (A) (A) (A)
                 (A) (A) (A) (A) (A) (A) (A) (A) (A) (A) (A) (A)
                 (A) (A) (A) (A) (A) (A) (A) (A) (A) (A) (A) (A)
                 (A) (A) (A) (A) (A) (A) (A) (A) (A) (A) (A) (A)
                 (A) (A) (A) (A) (A) (A) (A) (A) (A) (A) (A) (A)
                 (A) (A) (A) (A) (A) (A) (A) (A) (A) (A) (A) (A)
                 (A) (A) (A) (A) (A) (A) (A) (A) (A) (A) (A) (A)
                 (A) (A) (A) (A) (A) (A) (A) (A) (A) (A) (A) (A)
                 (A) (A) (A) (A) (A) (A) (A) (A) (A) (A) (A) (A)
                 (A) (A) (A) (A) (A) (A) (A) (A) (A) (A) (A) (A)
                 (A) (A) (A) (A) (A) (A) (A) (A) (A) (A) (A) (A)
                 (A) (A) (A) (A) (A) (A) (A) (A) (A) (A) (A) (A)
                 (A) (A) (A) (A) (A) (A) (A) (A) (A) (A) (A) (A)
                 (A) (A) (A) (A) (A) (A) (A) (A) (A) (A) (A) (A)
                 (A) (A) (A) (A) (A) (A) (A) (A) (A) (A) (A) (A)
                 (A) (A) (A) (A) (A) (A) (A) (A) (A) (A) (A) (A)
                 (A) (A) (A) (A) (A) (A) (A) (A) (A) (A) (A) (A)
                 (A) (A) (A) (A) (A) (A) (A) (A) (A) (A) (A) (A)
                 (A) (A) (A) (A) (A) (A) (A) (A) (A) (A) (A) (A)
                 (A) (A) (A) (A) (A) (A) (A) (A) (A) (A) (A) (A)
                 (A) (A) (A) (A) (A) (A) (A) (A) (A) (A) (A) (A)
                 (A) (A) (A) (A) (A) (A) (A) (A) (A) (A) (A) (A)
                 (A) (A) (A) (A) (A) (A) (A) (A) (A) (A) (A) (A)
                 (A) (A) (A) (A) (A) (A) (A) (A) (A) (A) (A) (A)
                 (A) (A) (A) (A) (A) (A) (A) (A) (A) (A) (A) (A)
                 (A) (A) (A) (A) (A) (A) (A) (A) (A) (A) (A) (A)
                 (A) (A) (A) (A) (A) (A) (A) (A) (A) (A) (A) (A)
                 (A) (A) (A) (A) (A) (A) (A) (A) (A) (A) (A) (A)
                 (A) (A) (A) (A) (A) (A) (A) (A) (A) (A) (A) (A)
                 (A) (A) (A) (A) (A) (A) (A) (A) (A) (A) (A) (A)
                 (A) (A) (A) (A) (A) (A) (A) (A) (A) (A) (A) (A)
                 (A) (A) (A) (A) (A) (A) (A) (A) (A) (A) (A) (A)
                 (A) (A) (A) (A) (A) (A) (A) (A) (A) (A) (A) (A)
                 (A) (A) (A) (A) (A) (A) (A) (A) (A) (A) (A) (A)
                 (A) (A) (A) (A) (A) (A) (A) (A) (A) (A) (A) (A)
                 (A) (A) (A) (A) (A) (A) (A) (A) (A) (A) (A) (A)
                 (A) (A) (A) (A) (A) (A) (A) (A) (A) (A) (A) (A)
                 (A) (A) (A) (A) (A) (A) (A) (A) (A) (A) (A) (A)
                 (A) (A) (A) (A) (A) (A) (A) (A) (A) (A) (A) (A)
                 (A) (A) (A) (A) (A) (A) (A) (A) (A) (A) (A) (A)
                 (A) (A) (A) (A) (A) (A) (A) (A) (A) (A) (A) (A)
                 (A) (A) (A) (A) (A) (A) (A) (A) (A) (A) (A) (A)
                 (A) (A) (A) (A) (A) (A) (A) (A) (A) (A) (A) (A)
                 (A) (A) (A) (A) (A) (A) (A) (A) (A) (A) (A) (A)
                 (A) (A) (A) (A) (A) (A) (A) (A) (A) (A) (A) (A)
                 (A) (A) (A) (A) (A) (A) (A) (A) (A) (A) (A) (A)
                 (A) (A) (A) (A) (A) (A) (A) (A) (A) (A) (A) (A)
                 (A) (A) (A) (A) (A) (A) (A) (A) (A) (A) (A) (A)
                 (A) (A) (A) (A) (A) (A) (A) (A) (A) (A) (A) (A)
                 (A) (A) (A) (A) (A) (A) (A) (A) (A) (A) (A) (A)
                 (A) (A) (A) (A) (A) (A) (A) (A) (A) (A) (A) (A)
                 (A) (A) (A) (A) (A) (A) (A) (A) (A) (A) (A) (A)
                 (A) (A) (A) (A) (A) (A) (A) (A) (A) (A) (A) (A)
                 (A) (A) (A) (A) (A) (A) (A) (A) (A) (A) (A) (A)
                 (A) (A) (A) (A) (A) (A) (A) (A) (A) (A) (A) (A)
                 (A) (A) (A) (A) (A) (A) (A) (A) (A) (A) (A) (A)
                 (A) (A) (A) (A) (A) (A) (A) (A) (A) (A) (A) (A)
                 (A) (A) (A) (A) (A) (A) (A) (A) (A) (A) (A) (A)
                 (A) (A) (A) (A) (A) (A) (A) (A) (A) (A) (A) (A)
                 (A) (A) (A) (A) (A) (A) (A) (A) (A) (A) (A) (A)
                 (A) (A) (A) (A) (A) (A) (A) (A) (A) (A) (A) (A)
                 (A) (A) (A)
 The electronic state of the initial guess is 1-A.
 Leave Link  401 at Tue May 25 12:16:55 2010, MaxMem= 8589934592 cpu:     255.5
 (Enter /home/system/software/orac/g03_E.01/g03/l502.exe)
 Closed shell SCF:
 Requested convergence on RMS density matrix=1.00D-08 within 128 cycles.
 Requested convergence on MAX density matrix=1.00D-06.
 Requested convergence on             energy=1.00D-06.
 No special actions if energy rises.
 Using DIIS extrapolation, IDIIS=  1040.
 Integral symmetry usage will be decided dynamically.
      1044616 words used for storage of precomputed grid.
 IEnd=   4922784 IEndB=   4922784 NGot=8589934592 MDV=8586125705
 LenX=8586125705
 Fock matrices will be formed incrementally for  20 cycles.
 Integral accuracy reduced to 1.0D-05 until final iterations.

 Cycle   1  Pass 0  IDiag  1:
 Petite list used in FoFDir.
 MinBra= 0 MaxBra= 2 Meth= 1.
 IRaf=       0 NMat=   1 IRICut=       1 DoRegI=T DoRafI=F ISym2E= 1 JSym2E=1.
 E= -1297.48649192052    
 DIIS: error= 2.30D-02 at cycle   1 NSaved=   1.
 NSaved= 1 IEnMin= 1 EnMin= -1297.48649192052     IErMin= 1 ErrMin= 2.30D-02
 ErrMax= 2.30D-02 EMaxC= 1.00D-01 BMatC= 1.05D+00 BMatP= 1.05D+00
 IDIUse=3 WtCom= 7.70D-01 WtEn= 2.30D-01
 Coeff-Com:  0.100D+01
 Coeff-En:   0.100D+01
 Coeff:      0.100D+01
 Gap=     0.283 Goal=   None    Shift=    0.000
 GapD=    0.283 DampG=1.000 DampE=0.500 DampFc=0.5000 IDamp=-1.
 Damping current iteration by 5.00D-01
 RMSDP=2.09D-03 MaxDP=2.26D-01              OVMax= 1.44D-01

 Cycle   2  Pass 0  IDiag  1:
 RMSU=  1.05D-03    CP:  1.01D+00
 E= -1297.73297754914     Delta-E=       -0.246485628621 Rises=F Damp=T
 DIIS: error= 1.07D-02 at cycle   2 NSaved=   2.
 NSaved= 2 IEnMin= 2 EnMin= -1297.73297754914     IErMin= 2 ErrMin= 1.07D-02
 ErrMax= 1.07D-02 EMaxC= 1.00D-01 BMatC= 8.89D-02 BMatP= 1.05D+00
 IDIUse=3 WtCom= 8.93D-01 WtEn= 1.07D-01
 Coeff-Com:  0.839D-01 0.916D+00
 Coeff-En:   0.209D+00 0.791D+00
 Coeff:      0.973D-01 0.903D+00
 Gap=     0.278 Goal=   None    Shift=    0.000
 RMSDP=4.20D-04 MaxDP=4.33D-02 DE=-2.46D-01 OVMax= 9.96D-02

 Cycle   3  Pass 0  IDiag  1:
 RMSU=  3.03D-04    CP:  1.01D+00  7.23D-01
 E= -1298.08617221440     Delta-E=       -0.353194665256 Rises=F Damp=F
 DIIS: error= 5.29D-03 at cycle   3 NSaved=   3.
 NSaved= 3 IEnMin= 3 EnMin= -1298.08617221440     IErMin= 3 ErrMin= 5.29D-03
 ErrMax= 5.29D-03 EMaxC= 1.00D-01 BMatC= 3.40D-02 BMatP= 8.89D-02
 IDIUse=3 WtCom= 9.47D-01 WtEn= 5.29D-02
 Coeff-Com: -0.474D-01 0.347D+00 0.701D+00
 Coeff-En:   0.000D+00 0.000D+00 0.100D+01
 Coeff:     -0.449D-01 0.328D+00 0.716D+00
 Gap=     0.282 Goal=   None    Shift=    0.000
 RMSDP=2.20D-04 MaxDP=1.72D-02 DE=-3.53D-01 OVMax= 2.15D-02

 Cycle   4  Pass 0  IDiag  1:
 RMSU=  1.49D-04    CP:  1.01D+00  8.04D-01  5.51D-01
 E= -1298.10185903664     Delta-E=       -0.015686822246 Rises=F Damp=F
 DIIS: error= 2.44D-03 at cycle   4 NSaved=   4.
 NSaved= 4 IEnMin= 4 EnMin= -1298.10185903664     IErMin= 4 ErrMin= 2.44D-03
 ErrMax= 2.44D-03 EMaxC= 1.00D-01 BMatC= 1.06D-02 BMatP= 3.40D-02
 IDIUse=3 WtCom= 9.76D-01 WtEn= 2.44D-02
 Coeff-Com: -0.295D-01 0.915D-01 0.413D+00 0.525D+00
 Coeff-En:   0.000D+00 0.000D+00 0.278D+00 0.722D+00
 Coeff:     -0.288D-01 0.893D-01 0.409D+00 0.530D+00
 Gap=     0.272 Goal=   None    Shift=    0.000
 RMSDP=1.02D-04 MaxDP=6.90D-03 DE=-1.57D-02 OVMax= 9.68D-03

 Cycle   5  Pass 0  IDiag  1:
 RMSU=  3.17D-05    CP:  1.01D+00  7.96D-01  7.14D-01  4.50D-01
 E= -1298.11084559638     Delta-E=       -0.008986559741 Rises=F Damp=F
 DIIS: error= 2.40D-04 at cycle   5 NSaved=   5.
 NSaved= 5 IEnMin= 5 EnMin= -1298.11084559638     IErMin= 5 ErrMin= 2.40D-04
 ErrMax= 2.40D-04 EMaxC= 1.00D-01 BMatC= 1.93D-04 BMatP= 1.06D-02
 IDIUse=3 WtCom= 9.98D-01 WtEn= 2.40D-03
 Coeff-Com: -0.902D-02 0.184D-01 0.130D+00 0.209D+00 0.651D+00
 Coeff-En:   0.000D+00 0.000D+00 0.000D+00 0.000D+00 0.100D+01
 Coeff:     -0.900D-02 0.184D-01 0.130D+00 0.209D+00 0.652D+00
 Gap=     0.272 Goal=   None    Shift=    0.000
 RMSDP=1.60D-05 MaxDP=1.36D-03 DE=-8.99D-03 OVMax= 2.21D-03

 Cycle   6  Pass 0  IDiag  1:
 RMSU=  1.04D-05    CP:  1.01D+00  7.97D-01  7.14D-01  4.98D-01  6.89D-01
 E= -1298.11095149670     Delta-E=       -0.000105900317 Rises=F Damp=F
 DIIS: error= 1.83D-04 at cycle   6 NSaved=   6.
 NSaved= 6 IEnMin= 6 EnMin= -1298.11095149670     IErMin= 6 ErrMin= 1.83D-04
 ErrMax= 1.83D-04 EMaxC= 1.00D-01 BMatC= 4.77D-05 BMatP= 1.93D-04
 IDIUse=3 WtCom= 9.98D-01 WtEn= 1.83D-03
 Coeff-Com: -0.385D-02 0.599D-02 0.570D-01 0.984D-01 0.399D+00 0.444D+00
 Coeff-En:   0.000D+00 0.000D+00 0.000D+00 0.000D+00 0.149D+00 0.851D+00
 Coeff:     -0.385D-02 0.598D-02 0.569D-01 0.982D-01 0.398D+00 0.444D+00
 Gap=     0.272 Goal=   None    Shift=    0.000
 RMSDP=5.71D-06 MaxDP=6.40D-04 DE=-1.06D-04 OVMax= 9.19D-04

 Initial convergence to 1.0D-05 achieved.  Increase integral accuracy.
 Cycle   7  Pass 1  IDiag  1:
 E= -1298.11100768320     Delta-E=       -0.000056186502 Rises=F Damp=F
 DIIS: error= 2.42D-05 at cycle   1 NSaved=   1.
 NSaved= 1 IEnMin= 1 EnMin= -1298.11100768320     IErMin= 1 ErrMin= 2.42D-05
 ErrMax= 2.42D-05 EMaxC= 1.00D-01 BMatC= 1.02D-06 BMatP= 1.02D-06
 IDIUse=1 WtCom= 1.00D+00 WtEn= 0.00D+00
 Coeff-Com:  0.100D+01
 Coeff:      0.100D+01
 Gap=     0.272 Goal=   None    Shift=    0.000
 RMSDP=5.71D-06 MaxDP=6.40D-04 DE=-5.62D-05 OVMax= 3.02D-04

 Cycle   8  Pass 1  IDiag  1:
 RMSU=  3.35D-06    CP:  1.00D+00
 E= -1298.11100679449     Delta-E=        0.000000888716 Rises=F Damp=F
 DIIS: error= 4.10D-05 at cycle   2 NSaved=   2.
 NSaved= 2 IEnMin= 1 EnMin= -1298.11100768320     IErMin= 1 ErrMin= 2.42D-05
 ErrMax= 4.10D-05 EMaxC= 1.00D-01 BMatC= 2.40D-06 BMatP= 1.02D-06
 IDIUse=1 WtCom= 1.00D+00 WtEn= 0.00D+00
 Coeff-Com:  0.611D+00 0.389D+00
 Coeff:      0.611D+00 0.389D+00
 Gap=     0.272 Goal=   None    Shift=    0.000
 RMSDP=1.29D-06 MaxDP=1.40D-04 DE= 8.89D-07 OVMax= 2.04D-04

 Cycle   9  Pass 1  IDiag  1:
 RMSU=  1.07D-06    CP:  1.00D+00  7.86D-01
 E= -1298.11100843322     Delta-E=       -0.000001638733 Rises=F Damp=F
 DIIS: error= 4.32D-06 at cycle   3 NSaved=   3.
 NSaved= 3 IEnMin= 3 EnMin= -1298.11100843322     IErMin= 3 ErrMin= 4.32D-06
 ErrMax= 4.32D-06 EMaxC= 1.00D-01 BMatC= 4.08D-08 BMatP= 1.02D-06
 IDIUse=1 WtCom= 1.00D+00 WtEn= 0.00D+00
 Coeff-Com:  0.183D+00 0.163D+00 0.654D+00
 Coeff:      0.183D+00 0.163D+00 0.654D+00
 Gap=     0.272 Goal=   None    Shift=    0.000
 RMSDP=2.19D-07 MaxDP=2.04D-05 DE=-1.64D-06 OVMax= 3.49D-05

 Cycle  10  Pass 1  IDiag  1:
 RMSU=  2.03D-07    CP:  1.00D+00  7.96D-01  9.32D-01
 E= -1298.11100845676     Delta-E=       -0.000000023541 Rises=F Damp=F
 DIIS: error= 1.61D-06 at cycle   4 NSaved=   4.
 NSaved= 4 IEnMin= 4 EnMin= -1298.11100845676     IErMin= 4 ErrMin= 1.61D-06
 ErrMax= 1.61D-06 EMaxC= 1.00D-01 BMatC= 6.48D-09 BMatP= 4.08D-08
 IDIUse=1 WtCom= 1.00D+00 WtEn= 0.00D+00
 Coeff-Com:  0.270D-01 0.406D-01 0.331D+00 0.602D+00
 Coeff:      0.270D-01 0.406D-01 0.331D+00 0.602D+00
 Gap=     0.272 Goal=   None    Shift=    0.000
 RMSDP=8.67D-08 MaxDP=6.51D-06 DE=-2.35D-08 OVMax= 1.32D-05

 Cycle  11  Pass 1  IDiag  1:
 RMSU=  5.64D-08    CP:  1.00D+00  7.99D-01  9.46D-01  6.92D-01
 E= -1298.11100846124     Delta-E=       -0.000000004475 Rises=F Damp=F
 DIIS: error= 6.75D-07 at cycle   5 NSaved=   5.
 NSaved= 5 IEnMin= 5 EnMin= -1298.11100846124     IErMin= 5 ErrMin= 6.75D-07
 ErrMax= 6.75D-07 EMaxC= 1.00D-01 BMatC= 7.71D-10 BMatP= 6.48D-09
 IDIUse=1 WtCom= 1.00D+00 WtEn= 0.00D+00
 Coeff-Com: -0.142D-02 0.771D-02 0.123D+00 0.334D+00 0.537D+00
 Coeff:     -0.142D-02 0.771D-02 0.123D+00 0.334D+00 0.537D+00
 Gap=     0.272 Goal=   None    Shift=    0.000
 RMSDP=2.79D-08 MaxDP=1.57D-06 DE=-4.47D-09 OVMax= 3.40D-06

 Cycle  12  Pass 1  IDiag  1:
 RMSU=  1.26D-08    CP:  1.00D+00  8.01D-01  9.45D-01  7.09D-01  5.73D-01
 E= -1298.11100846191     Delta-E=       -0.000000000676 Rises=F Damp=F
 DIIS: error= 1.17D-07 at cycle   6 NSaved=   6.
 NSaved= 6 IEnMin= 6 EnMin= -1298.11100846191     IErMin= 6 ErrMin= 1.17D-07
 ErrMax= 1.17D-07 EMaxC= 1.00D-01 BMatC= 3.76D-11 BMatP= 7.71D-10
 IDIUse=1 WtCom= 1.00D+00 WtEn= 0.00D+00
 Coeff-Com: -0.182D-02 0.256D-02 0.533D-01 0.156D+00 0.293D+00 0.497D+00
 Coeff:     -0.182D-02 0.256D-02 0.533D-01 0.156D+00 0.293D+00 0.497D+00
 Gap=     0.272 Goal=   None    Shift=    0.000
 RMSDP=5.79D-09 MaxDP=4.99D-07 DE=-6.76D-10 OVMax= 5.75D-07

 SCF Done:  E(RB+HF-LYP) =  -1298.11100846     A.U. after   12 cycles
             Convg  =    0.5790D-08             -V/T =  2.0044
             S**2   =   0.0000
 KE= 1.292428240656D+03 PE=-7.898846567673D+03 EE= 2.883495007091D+03
 Leave Link  502 at Tue May 25 12:33:48 2010, MaxMem= 8589934592 cpu:   14189.3
 (Enter /home/system/software/orac/g03_E.01/g03/l801.exe)
 Range of M.O.s used for correlation:     1   886
 NBasis=  1024 NAE=    91 NBE=    91 NFC=     0 NFV=     0
 NROrb=    886 NOA=    91 NOB=    91 NVA=   795 NVB=   795
 Leave Link  801 at Tue May 25 12:33:48 2010, MaxMem= 8589934592 cpu:       0.9
 (Enter /home/system/software/orac/g03_E.01/g03/l1002.exe)
 Minotr:  Closed-shell wavefunction.
 DoAtom=TTTTTTTTTTTTTTTTTTTTTTTTTTTTTTTTTTTTTTTTTTTTT
          Direct CPHF calculation.
          Solving linear equations simultaneously.
          Differentiating once with respect to Fermi-contact.
          Electric field/nuclear overlap derivatives assumed to be zero.
          Requested convergence is 1.0D-08 RMS, and 1.0D-07 maximum.
          Secondary convergence is 1.0D-12 RMS, and 1.0D-12 maximum.
          NewPWx=T KeepS1=F KeepF1=F KeepIn=T MapXYZ=F.
          MDV=    8589934185 using IRadAn=       1.
 Generate precomputed XC quadrature information.
          There are  45 degrees of freedom in the 1st order CPHF.
    45 vectors were produced by pass  0.
 AX will form  45 AO Fock derivatives at one time.
 Integrals replicated using symmetry in FoFDir.
 MinBra= 0 MaxBra= 2 Meth= 1.
 IRaf=       0 NMat=  45 IRICut=       2 DoRegI=T DoRafI=T ISym2E= 2 JSym2E=2.
 Raff turned off since only 32.08% of shell-pairs survive.
    45 vectors were produced by pass  1.
    45 vectors were produced by pass  2.
    45 vectors were produced by pass  3.
    45 vectors were produced by pass  4.
    45 vectors were produced by pass  5.
    45 vectors were produced by pass  6.
    23 vectors were produced by pass  7.
     2 vectors were produced by pass  8.
 Inv2:  IOpt= 1 Iter= 1 AM= 3.19D-15 Conv= 1.00D-12.
 Inverted reduced A of dimension  340 with in-core refinement.
 Max diff in FC couplings:  IJMax=    43    21 Diff= 1.36D-02 IJMaxR=    39     8 DiffR= 1.98D+00
 Fermi Contact (FC) contribution to K (Hz):
                1             2             3             4             5
      1  0.000000D+00
      2  0.227530D+02  0.000000D+00
      3 -0.195640D+00  0.187156D+02  0.000000D+00
      4 -0.106324D-02  0.828699D+00  0.192191D+02  0.000000D+00
      5 -0.996937D+00  0.238355D+00  0.563168D+00  0.216070D+02  0.000000D+00
      6  0.169024D+01 -0.200502D+00  0.230622D+01  0.827479D+00  0.210724D+02
      7 -0.263904D+02  0.845954D+01  0.102537D+01 -0.886294D-01  0.924279D+00
      8 -0.351785D+00 -0.230343D+02  0.226410D+01  0.890113D+00 -0.767070D-01
      9  0.282839D+00  0.817887D+00 -0.212865D+02  0.737916D+01  0.187132D+01
     10 -0.129186D+00 -0.587991D+00  0.855777D+00 -0.228893D+02  0.115730D+02
     11 -0.272809D+02  0.146870D+01 -0.400195D-01  0.156052D+01 -0.234000D+02
     12 -0.794480D-03 -0.186343D-01 -0.110712D+00  0.138403D+00  0.861127D+00
     13  0.258890D+00 -0.695886D-01  0.761709D-02  0.352938D-02  0.237655D-01
     14 -0.141894D+01  0.126982D+01 -0.117279D+00  0.729611D-02 -0.274828D-01
     15  0.172780D-01  0.249976D-01 -0.298346D-02 -0.819596D-03 -0.612439D-02
     16 -0.170386D-01  0.100053D-01 -0.113100D-02 -0.216891D-01 -0.511319D-01
     17 -0.821753D-02  0.538519D-02 -0.559043D-02  0.659090D-02 -0.479368D-02
     18 -0.629145D-01  0.802601D-02 -0.157183D-01  0.416577D-01  0.724401D-01
     19 -0.435870D-01 -0.121831D+00  0.544645D-01  0.370564D-01  0.444640D-01
     20  0.391334D+01 -0.271351D-01  0.302286D+00 -0.130696D-01  0.672118D-01
     21  0.137998D+00 -0.276251D-01 -0.826455D-02  0.134667D-02  0.244024D+00
     22  0.598529D-01  0.436029D-02 -0.703123D-03  0.221178D-03 -0.967579D-03
     23 -0.147137D-02  0.300458D-02  0.368323D-03  0.711811D-03 -0.473964D-03
     24  0.225533D+02 -0.734253D-01  0.661756D+00 -0.833607D-01  0.855575D+00
     25  0.701087D-01  0.188667D+02 -0.469382D+00  0.149918D+00 -0.121566D-01
     26  0.109166D+00 -0.323799D+00  0.189993D+02 -0.439656D+00  0.206782D+00
     27 -0.134903D-01  0.158450D+00 -0.328824D+00  0.183781D+02 -0.364797D+00
     28  0.235482D+00  0.182871D-01  0.292819D+00 -0.271804D+00  0.194270D+02
     29 -0.452342D-01  0.176975D-02 -0.276505D-01  0.325380D+00 -0.404784D+00
     30  0.100495D+00 -0.476001D-02 -0.563299D-01  0.709956D-02  0.235153D+00
     31  0.701690D+00 -0.367016D+00 -0.714167D-01  0.831577D-02  0.459903D-02
     32 -0.210189D-01  0.249136D+00 -0.348958D+00  0.113059D+01  0.849763D-01
     33 -0.261405D-02 -0.111126D-02  0.331207D+00 -0.365882D+00  0.139828D+01
     34  0.965290D-03 -0.104521D-01 -0.244222D-02 -0.259688D-01  0.167254D+00
     35  0.118527D+00  0.110206D-01 -0.226667D-02  0.160053D-02  0.114940D-02
     36  0.455371D-02  0.712169D-03 -0.883049D-03 -0.699706D-04 -0.300568D-03
     37  0.277262D-01  0.350296D-01 -0.135076D-02  0.283275D-03  0.294876D-02
     38  0.194706D-02  0.347411D-03 -0.102593D-02  0.108836D-02  0.121850D-01
     39  0.195808D-01 -0.810828D-03  0.711575D-02 -0.487773D-03  0.106063D-02
     40  0.132495D-01 -0.806177D-03 -0.118599D-03  0.154679D-03 -0.127981D-03
     41  0.228972D-01 -0.744459D-03  0.248108D-02 -0.411813D-02 -0.140914D-02
     42  0.103928D-01 -0.571643D-02  0.216790D-03 -0.229310D-03  0.685801D-03
     43  0.169293D-02 -0.172270D-02  0.252383D-03  0.240360D-04 -0.129699D-02
     44  0.122705D-02  0.142479D-02  0.176997D-04 -0.352702D-03 -0.591600D-03
     45  0.802895D-03 -0.316202D-03  0.306912D-03  0.410360D-03 -0.100845D-03
                6             7             8             9            10
      6  0.000000D+00
      7  0.335726D-01  0.000000D+00
      8  0.468392D-01  0.313841D+00  0.000000D+00
      9  0.830665D+00  0.897463D-01 -0.936901D+00  0.000000D+00
     10  0.721817D+00  0.403447D-01 -0.314258D+00 -0.180982D+00  0.000000D+00
     11  0.654295D+01  0.293471D+01 -0.990924D+00  0.120121D+00 -0.680723D+00
     12 -0.230329D+02  0.474698D-02 -0.130442D-01  0.833834D-01  0.239258D+00
     13  0.105707D-04  0.611784D+01  0.103812D+00  0.254418D-02  0.443518D-03
     14  0.601757D-02 -0.309701D+02  0.148328D+00  0.225528D-01  0.205194D-02
     15 -0.121310D-02  0.396153D+01  0.125127D-01  0.110916D-01  0.160818D-02
     16 -0.175827D-01 -0.331202D+00 -0.319459D-02 -0.256861D-02  0.300288D-02
     17  0.218423D-02 -0.241322D+00  0.457949D-02 -0.600949D-03 -0.144825D-02
     18  0.754499D-02  0.735858D-01 -0.636950D-03  0.809606D-05  0.365441D-01
     19 -0.124713D-02  0.162069D+01  0.367271D+01 -0.123051D-01 -0.943321D-03
     20  0.211996D-01  0.161229D+00 -0.831018D-02 -0.204074D-01  0.342373D-02
     21 -0.327156D-02  0.418877D+01 -0.685376D-02 -0.218928D-02  0.454197D-02
     22  0.697370D-03  0.375343D+00  0.590486D-02  0.155024D-02 -0.286608D-03
     23 -0.199190D-02  0.131056D-02  0.167449D-03 -0.345677D-03 -0.162438D-03
     24 -0.343493D-01  0.363825D+00  0.180022D-02 -0.240427D-02  0.128660D+00
     25  0.879628D-02  0.148664D+01  0.303714D+01  0.328844D+00  0.207578D-01
     26 -0.277314D-01  0.119930D+00  0.388515D+00  0.889291D+00  0.301966D+00
     27  0.518872D+00  0.770819D-01 -0.196131D-01  0.481869D+00  0.931072D+00
     28 -0.351152D+00 -0.642488D-01  0.245228D-03 -0.524009D-01  0.618312D-01
     29  0.182064D+02  0.776838D-01 -0.161990D-02 -0.105959D-01  0.181474D-01
     30  0.190310D+02  0.804709D-02  0.190120D-02 -0.112055D-01  0.194324D+00
     31 -0.132784D-02 -0.846690D-02  0.150432D+02 -0.479389D-01  0.281112D-02
     32  0.770893D-01 -0.218734D-02 -0.186077D+00  0.136550D+02  0.528813D-01
     33 -0.155109D-01  0.396827D-02 -0.123226D-04 -0.182334D+00  0.133073D+02
     34 -0.473775D+00  0.143089D-02  0.114302D-02 -0.995969D-02  0.598239D-01
     35 -0.273513D-03  0.138004D+01  0.105629D+00 -0.764750D-03  0.437424D-03
     36  0.814877D-04  0.665567D-01 -0.847542D-02  0.464525D-04  0.741523D-04
     37 -0.778987D-03  0.959268D+00  0.126938D-01  0.221475D-02 -0.313971D-03
     38  0.396210D-02 -0.582317D-02 -0.548269D-03 -0.451176D-03  0.436372D-03
     39  0.110395D-02  0.202703D+00 -0.277434D-05  0.313887D-05  0.664381D-03
     40  0.136885D-04 -0.375302D-03  0.123506D-03 -0.350060D-03 -0.163413D-03
     41  0.447364D-03 -0.254122D-02  0.789868D-03 -0.324229D-03 -0.146261D-03
     42  0.658397D-04 -0.307206D-01 -0.587942D-02  0.617383D-03  0.110100D-02
     43  0.429946D-03  0.840856D-01 -0.106905D-02  0.194777D-03  0.129367D-03
     44 -0.142656D-03  0.206027D-01 -0.657922D-05  0.181312D-03  0.332546D-04
     45  0.309895D-03  0.978499D-03  0.431348D-03  0.399861D-03  0.395271D-03
               11            12            13            14            15
     11  0.000000D+00
     12 -0.286300D+00  0.000000D+00
     13  0.309971D+00 -0.239593D-02  0.000000D+00
     14 -0.273663D+00 -0.547162D-02  0.276569D+02  0.000000D+00
     15  0.292430D+00  0.139778D-01  0.377221D+01  0.246977D+02  0.000000D+00
     16  0.328436D+00  0.670419D+00  0.137890D+01  0.224456D+01  0.212799D+02
     17 -0.617375D-01  0.299409D-01  0.108520D+01 -0.310453D+00  0.325636D+01
     18  0.132711D+01 -0.269900D+00  0.256576D-01  0.447103D+00  0.184157D+01
     19 -0.109719D+00  0.136725D-03 -0.202799D+02  0.434156D+01  0.113779D+01
     20  0.161454D+00 -0.342536D-02  0.787097D+01 -0.267897D+02 -0.248588D+00
     21  0.191172D-01  0.101968D-01 -0.328012D+00  0.753986D+01 -0.224683D+02
     22  0.142102D-01  0.780344D-01  0.338890D+00  0.330672D+01  0.874249D+01
     23 -0.222003D-01 -0.359699D-01 -0.212015D-01 -0.758056D-01  0.101805D+01
     24  0.422121D+01  0.463567D-02 -0.184901D-01  0.591057D+00 -0.961703D-02
     25  0.205006D-01  0.280452D-03 -0.514065D-02  0.699581D-01  0.238089D-01
     26  0.159518D-01  0.496861D-02 -0.359490D-03  0.176439D-01 -0.905026D-04
     27  0.398902D-01 -0.240836D-01 -0.107880D-03  0.123539D-02 -0.376044D-03
     28  0.594192D+00  0.142817D+00 -0.123174D-02  0.286252D-02  0.522112D-03
     29  0.269213D+00  0.566657D+00  0.120602D-02  0.175293D-02  0.531477D-03
     30  0.197293D+01  0.311265D+01  0.195055D-02 -0.472607D-03  0.165314D-04
     31 -0.188751D-01  0.907073D-03 -0.159067D-01  0.271575D-01  0.575127D-03
     32 -0.121751D-02  0.101189D-01 -0.273683D-03 -0.113883D-02 -0.121031D-03
     33  0.549178D-01  0.481170D-03 -0.399039D-03  0.430109D-03 -0.151385D-03
     34 -0.283545D+00  0.121585D+02  0.177290D-04  0.360833D-03 -0.135762D-02
     35  0.306863D-01  0.138282D-03  0.183703D+02 -0.357403D+00  0.476674D-01
     36 -0.694317D-02 -0.206117D-04  0.186196D+02 -0.172830D+00  0.112973D+00
     37  0.642151D-02  0.576651D-01  0.486759D+00  0.510522D-01  0.179052D+02
     38  0.437867D-01 -0.434416D-02 -0.104083D-01  0.318898D-01 -0.592699D+00
     39  0.365500D-01  0.488083D-01 -0.392566D-01  0.296270D+00  0.746128D-01
     40  0.195314D-02  0.831092D-02  0.715075D-01  0.198027D-01 -0.324477D-01
     41 -0.288074D-01  0.665333D-01  0.185384D-01 -0.857478D-02 -0.267803D-01
     42 -0.908150D-03  0.613416D-03 -0.214598D+00  0.103447D+01  0.550412D-01
     43 -0.928700D-03 -0.663803D-03 -0.520110D-01  0.117573D+01 -0.346676D+00
     44 -0.182955D-02  0.160823D-01  0.421147D-01  0.118676D+00  0.102081D+01
     45  0.788589D-02  0.223122D-02 -0.142242D-02  0.313877D-02  0.669335D-01
               16            17            18            19            20
     16  0.000000D+00
     17  0.192931D+02  0.000000D+00
     18  0.183281D+01  0.232285D+02  0.000000D+00
     19  0.108779D+01 -0.944962D-01 -0.174447D-01  0.000000D+00
     20 -0.461971D+00 -0.255267D+02  0.510553D+01 -0.680495D+00  0.000000D+00
     21  0.646411D+00  0.121200D+01 -0.120033D+00  0.326406D+00 -0.158549D+01
     22 -0.213158D+02  0.380443D+01 -0.904763D-02  0.464356D+00 -0.211454D+00
     23  0.286462D+01  0.818210D+01 -0.222469D+02 -0.769981D-02 -0.649638D+00
     24  0.932418D-03 -0.166418D-03  0.373664D-02  0.227520D-01 -0.167298D+00
     25 -0.121762D-02  0.293724D-03 -0.374740D-03  0.113777D+00  0.673939D-02
     26  0.102121D-03  0.251710D-03  0.982752D-03  0.837208D-02  0.497684D-02
     27  0.551912D-02  0.424292D-03 -0.649190D-03 -0.101161D-03 -0.499926D-03
     28  0.165992D-01  0.477296D-02 -0.273590D-02  0.350847D-03  0.465815D-02
     29  0.321571D-01 -0.742081D-03 -0.821532D-03  0.938620D-03 -0.297325D-03
     30 -0.213082D-04  0.665802D-03  0.122850D-01 -0.526496D-03  0.120026D-02
     31  0.283854D-03 -0.807412D-04 -0.187503D-03 -0.140678D+01  0.642714D-03
     32 -0.202471D-03  0.532331D-04  0.000000D+00 -0.205306D-02  0.525123D-03
     33  0.100207D-03 -0.180941D-03  0.272915D-02 -0.197987D-03 -0.425698D-03
     34 -0.817697D-02 -0.148384D-02 -0.267958D-01 -0.686115D-04  0.476968D-03
     35 -0.209568D-01 -0.289297D-01  0.726032D-02  0.474687D+00  0.329209D+00
     36 -0.186090D-01  0.214552D-01  0.441303D-01  0.685410D+00  0.166681D+01
     37 -0.467153D+00  0.811280D-01 -0.231191D-01  0.979662D-01 -0.199417D-01
     38  0.190997D+02 -0.252912D-01  0.697056D+00 -0.124094D-01 -0.513251D-01
     39 -0.586887D+00  0.194608D+02 -0.376303D+00  0.441566D-02  0.198929D+01
     40  0.107795D+00  0.391933D+00  0.171905D+02 -0.598353D-02  0.189715D+01
     41  0.125038D+00 -0.785449D+00  0.183754D+02 -0.808833D-03  0.662488D+00
     42  0.631666D-01  0.530176D-02 -0.467633D-03  0.143361D+02 -0.514983D-01
     43  0.796276D-01 -0.210330D-01  0.119219D-01  0.502827D-01 -0.341015D-01
     44 -0.274207D+00 -0.102907D+00 -0.177964D-02  0.359718D-01  0.553088D-01
     45  0.136158D+00  0.126089D+01 -0.293217D+00 -0.537916D-04 -0.472390D-01
               21            22            23            24            25
     21  0.000000D+00
     22  0.219340D+00  0.000000D+00
     23  0.930196D-01  0.837687D-01  0.000000D+00
     24  0.277667D-01 -0.238944D-02 -0.642707D-03  0.000000D+00
     25 -0.173206D-03  0.382965D-02  0.238541D-03  0.126919D+00  0.000000D+00
     26  0.218546D-02  0.136404D-04  0.604419D-04 -0.155490D-01  0.319982D+00
     27  0.249536D-01 -0.321100D-03 -0.792081D-04  0.866152D-02 -0.403550D-02
     28 -0.113627D-01  0.512328D-03 -0.215776D-03 -0.219925D-01 -0.970350D-03
     29  0.987732D-02  0.677056D-04 -0.170785D-03  0.109085D-02 -0.249445D-03
     30  0.705218D-03 -0.181330D-05 -0.318349D-03  0.205948D-01 -0.199532D-03
     31 -0.724708D-03  0.674650D-03  0.127172D-03 -0.841620D-02  0.336512D+00
     32 -0.534934D-03 -0.296364D-03  0.473586D-04  0.975038D-03 -0.798776D-02
     33 -0.178434D-03  0.217498D-03 -0.163051D-03  0.179983D-02  0.121790D-02
     34 -0.218613D-03 -0.253413D-03  0.575445D-02 -0.336510D-03  0.136285D-03
     35  0.994742D-01  0.374145D-02  0.305041D-03  0.955882D-03  0.561411D-02
     36  0.416814D-01  0.153779D-01 -0.420494D-02  0.776923D-05  0.262139D-03
     37  0.728747D+00  0.883662D+00  0.643425D-03  0.204578D-02  0.414749D-02
     38  0.326782D+00  0.297403D+00 -0.102429D+00 -0.105443D-03 -0.348099D-04
     39  0.102270D-01  0.424194D+00  0.815794D+00 -0.278035D-02  0.803789D-03
     40 -0.466001D-02  0.415663D-01  0.732340D+00  0.633694D-03 -0.427301D-04
     41 -0.166378D-02 -0.217064D-01  0.424224D+00 -0.124126D-02 -0.837926D-05
     42  0.119936D-01  0.347218D-01 -0.596260D-03  0.206063D-03 -0.156007D-03
     43  0.130274D+02  0.273942D-01 -0.109203D-01  0.106215D-02 -0.319204D-03
     44  0.206008D-01  0.131738D+02 -0.303765D-02 -0.404097D-05  0.111035D-03
     45  0.586714D-02 -0.756843D-03  0.123905D+02 -0.777326D-04  0.156921D-05
               26            27            28            29            30
     26  0.000000D+00
     27  0.299123D+00  0.000000D+00
     28 -0.669506D-02  0.330541D+00  0.000000D+00
     29  0.520886D-02 -0.963333D-02  0.370312D+00  0.000000D+00
     30  0.717313D-03 -0.531622D-02  0.127966D+00 -0.404269D+00  0.000000D+00
     31 -0.383310D-02  0.338113D-02 -0.100327D-03  0.542323D-04 -0.506646D-04
     32  0.221680D-02 -0.110971D-01 -0.232740D-02 -0.746450D-03 -0.967728D-03
     33 -0.826647D-02 -0.560333D-02 -0.154575D-01  0.496757D-02  0.914996D-02
     34 -0.207787D-03  0.180510D-02 -0.595811D-02  0.494502D-01  0.499011D+00
     35 -0.434236D-04  0.707706D-04 -0.100104D-03  0.230859D-03  0.156452D-03
     36  0.595462D-04  0.373551D-04  0.134288D-03 -0.546063D-04 -0.266673D-04
     37  0.273973D-04  0.937521D-04 -0.905587D-03  0.116388D-02 -0.824275D-04
     38 -0.413631D-04  0.659636D-04 -0.372965D-02 -0.307612D-02  0.706300D-04
     39 -0.877751D-04  0.209474D-03  0.107977D-02  0.817884D-03  0.413398D-04
     40 -0.470815D-04  0.000000D+00  0.368372D-05 -0.382312D-04  0.379074D-03
     41 -0.114464D-03  0.920023D-04  0.123091D-03 -0.113036D-05  0.153463D-03
     42  0.595251D-04 -0.463354D-05  0.764276D-04 -0.206166D-05 -0.325296D-05
     43  0.324308D-04 -0.358185D-04  0.385565D-03 -0.493867D-04  0.126033D-04
     44  0.263844D-04  0.359160D-04  0.364168D-04  0.283551D-03  0.174115D-04
     45 -0.150231D-05 -0.296138D-05 -0.572672D-05 -0.615898D-05  0.346728D-04
               31            32            33            34            35
     31  0.000000D+00
     32 -0.386865D-02  0.000000D+00
     33 -0.295213D-03  0.135287D-03  0.000000D+00
     34 -0.541004D-04 -0.706739D-03  0.344701D-02  0.000000D+00
     35 -0.285667D-02 -0.447937D-04 -0.930955D-05  0.409913D-05  0.000000D+00
     36  0.147448D-02  0.000000D+00 -0.181558D-05  0.273584D-05 -0.262853D+00
     37  0.528350D-03 -0.383114D-04 -0.644025D-05 -0.748832D-03 -0.407447D-03
     38 -0.837557D-05  0.181904D-04  0.103868D-04 -0.229207D-02  0.211978D-02
     39 -0.125641D-04 -0.234769D-04  0.242884D-04 -0.141950D-02  0.552284D-03
     40  0.000000D+00  0.342154D-05 -0.131968D-04  0.182957D-03  0.134169D-02
     41 -0.125223D-05 -0.117165D-04 -0.140040D-03 -0.515103D-02 -0.371852D-05
     42 -0.501852D-02 -0.229595D-04 -0.130914D-05 -0.320080D-05  0.861672D-01
     43 -0.328081D-04  0.274541D-05  0.000000D+00  0.132550D-04  0.235609D-02
     44  0.352130D-04 -0.317015D-05 -0.205804D-05 -0.230455D-03 -0.376053D-03
     45 -0.433583D-05 -0.168356D-05  0.102526D-04 -0.253827D-03 -0.328098D-05
               36            37            38            39            40
     36  0.000000D+00
     37 -0.519496D-02  0.000000D+00
     38  0.486384D-03  0.293092D+00  0.000000D+00
     39 -0.270042D-02 -0.226447D-02  0.303989D+00  0.000000D+00
     40  0.890479D-02  0.182939D-03 -0.576408D-02  0.465957D-01  0.000000D+00
     41  0.187024D-02  0.329765D-02 -0.867106D-02  0.325851D+00 -0.277523D+00
     42  0.193042D-02  0.215969D-02 -0.832384D-03  0.110026D-03 -0.189343D-03
     43 -0.915522D-03  0.344674D-01 -0.972059D-02  0.134534D-02 -0.227285D-03
     44  0.965554D-03  0.714899D-03  0.181130D+00 -0.608954D-02 -0.216664D-02
     45 -0.307224D-03 -0.813945D-03 -0.389997D-02 -0.226479D-02  0.878485D-02
               41            42            43            44            45
     41  0.000000D+00
     42 -0.140711D-04  0.000000D+00
     43 -0.114701D-03  0.238528D-02  0.000000D+00
     44  0.760890D-03  0.193224D-02  0.681452D-02  0.000000D+00
     45  0.785896D-01  0.372225D-05 -0.541726D-03 -0.340124D-03  0.000000D+00
 Fermi Contact (FC) contribution to J (Hz):
                1             2             3             4             5
      1  0.000000D+00
      2  0.449037D+02  0.000000D+00
      3 -0.386100D+00  0.369358D+02  0.000000D+00
      4 -0.209833D-02  0.163546D+01  0.379294D+02  0.000000D+00
      5 -0.196748D+01  0.470399D+00  0.111143D+01  0.426420D+02  0.000000D+00
      6  0.333573D+01 -0.395695D+00  0.455139D+01  0.163305D+01  0.415869D+02
      7  0.280841D+02 -0.900248D+01 -0.109118D+01  0.943177D-01 -0.983600D+00
      8  0.374363D+00  0.245126D+02 -0.240941D+01 -0.947241D+00  0.816302D-01
      9 -0.300992D+00 -0.870379D+00  0.226527D+02 -0.785276D+01 -0.199142D+01
     10  0.137477D+00  0.625729D+00 -0.910701D+00  0.243583D+02 -0.123158D+02
     11  0.290318D+02 -0.156296D+01  0.425880D-01 -0.166067D+01  0.249018D+02
     12  0.845471D-03  0.198302D-01  0.117817D+00 -0.147286D+00 -0.916395D+00
     13  0.510925D+00 -0.137335D+00  0.150325D-01  0.696532D-02  0.469018D-01
     14 -0.280032D+01  0.250602D+01 -0.231452D+00  0.143991D-01 -0.542379D-01
     15  0.340985D-01  0.493334D-01 -0.588794D-02 -0.161749D-02 -0.120866D-01
     16 -0.336260D-01  0.197457D-01 -0.223205D-02 -0.428040D-01 -0.100910D+00
     17 -0.162175D-01  0.106278D-01 -0.110329D-01  0.130073D-01 -0.946045D-02
     18 -0.124163D+00  0.158395D-01 -0.310204D-01  0.822125D-01  0.142962D+00
     19  0.463845D-01  0.129650D+00 -0.579600D-01 -0.394347D-01 -0.473177D-01
     20 -0.416450D+01  0.288766D-01 -0.321687D+00  0.139085D-01 -0.715255D-01
     21 -0.146854D+00  0.293981D-01  0.879498D-02 -0.143311D-02 -0.259685D+00
     22 -0.636943D-01 -0.464013D-02  0.748250D-03 -0.235373D-03  0.102968D-02
     23  0.156580D-02 -0.319741D-02 -0.391963D-03 -0.757496D-03  0.504383D-03
     24  0.176974D+03 -0.576161D+00  0.519274D+01 -0.654123D+00  0.671361D+01
     25  0.550136D+00  0.148045D+03 -0.368320D+01  0.117639D+01 -0.953917D-01
     26  0.856613D+00 -0.254082D+01  0.149086D+03 -0.344994D+01  0.162260D+01
     27 -0.105857D+00  0.124335D+01 -0.258025D+01  0.144211D+03 -0.286252D+01
     28  0.184780D+01  0.143497D+00  0.229772D+01 -0.213282D+01  0.152442D+03
     29 -0.354948D+00  0.138871D-01 -0.216971D+00  0.255323D+01 -0.317630D+01
     30  0.788577D+00 -0.373513D-01 -0.442015D+00  0.557095D-01  0.184522D+01
     31  0.550609D+01 -0.287994D+01 -0.560400D+00  0.652530D-01  0.360882D-01
     32 -0.164933D+00  0.195495D+01 -0.273824D+01  0.887166D+01  0.666801D+00
     33 -0.205122D-01 -0.871995D-02  0.259895D+01 -0.287104D+01  0.109722D+02
     34  0.757454D-02 -0.820163D-01 -0.191638D-01 -0.203775D+00  0.131243D+01
     35  0.930067D+00  0.864773D-01 -0.177863D-01  0.125592D-01  0.901926D-02
     36  0.357325D-01  0.558832D-02 -0.692920D-02 -0.549052D-03 -0.235853D-02
     37  0.217565D+00  0.274874D+00 -0.105993D-01  0.222283D-02  0.231386D-01
     38  0.152784D-01  0.272610D-02 -0.805034D-02  0.854028D-02  0.956146D-01
     39  0.153649D+00 -0.636249D-02  0.558366D-01 -0.382751D-02  0.832263D-02
     40  0.103967D+00 -0.632599D-02 -0.930632D-03  0.121375D-02 -0.100425D-02
     41  0.179672D+00 -0.584170D-02  0.194688D-01 -0.323145D-01 -0.110574D-01
     42  0.815509D-01 -0.448562D-01  0.170113D-02 -0.179937D-02  0.538142D-02
     43  0.132843D-01 -0.135179D-01  0.198042D-02  0.188608D-03 -0.101774D-01
     44  0.962853D-02  0.111802D-01  0.138888D-03 -0.276762D-02 -0.464223D-02
     45  0.630024D-02 -0.248121D-02  0.240831D-02  0.322005D-02 -0.791318D-03
                6             7             8             9            10
      6  0.000000D+00
      7 -0.357273D-01  0.000000D+00
      8 -0.498454D-01  0.180094D+00  0.000000D+00
      9 -0.883978D+00  0.514997D-01 -0.537628D+00  0.000000D+00
     10 -0.768144D+00  0.231513D-01 -0.180333D+00 -0.103854D+00  0.000000D+00
     11 -0.696289D+01  0.168405D+01 -0.568628D+00  0.689298D-01 -0.390624D+00
     12  0.245111D+02  0.272399D-02 -0.748524D-02  0.478484D-01  0.137295D+00
     13  0.208616D-04 -0.651048D+01 -0.110474D+00 -0.270747D-02 -0.471983D-03
     14  0.118758D-01  0.329578D+02 -0.157848D+00 -0.240003D-01 -0.218364D-02
     15 -0.239408D-02 -0.421578D+01 -0.133158D-01 -0.118034D-01 -0.171140D-02
     16 -0.346999D-01  0.352459D+00  0.339962D-02  0.273347D-02 -0.319561D-02
     17  0.431064D-02  0.256811D+00 -0.487340D-02  0.639518D-03  0.154120D-02
     18  0.148902D-01 -0.783086D-01  0.677830D-03 -0.861568D-05 -0.388896D-01
     19  0.132717D-02  0.930012D+00  0.210754D+01 -0.706109D-02 -0.541312D-03
     20 -0.225602D-01  0.925190D-01 -0.476869D-02 -0.117105D-01  0.196466D-02
     21  0.348153D-02  0.240367D+01 -0.393294D-02 -0.125629D-02  0.260635D-02
     22 -0.742128D-03  0.215386D+00  0.338842D-02  0.889584D-03 -0.164466D-03
     23  0.211974D-02  0.752047D-03  0.960885D-04 -0.198362D-03 -0.932130D-04
     24 -0.269536D+00 -0.153944D+01 -0.761724D-02  0.101731D-01 -0.544394D+00
     25  0.690235D-01 -0.629039D+01 -0.128510D+02 -0.139143D+01 -0.878319D-01
     26 -0.217606D+00 -0.507456D+00 -0.164391D+01 -0.376283D+01 -0.127770D+01
     27  0.407154D+01 -0.326155D+00  0.829886D-01 -0.203892D+01 -0.393962D+01
     28 -0.275546D+01  0.271854D+00 -0.103763D-02  0.221723D+00 -0.261625D+00
     29  0.142864D+03 -0.328701D+00  0.685426D-02  0.448343D-01 -0.767866D-01
     30  0.149334D+03 -0.340494D-01 -0.804451D-02  0.474137D-01 -0.822237D+00
     31 -0.104194D-01  0.358258D-01 -0.636519D+02  0.202842D+00 -0.118946D-01
     32  0.604912D+00  0.925525D-02  0.787343D+00 -0.577779D+02 -0.223755D+00
     33 -0.121712D+00 -0.167908D-01  0.521401D-04  0.771504D+00 -0.563070D+02
     34 -0.371767D+01 -0.605450D-02 -0.483643D-02  0.421422D-01 -0.253131D+00
     35 -0.214623D-02 -0.583932D+01 -0.446945D+00  0.323587D-02 -0.185086D-02
     36  0.639426D-03 -0.281619D+00  0.358618D-01 -0.196553D-03 -0.313759D-03
     37 -0.611263D-02 -0.405893D+01 -0.537108D-01 -0.937119D-02  0.132850D-02
     38  0.310902D-01  0.246394D-01  0.231988D-02  0.190905D-02 -0.184641D-02
     39  0.866256D-02 -0.857692D+00  0.117390D-04 -0.132814D-04 -0.281118D-02
     40  0.107412D-03  0.158801D-02 -0.522588D-03  0.148120D-02  0.691446D-03
     41  0.351042D-02  0.107526D-01 -0.334215D-02  0.137190D-02  0.618872D-03
     42  0.516638D-03  0.129987D+00  0.248774D-01 -0.261232D-02 -0.465861D-02
     43  0.337375D-02 -0.355789D+00  0.452344D-02 -0.824155D-03 -0.547386D-03
     44 -0.111941D-02 -0.871756D-01  0.278385D-04 -0.767179D-03 -0.140709D-03
     45  0.243172D-02 -0.414029D-02 -0.182515D-02 -0.169192D-02 -0.167250D-02
               11            12            13            14            15
     11  0.000000D+00
     12 -0.164289D+00  0.000000D+00
     13 -0.329865D+00  0.254971D-02  0.000000D+00
     14  0.291227D+00  0.582279D-02  0.545816D+02  0.000000D+00
     15 -0.311198D+00 -0.148749D-01  0.744455D+01  0.487415D+02  0.000000D+00
     16 -0.349516D+00 -0.713447D+00  0.272129D+01  0.442969D+01  0.419964D+02
     17  0.656999D-01 -0.318626D-01  0.214167D+01 -0.612686D+00  0.642650D+01
     18 -0.141228D+01  0.287222D+00  0.506358D-01  0.882369D+00  0.363439D+01
     19 -0.629607D-01  0.784580D-04  0.215815D+02 -0.462021D+01 -0.121082D+01
     20  0.926482D-01 -0.196559D-02 -0.837614D+01  0.285091D+02  0.264542D+00
     21  0.109702D-01  0.585127D-02  0.349064D+00 -0.802377D+01  0.239103D+02
     22  0.815434D-02  0.447790D-01 -0.360640D+00 -0.351895D+01 -0.930359D+01
     23 -0.127393D-01 -0.206408D-01  0.225623D-01  0.806708D-01 -0.108339D+01
     24 -0.178611D+02 -0.196148D-01 -0.145090D+00  0.463797D+01 -0.754639D-01
     25 -0.867436D-01 -0.118667D-02 -0.403382D-01  0.548955D+00  0.186826D+00
     26 -0.674966D-01 -0.210235D-01 -0.282088D-02  0.138450D+00 -0.710165D-03
     27 -0.168786D+00  0.101904D+00 -0.846524D-03  0.969399D-02 -0.295078D-02
     28 -0.251419D+01 -0.604297D+00 -0.966538D-02  0.224619D-01  0.409696D-02
     29 -0.113911D+01 -0.239768D+01  0.946349D-02  0.137550D-01  0.417045D-02
     30 -0.834800D+01 -0.131705D+02  0.153058D-01 -0.370850D-02  0.129721D-03
     31  0.798658D-01 -0.383807D-02 -0.124818D+00  0.213102D+00  0.451296D-02
     32  0.515163D-02 -0.428158D-01 -0.214757D-02 -0.893631D-02 -0.949721D-03
     33 -0.232372D+00 -0.203596D-02 -0.313122D-02  0.337502D-02 -0.118790D-02
     34  0.119975D+01 -0.514461D+02  0.139118D-03  0.283142D-02 -0.106531D-01
     35 -0.129842D+00 -0.585109D-03  0.144150D+03 -0.280450D+01  0.374041D+00
     36  0.293784D-01  0.872139D-04  0.146106D+03 -0.135618D+01  0.886491D+00
     37 -0.271712D-01 -0.243997D+00  0.381955D+01  0.400602D+00  0.140500D+03
     38 -0.185273D+00  0.183813D-01 -0.816731D-01  0.250236D+00 -0.465085D+01
     39 -0.154653D+00 -0.206521D+00 -0.308043D+00  0.232480D+01  0.585479D+00
     40 -0.826426D-02 -0.351658D-01  0.561112D+00  0.155390D+00 -0.254614D+00
     41  0.121892D+00 -0.281521D+00  0.145469D+00 -0.672855D-01 -0.210142D+00
     42  0.384263D-02 -0.259553D-02 -0.168393D+01  0.811739D+01  0.431903D+00
     43  0.392958D-02  0.280873D-02 -0.408125D+00  0.922581D+01 -0.272033D+01
     44  0.774132D-02 -0.680486D-01  0.330470D+00  0.931238D+00  0.801020D+01
     45 -0.333674D-01 -0.944090D-02 -0.111616D-01  0.246296D-01  0.525221D+00
               16            17            18            19            20
     16  0.000000D+00
     17  0.380754D+02  0.000000D+00
     18  0.361709D+01  0.458421D+02  0.000000D+00
     19 -0.115761D+01  0.100561D+00  0.185643D-01  0.000000D+00
     20  0.491621D+00  0.271650D+02 -0.543320D+01 -0.390493D+00  0.000000D+00
     21 -0.687898D+00 -0.128979D+01  0.127736D+00  0.187304D+00 -0.909811D+00
     22  0.226838D+02 -0.404860D+01  0.962831D-02  0.266465D+00 -0.121340D+00
     23 -0.304848D+01 -0.870723D+01  0.236747D+02 -0.441843D-02 -0.372786D+00
     24  0.731659D-02 -0.130587D-02  0.293210D-01 -0.962700D-01  0.707882D+00
     25 -0.955451D-02  0.230482D-02 -0.294055D-02 -0.481421D+00 -0.285162D-01
     26  0.801335D-03  0.197514D-02  0.771156D-02 -0.354246D-01 -0.210584D-01
     27  0.433080D-01  0.332938D-02 -0.509413D-02  0.428040D-03  0.211533D-02
     28  0.130252D+00  0.374529D-01 -0.214684D-01 -0.148453D-02 -0.197099D-01
     29  0.252334D+00 -0.582304D-02 -0.644649D-02 -0.397156D-02  0.125806D-02
     30 -0.167203D-03  0.522448D-02  0.963989D-01  0.222775D-02 -0.507863D-02
     31  0.222738D-02 -0.633568D-03 -0.147132D-02  0.595248D+01 -0.271950D-02
     32 -0.158877D-02  0.417715D-03  0.518685D-05  0.868706D-02 -0.222194D-02
     33  0.786313D-03 -0.141983D-02  0.214153D-01  0.837737D-03  0.180124D-02
     34 -0.641639D-01 -0.116435D-01 -0.210264D+00  0.290314D-03 -0.201818D-02
     35 -0.164446D+00 -0.227008D+00  0.569710D-01 -0.200853D+01 -0.139297D+01
     36 -0.146023D+00  0.168357D+00  0.346286D+00 -0.290016D+01 -0.705275D+01
     37 -0.366571D+01  0.636603D+00 -0.181414D+00 -0.414522D+00  0.843787D-01
     38  0.149873D+03 -0.198458D+00  0.546973D+01  0.525078D-01  0.217170D+00
     39 -0.460525D+01  0.152707D+03 -0.295281D+01 -0.186839D-01 -0.841724D+01
     40  0.845853D+00  0.307546D+01  0.134892D+03  0.253180D-01 -0.802737D+01
     41  0.981163D+00 -0.616334D+01  0.144190D+03  0.342239D-02 -0.280317D+01
     42  0.495662D+00  0.416024D-01 -0.366947D-02 -0.606598D+02  0.217903D+00
     43  0.624830D+00 -0.165044D+00  0.935502D-01 -0.212760D+00  0.144293D+00
     44 -0.215168D+01 -0.807505D+00 -0.139647D-01 -0.152207D+00 -0.234027D+00
     45  0.106842D+01  0.989411D+01 -0.230084D+01  0.227607D-03  0.199881D+00
               21            22            23            24            25
     21  0.000000D+00
     22  0.125865D+00  0.000000D+00
     23  0.533781D-01  0.480696D-01  0.000000D+00
     24 -0.117489D+00  0.101104D-01  0.271947D-02  0.000000D+00
     25  0.732881D-03 -0.162043D-01 -0.100933D-02  0.395988D+01  0.000000D+00
     26 -0.924730D-02 -0.577163D-04 -0.255746D-03 -0.485129D+00  0.998343D+01
     27 -0.105585D+00  0.135866D-02  0.335151D-03  0.270239D+00 -0.125907D+00
     28  0.480785D-01 -0.216780D-02  0.913008D-03 -0.686165D+00 -0.302749D-01
     29 -0.417936D-01 -0.286481D-03  0.722639D-03  0.340344D-01 -0.778268D-02
[...]
    33  H    0.000000   0.000000   0.000000   0.000000   0.000000   0.000001
    34  H    0.000000  -0.000034  -0.000009  -0.000016  -0.000090  -0.000122
    35  H   -0.022293   0.002657  -0.000064  -0.000005   0.000002  -0.000105
    36  H   -0.032621   0.004229   0.007183  -0.000003   0.000000   0.000179
    37  H    0.000109   0.002199  -0.033015   0.003394   0.000003  -0.000096
    38  H    0.000003   0.001672   0.001539  -0.030534   0.000120  -0.000550
    39  H    0.000005  -0.026054  -0.000015   0.005658   0.005300   0.000084
    40  H    0.000000   0.004708  -0.000005   0.004407  -0.034766   0.000213
    41  H    0.000001  -0.002238  -0.000003  -0.000011  -0.027081  -0.002640
    42  H    0.333616  -0.000144   0.000002   0.000000   0.000000  -0.000072
    43  H    0.000002  -0.000231   0.344218   0.008938   0.000000   0.000018
    44  H    0.000000  -0.000030  -0.000307   0.348627  -0.000034   0.000001
    45  H    0.000000  -0.000077   0.000000   0.000007   0.339415  -0.000029
             25         26         27         28         29         30
     1  C   -0.029209  -0.010036  -0.000581  -0.007857  -0.000356  -0.000109
     2  C    0.345565  -0.032908  -0.004608  -0.001131  -0.000124   0.000004
     3  C   -0.050054   0.337326  -0.046881  -0.014427   0.000092   0.000045
     4  C   -0.007126  -0.037719   0.334583  -0.035516  -0.004977  -0.000528
     5  C   -0.000375  -0.004069  -0.043218   0.327403  -0.044641  -0.015794
     6  C    0.000070   0.000017  -0.014218  -0.031562   0.367274   0.361053
     7  O    0.004107   0.013342   0.000057   0.012764   0.000002   0.000019
     8  O   -0.029766   0.000493  -0.000029   0.000034   0.000000   0.000000
     9  O    0.003203  -0.035607   0.001955  -0.000102  -0.000005   0.000000
    10  O   -0.000112   0.002789  -0.034780   0.006198  -0.000384   0.010925
    11  O    0.003805   0.000366   0.003289  -0.037476   0.000296   0.003233
    12  O    0.000000  -0.000001   0.000035  -0.002194  -0.032076  -0.018544
    13  C    0.000015   0.000084  -0.000001   0.000029   0.000000   0.000000
    14  C    0.000070   0.000550   0.000022  -0.004618  -0.000003   0.000001
    15  C    0.000012  -0.000169  -0.000001   0.000536   0.000002   0.000001
    16  C   -0.000002   0.000025  -0.000001  -0.002335  -0.000161   0.000063
    17  C   -0.000003  -0.000006   0.000000   0.000479   0.000001  -0.000003
    18  C    0.000003   0.000002   0.000000  -0.000042  -0.000020  -0.000003
    19  O   -0.000130  -0.000115   0.000000   0.000001   0.000000   0.000000
    20  O    0.000015   0.000024   0.000000   0.000118   0.000000   0.000000
    21  O    0.000000   0.000295  -0.000001   0.016008  -0.000001  -0.000013
    22  O    0.000000   0.000000   0.000000  -0.000065   0.000000   0.000000
    23  O    0.000000   0.000000   0.000000   0.000000   0.000000   0.000000
    24  H   -0.010489   0.000120  -0.000141   0.000611  -0.000013   0.000017
    25  H    0.747797   0.012692   0.010393   0.000359   0.000022  -0.000001
    26  H    0.012692   0.746427   0.012667   0.006867  -0.000001  -0.000008
    27  H    0.010393   0.012667   0.784141   0.012281   0.010235   0.000227
    28  H    0.000359   0.006867   0.012281   0.734233   0.009826  -0.006426
    29  H    0.000022  -0.000001   0.010235   0.009826   0.745611  -0.039660
    30  H   -0.000001  -0.000008   0.000227  -0.006426  -0.039660   0.662552
    31  H    0.008023   0.002177   0.000015  -0.000004   0.000000   0.000000
    32  H   -0.000497  -0.003532  -0.000414  -0.000058  -0.000001   0.000001
    33  H   -0.000011  -0.001053  -0.003453  -0.000562  -0.000131  -0.000222
    34  H   -0.000005  -0.000006  -0.000051  -0.001253  -0.011824   0.009222
    35  H   -0.000002  -0.000002   0.000000  -0.000009   0.000000   0.000000
    36  H    0.000001   0.000171   0.000000  -0.000024   0.000000   0.000000
    37  H   -0.000001  -0.000004   0.000000   0.000429   0.000000   0.000000
    38  H   -0.000011  -0.000029  -0.000002   0.003109   0.001188  -0.000606
    39  H    0.000000   0.000000   0.000000  -0.000005   0.000000   0.000000
    40  H    0.000000   0.000000   0.000000   0.000003  -0.000005  -0.000001
    41  H    0.000001  -0.000007  -0.000001   0.000082   0.000069   0.000024
    42  H    0.000006   0.000007   0.000000   0.000000   0.000000   0.000000
    43  H    0.000000  -0.000009   0.000000  -0.000546   0.000000   0.000004
    44  H    0.000000   0.000000   0.000000   0.000006   0.000001  -0.000001
    45  H    0.000000   0.000000   0.000000   0.000000   0.000000   0.000000
             31         32         33         34         35         36
     1  C   -0.012285   0.001246  -0.000137  -0.000046   0.000088  -0.000151
     2  C   -0.063048  -0.010217   0.001257   0.000099  -0.000053  -0.000110
     3  C    0.000874  -0.051600  -0.005815  -0.000015  -0.000001  -0.000004
     4  C    0.000257   0.009202  -0.053682  -0.000139   0.000000   0.000003
     5  C   -0.000073  -0.000649   0.008294  -0.002241   0.000001   0.000003
     6  C    0.000000   0.000010  -0.000090  -0.057354   0.000000   0.000000
     7  O    0.015117  -0.000014  -0.000007   0.000078   0.004533   0.000878
     8  O    0.353353   0.022346  -0.000015   0.000000  -0.000048   0.000130
     9  O    0.000053   0.348142   0.018979   0.000000   0.000000   0.000000
    10  O   -0.000003  -0.000212   0.350492  -0.000001   0.000000   0.000000
    11  O    0.000103  -0.000028  -0.000172   0.012074   0.000011   0.000010
    12  O    0.000000   0.000000   0.000004   0.346882   0.000000   0.000000
    13  C   -0.005040  -0.000004   0.000000   0.000001   0.347524   0.361275
    14  C   -0.004542   0.000004   0.000000   0.000005  -0.011459  -0.034946
    15  C    0.000416   0.000000   0.000000  -0.000014   0.002406   0.004345
    16  C   -0.000034   0.000000   0.000000   0.002790  -0.000551   0.001008
    17  C   -0.000037   0.000000   0.000000  -0.000836  -0.000928   0.000071
    18  C    0.000000   0.000000   0.000000   0.002123  -0.000005   0.000032
    19  O    0.056645   0.000000   0.000000   0.000000  -0.022293  -0.032621
    20  O   -0.000075   0.000000   0.000000  -0.000034   0.002657   0.004229
    21  O   -0.000009   0.000000   0.000000  -0.000009  -0.000064   0.007183
    22  O    0.000000   0.000000   0.000000  -0.000016  -0.000005  -0.000003
    23  O    0.000000   0.000000   0.000000  -0.000090   0.000002   0.000000
    24  H   -0.000316  -0.000075   0.000001  -0.000122  -0.000105   0.000179
    25  H    0.008023  -0.000497  -0.000011  -0.000005  -0.000002   0.000001
    26  H    0.002177  -0.003532  -0.001053  -0.000006  -0.000002   0.000171
    27  H    0.000015  -0.000414  -0.003453  -0.000051   0.000000   0.000000
    28  H   -0.000004  -0.000058  -0.000562  -0.001253  -0.000009  -0.000024
    29  H    0.000000  -0.000001  -0.000131  -0.011824   0.000000   0.000000
    30  H    0.000000   0.000001  -0.000222   0.009222   0.000000   0.000000
    31  H    0.511861   0.000182  -0.000001   0.000000   0.001434  -0.000983
    32  H    0.000182   0.541867  -0.001052   0.000000   0.000000   0.000000
    33  H   -0.000001  -0.001052   0.538041   0.000002   0.000000   0.000000
    34  H    0.000000   0.000000   0.000002   0.547325   0.000000   0.000000
    35  H    0.001434   0.000000   0.000000   0.000000   0.711015  -0.043773
    36  H   -0.000983   0.000000   0.000000   0.000000  -0.043773   0.715480
    37  H    0.000011   0.000000   0.000000   0.000005   0.004887  -0.002385
    38  H   -0.000005   0.000000   0.000001  -0.005632   0.000003  -0.000096
    39  H    0.000001   0.000000   0.000000   0.000066  -0.000284  -0.000089
    40  H    0.000000   0.000000   0.000000   0.000543  -0.000003  -0.000002
    41  H    0.000000   0.000000   0.000000   0.008173  -0.000008  -0.000002
    42  H   -0.003827  -0.000003   0.000000   0.000000  -0.009377  -0.002227
    43  H    0.000002   0.000000   0.000000   0.000004   0.000032  -0.000383
    44  H    0.000000   0.000000   0.000000  -0.000033  -0.000002   0.000002
    45  H    0.000000   0.000000   0.000000  -0.000036   0.000000   0.000000
             37         38         39         40         41         42
     1  C    0.000101  -0.000949   0.000146   0.000089  -0.001180  -0.000118
     2  C    0.000020   0.000038   0.000005   0.000000   0.000281   0.000157
     3  C    0.000001   0.000035   0.000000   0.000000  -0.000027   0.000004
     4  C    0.000000   0.000616   0.000000   0.000000   0.000160   0.000000
     5  C   -0.000074  -0.002441  -0.000010   0.000016  -0.001342   0.000000
     6  C   -0.000003  -0.003080  -0.000001  -0.000023  -0.000270   0.000000
     7  O    0.003368  -0.000436  -0.000367  -0.000022  -0.000047   0.000137
     8  O    0.000000  -0.000001   0.000000   0.000000  -0.000004   0.000590
     9  O    0.000000   0.000000   0.000000   0.000000   0.000000   0.000000
    10  O    0.000000  -0.000013   0.000000   0.000000   0.000000   0.000000
    11  O   -0.000007   0.006320  -0.000005  -0.000086   0.019500   0.000000
    12  O   -0.000006   0.043777  -0.000013   0.000170  -0.000209   0.000000
    13  C   -0.003128   0.000160   0.000264   0.000030  -0.000073  -0.025144
    14  C   -0.034060   0.004948  -0.001035   0.000241  -0.001165   0.005914
    15  C    0.341601  -0.036702  -0.007775   0.000778  -0.000285  -0.000447
    16  C   -0.048812   0.302960  -0.025997   0.007373  -0.004235   0.000022
    17  C    0.002615  -0.035797   0.344056  -0.044885  -0.012935   0.000011
    18  C    0.000196  -0.010960  -0.050161   0.351463   0.340458   0.000000
    19  O    0.000109   0.000003   0.000005   0.000000   0.000001   0.333616
    20  O    0.002199   0.001672  -0.026054   0.004708  -0.002238  -0.000144
    21  O   -0.033015   0.001539  -0.000015  -0.000005  -0.000003   0.000002
    22  O    0.003394  -0.030534   0.005658   0.004407  -0.000011   0.000000
    23  O    0.000003   0.000120   0.005300  -0.034766  -0.027081   0.000000
    24  H   -0.000096  -0.000550   0.000084   0.000213  -0.002640  -0.000072
    25  H   -0.000001  -0.000011   0.000000   0.000000   0.000001   0.000006
    26  H   -0.000004  -0.000029   0.000000   0.000000  -0.000007   0.000007
    27  H    0.000000  -0.000002   0.000000   0.000000  -0.000001   0.000000
    28  H    0.000429   0.003109  -0.000005   0.000003   0.000082   0.000000
    29  H    0.000000   0.001188   0.000000  -0.000005   0.000069   0.000000
    30  H    0.000000  -0.000606   0.000000  -0.000001   0.000024   0.000000
    31  H    0.000011  -0.000005   0.000001   0.000000   0.000000  -0.003827
    32  H    0.000000   0.000000   0.000000   0.000000   0.000000  -0.000003
    33  H    0.000000   0.000001   0.000000   0.000000   0.000000   0.000000
    34  H    0.000005  -0.005632   0.000066   0.000543   0.008173   0.000000
    35  H    0.004887   0.000003  -0.000284  -0.000003  -0.000008  -0.009377
    36  H   -0.002385  -0.000096  -0.000089  -0.000002  -0.000002  -0.002227
    37  H    0.766193   0.010459   0.004825  -0.000052  -0.000016  -0.000042
    38  H    0.010459   0.747220   0.009936  -0.002032   0.007072   0.000000
    39  H    0.004825   0.009936   0.732163  -0.005153   0.010949   0.000001
    40  H   -0.000052  -0.002032  -0.005153   0.780815  -0.054736   0.000000
    41  H   -0.000016   0.007072   0.010949  -0.054736   0.709296   0.000000
    42  H   -0.000042   0.000000   0.000001   0.000000   0.000000   0.547977
    43  H   -0.006417  -0.000573   0.000039  -0.000014   0.000005  -0.000002
    44  H   -0.000611  -0.012893  -0.001352   0.003332  -0.000188   0.000000
    45  H    0.000000  -0.000041  -0.000298  -0.002671  -0.006894   0.000000
             43         44         45
     1  C   -0.000016  -0.000003   0.000016
     2  C   -0.000003   0.000000   0.000000
     3  C    0.000001   0.000000   0.000000
     4  C   -0.000004   0.000000   0.000000
     5  C    0.000136   0.000001   0.000001
     6  C    0.000001   0.000000   0.000000
     7  O   -0.000070   0.000014   0.000000
     8  O    0.000000   0.000000   0.000000
     9  O    0.000000   0.000000   0.000000
    10  O    0.000000   0.000000   0.000000
    11  O   -0.000006   0.000005  -0.000009
    12  O   -0.000010   0.000248   0.000001
    13  C   -0.000171   0.000016  -0.000001
    14  C    0.008067  -0.000585   0.000016
    15  C   -0.049380   0.007088   0.000022
    16  C   -0.002136  -0.040694  -0.000482
    17  C    0.000818   0.001356   0.005158
    18  C   -0.000040   0.000160  -0.033680
    19  O    0.000002   0.000000   0.000000
    20  O   -0.000231  -0.000030  -0.000077
    21  O    0.344218  -0.000307   0.000000
    22  O    0.008938   0.348627   0.000007
    23  O    0.000000  -0.000034   0.339415
    24  H    0.000018   0.000001  -0.000029
    25  H    0.000000   0.000000   0.000000
    26  H   -0.000009   0.000000   0.000000
    27  H    0.000000   0.000000   0.000000
    28  H   -0.000546   0.000006   0.000000
    29  H    0.000000   0.000001   0.000000
    30  H    0.000004  -0.000001   0.000000
    31  H    0.000002   0.000000   0.000000
    32  H    0.000000   0.000000   0.000000
    33  H    0.000000   0.000000   0.000000
    34  H    0.000004  -0.000033  -0.000036
    35  H    0.000032  -0.000002   0.000000
    36  H   -0.000383   0.000002   0.000000
    37  H   -0.006417  -0.000611   0.000000
    38  H   -0.000573  -0.012893  -0.000041
    39  H    0.000039  -0.001352  -0.000298
    40  H   -0.000014   0.003332  -0.002671
    41  H    0.000005  -0.000188  -0.006894
    42  H   -0.000002   0.000000   0.000000
    43  H    0.550044  -0.000488   0.000000
    44  H   -0.000488   0.545763   0.000002
    45  H    0.000000   0.000002   0.559681
 Mulliken atomic charges:
              1
     1  C    0.260770
     2  C    0.167138
     3  C    0.123906
     4  C    0.160667
     5  C    0.066588
     6  C    0.206759
     7  O   -0.333817
     8  O   -0.288775
     9  O   -0.280965
    10  O   -0.268357
    11  O   -0.362228
    12  O   -0.274297
    13  C    0.234866
    14  C    0.137336
    15  C    0.179073
    16  C    0.064069
    17  C    0.123670
    18  C    0.158846
    19  O   -0.254451
    20  O   -0.310393
    21  O   -0.238813
    22  O   -0.262190
    23  O   -0.254573
    24  H    0.018034
    25  H   -0.008367
    26  H   -0.011159
    27  H   -0.021518
    28  H    0.014838
    29  H   -0.000237
    30  H    0.034527
    31  H    0.139757
    32  H    0.145356
    33  H    0.149333
    34  H    0.150369
    35  H    0.014378
    36  H    0.022798
    37  H   -0.011684
    38  H    0.002206
    39  H    0.005114
    40  H   -0.009728
    41  H    0.019527
    42  H    0.152958
    43  H    0.148170
    44  H    0.150599
    45  H    0.139899
 Sum of Mulliken charges=   0.00000
 Atomic charges with hydrogens summed into heavy atoms:
              1
     1  C    0.278804
     2  C    0.158772
     3  C    0.112747
     4  C    0.139148
     5  C    0.081427
     6  C    0.241048
     7  O   -0.333817
     8  O   -0.149018
     9  O   -0.135609
    10  O   -0.119024
    11  O   -0.362228
    12  O   -0.123928
    13  C    0.272042
    14  C    0.137336
    15  C    0.167389
    16  C    0.066275
    17  C    0.128784
    18  C    0.168645
    19  O   -0.101493
    20  O   -0.310393
    21  O   -0.090642
    22  O   -0.111591
    23  O   -0.114674
    24  H    0.000000
    25  H    0.000000
    26  H    0.000000
    27  H    0.000000
    28  H    0.000000
    29  H    0.000000
    30  H    0.000000
    31  H    0.000000
    32  H    0.000000
    33  H    0.000000
    34  H    0.000000
    35  H    0.000000
    36  H    0.000000
    37  H    0.000000
    38  H    0.000000
    39  H    0.000000
    40  H    0.000000
    41  H    0.000000
    42  H    0.000000
    43  H    0.000000
    44  H    0.000000
    45  H    0.000000
 Sum of Mulliken charges=   0.00000
 Electronic spatial extent (au):  <R**2>=  6796.1996
 Charge=     0.0000 electrons
 Dipole moment (field-independent basis, Debye):
    X=     2.7830    Y=     0.8268    Z=     0.3158  Tot=     2.9204
 Quadrupole moment (field-independent basis, Debye-Ang):
   XX=  -139.1428   YY=  -123.2510   ZZ=  -128.9306
   XY=    -3.7604   XZ=     1.1462   YZ=    10.6881
 Traceless Quadrupole moment (field-independent basis, Debye-Ang):
   XX=    -8.7014   YY=     7.1905   ZZ=     1.5109
   XY=    -3.7604   XZ=     1.1462   YZ=    10.6881
 Octapole moment (field-independent basis, Debye-Ang**2):
  XXX=   -16.0605  YYY=    99.6860  ZZZ=   -16.5500  XYY=    35.4008
  XXY=   -12.4908  XXZ=    10.4751  XZZ=    19.6723  YZZ=   -23.4074
  YYZ=    15.4980  XYZ=     7.5023
 Hexadecapole moment (field-independent basis, Debye-Ang**3):
 XXXX= -4506.0140 YYYY= -2244.0617 ZZZZ= -1060.6319 XXXY=  -106.1614
 XXXZ=   -61.3081 YYYX=    -1.6830 YYYZ=    43.1066 ZZZX=   -73.8267
 ZZZY=    15.7085 XXYY= -1066.6804 XXZZ=  -931.2126 YYZZ=  -616.0943
 XXYZ=    68.9870 YYXZ=     0.7145 ZZXY=   -56.7894
 N-N= 2.424812311465D+03 E-N=-7.896841070068D+03  KE= 1.290521037038D+03
 Calculating spin-rotation constants.
 Leave Link  601 at Tue May 25 17:50:07 2010, MaxMem= 8589934592 cpu:     299.0
 (Enter /home/system/software/orac/g03_E.01/g03/l9999.exe)

 Test job not archived.
 1\1\GINC-ORAC\SP\RB3LYP\Gen\C12H22O11\KUPROV\25-May-2010\0\\#P Geom=Al
 lCheck Guess=Read SCRF=Check GenChk RB3LYP/ChkBas NMR=ReadFC IOp(3/6=2
 2)\\Sucrose NMR properties.\\0,1\C,0,-0.1540004597,0.9834221064,-0.647
 1401948\C,0,-0.5118793475,1.20858709,-2.1213157186\C,0,-0.1256715266,-
 0.029163177,-2.9343065299\C,0,1.3457284431,-0.3652705381,-2.7274196794
 \C,0,1.6181593002,-0.5350658377,-1.2319441528\C,0,3.0875383018,-0.7535
 68303,-0.8994712056\O,0,-0.9683721266,-0.0776460687,-0.1917515663\O,0,
 -1.8743766325,1.541208966,-2.3207968809\O,0,-0.3287274292,0.1828986716
 ,-4.3271620275\O,0,1.707814954,-1.570208786,-3.3859887414\O,0,1.226509
 5348,0.6663940495,-0.5253698162\O,0,3.3076240895,-0.7772566853,0.50749
 77427\C,0,-3.0161153627,-0.0132758584,0.9973107143\C,0,-1.4958532387,-
 0.0955851849,1.1410849076\C,0,-1.0326337317,-1.3771960303,1.8561744895
 \C,0,0.2961202867,-0.9489157624,2.4672270582\C,0,-0.0181471162,0.49511
 72733,2.8848435479\C,0,1.1777629639,1.4237801475,2.9059928841\O,0,-3.3
 301787827,1.0796908353,0.1405201832\O,0,-1.0144081667,0.9625480202,1.9
 381871482\O,0,-0.9779297324,-2.4805026202,0.9853655746\O,0,0.623873148
 6,-1.8160318127,3.5450625984\O,0,0.7888997744,2.6475777797,3.504325672
 6\H,0,-0.309249489,1.8847381103,-0.0421362259\H,0,0.0871987052,2.06111
 66495,-2.4858987333\H,0,-0.731981974,-0.8855798931,-2.5820545517\H,0,1
 .9501738558,0.4853824777,-3.1070890669\H,0,1.0248409479,-1.3827227997,
 -0.8491776043\H,0,3.6999271223,0.0331623972,-1.3835140545\H,0,3.406481
 2115,-1.7256242138,-1.2998456088\H,0,-2.3855397924,1.162708092,-1.5774
 052565\H,0,-1.235706728,0.5207130825,-4.4093844321\H,0,1.3257413076,-1
 .5078848617,-4.2761489588\H,0,2.9936921189,0.0837145225,0.8242094208\H
 ,0,-3.4541105411,0.125302697,2.0008845645\H,0,-3.3689202435,-0.9726845
 285,0.5747412391\H,0,-1.7291547806,-1.564877471,2.7008809916\H,0,1.081
 4297908,-0.9750973343,1.693868016\H,0,-0.4735119688,0.4897123732,3.891
 3979881\H,0,1.979212392,0.9200355198,3.4904014154\H,0,1.5389916236,1.5
 611511071,1.8690391254\H,0,-4.2847739981,1.2304843698,0.1711495983\H,0
 ,-0.599535387,-3.2125658083,1.4968853441\H,0,1.586158949,-1.8208953314
 ,3.6437855652\H,0,1.512012054,3.2798062484,3.3922808965\\Version=IA64L
 -G03RevE.01\State=1-A\HF=-1297.9854596\RMSD=5.397e-09\Thermal=0.\Dipol
 e=-0.4491971,0.0196237,1.0573357\PG=C01 [X(C12H22O11)]\\@


 IT IS IMPOSSIBLE TO MEDITATE ON TIME AND THE MYSTERY 
 OF NATURE WITHOUT AN OVERWHELMING EMOTION AT THE
 LIMITATIONS OF HUMAN INTELLIGENCE.

                                         -- ALFRED NORTH WHITEHEAD
 Job cpu time:  1 days 10 hours 32 minutes 18.3 seconds.
 File lengths (MBytes):  RWF=   1927 Int=      0 D2E=      0 Chk=     57 Scr=      1
 Normal termination of Gaussian 03 at Tue May 25 17:50:09 2010.
