 Entering Link 1 = C:\G09W\l1.exe PID=       300.
  
 Copyright (c) 1988,1990,1992,1993,1995,1998,2003,2009,2011,
            Gaussian, Inc.  All Rights Reserved.
  
 This is part of the Gaussian(R) 09 program.  It is based on
 the Gaussian(R) 03 system (copyright 2003, Gaussian, Inc.),
 the Gaussian(R) 98 system (copyright 1998, Gaussian, Inc.),
 the Gaussian(R) 94 system (copyright 1995, Gaussian, Inc.),
 the Gaussian 92(TM) system (copyright 1992, Gaussian, Inc.),
 the Gaussian 90(TM) system (copyright 1990, Gaussian, Inc.),
 the Gaussian 88(TM) system (copyright 1988, Gaussian, Inc.),
 the Gaussian 86(TM) system (copyright 1986, Carnegie Mellon
 University), and the Gaussian 82(TM) system (copyright 1983,
 Carnegie Mellon University). Gaussian is a federally registered
 trademark of Gaussian, Inc.
  
 This software contains proprietary and confidential information,
 including trade secrets, belonging to Gaussian, Inc.
  
 This software is provided under written license and may be
 used, copied, transmitted, or stored only in accord with that
 written license.
  
 The following legend is applicable only to US Government
 contracts under FAR:
  
                    RESTRICTED RIGHTS LEGEND
  
 Use, reproduction and disclosure by the US Government is
 subject to restrictions as set forth in subparagraphs (a)
 and (c) of the Commercial Computer Software - Restricted
 Rights clause in FAR 52.227-19.
  
 Gaussian, Inc.
 340 Quinnipiac St., Bldg. 40, Wallingford CT 06492
  
  
 ---------------------------------------------------------------
 Warning -- This program may not be used in any manner that
 competes with the business of Gaussian, Inc. or will provide
 assistance to any competitor of Gaussian, Inc.  The licensee
 of this program is prohibited from giving any competitor of
 Gaussian, Inc. access to this program.  By using this program,
 the user acknowledges that Gaussian, Inc. is engaged in the
 business of creating and licensing software in the field of
 computational chemistry and represents and warrants to the
 licensee that it is not a competitor of Gaussian, Inc. and that
 it will not use this program in any manner prohibited above.
 ---------------------------------------------------------------
  

 Cite this work as:
 Gaussian 09, Revision C.01,
 M. J. Frisch, G. W. Trucks, H. B. Schlegel, G. E. Scuseria, 
 M. A. Robb, J. R. Cheeseman, G. Scalmani, V. Barone, B. Mennucci, 
 G. A. Petersson, H. Nakatsuji, M. Caricato, X. Li, H. P. Hratchian, 
 A. F. Izmaylov, J. Bloino, G. Zheng, J. L. Sonnenberg, M. Hada, 
 M. Ehara, K. Toyota, R. Fukuda, J. Hasegawa, M. Ishida, T. Nakajima, 
 Y. Honda, O. Kitao, H. Nakai, T. Vreven, J. A. Montgomery, Jr., 
 J. E. Peralta, F. Ogliaro, M. Bearpark, J. J. Heyd, E. Brothers, 
 K. N. Kudin, V. N. Staroverov, T. Keith, R. Kobayashi, J. Normand, 
 K. Raghavachari, A. Rendell, J. C. Burant, S. S. Iyengar, J. Tomasi, 
 M. Cossi, N. Rega, J. M. Millam, M. Klene, J. E. Knox, J. B. Cross, 
 V. Bakken, C. Adamo, J. Jaramillo, R. Gomperts, R. E. Stratmann, 
 O. Yazyev, A. J. Austin, R. Cammi, C. Pomelli, J. W. Ochterski, 
 R. L. Martin, K. Morokuma, V. G. Zakrzewski, G. A. Voth, 
 P. Salvador, J. J. Dannenberg, S. Dapprich, A. D. Daniels, 
 O. Farkas, J. B. Foresman, J. V. Ortiz, J. Cioslowski, 
 and D. J. Fox, Gaussian, Inc., Wallingford CT, 2010.
 
 ******************************************
 Gaussian 09:  EM64W-G09RevC.01 23-Sep-2011
                09-May-2013 
 ******************************************
 %mem=24GB
 %nprocshared=24
 Will use up to   24 processors via shared memory.
 ----------------------------------------------------------------------
 #p nmr=(giao,spinspin,mixed) b3lyp/cc-pvtz integral=(grid=ultrafine) s
 cf=tight
 ----------------------------------------------------------------------
 1/38=1/1;
 2/12=2,17=6,18=5,40=1/2;
 3/5=16,6=1,10=1100000,11=2,16=1,25=1,30=1,74=-5,75=-5/1,2,8,3;
 4//1;
 5/5=2,32=2,38=5/2;
 8/6=1,10=90,11=11/1;
 10/13=100,45=16,47=3/2;
 6/7=2,8=2,9=2,10=2,28=1/1;
 99/9=1/99;
 Leave Link    1 at Thu May 09 11:43:54 2013, MaxMem= 3221225472 cpu:       0.0
 (Enter C:\G09W\l101.exe)
 -------------------------------------------
 Tryptophan crystal structure NMR parameters
 -------------------------------------------
 Charge =  0 Multiplicity = 1
 Symbolic Z-Matrix:
 N                     1.60132  -1.98705  -0.42699 
 C                     0.32543  -1.75465  -0.86646 
 C                     0.04771  -0.42605  -0.80417 
 C                     1.58428   1.54231  -0.05582 
 C                     2.85284   1.82233   0.39599 
 C                     3.78377   0.80312   0.61046 
 C                     3.46895  -0.5154    0.3821 
 C                     2.18594  -0.79561  -0.07605 
 C                     1.22756   0.21859  -0.30275 
 C                    -1.22859   0.23487  -1.19502 
 C                    -2.05467   0.73882  -0.00074 
 C                    -2.67626  -0.40343   0.79025 
 O                    -3.8937   -0.66578   0.58047 
 O                    -1.93435  -0.98768   1.5912 
 N                    -3.1258    1.64867  -0.48364 
 H                     2.02348  -2.89253  -0.3371 
 H                    -0.31383  -2.57036  -1.15814 
 H                     0.87991   2.34834  -0.22324 
 H                     3.14032   2.8474    0.58904 
 H                     4.77275   1.05838   0.96754 
 H                     4.19306  -1.30241   0.54801 
 H                    -1.84504  -0.45584  -1.77664 
 H                    -1.00473   1.09038  -1.84786 
 H                    -1.40866   1.30772   0.6644 
 H                    -3.25756   2.46449   0.10653 
 H                    -3.95356   0.97638  -0.3422 
 H                    -3.03228   1.93494  -1.45598 
 
 NAtoms=     27 NQM=        0 NQMF=       0 NMMI=     27 NMMIF=      0
                NMic=       0 NMicF=      0.
                    Isotopes and Nuclear Properties:
 (Nuclear quadrupole moments (NQMom) in fm**2, nuclear magnetic moments (NMagM)
  in nuclear magnetons)

  Atom         1           2           3           4           5           6           7           8           9          10
 IAtWgt=          14          12          12          12          12          12          12          12          12          12
 AtmWgt=  14.0030740  12.0000000  12.0000000  12.0000000  12.0000000  12.0000000  12.0000000  12.0000000  12.0000000  12.0000000
 NucSpn=           2           0           0           0           0           0           0           0           0           0
 AtZEff=   0.0000000   0.0000000   0.0000000   0.0000000   0.0000000   0.0000000   0.0000000   0.0000000   0.0000000   0.0000000
 NQMom=    2.0440000   0.0000000   0.0000000   0.0000000   0.0000000   0.0000000   0.0000000   0.0000000   0.0000000   0.0000000
 NMagM=    0.4037610   0.0000000   0.0000000   0.0000000   0.0000000   0.0000000   0.0000000   0.0000000   0.0000000   0.0000000

  Atom        11          12          13          14          15          16          17          18          19          20
 IAtWgt=          12          12          16          16          14           1           1           1           1           1
 AtmWgt=  12.0000000  12.0000000  15.9949146  15.9949146  14.0030740   1.0078250   1.0078250   1.0078250   1.0078250   1.0078250
 NucSpn=           0           0           0           0           2           1           1           1           1           1
 AtZEff=   0.0000000   0.0000000   0.0000000   0.0000000   0.0000000   0.0000000   0.0000000   0.0000000   0.0000000   0.0000000
 NQMom=    0.0000000   0.0000000   0.0000000   0.0000000   2.0440000   0.0000000   0.0000000   0.0000000   0.0000000   0.0000000
 NMagM=    0.0000000   0.0000000   0.0000000   0.0000000   0.4037610   2.7928460   2.7928460   2.7928460   2.7928460   2.7928460

  Atom        21          22          23          24          25          26          27
 IAtWgt=           1           1           1           1           1           1           1
 AtmWgt=   1.0078250   1.0078250   1.0078250   1.0078250   1.0078250   1.0078250   1.0078250
 NucSpn=           1           1           1           1           1           1           1
 AtZEff=   0.0000000   0.0000000   0.0000000   0.0000000   0.0000000   0.0000000   0.0000000
 NQMom=    0.0000000   0.0000000   0.0000000   0.0000000   0.0000000   0.0000000   0.0000000
 NMagM=    2.7928460   2.7928460   2.7928460   2.7928460   2.7928460   2.7928460   2.7928460
 Leave Link  101 at Thu May 09 11:43:54 2013, MaxMem= 3221225472 cpu:       0.0
 (Enter C:\G09W\l202.exe)
                          Input orientation:                          
 ---------------------------------------------------------------------
 Center     Atomic      Atomic             Coordinates (Angstroms)
 Number     Number       Type             X           Y           Z
 ---------------------------------------------------------------------
      1          7           0        1.601324   -1.987052   -0.426991
      2          6           0        0.325434   -1.754651   -0.866462
      3          6           0        0.047710   -0.426053   -0.804168
      4          6           0        1.584283    1.542313   -0.055821
      5          6           0        2.852842    1.822331    0.395989
      6          6           0        3.783772    0.803116    0.610459
      7          6           0        3.468945   -0.515396    0.382101
      8          6           0        2.185941   -0.795609   -0.076051
      9          6           0        1.227560    0.218585   -0.302751
     10          6           0       -1.228592    0.234873   -1.195023
     11          6           0       -2.054667    0.738822   -0.000743
     12          6           0       -2.676259   -0.403428    0.790252
     13          8           0       -3.893699   -0.665780    0.580471
     14          8           0       -1.934347   -0.987680    1.591201
     15          7           0       -3.125796    1.648674   -0.483642
     16          1           0        2.023478   -2.892533   -0.337102
     17          1           0       -0.313834   -2.570362   -1.158141
     18          1           0        0.879914    2.348337   -0.223237
     19          1           0        3.140320    2.847403    0.589039
     20          1           0        4.772746    1.058384    0.967540
     21          1           0        4.193063   -1.302410    0.548014
     22          1           0       -1.845044   -0.455838   -1.776638
     23          1           0       -1.004731    1.090382   -1.847857
     24          1           0       -1.408661    1.307716    0.664399
     25          1           0       -3.257560    2.464488    0.106528
     26          1           0       -3.953556    0.976382   -0.342203
     27          1           0       -3.032284    1.934941   -1.455977
 ---------------------------------------------------------------------
                    Distance matrix (angstroms):
                    1          2          3          4          5
     1  N    0.000000
     2  C    1.369321   0.000000
     3  C    2.234434   1.358743   0.000000
     4  C    3.548870   3.621024   2.606827   0.000000
     5  C    4.093286   4.558111   3.790036   1.375421   0.000000
     6  C    3.691127   4.547919   4.179735   2.414144   1.396935
     7  C    2.511655   3.602266   3.622163   2.824516   2.417590
     8  C    1.372761   2.237409   2.288833   2.414183   2.742479
     9  C    2.240529   2.241710   1.434930   1.393012   2.387840
    10  C    3.679028   2.545811   1.489476   3.304459   4.659340
    11  C    4.580213   3.554118   2.534248   3.727008   5.041332
    12  C    4.720939   3.685195   3.156374   4.759618   5.973308
    13  O    5.740733   4.591333   4.184423   5.940440   7.193090
    14  O    4.191994   3.425633   3.159394   4.636195   5.678193
    15  N    5.963839   4.862115   3.805045   4.730665   6.045496
    16  H    1.003090   2.111481   3.194579   4.465408   4.843058
    17  H    2.131352   1.076627   2.203196   4.661765   5.633730
    18  H    4.399721   4.189952   2.954198   1.083438   2.133675
    19  H    5.174242   5.587573   4.713892   2.130811   1.081982
    20  H    4.612734   5.572729   5.260082   3.383453   2.143902
    21  H    2.852452   4.142924   4.447510   3.906763   3.403426
    22  H    4.005448   2.688180   2.128169   4.325980   5.655130
    23  H    4.275627   3.290393   2.120494   3.180979   4.522329
    24  H    4.594196   3.837800   2.698826   3.087307   4.300846
    25  H    6.611324   5.620115   4.484351   4.931552   6.150867
    26  H    6.296493   5.103248   4.265016   5.574043   6.898377
    27  H    6.157204   5.023434   3.935163   4.840174   6.170670
                    6          7          8          9         10
     6  C    0.000000
     7  C    1.374677   0.000000
     8  C    2.362262   1.390871   0.000000
     9  C    2.776661   2.455923   1.413675   0.000000
    10  C    5.357841   5.011694   3.738051   2.613254   0.000000
    11  C    5.870696   5.677140   4.510311   3.336895   1.537098
    12  C    6.574198   6.159761   4.954319   4.101385   2.538599
    13  O    7.816784   7.366851   6.116363   5.271572   3.326612
    14  O    6.071712   5.557026   4.448977   3.878116   3.123423
    15  N    7.046570   6.994521   5.861331   4.585802   2.470684
    16  H    4.201705   2.873571   2.119347   3.211498   4.592674
    17  H    5.594522   4.572160   3.251083   3.299366   2.950845
    18  H    3.393398   3.907746   3.407604   2.159404   3.139569
    19  H    2.143268   3.385149   3.824228   3.371146   5.394032
    20  H    1.082007   2.125893   3.349318   3.858399   6.432022
    21  H    2.145847   1.082250   2.162139   3.439685   5.898793
    22  H    6.242337   5.736042   4.388198   3.473915   1.093330
    23  H    5.390325   5.250239   4.108120   2.851404   1.099182
    24  H    5.217173   5.214832   4.230060   3.011851   2.154267
    25  H    7.252204   7.362168   6.347698   5.032682   3.283585
    26  H    7.797681   7.605494   6.395640   5.236390   2.950011
    27  H    7.211782   7.186700   6.048964   4.735196   2.492315
                   11         12         13         14         15
    11  C    0.000000
    12  C    1.522099   0.000000
    13  O    2.385950   1.262932   0.000000
    14  O    2.351504   1.238266   2.228061   0.000000
    15  N    1.486048   2.456830   2.660584   3.560181   0.000000
    16  H    5.470936   5.436368   6.388533   4.796999   6.867245
    17  H    3.914175   3.751385   4.411988   3.562278   5.114914
    18  H    3.354371   4.609310   5.702476   4.726654   4.074684
    19  H    5.637539   6.666407   7.862566   6.439288   6.469297
    20  H    6.903134   7.593155   8.844763   7.039917   8.052412
    21  H    6.595596   6.932130   8.111848   6.223540   7.958574
    22  H    2.150571   2.698627   3.130020   3.410743   2.782290
    23  H    2.153553   3.461949   4.162573   4.124275   2.582961
    24  H    1.087832   2.133227   3.174452   2.530642   2.093515
    25  H    2.106272   3.005051   3.229222   3.984044   1.015488
    26  H    1.943916   2.194953   1.884571   3.416547   1.075718
    27  H    2.122296   3.261942   3.413635   4.362622   1.017904
                   16         17         18         19         20
    16  H    0.000000
    17  H    2.498185   0.000000
    18  H    5.365391   5.147104   0.000000
    19  H    5.920468   6.658528   2.453221   0.000000
    20  H    4.987014   6.599971   4.270371   2.451258   0.000000
    21  H    2.831788   4.983050   4.989964   4.281460   2.466857
    22  H    4.793246   2.682975   4.207356   6.431305   7.322467
    23  H    5.226475   3.788680   2.788141   5.119280   6.427031
    24  H    5.515857   4.422645   2.666152   4.803076   6.193856
    25  H    7.535506   5.967799   4.152220   6.427465   8.197822
    26  H    7.119934   5.147108   5.025818   7.395337   8.824426
    27  H    7.079344   5.270335   4.122601   6.566256   8.219506
                   21         22         23         24         25
    21  H    0.000000
    22  H    6.525291   0.000000
    23  H    6.203444   1.761248   0.000000
    24  H    6.181069   3.042896   2.553786   0.000000
    25  H    8.360396   3.750976   3.283752   2.251171   0.000000
    26  H    8.506044   2.924839   3.312938   2.756723   1.703006
    27  H    8.167133   2.688529   2.231103   2.743275   1.665110
                   26         27
    26  H    0.000000
    27  H    1.734379   0.000000
 Stoichiometry    C11H12N2O2
 Framework group  C1[X(C11H12N2O2)]
 Deg. of freedom    75
 Full point group                 C1      NOp   1
 Largest Abelian subgroup         C1      NOp   1
 Largest concise Abelian subgroup C1      NOp   1
                         Standard orientation:                         
 ---------------------------------------------------------------------
 Center     Atomic      Atomic             Coordinates (Angstroms)
 Number     Number       Type             X           Y           Z
 ---------------------------------------------------------------------
      1          7           0        1.601324   -1.987052   -0.426991
      2          6           0        0.325434   -1.754651   -0.866462
      3          6           0        0.047710   -0.426053   -0.804168
      4          6           0        1.584283    1.542313   -0.055821
      5          6           0        2.852842    1.822331    0.395989
      6          6           0        3.783772    0.803116    0.610459
      7          6           0        3.468945   -0.515396    0.382101
      8          6           0        2.185941   -0.795609   -0.076051
      9          6           0        1.227560    0.218585   -0.302751
     10          6           0       -1.228592    0.234873   -1.195023
     11          6           0       -2.054667    0.738822   -0.000743
     12          6           0       -2.676259   -0.403428    0.790252
     13          8           0       -3.893699   -0.665780    0.580471
     14          8           0       -1.934347   -0.987680    1.591201
     15          7           0       -3.125796    1.648674   -0.483642
     16          1           0        2.023478   -2.892533   -0.337102
     17          1           0       -0.313834   -2.570362   -1.158141
     18          1           0        0.879914    2.348337   -0.223237
     19          1           0        3.140320    2.847403    0.589039
     20          1           0        4.772746    1.058384    0.967540
     21          1           0        4.193063   -1.302410    0.548014
     22          1           0       -1.845044   -0.455838   -1.776638
     23          1           0       -1.004731    1.090382   -1.847857
     24          1           0       -1.408661    1.307716    0.664399
     25          1           0       -3.257560    2.464488    0.106528
     26          1           0       -3.953556    0.976382   -0.342203
     27          1           0       -3.032284    1.934941   -1.455977
 ---------------------------------------------------------------------
 Rotational constants (GHZ):      1.2279970      0.3707116      0.3269307
 Leave Link  202 at Thu May 09 11:43:54 2013, MaxMem= 3221225472 cpu:       0.0
 (Enter C:\G09W\l301.exe)
 Standard basis: CC-pVTZ (5D, 7F)
 Converting basis for Fermi contact spin-spin IFCMod=1.
 AO basis functions are being uncontracted.
 Ernie: Thresh=  0.10000D-02 Tol=  0.10000D-05 Strict=F.
 There are  1020 symmetry adapted basis functions of A   symmetry.
 Integral buffers will be    131072 words long.
 Raffenetti 2 integral format.
 Two-electron integral symmetry is turned on.
  1020 basis functions,  1107 primitive gaussians,  1107 cartesian basis functions
    54 alpha electrons       54 beta electrons
       nuclear repulsion energy       966.1179834043 Hartrees.
 IExCor=  402 DFT=T Ex+Corr=B3LYP ExCW=0 ScaHFX=  0.200000
 ScaDFX=  0.800000  0.720000  1.000000  0.810000 ScalE2=  1.000000  1.000000
 IRadAn= 199590 IRanWt=     -1 IRanGd=            0 ICorTp=0
 NAtoms=   27 NActive=   27 NUniq=   27 SFac= 1.00D+00 NAtFMM=   60 NAOKFM=F Big=F
 Leave Link  301 at Thu May 09 11:43:54 2013, MaxMem= 3221225472 cpu:       0.0
 (Enter C:\G09W\l302.exe)
 NPDir=0 NMtPBC=     1 NCelOv=     1 NCel=       1 NClECP=     1 NCelD=      1
         NCelK=      1 NCelE2=     1 NClLst=     1 CellRange=     0.0.
 One-electron integrals computed using PRISM.
 NBasis=  1020 RedAO= T  NBF=  1020
 NBsUse=   900 1.00D-06 NBFU=   900
 Precomputing XC quadrature grid using
 IXCGrd= 2 IRadAn=      199590 IRanWt=          -1 IRanGd=           0 AccXCQ= 0.00D+00.
 NRdTot=    5373 NPtTot=     2673290 NUsed=     2711265 NTot=     2711297
 NSgBfM=   854   854   854   854   854 NAtAll=    27    27.
 Leave Link  302 at Thu May 09 11:44:04 2013, MaxMem= 3221225472 cpu:      10.0
 (Enter C:\G09W\l308.exe)
 Leave Link  308 at Thu May 09 11:44:05 2013, MaxMem= 3221225472 cpu:       1.0
 (Enter C:\G09W\l303.exe)
 DipDrv:  MaxL=1.
 Leave Link  303 at Thu May 09 11:44:06 2013, MaxMem= 3221225472 cpu:       1.0
 (Enter C:\G09W\l401.exe)
 Harris functional with IExCor=  402 diagonalized for initial guess.
 ExpMin= 1.03D-01 ExpMax= 1.38D+05 ExpMxC= 1.38D+05 IAcc=4 IRadAn=    199590 AccDes= 0.00D+00
 HarFok:  IExCor=  402 AccDes= 0.00D+00 IRadAn=    199590 IDoV= 1
 ScaDFX=  1.000000  1.000000  1.000000  1.000000
 FoFCou: FMM=F IPFlag=           0 FMFlag=      100000 FMFlg1=           0
         NFxFlg=           0 DoJE=T BraDBF=F KetDBF=T FulRan=T
         Omega=  0.000000  0.000000  1.000000  0.000000  0.000000 ICntrl=     500 IOpCl=  0
         NMat0=    1 NMatS0=    1 NMatT0=    0 NMatD0=    1 NMtDS0=    0 NMtDT0=    0
         I1Cent=           4 NGrid=           0.
 Petite list used in FoFCou.
 Harris En= -686.684877468143    
 Initial guess orbital symmetries:
       Occupied  (A) (A) (A) (A) (A) (A) (A) (A) (A) (A) (A) (A)
                 (A) (A) (A) (A) (A) (A) (A) (A) (A) (A) (A) (A)
                 (A) (A) (A) (A) (A) (A) (A) (A) (A) (A) (A) (A)
                 (A) (A) (A) (A) (A) (A) (A) (A) (A) (A) (A) (A)
                 (A) (A) (A) (A) (A) (A)
       Virtual   (A) (A) (A) (A) (A) (A) (A) (A) (A) (A) (A) (A)
                 (A) (A) (A) (A) (A) (A) (A) (A) (A) (A) (A) (A)
                 (A) (A) (A) (A) (A) (A) (A) (A) (A) (A) (A) (A)
                 (A) (A) (A) (A) (A) (A) (A) (A) (A) (A) (A) (A)
                 (A) (A) (A) (A) (A) (A) (A) (A) (A) (A) (A) (A)
                 (A) (A) (A) (A) (A) (A) (A) (A) (A) (A) (A) (A)
                 (A) (A) (A) (A) (A) (A) (A) (A) (A) (A) (A) (A)
                 (A) (A) (A) (A) (A) (A) (A) (A) (A) (A) (A) (A)
                 (A) (A) (A) (A) (A) (A) (A) (A) (A) (A) (A) (A)
                 (A) (A) (A) (A) (A) (A) (A) (A) (A) (A) (A) (A)
                 (A) (A) (A) (A) (A) (A) (A) (A) (A) (A) (A) (A)
                 (A) (A) (A) (A) (A) (A) (A) (A) (A) (A) (A) (A)
                 (A) (A) (A) (A) (A) (A) (A) (A) (A) (A) (A) (A)
                 (A) (A) (A) (A) (A) (A) (A) (A) (A) (A) (A) (A)
                 (A) (A) (A) (A) (A) (A) (A) (A) (A) (A) (A) (A)
                 (A) (A) (A) (A) (A) (A) (A) (A) (A) (A) (A) (A)
                 (A) (A) (A) (A) (A) (A) (A) (A) (A) (A) (A) (A)
                 (A) (A) (A) (A) (A) (A) (A) (A) (A) (A) (A) (A)
                 (A) (A) (A) (A) (A) (A) (A) (A) (A) (A) (A) (A)
                 (A) (A) (A) (A) (A) (A) (A) (A) (A) (A) (A) (A)
                 (A) (A) (A) (A) (A) (A) (A) (A) (A) (A) (A) (A)
                 (A) (A) (A) (A) (A) (A) (A) (A) (A) (A) (A) (A)
                 (A) (A) (A) (A) (A) (A) (A) (A) (A) (A) (A) (A)
                 (A) (A) (A) (A) (A) (A) (A) (A) (A) (A) (A) (A)
                 (A) (A) (A) (A) (A) (A) (A) (A) (A) (A) (A) (A)
                 (A) (A) (A) (A) (A) (A) (A) (A) (A) (A) (A) (A)
                 (A) (A) (A) (A) (A) (A) (A) (A) (A) (A) (A) (A)
                 (A) (A) (A) (A) (A) (A) (A) (A) (A) (A) (A) (A)
                 (A) (A) (A) (A) (A) (A) (A) (A) (A) (A) (A) (A)
                 (A) (A) (A) (A) (A) (A) (A) (A) (A) (A) (A) (A)
                 (A) (A) (A) (A) (A) (A) (A) (A) (A) (A) (A) (A)
                 (A) (A) (A) (A) (A) (A) (A) (A) (A) (A) (A) (A)
                 (A) (A) (A) (A) (A) (A) (A) (A) (A) (A) (A) (A)
                 (A) (A) (A) (A) (A) (A) (A) (A) (A) (A) (A) (A)
                 (A) (A) (A) (A) (A) (A) (A) (A) (A) (A) (A) (A)
                 (A) (A) (A) (A) (A) (A) (A) (A) (A) (A) (A) (A)
                 (A) (A) (A) (A) (A) (A) (A) (A) (A) (A) (A) (A)
                 (A) (A) (A) (A) (A) (A) (A) (A) (A) (A) (A) (A)
                 (A) (A) (A) (A) (A) (A) (A) (A) (A) (A) (A) (A)
                 (A) (A) (A) (A) (A) (A) (A) (A) (A) (A) (A) (A)
                 (A) (A) (A) (A) (A) (A) (A) (A) (A) (A) (A) (A)
                 (A) (A) (A) (A) (A) (A) (A) (A) (A) (A) (A) (A)
                 (A) (A) (A) (A) (A) (A) (A) (A) (A) (A) (A) (A)
                 (A) (A) (A) (A) (A) (A) (A) (A) (A) (A) (A) (A)
                 (A) (A) (A) (A) (A) (A) (A) (A) (A) (A) (A) (A)
                 (A) (A) (A) (A) (A) (A) (A) (A) (A) (A) (A) (A)
                 (A) (A) (A) (A) (A) (A) (A) (A) (A) (A) (A) (A)
                 (A) (A) (A) (A) (A) (A) (A) (A) (A) (A) (A) (A)
                 (A) (A) (A) (A) (A) (A) (A) (A) (A) (A) (A) (A)
                 (A) (A) (A) (A) (A) (A) (A) (A) (A) (A) (A) (A)
                 (A) (A) (A) (A) (A) (A) (A) (A) (A) (A) (A) (A)
                 (A) (A) (A) (A) (A) (A) (A) (A) (A) (A) (A) (A)
                 (A) (A) (A) (A) (A) (A) (A) (A) (A) (A) (A) (A)
                 (A) (A) (A) (A) (A) (A) (A) (A) (A) (A) (A) (A)
                 (A) (A) (A) (A) (A) (A) (A) (A) (A) (A) (A) (A)
                 (A) (A) (A) (A) (A) (A) (A) (A) (A) (A) (A) (A)
                 (A) (A) (A) (A) (A) (A) (A) (A) (A) (A) (A) (A)
                 (A) (A) (A) (A) (A) (A) (A) (A) (A) (A) (A) (A)
                 (A) (A) (A) (A) (A) (A) (A) (A) (A) (A) (A) (A)
                 (A) (A) (A) (A) (A) (A) (A) (A) (A) (A) (A) (A)
                 (A) (A) (A) (A) (A) (A) (A) (A) (A) (A) (A) (A)
                 (A) (A) (A) (A) (A) (A) (A) (A) (A) (A) (A) (A)
                 (A) (A) (A) (A) (A) (A) (A) (A) (A) (A) (A) (A)
                 (A) (A) (A) (A) (A) (A) (A) (A) (A) (A) (A) (A)
                 (A) (A) (A) (A) (A) (A) (A) (A) (A) (A) (A) (A)
                 (A) (A) (A) (A) (A) (A) (A) (A) (A) (A) (A) (A)
                 (A) (A) (A) (A) (A) (A) (A) (A) (A) (A) (A) (A)
                 (A) (A) (A) (A) (A) (A) (A) (A) (A) (A) (A) (A)
                 (A) (A) (A) (A) (A) (A) (A) (A) (A) (A) (A) (A)
                 (A) (A) (A) (A) (A) (A) (A) (A) (A) (A) (A) (A)
                 (A) (A) (A) (A) (A) (A)
 The electronic state of the initial guess is 1-A.
 Leave Link  401 at Thu May 09 11:44:55 2013, MaxMem= 3221225472 cpu:      49.0
 (Enter C:\G09W\l502.exe)
 Closed shell SCF:
 Requested convergence on RMS density matrix=1.00D-08 within 128 cycles.
 Requested convergence on MAX density matrix=1.00D-06.
 Requested convergence on             energy=1.00D-06.
 No special actions if energy rises.
 Using DIIS extrapolation, IDIIS=  1040.
 Integral symmetry usage will be decided dynamically.
      2711009 words used for storage of precomputed grid.
 IEnd=     6440350 IEndB=     6440350 NGot=  3221225472 MDV=  3216028319
 LenX=  3216028319 LenY=  3214801763
 Fock matrices will be formed incrementally for  20 cycles.
 Integral accuracy reduced to 1.0D-05 until final iterations.

 Cycle   1  Pass 0  IDiag  1:
 FoFCou: FMM=F IPFlag=           0 FMFlag=      100000 FMFlg1=           0
         NFxFlg=           0 DoJE=F BraDBF=F KetDBF=F FulRan=T
         Omega=  0.000000  0.000000  1.000000  0.000000  0.000000 ICntrl=       0 IOpCl=  0
         NMat0=    1 NMatS0=    1 NMatT0=    0 NMatD0=    1 NMtDS0=    0 NMtDT0=    0
         I1Cent=           0 NGrid=           0.
 Symmetry not used in FoFCou.
 E= -686.152086715229    
 DIIS: error= 7.87D-02 at cycle   1 NSaved=   1.
 NSaved= 1 IEnMin= 1 EnMin= -686.152086715229     IErMin= 1 ErrMin= 7.87D-02
 ErrMax= 7.87D-02 EMaxC= 1.00D-01 BMatC= 2.38D+00 BMatP= 2.38D+00
 IDIUse=3 WtCom= 2.13D-01 WtEn= 7.87D-01
 Coeff-Com:  0.100D+01
 Coeff-En:   0.100D+01
 Coeff:      0.100D+01
 Gap=     0.206 Goal=   None    Shift=    0.000
 GapD=    0.206 DampG=1.000 DampE=0.500 DampFc=0.5000 IDamp=-1.
 Damping current iteration by 5.00D-01
 RMSDP=7.52D-03 MaxDP=1.96D+00              OVMax= 9.16D-01

 Cycle   2  Pass 0  IDiag  1:
 RMSU=  2.66D-03    CP:  1.02D+00
 E= -685.886285397004     Delta-E=        0.265801318225 Rises=F Damp=T
 DIIS: error= 3.89D-02 at cycle   2 NSaved=   2.
 NSaved= 2 IEnMin= 1 EnMin= -686.152086715229     IErMin= 2 ErrMin= 3.89D-02
 ErrMax= 3.89D-02 EMaxC= 1.00D-01 BMatC= 6.97D-01 BMatP= 2.38D+00
 IDIUse=3 WtCom= 6.11D-01 WtEn= 3.89D-01
 Coeff-Com: -0.682D-01 0.107D+01
 Coeff-En:   0.664D+00 0.336D+00
 Coeff:      0.216D+00 0.784D+00
 Gap=     0.289 Goal=   None    Shift=    0.000
 RMSDP=3.76D-03 MaxDP=9.73D-01 DE= 2.66D-01 OVMax= 4.68D-01

 Cycle   3  Pass 0  IDiag  1:
 RMSU=  4.61D-04    CP:  9.82D-01  1.71D-02
 E= -686.160567916820     Delta-E=       -0.274282519816 Rises=F Damp=F
 DIIS: error= 3.51D-02 at cycle   3 NSaved=   3.
 NSaved= 3 IEnMin= 3 EnMin= -686.160567916820     IErMin= 3 ErrMin= 3.51D-02
 ErrMax= 3.51D-02 EMaxC= 1.00D-01 BMatC= 5.42D-01 BMatP= 6.97D-01
 IDIUse=3 WtCom= 6.49D-01 WtEn= 3.51D-01
 EnCoef did     4 forward-backward iterations
 Coeff-Com: -0.224D+00 0.632D+00 0.592D+00
 Coeff-En:   0.174D+00 0.328D+00 0.498D+00
 Coeff:     -0.844D-01 0.525D+00 0.559D+00
 Gap=     0.250 Goal=   None    Shift=    0.000
 RMSDP=8.89D-04 MaxDP=1.20D-01 DE=-2.74D-01 OVMax= 2.64D-01

 Cycle   4  Pass 0  IDiag  1:
 RMSU=  5.08D-04    CP:  1.02D+00  6.18D-02  2.56D-01
 E= -686.531049803972     Delta-E=       -0.370481887152 Rises=F Damp=F
 DIIS: error= 1.23D-02 at cycle   4 NSaved=   4.
 NSaved= 4 IEnMin= 4 EnMin= -686.531049803972     IErMin= 4 ErrMin= 1.23D-02
 ErrMax= 1.23D-02 EMaxC= 1.00D-01 BMatC= 8.39D-02 BMatP= 5.42D-01
 IDIUse=3 WtCom= 8.77D-01 WtEn= 1.23D-01
 Coeff-Com: -0.140D+00 0.292D+00 0.306D+00 0.541D+00
 Coeff-En:   0.000D+00 0.000D+00 0.986D-02 0.990D+00
 Coeff:     -0.122D+00 0.256D+00 0.270D+00 0.597D+00
 Gap=     0.210 Goal=   None    Shift=    0.000
 RMSDP=4.47D-04 MaxDP=5.55D-02 DE=-3.70D-01 OVMax= 1.25D-01

 Cycle   5  Pass 0  IDiag  1:
 RMSU=  2.76D-04    CP:  1.02D+00  8.64D-02  5.40D-01  9.04D-01
 E= -686.557561889583     Delta-E=       -0.026512085611 Rises=F Damp=F
 DIIS: error= 1.18D-02 at cycle   5 NSaved=   5.
 NSaved= 5 IEnMin= 5 EnMin= -686.557561889583     IErMin= 5 ErrMin= 1.18D-02
 ErrMax= 1.18D-02 EMaxC= 1.00D-01 BMatC= 5.08D-02 BMatP= 8.39D-02
 IDIUse=3 WtCom= 8.82D-01 WtEn= 1.18D-01
 Coeff-Com: -0.760D-01 0.148D+00 0.924D-01 0.422D+00 0.414D+00
 Coeff-En:   0.000D+00 0.000D+00 0.000D+00 0.386D+00 0.614D+00
 Coeff:     -0.670D-01 0.131D+00 0.815D-01 0.417D+00 0.437D+00
 Gap=     0.200 Goal=   None    Shift=    0.000
 RMSDP=2.56D-04 MaxDP=4.25D-02 DE=-2.65D-02 OVMax= 8.59D-02

 Cycle   6  Pass 0  IDiag  1:
 RMSU=  7.91D-05    CP:  1.02D+00  8.98D-02  3.97D-01  1.10D+00  6.04D-01
 E= -686.594785459675     Delta-E=       -0.037223570092 Rises=F Damp=F
 DIIS: error= 1.63D-03 at cycle   6 NSaved=   6.
 NSaved= 6 IEnMin= 6 EnMin= -686.594785459675     IErMin= 6 ErrMin= 1.63D-03
 ErrMax= 1.63D-03 EMaxC= 1.00D-01 BMatC= 2.54D-03 BMatP= 5.08D-02
 IDIUse=3 WtCom= 9.84D-01 WtEn= 1.63D-02
 Coeff-Com: -0.199D-01 0.399D-01-0.238D-01 0.125D+00 0.232D+00 0.646D+00
 Coeff-En:   0.000D+00 0.000D+00 0.000D+00 0.000D+00 0.000D+00 0.100D+01
 Coeff:     -0.196D-01 0.393D-01-0.234D-01 0.123D+00 0.229D+00 0.652D+00
 Gap=     0.169 Goal=   None    Shift=    0.000
 RMSDP=7.18D-05 MaxDP=1.01D-02 DE=-3.72D-02 OVMax= 1.40D-02

 Cycle   7  Pass 0  IDiag  1:
 RMSU=  2.92D-05    CP:  1.03D+00  9.59D-02  3.79D-01  1.15D+00  7.03D-01
                    CP:  9.25D-01
 E= -686.596787311926     Delta-E=       -0.002001852251 Rises=F Damp=F
 DIIS: error= 5.31D-04 at cycle   7 NSaved=   7.
 NSaved= 7 IEnMin= 7 EnMin= -686.596787311926     IErMin= 7 ErrMin= 5.31D-04
 ErrMax= 5.31D-04 EMaxC= 1.00D-01 BMatC= 2.51D-04 BMatP= 2.54D-03
 IDIUse=3 WtCom= 9.95D-01 WtEn= 5.31D-03
 Coeff-Com: -0.326D-02 0.721D-02-0.218D-01 0.126D-01 0.565D-01 0.319D+00
 Coeff-Com:  0.630D+00
 Coeff-En:   0.000D+00 0.000D+00 0.000D+00 0.000D+00 0.000D+00 0.000D+00
 Coeff-En:   0.100D+01
 Coeff:     -0.324D-02 0.717D-02-0.216D-01 0.126D-01 0.562D-01 0.317D+00
 Coeff:      0.632D+00
 Gap=     0.169 Goal=   None    Shift=    0.000
 RMSDP=3.09D-05 MaxDP=6.21D-03 DE=-2.00D-03 OVMax= 6.18D-03

 Cycle   8  Pass 0  IDiag  1:
 RMSU=  1.41D-05    CP:  1.03D+00  9.83D-02  3.70D-01  1.18D+00  7.15D-01
                    CP:  9.80D-01  9.20D-01
 E= -686.596955343079     Delta-E=       -0.000168031153 Rises=F Damp=F
 DIIS: error= 3.65D-04 at cycle   8 NSaved=   8.
 NSaved= 8 IEnMin= 8 EnMin= -686.596955343079     IErMin= 8 ErrMin= 3.65D-04
 ErrMax= 3.65D-04 EMaxC= 1.00D-01 BMatC= 7.09D-05 BMatP= 2.51D-04
 IDIUse=3 WtCom= 9.96D-01 WtEn= 3.65D-03
 Coeff-Com: -0.359D-03 0.942D-03-0.694D-02-0.821D-02-0.213D-02 0.904D-01
 Coeff-Com:  0.401D+00 0.525D+00
 Coeff-En:   0.000D+00 0.000D+00 0.000D+00 0.000D+00 0.000D+00 0.000D+00
 Coeff-En:   0.223D+00 0.777D+00
 Coeff:     -0.358D-03 0.939D-03-0.691D-02-0.818D-02-0.213D-02 0.901D-01
 Coeff:      0.401D+00 0.526D+00
 Gap=     0.169 Goal=   None    Shift=    0.000
 RMSDP=9.30D-06 MaxDP=8.45D-04 DE=-1.68D-04 OVMax= 3.50D-03

 Initial convergence to 1.0D-05 achieved.  Increase integral accuracy.
 Cycle   9  Pass 1  IDiag  1:
 E= -686.596962433040     Delta-E=       -0.000007089960 Rises=F Damp=F
 DIIS: error= 2.92D-04 at cycle   1 NSaved=   1.
 NSaved= 1 IEnMin= 1 EnMin= -686.596962433040     IErMin= 1 ErrMin= 2.92D-04
 ErrMax= 2.92D-04 EMaxC= 1.00D-01 BMatC= 3.21D-05 BMatP= 3.21D-05
 IDIUse=3 WtCom= 9.97D-01 WtEn= 2.92D-03
 Coeff-Com:  0.100D+01
 Coeff-En:   0.100D+01
 Coeff:      0.100D+01
 Gap=     0.169 Goal=   None    Shift=    0.000
 RMSDP=9.30D-06 MaxDP=8.45D-04 DE=-7.09D-06 OVMax= 2.71D-03

 Cycle  10  Pass 1  IDiag  1:
 RMSU=  1.89D-04    CP:  9.85D-01
 E= -686.596949921522     Delta-E=        0.000012511518 Rises=F Damp=F
 DIIS: error= 3.23D-04 at cycle   2 NSaved=   2.
 NSaved= 2 IEnMin= 1 EnMin= -686.596962433040     IErMin= 1 ErrMin= 2.92D-04
 ErrMax= 3.23D-04 EMaxC= 1.00D-01 BMatC= 3.60D-05 BMatP= 3.21D-05
 IDIUse=3 WtCom= 3.57D-01 WtEn= 6.43D-01
 Coeff-Com:  0.519D+00 0.481D+00
 Coeff-En:   0.617D+00 0.383D+00
 Coeff:      0.582D+00 0.418D+00
 Gap=     0.169 Goal=   None    Shift=    0.000
 RMSDP=6.70D-06 MaxDP=5.53D-04 DE= 1.25D-05 OVMax= 2.45D-03

 Cycle  11  Pass 1  IDiag  1:
 RMSU=  4.62D-06    CP:  9.85D-01  1.01D+00
 E= -686.596981997512     Delta-E=       -0.000032075990 Rises=F Damp=F
 DIIS: error= 1.18D-04 at cycle   3 NSaved=   3.
 NSaved= 3 IEnMin= 3 EnMin= -686.596981997512     IErMin= 3 ErrMin= 1.18D-04
 ErrMax= 1.18D-04 EMaxC= 1.00D-01 BMatC= 4.19D-06 BMatP= 3.21D-05
 IDIUse=3 WtCom= 9.99D-01 WtEn= 1.18D-03
 Coeff-Com:  0.318D-01 0.250D+00 0.718D+00
 Coeff-En:   0.000D+00 0.131D+00 0.869D+00
 Coeff:      0.318D-01 0.250D+00 0.718D+00
 Gap=     0.169 Goal=   None    Shift=    0.000
 RMSDP=3.10D-06 MaxDP=4.10D-04 DE=-3.21D-05 OVMax= 7.13D-04

 Cycle  12  Pass 1  IDiag  1:
 RMSU=  1.39D-06    CP:  9.85D-01  1.01D+00  7.59D-01
 E= -686.596985642056     Delta-E=       -0.000003644544 Rises=F Damp=F
 DIIS: error= 3.69D-05 at cycle   4 NSaved=   4.
 NSaved= 4 IEnMin= 4 EnMin= -686.596985642056     IErMin= 4 ErrMin= 3.69D-05
 ErrMax= 3.69D-05 EMaxC= 1.00D-01 BMatC= 6.43D-07 BMatP= 4.19D-06
 IDIUse=1 WtCom= 1.00D+00 WtEn= 0.00D+00
 Coeff-Com: -0.735D-03 0.135D+00 0.439D+00 0.427D+00
 Coeff:     -0.735D-03 0.135D+00 0.439D+00 0.427D+00
 Gap=     0.169 Goal=   None    Shift=    0.000
 RMSDP=1.07D-06 MaxDP=2.05D-04 DE=-3.64D-06 OVMax= 1.82D-04

 Cycle  13  Pass 1  IDiag  1:
 RMSU=  3.52D-07    CP:  9.85D-01  1.01D+00  7.91D-01  5.53D-01
 E= -686.596986136638     Delta-E=       -0.000000494582 Rises=F Damp=F
 DIIS: error= 9.69D-06 at cycle   5 NSaved=   5.
 NSaved= 5 IEnMin= 5 EnMin= -686.596986136638     IErMin= 5 ErrMin= 9.69D-06
 ErrMax= 9.69D-06 EMaxC= 1.00D-01 BMatC= 4.64D-08 BMatP= 6.43D-07
 IDIUse=1 WtCom= 1.00D+00 WtEn= 0.00D+00
 Coeff-Com: -0.160D-02 0.841D-01 0.277D+00 0.296D+00 0.344D+00
 Coeff:     -0.160D-02 0.841D-01 0.277D+00 0.296D+00 0.344D+00
 Gap=     0.169 Goal=   None    Shift=    0.000
 RMSDP=2.49D-07 MaxDP=2.63D-05 DE=-4.95D-07 OVMax= 5.35D-05

 Cycle  14  Pass 1  IDiag  1:
 RMSU=  1.25D-07    CP:  9.85D-01  1.01D+00  7.82D-01  5.40D-01  6.87D-01
 E= -686.596986171973     Delta-E=       -0.000000035335 Rises=F Damp=F
 DIIS: error= 1.13D-06 at cycle   6 NSaved=   6.
 NSaved= 6 IEnMin= 6 EnMin= -686.596986171973     IErMin= 6 ErrMin= 1.13D-06
 ErrMax= 1.13D-06 EMaxC= 1.00D-01 BMatC= 7.14D-10 BMatP= 4.64D-08
 IDIUse=1 WtCom= 1.00D+00 WtEn= 0.00D+00
 Coeff-Com: -0.885D-03 0.423D-01 0.139D+00 0.150D+00 0.194D+00 0.475D+00
 Coeff:     -0.885D-03 0.423D-01 0.139D+00 0.150D+00 0.194D+00 0.475D+00
 Gap=     0.169 Goal=   None    Shift=    0.000
 RMSDP=4.16D-08 MaxDP=6.19D-06 DE=-3.53D-08 OVMax= 6.82D-06

 Cycle  15  Pass 1  IDiag  1:
 RMSU=  2.00D-08    CP:  9.85D-01  1.01D+00  7.81D-01  5.29D-01  7.22D-01
                    CP:  1.01D+00
 E= -686.596986172458     Delta-E=       -0.000000000486 Rises=F Damp=F
 DIIS: error= 4.63D-07 at cycle   7 NSaved=   7.
 NSaved= 7 IEnMin= 7 EnMin= -686.596986172458     IErMin= 7 ErrMin= 4.63D-07
 ErrMax= 4.63D-07 EMaxC= 1.00D-01 BMatC= 9.74D-11 BMatP= 7.14D-10
 IDIUse=1 WtCom= 1.00D+00 WtEn= 0.00D+00
 Coeff-Com: -0.322D-03 0.143D-01 0.473D-01 0.510D-01 0.722D-01 0.289D+00
 Coeff-Com:  0.526D+00
 Coeff:     -0.322D-03 0.143D-01 0.473D-01 0.510D-01 0.722D-01 0.289D+00
 Coeff:      0.526D+00
 Gap=     0.169 Goal=   None    Shift=    0.000
 RMSDP=1.56D-08 MaxDP=3.16D-06 DE=-4.86D-10 OVMax= 2.71D-06

 Cycle  16  Pass 1  IDiag  1:
 RMSU=  5.82D-09    CP:  9.85D-01  1.01D+00  7.82D-01  5.34D-01  7.23D-01
                    CP:  1.00D+00  7.34D-01
 E= -686.596986172533     Delta-E=       -0.000000000074 Rises=F Damp=F
 DIIS: error= 1.55D-07 at cycle   8 NSaved=   8.
 NSaved= 8 IEnMin= 8 EnMin= -686.596986172533     IErMin= 8 ErrMin= 1.55D-07
 ErrMax= 1.55D-07 EMaxC= 1.00D-01 BMatC= 7.33D-12 BMatP= 9.74D-11
 IDIUse=1 WtCom= 1.00D+00 WtEn= 0.00D+00
 Coeff-Com: -0.150D-06-0.439D-03-0.128D-02-0.160D-02 0.179D-02 0.422D-01
 Coeff-Com:  0.242D+00 0.718D+00
 Coeff:     -0.150D-06-0.439D-03-0.128D-02-0.160D-02 0.179D-02 0.422D-01
 Coeff:      0.242D+00 0.718D+00
 Gap=     0.169 Goal=   None    Shift=    0.000
 RMSDP=5.85D-09 MaxDP=6.76D-07 DE=-7.44D-11 OVMax= 7.09D-07

 SCF Done:  E(RB3LYP) =  -686.596986173     A.U. after   16 cycles
             Convg  =    0.5854D-08             -V/T =  2.0043
 KE= 6.836582550769D+02 PE=-3.534365663436D+03 EE= 1.197992438782D+03
 Leave Link  502 at Thu May 09 12:22:08 2013, MaxMem= 3221225472 cpu:    2233.0
 (Enter C:\G09W\l801.exe)
 Range of M.O.s used for correlation:     1   900
 NBasis=  1020 NAE=    54 NBE=    54 NFC=     0 NFV=     0
 NROrb=    900 NOA=    54 NOB=    54 NVA=   846 NVB=   846

 **** Warning!!: The largest alpha MO coefficient is  0.34206966D+02

 Leave Link  801 at Thu May 09 12:22:09 2013, MaxMem= 3221225472 cpu:       0.0
 (Enter C:\G09W\l1002.exe)
 Minotr:  Closed shell wavefunction.
          IDoAtm=111111111111111111111111111
          Direct CPHF calculation.
          Differentiating once with respect to Fermi-contact.
          Electric field/nuclear overlap derivatives assumed to be zero.
          Requested convergence is 1.0D-10 RMS, and 1.0D-09 maximum.
          Secondary convergence is 1.0D-12 RMS, and 1.0D-12 maximum.
          NewPWx=T KeepS1=F KeepF1=F KeepIn=T MapXYZ=F SortEE=F KeepMc=T.
          MDV=    3221225198 using IRadAn=  199590.
 Using stored XC quadrature information.
          Solving linear equations simultaneously, MaxMat=       0.
          There are    27 degrees of freedom in the 1st order CPHF.  IDoFFX=0.
     27 vectors produced by pass  0 Test12= 1.69D-17 3.70D-11 XBig12= 4.47D+01 2.25D+00.
 AX will form    27 AO Fock derivatives at one time.
 Integrals replicated using symmetry in FoFDir.
 MinBra= 0 MaxBra= 3 Meth= 1.
 IRaf=       0 NMat=  27 IRICut=       1 DoRegI=T DoRafI=F ISym2E= 2 JSym2E=2.
     27 vectors produced by pass  1 Test12= 1.69D-17 3.70D-11 XBig12= 2.88D-01 1.45D-01.
     27 vectors produced by pass  2 Test12= 1.69D-17 3.70D-11 XBig12= 1.42D-02 2.83D-02.
     27 vectors produced by pass  3 Test12= 1.69D-17 3.70D-11 XBig12= 2.48D-04 3.27D-03.
     27 vectors produced by pass  4 Test12= 1.69D-17 3.70D-11 XBig12= 1.90D-06 2.44D-04.
     27 vectors produced by pass  5 Test12= 1.69D-17 3.70D-11 XBig12= 1.19D-08 2.05D-05.
     27 vectors produced by pass  6 Test12= 1.69D-17 3.70D-11 XBig12= 7.52D-11 1.25D-06.
     27 vectors produced by pass  7 Test12= 1.69D-17 3.70D-11 XBig12= 4.38D-13 8.18D-08.
     27 vectors produced by pass  8 Test12= 1.69D-17 3.70D-11 XBig12= 1.78D-15 5.84D-09.
     15 vectors produced by pass  9 Test12= 1.69D-17 3.70D-11 XBig12= 9.05D-18 4.04D-10.
      3 vectors produced by pass 10 Test12= 1.69D-17 3.70D-11 XBig12= 1.49D-19 4.65D-11.
 Inverted reduced A of dimension   261 with in-core refinement.
 Max diff in FC couplings:  IJMax=    14    13 Diff= 1.15D-03 IJMaxR=    13     5 DiffR= 9.58D-01
 Fermi Contact (FC) contribution to K (Hz):
                1             2             3             4             5 
      1  0.123400D+11
      2  0.234072D+02  0.123400D+11
      3  0.466162D+01  0.432259D+02  0.123400D+11
      4  0.209770D+01  0.211432D+01  0.106131D+01  0.123400D+11
      5 -0.253597D+00 -0.144898D+00  0.181284D+01  0.350207D+02  0.123400D+11
      6  0.229666D+01  0.351373D+00 -0.358799D+00 -0.729349D-01  0.331059D+02
      7  0.230383D+01  0.154208D+01  0.121826D+01  0.242732D+01 -0.308643D+00
      8  0.241721D+02  0.295909D+01  0.292237D+01  0.142610D+01  0.439148D+01
      9  0.681761D+01  0.235610D+01  0.311360D+02  0.354187D+02 -0.364298D-01
     10  0.274024D+01  0.362328D+01  0.271727D+02  0.430837D+00 -0.120205D+00
     11  0.334155D+00  0.114935D+01  0.361548D+00 -0.138354D+00  0.690340D-01
     12 -0.778306D-02 -0.506000D-01  0.332818D-01  0.493522D-02 -0.307962D-02
     13 -0.253605D-02  0.153007D-01 -0.310105D-01 -0.299014D-02 -0.630164D-04
     14 -0.347923D-01  0.325657D+00  0.286155D+00 -0.168432D-03 -0.536445D-02
     15  0.237629D+00  0.474534D+00  0.340168D+01 -0.122332D-01 -0.671826D-02
     16  0.311623D+02  0.828351D+00  0.912174D+00  0.158119D+00 -0.342763D-02
     17  0.173221D+01  0.237949D+02  0.923299D+00  0.111385D+00  0.966710D-01
     18  0.121245D+00 -0.636714D-01  0.407783D+00  0.196516D+02  0.281780D+00
     19  0.513219D-01  0.340260D-01  0.932885D-01  0.387518D+00  0.202687D+02
     20  0.209737D+00 -0.183259D-01  0.554625D-01  0.114662D+01  0.394124D+00
     21  0.592733D+00 -0.184000D-01  0.804501D-01 -0.173756D+00  0.999654D+00
     22 -0.386313D-01  0.811438D+00 -0.695411D+00 -0.273086D-01  0.303703D-02
     23  0.464276D-01  0.728812D+00 -0.926839D+00 -0.345756D-01  0.225900D-01
     24  0.320959D-02 -0.240511D-01  0.362868D+00  0.182824D-01  0.145181D-02
     25  0.841285D-02  0.121100D-01  0.747946D-01  0.324784D-02  0.215774D-03
     26 -0.178347D-02  0.524141D-02 -0.300927D-01  0.103723D-02 -0.291992D-03
     27  0.239630D-02  0.994675D-02 -0.242576D-01  0.406572D-03  0.868396D-03
                6             7             8             9            10 
      6  0.123400D+11
      7  0.354382D+02  0.123400D+11
      8  0.813725D+00  0.373534D+02  0.123400D+11
      9  0.336533D+01  0.108198D+01  0.313177D+02  0.123400D+11
     10  0.930861D-01  0.857351D-01  0.149199D+01  0.169475D+01  0.123400D+11
     11 -0.548860D-01  0.277749D-01 -0.191991D+00  0.253408D+00  0.163899D+02
     12  0.287640D-02 -0.254320D-02  0.610933D-02 -0.239690D-01 -0.234552D+00
     13  0.141136D-03 -0.316451D-03 -0.203916D-03  0.137821D-01  0.308844D-01
     14  0.733669D-02 -0.935064D-02  0.236465D-02  0.220903D-01  0.175519D+00
     15  0.988948D-04  0.315457D-02  0.842084D-01 -0.990132D-01  0.128600D+01
     16 -0.275564D-01  0.184764D+00  0.747045D+00  0.908707D+00  0.120959D+00
     17  0.912798D-02  0.163014D+00  0.966010D+00  0.954318D+00  0.307369D+00
     18  0.104283D+01 -0.184775D+00  0.103571D+01  0.506818D+00 -0.232604D-01
     19  0.448674D+00  0.110925D+01 -0.144145D+00  0.110842D+01  0.314595D-02
     20  0.202530D+02  0.391549D+00  0.132323D+01 -0.137110D+00 -0.594291D-02
     21  0.222373D+00  0.203819D+02  0.160259D+00  0.683371D+00  0.692510D-01
     22  0.244949D-02  0.341488D-01  0.322563D-02  0.858210D+00  0.164537D+02
     23 -0.165106D-01  0.182721D-01 -0.691290D-01  0.345733D+00  0.157149D+02
     24  0.900230D-03 -0.123089D-03  0.599808D-02 -0.120947D-01 -0.501311D+00
     25  0.437815D-04  0.553042D-03  0.453254D-02  0.529498D-02  0.628463D+00
     26  0.234607D-03 -0.539524D-04 -0.650601D-03  0.523147D-02  0.659366D-01
     27 -0.499604D-03  0.322989D-03 -0.151235D-02  0.160722D-02  0.594801D+00
               11            12            13            14            15 
     11  0.123400D+11
     12  0.248505D+02  0.123400D+11
     13  0.452013D+01 -0.220166D+02  0.123400D+11
     14  0.652025D+01 -0.188798D+02  0.412500D+01  0.123400D+11
     15 -0.506401D+00  0.860234D+00  0.111072D+01  0.761856D+00  0.123400D+11
     16 -0.333705D-01  0.897895D-03 -0.259668D-03 -0.373702D-04  0.210542D-01
     17 -0.131780D+00  0.455729D-02 -0.119774D-02  0.207267D-01  0.524187D-02
     18  0.481218D-01  0.519390D-03  0.817049D-04 -0.911575D-03  0.315245D-02
     19 -0.633625D-02  0.403125D-03 -0.102315D-03  0.130064D-03  0.340688D-03
     20  0.104155D-01 -0.477942D-03 -0.387313D-04 -0.155012D-02 -0.408508D-03
     21 -0.630402D-02  0.253878D-03  0.132834D-03  0.702478D-03  0.418892D-02
     22 -0.522298D+00  0.419728D+00  0.594329D-02 -0.596965D-03  0.192350D+00
     23 -0.579964D+00  0.752039D+00  0.663718D-01 -0.678692D-02  0.930783D+00
     24  0.189402D+02 -0.504289D+00  0.718891D-01  0.644264D-01  0.696194D+00
     25 -0.117851D+00  0.684147D-01 -0.459161D-01 -0.121244D-02  0.240846D+02
     26 -0.753544D+00  0.447379D+00 -0.499166D+00  0.224616D-01  0.201658D+02
     27 -0.233638D+00  0.460612D+00 -0.652277D-01  0.782696D-01  0.238557D+02
               16            17            18            19            20 
     16  0.123400D+11
     17  0.102738D+00  0.123400D+11
     18  0.283405D-01  0.725585D-02  0.123400D+11
     19  0.171187D-02  0.269697D-02  0.307770D+00  0.123400D+11
     20 -0.506163D-03  0.140784D-01  0.300012D-01  0.280158D+00  0.123400D+11
     21  0.598396D-02 -0.431203D-02  0.250857D-01  0.263604D-01  0.318365D+00
     22  0.113559D-02 -0.109093D-01  0.302020D-03  0.732241D-03  0.456104D-03
     23 -0.680518D-02 -0.386623D-01  0.198571D-02 -0.170175D-02  0.302140D-02
     24  0.198008D-03  0.231634D-02 -0.131677D-02  0.155199D-03 -0.287263D-04
     25  0.386645D-03 -0.388766D-03  0.273885D-04 -0.101162D-03 -0.254416D-04
     26  0.164059D-03  0.151932D-05 -0.290086D-03  0.218262D-04 -0.438292D-04
     27 -0.414423D-03 -0.157835D-02  0.122272D-03 -0.139479D-03  0.542546D-04
               21            22            23            24            25 
     21  0.123400D+11
     22  0.220039D-02  0.123400D+11
     23 -0.228900D-02 -0.418219D+00  0.123400D+11
     24  0.245942D-03  0.450107D+00  0.110213D+00  0.123400D+11
     25  0.230030D-03 -0.197981D-01 -0.789389D-02  0.297317D+00  0.123400D+11
     26 -0.819266D-05 -0.722621D-02 -0.963530D-02  0.209334D+00 -0.419099D+00
     27 -0.111769D-03 -0.968582D-02 -0.131273D-01  0.642601D-01 -0.326083D+00
               26            27 
     26  0.123400D+11
     27 -0.332487D+00  0.123400D+11
 Fermi Contact (FC) contribution to J (Hz):
                1             2             3             4             5 
      1  0.201170D+10
      2  0.132769D+02  0.243533D+11
      3  0.264413D+01  0.853075D+02  0.243533D+11
      4  0.118984D+01  0.417266D+01  0.209453D+01  0.243533D+11
      5 -0.143843D+00 -0.285960D+00  0.357769D+01  0.691142D+02  0.243533D+11
      6  0.130269D+01  0.693443D+00 -0.708098D+00 -0.143939D+00  0.653353D+02
      7  0.130676D+01  0.304333D+01  0.240427D+01  0.479038D+01 -0.609114D+00
      8  0.137107D+02  0.583984D+01  0.576738D+01  0.281445D+01  0.866670D+01
      9  0.386703D+01  0.464982D+01  0.614477D+02  0.698996D+02 -0.718951D-01
     10  0.155430D+01  0.715064D+01  0.536260D+02  0.850267D+00 -0.237227D+00
     11  0.189537D+00  0.226827D+01  0.713524D+00 -0.273044D+00  0.136240D+00
     12 -0.441465D-02 -0.998603D-01  0.656824D-01  0.973977D-02 -0.607771D-02
     13  0.775669D-03 -0.162827D-01  0.330008D-01  0.318205D-02  0.670609D-04
     14  0.106415D-01 -0.346557D+00 -0.304521D+00  0.179243D-03  0.570875D-02
     15  0.387390D-01  0.269162D+00  0.192947D+01 -0.693880D-02 -0.381068D-02
     16  0.702799D+02  0.649999D+01  0.715774D+01  0.124074D+01 -0.268963D-01
     17  0.390662D+01  0.186716D+03  0.724504D+01  0.874024D+00  0.758568D+00
     18  0.273443D+00 -0.499624D+00  0.319984D+01  0.154204D+03  0.221110D+01
     19  0.115746D+00  0.266999D+00  0.732026D+00  0.304082D+01  0.159047D+03
     20  0.473016D+00 -0.143802D+00  0.435209D+00  0.899743D+01  0.309265D+01
     21  0.133678D+01 -0.144383D+00  0.631284D+00 -0.136344D+01  0.784418D+01
     22 -0.871245D-01  0.636727D+01 -0.545682D+01 -0.214288D+00  0.238313D-01
     23  0.104707D+00  0.571892D+01 -0.727282D+01 -0.271311D+00  0.177262D+00
     24  0.723854D-02 -0.188726D+00  0.284739D+01  0.143460D+00  0.113922D-01
     25  0.189734D-01  0.950261D-01  0.586906D+00  0.254855D-01  0.169316D-02
     26 -0.402224D-02  0.411289D-01 -0.236134D+00  0.813901D-02 -0.229124D-02
     27  0.540434D-02  0.780512D-01 -0.190347D+00  0.319033D-02  0.681422D-02
                6             7             8             9            10 
      6  0.243533D+11
      7  0.699382D+02  0.243533D+11
      8  0.160591D+01  0.737179D+02  0.243533D+11
      9  0.664157D+01  0.213532D+01  0.618064D+02  0.243533D+11
     10  0.183708D+00  0.169200D+00  0.294448D+01  0.334463D+01  0.243533D+11
     11 -0.108319D+00  0.548144D-01 -0.378898D+00  0.500107D+00  0.323459D+02
     12  0.567666D-02 -0.501906D-02  0.120569D-01 -0.473035D-01 -0.462894D+00
     13 -0.150194D-03  0.336761D-03  0.217003D-03 -0.146666D-01 -0.328666D-01
     14 -0.780757D-02  0.995077D-02 -0.251641D-02 -0.235080D-01 -0.186784D+00
     15  0.560943D-04  0.178931D-02  0.477640D-01 -0.561615D-01  0.729435D+00
     16 -0.216233D+00  0.144982D+01  0.586199D+01  0.713054D+01  0.949155D+00
     17  0.716264D-01  0.127915D+01  0.758019D+01  0.748844D+01  0.241189D+01
     18  0.818297D+01 -0.144991D+01  0.812710D+01  0.397695D+01 -0.182522D+00
     19  0.352070D+01  0.870421D+01 -0.113109D+01  0.869765D+01  0.246859D-01
     20  0.158924D+03  0.307245D+01  0.103832D+02 -0.107589D+01 -0.466335D-01
     21  0.174494D+01  0.159935D+03  0.125754D+01  0.536234D+01  0.543406D+00
     22  0.192209D-01  0.267963D+00  0.253112D-01  0.673429D+01  0.129111D+03
     23 -0.129557D+00  0.143379D+00 -0.542448D+00  0.271293D+01  0.123313D+03
     24  0.706402D-02 -0.965867D-03  0.470663D-01 -0.949061D-01 -0.393374D+01
     25  0.343549D-03  0.433967D-02  0.355664D-01  0.415492D-01  0.493149D+01
     26  0.184094D-02 -0.423359D-03 -0.510521D-02  0.410508D-01  0.517398D+00
     27 -0.392034D-02  0.253447D-02 -0.118673D-01  0.126117D-01  0.466735D+01
               11            12            13            14            15 
     11  0.243533D+11
     12  0.490431D+02  0.243533D+11
     13 -0.481023D+01  0.234296D+02  0.708114D+10
     14 -0.693872D+01  0.200915D+02  0.236708D+01  0.708114D+10
     15 -0.287237D+00  0.487935D+00 -0.339721D+00 -0.233019D+00  0.201170D+10
     16 -0.261855D+00  0.704569D-02  0.109873D-02  0.158123D-03  0.474831D-01
     17 -0.103406D+01  0.357606D-01  0.506798D-02 -0.877003D-01  0.118219D-01
     18  0.377607D+00  0.407560D-02 -0.345716D-03  0.385712D-02  0.710967D-02
     19 -0.497199D-01  0.316328D-02  0.432924D-03 -0.550337D-03  0.768347D-03
     20  0.817292D-01 -0.375036D-02  0.163883D-03  0.655900D-02 -0.921303D-03
     21 -0.494670D-01  0.199216D-02 -0.562056D-03 -0.297237D-02  0.944721D-02
     22 -0.409842D+01  0.329357D+01 -0.251477D-01  0.252592D-02  0.433804D+00
     23 -0.455092D+01  0.590118D+01 -0.280837D+00  0.287173D-01  0.209918D+01
     24  0.148622D+03 -0.395711D+01 -0.304183D+00 -0.272606D+00  0.157012D+01
     25 -0.924763D+00  0.536844D+00  0.194283D+00  0.513015D-02  0.543177D+02
     26 -0.591299D+01  0.351054D+01  0.211211D+01 -0.950410D-01  0.454796D+02
     27 -0.183333D+01  0.361438D+01  0.275996D+00 -0.331180D+00  0.538014D+02
               16            17            18            19            20 
     16  0.385007D+12
     17  0.320543D+01  0.385007D+12
     18  0.884221D+00  0.226382D+00  0.385007D+12
     19  0.534101D-01  0.841454D-01  0.960241D+01  0.385007D+12
     20 -0.157923D-01  0.439246D+00  0.936037D+00  0.874093D+01  0.385007D+12
     21  0.186699D+00 -0.134535D+00  0.782672D+00  0.822444D+00  0.993296D+01
     22  0.354304D-01 -0.340369D+00  0.942300D-02  0.228459D-01  0.142304D-01
     23 -0.212321D+00 -0.120626D+01  0.619541D-01 -0.530944D-01  0.942674D-01
     24  0.617783D-02  0.722698D-01 -0.410831D-01  0.484220D-02 -0.896259D-03
     25  0.120633D-01 -0.121295D-01  0.854519D-03 -0.315624D-02 -0.793778D-03
     26  0.511864D-02  0.474027D-04 -0.905067D-02  0.680977D-03 -0.136747D-02
     27 -0.129300D-01 -0.492446D-01  0.381487D-02 -0.435174D-02  0.169274D-02
               21            22            23            24            25 
     21  0.385007D+12
     22  0.686522D-01  0.385007D+12
     23 -0.714166D-01 -0.130484D+02  0.385007D+12
     24  0.767339D-02  0.140433D+02  0.343864D+01  0.385007D+12
     25  0.717692D-02 -0.617699D+00 -0.246289D+00  0.927629D+01  0.385007D+12
     26 -0.255611D-03 -0.225457D+00 -0.300621D+00  0.653121D+01 -0.130759D+02
     27 -0.348718D-02 -0.302197D+00 -0.409571D+00  0.200491D+01 -0.101738D+02
               26            27 
     26  0.385007D+12
     27 -0.103736D+02  0.385007D+12
 End of Minotr Frequency-dependent properties file   721 does not exist.
 End of Minotr Frequency-dependent properties file   722 does not exist.
 Leave Link 1002 at Thu May 09 18:18:44 2013, MaxMem= 3221225472 cpu:   21395.0
 (Enter C:\G09W\l601.exe)
 Copying SCF densities to generalized density rwf, IOpCl= 0 IROHF=0.

 **********************************************************************

            Population analysis using the SCF density.

 **********************************************************************

 Orbital symmetries:
       Occupied  (A) (A) (A) (A) (A) (A) (A) (A) (A) (A) (A) (A)
                 (A) (A) (A) (A) (A) (A) (A) (A) (A) (A) (A) (A)
                 (A) (A) (A) (A) (A) (A) (A) (A) (A) (A) (A) (A)
                 (A) (A) (A) (A) (A) (A) (A) (A) (A) (A) (A) (A)
                 (A) (A) (A) (A) (A) (A)
       Virtual   (A) (A) (A) (A) (A) (A) (A) (A) (A) (A) (A) (A)
                 (A) (A) (A) (A) (A) (A) (A) (A) (A) (A) (A) (A)
                 (A) (A) (A) (A) (A) (A) (A) (A) (A) (A) (A) (A)
                 (A) (A) (A) (A) (A) (A) (A) (A) (A) (A) (A) (A)
                 (A) (A) (A) (A) (A) (A) (A) (A) (A) (A) (A) (A)
                 (A) (A) (A) (A) (A) (A) (A) (A) (A) (A) (A) (A)
                 (A) (A) (A) (A) (A) (A) (A) (A) (A) (A) (A) (A)
                 (A) (A) (A) (A) (A) (A) (A) (A) (A) (A) (A) (A)
                 (A) (A) (A) (A) (A) (A) (A) (A) (A) (A) (A) (A)
                 (A) (A) (A) (A) (A) (A) (A) (A) (A) (A) (A) (A)
                 (A) (A) (A) (A) (A) (A) (A) (A) (A) (A) (A) (A)
                 (A) (A) (A) (A) (A) (A) (A) (A) (A) (A) (A) (A)
                 (A) (A) (A) (A) (A) (A) (A) (A) (A) (A) (A) (A)
                 (A) (A) (A) (A) (A) (A) (A) (A) (A) (A) (A) (A)
                 (A) (A) (A) (A) (A) (A) (A) (A) (A) (A) (A) (A)
                 (A) (A) (A) (A) (A) (A) (A) (A) (A) (A) (A) (A)
                 (A) (A) (A) (A) (A) (A) (A) (A) (A) (A) (A) (A)
                 (A) (A) (A) (A) (A) (A) (A) (A) (A) (A) (A) (A)
                 (A) (A) (A) (A) (A) (A) (A) (A) (A) (A) (A) (A)
                 (A) (A) (A) (A) (A) (A) (A) (A) (A) (A) (A) (A)
                 (A) (A) (A) (A) (A) (A) (A) (A) (A) (A) (A) (A)
                 (A) (A) (A) (A) (A) (A) (A) (A) (A) (A) (A) (A)
                 (A) (A) (A) (A) (A) (A) (A) (A) (A) (A) (A) (A)
                 (A) (A) (A) (A) (A) (A) (A) (A) (A) (A) (A) (A)
                 (A) (A) (A) (A) (A) (A) (A) (A) (A) (A) (A) (A)
                 (A) (A) (A) (A) (A) (A) (A) (A) (A) (A) (A) (A)
                 (A) (A) (A) (A) (A) (A) (A) (A) (A) (A) (A) (A)
                 (A) (A) (A) (A) (A) (A) (A) (A) (A) (A) (A) (A)
                 (A) (A) (A) (A) (A) (A) (A) (A) (A) (A) (A) (A)
                 (A) (A) (A) (A) (A) (A) (A) (A) (A) (A) (A) (A)
                 (A) (A) (A) (A) (A) (A) (A) (A) (A) (A) (A) (A)
                 (A) (A) (A) (A) (A) (A) (A) (A) (A) (A) (A) (A)
                 (A) (A) (A) (A) (A) (A) (A) (A) (A) (A) (A) (A)
                 (A) (A) (A) (A) (A) (A) (A) (A) (A) (A) (A) (A)
                 (A) (A) (A) (A) (A) (A) (A) (A) (A) (A) (A) (A)
                 (A) (A) (A) (A) (A) (A) (A) (A) (A) (A) (A) (A)
                 (A) (A) (A) (A) (A) (A) (A) (A) (A) (A) (A) (A)
                 (A) (A) (A) (A) (A) (A) (A) (A) (A) (A) (A) (A)
                 (A) (A) (A) (A) (A) (A) (A) (A) (A) (A) (A) (A)
                 (A) (A) (A) (A) (A) (A) (A) (A) (A) (A) (A) (A)
                 (A) (A) (A) (A) (A) (A) (A) (A) (A) (A) (A) (A)
                 (A) (A) (A) (A) (A) (A) (A) (A) (A) (A) (A) (A)
                 (A) (A) (A) (A) (A) (A) (A) (A) (A) (A) (A) (A)
                 (A) (A) (A) (A) (A) (A) (A) (A) (A) (A) (A) (A)
                 (A) (A) (A) (A) (A) (A) (A) (A) (A) (A) (A) (A)
                 (A) (A) (A) (A) (A) (A) (A) (A) (A) (A) (A) (A)
                 (A) (A) (A) (A) (A) (A) (A) (A) (A) (A) (A) (A)
                 (A) (A) (A) (A) (A) (A) (A) (A) (A) (A) (A) (A)
                 (A) (A) (A) (A) (A) (A) (A) (A) (A) (A) (A) (A)
                 (A) (A) (A) (A) (A) (A) (A) (A) (A) (A) (A) (A)
                 (A) (A) (A) (A) (A) (A) (A) (A) (A) (A) (A) (A)
                 (A) (A) (A) (A) (A) (A) (A) (A) (A) (A) (A) (A)
                 (A) (A) (A) (A) (A) (A) (A) (A) (A) (A) (A) (A)
                 (A) (A) (A) (A) (A) (A) (A) (A) (A) (A) (A) (A)
                 (A) (A) (A) (A) (A) (A) (A) (A) (A) (A) (A) (A)
                 (A) (A) (A) (A) (A) (A) (A) (A) (A) (A) (A) (A)
                 (A) (A) (A) (A) (A) (A) (A) (A) (A) (A) (A) (A)
                 (A) (A) (A) (A) (A) (A) (A) (A) (A) (A) (A) (A)
                 (A) (A) (A) (A) (A) (A) (A) (A) (A) (A) (A) (A)
                 (A) (A) (A) (A) (A) (A) (A) (A) (A) (A) (A) (A)
                 (A) (A) (A) (A) (A) (A) (A) (A) (A) (A) (A) (A)
                 (A) (A) (A) (A) (A) (A) (A) (A) (A) (A) (A) (A)
                 (A) (A) (A) (A) (A) (A) (A) (A) (A) (A) (A) (A)
                 (A) (A) (A) (A) (A) (A) (A) (A) (A) (A) (A) (A)
                 (A) (A) (A) (A) (A) (A) (A) (A) (A) (A) (A) (A)
                 (A) (A) (A) (A) (A) (A) (A) (A) (A) (A) (A) (A)
                 (A) (A) (A) (A) (A) (A) (A) (A) (A) (A) (A) (A)
                 (A) (A) (A) (A) (A) (A) (A) (A) (A) (A) (A) (A)
                 (A) (A) (A) (A) (A) (A) (A) (A) (A) (A) (A) (A)
                 (A) (A) (A) (A) (A) (A) (A) (A) (A) (A) (A) (A)
                 (A) (A) (A) (A) (A) (A)
 The electronic state is 1-A.
 Alpha  occ. eigenvalues --  -19.05349 -19.03352 -14.45661 -14.35979 -10.24015
 Alpha  occ. eigenvalues --  -10.23626 -10.20707 -10.20583 -10.20410 -10.17476
 Alpha  occ. eigenvalues --  -10.17344 -10.17168 -10.17125 -10.16858 -10.16594
 Alpha  occ. eigenvalues --   -1.03755  -0.99900  -0.98606  -0.91647  -0.84797
 Alpha  occ. eigenvalues --   -0.82243  -0.77003  -0.74075  -0.72538  -0.68351
 Alpha  occ. eigenvalues --   -0.62908  -0.62011  -0.60390  -0.59687  -0.56324
 Alpha  occ. eigenvalues --   -0.54592  -0.53683  -0.49410  -0.48256  -0.47517
 Alpha  occ. eigenvalues --   -0.45610  -0.43686  -0.43566  -0.42462  -0.41671
 Alpha  occ. eigenvalues --   -0.40547  -0.40017  -0.38291  -0.37204  -0.35874
 Alpha  occ. eigenvalues --   -0.35154  -0.34282  -0.33849  -0.28280  -0.23885
 Alpha  occ. eigenvalues --   -0.23037  -0.22745  -0.21520  -0.20212
 Alpha virt. eigenvalues --   -0.03290  -0.01962   0.01120   0.01971   0.02869
 Alpha virt. eigenvalues --    0.03442   0.05191   0.05441   0.06333   0.07249
 Alpha virt. eigenvalues --    0.08281   0.08976   0.10171   0.10310   0.11428
 Alpha virt. eigenvalues --    0.12242   0.14635   0.15478   0.17023   0.17332
 Alpha virt. eigenvalues --    0.18613   0.19500   0.20525   0.21519   0.22264
 Alpha virt. eigenvalues --    0.23626   0.24691   0.24873   0.25376   0.26525
 Alpha virt. eigenvalues --    0.27071   0.28197   0.29515   0.30098   0.31141
 Alpha virt. eigenvalues --    0.32175   0.32480   0.32902   0.33837   0.34432
 Alpha virt. eigenvalues --    0.35191   0.35406   0.36660   0.37343   0.37395
 Alpha virt. eigenvalues --    0.38548   0.38828   0.39072   0.39712   0.40396
 Alpha virt. eigenvalues --    0.40606   0.41444   0.42448   0.42794   0.43014
 Alpha virt. eigenvalues --    0.43737   0.44613   0.45047   0.45349   0.45531
 Alpha virt. eigenvalues --    0.46567   0.46963   0.47348   0.47901   0.48868
 Alpha virt. eigenvalues --    0.49068   0.50425   0.51306   0.51543   0.52804
 Alpha virt. eigenvalues --    0.53832   0.54938   0.55081   0.56241   0.56532
 Alpha virt. eigenvalues --    0.57080   0.59103   0.59250   0.61972   0.62353
 Alpha virt. eigenvalues --    0.62921   0.63777   0.64160   0.65136   0.65677
 Alpha virt. eigenvalues --    0.67657   0.68098   0.69469   0.70038   0.70117
 Alpha virt. eigenvalues --    0.71960   0.73282   0.73764   0.75103   0.76179
 Alpha virt. eigenvalues --    0.76732   0.77654   0.79396   0.79950   0.80298
 Alpha virt. eigenvalues --    0.81441   0.81837   0.81902   0.82552   0.83439
 Alpha virt. eigenvalues --    0.85156   0.86172   0.87123   0.88360   0.88761
 Alpha virt. eigenvalues --    0.89868   0.90644   0.91126   0.93423   0.93646
 Alpha virt. eigenvalues --    0.94301   0.94680   0.96428   0.96789   0.97682
 Alpha virt. eigenvalues --    0.98900   0.99798   1.00330   1.00840   1.01072
 Alpha virt. eigenvalues --    1.02219   1.04488   1.05152   1.05433   1.07753
 Alpha virt. eigenvalues --    1.08215   1.08695   1.10104   1.11534   1.11775
 Alpha virt. eigenvalues --    1.12700   1.13246   1.13778   1.15446   1.16441
 Alpha virt. eigenvalues --    1.16709   1.17486   1.18019   1.19397   1.21008
 Alpha virt. eigenvalues --    1.21413   1.22089   1.22713   1.23217   1.24414
 Alpha virt. eigenvalues --    1.25758   1.26337   1.26679   1.27442   1.28138
 Alpha virt. eigenvalues --    1.29072   1.29556   1.30081   1.30407   1.31078
 Alpha virt. eigenvalues --    1.31234   1.32279   1.33229   1.34088   1.34923
 Alpha virt. eigenvalues --    1.35556   1.36093   1.37995   1.38698   1.39447
 Alpha virt. eigenvalues --    1.40148   1.40354   1.41687   1.42485   1.44250
 Alpha virt. eigenvalues --    1.45588   1.47132   1.47845   1.48129   1.50032
 Alpha virt. eigenvalues --    1.50666   1.51241   1.53014   1.54593   1.56078
 Alpha virt. eigenvalues --    1.57093   1.59988   1.61196   1.63064   1.64802
 Alpha virt. eigenvalues --    1.66780   1.67062   1.70092   1.71674   1.72347
 Alpha virt. eigenvalues --    1.74132   1.75655   1.76677   1.78361   1.79254
 Alpha virt. eigenvalues --    1.81058   1.81894   1.83915   1.84832   1.86615
 Alpha virt. eigenvalues --    1.89401   1.90503   1.91643   1.93349   1.94099
 Alpha virt. eigenvalues --    1.95812   1.97323   1.97982   2.00470   2.01669
 Alpha virt. eigenvalues --    2.02613   2.05556   2.06057   2.07640   2.08960
 Alpha virt. eigenvalues --    2.11724   2.13453   2.14646   2.17113   2.19272
 Alpha virt. eigenvalues --    2.19799   2.22003   2.23400   2.24553   2.25932
 Alpha virt. eigenvalues --    2.27467   2.28247   2.29091   2.31641   2.32468
 Alpha virt. eigenvalues --    2.32987   2.33990   2.35110   2.37002   2.38333
 Alpha virt. eigenvalues --    2.38435   2.41658   2.42348   2.43641   2.44355
 Alpha virt. eigenvalues --    2.45666   2.46428   2.47877   2.49704   2.50353
 Alpha virt. eigenvalues --    2.52078   2.52778   2.53006   2.54558   2.57301
 Alpha virt. eigenvalues --    2.58718   2.60481   2.62284   2.63084   2.63602
 Alpha virt. eigenvalues --    2.64266   2.66026   2.66225   2.67591   2.68386
 Alpha virt. eigenvalues --    2.69097   2.70625   2.71284   2.72622   2.72861
 Alpha virt. eigenvalues --    2.73313   2.73567   2.76515   2.76662   2.78737
 Alpha virt. eigenvalues --    2.79664   2.81547   2.81687   2.83090   2.84157
 Alpha virt. eigenvalues --    2.84911   2.85432   2.87549   2.88745   2.89578
 Alpha virt. eigenvalues --    2.90604   2.91456   2.92473   2.93859   2.94229
 Alpha virt. eigenvalues --    2.94920   2.95815   2.96647   2.97947   2.98479
 Alpha virt. eigenvalues --    2.99558   2.99664   3.00453   3.01681   3.02052
 Alpha virt. eigenvalues --    3.02517   3.03340   3.03939   3.05048   3.05802
 Alpha virt. eigenvalues --    3.06302   3.07152   3.08379   3.08910   3.09853
 Alpha virt. eigenvalues --    3.10406   3.11286   3.11585   3.12989   3.14111
 Alpha virt. eigenvalues --    3.14300   3.15605   3.15877   3.16888   3.17973
 Alpha virt. eigenvalues --    3.18317   3.18936   3.19535   3.20249   3.20425
 Alpha virt. eigenvalues --    3.21780   3.22840   3.23619   3.24915   3.25042
 Alpha virt. eigenvalues --    3.25671   3.26763   3.27287   3.28324   3.29272
 Alpha virt. eigenvalues --    3.29814   3.30541   3.30958   3.32090   3.32683
 Alpha virt. eigenvalues --    3.32987   3.34439   3.35640   3.35802   3.36866
 Alpha virt. eigenvalues --    3.37513   3.37868   3.39241   3.40213   3.40575
 Alpha virt. eigenvalues --    3.41663   3.43045   3.43707   3.44773   3.45097
 Alpha virt. eigenvalues --    3.47056   3.48418   3.51415   3.51818   3.53377
 Alpha virt. eigenvalues --    3.54694   3.55886   3.56232   3.57471   3.57710
 Alpha virt. eigenvalues --    3.59174   3.60464   3.61777   3.61985   3.63448
 Alpha virt. eigenvalues --    3.64837   3.65173   3.68440   3.68859   3.69380
 Alpha virt. eigenvalues --    3.70471   3.71829   3.73020   3.74240   3.75632
 Alpha virt. eigenvalues --    3.76386   3.77020   3.77880   3.78709   3.79495
 Alpha virt. eigenvalues --    3.80930   3.81570   3.82605   3.83937   3.84259
 Alpha virt. eigenvalues --    3.85086   3.86301   3.87015   3.87708   3.89288
 Alpha virt. eigenvalues --    3.90170   3.90645   3.91792   3.93527   3.94442
 Alpha virt. eigenvalues --    3.95532   3.96030   3.96456   3.98429   3.99310
 Alpha virt. eigenvalues --    4.00250   4.01249   4.03755   4.04082   4.05014
 Alpha virt. eigenvalues --    4.05568   4.06007   4.08291   4.09200   4.10632
 Alpha virt. eigenvalues --    4.11525   4.12684   4.14921   4.15339   4.15901
 Alpha virt. eigenvalues --    4.17983   4.18630   4.19373   4.19942   4.21146
 Alpha virt. eigenvalues --    4.21375   4.22535   4.23734   4.25418   4.25839
 Alpha virt. eigenvalues --    4.27400   4.28389   4.28908   4.31104   4.32245
 Alpha virt. eigenvalues --    4.32878   4.34988   4.35182   4.36174   4.36517
 Alpha virt. eigenvalues --    4.38669   4.38806   4.41028   4.42839   4.43627
 Alpha virt. eigenvalues --    4.45674   4.46651   4.47995   4.50945   4.52358
 Alpha virt. eigenvalues --    4.55044   4.56956   4.57317   4.59258   4.60160
 Alpha virt. eigenvalues --    4.62311   4.64595   4.67687   4.68995   4.69366
 Alpha virt. eigenvalues --    4.69947   4.70738   4.71002   4.72162   4.73840
 Alpha virt. eigenvalues --    4.76496   4.77033   4.79436   4.80296   4.82228
 Alpha virt. eigenvalues --    4.82748   4.86439   4.90530   4.90570   4.91441
 Alpha virt. eigenvalues --    4.92358   4.94025   4.95854   4.97434   5.00539
 Alpha virt. eigenvalues --    5.01067   5.02355   5.04240   5.06012   5.06542
 Alpha virt. eigenvalues --    5.08038   5.08133   5.09495   5.12823   5.13149
 Alpha virt. eigenvalues --    5.13674   5.16374   5.19905   5.20539   5.20995
 Alpha virt. eigenvalues --    5.22898   5.23680   5.25150   5.26604   5.27123
 Alpha virt. eigenvalues --    5.28900   5.30758   5.32107   5.36026   5.37044
 Alpha virt. eigenvalues --    5.39509   5.41398   5.42760   5.45332   5.46976
 Alpha virt. eigenvalues --    5.47334   5.49660   5.53287   5.56363   5.56634
 Alpha virt. eigenvalues --    5.58725   5.61028   5.62249   5.63986   5.66905
 Alpha virt. eigenvalues --    5.68383   5.69711   5.71581   5.75005   5.77656
 Alpha virt. eigenvalues --    5.78264   5.80233   5.81539   5.82319   5.84610
 Alpha virt. eigenvalues --    5.90106   5.90680   5.92205   5.94129   5.97187
 Alpha virt. eigenvalues --    5.98005   6.01406   6.03113   6.08133   6.18541
 Alpha virt. eigenvalues --    6.20141   6.22580   6.24715   6.31530   6.36216
 Alpha virt. eigenvalues --    6.43086   6.51155   6.51855   6.53873   6.55724
 Alpha virt. eigenvalues --    6.57121   6.63454   6.65785   6.77193   6.86901
 Alpha virt. eigenvalues --    6.89740   6.93255   6.96855   7.05704   7.06033
 Alpha virt. eigenvalues --    7.11056   7.17204   7.28462   7.35300   7.98758
 Alpha virt. eigenvalues --    8.07205   8.11028   8.13194   8.16733   8.19599
 Alpha virt. eigenvalues --    8.21067   8.32242   8.36624   8.76211   8.87501
 Alpha virt. eigenvalues --    8.88677   8.89580   8.93337   8.94393   8.97075
 Alpha virt. eigenvalues --    8.98895   9.00321   9.03382   9.05629   9.08596
 Alpha virt. eigenvalues --    9.10490   9.21871   9.25646   9.28068   9.32204
 Alpha virt. eigenvalues --    9.37213   9.40491   9.42223   9.44807   9.47633
 Alpha virt. eigenvalues --    9.51801   9.80325  10.29714  10.33471  10.40372
 Alpha virt. eigenvalues --   10.41910  10.44260  10.45994  10.49347  10.52260
 Alpha virt. eigenvalues --   10.55251  10.58430  10.60763  10.70453  11.63045
 Alpha virt. eigenvalues --   11.78849  11.97775  11.99927  12.08223  12.16358
 Alpha virt. eigenvalues --   12.20894  12.25639  12.29193  12.32306  12.36944
 Alpha virt. eigenvalues --   12.39802  12.56627  12.56889  12.65763  12.93300
 Alpha virt. eigenvalues --   12.98517  14.90461  14.94591  15.09441  15.12992
 Alpha virt. eigenvalues --   15.84835  16.00011  16.57222  16.97411  21.83945
 Alpha virt. eigenvalues --   22.04629  40.09847  40.14968  40.17343  40.18581
 Alpha virt. eigenvalues --   40.19180  40.22390  40.24200  40.32688  40.35098
 Alpha virt. eigenvalues --   40.56300  40.62162  40.65880  40.68198  40.70591
 Alpha virt. eigenvalues --   40.73271  40.74542  40.76833  40.77261  40.81077
 Alpha virt. eigenvalues --   40.81852  40.83344  40.84326  40.85662  40.86372
 Alpha virt. eigenvalues --   40.91166  40.94460  40.98189  41.00165  41.02839
 Alpha virt. eigenvalues --   41.04601  41.07738  41.16418  41.19537  45.88750
 Alpha virt. eigenvalues --   46.08421  46.08722  46.14733  46.26686  46.32337
 Alpha virt. eigenvalues --   46.43775  46.46384  46.50458  46.69405  46.97928
 Alpha virt. eigenvalues --   55.69667  55.70515  55.73699  55.77856  55.79500
 Alpha virt. eigenvalues --   55.80319  55.82260  55.87578  55.88609  55.91120
 Alpha virt. eigenvalues --   55.97227  55.98263  57.37632  57.72825  57.77115
 Alpha virt. eigenvalues --   57.94463  58.02231  58.23971  64.12945  64.49257
 Alpha virt. eigenvalues --   73.88921  73.92326  74.00062  74.03161  74.51957
 Alpha virt. eigenvalues --   74.62697  85.56022  85.73558 166.86116 167.01615
 Alpha virt. eigenvalues --  167.02525 167.06507 167.17866 167.21972 167.32065
 Alpha virt. eigenvalues --  167.35139 167.38152 167.54315 167.78802 232.26415
 Alpha virt. eigenvalues --  232.57509 233.65364 233.66053 233.68266 233.72941
 Alpha virt. eigenvalues --  233.74233 233.74719 233.76389 233.81217 233.82275
 Alpha virt. eigenvalues --  233.84650 233.89824 233.93196 311.02384 311.17463
 Alpha virt. eigenvalues --  624.25435 624.38087 624.39563 624.42650 624.52831
 Alpha virt. eigenvalues --  624.55904 624.65020 624.67922 624.70467 624.84732
 Alpha virt. eigenvalues --  625.06115 789.16645 789.17193 789.18715 789.23305
 Alpha virt. eigenvalues --  789.24849 789.25502 789.26936 789.31571 789.32417
 Alpha virt. eigenvalues --  789.34544 789.39684 789.41653 867.31978 867.61443
 Alpha virt. eigenvalues -- 1163.959641164.094132505.054762505.061282505.06945
 Alpha virt. eigenvalues -- 2505.116532505.133592505.141192505.153092505.19733
 Alpha virt. eigenvalues -- 2505.205272505.224802505.274832505.292132666.65321
 Alpha virt. eigenvalues -- 2666.756042666.775212666.799472666.889932666.91117
 Alpha virt. eigenvalues -- 2666.994942667.018012667.043242667.167992667.35497
 Alpha virt. eigenvalues -- 3700.756183701.025194971.989734972.108478145.83025
 Alpha virt. eigenvalues -- 8145.850358145.867058145.906398145.925038145.93511
 Alpha virt. eigenvalues -- 8145.944528145.986168145.993838146.011788146.06161
 Alpha virt. eigenvalues -- 8146.07759****************************************
 Alpha virt. eigenvalues -- **************************************************
 Alpha virt. eigenvalues -- **************************************************
 Alpha virt. eigenvalues -- **************************************************
 Alpha virt. eigenvalues -- **************************************************
 Alpha virt. eigenvalues -- **************************************************
 Alpha virt. eigenvalues -- **************************************************
 Alpha virt. eigenvalues -- **************************************************
 Alpha virt. eigenvalues -- **************************************************
 Alpha virt. eigenvalues -- **********
          Condensed to atoms (all electrons):
              1          2          3          4          5          6
     1  N    6.074850   0.422877  -0.052111   0.005644   0.000972   0.003288
     2  C    0.422877   4.899020   0.507785   0.015142  -0.000140  -0.001172
     3  C   -0.052111   0.507785   4.951599  -0.078561   0.007724  -0.000117
     4  C    0.005644   0.015142  -0.078561   4.923989   0.573678  -0.037210
     5  C    0.000972  -0.000140   0.007724   0.573678   4.754062   0.536462
     6  C    0.003288  -0.001172  -0.000117  -0.037210   0.536462   4.754744
     7  C   -0.043287   0.015968   0.002171  -0.041510  -0.042181   0.575629
     8  C    0.483343  -0.130695  -0.073338  -0.051125  -0.038514  -0.057070
     9  C   -0.112535  -0.037592   0.510861   0.461138  -0.053342  -0.042176
    10  C    0.004163  -0.062555   0.350135  -0.016895  -0.000848  -0.000011
    11  C   -0.000523   0.006372  -0.084326   0.000948  -0.000104  -0.000034
    12  C   -0.000514   0.004069   0.002681  -0.001898  -0.000067  -0.000007
    13  O    0.000000  -0.000366   0.000271  -0.000019   0.000000   0.000000
    14  O   -0.001252   0.013051  -0.010743  -0.001613  -0.000026  -0.000009
    15  N   -0.000003   0.000037   0.001150  -0.000738  -0.000013   0.000000
    16  H    0.400446  -0.035085   0.006126  -0.000058  -0.000040  -0.000047
    17  H   -0.024145   0.397776  -0.011256  -0.000317   0.000014   0.000035
    18  H   -0.000123  -0.000575  -0.017311   0.437682  -0.040784   0.008270
    19  H    0.000010   0.000066  -0.000470  -0.038622   0.431883  -0.039651
    20  H   -0.000271   0.000019   0.000134   0.005927  -0.036345   0.428894
    21  H   -0.003632   0.000001  -0.000782   0.000784   0.005457  -0.030265
    22  H    0.000191  -0.009657   0.022835  -0.000315   0.000028   0.000002
    23  H    0.000430  -0.001893  -0.024638   0.006630   0.000096  -0.000005
    24  H   -0.000067  -0.001638   0.012055  -0.001305   0.000090  -0.000099
    25  H    0.000000   0.000010  -0.000404   0.000109   0.000005   0.000000
    26  H    0.000003  -0.000021   0.001082   0.000062   0.000000   0.000000
    27  H    0.000002   0.000048   0.001347   0.000290   0.000011   0.000000
              7          8          9         10         11         12
     1  N   -0.043287   0.483343  -0.112535   0.004163  -0.000523  -0.000514
     2  C    0.015968  -0.130695  -0.037592  -0.062555   0.006372   0.004069
     3  C    0.002171  -0.073338   0.510861   0.350135  -0.084326   0.002681
     4  C   -0.041510  -0.051125   0.461138  -0.016895   0.000948  -0.001898
     5  C   -0.042181  -0.038514  -0.053342  -0.000848  -0.000104  -0.000067
     6  C    0.575629  -0.057070  -0.042176  -0.000011  -0.000034  -0.000007
     7  C    4.815874   0.479232  -0.036645  -0.000804   0.000106   0.000076
     8  C    0.479232   4.907978   0.439885   0.013053  -0.000122   0.001690
     9  C   -0.036645   0.439885   4.821085  -0.040499  -0.001405   0.000482
    10  C   -0.000804   0.013053  -0.040499   5.020811   0.251252  -0.030721
    11  C    0.000106  -0.000122  -0.001405   0.251252   5.972156   0.010496
    12  C    0.000076   0.001690   0.000482  -0.030721   0.010496   4.202788
    13  O    0.000000   0.000019  -0.000132  -0.012003  -0.185757   0.682719
    14  O    0.000128   0.002719   0.004526  -0.010550  -0.173007   0.788745
    15  N    0.000000   0.000049   0.001235  -0.015347   0.098121   0.008040
    16  H   -0.005778  -0.036219   0.013571  -0.000349   0.000013  -0.000012
    17  H   -0.000350   0.005116   0.006297  -0.003204   0.000479   0.000528
    18  H   -0.000996   0.008955  -0.050028   0.004960  -0.000490   0.000191
    19  H    0.007821   0.000035   0.008834   0.000011  -0.000003   0.000000
    20  H   -0.033739   0.006648   0.001305  -0.000003   0.000001   0.000000
    21  H    0.416189  -0.031004   0.007645   0.000032   0.000000   0.000001
    22  H    0.000019   0.000007   0.000709   0.350735  -0.031879  -0.002194
    23  H   -0.000122  -0.001136  -0.007571   0.410461  -0.065808   0.000025
    24  H    0.000061   0.001043  -0.000072  -0.054780   0.356025   0.003846
    25  H    0.000000  -0.000009  -0.000040   0.003510  -0.006392   0.001923
    26  H    0.000000  -0.000017  -0.000164   0.000243  -0.057763   0.003244
    27  H   -0.000001  -0.000026  -0.000386  -0.003523  -0.001685  -0.002469
             13         14         15         16         17         18
     1  N    0.000000  -0.001252  -0.000003   0.400446  -0.024145  -0.000123
     2  C   -0.000366   0.013051   0.000037  -0.035085   0.397776  -0.000575
     3  C    0.000271  -0.010743   0.001150   0.006126  -0.011256  -0.017311
     4  C   -0.000019  -0.001613  -0.000738  -0.000058  -0.000317   0.437682
     5  C    0.000000  -0.000026  -0.000013  -0.000040   0.000014  -0.040784
     6  C    0.000000  -0.000009   0.000000  -0.000047   0.000035   0.008270
     7  C    0.000000   0.000128   0.000000  -0.005778  -0.000350  -0.000996
     8  C    0.000019   0.002719   0.000049  -0.036219   0.005116   0.008955
     9  C   -0.000132   0.004526   0.001235   0.013571   0.006297  -0.050028
    10  C   -0.012003  -0.010550  -0.015347  -0.000349  -0.003204   0.004960
    11  C   -0.185757  -0.173007   0.098121   0.000013   0.000479  -0.000490
    12  C    0.682719   0.788745   0.008040  -0.000012   0.000528   0.000191
    13  O    8.018303  -0.113370  -0.047994   0.000000  -0.000120   0.000003
    14  O   -0.113370   7.911758   0.003576  -0.000042   0.001602  -0.000056
    15  N   -0.047994   0.003576   6.077303   0.000000  -0.000005   0.000292
    16  H    0.000000  -0.000042   0.000000   0.528666  -0.003567   0.000047
    17  H   -0.000120   0.001602  -0.000005  -0.003567   0.528821  -0.000016
    18  H    0.000003  -0.000056   0.000292   0.000047  -0.000016   0.609523
    19  H    0.000000   0.000000   0.000000  -0.000004  -0.000001  -0.009192
    20  H    0.000000   0.000000   0.000000  -0.000011  -0.000001  -0.000544
    21  H    0.000000   0.000002   0.000000   0.003362  -0.000013   0.000138
[...]
 Alpha virt. eigenvalues --    2.10377   2.11399   2.12525   2.14986   2.15891
 Alpha virt. eigenvalues --    2.16634   2.17800   2.20474   2.21231   2.22693
 Alpha virt. eigenvalues --    2.24709   2.26664   2.27109   2.30988   2.32500
 Alpha virt. eigenvalues --    2.33387   2.34368   2.37200   2.38993   2.39829
 Alpha virt. eigenvalues --    2.41524   2.42672   2.43588   2.44547   2.47130
 Alpha virt. eigenvalues --    2.47537   2.48907   2.49682   2.50558   2.50934
 Alpha virt. eigenvalues --    2.53800   2.54007   2.55854   2.56904   2.58026
 Alpha virt. eigenvalues --    2.59150   2.60179   2.61319   2.62706   2.63850
 Alpha virt. eigenvalues --    2.65156   2.65910   2.67476   2.68301   2.69374
 Alpha virt. eigenvalues --    2.70040   2.70287   2.71363   2.71523   2.72928
 Alpha virt. eigenvalues --    2.73568   2.74466   2.75220   2.76085   2.77001
 Alpha virt. eigenvalues --    2.78030   2.80534   2.82180   2.82895   2.84346
 Alpha virt. eigenvalues --    2.85137   2.86678   2.87985   2.88637   2.90637
 Alpha virt. eigenvalues --    2.91038   2.91976   2.92803   2.94333   2.94994
 Alpha virt. eigenvalues --    2.95421   2.96221   2.97419   2.98392   2.98883
 Alpha virt. eigenvalues --    3.00243   3.00473   3.01059   3.01815   3.02734
 Alpha virt. eigenvalues --    3.03737   3.03950   3.04156   3.04916   3.05557
 Alpha virt. eigenvalues --    3.06167   3.06760   3.07624   3.08698   3.09288
 Alpha virt. eigenvalues --    3.10107   3.10935   3.12378   3.13391   3.13667
 Alpha virt. eigenvalues --    3.14108   3.15409   3.16250   3.17008   3.17569
 Alpha virt. eigenvalues --    3.17957   3.18308   3.19772   3.20783   3.20927
 Alpha virt. eigenvalues --    3.23204   3.23636   3.24204   3.25433   3.26499
 Alpha virt. eigenvalues --    3.28310   3.28636   3.29994   3.30262   3.31678
 Alpha virt. eigenvalues --    3.32458   3.32749   3.34067   3.34521   3.35645
 Alpha virt. eigenvalues --    3.36171   3.37125   3.37174   3.38264   3.39075
 Alpha virt. eigenvalues --    3.39482   3.40295   3.41486   3.41945   3.42940
 Alpha virt. eigenvalues --    3.44001   3.44572   3.45106   3.46404   3.48274
 Alpha virt. eigenvalues --    3.49032   3.49834   3.52328   3.53026   3.54308
 Alpha virt. eigenvalues --    3.56264   3.57287   3.59136   3.59445   3.60825
 Alpha virt. eigenvalues --    3.62359   3.63343   3.64330   3.65085   3.66272
 Alpha virt. eigenvalues --    3.67689   3.69542   3.69926   3.70877   3.71517
 Alpha virt. eigenvalues --    3.73187   3.74821   3.76096   3.76498   3.77063
 Alpha virt. eigenvalues --    3.78213   3.78602   3.79167   3.79588   3.80669
 Alpha virt. eigenvalues --    3.80916   3.81792   3.82702   3.83867   3.84600
 Alpha virt. eigenvalues --    3.86007   3.86126   3.86872   3.87839   3.90150
 Alpha virt. eigenvalues --    3.91170   3.92039   3.93171   3.94549   3.95780
 Alpha virt. eigenvalues --    3.96146   3.97261   3.98814   3.99706   4.00471
 Alpha virt. eigenvalues --    4.02695   4.03424   4.04191   4.05760   4.06648
 Alpha virt. eigenvalues --    4.07653   4.08459   4.10021   4.10566   4.11683
 Alpha virt. eigenvalues --    4.12669   4.13170   4.14521   4.15193   4.15897
 Alpha virt. eigenvalues --    4.16847   4.17650   4.19405   4.19797   4.20915
 Alpha virt. eigenvalues --    4.22329   4.23262   4.23840   4.25025   4.25966
 Alpha virt. eigenvalues --    4.26956   4.27594   4.28574   4.29329   4.31014
 Alpha virt. eigenvalues --    4.31586   4.32175   4.33955   4.35712   4.36143
 Alpha virt. eigenvalues --    4.36610   4.38101   4.38446   4.40786   4.42214
 Alpha virt. eigenvalues --    4.42826   4.45328   4.46041   4.48062   4.50719
 Alpha virt. eigenvalues --    4.51136   4.52293   4.54055   4.56414   4.58225
 Alpha virt. eigenvalues --    4.61046   4.61689   4.65303   4.66052   4.69244
 Alpha virt. eigenvalues --    4.70807   4.71502   4.71959   4.73578   4.74896
 Alpha virt. eigenvalues --    4.78182   4.79164   4.79592   4.80685   4.82118
 Alpha virt. eigenvalues --    4.83983   4.86867   4.88863   4.89909   4.92294
 Alpha virt. eigenvalues --    4.93295   4.93642   4.96957   4.98239   4.98675
 Alpha virt. eigenvalues --    5.01007   5.03294   5.03917   5.06100   5.06631
 Alpha virt. eigenvalues --    5.09036   5.11097   5.12348   5.13516   5.14609
 Alpha virt. eigenvalues --    5.15640   5.15983   5.20262   5.21290   5.21774
 Alpha virt. eigenvalues --    5.23947   5.24681   5.26069   5.26918   5.28340
 Alpha virt. eigenvalues --    5.29793   5.33773   5.34904   5.35793   5.38527
 Alpha virt. eigenvalues --    5.38932   5.41960   5.45908   5.47048   5.49739
 Alpha virt. eigenvalues --    5.50537   5.51782   5.57991   5.60249   5.63289
 Alpha virt. eigenvalues --    5.63547   5.64953   5.65636   5.67499   5.68926
 Alpha virt. eigenvalues --    5.74060   5.78910   5.79397   5.80514   5.83586
 Alpha virt. eigenvalues --    5.87225   5.90869   5.91855   5.92808   5.95117
 Alpha virt. eigenvalues --    5.99178   6.00974   6.03762   6.07366   6.09171
 Alpha virt. eigenvalues --    6.11388   6.20138   6.21482   6.24367   6.25770
 Alpha virt. eigenvalues --    6.26988   6.31663   6.42534   6.45026   6.49708
 Alpha virt. eigenvalues --    6.54764   6.57229   6.63303   6.73288   6.78363
 Alpha virt. eigenvalues --    6.89083   6.90723   6.92434   6.94391   7.00011
 Alpha virt. eigenvalues --    7.00330   7.13652   7.20995   7.30592   8.79009
 Alpha virt. eigenvalues --    8.93955  11.12765  11.69877  11.75440  12.70159
 Alpha virt. eigenvalues --   12.82989  12.92595  13.05945  13.35711  13.76320
 Alpha virt. eigenvalues --   13.81371  13.94883  14.10828  15.65186
          Condensed to atoms (all electrons):
              1          2          3          4          5          6
     1  N    6.060061   0.403672  -0.070556   0.003946   0.001326   0.002268
     2  C    0.403672   5.064968   0.477092   0.014174  -0.000575  -0.000757
     3  C   -0.070556   0.477092   5.046748  -0.060238   0.008820   0.000227
     4  C    0.003946   0.014174  -0.060238   4.995855   0.504090  -0.047317
     5  C    0.001326  -0.000575   0.008820   0.504090   4.930404   0.484757
     6  C    0.002268  -0.000757   0.000227  -0.047317   0.484757   4.898301
     7  C   -0.041750   0.013596   0.005326  -0.038408  -0.050862   0.521085
     8  C    0.454352  -0.116026  -0.056170  -0.057749  -0.035952  -0.063416
     9  C   -0.116197  -0.047975   0.450756   0.425702  -0.046450  -0.036313
    10  C    0.004276  -0.063267   0.338144  -0.013795  -0.000570  -0.000043
    11  C   -0.000532   0.006452  -0.092407   0.000916  -0.000292  -0.000015
    12  C   -0.000454   0.003292   0.003865  -0.001638  -0.000098  -0.000002
    13  O    0.000000  -0.000326   0.000672  -0.000017   0.000000   0.000000
    14  O   -0.001214   0.012447  -0.010666  -0.001546  -0.000040  -0.000006
    15  N   -0.000003  -0.000052  -0.000973  -0.000773  -0.000014   0.000000
    16  H    0.400626  -0.035668   0.004266  -0.000207  -0.000001   0.000026
    17  H   -0.028931   0.397439  -0.025401  -0.000286   0.000013   0.000032
    18  H   -0.000139  -0.000459  -0.011690   0.430138  -0.047105   0.008565
    19  H    0.000004   0.000052  -0.000245  -0.054470   0.433624  -0.051314
    20  H   -0.000231   0.000023   0.000106   0.007088  -0.048186   0.430523
    21  H   -0.003328  -0.000105  -0.000499  -0.000218   0.006245  -0.038681
    22  H    0.000201  -0.006561   0.008592  -0.000187   0.000024   0.000004
    23  H    0.000381  -0.000877  -0.034487   0.006879   0.000129  -0.000011
    24  H   -0.000074  -0.000466   0.014833   0.000380  -0.000016  -0.000063
    25  H    0.000000   0.000006  -0.000462   0.000106   0.000004   0.000000
    26  H    0.000003  -0.000036   0.001540   0.000066   0.000000   0.000000
    27  H    0.000002   0.000059   0.001724   0.000308   0.000015   0.000000
              7          8          9         10         11         12
     1  N   -0.041750   0.454352  -0.116197   0.004276  -0.000532  -0.000454
     2  C    0.013596  -0.116026  -0.047975  -0.063267   0.006452   0.003292
     3  C    0.005326  -0.056170   0.450756   0.338144  -0.092407   0.003865
     4  C   -0.038408  -0.057749   0.425702  -0.013795   0.000916  -0.001638
     5  C   -0.050862  -0.035952  -0.046450  -0.000570  -0.000292  -0.000098
     6  C    0.521085  -0.063416  -0.036313  -0.000043  -0.000015  -0.000002
     7  C    4.972664   0.456698  -0.035772  -0.000513   0.000076   0.000061
     8  C    0.456698   5.016808   0.410239   0.011824   0.000107   0.001610
     9  C   -0.035772   0.410239   4.924582  -0.051301  -0.000806   0.000203
    10  C   -0.000513   0.011824  -0.051301   5.120858   0.226534  -0.033893
    11  C    0.000076   0.000107  -0.000806   0.226534   5.964179  -0.025191
    12  C    0.000061   0.001610   0.000203  -0.033893  -0.025191   4.355519
    13  O    0.000000   0.000017  -0.000131  -0.007733  -0.171854   0.687345
    14  O    0.000115   0.002738   0.003645  -0.006992  -0.149551   0.780861
    15  N    0.000000   0.000050   0.001193  -0.010154   0.066669   0.009148
    16  H   -0.002451  -0.036582   0.010381  -0.000378   0.000015  -0.000011
    17  H   -0.000245   0.007013   0.004676  -0.001205   0.000532   0.000460
    18  H   -0.001416   0.008625  -0.065357   0.004076  -0.000194   0.000190
    19  H    0.008778  -0.001040   0.011179   0.000020  -0.000005   0.000000
    20  H   -0.047999   0.008113   0.000086  -0.000003   0.000001   0.000000
    21  H    0.419341  -0.048240   0.007721   0.000030   0.000000   0.000001
    22  H    0.000010   0.000039  -0.000224   0.364808  -0.034986  -0.002927
    23  H   -0.000104  -0.001254  -0.002400   0.410145  -0.067080   0.000986
    24  H    0.000027   0.001006  -0.002900  -0.058494   0.401638  -0.008856
    25  H    0.000000  -0.000009  -0.000024   0.003643  -0.005875   0.001375
    26  H    0.000000  -0.000018  -0.000150   0.001953  -0.062363   0.001548
    27  H    0.000000  -0.000030  -0.000357  -0.006267   0.001795  -0.002573
             13         14         15         16         17         18
     1  N    0.000000  -0.001214  -0.000003   0.400626  -0.028931  -0.000139
     2  C   -0.000326   0.012447  -0.000052  -0.035668   0.397439  -0.000459
     3  C    0.000672  -0.010666  -0.000973   0.004266  -0.025401  -0.011690
     4  C   -0.000017  -0.001546  -0.000773  -0.000207  -0.000286   0.430138
     5  C    0.000000  -0.000040  -0.000014  -0.000001   0.000013  -0.047105
     6  C    0.000000  -0.000006   0.000000   0.000026   0.000032   0.008565
     7  C    0.000000   0.000115   0.000000  -0.002451  -0.000245  -0.001416
     8  C    0.000017   0.002738   0.000050  -0.036582   0.007013   0.008625
     9  C   -0.000131   0.003645   0.001193   0.010381   0.004676  -0.065357
    10  C   -0.007733  -0.006992  -0.010154  -0.000378  -0.001205   0.004076
    11  C   -0.171854  -0.149551   0.066669   0.000015   0.000532  -0.000194
    12  C    0.687345   0.780861   0.009148  -0.000011   0.000460   0.000190
    13  O    7.961839  -0.117435  -0.042808   0.000000  -0.000107   0.000003
    14  O   -0.117435   7.862921   0.003682  -0.000035   0.001597  -0.000058
    15  N   -0.042808   0.003682   6.093501   0.000000  -0.000016   0.000324
    16  H    0.000000  -0.000035   0.000000   0.516460  -0.003665   0.000044
    17  H   -0.000107   0.001597  -0.000016  -0.003665   0.529601  -0.000016
    18  H    0.000003  -0.000058   0.000324   0.000044  -0.000016   0.619801
    19  H    0.000000   0.000000   0.000000  -0.000004  -0.000001  -0.009654
    20  H    0.000000   0.000000   0.000000  -0.000012  -0.000001  -0.000482
    21  H    0.000000   0.000001   0.000000   0.003039  -0.000015   0.000107
    22  H    0.010866  -0.001652  -0.001708  -0.000030   0.002782  -0.000210
    23  H   -0.000510  -0.000488  -0.009197   0.000028   0.000044   0.001529
    24  H    0.004259   0.016337  -0.045492  -0.000002  -0.000002  -0.001317
    25  H    0.001685  -0.000277   0.355692   0.000000   0.000001   0.000101
    26  H    0.123125   0.005480   0.234272   0.000000  -0.000017   0.000059
    27  H   -0.000924  -0.000598   0.332474   0.000000   0.000012   0.000126
             19         20         21         22         23         24
     1  N    0.000004  -0.000231  -0.003328   0.000201   0.000381  -0.000074
     2  C    0.000052   0.000023  -0.000105  -0.006561  -0.000877  -0.000466
     3  C   -0.000245   0.000106  -0.000499   0.008592  -0.034487   0.014833
     4  C   -0.054470   0.007088  -0.000218  -0.000187   0.006879   0.000380
     5  C    0.433624  -0.048186   0.006245   0.000024   0.000129  -0.000016
     6  C   -0.051314   0.430523  -0.038681   0.000004  -0.000011  -0.000063
     7  C    0.008778  -0.047999   0.419341   0.000010  -0.000104   0.000027
     8  C   -0.001040   0.008113  -0.048240   0.000039  -0.001254   0.001006
     9  C    0.011179   0.000086   0.007721  -0.000224  -0.002400  -0.002900
    10  C    0.000020  -0.000003   0.000030   0.364808   0.410145  -0.058494
    11  C   -0.000005   0.000001   0.000000  -0.034986  -0.067080   0.401638
    12  C    0.000000   0.000000   0.000001  -0.002927   0.000986  -0.008856
    13  O    0.000000   0.000000   0.000000   0.010866  -0.000510   0.004259
    14  O    0.000000   0.000000   0.000001  -0.001652  -0.000488   0.016337
    15  N    0.000000   0.000000   0.000000  -0.001708  -0.009197  -0.045492
    16  H   -0.000004  -0.000012   0.003039  -0.000030   0.000028  -0.000002
    17  H   -0.000001  -0.000001  -0.000015   0.002782   0.000044  -0.000002
    18  H   -0.009654  -0.000482   0.000107  -0.000210   0.001529  -0.001317
    19  H    0.579616  -0.007925  -0.000379  -0.000001   0.000003  -0.000003
    20  H   -0.007925   0.568288  -0.009009   0.000000   0.000000   0.000000
    21  H   -0.000379  -0.009009   0.577901  -0.000002   0.000001   0.000000
    22  H   -0.000001   0.000000  -0.000002   0.575205  -0.035001   0.009202
    23  H    0.000003   0.000000   0.000001  -0.035001   0.643721  -0.008865
    24  H   -0.000003   0.000000   0.000000   0.009202  -0.008865   0.560133
    25  H    0.000000   0.000000   0.000000  -0.000118  -0.000332  -0.007476
    26  H    0.000000   0.000000   0.000000   0.003976  -0.001148   0.004811
    27  H    0.000000   0.000000   0.000000  -0.001609   0.012204  -0.002069
             25         26         27
     1  N    0.000000   0.000003   0.000002
     2  C    0.000006  -0.000036   0.000059
     3  C   -0.000462   0.001540   0.001724
     4  C    0.000106   0.000066   0.000308
     5  C    0.000004   0.000000   0.000015
     6  C    0.000000   0.000000   0.000000
     7  C    0.000000   0.000000   0.000000
     8  C   -0.000009  -0.000018  -0.000030
     9  C   -0.000024  -0.000150  -0.000357
    10  C    0.003643   0.001953  -0.006267
    11  C   -0.005875  -0.062363   0.001795
    12  C    0.001375   0.001548  -0.002573
    13  O    0.001685   0.123125  -0.000924
    14  O   -0.000277   0.005480  -0.000598
    15  N    0.355692   0.234272   0.332474
    16  H    0.000000   0.000000   0.000000
    17  H    0.000001  -0.000017   0.000012
    18  H    0.000101   0.000059   0.000126
    19  H    0.000000   0.000000   0.000000
    20  H    0.000000   0.000000   0.000000
    21  H    0.000000   0.000000   0.000000
    22  H   -0.000118   0.003976  -0.001609
    23  H   -0.000332  -0.001148   0.012204
    24  H   -0.007476   0.004811  -0.002069
    25  H    0.516306  -0.005777  -0.031582
    26  H   -0.005777   0.533802  -0.015275
    27  H   -0.031582  -0.015275   0.555125
 Mulliken atomic charges:
              1
     1  N   -0.067709
     2  C   -0.120121
     3  C    0.001082
     4  C   -0.112800
     5  C   -0.139288
     6  C   -0.107853
     7  C   -0.178257
     8  C    0.037249
     9  C    0.155995
    10  C   -0.231703
    11  C   -0.057762
    12  C    0.229180
    13  O   -0.447965
    14  O   -0.399266
    15  N    0.014183
    16  H    0.144161
    17  H    0.115706
    18  H    0.064411
    19  H    0.091766
    20  H    0.099622
    21  H    0.086089
    22  H    0.109507
    23  H    0.085703
    24  H    0.123470
    25  H    0.173012
    26  H    0.174150
    27  H    0.157439
 Sum of Mulliken atomic charges =   0.00000
 Mulliken charges with hydrogens summed into heavy atoms:
              1
     1  N    0.076452
     2  C   -0.004416
     3  C    0.001082
     4  C   -0.048389
     5  C   -0.047522
     6  C   -0.008231
     7  C   -0.092168
     8  C    0.037249
     9  C    0.155995
    10  C   -0.036493
    11  C    0.065708
    12  C    0.229180
    13  O   -0.447965
    14  O   -0.399266
    15  N    0.518784
 Sum of Mulliken charges with hydrogens summed into heavy atoms =   0.00000
 Electronic spatial extent (au):  <R**2>=           3426.4818
 Charge=              0.0000 electrons
 Dipole moment (field-independent basis, Debye):
    X=              0.8497    Y=              5.5685    Z=             -5.4505  Tot=              7.8383
 Quadrupole moment (field-independent basis, Debye-Ang):
   XX=            -89.0664   YY=            -68.3927   ZZ=            -94.4236
   XY=            -31.0982   XZ=             16.6386   YZ=              4.3704
 Traceless Quadrupole moment (field-independent basis, Debye-Ang):
   XX=             -5.1055   YY=             15.5682   ZZ=            -10.4627
   XY=            -31.0982   XZ=             16.6386   YZ=              4.3704
 Octapole moment (field-independent basis, Debye-Ang**2):
  XXX=             24.9240  YYY=             -2.9093  ZZZ=            -10.3791  XYY=            -17.5334
  XXY=             70.2469  XXZ=            -29.8373  XZZ=            -15.0548  YZZ=             10.0252
  YYZ=            -10.8723  XYZ=             -2.6163
 Hexadecapole moment (field-independent basis, Debye-Ang**3):
 XXXX=          -3386.2113 YYYY=           -703.3745 ZZZZ=           -413.9357 XXXY=           -347.5646
 XXXZ=            181.2656 YYYX=           -154.1844 YYYZ=             13.6582 ZZZX=             19.3283
 ZZZY=             -7.3158 XXYY=           -551.7753 XXZZ=           -633.9402 YYZZ=           -212.1732
 XXYZ=             16.5790 YYXZ=             26.1429 ZZXY=            -38.8913
 N-N= 9.661179834043D+02 E-N=-3.533006569477D+03  KE= 6.823331327661D+02
 Calculating spin-rotation constants.
 Leave Link  601 at Thu May 09 22:52:04 2013, MaxMem= 3221225472 cpu:      38.0
 (Enter C:\G09W\l9999.exe)

 Test job not archived.
 1|1|UNPC-IMOEN|SP|RB3LYP|Gen|C11H12N2O2|ADMINISTRATOR|09-May-2013|0||#
 P Geom=AllCheck Guess=TCheck SCRF=Check GenChk RB3LYP/ChkBas NMR=ReadF
 C IOp(3/6=22)||Tryptophan crystal structure NMR parameters||0,1|N,0,1.
 601324,-1.987052,-0.426991|C,0,0.325434,-1.754651,-0.866462|C,0,0.0477
 1,-0.426053,-0.804168|C,0,1.584283,1.542313,-0.055821|C,0,2.852842,1.8
 22331,0.395989|C,0,3.783772,0.803116,0.610459|C,0,3.468945,-0.515396,0
 .382101|C,0,2.185941,-0.795609,-0.076051|C,0,1.22756,0.218585,-0.30275
 1|C,0,-1.228592,0.234873,-1.195023|C,0,-2.054667,0.738822,-0.000743|C,
 0,-2.676259,-0.403428,0.790252|O,0,-3.893699,-0.66578,0.580471|O,0,-1.
 934347,-0.98768,1.591201|N,0,-3.125796,1.648674,-0.483642|H,0,2.023478
 ,-2.892533,-0.337102|H,0,-0.313834,-2.570362,-1.158141|H,0,0.879914,2.
 348337,-0.223237|H,0,3.14032,2.847403,0.589039|H,0,4.772746,1.058384,0
 .96754|H,0,4.193063,-1.30241,0.548014|H,0,-1.845044,-0.455838,-1.77663
 8|H,0,-1.004731,1.090382,-1.847857|H,0,-1.408661,1.307716,0.664399|H,0
 ,-3.25756,2.464488,0.106528|H,0,-3.953556,0.976382,-0.342203|H,0,-3.03
 2284,1.934941,-1.455977||Version=EM64W-G09RevC.01|State=1-A|HF=-686.57
 68922|RMSD=2.762e-009|Dipole=0.3343019,2.1908141,-2.1443993|Quadrupole
 =-3.7957981,11.574575,-7.7787769,-23.1207836,12.3704027,3.2492966|PG=C
 01 [X(C11H12N2O2)]||@


 SCIENCE AND PEACE WILL TRIUMPH OVER IGNORANCE AND WAR

                          -- PASTEUR
 Job cpu time:  0 days  4 hours 33 minutes 13.0 seconds.
 File lengths (MBytes):  RWF=   1893 Int=      0 D2E=      0 Chk=     41 Scr=      1
 Normal termination of Gaussian 09 at Thu May 09 22:52:05 2013.
