 Entering Gaussian System, Link 0=g03
 Input=./tryptophan.com
 Output=./tryptophan.log
 Initial command:
 /home/konrad/system/software//g03/l1.exe /home/konrad/guests/guik/Gau-28314.inp -scrdir=/home/konrad/guests/guik/
 Entering Link 1 = /home/konrad/system/software//g03/l1.exe PID=     28315.
  
 Copyright (c) 1988,1990,1992,1993,1995,1998,2003,2004, Gaussian, Inc.
                  All Rights Reserved.
  
 This is the Gaussian(R) 03 program.  It is based on the
 the Gaussian(R) 98 system (copyright 1998, Gaussian, Inc.),
 the Gaussian(R) 94 system (copyright 1995, Gaussian, Inc.),
 the Gaussian 92(TM) system (copyright 1992, Gaussian, Inc.),
 the Gaussian 90(TM) system (copyright 1990, Gaussian, Inc.),
 the Gaussian 88(TM) system (copyright 1988, Gaussian, Inc.),
 the Gaussian 86(TM) system (copyright 1986, Carnegie Mellon
 University), and the Gaussian 82(TM) system (copyright 1983,
 Carnegie Mellon University). Gaussian is a federally registered
 trademark of Gaussian, Inc.
  
 This software contains proprietary and confidential information,
 including trade secrets, belonging to Gaussian, Inc.
  
 This software is provided under written license and may be
 used, copied, transmitted, or stored only in accord with that
 written license.
  
 The following legend is applicable only to US Government
 contracts under FAR:
  
                    RESTRICTED RIGHTS LEGEND
  
 Use, reproduction and disclosure by the US Government is
 subject to restrictions as set forth in subparagraphs (a)
 and (c) of the Commercial Computer Software - Restricted
 Rights clause in FAR 52.227-19.
  
 Gaussian, Inc.
 340 Quinnipiac St., Bldg. 40, Wallingford CT 06492
  
  
 ---------------------------------------------------------------
 Warning -- This program may not be used in any manner that
 competes with the business of Gaussian, Inc. or will provide
 assistance to any competitor of Gaussian, Inc.  The licensee
 of this program is prohibited from giving any competitor of
 Gaussian, Inc. access to this program.  By using this program,
 the user acknowledges that Gaussian, Inc. is engaged in the
 business of creating and licensing software in the field of
 computational chemistry and represents and warrants to the
 licensee that it is not a competitor of Gaussian, Inc. and that
 it will not use this program in any manner prohibited above.
 ---------------------------------------------------------------
  

 Cite this work as:
 Gaussian 03, Revision D.01,
 M. J. Frisch, G. W. Trucks, H. B. Schlegel, G. E. Scuseria, 
 M. A. Robb, J. R. Cheeseman, J. A. Montgomery, Jr., T. Vreven, 
 K. N. Kudin, J. C. Burant, J. M. Millam, S. S. Iyengar, J. Tomasi, 
 V. Barone, B. Mennucci, M. Cossi, G. Scalmani, N. Rega, 
 G. A. Petersson, H. Nakatsuji, M. Hada, M. Ehara, K. Toyota, 
 R. Fukuda, J. Hasegawa, M. Ishida, T. Nakajima, Y. Honda, O. Kitao, 
 H. Nakai, M. Klene, X. Li, J. E. Knox, H. P. Hratchian, J. B. Cross, 
 V. Bakken, C. Adamo, J. Jaramillo, R. Gomperts, R. E. Stratmann, 
 O. Yazyev, A. J. Austin, R. Cammi, C. Pomelli, J. W. Ochterski, 
 P. Y. Ayala, K. Morokuma, G. A. Voth, P. Salvador, J. J. Dannenberg, 
 V. G. Zakrzewski, S. Dapprich, A. D. Daniels, M. C. Strain, 
 O. Farkas, D. K. Malick, A. D. Rabuck, K. Raghavachari, 
 J. B. Foresman, J. V. Ortiz, Q. Cui, A. G. Baboul, S. Clifford, 
 J. Cioslowski, B. B. Stefanov, G. Liu, A. Liashenko, P. Piskorz, 
 I. Komaromi, R. L. Martin, D. J. Fox, T. Keith, M. A. Al-Laham, 
 C. Y. Peng, A. Nanayakkara, M. Challacombe, P. M. W. Gill, 
 B. Johnson, W. Chen, M. W. Wong, C. Gonzalez, and J. A. Pople, 
 Gaussian, Inc., Wallingford CT, 2004.
 
 ******************************************
 Gaussian 03:  AM64L-G03RevD.01 13-Oct-2005
                 2-Aug-2006 
 ******************************************
 %Mem=2GB
 %NProcShared=16
 Will use up to   16 processors via shared memory.
 %Chk=tryptophan.chk
 ----------------------------------------------------------------------
 #p ub3lyp/EPR-II scrf=(pcm,solvent=water,read) guess=read geom=connect
 ivity scf=tight integral=(grid=ultrafine)
 ----------------------------------------------------------------------
 1/38=1,40=2,57=2/1;
 2/17=6,18=5,40=1/2;
 3/5=21,11=2,16=1,25=1,30=1,70=2203,72=1,74=-5,75=5/1,2,3;
 4/5=1,7=2/1;
 5/5=2,32=2,38=6,53=1/2;
 6/7=2,8=2,9=2,10=2,28=1/1;
 99/5=1,9=1/99;
 Leave Link    1 at Wed Aug  2 09:32:08 2006, MaxMem=  268435456 cpu:       0.4
 (Enter /home/konrad/system/software//g03/l101.exe)
 ----------------------------------------------------
 Explicitly hydrated tryptophan radical in PCM water.
 ----------------------------------------------------
 Symbolic Z-matrix:
 Charge =  0 Multiplicity = 2
 O
 C                    1    B1
 O                    2    B2       1    A1
 C                    2    B3       1    A2       3    D1       0
 C                    4    B4       2    A3       1    D2       0
 N                    4    B5       2    A4       1    D3       0
 C                    5    B6       4    A5       2    D4       0
 C                    7    B7       5    A6       4    D5       0
 N                    8    B8       7    A7       5    D6       0
 C                    9    B9       8    A8       7    D7       0
 C                    10   B10      9    A9       8    D8       0
 C                    11   B11      10   A10      9    D9       0
 C                    10   B12      9    A11      8    D10      0
 C                    13   B13      10   A12      9    D11      0
 C                    14   B14      13   A13      10   D12      0
 H                    6    B15      4    A14      2    D13      0
 H                    4    B16      2    A15      1    D14      0
 H                    5    B17      4    A16      2    D15      0
 H                    5    B18      4    A17      2    D16      0
 H                    6    B19      4    A18      2    D17      0
 H                    6    B20      4    A19      2    D18      0
 H                    8    B21      7    A20      5    D19      0
 H                    9    B22      8    A21      7    D20      0
 H                    12   B23      11   A22      10   D21      0
 H                    13   B24      10   A23      9    D22      0
 H                    14   B25      13   A24      10   D23      0
 H                    15   B26      14   A25      13   D24      0
 O                    9    B27      8    A26      7    D25      0
 H                    28   B28      9    A27      8    D26      0
 O                    6    B29      4    A28      2    D27      0
 H                    30   B30      6    A29      4    D28      0
 H                    30   B31      6    A30      4    D29      0
 O                    3    B32      2    A31      1    D30      0
 H                    33   B33      3    A32      2    D31      0
 H                    33   B34      3    A33      2    D32      0
 O                    6    B35      4    A34      2    D33      0
 H                    36   B36      6    A35      4    D34      0
 H                    36   B37      6    A36      4    D35      0
 O                    1    B38      2    A37      3    D36      0
 H                    39   B39      1    A38      2    D37      0
 H                    39   B40      1    A39      2    D38      0
 O                    1    B41      2    A40      3    D39      0
 H                    42   B42      1    A41      2    D40      0
 H                    42   B43      1    A42      2    D41      0
 H                    33   B44      3    A43      2    D42      0
 O                    28   B45      9    A44      8    D43      0
 H                    46   B46      28   A45      9    D44      0
       Variables:
  B1                    1.26563                  
  B2                    1.26006                  
  B3                    1.55998                  
  B4                    1.53211                  
  B5                    1.50994                  
  B6                    1.49294                  
  B7                    1.44364                  
  B8                    1.32232                  
  B9                    1.41473                  
  B10                   1.42384                  
  B11                   1.39874                  
  B12                   1.38299                  
  B13                   1.41143                  
  B14                   1.39775                  
  B15                   1.04798                  
  B16                   1.12749                  
  B17                   1.09706                  
  B18                   1.1011                   
  B19                   1.04751                  
  B20                   1.04423                  
  B21                   1.08654                  
  B22                   2.06402                  
  B23                   1.0877                   
  B24                   1.08779                  
  B25                   1.08695                  
  B26                   1.08649                  
  B27                   3.03023                  
  B28                   0.98237                  
  B29                   2.78945                  
  B30                   0.97502                  
  B31                   0.97494                  
  B32                   2.77027                  
  B33                   0.97202                  
  B34                   0.98637                  
  B35                   2.80758                  
  B36                   0.97811                  
  B37                   0.97391                  
  B38                   2.7484                   
  B39                   0.97381                  
  B40                   0.98426                  
  B41                   2.75903                  
  B42                   0.97218                  
  B43                   0.98041                  
  B44                   1.82712                  
  B45                   2.80498                  
  B46                   0.97932                  
  A1                  125.48309                  
  A2                  117.20224                  
  A3                  114.08363                  
  A4                  107.25608                  
  A5                  115.11893                  
  A6                  129.2993                   
  A7                  113.28624                  
  A8                  105.7263                   
  A9                  110.81324                  
  A10                 120.36987                  
  A11                 127.93403                  
  A12                 117.92149                  
  A13                 121.32688                  
  A14                 108.83012                  
  A15                 109.75419                  
  A16                 109.72191                  
  A17                 108.2623                   
  A18                 110.32503                  
  A19                 108.6445                   
  A20                 126.28849                  
  A21                 115.44005                  
  A22                 121.23042                  
  A23                 121.09906                  
  A24                 119.19348                  
  A25                 119.65375                  
  A26                 113.14995                  
  A27                  98.21168                  
  A28                 105.70004                  
  A29                 113.19318                  
  A30                 112.70788                  
  A31                 107.19011                  
  A32                 104.40569                  
  A33                   1.34136                  
  A34                  93.92536                  
  A35                  89.53555                  
  A36                 118.15417                  
  A37                 107.97527                  
  A38                 106.85131                  
  A39                  14.26087                  
  A40                 103.8111                   
  A41                 116.69412                  
  A42                  11.33662                  
  A43                 105.03619                  
  A44                  97.38441                  
  A45                 100.81218                  
  D1                 -178.92163                  
  D2                 -161.13846                  
  D3                   78.38056                  
  D4                   57.35631                  
  D5                   13.89675                  
  D6                 -179.21749                  
  D7                   -0.36233                  
  D8                    0.1                      
  D9                  179.72264                  
  D10                 179.73942                  
  D11                -179.72811                  
  D12                   0.08155                  
  D13                 -63.3144                   
  D14                 -35.9207                   
  D15                 -65.52097                  
  D16                 179.49909                  
  D17                 177.01065                  
  D18                  56.49259                  
  D19                  -0.18005                  
  D20                 148.09613                  
  D21                -179.86123                  
  D22                   0.20064                  
  D23                 179.98653                  
  D24                 179.93209                  
  D25                 146.70577                  
  D26                 -10.67226                  
  D27                 175.39955                  
  D28                 100.06167                  
  D29                -141.86175                  
  D30                  23.30655                  
  D31                 -53.77025                  
  D32                 -76.11996                  
  D33                  55.71199                  
  D34                 -22.37193                  
  D35                -129.12998                  
  D36                 140.52179                  
  D37                -106.44436                  
  D38                 171.10883                  
  D39                -103.56281                  
  D40                -140.94225                  
  D41                -157.75962                  
  D42                  51.52557                  
  D43                 -10.21712                  
  D44                  45.74678                  
 
                    Isotopes and Nuclear Properties:
 (Nuclear quadrupole moments (NQMom) in fm**2, nuclear magnetic moments (NMagM)
  in nuclear magnetons)

  Atom         1           2           3           4           5           6           7           8           9          10
 IAtWgt=          16          12          16          12          12          14          12          12          14          12
 AtmWgt=  15.9949146  12.0000000  15.9949146  12.0000000  12.0000000  14.0030740  12.0000000  12.0000000  14.0030740  12.0000000
 NucSpn=           0           0           0           0           0           2           0           0           2           0
 AtZEff=   0.0000000   0.0000000   0.0000000   0.0000000   0.0000000   0.0000000   0.0000000   0.0000000   0.0000000   0.0000000
 NQMom=    0.0000000   0.0000000   0.0000000   0.0000000   0.0000000   2.0440000   0.0000000   0.0000000   2.0440000   0.0000000
 NMagM=    0.0000000   0.0000000   0.0000000   0.0000000   0.0000000   0.4037610   0.0000000   0.0000000   0.4037610   0.0000000

  Atom        11          12          13          14          15          16          17          18          19          20
 IAtWgt=          12          12          12          12          12           1           1           1           1           1
 AtmWgt=  12.0000000  12.0000000  12.0000000  12.0000000  12.0000000   1.0078250   1.0078250   1.0078250   1.0078250   1.0078250
 NucSpn=           0           0           0           0           0           1           1           1           1           1
 AtZEff=   0.0000000   0.0000000   0.0000000   0.0000000   0.0000000   0.0000000   0.0000000   0.0000000   0.0000000   0.0000000
 NQMom=    0.0000000   0.0000000   0.0000000   0.0000000   0.0000000   0.0000000   0.0000000   0.0000000   0.0000000   0.0000000
 NMagM=    0.0000000   0.0000000   0.0000000   0.0000000   0.0000000   2.7928460   2.7928460   2.7928460   2.7928460   2.7928460

  Atom        21          22          23          24          25          26          27          28          29          30
 IAtWgt=           1           1           1           1           1           1           1          16           1          16
 AtmWgt=   1.0078250   1.0078250   1.0078250   1.0078250   1.0078250   1.0078250   1.0078250  15.9949146   1.0078250  15.9949146
 NucSpn=           1           1           1           1           1           1           1           0           1           0
 AtZEff=   0.0000000   0.0000000   0.0000000   0.0000000   0.0000000   0.0000000   0.0000000   0.0000000   0.0000000   0.0000000
 NQMom=    0.0000000   0.0000000   0.0000000   0.0000000   0.0000000   0.0000000   0.0000000   0.0000000   0.0000000   0.0000000
 NMagM=    2.7928460   2.7928460   2.7928460   2.7928460   2.7928460   2.7928460   2.7928460   0.0000000   2.7928460   0.0000000

  Atom        31          32          33          34          35          36          37          38          39          40
 IAtWgt=           1           1          16           1           1          16           1           1          16           1
 AtmWgt=   1.0078250   1.0078250  15.9949146   1.0078250   1.0078250  15.9949146   1.0078250   1.0078250  15.9949146   1.0078250
 NucSpn=           1           1           0           1           1           0           1           1           0           1
 AtZEff=   0.0000000   0.0000000   0.0000000   0.0000000   0.0000000   0.0000000   0.0000000   0.0000000   0.0000000   0.0000000
 NQMom=    0.0000000   0.0000000   0.0000000   0.0000000   0.0000000   0.0000000   0.0000000   0.0000000   0.0000000   0.0000000
 NMagM=    2.7928460   2.7928460   0.0000000   2.7928460   2.7928460   0.0000000   2.7928460   2.7928460   0.0000000   2.7928460

  Atom        41          42          43          44          45          46          47
 IAtWgt=           1          16           1           1           1          16           1
 AtmWgt=   1.0078250  15.9949146   1.0078250   1.0078250   1.0078250  15.9949146   1.0078250
 NucSpn=           1           0           1           1           1           0           1
 AtZEff=   0.0000000   0.0000000   0.0000000   0.0000000   0.0000000   0.0000000   0.0000000
 NQMom=    0.0000000   0.0000000   0.0000000   0.0000000   0.0000000   0.0000000   0.0000000
 NMagM=    2.7928460   0.0000000   2.7928460   2.7928460   2.7928460   0.0000000   2.7928460
 Leave Link  101 at Wed Aug  2 09:32:14 2006, MaxMem=  268435456 cpu:       0.1
 (Enter /home/konrad/system/software//g03/l202.exe)
                          Input orientation:                          
 ---------------------------------------------------------------------
 Center     Atomic     Atomic              Coordinates (Angstroms)
 Number     Number      Type              X           Y           Z
 ---------------------------------------------------------------------
    1          8             0        0.000000    0.000000    0.000000
    2          6             0        0.000000    0.000000    1.265631
    3          8             0        1.026053    0.000000    1.997051
    4          6             0       -1.387198   -0.026112    1.978748
    5          6             0       -1.346700    0.426918    3.441784
    6          7             0       -1.891657   -1.448278    1.925197
    7          6             0       -0.799569    1.797806    3.665815
    8          6             0       -0.556499    2.852653    2.710666
    9          7             0       -0.045318    3.943672    3.255559
   10          6             0        0.071923    3.663405    4.637286
   11          6             0       -0.387464    2.347289    4.927313
   12          6             0       -0.355239    1.859808    6.237962
   13          6             0        0.559571    4.489031    5.633885
   14          6             0        0.586351    3.987915    6.953093
   15          6             0        0.137243    2.697946    7.249725
   16          1             0       -2.036223   -1.718385    0.923001
   17          1             0       -2.130546    0.582540    1.388652
   18          1             0       -0.759447   -0.285853    4.033924
   19          1             0       -2.369895    0.380204    3.845912
   20          1             0       -2.801701   -1.531057    2.437286
   21          1             0       -1.178802   -2.072120    2.364599
   22          1             0       -0.739739    2.806130    1.640704
   23          1             0        1.232538    5.023345    2.046612
   24          1             0       -0.700533    0.855964    6.474938
   25          1             0        0.912808    5.493000    5.409019
   26          1             0        0.965734    4.619240    7.752442
   27          1             0        0.171178    2.339382    8.274784
   28          8             0        1.864963    5.410792    1.416900
   29          1             0        1.946354    4.722330    0.720873
   30          8             0       -4.261257   -1.464578    3.396844
   31          1             0       -5.060077   -1.430573    2.838826
   32          1             0       -4.370743   -2.276764    3.924930
   33          8             0        3.103594    1.047098    0.493115
   34          1             0        3.114176    0.506102   -0.314377
   35          1             0        2.365789    0.654437    1.016935
   36          8             0        0.394504   -2.509830    3.161756
   37          1             0        0.901269   -1.720538    2.884428
   38          1             0        0.842867   -3.260080    2.732113
   39          8             0       -2.017852   -1.662100   -0.848174
   40          1             0       -1.593955   -2.471007   -1.186249
   41          1             0       -1.284249   -1.009283   -0.781639
   42          8             0       -0.628317    2.604548   -0.658641
   43          1             0       -1.222040    2.731965   -1.417848
   44          1             0       -0.470326    1.638584   -0.602389
   45          1             0        2.460745    2.623365   -0.170592
   46          8             0        2.054873    3.430235   -0.560284
   47          1             0        1.111723    3.191557   -0.672415
 ---------------------------------------------------------------------
                    Distance matrix (angstroms):
                    1          2          3          4          5
     1  O    0.000000
     2  C    1.265631   0.000000
     3  O    2.245216   1.260064   0.000000
     4  C    2.416701   1.559979   2.413461   0.000000
     5  C    3.720448   2.594514   2.810600   1.532106   0.000000
     6  N    3.063048   2.472025   3.258176   1.509935   2.472524
     7  C    4.160482   3.103595   3.057740   2.553072   1.492942
     8  C    3.974296   3.245835   3.339363   3.084323   2.653892
     9  N    5.114026   4.417512   4.276006   4.380647   3.754442
    10  C    5.910172   4.979334   4.615381   4.775918   3.730491
    11  C    5.471592   4.366671   4.011762   3.914912   2.610509
    12  C    6.518991   5.320635   4.832409   4.771009   3.294659
    13  C    7.225315   6.288574   5.796168   6.126699   4.993990
    14  C    8.036963   6.970976   6.376454   6.689650   5.361593
    15  C    7.736682   6.565602   5.971556   6.125978   4.675475
    16  H    2.819748   2.686344   3.672052   2.097528   3.379650
    17  H    2.609010   2.212174   3.267051   1.127492   2.203176
    18  H    4.114731   2.884773   2.723706   2.164552   1.097059
    19  H    4.533431   3.524033   3.885268   2.148741   1.101104
    20  H    4.016719   3.400947   4.146040   2.115641   2.638127
    21  H    3.357764   2.625069   3.047976   2.092477   2.726483
    22  H    3.333690   2.926133   3.334572   2.924905   3.045150
    23  H    5.562532   5.230973   5.027831   5.688992   5.452166
    24  H    6.568733   5.325440   4.874962   4.633065   3.130757
    25  H    7.762973   6.940745   6.467411   6.893285   5.885625
    26  H    9.075813   8.021767   7.380077   7.775032   6.442413
    27  H    8.600817   7.391227   6.753773   6.903923   5.414735
    28  O    5.895961   5.725176   5.506089   6.360200   6.265296
    29  H    5.158329   5.136678   4.977548   5.936541   6.057898
    30  O    5.642858   4.984512   5.662160   3.512890   3.474826
    31  H    5.975772   5.488703   6.308416   4.025207   4.195593
    32  H    6.300168   5.599903   6.166505   4.213621   4.085114
    33  O    3.312382   3.365337   2.770273   4.850370   5.374420
    34  H    3.170657   3.528549   3.155803   5.079768   5.832189
    35  H    2.656954   2.467204   1.784323   3.933591   4.440071
    36  O    4.056055   3.170200   2.838069   3.277625   3.425593
    37  H    3.477421   2.528446   1.939912   2.988045   3.158413
    38  H    4.336241   3.672753   3.346938   3.999912   4.346468
    39  O    2.748401   3.361916   4.485894   3.326511   4.818525
    40  H    3.170765   3.828614   4.806632   4.004681   5.466058
    41  H    1.810775   2.619019   3.751968   2.932058   4.461376
    42  O    2.759033   3.298678   4.071033   3.801591   4.698045
    43  H    3.311692   4.019710   4.917223   4.378485   5.380037
    44  H    1.808048   2.528964   3.417776   3.205329   4.311786
    45  H    3.600891   3.872989   3.693110   5.142573   5.689488
    46  O    4.037689   4.395791   4.400562   5.499170   6.050385
    47  H    3.445883   3.895894   4.161662   4.860727   5.532966
                    6          7          8          9         10
     6  N    0.000000
     7  C    3.841805   0.000000
     8  C    4.571391   1.443639   0.000000
     9  N    5.852517   2.311265   1.322322   0.000000
    10  C    6.110677   2.276777   2.182681   1.414731   0.000000
    11  C    5.067705   1.436364   2.279800   2.336721   1.423837
    12  C    5.648358   2.610980   3.669885   3.651475   2.448998
    13  C    7.417177   3.600452   3.531084   2.513910   1.382992
    14  C    7.808486   4.186114   4.537963   3.751363   2.394349
    15  C    7.046858   3.812123   4.594373   4.187902   2.785895
    16  H    1.047976   4.627736   5.126375   6.439209   6.870506
    17  H    2.114041   2.904107   3.062476   4.373868   4.989611
    18  H    2.660801   2.116305   3.412098   4.359439   4.080669
    19  H    2.694662   2.123194   3.269586   4.295402   4.167512
    20  H    1.047505   4.074205   4.932807   6.183840   6.330889
    21  H    1.044229   4.100403   4.975983   6.186142   6.294892
    22  H    4.416768   2.263044   1.086536   2.093796   3.220748
    23  H    7.187297   4.141905   2.890247   2.064016   3.147706
    24  H    5.237218   2.964465   4.263479   4.508620   3.443164
    25  H    8.257323   4.430063   4.051099   2.820605   2.156404
    26  H    8.884607   5.270418   5.554955   4.658388   3.378863
    27  H    7.675865   4.741124   5.634924   5.273826   3.872245
    28  O    7.836926   5.021057   3.752517   3.030228   4.079122
    29  H    7.365945   4.976507   3.703950   3.316278   4.469128
    30  O    2.789446   4.764323   5.730144   6.858809   6.827251
    31  H    3.297562   5.409091   6.216483   7.362336   7.451208
    32  H    3.291076   5.424255   6.506443   7.605996   7.451868
    33  O    5.764573   5.085693   4.644765   5.092827   5.762833
    34  H    5.821827   5.729557   5.303871   5.877392   6.613836
    35  H    4.834481   4.282914   4.029969   4.652305   5.236664
    36  O    2.807580   4.498401   5.464806   6.469152   6.355318
    37  H    2.965584   3.985243   4.803057   5.754740   5.722514
    38  H    3.378071   5.399223   6.270900   7.277150   7.222096
    39  O    2.784463   5.816465   5.931602   7.221925   7.925809
    40  H    3.288723   6.511247   6.678594   7.954624   8.620888
    41  H    2.808670   5.281525   5.257410   6.508892   7.282717
    42  O    4.969673   4.402394   3.379193   4.177810   5.445948
    43  H    5.394327   5.186015   4.183556   4.969269   6.261514
    44  H    4.235279   4.283843   3.529550   4.514180   5.643414
    45  H    6.317754   5.101883   4.178275   4.445455   5.468440
    46  O    6.749267   5.354678   4.225160   4.385781   5.567871
    47  H    6.107042   4.941237   3.787224   4.163340   5.431091
                   11         12         13         14         15
    11  C    0.000000
    12  C    1.398741   0.000000
    13  C    2.446053   2.848614   0.000000
    14  C    2.782760   2.434512   1.411433   0.000000
    15  C    2.406630   1.403096   2.448935   1.397751   0.000000
    16  H    5.939919   6.624045   8.213561   8.706421   8.015944
    17  H    4.321435   5.319674   6.365485   7.066903   6.630986
    18  H    2.805344   3.102423   5.205689   5.347692   4.477553
    19  H    2.994810   3.459764   5.353604   5.604422   4.821163
    20  H    5.202918   5.650512   7.599859   7.894965   7.048506
    21  H    5.169614   5.580435   7.533848   7.803466   6.953414
    22  H    3.337130   4.709368   4.523920   5.601483   5.678196
    23  H    4.252543   5.486020   3.688753   5.056009   5.803407
    24  H    2.171913   1.087699   3.936294   3.419623   2.166809
    25  H    3.437767   3.936391   1.087794   2.180830   3.435408
    26  H    3.869658   3.413662   2.161066   1.086950   2.151857
    27  H    3.393774   2.157719   3.427271   2.153346   1.086493
    28  O    5.175082   6.386034   4.509618   5.857377   6.660810
    29  H    5.364855   6.627944   5.110311   6.421023   7.070850
    30  O    5.646144   5.863485   7.980613   8.116396   7.177611
    31  H    6.361395   6.672048   8.627544   8.841344   7.969494
    32  H    6.184913   6.211732   8.544267   8.543346   7.491591
    33  O    5.791382   6.754798   6.689280   7.531018   7.561502
    34  H    6.567098   7.536744   7.600759   8.445652   8.419141
    35  H    5.073186   6.009662   6.267596   7.036793   6.927483
    36  O    5.226880   5.396192   7.424467   7.525405   6.625602
    37  H    4.730902   5.063978   6.799633   7.017097   6.257999
    38  H    6.146154   6.319785   8.279447   8.391419   7.510313
    39  O    7.217315   8.085879   9.300356   9.978192   9.446185
    40  H    7.877007   8.683852   9.979680  10.616982  10.043942
    41  H    6.683034   7.639996   8.648125   9.396660   8.959185
    42  O    5.597060   6.942070   6.675195   7.831195   7.945882
    43  H    6.411362   7.753929   7.482536   8.655653   8.773575
    44  H    5.575548   6.844894   6.933746   7.982558   7.946513
    45  H    5.846122   7.041473   6.386479   7.491477   7.775945
    46  O    6.103401   7.381804   6.459466   7.675832   8.075257
    47  H    5.858098   7.188800   6.462022   7.684958   7.997097
                   16         17         18         19         20
    16  H    0.000000
    17  H    2.349465   0.000000
    18  H    3.655154   3.103463   0.000000
    19  H    3.613699   2.477167   1.752862   0.000000
    20  H    1.707076   2.453034   2.875864   2.413215   0.000000
    21  H    1.714206   2.984210   2.480576   3.102722   1.712260
    22  H    4.761008   2.634810   3.910019   3.661348   4.868000
    23  H    7.576161   5.609278   6.008743   6.146037   7.706355
    24  H    6.263812   5.290558   2.695509   3.150380   5.139593
    25  H    8.990284   7.038322   6.171099   6.273765   8.483287
    26  H    9.788692   8.147375   6.392461   6.660092   8.959387
    27  H    8.682557   7.470157   5.073737   5.469034   7.608856
    28  O    8.141766   6.267129   6.796183   7.010060   8.426637
    29  H    7.575262   5.848496   6.586316   6.873859   8.037099
    30  O    3.336928   3.572597   3.749392   2.679949   1.747991
    31  H    3.591228   3.838982   4.608044   3.395617   2.295995
    32  H    3.843611   4.430215   4.125175   3.327028   2.287150
    33  O    5.852385   5.330480   5.407141   6.453300   6.730468
    34  H    5.745090   5.514822   5.877063   6.884686   6.835150
    35  H    5.001681   4.512247   4.444487   5.523136   5.787637
    36  O    3.398065   4.368355   2.652989   4.057372   3.420319
    37  H    3.532146   4.090650   2.477426   4.004758   3.734679
    38  H    3.733479   5.041012   3.620517   4.981371   4.044666
    39  O    1.772165   3.170884   5.226139   5.131217   3.380213
    40  H    2.282756   4.030160   5.720272   5.835592   3.933467
    41  H    1.993512   2.821397   4.897797   4.952124   3.596719
    42  O    4.813683   3.246015   5.512874   5.317123   5.604605
    43  H    5.093926   3.649911   6.248442   5.878394   5.960767
    44  H    4.006006   2.799250   5.028165   4.997926   4.972078
    45  H    6.345822   5.260814   6.042445   6.670769   7.193997
    46  O    6.741327   5.424523   6.544956   6.949520   7.562153
    47  H    6.046689   4.644059   6.143557   6.359297   6.876643
                   21         22         23         24         25
    21  H    0.000000
    22  H    4.951173   0.000000
    23  H    7.500753   2.995110   0.000000
    24  H    5.069251   5.212917   6.380745   0.000000
    25  H    8.418692   4.914304   3.410071   5.024058   0.000000
    26  H    8.854501   6.599193   5.726341   4.309374   2.501578
    27  H    7.497605   6.712573   6.864421   2.489950   4.325267
    28  O    8.133671   3.690370   0.972941   7.274062   4.104921
    29  H    7.657218   3.425349   1.535489   7.420517   4.862187
    30  O    3.306987   5.807241   8.608022   5.247698   8.900993
    31  H    3.962420   6.168506   9.048628   6.120064   9.498269
    32  H    3.558792   6.651141   9.392360   5.457744   9.512500
    33  O    5.618798   4.379767   4.660981   7.091553   6.980810
    34  H    5.679243   4.895420   5.433260   7.795461   7.903951
    35  H    4.670593   3.829253   4.629455   6.263605   6.694271
    36  O    1.817235   5.644425   7.661238   4.848180   8.328512
    37  H    2.172678   4.972974   6.803795   4.700627   7.642567
    38  H    2.373491   6.363546   8.320870   5.773443   9.153531
    39  O    3.345748   5.271922   7.977469   7.855187   9.946693
    40  H    3.597219   6.047273   8.637462   8.400043  10.639870
    41  H    3.322583   4.552099   7.122206   7.515171   9.242889
    42  O    5.595912   2.310852   4.078204   7.345115   6.894542
    43  H    6.114573   3.097233   4.824713   8.129417   7.667268
    44  H    4.803569   2.543071   4.623154   7.124187   7.273693
    45  H    6.459185   3.682023   3.490614   7.568385   6.462427
    46  O    7.020506   3.611608   3.163880   7.982073   6.418091
    47  H    6.494325   2.987807   3.280724   7.734593   6.505386
                   26         27         28         29         30
    26  H    0.000000
    27  H    2.470205   0.000000
    28  O    6.447811   7.702794   0.000000
    29  H    7.100367   8.117343   0.982373   0.000000
    30  O    9.127185   7.609920   9.419206   9.163683   0.000000
    31  H    9.851612   8.433755   9.837801   9.562114   0.975015
    32  H    9.522746   7.801223  10.211403   9.957862   0.974940
    33  O    8.368302   8.415666   4.629190   3.859846   8.305491
    34  H    9.306303   9.262604   5.349190   4.495791   8.488448
    35  H    7.940206   7.767350   4.799345   4.100163   7.353361
    36  O    8.498490   7.050374   8.242755   7.789113   4.777439
    37  H    7.993403   6.787630   7.344263   6.876316   5.194204
    38  H    9.343579   7.907359   8.829410   8.305519   5.451401
    39  O   11.060182  10.199612   8.380490   7.677096   4.805419
    40  H   11.692895  10.759492   8.992399   8.241056   5.397420
    41  H   10.467723   9.764764   7.481207   6.748757   5.150688
    42  O    8.794674   8.973047   4.289442   3.607907   6.797278
    43  H    9.614696   9.800116   4.974082   4.309803   7.073122
    44  H    8.986088   8.927869   4.874490   4.135318   6.324130
    45  H    8.306205   8.754835   3.262641   2.337726   8.638471
    46  O    8.467666   9.099269   2.804982   1.822813   8.916924
    47  H    8.546216   9.036769   3.139683   2.231844   8.191909
                   31         32         33         34         35
    31  H    0.000000
    32  H    1.539754   0.000000
    33  O    8.847980   8.870802   0.000000
    34  H    8.972838   9.041022   0.972024   0.000000
    35  H    7.925279   7.901217   0.986370   1.534430   0.000000
    36  O    5.569698   4.831597   5.206971   5.345649   4.301024
    37  H    5.968568   5.402420   4.269476   4.481878   3.357507
    38  H    6.180876   5.437964   5.354978   5.350147   4.537022
    39  O    4.785678   5.356904   5.947102   5.596763   5.297291
    40  H    5.412739   5.820003   6.104448   5.638248   5.504724
    41  H    5.248060   5.769293   5.010675   4.675561   4.396090
    42  O    6.939379   7.670859   4.204682   4.304446   3.946538
    43  H    7.083539   7.971635   5.020125   4.997488   4.807994
    44  H    6.505959   7.144215   3.784559   3.770163   3.410910
    45  H    9.058354   9.351673   1.827123   2.220462   2.301286
    46  O    9.263041   9.694097   2.808702   3.119800   3.207701
    47  H    8.472546   9.005307   3.150351   3.368929   3.295992
                   36         37         38         39         40
    36  O    0.000000
    37  H    0.978112   0.000000
    38  H    0.973909   1.548160   0.000000
    39  O    4.755802   4.738882   4.853423   0.000000
    40  H    4.781279   4.833193   4.681271   0.973814   0.000000
    41  H    4.540949   4.326941   4.683713   0.984262   1.547987
    42  O    6.465173   5.796493   6.932204   4.491216   5.193465
    43  H    7.145796   6.545441   7.575659   4.501739   5.221386
    44  H    5.667985   5.032183   6.069620   3.653733   4.300252
    45  H    6.459380   5.534854   6.757082   6.235557   6.589748
    46  O    7.203803   6.302960   7.554413   6.527010   6.966379
    47  H    6.908045   6.068287   7.299775   5.777814   6.296773
                   41         42         43         44         45
    41  H    0.000000
    42  O    3.674935   0.000000
    43  H    3.795466   0.972181   0.000000
    44  H    2.775932   0.980414   1.557411   0.000000
    45  H    5.253046   3.127435   3.889774   3.122086   0.000000
    46  O    5.559501   2.809082   3.458490   3.096517   0.983683
    47  H    4.837320   1.836440   2.492658   2.217997   1.547426
                   46         47
    46  O    0.000000
    47  H    0.979322   0.000000
 Stoichiometry    C11H25N2O9(2)
 Framework group  C1[X(C11H25N2O9)]
 Deg. of freedom   135
 Full point group                 C1
 Largest Abelian subgroup         C1      NOp   1
 Largest concise Abelian subgroup C1      NOp   1
                         Standard orientation:                         
 ---------------------------------------------------------------------
 Center     Atomic     Atomic              Coordinates (Angstroms)
 Number     Number      Type              X           Y           Z
 ---------------------------------------------------------------------
    1          8             0        2.550192    1.335531    0.208721
    2          6             0        1.743439    0.411447    0.520233
    3          8             0        1.012013    0.394082    1.546135
    4          6             0        1.666367   -0.819814   -0.434540
    5          6             0        0.394477   -1.658392   -0.271960
    6          7             0        2.863185   -1.691609   -0.138728
    7          6             0       -0.884818   -0.913268   -0.464498
    8          6             0       -1.104476    0.393734   -1.036852
    9          7             0       -2.375860    0.757216   -1.037405
   10          6             0       -3.083483   -0.322046   -0.457814
   11          6             0       -2.194301   -1.373022   -0.094332
   12          6             0       -2.684234   -2.538907    0.503292
   13          6             0       -4.444077   -0.422802   -0.231319
   14          6             0       -4.928162   -1.603976    0.370872
   15          6             0       -4.064826   -2.642520    0.731127
   16          1             0        3.735442   -1.157423   -0.366908
   17          1             0        1.792842   -0.482153   -1.502822
   18          1             0        0.382620   -2.124238    0.721209
   19          1             0        0.435238   -2.490270   -0.992202
   20          1             0        2.832061   -2.561993   -0.720733
   21          1             0        2.851675   -1.941614    0.875067
   22          1             0       -0.341318    1.061194   -1.427554
   23          1             0       -2.719212    2.782062   -0.831805
   24          1             0       -2.017391   -3.349463    0.788612
   25          1             0       -5.120784    0.382969   -0.507175
   26          1             0       -5.994004   -1.704974    0.558598
   27          1             0       -4.466733   -3.539480    1.194161
   28          8             0       -2.762504    3.739252   -0.662906
   29          1             0       -1.840142    3.970444   -0.416218
   30          8             0        2.549393   -3.966859   -1.721694
   31          1             0        3.086873   -3.945972   -2.534918
   32          1             0        2.830609   -4.782700   -1.268010
   33          8             0        0.673653    3.021948    2.354990
   34          1             0        1.578328    3.366980    2.440707
   35          1             0        0.815467    2.086601    2.075811
   36          8             0        2.254619   -1.933575    2.591401
   37          1             0        1.727499   -1.111345    2.538621
   38          1             0        2.957182   -1.740630    3.237679
   39          8             0        4.818842    0.171025   -0.816394
   40          1             0        5.511936    0.257702   -0.137851
   41          1             0        4.112965    0.793378   -0.527973
   42          8             0        1.241879    2.703031   -1.798895
   43          1             0        1.786789    3.017237   -2.540167
   44          1             0        1.866346    2.295355   -1.162457
   45          1             0        0.118718    3.910885    0.858255
   46          8             0       -0.113655    4.363714    0.016483
   47          1             0        0.374837    3.860419   -0.666994
 ---------------------------------------------------------------------
 Rotational constants (GHZ):      0.2414454      0.1815629      0.1276723
 Leave Link  202 at Wed Aug  2 09:32:20 2006, MaxMem=  268435456 cpu:       0.1
 (Enter /home/konrad/system/software//g03/l301.exe)
 Standard basis: EPR-II (5D, 7F)
 There are   549 symmetry adapted basis functions of A   symmetry.
 Integral buffers will be    131072 words long.
 Raffenetti 2 integral format.
 Two-electron integral symmetry is turned on.
   549 basis functions,   907 primitive gaussians,   571 cartesian basis functions
    89 alpha electrons       88 beta electrons
       nuclear repulsion energy      2029.9568379096 Hartrees.
 IExCor= 402 DFT=T Ex=B+HF Corr=LYP ExCW=0 ScaHFX=  0.200000
 ScaDFX=  0.800000  0.720000  1.000000  0.810000
 IRadAn=      5 IRanWt=     -1 IRanGd=            0 ICorTp=0
 NAtoms=   47 NActive=   47 NUniq=   47 SFac= 7.50D-01 NAtFMM=   80 NAOKFM=F Big=F
 Using the following non-standard input for PCM:
 RADII=UAKS
 --- end of non-standard input.
 ------------------------------------------------------------------------------
 United Atom Topological Model (UAKS parameters set).
  Nord Group  Hybr  Charge Alpha Radius          Bonded to
    1   O     sp3   0.00   1.20  1.500   C2   [d]
    2   C     sp2   0.00   1.20  1.680   O1   [d]  O3   [d]  C4   [s]
    3   O     sp3   0.00   1.20  1.500   C2   [d]
    4   CH    sp3   0.00   1.20  1.500   C2   [s]  C5   [s]  N6   [s]
    5   CH2   sp3   0.00   1.20  1.770   C4   [s]  C7   [s]
    6   NH3   sp3   0.00   1.20  1.770   C4   [s]
    7   C     sp3   0.00   1.20  1.500   C5   [s]  C8   [s]  C11  [s]
    8   CH    sp2   0.00   1.20  1.815   C7   [s]  N9   [d]
    9   N     sp2   0.00   1.20  1.500   C8   [d]  C10  [s]
   10   C     sp2   0.00   1.20  1.725   N9   [s]  C11  [s]  C13  [d]
   11   C     sp2   0.00   1.20  1.725   C7   [s]  C10  [s]  C12  [s]
   12   CH    sp2   0.00   1.20  1.905   C11  [s]  C15  [s]
   13   CH    sp2   0.00   1.20  1.815   C10  [d]  C14  [s]
   14   CH    sp2   0.00   1.20  1.905   C13  [s]  C15  [s]
   15   CH    sp2   0.00   1.20  1.905   C12  [s]  C14  [s]
   28   OH2   sp3   0.00   1.20  1.680
   30   OH2   sp3   0.00   1.20  1.680
   33   OH2   sp3   0.00   1.20  1.680
   36   OH2   sp3   0.00   1.20  1.680
   39   OH2   sp3   0.00   1.20  1.680
   42   OH2   sp3   0.00   1.20  1.680
   46   OH2   sp3   0.00   1.20  1.680
 ------------------------------------------------------------------------------
 Polarizable Continuum Model (PCM)
 =================================
 Model                : PCM.
 Atomic radii         : UAKS (United Atom Topological Model).
 Polarization charges : Total charges.
 Charge compensation  : None.
 Solution method      : Matrix inversion.
 Cavity               : GePol (RMin=0.200 OFac=0.890).
                        Default sphere list used, NSphG=   22.
                        Tesserae with average area of 0.200 Ang**2.
 Solvent              : Water, Eps     =  78.390000
                               Eps(inf)=   1.776000
                               RSolv   =   1.385000 Ang.
 ------------------------------------------------------------------------------
 GePol: Number of tesserae being generated         =    3937
 GePol: Average area of tesserae                   =       0.10 Ang**2
 GePol: Minimum area of tessera                    =   0.10D-02 Ang**2
 GePol: Maximum area of tessera                    =    0.31826 Ang**2
 GePol: Number of small tesserae                   =       0
 GePol: Fraction of small tesserae (<1% of avg)    =       0.00%
 GePol: Total count of vertices                    =   14772
 GePol: Maximum number of vertices in a tessera    =      10
 GePol: Cavity surface area                        =    391.897 Ang**2
 GePol: Cavity volume                              =    476.127 Ang**3
 Leave Link  301 at Wed Aug  2 09:32:33 2006, MaxMem=  268435456 cpu:       6.1
 (Enter /home/konrad/system/software//g03/l302.exe)
 NPDir=0 NMtPBC=     1 NCelOv=     1 NCel=       1 NClECP=     1 NCelD=      1
         NCelK=      1 NCelE2=     1 NClLst=     1 CellRange=     0.0.
 One-electron integrals computed using PRISM.
 NBasis=   549 RedAO= T  NBF=   549
 NBsUse=   549 1.00D-06 NBFU=   549
 Precomputing XC quadrature grid using
 IXCGrd= 2 IRadAn=           5 IRanWt=          -1 IRanGd=           0.
 NRdTot=    4022 NPtTot=     1083078 NUsed=     1111421 NTot=     1111453
 NSgBfM=   527   527   527   527.
 Leave Link  302 at Wed Aug  2 09:33:11 2006, MaxMem=  268435456 cpu:       3.4
 (Enter /home/konrad/system/software//g03/l303.exe)
 DipDrv:  MaxL=1.
 Leave Link  303 at Wed Aug  2 09:33:20 2006, MaxMem=  268435456 cpu:       0.3
 (Enter /home/konrad/system/software//g03/l401.exe)
 Initial guess read from the checkpoint file:
 tryptophan.chk
 Guess basis will be translated and rotated to current coordinates.
 Initial guess orbital symmetries:
 Alpha Orbitals:
       Occupied  (A) (A) (A) (A) (A) (A) (A) (A) (A) (A) (A) (A)
                 (A) (A) (A) (A) (A) (A) (A) (A) (A) (A) (A) (A)
                 (A) (A) (A) (A) (A) (A) (A) (A) (A) (A) (A) (A)
                 (A) (A) (A) (A) (A) (A) (A) (A) (A) (A) (A) (A)
                 (A) (A) (A) (A) (A) (A) (A) (A) (A) (A) (A) (A)
                 (A) (A) (A) (A) (A) (A) (A) (A) (A) (A) (A) (A)
                 (A) (A) (A) (A) (A) (A) (A) (A) (A) (A) (A) (A)
                 (A) (A) (A) (A) (A)
       Virtual   (A) (A) (A) (A) (A) (A) (A) (A) (A) (A) (A) (A)
                 (A) (A) (A) (A) (A) (A) (A) (A) (A) (A) (A) (A)
                 (A) (A) (A) (A) (A) (A) (A) (A) (A) (A) (A) (A)
                 (A) (A) (A) (A) (A) (A) (A) (A) (A) (A) (A) (A)
                 (A) (A) (A) (A) (A) (A) (A) (A) (A) (A) (A) (A)
                 (A) (A) (A) (A) (A) (A) (A) (A) (A) (A) (A) (A)
                 (A) (A) (A) (A) (A) (A) (A) (A) (A) (A) (A) (A)
                 (A) (A) (A) (A) (A) (A) (A) (A) (A) (A) (A) (A)
                 (A) (A) (A) (A) (A) (A) (A) (A) (A) (A) (A) (A)
                 (A) (A) (A) (A) (A) (A) (A) (A) (A) (A) (A) (A)
                 (A) (A) (A) (A) (A) (A) (A) (A) (A) (A) (A) (A)
                 (A) (A) (A) (A) (A) (A) (A) (A) (A) (A) (A) (A)
                 (A) (A) (A) (A) (A) (A) (A) (A) (A) (A) (A) (A)
                 (A) (A) (A) (A) (A) (A) (A) (A) (A) (A) (A) (A)
                 (A) (A) (A) (A) (A) (A) (A) (A) (A) (A) (A) (A)
                 (A) (A) (A) (A) (A) (A) (A) (A) (A) (A) (A) (A)
                 (A) (A) (A) (A) (A) (A) (A) (A) (A) (A) (A) (A)
                 (A) (A) (A) (A) (A) (A) (A) (A) (A) (A) (A) (A)
                 (A) (A) (A) (A) (A) (A) (A) (A) (A) (A) (A) (A)
                 (A) (A) (A) (A) (A) (A) (A) (A) (A) (A) (A) (A)
                 (A) (A) (A) (A) (A) (A) (A) (A) (A) (A) (A) (A)
                 (A) (A) (A) (A) (A) (A) (A) (A) (A) (A) (A) (A)
                 (A) (A) (A) (A) (A) (A) (A) (A) (A) (A) (A) (A)
                 (A) (A) (A) (A) (A) (A) (A) (A) (A) (A) (A) (A)
                 (A) (A) (A) (A) (A) (A) (A) (A) (A) (A) (A) (A)
                 (A) (A) (A) (A) (A) (A) (A) (A) (A) (A) (A) (A)
                 (A) (A) (A) (A) (A) (A) (A) (A) (A) (A) (A) (A)
                 (A) (A) (A) (A) (A) (A) (A) (A) (A) (A) (A) (A)
                 (A) (A) (A) (A) (A) (A) (A) (A) (A) (A) (A) (A)
                 (A) (A) (A) (A) (A) (A) (A) (A) (A) (A) (A) (A)
                 (A) (A) (A) (A) (A) (A) (A) (A) (A) (A) (A) (A)
                 (A) (A) (A) (A) (A) (A) (A) (A) (A) (A) (A) (A)
                 (A) (A) (A) (A) (A) (A) (A) (A) (A) (A) (A) (A)
                 (A) (A) (A) (A) (A) (A) (A) (A) (A) (A) (A) (A)
                 (A) (A) (A) (A) (A) (A) (A) (A) (A) (A) (A) (A)
                 (A) (A) (A) (A) (A) (A) (A) (A) (A) (A) (A) (A)
                 (A) (A) (A) (A) (A) (A) (A) (A) (A) (A) (A) (A)
                 (A) (A) (A) (A) (A) (A) (A) (A) (A) (A) (A) (A)
                 (A) (A) (A) (A)
 Beta  Orbitals:
       Occupied  (A) (A) (A) (A) (A) (A) (A) (A) (A) (A) (A) (A)
                 (A) (A) (A) (A) (A) (A) (A) (A) (A) (A) (A) (A)
                 (A) (A) (A) (A) (A) (A) (A) (A) (A) (A) (A) (A)
                 (A) (A) (A) (A) (A) (A) (A) (A) (A) (A) (A) (A)
                 (A) (A) (A) (A) (A) (A) (A) (A) (A) (A) (A) (A)
                 (A) (A) (A) (A) (A) (A) (A) (A) (A) (A) (A) (A)
                 (A) (A) (A) (A) (A) (A) (A) (A) (A) (A) (A) (A)
                 (A) (A) (A) (A)
       Virtual   (A) (A) (A) (A) (A) (A) (A) (A) (A) (A) (A) (A)
                 (A) (A) (A) (A) (A) (A) (A) (A) (A) (A) (A) (A)
                 (A) (A) (A) (A) (A) (A) (A) (A) (A) (A) (A) (A)
                 (A) (A) (A) (A) (A) (A) (A) (A) (A) (A) (A) (A)
                 (A) (A) (A) (A) (A) (A) (A) (A) (A) (A) (A) (A)
                 (A) (A) (A) (A) (A) (A) (A) (A) (A) (A) (A) (A)
                 (A) (A) (A) (A) (A) (A) (A) (A) (A) (A) (A) (A)
                 (A) (A) (A) (A) (A) (A) (A) (A) (A) (A) (A) (A)
                 (A) (A) (A) (A) (A) (A) (A) (A) (A) (A) (A) (A)
                 (A) (A) (A) (A) (A) (A) (A) (A) (A) (A) (A) (A)
                 (A) (A) (A) (A) (A) (A) (A) (A) (A) (A) (A) (A)
                 (A) (A) (A) (A) (A) (A) (A) (A) (A) (A) (A) (A)
                 (A) (A) (A) (A) (A) (A) (A) (A) (A) (A) (A) (A)
                 (A) (A) (A) (A) (A) (A) (A) (A) (A) (A) (A) (A)
                 (A) (A) (A) (A) (A) (A) (A) (A) (A) (A) (A) (A)
                 (A) (A) (A) (A) (A) (A) (A) (A) (A) (A) (A) (A)
                 (A) (A) (A) (A) (A) (A) (A) (A) (A) (A) (A) (A)
                 (A) (A) (A) (A) (A) (A) (A) (A) (A) (A) (A) (A)
                 (A) (A) (A) (A) (A) (A) (A) (A) (A) (A) (A) (A)
                 (A) (A) (A) (A) (A) (A) (A) (A) (A) (A) (A) (A)
                 (A) (A) (A) (A) (A) (A) (A) (A) (A) (A) (A) (A)
                 (A) (A) (A) (A) (A) (A) (A) (A) (A) (A) (A) (A)
                 (A) (A) (A) (A) (A) (A) (A) (A) (A) (A) (A) (A)
                 (A) (A) (A) (A) (A) (A) (A) (A) (A) (A) (A) (A)
                 (A) (A) (A) (A) (A) (A) (A) (A) (A) (A) (A) (A)
                 (A) (A) (A) (A) (A) (A) (A) (A) (A) (A) (A) (A)
                 (A) (A) (A) (A) (A) (A) (A) (A) (A) (A) (A) (A)
                 (A) (A) (A) (A) (A) (A) (A) (A) (A) (A) (A) (A)
                 (A) (A) (A) (A) (A) (A) (A) (A) (A) (A) (A) (A)
                 (A) (A) (A) (A) (A) (A) (A) (A) (A) (A) (A) (A)
                 (A) (A) (A) (A) (A) (A) (A) (A) (A) (A) (A) (A)
                 (A) (A) (A) (A) (A) (A) (A) (A) (A) (A) (A) (A)
                 (A) (A) (A) (A) (A) (A) (A) (A) (A) (A) (A) (A)
                 (A) (A) (A) (A) (A) (A) (A) (A) (A) (A) (A) (A)
                 (A) (A) (A) (A) (A) (A) (A) (A) (A) (A) (A) (A)
                 (A) (A) (A) (A) (A) (A) (A) (A) (A) (A) (A) (A)
                 (A) (A) (A) (A) (A) (A) (A) (A) (A) (A) (A) (A)
                 (A) (A) (A) (A) (A) (A) (A) (A) (A) (A) (A) (A)
                 (A) (A) (A) (A) (A)
 The electronic state of the initial guess is 2-A.
 <S**2> of initial guess= 0.7653
 Leave Link  401 at Wed Aug  2 09:33:31 2006, MaxMem=  268435456 cpu:       5.4
 (Enter /home/konrad/system/software//g03/l502.exe)
 UHF open shell SCF:
 Requested convergence on RMS density matrix=1.00D-08 within 128 cycles.
 Requested convergence on MAX density matrix=1.00D-06.
 Requested convergence on             energy=1.00D-06.
 No special actions if energy rises.
 Using DIIS extrapolation, IDIIS=  1040.
 Integral symmetry usage will be decided dynamically.
      1111420 words used for storage of precomputed grid.
 IEnd=   2282914 IEndB=   2282914 NGot= 268435456 MDV= 266495795
 LenX= 266495795
 Fock matrices will be formed incrementally for  20 cycles.

 Cycle   1  Pass 1  IDiag  1:
 Petite list used in FoFDir.
 MinBra= 0 MaxBra= 2 Meth= 1.
 IRaf=       0 NMat=   1 IRICut=       1 DoRegI=T DoRafI=F ISym2E= 1 JSym2E=1.
 E= -1221.01588683063    
 DIIS: error= 3.47D-02 at cycle   1 NSaved=   1.
 NSaved= 1 IEnMin= 1 EnMin= -1221.01588683063     IErMin= 1 ErrMin= 3.47D-02
 ErrMax= 3.47D-02 EMaxC= 1.00D-01 BMatC= 3.68D+00 BMatP= 3.68D+00
 IDIUse=3 WtCom= 6.53D-01 WtEn= 3.47D-01
 Coeff-Com:  0.100D+01
 Coeff-En:   0.100D+01
 Coeff:      0.100D+01
 Gap=     0.434 Goal=   None    Shift=    0.000
 Gap=     0.452 Goal=   None    Shift=    0.000
 GapD=    0.434 DampG=2.000 DampE=0.500 DampFc=1.0000 IDamp=-1.
 RMSDP=5.63D-03 MaxDP=5.50D-01              OVMax= 5.05D-02

 Cycle   2  Pass 1  IDiag  1:
 RMSU=  5.61D-03    CP:  9.53D-01
 E= -1221.15636902340     Delta-E=       -0.140482192768 Rises=F Damp=F
 DIIS: error= 1.65D-03 at cycle   2 NSaved=   2.
 NSaved= 2 IEnMin= 2 EnMin= -1221.15636902340     IErMin= 2 ErrMin= 1.65D-03
 ErrMax= 1.65D-03 EMaxC= 1.00D-01 BMatC= 9.80D-03 BMatP= 3.68D+00
 IDIUse=3 WtCom= 9.83D-01 WtEn= 1.65D-02
 Coeff-Com: -0.680D-02 0.101D+01
 Coeff-En:   0.000D+00 0.100D+01
 Coeff:     -0.668D-02 0.101D+01
 Gap=     0.183 Goal=   None    Shift=    0.000
 Gap=     0.100 Goal=   None    Shift=    0.000
 RMSDP=3.47D-04 MaxDP=3.25D-02 DE=-1.40D-01 OVMax= 1.40D-02

 Cycle   3  Pass 1  IDiag  1:
 RMSU=  3.23D-04    CP:  9.51D-01  1.02D+00
 E= -1221.15371376806     Delta-E=        0.002655255344 Rises=F Damp=F
 DIIS: error= 2.60D-03 at cycle   3 NSaved=   3.
 NSaved= 3 IEnMin= 2 EnMin= -1221.15636902340     IErMin= 2 ErrMin= 1.65D-03
 ErrMax= 2.60D-03 EMaxC= 1.00D-01 BMatC= 2.46D-02 BMatP= 9.80D-03
 IDIUse=3 WtCom= 1.64D-01 WtEn= 8.36D-01
 Coeff-Com: -0.662D-02 0.626D+00 0.381D+00
 Coeff-En:   0.000D+00 0.686D+00 0.314D+00
 Coeff:     -0.109D-02 0.676D+00 0.325D+00
 Gap=     0.184 Goal=   None    Shift=    0.000
 Gap=     0.099 Goal=   None    Shift=    0.000
 RMSDP=2.17D-04 MaxDP=3.30D-02 DE= 2.66D-03 OVMax= 9.78D-03

 Cycle   4  Pass 1  IDiag  1:
 RMSU=  1.15D-04    CP:  9.51D-01  1.04D+00  5.49D-01
 E= -1221.15825380409     Delta-E=       -0.004540036031 Rises=F Damp=F
 DIIS: error= 4.55D-04 at cycle   4 NSaved=   4.
 NSaved= 4 IEnMin= 4 EnMin= -1221.15825380409     IErMin= 4 ErrMin= 4.55D-04
 ErrMax= 4.55D-04 EMaxC= 1.00D-01 BMatC= 3.31D-04 BMatP= 9.80D-03
 IDIUse=3 WtCom= 9.95D-01 WtEn= 4.55D-03
 Coeff-Com: -0.197D-02 0.166D+00 0.252D-01 0.811D+00
 Coeff-En:   0.000D+00 0.000D+00 0.000D+00 0.100D+01
 Coeff:     -0.196D-02 0.165D+00 0.251D-01 0.811D+00
 Gap=     0.184 Goal=   None    Shift=    0.000
 Gap=     0.098 Goal=   None    Shift=    0.000
 RMSDP=8.06D-05 MaxDP=1.32D-02 DE=-4.54D-03 OVMax= 2.42D-03

 Cycle   5  Pass 1  IDiag  1:
 RMSU=  3.71D-05    CP:  9.51D-01  1.05D+00  4.63D-01  1.31D+00
 E= -1221.15828574315     Delta-E=       -0.000031939062 Rises=F Damp=F
 DIIS: error= 2.09D-04 at cycle   5 NSaved=   5.
 NSaved= 5 IEnMin= 5 EnMin= -1221.15828574315     IErMin= 5 ErrMin= 2.09D-04
 ErrMax= 2.09D-04 EMaxC= 1.00D-01 BMatC= 1.48D-04 BMatP= 3.31D-04
 IDIUse=3 WtCom= 9.98D-01 WtEn= 2.09D-03
 Coeff-Com: -0.279D-03 0.113D-01-0.442D-01 0.537D+00 0.496D+00
 Coeff-En:   0.000D+00 0.000D+00 0.000D+00 0.320D+00 0.680D+00
 Coeff:     -0.278D-03 0.113D-01-0.441D-01 0.537D+00 0.496D+00
 Gap=     0.184 Goal=   None    Shift=    0.000
 Gap=     0.098 Goal=   None    Shift=    0.000
 RMSDP=2.03D-05 MaxDP=2.75D-03 DE=-3.19D-05 OVMax= 2.16D-03

 Cycle   6  Pass 1  IDiag  1:
 RMSU=  7.34D-06    CP:  9.51D-01  1.05D+00  4.88D-01  1.28D+00  5.96D-01
 E= -1221.15831857294     Delta-E=       -0.000032829790 Rises=F Damp=F
 DIIS: error= 2.85D-05 at cycle   6 NSaved=   6.
 NSaved= 6 IEnMin= 6 EnMin= -1221.15831857294     IErMin= 6 ErrMin= 2.85D-05
 ErrMax= 2.85D-05 EMaxC= 1.00D-01 BMatC= 6.18D-06 BMatP= 1.48D-04
 IDIUse=1 WtCom= 1.00D+00 WtEn= 0.00D+00
 Coeff-Com: -0.349D-04-0.360D-02-0.246D-01 0.235D+00 0.263D+00 0.530D+00
 Coeff:     -0.349D-04-0.360D-02-0.246D-01 0.235D+00 0.263D+00 0.530D+00
 Gap=     0.184 Goal=   None    Shift=    0.000
 Gap=     0.098 Goal=   None    Shift=    0.000
 RMSDP=3.24D-06 MaxDP=3.07D-04 DE=-3.28D-05 OVMax= 4.48D-04

 Cycle   7  Pass 1  IDiag  1:
 RMSU=  2.75D-06    CP:  9.51D-01  1.05D+00  4.91D-01  1.28D+00  6.10D-01
                    CP:  8.17D-01
 E= -1221.15831981039     Delta-E=       -0.000001237449 Rises=F Damp=F
 DIIS: error= 1.30D-05 at cycle   7 NSaved=   7.
 NSaved= 7 IEnMin= 7 EnMin= -1221.15831981039     IErMin= 7 ErrMin= 1.30D-05
 ErrMax= 1.30D-05 EMaxC= 1.00D-01 BMatC= 9.44D-07 BMatP= 6.18D-06
 IDIUse=1 WtCom= 1.00D+00 WtEn= 0.00D+00
 Coeff-Com:  0.210D-04-0.349D-02-0.643D-02 0.457D-01 0.701D-01 0.304D+00
 Coeff-Com:  0.590D+00
 Coeff:      0.210D-04-0.349D-02-0.643D-02 0.457D-01 0.701D-01 0.304D+00
 Coeff:      0.590D+00
 Gap=     0.184 Goal=   None    Shift=    0.000
 Gap=     0.098 Goal=   None    Shift=    0.000
 RMSDP=2.19D-06 MaxDP=3.20D-04 DE=-1.24D-06 OVMax= 2.11D-04

 Cycle   8  Pass 1  IDiag  1:
 RMSU=  9.25D-07    CP:  9.51D-01  1.05D+00  4.90D-01  1.29D+00  6.23D-01
                    CP:  8.58D-01  7.57D-01
 E= -1221.15832001916     Delta-E=       -0.000000208776 Rises=F Damp=F
 DIIS: error= 4.13D-06 at cycle   8 NSaved=   8.
 NSaved= 8 IEnMin= 8 EnMin= -1221.15832001916     IErMin= 8 ErrMin= 4.13D-06
 ErrMax= 4.13D-06 EMaxC= 1.00D-01 BMatC= 6.79D-08 BMatP= 9.44D-07
 IDIUse=1 WtCom= 1.00D+00 WtEn= 0.00D+00
 Coeff-Com:  0.127D-04-0.126D-02-0.208D-03-0.394D-02 0.605D-02 0.776D-01
 Coeff-Com:  0.263D+00 0.659D+00
 Coeff:      0.127D-04-0.126D-02-0.208D-03-0.394D-02 0.605D-02 0.776D-01
 Coeff:      0.263D+00 0.659D+00
 Gap=     0.184 Goal=   None    Shift=    0.000
 Gap=     0.098 Goal=   None    Shift=    0.000
 RMSDP=5.42D-07 MaxDP=6.03D-05 DE=-2.09D-07 OVMax= 8.06D-05

 Cycle   9  Pass 1  IDiag  1:
 RMSU=  3.78D-07    CP:  9.51D-01  1.05D+00  4.90D-01  1.29D+00  6.23D-01
                    CP:  8.81D-01  8.22D-01  8.87D-01
 E= -1221.15832003890     Delta-E=       -0.000000019740 Rises=F Damp=F
 DIIS: error= 1.76D-06 at cycle   9 NSaved=   9.
 NSaved= 9 IEnMin= 9 EnMin= -1221.15832003890     IErMin= 9 ErrMin= 1.76D-06
 ErrMax= 1.76D-06 EMaxC= 1.00D-01 BMatC= 1.90D-08 BMatP= 6.79D-08
 IDIUse=1 WtCom= 1.00D+00 WtEn= 0.00D+00
 Coeff-Com:  0.408D-05-0.176D-03 0.990D-03-0.973D-02-0.661D-02-0.513D-02
 Coeff-Com:  0.638D-01 0.369D+00 0.588D+00
 Coeff:      0.408D-05-0.176D-03 0.990D-03-0.973D-02-0.661D-02-0.513D-02
 Coeff:      0.638D-01 0.369D+00 0.588D+00
 Gap=     0.184 Goal=   None    Shift=    0.000
 Gap=     0.098 Goal=   None    Shift=    0.000
 RMSDP=2.72D-07 MaxDP=2.86D-05 DE=-1.97D-08 OVMax= 5.09D-05

 Cycle  10  Pass 1  IDiag  1:
 RMSU=  1.57D-07    CP:  9.51D-01  1.05D+00  4.90D-01  1.29D+00  6.26D-01
                    CP:  8.90D-01  8.46D-01  1.01D+00  9.92D-01
 E= -1221.15832004601     Delta-E=       -0.000000007102 Rises=F Damp=F
 DIIS: error= 1.07D-06 at cycle  10 NSaved=  10.
 NSaved=10 IEnMin=10 EnMin= -1221.15832004601     IErMin=10 ErrMin= 1.07D-06
 ErrMax= 1.07D-06 EMaxC= 1.00D-01 BMatC= 5.09D-09 BMatP= 1.90D-08
 IDIUse=1 WtCom= 1.00D+00 WtEn= 0.00D+00
 Coeff-Com: -0.118D-05 0.247D-03 0.700D-03-0.478D-02-0.468D-02-0.247D-01
 Coeff-Com: -0.270D-01 0.389D-01 0.320D+00 0.701D+00
 Coeff:     -0.118D-05 0.247D-03 0.700D-03-0.478D-02-0.468D-02-0.247D-01
 Coeff:     -0.270D-01 0.389D-01 0.320D+00 0.701D+00
 Gap=     0.184 Goal=   None    Shift=    0.000
 Gap=     0.098 Goal=   None    Shift=    0.000
 RMSDP=1.71D-07 MaxDP=2.50D-05 DE=-7.10D-09 OVMax= 5.61D-05

 Cycle  11  Pass 1  IDiag  1:
 RMSU=  1.13D-07    CP:  9.51D-01  1.05D+00  4.90D-01  1.29D+00  6.26D-01
                    CP:  8.94D-01  8.58D-01  1.07D+00  1.17D+00  1.16D+00
 E= -1221.15832004872     Delta-E=       -0.000000002711 Rises=F Damp=F
 DIIS: error= 8.35D-07 at cycle  11 NSaved=  11.
 NSaved=11 IEnMin=11 EnMin= -1221.15832004872     IErMin=11 ErrMin= 8.35D-07
 ErrMax= 8.35D-07 EMaxC= 1.00D-01 BMatC= 2.62D-09 BMatP= 5.09D-09
 IDIUse=1 WtCom= 1.00D+00 WtEn= 0.00D+00
 Coeff-Com: -0.306D-05 0.274D-03 0.131D-04 0.166D-02 0.619D-03-0.165D-01
 Coeff-Com: -0.516D-01-0.174D+00-0.891D-01 0.546D+00 0.782D+00
 Coeff:     -0.306D-05 0.274D-03 0.131D-04 0.166D-02 0.619D-03-0.165D-01
 Coeff:     -0.516D-01-0.174D+00-0.891D-01 0.546D+00 0.782D+00
 Gap=     0.184 Goal=   None    Shift=    0.000
 Gap=     0.098 Goal=   None    Shift=    0.000
 RMSDP=1.45D-07 MaxDP=2.32D-05 DE=-2.71D-09 OVMax= 5.25D-05

 Cycle  12  Pass 1  IDiag  1:
 RMSU=  5.06D-08    CP:  9.51D-01  1.05D+00  4.90D-01  1.29D+00  6.27D-01
                    CP:  8.96D-01  8.71D-01  1.13D+00  1.39D+00  1.67D+00
                    CP:  1.14D+00
 E= -1221.15832005035     Delta-E=       -0.000000001636 Rises=F Damp=F
 DIIS: error= 3.58D-07 at cycle  12 NSaved=  12.
 NSaved=12 IEnMin=12 EnMin= -1221.15832005035     IErMin=12 ErrMin= 3.58D-07
 ErrMax= 3.58D-07 EMaxC= 1.00D-01 BMatC= 3.05D-10 BMatP= 2.62D-09
 IDIUse=1 WtCom= 1.00D+00 WtEn= 0.00D+00
 Coeff-Com: -0.122D-05 0.828D-04-0.135D-03 0.182D-02 0.140D-02-0.376D-02
 Coeff-Com: -0.198D-01-0.945D-01-0.102D+00 0.147D+00 0.378D+00 0.692D+00
 Coeff:     -0.122D-05 0.828D-04-0.135D-03 0.182D-02 0.140D-02-0.376D-02
 Coeff:     -0.198D-01-0.945D-01-0.102D+00 0.147D+00 0.378D+00 0.692D+00
 Gap=     0.184 Goal=   None    Shift=    0.000
 Gap=     0.098 Goal=   None    Shift=    0.000
 RMSDP=5.01D-08 MaxDP=8.46D-06 DE=-1.64D-09 OVMax= 2.08D-05

 Cycle  13  Pass 1  IDiag  1:
 RMSU=  2.57D-08    CP:  9.51D-01  1.05D+00  4.90D-01  1.29D+00  6.27D-01
                    CP:  8.97D-01  8.72D-01  1.14D+00  1.45D+00  1.82D+00
                    CP:  1.29D+00  9.33D-01
 E= -1221.15832005048     Delta-E=       -0.000000000125 Rises=F Damp=F
 DIIS: error= 1.96D-07 at cycle  13 NSaved=  13.
 NSaved=13 IEnMin=13 EnMin= -1221.15832005048     IErMin=13 ErrMin= 1.96D-07
 ErrMax= 1.96D-07 EMaxC= 1.00D-01 BMatC= 7.20D-11 BMatP= 3.05D-10
 IDIUse=1 WtCom= 1.00D+00 WtEn= 0.00D+00
 Coeff-Com: -0.829D-08-0.953D-05-0.538D-04 0.454D-03 0.509D-03 0.124D-02
 Coeff-Com:  0.169D-02-0.780D-02-0.252D-01-0.353D-01 0.749D-02 0.317D+00
 Coeff-Com:  0.740D+00
 Coeff:     -0.829D-08-0.953D-05-0.538D-04 0.454D-03 0.509D-03 0.124D-02
 Coeff:      0.169D-02-0.780D-02-0.252D-01-0.353D-01 0.749D-02 0.317D+00
 Coeff:      0.740D+00
 Gap=     0.184 Goal=   None    Shift=    0.000
 Gap=     0.098 Goal=   None    Shift=    0.000
 RMSDP=2.35D-08 MaxDP=3.80D-06 DE=-1.25D-10 OVMax= 9.83D-06

 Cycle  14  Pass 1  IDiag  1:
 RMSU=  1.33D-08    CP:  9.51D-01  1.05D+00  4.90D-01  1.29D+00  6.27D-01
                    CP:  8.96D-01  8.72D-01  1.14D+00  1.47D+00  1.87D+00
                    CP:  1.37D+00  1.16D+00  1.10D+00
 E= -1221.15832005074     Delta-E=       -0.000000000259 Rises=F Damp=F
 DIIS: error= 1.33D-07 at cycle  14 NSaved=  14.
 NSaved=14 IEnMin=14 EnMin= -1221.15832005074     IErMin=14 ErrMin= 1.33D-07
 ErrMax= 1.33D-07 EMaxC= 1.00D-01 BMatC= 2.60D-11 BMatP= 7.20D-11
 IDIUse=1 WtCom= 1.00D+00 WtEn= 0.00D+00
 Coeff-Com:  0.401D-06-0.339D-04 0.149D-04-0.336D-03-0.144D-03 0.163D-02
 Coeff-Com:  0.713D-02 0.244D-01 0.173D-01-0.618D-01-0.117D+00-0.397D-01
 Coeff-Com:  0.399D+00 0.770D+00
 Coeff:      0.401D-06-0.339D-04 0.149D-04-0.336D-03-0.144D-03 0.163D-02
 Coeff:      0.713D-02 0.244D-01 0.173D-01-0.618D-01-0.117D+00-0.397D-01
 Coeff:      0.399D+00 0.770D+00
 Gap=     0.184 Goal=   None    Shift=    0.000
 Gap=     0.098 Goal=   None    Shift=    0.000
 RMSDP=1.63D-08 MaxDP=2.54D-06 DE=-2.59D-10 OVMax= 7.74D-06

 Cycle  15  Pass 1  IDiag  1:
 RMSU=  7.29D-09    CP:  9.51D-01  1.05D+00  4.90D-01  1.29D+00  6.27D-01
                    CP:  8.96D-01  8.72D-01  1.15D+00  1.48D+00  1.90D+00
                    CP:  1.41D+00  1.28D+00  1.47D+00  1.22D+00
 E= -1221.15832005095     Delta-E=       -0.000000000219 Rises=F Damp=F
 DIIS: error= 6.35D-08 at cycle  15 NSaved=  15.
 NSaved=15 IEnMin=15 EnMin= -1221.15832005095     IErMin=15 ErrMin= 6.35D-08
 ErrMax= 6.35D-08 EMaxC= 1.00D-01 BMatC= 9.14D-12 BMatP= 2.60D-11
 IDIUse=1 WtCom= 1.00D+00 WtEn= 0.00D+00
 Coeff-Com:  0.242D-06-0.167D-04 0.334D-04-0.392D-03-0.252D-03 0.542D-03
 Coeff-Com:  0.425D-02 0.186D-01 0.202D-01-0.214D-01-0.745D-01-0.147D+00
 Coeff-Com: -0.468D-01 0.420D+00 0.827D+00
 Coeff:      0.242D-06-0.167D-04 0.334D-04-0.392D-03-0.252D-03 0.542D-03
 Coeff:      0.425D-02 0.186D-01 0.202D-01-0.214D-01-0.745D-01-0.147D+00
 Coeff:     -0.468D-01 0.420D+00 0.827D+00
 Gap=     0.184 Goal=   None    Shift=    0.000
 Gap=     0.098 Goal=   None    Shift=    0.000
 RMSDP=1.17D-08 MaxDP=1.77D-06 DE=-2.19D-10 OVMax= 5.48D-06

 Cycle  16  Pass 1  IDiag  1:
 RMSU=  4.15D-09    CP:  9.51D-01  1.05D+00  4.90D-01  1.29D+00  6.27D-01
                    CP:  8.96D-01  8.73D-01  1.15D+00  1.48D+00  1.92D+00
                    CP:  1.43D+00  1.37D+00  1.71D+00  1.67D+00  1.15D+00
 E= -1221.15832005112     Delta-E=       -0.000000000170 Rises=F Damp=F
 DIIS: error= 3.71D-08 at cycle  16 NSaved=  16.
 NSaved=16 IEnMin=16 EnMin= -1221.15832005112     IErMin=16 ErrMin= 3.71D-08
 ErrMax= 3.71D-08 EMaxC= 1.00D-01 BMatC= 2.70D-12 BMatP= 9.14D-12
 IDIUse=1 WtCom= 1.00D+00 WtEn= 0.00D+00
 Coeff-Com: -0.131D-07 0.313D-05 0.124D-04-0.790D-04-0.557D-04-0.317D-03
 Coeff-Com: -0.201D-03 0.579D-03 0.286D-02 0.955D-02 0.439D-03-0.532D-01
 Coeff-Com: -0.136D+00-0.380D-01 0.428D+00 0.786D+00
 Coeff:     -0.131D-07 0.313D-05 0.124D-04-0.790D-04-0.557D-04-0.317D-03
 Coeff:     -0.201D-03 0.579D-03 0.286D-02 0.955D-02 0.439D-03-0.532D-01
 Coeff:     -0.136D+00-0.380D-01 0.428D+00 0.786D+00
 Gap=     0.184 Goal=   None    Shift=    0.000
 Gap=     0.098 Goal=   None    Shift=    0.000
 RMSDP=6.66D-09 MaxDP=8.60D-07 DE=-1.70D-10 OVMax= 3.40D-06

 Error on total polarization charges =  0.01849
 SCF Done:  E(UB+HF-LYP) =  -1221.15832005     A.U. after   16 cycles
             Convg  =    0.6658D-08             -V/T =  2.0070
             S**2   =   0.7649
 KE= 1.212631620869D+03 PE=-6.922719308613D+03 EE= 2.458972529783D+03
 --------------------------------------------------------------------
 Variational PCM results
 =======================
 <psi(f)|   H    |psi(f)>                     (a.u.) =   -1221.056190
 <psi(f)|H+V(f)/2|psi(f)>                     (a.u.) =   -1221.158320
 Total free energy in solution:
  with all non electrostatic terms            (a.u.) =   -1221.128804
 --------------------------------------------------------------------
 (Polarized solute)-Solvent               (kcal/mol) =     -64.09
 --------------------------------------------------------------------
 Cavitation energy                        (kcal/mol) =      49.79
 Dispersion energy                        (kcal/mol) =     -39.09
 Repulsion energy                         (kcal/mol) =       7.82
 Total non electrostatic                  (kcal/mol) =      18.52
 --------------------------------------------------------------------
 Partition over spheres:
 Sphere  on Atom  Surface  Charge   GEl     GCav    GDR
    1      O1       4.48   0.054   -0.27    1.81   -0.75
    2      C2       0.35   0.002    0.00    0.83   -0.02
    3      O3       3.43   0.036   -0.45    1.77   -0.54
    4      C4       1.56  -0.094   -5.36    0.60    0.04
    5      C5       4.20  -0.023   -0.37    2.18   -0.66
    6      N6       4.74  -0.041   -1.24    2.10   -0.62
    7      C7       0.00   0.000    0.00    0.27   -0.02
    8      C8       7.61   0.014   -0.18    2.46   -1.02
    9      N9       2.73   0.038   -1.05    1.16   -0.44
   10      C10      3.32   0.008   -0.12    0.80   -0.48
   11      C11      2.08   0.006   -0.04    0.71   -0.32
   12      C12     18.11  -0.025   -0.71    2.33   -1.97
   13      C13     15.41  -0.030   -0.17    2.05   -1.83
   14      C14     21.70  -0.023   -0.41    2.25   -2.15
   15      C15     20.09  -0.020   -0.49    2.12   -2.01
   16      O28     25.08   0.287  -10.75    3.99   -2.31
   17      O30     32.57  -0.262  -12.44    4.00   -3.59
   18      O33     24.87   0.031   -4.55    3.83   -2.49
   19      O36     27.18  -0.070   -4.64    3.73   -3.04
   20      O39     28.35  -0.024   -4.30    3.73   -3.06
   21      O42     19.69  -0.092   -2.88    3.74   -2.33
   22      O46     16.05   0.152   -4.49    3.35   -1.63
 Added spheres:   108.30   0.057   -9.19    0.00    0.00
 --------------------------------------------------------------------
 After PCM corrections, the SCF energy is  -1221.15832005     a.u.
 --------------------------------------------------------------------
 Annihilation of the first spin contaminant:
 S**2 before annihilation     0.7649,   after     0.7502
 Leave Link  502 at Wed Aug  2 11:21:14 2006, MaxMem=  268435456 cpu:    6397.1
 (Enter /home/konrad/system/software//g03/l601.exe)
 Copying SCF densities to generalized density rwf, ISCF=1 IROHF=0.

 **********************************************************************

            Population analysis using the SCF density.

 **********************************************************************

 Orbital symmetries:
 Alpha Orbitals:
       Occupied  (A) (A) (A) (A) (A) (A) (A) (A) (A) (A) (A) (A)
                 (A) (A) (A) (A) (A) (A) (A) (A) (A) (A) (A) (A)
                 (A) (A) (A) (A) (A) (A) (A) (A) (A) (A) (A) (A)
                 (A) (A) (A) (A) (A) (A) (A) (A) (A) (A) (A) (A)
                 (A) (A) (A) (A) (A) (A) (A) (A) (A) (A) (A) (A)
                 (A) (A) (A) (A) (A) (A) (A) (A) (A) (A) (A) (A)
                 (A) (A) (A) (A) (A) (A) (A) (A) (A) (A) (A) (A)
                 (A) (A) (A) (A) (A)
       Virtual   (A) (A) (A) (A) (A) (A) (A) (A) (A) (A) (A) (A)
                 (A) (A) (A) (A) (A) (A) (A) (A) (A) (A) (A) (A)
                 (A) (A) (A) (A) (A) (A) (A) (A) (A) (A) (A) (A)
                 (A) (A) (A) (A) (A) (A) (A) (A) (A) (A) (A) (A)
                 (A) (A) (A) (A) (A) (A) (A) (A) (A) (A) (A) (A)
                 (A) (A) (A) (A) (A) (A) (A) (A) (A) (A) (A) (A)
                 (A) (A) (A) (A) (A) (A) (A) (A) (A) (A) (A) (A)
                 (A) (A) (A) (A) (A) (A) (A) (A) (A) (A) (A) (A)
                 (A) (A) (A) (A) (A) (A) (A) (A) (A) (A) (A) (A)
                 (A) (A) (A) (A) (A) (A) (A) (A) (A) (A) (A) (A)
                 (A) (A) (A) (A) (A) (A) (A) (A) (A) (A) (A) (A)
                 (A) (A) (A) (A) (A) (A) (A) (A) (A) (A) (A) (A)
                 (A) (A) (A) (A) (A) (A) (A) (A) (A) (A) (A) (A)
                 (A) (A) (A) (A) (A) (A) (A) (A) (A) (A) (A) (A)
                 (A) (A) (A) (A) (A) (A) (A) (A) (A) (A) (A) (A)
                 (A) (A) (A) (A) (A) (A) (A) (A) (A) (A) (A) (A)
                 (A) (A) (A) (A) (A) (A) (A) (A) (A) (A) (A) (A)
                 (A) (A) (A) (A) (A) (A) (A) (A) (A) (A) (A) (A)
                 (A) (A) (A) (A) (A) (A) (A) (A) (A) (A) (A) (A)
                 (A) (A) (A) (A) (A) (A) (A) (A) (A) (A) (A) (A)
                 (A) (A) (A) (A) (A) (A) (A) (A) (A) (A) (A) (A)
                 (A) (A) (A) (A) (A) (A) (A) (A) (A) (A) (A) (A)
                 (A) (A) (A) (A) (A) (A) (A) (A) (A) (A) (A) (A)
                 (A) (A) (A) (A) (A) (A) (A) (A) (A) (A) (A) (A)
                 (A) (A) (A) (A) (A) (A) (A) (A) (A) (A) (A) (A)
                 (A) (A) (A) (A) (A) (A) (A) (A) (A) (A) (A) (A)
                 (A) (A) (A) (A) (A) (A) (A) (A) (A) (A) (A) (A)
                 (A) (A) (A) (A) (A) (A) (A) (A) (A) (A) (A) (A)
                 (A) (A) (A) (A) (A) (A) (A) (A) (A) (A) (A) (A)
                 (A) (A) (A) (A) (A) (A) (A) (A) (A) (A) (A) (A)
                 (A) (A) (A) (A) (A) (A) (A) (A) (A) (A) (A) (A)
                 (A) (A) (A) (A) (A) (A) (A) (A) (A) (A) (A) (A)
                 (A) (A) (A) (A) (A) (A) (A) (A) (A) (A) (A) (A)
                 (A) (A) (A) (A) (A) (A) (A) (A) (A) (A) (A) (A)
                 (A) (A) (A) (A) (A) (A) (A) (A) (A) (A) (A) (A)
                 (A) (A) (A) (A) (A) (A) (A) (A) (A) (A) (A) (A)
                 (A) (A) (A) (A) (A) (A) (A) (A) (A) (A) (A) (A)
                 (A) (A) (A) (A) (A) (A) (A) (A) (A) (A) (A) (A)
                 (A) (A) (A) (A)
 Beta  Orbitals:
       Occupied  (A) (A) (A) (A) (A) (A) (A) (A) (A) (A) (A) (A)
                 (A) (A) (A) (A) (A) (A) (A) (A) (A) (A) (A) (A)
                 (A) (A) (A) (A) (A) (A) (A) (A) (A) (A) (A) (A)
                 (A) (A) (A) (A) (A) (A) (A) (A) (A) (A) (A) (A)
                 (A) (A) (A) (A) (A) (A) (A) (A) (A) (A) (A) (A)
                 (A) (A) (A) (A) (A) (A) (A) (A) (A) (A) (A) (A)
                 (A) (A) (A) (A) (A) (A) (A) (A) (A) (A) (A) (A)
                 (A) (A) (A) (A)
       Virtual   (A) (A) (A) (A) (A) (A) (A) (A) (A) (A) (A) (A)
                 (A) (A) (A) (A) (A) (A) (A) (A) (A) (A) (A) (A)
                 (A) (A) (A) (A) (A) (A) (A) (A) (A) (A) (A) (A)
                 (A) (A) (A) (A) (A) (A) (A) (A) (A) (A) (A) (A)
                 (A) (A) (A) (A) (A) (A) (A) (A) (A) (A) (A) (A)
                 (A) (A) (A) (A) (A) (A) (A) (A) (A) (A) (A) (A)
                 (A) (A) (A) (A) (A) (A) (A) (A) (A) (A) (A) (A)
                 (A) (A) (A) (A) (A) (A) (A) (A) (A) (A) (A) (A)
                 (A) (A) (A) (A) (A) (A) (A) (A) (A) (A) (A) (A)
                 (A) (A) (A) (A) (A) (A) (A) (A) (A) (A) (A) (A)
                 (A) (A) (A) (A) (A) (A) (A) (A) (A) (A) (A) (A)
                 (A) (A) (A) (A) (A) (A) (A) (A) (A) (A) (A) (A)
                 (A) (A) (A) (A) (A) (A) (A) (A) (A) (A) (A) (A)
                 (A) (A) (A) (A) (A) (A) (A) (A) (A) (A) (A) (A)
                 (A) (A) (A) (A) (A) (A) (A) (A) (A) (A) (A) (A)
                 (A) (A) (A) (A) (A) (A) (A) (A) (A) (A) (A) (A)
                 (A) (A) (A) (A) (A) (A) (A) (A) (A) (A) (A) (A)
                 (A) (A) (A) (A) (A) (A) (A) (A) (A) (A) (A) (A)
                 (A) (A) (A) (A) (A) (A) (A) (A) (A) (A) (A) (A)
                 (A) (A) (A) (A) (A) (A) (A) (A) (A) (A) (A) (A)
                 (A) (A) (A) (A) (A) (A) (A) (A) (A) (A) (A) (A)
                 (A) (A) (A) (A) (A) (A) (A) (A) (A) (A) (A) (A)
                 (A) (A) (A) (A) (A) (A) (A) (A) (A) (A) (A) (A)
                 (A) (A) (A) (A) (A) (A) (A) (A) (A) (A) (A) (A)
                 (A) (A) (A) (A) (A) (A) (A) (A) (A) (A) (A) (A)
                 (A) (A) (A) (A) (A) (A) (A) (A) (A) (A) (A) (A)
                 (A) (A) (A) (A) (A) (A) (A) (A) (A) (A) (A) (A)
                 (A) (A) (A) (A) (A) (A) (A) (A) (A) (A) (A) (A)
                 (A) (A) (A) (A) (A) (A) (A) (A) (A) (A) (A) (A)
                 (A) (A) (A) (A) (A) (A) (A) (A) (A) (A) (A) (A)
                 (A) (A) (A) (A) (A) (A) (A) (A) (A) (A) (A) (A)
                 (A) (A) (A) (A) (A) (A) (A) (A) (A) (A) (A) (A)
                 (A) (A) (A) (A) (A) (A) (A) (A) (A) (A) (A) (A)
                 (A) (A) (A) (A) (A) (A) (A) (A) (A) (A) (A) (A)
                 (A) (A) (A) (A) (A) (A) (A) (A) (A) (A) (A) (A)
                 (A) (A) (A) (A) (A) (A) (A) (A) (A) (A) (A) (A)
                 (A) (A) (A) (A) (A) (A) (A) (A) (A) (A) (A) (A)
                 (A) (A) (A) (A) (A) (A) (A) (A) (A) (A) (A) (A)
                 (A) (A) (A) (A) (A)
 The electronic state is 2-A.
 Alpha  occ. eigenvalues --  -19.16487 -19.15435 -19.14820 -19.14261 -19.13281
 Alpha  occ. eigenvalues --  -19.12758 -19.12629 -19.11555 -19.09828 -14.40509
 Alpha  occ. eigenvalues --  -14.34529 -10.31714 -10.25408 -10.23870 -10.22903
 Alpha  occ. eigenvalues --  -10.22807 -10.21623 -10.21237 -10.21175 -10.20855
 Alpha  occ. eigenvalues --  -10.20520 -10.20426  -1.06856  -1.02610  -1.01800
 Alpha  occ. eigenvalues --   -1.01342  -1.00682  -0.99778  -0.97843  -0.97515
 Alpha  occ. eigenvalues --   -0.96744  -0.96493  -0.95837  -0.85279  -0.81957
 Alpha  occ. eigenvalues --   -0.76584  -0.74381  -0.71509  -0.66448  -0.62599
 Alpha  occ. eigenvalues --   -0.59298  -0.58102  -0.57073  -0.55038  -0.54650
 Alpha  occ. eigenvalues --   -0.53897  -0.53377  -0.52992  -0.52406  -0.50947
 Alpha  occ. eigenvalues --   -0.50473  -0.49401  -0.49078  -0.48223  -0.47874
 Alpha  occ. eigenvalues --   -0.47412  -0.46592  -0.45017  -0.44352  -0.43910
 Alpha  occ. eigenvalues --   -0.42125  -0.41755  -0.41643  -0.40626  -0.40426
 Alpha  occ. eigenvalues --   -0.40060  -0.39553  -0.39276  -0.38062  -0.37597
 Alpha  occ. eigenvalues --   -0.37110  -0.36214  -0.35841  -0.35338  -0.34814
 Alpha  occ. eigenvalues --   -0.33622  -0.32693  -0.32191  -0.31401  -0.30400
 Alpha  occ. eigenvalues --   -0.29813  -0.29223  -0.28970  -0.28865  -0.27724
 Alpha  occ. eigenvalues --   -0.27566  -0.27377  -0.24084  -0.21900
 Alpha virt. eigenvalues --   -0.03500  -0.00785   0.00435   0.01766   0.02917
 Alpha virt. eigenvalues --    0.03083   0.03442   0.04604   0.05003   0.05329
 Alpha virt. eigenvalues --    0.06514   0.06956   0.07217   0.08171   0.08647
 Alpha virt. eigenvalues --    0.10262   0.11004   0.11482   0.12344   0.13323
 Alpha virt. eigenvalues --    0.14168   0.14750   0.15322   0.15513   0.16068
 Alpha virt. eigenvalues --    0.16479   0.16811   0.17397   0.17844   0.18291
 Alpha virt. eigenvalues --    0.18683   0.19828   0.20400   0.20895   0.21385
 Alpha virt. eigenvalues --    0.21888   0.22408   0.22709   0.23715   0.24183
 Alpha virt. eigenvalues --    0.25007   0.25628   0.26278   0.26566   0.26797
 Alpha virt. eigenvalues --    0.27062   0.27399   0.27769   0.27907   0.28567
 Alpha virt. eigenvalues --    0.29160   0.29269   0.29533   0.29980   0.30060
 Alpha virt. eigenvalues --    0.30799   0.31053   0.31559   0.31813   0.32271
 Alpha virt. eigenvalues --    0.32786   0.34149   0.34550   0.35072   0.36381
 Alpha virt. eigenvalues --    0.37325   0.38178   0.38405   0.39267   0.40416
 Alpha virt. eigenvalues --    0.40707   0.42068   0.42722   0.43146   0.44519
 Alpha virt. eigenvalues --    0.45322   0.45661   0.45737   0.46043   0.46780
 Alpha virt. eigenvalues --    0.47289   0.47801   0.48233   0.48546   0.50198
 Alpha virt. eigenvalues --    0.51246   0.51784   0.53338   0.53698   0.54864
[...]
    19   Atom        0.001494      0.003700     -0.005194
    20   Atom        0.002581     -0.001089     -0.001492
    21   Atom        0.002263     -0.001164     -0.001099
    22   Atom       -0.002111      0.005701     -0.003590
    23   Atom       -0.004612      0.009357     -0.004745
    24   Atom       -0.002461      0.004842     -0.002381
    25   Atom        0.001723      0.001226     -0.002948
    26   Atom        0.011307     -0.009006     -0.002301
    27   Atom        0.003157     -0.000744     -0.002413
    28   Atom       -0.004389      0.007712     -0.003324
    29   Atom       -0.001220      0.002891     -0.001672
    30   Atom        0.001878     -0.000240     -0.001637
    31   Atom        0.000542     -0.000180     -0.000363
    32   Atom        0.000387      0.000305     -0.000692
    33   Atom       -0.000374      0.000554     -0.000180
    34   Atom       -0.000107      0.000311     -0.000204
    35   Atom       -0.000402      0.000587     -0.000185
    36   Atom        0.000662     -0.000523     -0.000139
    37   Atom        0.000537     -0.001267      0.000731
    38   Atom        0.000464     -0.000640      0.000177
    39   Atom        0.000966     -0.000451     -0.000515
    40   Atom        0.000728     -0.000346     -0.000383
    41   Atom        0.001166     -0.000493     -0.000672
    42   Atom        0.000117      0.000652     -0.000769
    43   Atom        0.000169      0.000304     -0.000473
    44   Atom        0.000734      0.000431     -0.001165
    45   Atom       -0.000483      0.001270     -0.000787
    46   Atom       -0.000523      0.001336     -0.000813
    47   Atom       -0.000319      0.001402     -0.001083
 --------------------------------------------------------
                        XY            XZ            YZ
 --------------------------------------------------------
     1   Atom        0.002450     -0.000552     -0.001402
     2   Atom        0.002159      0.001087      0.000504
     3   Atom        0.008169      0.027914      0.005905
     4   Atom        0.001851     -0.001030     -0.000868
     5   Atom       -0.006071      0.002516      0.007669
     6   Atom       -0.000207     -0.000404      0.000339
     7   Atom        0.040153      0.088670      0.360124
     8   Atom       -0.006525      0.001982     -0.011890
     9   Atom        0.040028      0.102397      0.309952
    10   Atom        0.012080      0.009285      0.038041
    11   Atom        0.007324     -0.018975     -0.049495
    12   Atom        0.014249      0.028639      0.110373
    13   Atom        0.005547      0.000537      0.008024
    14   Atom        0.013761      0.025234      0.089589
    15   Atom       -0.004100     -0.006044     -0.021781
    16   Atom       -0.000096      0.000038      0.000061
    17   Atom        0.001229     -0.002623     -0.000433
    18   Atom       -0.004709      0.004075     -0.005500
    19   Atom       -0.006743     -0.000834      0.003340
    20   Atom       -0.001265     -0.000121      0.000088
    21   Atom       -0.000796      0.001103     -0.000207
    22   Atom        0.003679     -0.002297     -0.006046
    23   Atom       -0.002530      0.000191     -0.000531
    24   Atom       -0.009588      0.004672     -0.002666
    25   Atom       -0.001419     -0.000130     -0.002093
    26   Atom        0.004714     -0.003857      0.002749
    27   Atom        0.000893     -0.001221     -0.001175
    28   Atom       -0.001651      0.000545     -0.004925
    29   Atom        0.000429      0.000154      0.000238
    30   Atom       -0.002386     -0.000925      0.000693
    31   Atom       -0.000852     -0.000674      0.000398
    32   Atom       -0.001084     -0.000215      0.000151
    33   Atom        0.000661      0.000588      0.001104
    34   Atom        0.000654      0.000491      0.000642
    35   Atom        0.001152      0.001203      0.001608
    36   Atom        0.000160      0.001741     -0.000151
    37   Atom       -0.000204      0.002339     -0.000207
    38   Atom       -0.000223      0.001029     -0.000196
    39   Atom        0.000281     -0.000072     -0.000023
    40   Atom        0.000181      0.000038      0.000007
    41   Atom        0.000558     -0.000055     -0.000018
    42   Atom        0.001536     -0.000473     -0.000835
    43   Atom        0.000959     -0.000547     -0.000617
    44   Atom        0.001721     -0.000392     -0.000448
    45   Atom        0.000883      0.000343      0.000681
    46   Atom        0.000633      0.000144      0.000214
    47   Atom        0.001166      0.000008     -0.000104
 --------------------------------------------------------


 ---------------------------------------------------------------------------------
              Anisotropic Spin Dipole Couplings in Principal Axis System
 ---------------------------------------------------------------------------------

       Atom             a.u.   MegaHertz   Gauss  10(-4) cm-1        Axes

              Baa    -0.0024     0.171     0.061     0.057 -0.2516  0.4038  0.8796
     1 O(17)  Bbb    -0.0017     0.124     0.044     0.041  0.8331 -0.3722  0.4091
              Bcc     0.0041    -0.295    -0.105    -0.098  0.4925  0.8357 -0.2428
 
              Baa    -0.0025    -0.338    -0.120    -0.113 -0.0721 -0.2773  0.9581
     2 C(13)  Bbb    -0.0021    -0.285    -0.102    -0.095 -0.3800  0.8958  0.2306
              Bcc     0.0046     0.623     0.222     0.208  0.9222  0.3474  0.1700
 
              Baa    -0.0205     1.481     0.529     0.494 -0.5670 -0.0861  0.8192
     3 O(17)  Bbb    -0.0198     1.434     0.512     0.478 -0.1887  0.9816 -0.0274
              Bcc     0.0403    -2.916    -1.040    -0.973  0.8018  0.1701  0.5728
 
              Baa    -0.0055    -0.733    -0.261    -0.244  0.0101  0.4259  0.9047
     4 C(13)  Bbb    -0.0036    -0.484    -0.173    -0.161 -0.1693  0.8924 -0.4183
              Bcc     0.0091     1.216     0.434     0.406  0.9855  0.1489 -0.0811
 
              Baa    -0.0130    -1.744    -0.622    -0.582  0.4440  0.8063 -0.3908
     5 C(13)  Bbb     0.0035     0.465     0.166     0.155  0.8938 -0.3676  0.2569
              Bcc     0.0095     1.279     0.456     0.427 -0.0635  0.4633  0.8839
 
              Baa    -0.0014    -0.054    -0.019    -0.018 -0.0025  0.8813 -0.4726
     6 N(14)  Bbb    -0.0007    -0.026    -0.009    -0.009  0.1671  0.4663  0.8687
              Bcc     0.0021     0.080     0.029     0.027  0.9859 -0.0768 -0.1484
 
              Baa    -0.3184   -42.725   -15.245   -14.252  0.9501  0.2261 -0.2148
     7 C(13)  Bbb    -0.3137   -42.093   -15.020   -14.041 -0.2944  0.8776 -0.3782
              Bcc     0.6321    84.818    30.265    28.292  0.1030  0.4226  0.9004
 
              Baa    -0.0189    -2.535    -0.904    -0.845  0.0427  0.4437  0.8951
     8 C(13)  Bbb     0.0024     0.324     0.116     0.108  0.8021  0.5190 -0.2955
              Bcc     0.0165     2.211     0.789     0.737 -0.5957  0.7306 -0.3337
 
              Baa    -0.2933   -11.310    -4.036    -3.773  0.7171  0.5985 -0.3570
     9 N(14)  Bbb    -0.2860   -11.031    -3.936    -3.680 -0.6852  0.6992 -0.2041
              Bcc     0.5793    22.342     7.972     7.452  0.1275  0.3910  0.9115
 
              Baa    -0.0420    -5.635    -2.011    -1.880 -0.6829  0.6974 -0.2173
    10 C(13)  Bbb    -0.0275    -3.691    -1.317    -1.231  0.7187  0.5884 -0.3705
              Bcc     0.0695     9.326     3.328     3.111  0.1305  0.4092  0.9031
 
              Baa    -0.0863   -11.576    -4.131    -3.861  0.1113  0.4116  0.9046
    11 C(13)  Bbb     0.0285     3.825     1.365     1.276  0.7186 -0.6621  0.2128
              Bcc     0.0578     7.751     2.766     2.586  0.6864  0.6263 -0.3694
 
              Baa    -0.0985   -13.218    -4.717    -4.409  0.7072 -0.6703  0.2247
    12 C(13)  Bbb    -0.0967   -12.981    -4.632    -4.330  0.6984  0.6130 -0.3694
              Bcc     0.1952    26.200     9.349     8.739  0.1098  0.4182  0.9017
 
              Baa    -0.0125    -1.676    -0.598    -0.559 -0.6437  0.7299 -0.2300
    13 C(13)  Bbb    -0.0026    -0.343    -0.122    -0.114  0.7549  0.5563 -0.3473
              Bcc     0.0150     2.019     0.720     0.674  0.1255  0.3972  0.9091
 
              Baa    -0.0828   -11.114    -3.966    -3.707 -0.3381  0.8727 -0.3522
    14 C(13)  Bbb    -0.0764   -10.249    -3.657    -3.419  0.9331  0.2623 -0.2459
              Bcc     0.1592    21.362     7.623     7.126  0.1222  0.4118  0.9030
 
              Baa    -0.0413    -5.547    -1.979    -1.850  0.1109  0.4129  0.9040
    15 C(13)  Bbb     0.0171     2.298     0.820     0.766  0.1746  0.8874 -0.4267
              Bcc     0.0242     3.249     1.159     1.084  0.9784 -0.2052 -0.0263
 
              Baa    -0.0010    -0.538    -0.192    -0.179 -0.0293 -0.5490  0.8353
    16 H(1)   Bbb    -0.0009    -0.465    -0.166    -0.155  0.0214  0.8351  0.5496
              Bcc     0.0019     1.003     0.358     0.334  0.9993 -0.0340  0.0127
 
              Baa    -0.0031    -1.628    -0.581    -0.543  0.2716  0.2308  0.9343
    17 H(1)   Bbb    -0.0029    -1.564    -0.558    -0.522 -0.2094  0.9617 -0.1767
              Bcc     0.0060     3.193     1.139     1.065  0.9393  0.1477 -0.3096
 
              Baa    -0.0063    -3.348    -1.195    -1.117 -0.0504  0.6060  0.7938
    18 H(1)   Bbb    -0.0034    -1.788    -0.638    -0.597  0.8000  0.5004 -0.3312
              Bcc     0.0096     5.137     1.833     1.713 -0.5979  0.6183 -0.5100
 
              Baa    -0.0067    -3.586    -1.280    -1.196 -0.2897 -0.4570  0.8409
    19 H(1)   Bbb    -0.0033    -1.782    -0.636    -0.594  0.7309  0.4616  0.5027
              Bcc     0.0101     5.368     1.915     1.791 -0.6180  0.7603  0.2003
 
              Baa    -0.0015    -0.821    -0.293    -0.274 -0.1718 -0.6318  0.7558
    20 H(1)   Bbb    -0.0014    -0.769    -0.274    -0.256  0.2449  0.7158  0.6540
              Bcc     0.0030     1.590     0.567     0.530  0.9542 -0.2975 -0.0317
 
              Baa    -0.0014    -0.767    -0.274    -0.256 -0.3282 -0.2721  0.9046
    21 H(1)   Bbb    -0.0013    -0.708    -0.253    -0.236  0.1094  0.9402  0.3225
              Bcc     0.0028     1.475     0.526     0.492  0.9383 -0.2048  0.2788
 
              Baa    -0.0066    -3.536    -1.262    -1.179  0.1305  0.4049  0.9050
    22 H(1)   Bbb    -0.0036    -1.904    -0.679    -0.635  0.9345 -0.3551  0.0242
              Bcc     0.0102     5.439     1.941     1.814  0.3312  0.8426 -0.4247
 
              Baa    -0.0051    -2.713    -0.968    -0.905  0.9447  0.1549 -0.2891
    23 H(1)   Bbb    -0.0047    -2.528    -0.902    -0.843  0.2786  0.0860  0.9565
              Bcc     0.0098     5.241     1.870     1.748 -0.1730  0.9842 -0.0381
 
              Baa    -0.0099    -5.291    -1.888    -1.765  0.8155  0.4684 -0.3399
    24 H(1)   Bbb    -0.0031    -1.647    -0.588    -0.549  0.1174  0.4412  0.8897
              Bcc     0.0130     6.937     2.475     2.314 -0.5667  0.7655 -0.3048
 
              Baa    -0.0039    -2.080    -0.742    -0.694  0.1231  0.4042  0.9064
    25 H(1)   Bbb     0.0007     0.368     0.131     0.123  0.7398  0.5714 -0.3552
              Bcc     0.0032     1.713     0.611     0.571 -0.6615  0.7142 -0.2287
 
              Baa    -0.0115    -6.115    -2.182    -2.040 -0.2483  0.8941 -0.3728
    26 H(1)   Bbb    -0.0016    -0.836    -0.298    -0.279  0.1205  0.4104  0.9039
              Bcc     0.0130     6.951     2.480     2.319  0.9612  0.1795 -0.2096
 
              Baa    -0.0031    -1.654    -0.590    -0.552  0.1188  0.4066  0.9058
    27 H(1)   Bbb    -0.0006    -0.321    -0.115    -0.107 -0.3230  0.8785 -0.3520
              Bcc     0.0037     1.975     0.705     0.659  0.9389  0.2508 -0.2357
 
              Baa    -0.0052     0.377     0.135     0.126  0.1263  0.3673  0.9215
    28 O(17)  Bbb    -0.0046     0.332     0.119     0.111  0.9845  0.0673 -0.1618
              Bcc     0.0098    -0.709    -0.253    -0.237 -0.1215  0.9277 -0.3531
 
              Baa    -0.0017    -0.919    -0.328    -0.306 -0.2739 -0.0241  0.9615
    29 H(1)   Bbb    -0.0012    -0.655    -0.234    -0.219  0.9561 -0.1152  0.2695
              Bcc     0.0029     1.574     0.562     0.525  0.1043  0.9930  0.0546
 
              Baa    -0.0019     0.140     0.050     0.047 -0.1077 -0.5040  0.8570
    30 O(17)  Bbb    -0.0018     0.127     0.045     0.042  0.5655  0.6779  0.4697
              Bcc     0.0037    -0.266    -0.095    -0.089  0.8177 -0.5352 -0.2120
 
              Baa    -0.0008    -0.408    -0.146    -0.136  0.6388  0.6189  0.4571
    31 H(1)   Bbb    -0.0007    -0.363    -0.129    -0.121  0.0169 -0.6052  0.7959
              Bcc     0.0014     0.771     0.275     0.257  0.7692 -0.5007 -0.3970
 
              Baa    -0.0008    -0.412    -0.147    -0.137  0.5886  0.5035  0.6325
    32 H(1)   Bbb    -0.0007    -0.368    -0.131    -0.123 -0.3743 -0.5237  0.7653
              Bcc     0.0015     0.780     0.278     0.260  0.7166 -0.6872 -0.1198
 
              Baa    -0.0010     0.073     0.026     0.024 -0.2864 -0.4701  0.8349
    33 O(17)  Bbb    -0.0007     0.052     0.019     0.017  0.8761 -0.4812  0.0296
              Bcc     0.0017    -0.125    -0.044    -0.042  0.3878  0.7399  0.5497
 
              Baa    -0.0007    -0.351    -0.125    -0.117 -0.4491 -0.2622  0.8541
    34 H(1)   Bbb    -0.0006    -0.310    -0.111    -0.103  0.7277 -0.6620  0.1794
              Bcc     0.0012     0.662     0.236     0.221  0.5184  0.7021  0.4881
 
              Baa    -0.0016    -0.847    -0.302    -0.283 -0.4909 -0.3346  0.8044
    35 H(1)   Bbb    -0.0011    -0.608    -0.217    -0.203  0.7351 -0.6547  0.1762
              Bcc     0.0027     1.455     0.519     0.485  0.4677  0.6778  0.5673
 
              Baa    -0.0016     0.114     0.041     0.038 -0.6112  0.2033  0.7649
    36 O(17)  Bbb    -0.0005     0.035     0.012     0.012  0.1172  0.9790 -0.1666
              Bcc     0.0020    -0.148    -0.053    -0.049  0.7827  0.0122  0.6223
 
              Baa    -0.0017    -0.911    -0.325    -0.304  0.7220  0.0099 -0.6918
    37 H(1)   Bbb    -0.0013    -0.687    -0.245    -0.229  0.0399  0.9976  0.0559
              Bcc     0.0030     1.598     0.570     0.533  0.6908 -0.0680  0.7199
 
              Baa    -0.0007    -0.384    -0.137    -0.128 -0.6514  0.0423  0.7576
    38 H(1)   Bbb    -0.0007    -0.365    -0.130    -0.122  0.1366  0.9887  0.0622
              Bcc     0.0014     0.749     0.267     0.250  0.7464 -0.1440  0.6498
 
              Baa    -0.0005     0.038     0.013     0.013 -0.0370  0.4276  0.9032
    39 O(17)  Bbb    -0.0005     0.036     0.013     0.012 -0.1902  0.8843 -0.4265
              Bcc     0.0010    -0.074    -0.026    -0.025  0.9811  0.1875 -0.0487
 
              Baa    -0.0004    -0.205    -0.073    -0.068 -0.0171 -0.1036  0.9945
    40 H(1)   Bbb    -0.0004    -0.200    -0.071    -0.067 -0.1643  0.9814  0.0995
              Bcc     0.0008     0.405     0.145     0.135  0.9863  0.1617  0.0338
 
              Baa    -0.0007    -0.360    -0.128    -0.120 -0.0056  0.1163  0.9932
    41 H(1)   Bbb    -0.0007    -0.354    -0.126    -0.118 -0.2930  0.9494 -0.1129
              Bcc     0.0013     0.714     0.255     0.238  0.9561  0.2916 -0.0288
 
              Baa    -0.0013     0.094     0.033     0.031 -0.5143  0.6468  0.5632
    42 O(17)  Bbb    -0.0009     0.068     0.024     0.023  0.6107 -0.1848  0.7700
              Bcc     0.0022    -0.162    -0.058    -0.054  0.6021  0.7400 -0.2999
 
              Baa    -0.0008    -0.435    -0.155    -0.145  0.0994  0.4138  0.9049
    43 H(1)   Bbb    -0.0007    -0.385    -0.137    -0.128  0.7717 -0.6062  0.1924
              Bcc     0.0015     0.820     0.293     0.273  0.6281  0.6792 -0.3796
 
              Baa    -0.0013    -0.689    -0.246    -0.230 -0.1638  0.3983  0.9025
    44 H(1)   Bbb    -0.0011    -0.596    -0.213    -0.199  0.6684 -0.6281  0.3985
              Bcc     0.0024     1.285     0.458     0.429  0.7256  0.6685 -0.1633
 
              Baa    -0.0010    -0.545    -0.195    -0.182 -0.3747 -0.1284  0.9182
    45 H(1)   Bbb    -0.0008    -0.445    -0.159    -0.148  0.8481 -0.4476  0.2835
              Bcc     0.0019     0.990     0.353     0.330  0.3746  0.8850  0.2766
 
              Baa    -0.0009     0.063     0.023     0.021 -0.4375  0.0384  0.8984
    46 O(17)  Bbb    -0.0007     0.049     0.018     0.016  0.8490 -0.3114  0.4268
              Bcc     0.0016    -0.113    -0.040    -0.038  0.2962  0.9495  0.1036
 
              Baa    -0.0011    -0.587    -0.210    -0.196 -0.2284  0.1466  0.9625
    47 H(1)   Bbb    -0.0009    -0.476    -0.170    -0.159  0.8633 -0.4264  0.2698
              Bcc     0.0020     1.064     0.380     0.355  0.4500  0.8926 -0.0291
 

 ---------------------------------------------------------------------------------

 No NMR shielding tensors so no spin-rotation constants.
 Leave Link  601 at Wed Aug  2 11:21:33 2006, MaxMem=  268435456 cpu:       1.7
 (Enter /home/konrad/system/software//g03/l9999.exe)
 1\1\GINC-COMP00\SP\UB3LYP\EPR-II\C11H25N2O9(2)\GUIK\02-Aug-2006\0\\#p 
 ub3lyp/EPR-II scrf=(pcm,solvent=water,read) guess=read geom=connectivi
 ty scf=tight integral=(grid=ultrafine)\\Explicitly hydrated tryptophan
  radical in PCM water.\\0,2\O\C,1,1.26563082\O,2,1.26006367,1,125.4830
 9221\C,2,1.55997924,1,117.20223676,3,-178.92162562,0\C,4,1.53210623,2,
 114.08363178,1,-161.13846359,0\N,4,1.50993529,2,107.25607761,1,78.3805
 6326,0\C,5,1.49294218,4,115.11892825,2,57.35631309,0\C,7,1.44363879,5,
 129.29929633,4,13.89675148,0\N,8,1.32232248,7,113.28623966,5,-179.2174
 9471,0\C,9,1.4147313,8,105.72630356,7,-0.36232662,0\C,10,1.42383716,9,
 110.81323782,8,0.0999959,0\C,11,1.39874073,10,120.36987209,9,179.72263
 903,0\C,10,1.38299233,9,127.93403446,8,179.73942418,0\C,13,1.41143342,
 10,117.92149142,9,-179.72811333,0\C,14,1.39775108,13,121.32688125,10,0
 .08154673,0\H,6,1.04797621,4,108.83011842,2,-63.31440297,0\H,4,1.12749
 16,2,109.75418565,1,-35.92069815,0\H,5,1.09705868,4,109.72191403,2,-65
 .52097263,0\H,5,1.10110445,4,108.26230188,2,179.49909327,0\H,6,1.04750
 502,4,110.32502578,2,177.01065208,0\H,6,1.04422928,4,108.64450087,2,56
 .49259303,0\H,8,1.08653626,7,126.28848724,5,-0.18004789,0\H,9,2.064016
 3,8,115.44004879,7,148.09612883,0\H,12,1.08769854,11,121.23042217,10,-
 179.86123446,0\H,13,1.08779401,10,121.09906212,9,0.20063979,0\H,14,1.0
 8695024,13,119.19347561,10,179.98653153,0\H,15,1.08649297,14,119.65374
 804,13,179.93208525,0\O,9,3.03022814,8,113.14995355,7,146.70576501,0\H
 ,28,0.98237283,9,98.21168432,8,-10.67225577,0\O,6,2.78944595,4,105.700
 04424,2,175.39954751,0\H,30,0.97501502,6,113.19317529,4,100.06166882,0
 \H,30,0.97494007,6,112.70787679,4,-141.86174535,0\O,3,2.7702732,2,107.
 1901065,1,23.30655103,0\H,33,0.97202435,3,104.4056949,2,-53.77025142,0
 \H,33,0.98637018,3,1.34136002,2,-76.11995633,0\O,6,2.80757983,4,93.925
 36232,2,55.71199463,0\H,36,0.97811216,6,89.53554511,4,-22.37192535,0\H
 ,36,0.97390871,6,118.15416709,4,-129.12997724,0\O,1,2.74840053,2,107.9
 7526978,3,140.52179235,0\H,39,0.97381353,1,106.85130594,2,-106.4443621
 6,0\H,39,0.9842623,1,14.26087006,2,171.10883111,0\O,1,2.75903265,2,103
 .81109967,3,-103.56280717,0\H,42,0.97218131,1,116.69411928,2,-140.9422
 5063,0\H,42,0.98041424,1,11.33662069,2,-157.75961863,0\H,33,1.82712304
 ,3,105.03618684,2,51.52557489,0\O,28,2.80498186,9,97.38440687,8,-10.21
 711723,0\H,46,0.97932176,28,100.81217806,9,45.74677928,0\\Version=AM64
 L-G03RevD.01\State=2-A\HF=-1221.1583201\S2=0.764913\S2-1=0.\S2A=0.7501
 69\RMSD=6.658e-09\Thermal=0.\Dipole=-6.581131,-8.5970719,1.3820677\PG=
 C01 [X(C11H25N2O9)]\\@


 THE BEST WAY TO CONVINCE A FOOL THAT HE IS WRONG 
 IS TO LET HIM HAVE HIS OWN WAY.

                                         JOSH BILLINGS
 Job cpu time:  0 days  1 hours 47 minutes 41.6 seconds.
 File lengths (MBytes):  RWF=    688 Int=      0 D2E=      0 Chk=     28 Scr=      1
 Normal termination of Gaussian 03 at Wed Aug  2 11:21:43 2006.
