 Entering Gaussian System, Link 0=g09
 Input=scan_input_2.gjf
 Output=scan_input_2.log
 Initial command:
 /home/ztw1e12/g09/l1.exe "/home/ztw1e12/tyrosine_scan/tyrosine_chi1_scan/Gau-2279.inp" -scrdir="/home/ztw1e12/tyrosine_scan/tyrosine_chi1_scan/"
 Default is to use a total of   8 processors:
                                8 via shared-memory
                                1 via Linda
 Entering Link 1 = /home/ztw1e12/g09/l1.exe PID=      2280.
  
 Copyright (c) 1988,1990,1992,1993,1995,1998,2003,2009,2013,
            Gaussian, Inc.  All Rights Reserved.
  
 This is part of the Gaussian(R) 09 program.  It is based on
 the Gaussian(R) 03 system (copyright 2003, Gaussian, Inc.),
 the Gaussian(R) 98 system (copyright 1998, Gaussian, Inc.),
 the Gaussian(R) 94 system (copyright 1995, Gaussian, Inc.),
 the Gaussian 92(TM) system (copyright 1992, Gaussian, Inc.),
 the Gaussian 90(TM) system (copyright 1990, Gaussian, Inc.),
 the Gaussian 88(TM) system (copyright 1988, Gaussian, Inc.),
 the Gaussian 86(TM) system (copyright 1986, Carnegie Mellon
 University), and the Gaussian 82(TM) system (copyright 1983,
 Carnegie Mellon University). Gaussian is a federally registered
 trademark of Gaussian, Inc.
  
 This software contains proprietary and confidential information,
 including trade secrets, belonging to Gaussian, Inc.
  
 This software is provided under written license and may be
 used, copied, transmitted, or stored only in accord with that
 written license.
  
 The following legend is applicable only to US Government
 contracts under FAR:
  
                    RESTRICTED RIGHTS LEGEND
  
 Use, reproduction and disclosure by the US Government is
 subject to restrictions as set forth in subparagraphs (a)
 and (c) of the Commercial Computer Software - Restricted
 Rights clause in FAR 52.227-19.
  
 Gaussian, Inc.
 340 Quinnipiac St., Bldg. 40, Wallingford CT 06492
  
  
 ---------------------------------------------------------------
 Warning -- This program may not be used in any manner that
 competes with the business of Gaussian, Inc. or will provide
 assistance to any competitor of Gaussian, Inc.  The licensee
 of this program is prohibited from giving any competitor of
 Gaussian, Inc. access to this program.  By using this program,
 the user acknowledges that Gaussian, Inc. is engaged in the
 business of creating and licensing software in the field of
 computational chemistry and represents and warrants to the
 licensee that it is not a competitor of Gaussian, Inc. and that
 it will not use this program in any manner prohibited above.
 ---------------------------------------------------------------
  

 Cite this work as:
 Gaussian 09, Revision D.01,
 M. J. Frisch, G. W. Trucks, H. B. Schlegel, G. E. Scuseria, 
 M. A. Robb, J. R. Cheeseman, G. Scalmani, V. Barone, B. Mennucci, 
 G. A. Petersson, H. Nakatsuji, M. Caricato, X. Li, H. P. Hratchian, 
 A. F. Izmaylov, J. Bloino, G. Zheng, J. L. Sonnenberg, M. Hada, 
 M. Ehara, K. Toyota, R. Fukuda, J. Hasegawa, M. Ishida, T. Nakajima, 
 Y. Honda, O. Kitao, H. Nakai, T. Vreven, J. A. Montgomery, Jr., 
 J. E. Peralta, F. Ogliaro, M. Bearpark, J. J. Heyd, E. Brothers, 
 K. N. Kudin, V. N. Staroverov, T. Keith, R. Kobayashi, J. Normand, 
 K. Raghavachari, A. Rendell, J. C. Burant, S. S. Iyengar, J. Tomasi, 
 M. Cossi, N. Rega, J. M. Millam, M. Klene, J. E. Knox, J. B. Cross, 
 V. Bakken, C. Adamo, J. Jaramillo, R. Gomperts, R. E. Stratmann, 
 O. Yazyev, A. J. Austin, R. Cammi, C. Pomelli, J. W. Ochterski, 
 R. L. Martin, K. Morokuma, V. G. Zakrzewski, G. A. Voth, 
 P. Salvador, J. J. Dannenberg, S. Dapprich, A. D. Daniels, 
 O. Farkas, J. B. Foresman, J. V. Ortiz, J. Cioslowski, 
 and D. J. Fox, Gaussian, Inc., Wallingford CT, 2013.
 
 ******************************************
 Gaussian 09:  EM64L-G09RevD.01 24-Apr-2013
                24-Jun-2014 
 ******************************************
 %Mem=32GB
 %NProcShared=16
 Will use up to   16 processors via shared memory.
 Default route:  MaxDisk=100GB
 ----------------------------------------------------------------------
 #p nmr=(giao,mixed,spinspin) m06/cc-pvtz scf=tight integral=(grid=ultr
 afine)
 ----------------------------------------------------------------------
 1/38=1/1;
 2/12=2,17=6,18=5,40=1/2;
 3/5=16,6=1,10=1100000,11=2,16=1,25=1,30=1,74=-54,75=-5/1,2,8,3;
 4//1;
 5/5=2,32=2,38=5/2;
 8/6=1,10=90,11=11/1;
 10/13=100,45=16,47=3/2;
 6/7=2,8=2,9=2,10=2,28=1/1;
 99/9=1/99;
 Leave Link    1 at Tue Jun 24 04:07:47 2014, MaxMem=  4294967296 cpu:        10.7
 (Enter /home/ztw1e12/g09/l101.exe)
 ------------------
 NMR spin-spin scan
 ------------------
 Symbolic Z-matrix:
 Charge =  0 Multiplicity = 1
 C                     3.19599  -0.32026  -1.20883 
 C                     1.91746  -0.83216  -1.0868 
 C                     1.33503  -1.03349   0.1598 
 C                     2.07753  -0.70745   1.28734 
 C                     3.35943  -0.19599   1.18409 
 C                     3.91897   0.00097  -0.06825 
 H                     3.64423  -0.16805  -2.18415 
 H                     1.35793  -1.08332  -1.98171 
 H                     1.64146  -0.85674   2.26924 
 H                     3.93437   0.05548   2.06626 
 C                    -0.06489  -1.55496   0.27466 
 H                    -0.19915  -2.45494  -0.32897 
 H                    -0.26127  -1.83807   1.31213 
 C                    -1.11649  -0.54692  -0.16197 
 H                    -1.04239  -0.40023  -1.24437 
 C                    -2.53431  -1.04049   0.12464 
 O                     5.18168   0.51116  -0.12862 
 H                     5.44424   0.60688  -1.05105 
 O                    -2.76413  -2.04181   0.79802 
 N                    -0.8725    0.75267   0.44339 
 H                    -0.35738   0.77793   1.31153 
 N                    -3.49924  -0.29771  -0.42379 
 H                    -3.2217    0.52607  -0.94408 
 C                    -1.17259   1.91666  -0.15555 
 C                    -0.71712   3.1564    0.53874 
 H                    -0.02593   3.68605  -0.1171 
 H                    -1.57548   3.80766   0.70024 
 H                    -0.22741   2.96114   1.49017 
 C                    -4.89701  -0.59826  -0.22048 
 H                    -5.14877  -0.60978   0.84061 
 H                    -5.49555   0.1625   -0.71218 
 H                    -5.15754  -1.57058  -0.64052 
 O                    -1.78662   1.96714  -1.22357 
 
 NAtoms=     33 NQM=       33 NQMF=       0 NMMI=      0 NMMIF=      0
                NMic=       0 NMicF=      0.
                    Isotopes and Nuclear Properties:
 (Nuclear quadrupole moments (NQMom) in fm**2, nuclear magnetic moments (NMagM)
  in nuclear magnetons)

  Atom         1           2           3           4           5           6           7           8           9          10
 IAtWgt=          12          12          12          12          12          12           1           1           1           1
 AtmWgt=  12.0000000  12.0000000  12.0000000  12.0000000  12.0000000  12.0000000   1.0078250   1.0078250   1.0078250   1.0078250
 NucSpn=           0           0           0           0           0           0           1           1           1           1
 AtZEff=   0.0000000   0.0000000   0.0000000   0.0000000   0.0000000   0.0000000   0.0000000   0.0000000   0.0000000   0.0000000
 NQMom=    0.0000000   0.0000000   0.0000000   0.0000000   0.0000000   0.0000000   0.0000000   0.0000000   0.0000000   0.0000000
 NMagM=    0.0000000   0.0000000   0.0000000   0.0000000   0.0000000   0.0000000   2.7928460   2.7928460   2.7928460   2.7928460
 AtZNuc=   6.0000000   6.0000000   6.0000000   6.0000000   6.0000000   6.0000000   1.0000000   1.0000000   1.0000000   1.0000000

  Atom        11          12          13          14          15          16          17          18          19          20
 IAtWgt=          12           1           1          12           1          12          16           1          16          14
 AtmWgt=  12.0000000   1.0078250   1.0078250  12.0000000   1.0078250  12.0000000  15.9949146   1.0078250  15.9949146  14.0030740
 NucSpn=           0           1           1           0           1           0           0           1           0           2
 AtZEff=   0.0000000   0.0000000   0.0000000   0.0000000   0.0000000   0.0000000   0.0000000   0.0000000   0.0000000   0.0000000
 NQMom=    0.0000000   0.0000000   0.0000000   0.0000000   0.0000000   0.0000000   0.0000000   0.0000000   0.0000000   2.0440000
 NMagM=    0.0000000   2.7928460   2.7928460   0.0000000   2.7928460   0.0000000   0.0000000   2.7928460   0.0000000   0.4037610
 AtZNuc=   6.0000000   1.0000000   1.0000000   6.0000000   1.0000000   6.0000000   8.0000000   1.0000000   8.0000000   7.0000000

  Atom        21          22          23          24          25          26          27          28          29          30
 IAtWgt=           1          14           1          12          12           1           1           1          12           1
 AtmWgt=   1.0078250  14.0030740   1.0078250  12.0000000  12.0000000   1.0078250   1.0078250   1.0078250  12.0000000   1.0078250
 NucSpn=           1           2           1           0           0           1           1           1           0           1
 AtZEff=   0.0000000   0.0000000   0.0000000   0.0000000   0.0000000   0.0000000   0.0000000   0.0000000   0.0000000   0.0000000
 NQMom=    0.0000000   2.0440000   0.0000000   0.0000000   0.0000000   0.0000000   0.0000000   0.0000000   0.0000000   0.0000000
 NMagM=    2.7928460   0.4037610   2.7928460   0.0000000   0.0000000   2.7928460   2.7928460   2.7928460   0.0000000   2.7928460
 AtZNuc=   1.0000000   7.0000000   1.0000000   6.0000000   6.0000000   1.0000000   1.0000000   1.0000000   6.0000000   1.0000000

  Atom        31          32          33
 IAtWgt=           1           1          16
 AtmWgt=   1.0078250   1.0078250  15.9949146
 NucSpn=           1           1           0
 AtZEff=   0.0000000   0.0000000   0.0000000
 NQMom=    0.0000000   0.0000000   0.0000000
 NMagM=    2.7928460   2.7928460   0.0000000
 AtZNuc=   1.0000000   1.0000000   8.0000000
 Leave Link  101 at Tue Jun 24 04:07:47 2014, MaxMem=  4294967296 cpu:         2.4
 (Enter /home/ztw1e12/g09/l202.exe)
                          Input orientation:                          
 ---------------------------------------------------------------------
 Center     Atomic      Atomic             Coordinates (Angstroms)
 Number     Number       Type             X           Y           Z
 ---------------------------------------------------------------------
      1          6           0        3.195989   -0.320261   -1.208831
      2          6           0        1.917462   -0.832157   -1.086799
      3          6           0        1.335034   -1.033486    0.159800
      4          6           0        2.077529   -0.707449    1.287341
      5          6           0        3.359426   -0.195985    1.184085
      6          6           0        3.918969    0.000969   -0.068252
      7          1           0        3.644232   -0.168051   -2.184149
      8          1           0        1.357926   -1.083315   -1.981706
      9          1           0        1.641458   -0.856741    2.269235
     10          1           0        3.934371    0.055484    2.066263
     11          6           0       -0.064892   -1.554961    0.274662
     12          1           0       -0.199149   -2.454935   -0.328969
     13          1           0       -0.261266   -1.838066    1.312132
     14          6           0       -1.116489   -0.546916   -0.161966
     15          1           0       -1.042388   -0.400229   -1.244372
     16          6           0       -2.534312   -1.040486    0.124640
     17          8           0        5.181676    0.511164   -0.128618
     18          1           0        5.444239    0.606876   -1.051048
     19          8           0       -2.764127   -2.041808    0.798021
     20          7           0       -0.872501    0.752671    0.443387
     21          1           0       -0.357376    0.777927    1.311529
     22          7           0       -3.499242   -0.297710   -0.423791
     23          1           0       -3.221699    0.526071   -0.944082
     24          6           0       -1.172594    1.916663   -0.155545
     25          6           0       -0.717119    3.156397    0.538743
     26          1           0       -0.025930    3.686046   -0.117103
     27          1           0       -1.575483    3.807663    0.700239
     28          1           0       -0.227412    2.961141    1.490171
     29          6           0       -4.897014   -0.598264   -0.220481
     30          1           0       -5.148765   -0.609780    0.840605
     31          1           0       -5.495553    0.162497   -0.712178
     32          1           0       -5.157535   -1.570579   -0.640522
     33          8           0       -1.786619    1.967144   -1.223570
 ---------------------------------------------------------------------
                    Distance matrix (angstroms):
                    1          2          3          4          5
     1  C    0.000000
     2  C    1.382592   0.000000
     3  C    2.417642   1.390599   0.000000
     4  C    2.762561   2.382795   1.388866   0.000000
     5  C    2.401708   2.764216   2.418415   1.384022   0.000000
     6  C    1.388096   2.395322   2.792638   2.393823   1.385723
     7  H    1.084129   2.151034   3.402274   3.846655   3.380369
     8  H    2.134962   1.084905   2.142208   3.368349   3.849102
     9  H    3.847248   3.367454   2.138890   1.084694   2.136718
    10  H    3.378259   3.846769   3.402501   2.153288   1.082606
    11  C    3.789272   2.511125   1.498306   2.516697   3.794709
    12  H    4.105844   2.772680   2.147820   3.293847   4.478353
    13  H    4.540000   3.393166   2.126827   2.597859   3.977718
    14  C    4.443508   3.184578   2.519970   3.511127   4.687091
    15  H    4.239280   2.995347   2.832816   4.029620   5.031410
    16  C    5.927328   4.618363   3.869512   4.767795   6.047458
    17  O    2.408543   3.657556   4.155212   3.622939   2.354537
    18  H    2.437028   3.809232   4.587211   4.304678   3.160198
    19  O    6.520288   5.189709   4.269328   5.045947   6.407340
    20  N    4.520356   3.554862   2.853768   3.398071   4.399749
    21  H    4.492731   3.676851   2.733486   2.852313   3.844394
    22  N    6.741136   5.483238   4.924649   5.847755   7.045349
    23  H    6.478664   5.317530   4.941112   5.880700   6.954255
    24  C    5.019737   4.239303   3.884716   4.419410   5.176591
    25  C    5.518476   5.048957   4.680817   4.826983   5.317250
    26  H    5.255771   5.013107   4.919642   5.069497   5.312616
    27  H    6.591756   6.076356   5.674496   5.837416   6.373118
    28  H    5.456362   5.062644   4.490899   4.337332   4.788167
    29  C    8.157869   6.873303   6.258790   7.136505   8.384714
    30  H    8.597612   7.327749   6.533198   7.240748   8.525170
    31  H    8.719095   7.488823   6.989109   7.880765   9.062835
    32  H    8.465674   7.127413   6.563721   7.537095   8.818011
    33  O    5.482593   4.644891   4.545570   5.328204   6.079285
                    6          7          8          9         10
     6  C    0.000000
     7  H    2.140343   0.000000
     8  H    3.375784   2.471009   0.000000
     9  H    3.374399   4.931331   4.266407   0.000000
    10  H    2.135267   4.266163   4.931631   2.476046   0.000000
    11  C    4.290648   4.661209   2.708885   2.716149   4.668776
    12  H    4.801909   4.841808   2.652803   3.562685   5.396789
    13  H    4.770941   5.501440   3.747106   2.345081   4.664506
    14  C    5.066044   5.186254   3.117997   3.689580   5.553294
    15  H    5.114614   4.785551   2.602263   4.444870   5.994673
    16  C    6.539623   6.653274   4.425838   4.697883   6.842142
    17  O    1.363221   2.655235   4.538432   4.489321   2.565330
    18  H    1.912971   2.263726   4.518941   5.256196   3.507330
    19  O    7.041814   7.312412   5.063291   4.793541   7.132808
    20  N    4.876988   5.305898   3.771833   3.499131   5.121115
    21  H    4.560108   5.396990   4.153538   2.754029   4.417085
    22  N    7.432730   7.358321   5.161042   5.830240   7.847529
    23  H    7.213318   7.011461   4.963844   5.990649   7.777722
    24  C    5.440728   5.626996   4.328772   4.635754   5.872096
    25  C    5.640787   6.122702   5.351040   4.966162   5.795286
    26  H    5.398556   5.709364   5.304584   5.395526   5.799315
    27  H    6.728336   7.167386   6.302332   5.879381   6.804657
    28  H    5.327643   6.187253   5.561012   4.321555   5.108342
    29  C    8.837636   8.774620   6.516246   7.001222   9.146034
    30  H    9.133610   9.309192   7.108214   6.943277   9.189569
    31  H    9.437900   9.263457   7.080531   7.801576   9.831310
    32  H    9.229311   9.045495   6.669890   7.429842   9.624631
    33  O    6.144456   5.914044   4.446148   5.650285   6.870748
                   11         12         13         14         15
    11  C    0.000000
    12  H    1.091947   0.000000
    13  H    1.093186   1.754309   0.000000
    14  C    1.520742   2.123662   2.138093   0.000000
    15  H    2.143914   2.402255   3.035332   1.094811   0.000000
    16  C    2.526901   2.767565   2.685705   1.528390   2.123667
    17  O    5.653139   6.147452   6.100841   6.386511   6.388624
    18  H    6.064781   6.460953   6.641924   6.720480   6.567188
    19  O    2.792274   2.831941   2.563227   2.423012   3.135369
    20  N    2.450687   3.367295   2.800044   1.454273   2.050993
    21  H    2.569632   3.628728   2.617758   2.121945   2.896536
    22  N    3.723342   3.943758   3.983794   2.410014   2.592295
    23  H    3.972589   4.289588   4.409513   2.488959   2.386965
    24  C    3.669367   4.482024   4.133108   2.464226   2.563296
    25  C    4.763616   5.701602   5.074504   3.790121   3.991853
    26  H    5.255773   6.147076   5.710859   4.371418   4.359079
    27  H    5.587552   6.494128   5.828879   4.462783   4.666054
    28  H    4.679642   5.713488   4.802628   3.978251   4.409163
    29  C    4.950741   5.052616   5.037477   3.781326   3.993208
    30  H    5.201867   5.410286   5.061489   4.155520   4.610138
    31  H    5.780622   5.920278   5.958007   4.470146   4.520019
    32  H    5.174246   5.046260   5.278054   4.196064   4.320739
    33  O    4.196935   4.782798   4.820385   2.810085   2.481686
                   16         17         18         19         20
    16  C    0.000000
    17  O    7.874530   0.000000
    18  H    8.231240   0.963835   0.000000
    19  O    1.228374   8.397149   8.821103   0.000000
    20  N    2.465487   6.085933   6.492750   3.393100   0.000000
    21  H    3.074798   5.729423   6.266559   3.742599   1.009783
    22  N    1.335508   8.723517   9.010970   2.252797   2.958896
    23  H    2.017119   8.442862   8.666975   3.136606   2.737727
    24  C    3.267646   6.507911   6.804406   4.371700   1.343001
    25  C    4.592113   6.499108   6.854912   5.592745   2.410630
    26  H    5.356354   6.099112   6.346360   6.414319   3.104113
    27  H    4.975461   7.563935   7.911292   5.969820   3.145335
    28  H    4.816584   6.154762   6.645900   5.651858   2.527694
    29  C    2.428380  10.139983  10.444315   2.769544   4.296795
    30  H    2.744718  10.436183  10.829143   2.781909   4.505606
    31  H    3.303995  10.698847  10.954057   3.821040   4.801692
    32  H    2.783482  10.559119  10.830857   2.831937   4.993382
    33  O    3.379727   7.202495   7.359715   4.595003   2.255948
                   21         22         23         24         25
    21  H    0.000000
    22  N    3.746952   0.000000
    23  H    3.654526   1.013088   0.000000
    24  C    2.028203   3.223150   2.598917   0.000000
    25  C    2.526605   4.538451   3.923048   1.492124   0.000000
    26  H    3.256993   5.294173   4.569713   2.108799   1.090140
    27  H    3.322162   4.671015   4.022768   2.114371   1.089503
    28  H    2.194363   4.998823   4.562993   2.166260   1.087728
    29  C    4.984904   1.444103   2.143457   4.494483   5.669693
    30  H    5.010480   2.101669   2.861616   4.815098   5.823633
    31  H    5.556528   2.068868   2.314385   4.698395   5.775956
    32  H    5.689245   2.101691   2.869765   5.317501   6.591833
    33  O    3.143835   2.949964   2.052866   1.232985   2.379895
                   26         27         28         29         30
    26  H    0.000000
    27  H    1.756119   0.000000
    28  H    1.774658   1.777045   0.000000
    29  C    6.487947   5.593969   6.115626   0.000000
    30  H    6.753870   5.683472   6.114992   1.090603   0.000000
    31  H    6.533474   5.536163   6.358935   1.085713   1.768561
    32  H    7.364743   6.599562   7.027265   1.090735   1.765488
    33  O    2.697947   2.670792   3.283831   4.154764   4.712259
                   31         32         33
    31  H    0.000000
    32  H    1.767185   0.000000
    33  O    4.156256   4.921230   0.000000
 Stoichiometry    C12H16N2O3
 Framework group  C1[X(C12H16N2O3)]
 Deg. of freedom    93
 Full point group                 C1      NOp   1
 Largest Abelian subgroup         C1      NOp   1
 Largest concise Abelian subgroup C1      NOp   1
                         Standard orientation:                         
 ---------------------------------------------------------------------
 Center     Atomic      Atomic             Coordinates (Angstroms)
 Number     Number       Type             X           Y           Z
 ---------------------------------------------------------------------
      1          6           0       -3.177809   -0.254596    1.282607
      2          6           0       -1.889626   -0.749616    1.198338
      3          6           0       -1.316796   -1.070035   -0.027616
      4          6           0       -2.078907   -0.881344   -1.173273
      5          6           0       -3.370658   -0.388819   -1.107581
      6          6           0       -3.920449   -0.071660    0.124233
      7          1           0       -3.618427   -0.009025    2.242234
      8          1           0       -1.314682   -0.892435    2.107217
      9          1           0       -1.650595   -1.124968   -2.139584
     10          1           0       -3.960872   -0.244662   -2.003629
     11          6           0        0.093042   -1.571268   -0.105374
     12          1           0        0.254058   -2.398968    0.588409
     13          1           0        0.284095   -1.958856   -1.109530
     14          6           0        1.126705   -0.500678    0.207727
     15          1           0        1.061430   -0.241363    1.269379
     16          6           0        2.551896   -0.992049   -0.043992
     17          8           0       -5.193467    0.415447    0.147157
     18          1           0       -5.447793    0.603129    1.057690
     19          8           0        2.796455   -2.054226   -0.610448
     20          7           0        0.847063    0.721797   -0.528659
     21          1           0        0.321851    0.643820   -1.387573
     22          7           0        3.506081   -0.175102    0.409562
     23          1           0        3.216060    0.693305    0.843271
     24          6           0        1.127789    1.948895   -0.060603
     25          6           0        0.637068    3.097978   -0.876222
     26          1           0       -0.058401    3.679712   -0.270983
     27          1           0        1.478842    3.746261   -1.117393
     28          1           0        0.141254    2.792469   -1.794909
     29          6           0        4.907853   -0.466161    0.220469
     30          1           0        5.147946   -0.585106   -0.836707
     31          1           0        5.494727    0.354945    0.620638
     32          1           0        5.194658   -1.382640    0.737684
     33          8           0        1.752411    2.125484    0.987689
 ---------------------------------------------------------------------
 Rotational constants (GHZ):      0.8711421      0.2467915      0.2149263
 Leave Link  202 at Tue Jun 24 04:07:47 2014, MaxMem=  4294967296 cpu:         3.1
 (Enter /home/ztw1e12/g09/l301.exe)
 Standard basis: CC-pVTZ (5D, 7F)
 Converting basis for Fermi contact spin-spin IFCMod=1.
 AO basis functions are being uncontracted.
 Ernie: Thresh=  0.10000D-02 Tol=  0.10000D-05 Strict=F.
 There are  1305 symmetry adapted cartesian basis functions of A   symmetry.
 There are  1204 symmetry adapted basis functions of A   symmetry.
  1204 basis functions,  1305 primitive gaussians,  1305 cartesian basis functions
    63 alpha electrons       63 beta electrons
       nuclear repulsion energy      1209.2807600897 Hartrees.
 IExCor= 4235 DFT=T Ex+Corr=M06 ExCW=0 ScaHFX=  0.270000
 ScaDFX=  1.000000  1.000000  1.000000  1.000000 ScalE2=  1.000000  1.000000
 IRadAn= 199590 IRanWt=     -1 IRanGd=            0 ICorTp=0 IEmpDi=  4
 NAtoms=   33 NActive=   33 NUniq=   33 SFac= 1.00D+00 NAtFMM=   60 NAOKFM=F Big=F
 Integral buffers will be    131072 words long.
 Raffenetti 2 integral format.
 Two-electron integral symmetry is turned on.
 Leave Link  301 at Tue Jun 24 04:07:48 2014, MaxMem=  4294967296 cpu:         5.2
 (Enter /home/ztw1e12/g09/l302.exe)
 NPDir=0 NMtPBC=     1 NCelOv=     1 NCel=       1 NClECP=     1 NCelD=      1
         NCelK=      1 NCelE2=     1 NClLst=     1 CellRange=     0.0.
 One-electron integrals computed using PRISM.
 GSVD:  received Info=                   1 from GESDD.
 NBasis=  1204 RedAO= T EigKep=  2.55D-05  NBF=  1204
 NBsUse=  1068 1.00D-06 EigRej=  7.14D-15 NBFU=  1068
 Precomputing XC quadrature grid using
 IXCGrd= 4 IRadAn=      199590 IRanWt=          -1 IRanGd=           0 AccXCQ= 0.00D+00.
 Generated NRdTot=       0 NPtTot=           0 NUsed=           0 NTot=          32
 NSgBfM=   991   994   994   994   998 MxSgAt=    33 MxSgA2=    33.
 Leave Link  302 at Tue Jun 24 04:07:54 2014, MaxMem=  4294967296 cpu:        94.9
 (Enter /home/ztw1e12/g09/l308.exe)
 Leave Link  308 at Tue Jun 24 04:07:55 2014, MaxMem=  4294967296 cpu:         7.3
 (Enter /home/ztw1e12/g09/l303.exe)
 DipDrv:  MaxL=1.
 Leave Link  303 at Tue Jun 24 04:07:55 2014, MaxMem=  4294967296 cpu:         4.6
 (Enter /home/ztw1e12/g09/l401.exe)
 ExpMin= 1.03D-01 ExpMax= 1.38D+05 ExpMxC= 1.38D+05 IAcc=4 IRadAn=    199590 AccDes= 0.00D+00
 Harris functional with IExCor= 1009 and IRadAn=  199590 diagonalized for initial guess.
 HarFok:  IExCor= 1009 AccDes= 0.00D+00 IRadAn=    199590 IDoV= 1 UseB2=F ITyADJ=14
 ICtDFT=  3500011 ScaDFX=  1.000000  1.000000  1.000000  1.000000
 FoFCou: FMM=F IPFlag=           0 FMFlag=      100000 FMFlg1=           0
         NFxFlg=           0 DoJE=T BraDBF=F KetDBF=T FulRan=T
         wScrn=  0.000000 ICntrl=     500 IOpCl=  0 I1Cent=   200000004 NGrid=           0
         NMat0=    1 NMatS0=      1 NMatT0=    0 NMatD0=    1 NMtDS0=    0 NMtDT0=    0
 Petite list used in FoFCou.
 Harris En= -801.782321584960    
 JPrj=0 DoOrth=F DoCkMO=F.
 Leave Link  401 at Tue Jun 24 04:08:15 2014, MaxMem=  4294967296 cpu:       296.7
 (Enter /home/ztw1e12/g09/l502.exe)
 Closed shell SCF:
 Using DIIS extrapolation, IDIIS=  1040.
 Integral symmetry usage will be decided dynamically.
 IVT=     5158273 IEndB=     5158273 NGot=  4294967296 MDV=  4291529994
 LenX=  4291529994 LenY=  4289825664
 Requested convergence on RMS density matrix=1.00D-08 within 128 cycles.
 Requested convergence on MAX density matrix=1.00D-06.
 Requested convergence on             energy=1.00D-06.
 No special actions if energy rises.
 Fock matrices will be formed incrementally for  20 cycles.
 Integral accuracy reduced to 1.0D-05 until final iterations.

 Cycle   1  Pass 0  IDiag  1:
 FoFJK:  IHMeth= 1 ICntrl=       0 DoSepK=F KAlg= 0 I1Cent=   0 FoldK=F
 IRaf= 430000000 NMat=   1 IRICut=       1 DoRegI=T DoRafI=F ISym2E= 0.
 FoFCou: FMM=F IPFlag=           0 FMFlag=      100000 FMFlg1=           0
         NFxFlg=           0 DoJE=F BraDBF=F KetDBF=F FulRan=T
         wScrn=  0.000000 ICntrl=       0 IOpCl=  0 I1Cent=           0 NGrid=           0
         NMat0=    1 NMatS0=      1 NMatT0=    0 NMatD0=    1 NMtDS0=    0 NMtDT0=    0
 Symmetry not used in FoFCou.
 E= -801.487042830978    
 DIIS: error= 1.15D-01 at cycle   1 NSaved=   1.
 NSaved= 1 IEnMin= 1 EnMin= -801.487042830978     IErMin= 1 ErrMin= 1.15D-01
 ErrMax= 1.15D-01  0.00D+00 EMaxC= 1.00D-01 BMatC= 1.69D+01 BMatP= 1.69D+01
 IDIUse=3 WtCom= 0.00D+00 WtEn= 1.00D+00
 Coeff-Com:  0.100D+01
 Coeff-En:   0.100D+01
 Coeff:      0.100D+01
 Gap=     0.238 Goal=   None    Shift=    0.000
 GapD=    0.238 DampG=1.000 DampE=0.250 DampFc=0.2500 IDamp=-1.
 Damping current iteration by 2.50D-01
 RMSDP=1.93D-03 MaxDP=2.70D-01              OVMax= 2.41D-01

 Cycle   2  Pass 0  IDiag  1:
 RMSU=  4.79D-04    CP:  1.02D+00
 E= -801.641677324870     Delta-E=       -0.154634493892 Rises=F Damp=T
 DIIS: error= 8.76D-02 at cycle   2 NSaved=   2.
 NSaved= 2 IEnMin= 2 EnMin= -801.641677324870     IErMin= 2 ErrMin= 8.76D-02
 ErrMax= 8.76D-02  0.00D+00 EMaxC= 1.00D-01 BMatC= 1.00D+01 BMatP= 1.69D+01
 IDIUse=3 WtCom= 1.24D-01 WtEn= 8.76D-01
 Coeff-Com: -0.296D+01 0.396D+01
 Coeff-En:   0.000D+00 0.100D+01
 Coeff:     -0.367D+00 0.137D+01
 Gap=     0.268 Goal=   None    Shift=    0.000
 RMSDP=5.53D-04 MaxDP=9.21D-02 DE=-1.55D-01 OVMax= 1.43D-01

 Cycle   3  Pass 0  IDiag  1:
 RMSU=  4.43D-04    CP:  1.05D+00  1.68D+00
 E= -801.890961757626     Delta-E=       -0.249284432756 Rises=F Damp=F
 DIIS: error= 1.03D-02 at cycle   3 NSaved=   3.
 NSaved= 3 IEnMin= 3 EnMin= -801.890961757626     IErMin= 3 ErrMin= 1.03D-02
 ErrMax= 1.03D-02  0.00D+00 EMaxC= 1.00D-01 BMatC= 1.54D-01 BMatP= 1.00D+01
 IDIUse=3 WtCom= 8.97D-01 WtEn= 1.03D-01
 Coeff-Com:  0.251D+00-0.388D+00 0.114D+01
 Coeff-En:   0.000D+00 0.000D+00 0.100D+01
 Coeff:      0.226D+00-0.348D+00 0.112D+01
 Gap=     0.227 Goal=   None    Shift=    0.000
 RMSDP=3.66D-04 MaxDP=4.78D-02 DE=-2.49D-01 OVMax= 1.08D-01

 Cycle   4  Pass 0  IDiag  1:
 RMSU=  3.31D-04    CP:  1.05D+00  1.45D+00  7.43D-01
 E= -801.831947031320     Delta-E=        0.059014726306 Rises=F Damp=F
 DIIS: error= 1.06D-02 at cycle   4 NSaved=   4.
 NSaved= 4 IEnMin= 3 EnMin= -801.890961757626     IErMin= 3 ErrMin= 1.03D-02
 ErrMax= 1.06D-02  0.00D+00 EMaxC= 1.00D-01 BMatC= 1.20D-01 BMatP= 1.54D-01
 IDIUse=3 WtCom= 8.94D-01 WtEn= 1.06D-01
 Coeff-Com:  0.332D+00-0.471D+00 0.615D+00 0.524D+00
 Coeff-En:   0.000D+00 0.000D+00 0.729D+00 0.271D+00
 Coeff:      0.297D+00-0.421D+00 0.627D+00 0.498D+00
 Gap=     0.258 Goal=   None    Shift=    0.000
 RMSDP=2.90D-04 MaxDP=2.68D-02 DE= 5.90D-02 OVMax= 8.63D-02

 Cycle   5  Pass 0  IDiag  1:
 RMSU=  7.15D-05    CP:  1.05D+00  1.43D+00  9.28D-01  1.90D-01
 E= -801.918112189264     Delta-E=       -0.086165157944 Rises=F Damp=F
 DIIS: error= 2.80D-03 at cycle   5 NSaved=   5.
 NSaved= 5 IEnMin= 5 EnMin= -801.918112189264     IErMin= 5 ErrMin= 2.80D-03
 ErrMax= 2.80D-03  0.00D+00 EMaxC= 1.00D-01 BMatC= 9.73D-03 BMatP= 1.20D-01
 IDIUse=3 WtCom= 9.72D-01 WtEn= 2.80D-02
 Coeff-Com:  0.293D-01-0.431D-01 0.270D-01 0.219D+00 0.768D+00
 Coeff-En:   0.000D+00 0.000D+00 0.000D+00 0.367D-01 0.963D+00
 Coeff:      0.284D-01-0.419D-01 0.262D-01 0.214D+00 0.774D+00
 Gap=     0.222 Goal=   None    Shift=    0.000
 RMSDP=9.29D-05 MaxDP=1.12D-02 DE=-8.62D-02 OVMax= 3.16D-02

 Cycle   6  Pass 0  IDiag  1:
 RMSU=  3.32D-05    CP:  1.05D+00  1.48D+00  9.42D-01  4.03D-01  3.92D-01
 E= -801.923469504873     Delta-E=       -0.005357315609 Rises=F Damp=F
 DIIS: error= 9.42D-04 at cycle   6 NSaved=   6.
 NSaved= 6 IEnMin= 6 EnMin= -801.923469504873     IErMin= 6 ErrMin= 9.42D-04
 ErrMax= 9.42D-04  0.00D+00 EMaxC= 1.00D-01 BMatC= 1.44D-03 BMatP= 9.73D-03
 IDIUse=3 WtCom= 9.91D-01 WtEn= 9.42D-03
 Coeff-Com:  0.108D-01-0.152D-01-0.863D-02 0.900D-01 0.399D+00 0.524D+00
 Coeff-En:   0.000D+00 0.000D+00 0.000D+00 0.000D+00 0.112D+00 0.888D+00
 Coeff:      0.107D-01-0.150D-01-0.855D-02 0.891D-01 0.396D+00 0.527D+00
 Gap=     0.223 Goal=   None    Shift=    0.000
 RMSDP=3.51D-05 MaxDP=3.64D-03 DE=-5.36D-03 OVMax= 1.42D-02

 Cycle   7  Pass 0  IDiag  1:
 RMSU=  1.62D-05    CP:  1.05D+00  1.45D+00  9.40D-01  4.01D-01  6.02D-01
                    CP:  3.26D-01
 E= -801.924530449963     Delta-E=       -0.001060945090 Rises=F Damp=F
 DIIS: error= 4.73D-04 at cycle   7 NSaved=   7.
 NSaved= 7 IEnMin= 7 EnMin= -801.924530449963     IErMin= 7 ErrMin= 4.73D-04
 ErrMax= 4.73D-04  0.00D+00 EMaxC= 1.00D-01 BMatC= 2.09D-04 BMatP= 1.44D-03
 IDIUse=3 WtCom= 9.95D-01 WtEn= 4.73D-03
 Coeff-Com:  0.845D-02-0.112D-01-0.427D-02 0.235D-01 0.113D+00 0.299D+00
 Coeff-Com:  0.571D+00
 Coeff-En:   0.000D+00 0.000D+00 0.000D+00 0.000D+00 0.000D+00 0.133D+00
 Coeff-En:   0.867D+00
 Coeff:      0.841D-02-0.111D-01-0.425D-02 0.234D-01 0.112D+00 0.299D+00
 Coeff:      0.573D+00
 Gap=     0.222 Goal=   None    Shift=    0.000
 RMSDP=1.26D-05 MaxDP=1.76D-03 DE=-1.06D-03 OVMax= 5.82D-03

 Cycle   8  Pass 0  IDiag  1:
 RMSU=  6.12D-06    CP:  1.05D+00  1.45D+00  9.46D-01  4.07D-01  5.79D-01
                    CP:  5.91D-01  6.75D-01
 E= -801.924707765626     Delta-E=       -0.000177315663 Rises=F Damp=F
 DIIS: error= 1.13D-04 at cycle   8 NSaved=   8.
 NSaved= 8 IEnMin= 8 EnMin= -801.924707765626     IErMin= 8 ErrMin= 1.13D-04
 ErrMax= 1.13D-04  0.00D+00 EMaxC= 1.00D-01 BMatC= 1.59D-05 BMatP= 2.09D-04
 IDIUse=3 WtCom= 9.99D-01 WtEn= 1.13D-03
 Coeff-Com:  0.460D-02-0.609D-02-0.132D-02 0.809D-02 0.393D-01 0.136D+00
 Coeff-Com:  0.323D+00 0.497D+00
 Coeff-En:   0.000D+00 0.000D+00 0.000D+00 0.000D+00 0.000D+00 0.000D+00
 Coeff-En:   0.000D+00 0.100D+01
 Coeff:      0.459D-02-0.608D-02-0.132D-02 0.808D-02 0.392D-01 0.135D+00
 Coeff:      0.323D+00 0.497D+00
 Gap=     0.223 Goal=   None    Shift=    0.000
 RMSDP=3.37D-06 MaxDP=4.37D-04 DE=-1.77D-04 OVMax= 1.23D-03

 Initial convergence to 1.0D-05 achieved.  Increase integral accuracy.
 Cycle   9  Pass 1  IDiag  1:
 E= -801.924677419657     Delta-E=        0.000030345969 Rises=F Damp=F
 DIIS: error= 2.05D-04 at cycle   1 NSaved=   1.
 NSaved= 1 IEnMin= 1 EnMin= -801.924677419657     IErMin= 1 ErrMin= 2.05D-04
 ErrMax= 2.05D-04  0.00D+00 EMaxC= 1.00D-01 BMatC= 2.05D-05 BMatP= 2.05D-05
 IDIUse=3 WtCom= 9.98D-01 WtEn= 2.05D-03
 Coeff-Com:  0.100D+01
 Coeff-En:   0.100D+01
 Coeff:      0.100D+01
 Gap=     0.222 Goal=   None    Shift=    0.000
 RMSDP=3.37D-06 MaxDP=4.37D-04 DE= 3.03D-05 OVMax= 7.04D-04

 Cycle  10  Pass 1  IDiag  1:
 RMSU=  1.63D-04    CP:  9.95D-01
 E= -801.924689309455     Delta-E=       -0.000011889797 Rises=F Damp=F
 DIIS: error= 4.23D-05 at cycle   2 NSaved=   2.
 NSaved= 2 IEnMin= 2 EnMin= -801.924689309455     IErMin= 2 ErrMin= 4.23D-05
 ErrMax= 4.23D-05  0.00D+00 EMaxC= 1.00D-01 BMatC= 2.28D-06 BMatP= 2.05D-05
 IDIUse=1 WtCom= 1.00D+00 WtEn= 0.00D+00
 Coeff-Com:  0.140D+00 0.860D+00
 Coeff:      0.140D+00 0.860D+00
 Gap=     0.223 Goal=   None    Shift=    0.000
 RMSDP=3.37D-06 MaxDP=3.66D-04 DE=-1.19D-05 OVMax= 7.29D-04

 Cycle  11  Pass 1  IDiag  1:
 RMSU=  2.50D-06    CP:  9.95D-01  1.01D+00
 E= -801.924687656436     Delta-E=        0.000001653018 Rises=F Damp=F
 DIIS: error= 6.31D-05 at cycle   3 NSaved=   3.
 NSaved= 3 IEnMin= 2 EnMin= -801.924689309455     IErMin= 2 ErrMin= 4.23D-05
 ErrMax= 6.31D-05  0.00D+00 EMaxC= 1.00D-01 BMatC= 4.33D-06 BMatP= 2.28D-06
 IDIUse=1 WtCom= 1.00D+00 WtEn= 0.00D+00
 Coeff-Com: -0.582D-03 0.580D+00 0.420D+00
 Coeff:     -0.582D-03 0.580D+00 0.420D+00
 Gap=     0.223 Goal=   None    Shift=    0.000
 RMSDP=1.56D-06 MaxDP=2.17D-04 DE= 1.65D-06 OVMax= 4.67D-04

 Cycle  12  Pass 1  IDiag  1:
 RMSU=  8.35D-07    CP:  9.95D-01  1.02D+00  5.05D-01
 E= -801.924691017833     Delta-E=       -0.000003361397 Rises=F Damp=F
 DIIS: error= 6.57D-06 at cycle   4 NSaved=   4.
 NSaved= 4 IEnMin= 4 EnMin= -801.924691017833     IErMin= 4 ErrMin= 6.57D-06
 ErrMax= 6.57D-06  0.00D+00 EMaxC= 1.00D-01 BMatC= 6.44D-08 BMatP= 2.28D-06
 IDIUse=1 WtCom= 1.00D+00 WtEn= 0.00D+00
 Coeff-Com: -0.275D-02 0.331D+00 0.251D+00 0.421D+00
 Coeff:     -0.275D-02 0.331D+00 0.251D+00 0.421D+00
 Gap=     0.223 Goal=   None    Shift=    0.000
 RMSDP=1.85D-07 MaxDP=2.27D-05 DE=-3.36D-06 OVMax= 6.58D-05

 Cycle  13  Pass 1  IDiag  1:
 RMSU=  1.63D-07    CP:  9.95D-01  1.02D+00  5.36D-01  9.67D-01
 E= -801.924691064896     Delta-E=       -0.000000047063 Rises=F Damp=F
 DIIS: error= 9.96D-07 at cycle   5 NSaved=   5.
 NSaved= 5 IEnMin= 5 EnMin= -801.924691064896     IErMin= 5 ErrMin= 9.96D-07
 ErrMax= 9.96D-07  0.00D+00 EMaxC= 1.00D-01 BMatC= 2.09D-09 BMatP= 6.44D-08
 IDIUse=1 WtCom= 1.00D+00 WtEn= 0.00D+00
 Coeff-Com: -0.123D-02 0.108D+00 0.831D-01 0.204D+00 0.606D+00
 Coeff:     -0.123D-02 0.108D+00 0.831D-01 0.204D+00 0.606D+00
 Gap=     0.223 Goal=   None    Shift=    0.000
 RMSDP=4.93D-08 MaxDP=6.16D-06 DE=-4.71D-08 OVMax= 1.36D-05

 Cycle  14  Pass 1  IDiag  1:
 RMSU=  3.10D-08    CP:  9.95D-01  1.02D+00  5.41D-01  1.00D+00  9.21D-01
 E= -801.924691066096     Delta-E=       -0.000000001201 Rises=F Damp=F
 DIIS: error= 4.32D-07 at cycle   6 NSaved=   6.
 NSaved= 6 IEnMin= 6 EnMin= -801.924691066096     IErMin= 6 ErrMin= 4.32D-07
 ErrMax= 4.32D-07  0.00D+00 EMaxC= 1.00D-01 BMatC= 2.06D-10 BMatP= 2.09D-09
 IDIUse=1 WtCom= 1.00D+00 WtEn= 0.00D+00
 Coeff-Com: -0.461D-03 0.354D-01 0.273D-01 0.797D-01 0.311D+00 0.547D+00
 Coeff:     -0.461D-03 0.354D-01 0.273D-01 0.797D-01 0.311D+00 0.547D+00
 Gap=     0.223 Goal=   None    Shift=    0.000
 RMSDP=2.31D-08 MaxDP=3.46D-06 DE=-1.20D-09 OVMax= 7.00D-06

 Cycle  15  Pass 1  IDiag  1:
 RMSU=  1.51D-08    CP:  9.95D-01  1.02D+00  5.41D-01  1.02D+00  9.70D-01
                    CP:  8.46D-01
 E= -801.924691066278     Delta-E=       -0.000000000182 Rises=F Damp=F
 DIIS: error= 2.08D-07 at cycle   7 NSaved=   7.
 NSaved= 7 IEnMin= 7 EnMin= -801.924691066278     IErMin= 7 ErrMin= 2.08D-07
 ErrMax= 2.08D-07  0.00D+00 EMaxC= 1.00D-01 BMatC= 5.14D-11 BMatP= 2.06D-10
 IDIUse=1 WtCom= 1.00D+00 WtEn= 0.00D+00
 Coeff-Com:  0.407D-04-0.688D-02-0.544D-02-0.471D-02 0.323D-01 0.348D+00
 Coeff-Com:  0.637D+00
 Coeff:      0.407D-04-0.688D-02-0.544D-02-0.471D-02 0.323D-01 0.348D+00
 Coeff:      0.637D+00
 Gap=     0.223 Goal=   None    Shift=    0.000
 RMSDP=1.29D-08 MaxDP=2.05D-06 DE=-1.82D-10 OVMax= 2.56D-06

 Cycle  16  Pass 1  IDiag  1:
 RMSU=  5.41D-09    CP:  9.95D-01  1.02D+00  5.43D-01  1.03D+00  9.83D-01
                    CP:  1.06D+00  1.00D+00
 E= -801.924691066270     Delta-E=        0.000000000008 Rises=F Damp=F
 DIIS: error= 2.91D-08 at cycle   8 NSaved=   8.
 NSaved= 8 IEnMin= 7 EnMin= -801.924691066278     IErMin= 8 ErrMin= 2.91D-08
 ErrMax= 2.91D-08  0.00D+00 EMaxC= 1.00D-01 BMatC= 1.86D-12 BMatP= 5.14D-11
 IDIUse=1 WtCom= 1.00D+00 WtEn= 0.00D+00
 Coeff-Com:  0.467D-04-0.534D-02-0.417D-02-0.707D-02-0.367D-02 0.117D+00
 Coeff-Com:  0.275D+00 0.628D+00
 Coeff:      0.467D-04-0.534D-02-0.417D-02-0.707D-02-0.367D-02 0.117D+00
 Coeff:      0.275D+00 0.628D+00
 Gap=     0.223 Goal=   None    Shift=    0.000
 RMSDP=2.88D-09 MaxDP=6.28D-07 DE= 7.96D-12 OVMax= 4.15D-07

 SCF Done:  E(RM06) =  -801.924691066     A.U. after   16 cycles
            NFock= 16  Conv=0.29D-08     -V/T= 2.0044
 KE= 7.983751349359D+02 PE=-4.291011468428D+03 EE= 1.481430882336D+03
 Leave Link  502 at Tue Jun 24 04:44:38 2014, MaxMem=  4294967296 cpu:     34822.9
 (Enter /home/ztw1e12/g09/l801.exe)
 DoSCS=F DFT=T ScalE2(SS,OS)=  1.000000  1.000000
 Range of M.O.s used for correlation:     1  1068
 NBasis=  1204 NAE=    63 NBE=    63 NFC=     0 NFV=     0
 NROrb=   1068 NOA=    63 NOB=    63 NVA=  1005 NVB=  1005

 **** Warning!!: The largest alpha MO coefficient is  0.24220595D+02

 Leave Link  801 at Tue Jun 24 04:44:38 2014, MaxMem=  4294967296 cpu:         0.4
 (Enter /home/ztw1e12/g09/l1002.exe)
 Minotr:  Closed shell wavefunction.
          IDoAtm=111111111111111111111111111111111
          Direct CPHF calculation.
          Differentiating once with respect to Fermi-contact.
          Electric field/nuclear overlap derivatives assumed to be zero.
          Requested convergence is 1.0D-10 RMS, and 1.0D-09 maximum.
          Secondary convergence is 1.0D-12 RMS, and 1.0D-12 maximum.
          NewPWx=T KeepS1=F KeepF1=F KeepIn=T MapXYZ=F SortEE=F KeepMc=T.
          MDV=    4294965894 using IRadAn=  199590.
 Using stored XC quadrature information.
          Solving linear equations simultaneously, MaxMat=       0.
          There are    33 degrees of freedom in the 1st order CPHF.  IDoFFX=0 NUNeed=    33.
     33 vectors produced by pass  0 Test12= 1.92D-17 3.03D-11 XBig12= 4.29D+01 2.58D+00.
 AX will form    33 AO Fock derivatives at one time.
 FoFJK:  IHMeth= 1 ICntrl=       0 DoSepK=F KAlg= 0 I1Cent=   0 FoldK=F
 IRaf= 450000000 NMat=  33 IRICut=       1 DoRegI=T DoRafI=F ISym2E=-1.
 FoFCou: FMM=F IPFlag=           0 FMFlag=      100000 FMFlg1=           0
         NFxFlg=           0 DoJE=F BraDBF=F KetDBF=F FulRan=T
         wScrn=  0.000000 ICntrl=       0 IOpCl=  0 I1Cent=           0 NGrid=           0
         NMat0=   33 NMatS0=      0 NMatT0=   33 NMatD0=   33 NMtDS0=    0 NMtDT0=    0
 Petite list used in FoFCou.
     33 vectors produced by pass  1 Test12= 1.92D-17 3.03D-11 XBig12= 3.46D-01 1.89D-01.
     33 vectors produced by pass  2 Test12= 1.92D-17 3.03D-11 XBig12= 1.69D-02 5.45D-02.
     33 vectors produced by pass  3 Test12= 1.92D-17 3.03D-11 XBig12= 3.86D-04 6.75D-03.
     33 vectors produced by pass  4 Test12= 1.92D-17 3.03D-11 XBig12= 7.15D-06 1.05D-03.
     33 vectors produced by pass  5 Test12= 1.92D-17 3.03D-11 XBig12= 1.50D-07 1.57D-04.
     33 vectors produced by pass  6 Test12= 1.92D-17 3.03D-11 XBig12= 4.59D-09 2.47D-05.
     33 vectors produced by pass  7 Test12= 1.92D-17 3.03D-11 XBig12= 1.19D-10 4.36D-06.
     33 vectors produced by pass  8 Test12= 1.92D-17 3.03D-11 XBig12= 4.08D-12 3.51D-07.
     33 vectors produced by pass  9 Test12= 1.92D-17 3.03D-11 XBig12= 6.41D-14 9.62D-08.
     33 vectors produced by pass 10 Test12= 1.92D-17 3.03D-11 XBig12= 2.48D-15 8.53D-09.
     33 vectors produced by pass 11 Test12= 1.92D-17 3.03D-11 XBig12= 2.90D-17 6.52D-10.
      5 vectors produced by pass 12 Test12= 1.92D-17 3.03D-11 XBig12= 2.67D-19 5.49D-11.
 InvSVY:  IOpt=1 It=  1 EMax= 1.07D-14
 Solved reduced A of dimension   401 with    33 vectors.
 Max diff in FC couplings:  IJMax=    11     5 Diff= 4.57D-04 IJMaxR=    19     6 DiffR= 9.57D-01
 Fermi Contact (FC) contribution to K (Hz):
                1             2             3             4             5 
      1  0.123400D+11
      2  0.348530D+02  0.123400D+11
      3 -0.125019D+01  0.331691D+02  0.123400D+11
      4  0.305229D+01  0.357531D+00  0.338480D+02  0.123400D+11
      5  0.163397D+01  0.305313D+01 -0.125206D+01  0.343320D+02  0.123400D+11
      6  0.357333D+02 -0.202061D+00  0.424385D+01  0.194507D+00  0.390452D+02
      7  0.218014D+02 -0.316725D+00  0.933965D+00 -0.207645D+00  0.609433D+00
      8 -0.232769D+00  0.221893D+02 -0.207451D+00  0.103473D+01 -0.291830D+00
      9 -0.281123D+00  0.995419D+00 -0.166848D+00  0.220936D+02 -0.123922D+00
     10  0.672240D+00 -0.225952D+00  0.102397D+01 -0.260296D+00  0.228950D+02
     11  0.181215D+01  0.126845D+01  0.233041D+02  0.171652D+01  0.199066D+01
     12 -0.150646D+00  0.550464D+00 -0.109782D+01  0.645307D+00 -0.765597D-01
     13  0.127485D+00  0.932760D+00 -0.877538D+00  0.933387D+00  0.288293D-01
     14 -0.502663D+00  0.810867D+00 -0.111349D+01  0.753742D+00 -0.398761D+00
     15  0.105399D-01 -0.199825D-01  0.193226D+00 -0.122443D-01  0.117415D-01
     16 -0.568961D-02 -0.758185D-01  0.192540D+01  0.252749D-01  0.538516D-01
     17 -0.749847D+00 -0.106280D+00  0.254169D+00  0.300459D+01  0.116065D+02
     18  0.421059D+00 -0.111467D-01 -0.455907D-01  0.210541D+00  0.114602D+01
     19  0.324108D-01  0.104267D+00  0.278239D+00  0.321815D-02  0.318037D-02
     20  0.410884D-01 -0.441497D-01  0.112846D+01  0.755253D-01 -0.104611D-01
     21 -0.575997D-02  0.845632D-02 -0.182577D-01  0.136421D-01  0.233157D-03
     22 -0.437401D-01  0.490080D-01  0.105646D+00  0.108759D+00 -0.220654D-01
     23  0.716365D-03 -0.401642D-03  0.142930D-01 -0.930908D-03  0.582204D-03
     24 -0.558704D-02  0.553041D-02 -0.198913D-01  0.744529D-02 -0.103222D-02
     25  0.860124D-03 -0.431856D-03  0.965428D-02 -0.566816D-02  0.332439D-02
     26  0.204788D-04 -0.133384D-03  0.307063D-03 -0.408489D-03 -0.787185D-04
     27 -0.243934D-03  0.478158D-03 -0.101527D-02  0.782241D-03  0.614462D-04
     28  0.585846D-03 -0.589647D-03  0.129247D-02  0.804334D-03  0.672442D-03
     29 -0.115479D-02  0.102651D-02  0.852217D-01  0.950914D-02  0.100292D-02
     30  0.785256D-04 -0.340387D-03 -0.551160D-03 -0.585916D-03 -0.493702D-04
     31  0.870270D-04 -0.125363D-03  0.782405D-02 -0.164156D-03  0.778174D-04
     32  0.147407D-03  0.426147D-03 -0.275307D-02 -0.341041D-03 -0.395122D-04
     33  0.195640D-02  0.176839D-01  0.809956D-02  0.133991D-01 -0.235268D-02
                6             7             8             9            10 
      6  0.123400D+11
      7 -0.533348D+00  0.123400D+11
      8  0.120084D+01  0.336763D+00  0.123400D+11
      9  0.119770D+01  0.375727D-01  0.377002D-01  0.123400D+11
     10 -0.717283D+00  0.638038D-01  0.418177D-01  0.341512D+00  0.123400D+11
     11 -0.429220D+00  0.132845D-01  0.618186D+00  0.688847D+00  0.155341D-01
     12  0.152291D+00  0.135141D-01 -0.424452D-01 -0.358388D-01  0.160954D-01
     13  0.121609D-01  0.867458D-02 -0.190683D-02 -0.266866D-01  0.242180D-02
     14  0.483324D+00  0.449096D-01 -0.843765D-01 -0.107509D+00  0.375005D-01
     15 -0.499108D-02 -0.613891D-03 -0.216328D-02  0.337365D-02 -0.184070D-02
     16  0.103098D-01  0.431075D-02 -0.424048D-02  0.595820D-02  0.290071D-02
     17 -0.120036D+02  0.561097D+00  0.708350D-01  0.254944D+00  0.707079D+00
     18 -0.659236D+00 -0.134519D-01  0.177044D-02  0.134179D-01  0.133394D-02
     19  0.243432D-04  0.163562D-02  0.616460D-02 -0.182480D-03  0.336528D-03
     20  0.559782D-03 -0.102956D-01 -0.371999D-02  0.170962D-01  0.297346D-02
     21  0.216958D-02  0.115206D-02  0.504799D-03 -0.320048D-02  0.409562D-03
     22  0.435401D-01  0.374200D-02 -0.867745D-02 -0.789209D-02  0.494366D-02
     23 -0.371043D-03  0.283970D-05  0.876354D-04  0.117853D-03 -0.266732D-05
     24  0.322569D-02  0.568963D-03 -0.139939D-02 -0.431864D-03 -0.441120D-03
     25 -0.139299D-02 -0.149562D-03  0.408554D-03  0.268211D-03 -0.364052D-03
     26 -0.842460D-04 -0.175104D-04  0.183014D-04 -0.690618D-04 -0.713686D-05
     27  0.284471D-03 -0.116275D-04 -0.124445D-03 -0.677929D-04 -0.156202D-04
     28 -0.519242D-03 -0.115606D-03  0.626460D-04  0.427224D-03 -0.162144D-03
     29  0.313251D-02  0.372210D-03 -0.106894D-03 -0.600339D-04  0.701834D-03
     30 -0.130293D-03 -0.867176D-05  0.435776D-04  0.000000D+00 -0.261230D-04
     31  0.688944D-04  0.174238D-04  0.222263D-04  0.953123D-05  0.231698D-04
     32 -0.893369D-04 -0.160239D-04  0.898333D-04  0.106993D-04 -0.277248D-04
     33  0.259731D-02 -0.639426D-03  0.252241D-02 -0.114152D-03  0.802768D-05
               11            12            13            14            15 
     11  0.123400D+11
     12  0.183243D+02  0.123400D+11
     13  0.177684D+02 -0.870870D+00  0.123400D+11
     14  0.188924D+02 -0.607053D+00 -0.108555D+01  0.123400D+11
     15 -0.768194D+00  0.221151D+00  0.400940D+00  0.188033D+02  0.123400D+11
     16  0.619412D-01  0.423047D-01  0.464761D+00  0.277962D+02 -0.101602D+01
     17  0.691631D-01  0.541429D-01  0.261116D-02  0.183185D+00 -0.340476D-02
     18  0.114670D-01 -0.555863D-02 -0.422280D-03 -0.197799D-01  0.379385D-03
     19  0.148294D+01  0.765916D-01  0.977493D-01  0.349065D+01  0.340601D+00
     20  0.745778D+00  0.177762D+01  0.352201D+00  0.137847D+02 -0.942290D+00
     21  0.444771D+00 -0.184415D-01 -0.120131D-01  0.255484D+00  0.244359D+00
     22  0.730194D+00 -0.721128D-01 -0.651023D-01  0.111628D+02  0.114822D+00
     23  0.412603D-01  0.132161D-02 -0.700978D-03  0.686265D-01 -0.264799D-01
     24  0.116827D+01  0.100389D+00 -0.493741D-01 -0.506797D+00  0.534338D+00
     25 -0.407510D-01  0.513642D-01  0.137676D-01  0.816291D+00 -0.891528D-01
     26  0.190082D-01  0.392745D-02 -0.103340D-02  0.255609D-01  0.116272D-01
     27 -0.494195D-02 -0.211653D-02 -0.463045D-03  0.133693D-01  0.210069D-01
     28 -0.365163D-02  0.103004D-03 -0.260828D-03  0.872236D-01 -0.325964D-02
     29  0.316640D+00 -0.654540D-02 -0.213047D-02  0.862871D+00 -0.173146D-01
     30 -0.755346D-02 -0.194496D-03  0.877711D-03 -0.642561D-01  0.174695D-01
     31  0.126676D-01  0.314068D-03  0.113217D-02 -0.201293D-01  0.118071D-02
     32 -0.644841D-02  0.141069D-04 -0.381104D-03 -0.933691D-01  0.173860D-01
     33  0.145381D+00  0.455195D-03  0.749492D-01  0.689913D+00  0.153801D+00
               16            17            18            19            20 
     16  0.123400D+11
     17  0.388232D-02  0.123400D+11
     18 -0.460543D-03  0.199201D+02  0.123400D+11
     19 -0.101576D+02  0.136902D-02 -0.957201D-04  0.123400D+11
     20  0.501911D+00  0.642425D-02 -0.547612D-03  0.590413D+00  0.123400D+11
     21 -0.169581D-01  0.365645D-03 -0.398685D-04 -0.101215D-01  0.314063D+02
     22  0.284449D+02  0.179812D-01 -0.187365D-02  0.611569D+01 -0.999497D-01
     23  0.277117D+00 -0.607549D-04  0.937572D-05  0.525385D+00 -0.106475D-01
     24  0.386979D-01  0.955688D-03 -0.141458D-03  0.222676D-01  0.264294D+02
     25 -0.137950D+00 -0.295571D-03  0.235450D-04  0.235996D-01  0.117387D+02
     26  0.413578D-01 -0.207991D-05  0.000000D+00  0.955212D-03  0.428902D+00
     27  0.858876D-01  0.139318D-03 -0.183445D-04  0.100918D-01  0.428703D+00
     28 -0.121905D-03 -0.108960D-03  0.314835D-05  0.162065D-02  0.377519D+00
     29 -0.559885D+00  0.175649D-02 -0.160201D-03  0.631870D+00 -0.195378D+00
     30  0.275829D+00 -0.695450D-04  0.627142D-05  0.268508D+00  0.139943D+00
     31  0.104668D+01  0.252932D-04 -0.183846D-05  0.167208D+00  0.751350D-03
     32  0.189453D+00 -0.542361D-04  0.562141D-05  0.264330D+00  0.108683D+00
     33  0.367034D+00  0.145631D-02 -0.158834D-03  0.156346D+00  0.505257D+01
               21            22            23            24            25 
     21  0.123400D+11
     22  0.181004D-01  0.123400D+11
     23  0.213094D-02  0.324603D+02  0.123400D+11
     24  0.423541D+00 -0.248102D+00  0.171589D-01  0.123400D+11
     25  0.135528D+00  0.185174D+00 -0.233047D-01  0.273193D+02  0.123400D+11
     26 -0.182389D-01  0.113302D-04 -0.470885D-02 -0.119589D+01  0.178710D+02
     27 -0.126554D-01 -0.102652D-01 -0.719997D-03 -0.118305D+01  0.180120D+02
     28 -0.112516D-01  0.277029D-01 -0.226662D-02 -0.754548D+00  0.174083D+02
     29 -0.413452D-02  0.166172D+02  0.382520D+00 -0.137473D-01 -0.218748D-02
     30  0.888768D-03 -0.655578D+00  0.110062D+00 -0.193660D-02 -0.103739D-03
     31  0.804863D-04 -0.300569D+00  0.296368D+00  0.634557D-03  0.120473D-02
     32  0.184240D-02 -0.602935D+00  0.111811D+00  0.545015D-03  0.750433D-02
     33  0.405929D+00  0.596403D+01 -0.925307D+00 -0.939210D+01  0.416512D+01
               26            27            28            29            30 
     26  0.123400D+11
     27 -0.925869D+00  0.123400D+11
     28 -0.753652D+00 -0.718827D+00  0.123400D+11
     29 -0.123639D-02 -0.126044D-02  0.345502D-03  0.123400D+11
     30 -0.560564D-04  0.270797D-03  0.394047D-03  0.196365D+02  0.123400D+11
     31  0.609428D-03  0.165042D-03  0.132880D-03  0.184473D+02 -0.745035D+00
     32  0.237435D-03  0.490175D-03 -0.167085D-03  0.197122D+02 -0.748148D+00
     33  0.417555D+00  0.371273D+00  0.913691D+00  0.137670D+00  0.214717D-01
               31            32            33 
     31  0.123400D+11
     32 -0.746577D+00  0.123400D+11
     33  0.429025D-01  0.461586D-01  0.123400D+11
 Fermi Contact (FC) contribution to J (Hz):
                1             2             3             4             5 
      1  0.243533D+11
      2  0.687833D+02  0.243533D+11
      3 -0.246729D+01  0.654600D+02  0.243533D+11
      4  0.602377D+01  0.705597D+00  0.668000D+02  0.243533D+11
      5  0.322469D+01  0.602542D+01 -0.247097D+01  0.677550D+02  0.243533D+11
      6  0.705206D+02 -0.398773D+00  0.837534D+01  0.383864D+00  0.770567D+02
      7  0.171074D+03 -0.248531D+01  0.732873D+01 -0.162937D+01  0.478216D+01
      8 -0.182651D+01  0.174117D+03 -0.162785D+01  0.811939D+01 -0.228996D+01
      9 -0.220595D+01  0.781096D+01 -0.130924D+01  0.173366D+03 -0.972404D+00
     10  0.527500D+01 -0.177302D+01  0.803500D+01 -0.204251D+01  0.179655D+03
     11  0.357633D+01  0.250332D+01  0.459913D+02  0.338759D+01  0.392861D+01
     12 -0.118211D+01  0.431944D+01 -0.861446D+01  0.506366D+01 -0.600757D+00
     13  0.100036D+01  0.731928D+01 -0.688595D+01  0.732420D+01  0.226221D+00
     14 -0.992018D+00  0.160027D+01 -0.219749D+01  0.148753D+01 -0.786964D+00
     15  0.827059D-01 -0.156801D+00  0.151622D+01 -0.960795D-01  0.921347D-01
     16 -0.112286D-01 -0.149630D+00  0.379982D+01  0.498807D-01  0.106278D+00
     17  0.797973D+00  0.113101D+00 -0.270482D+00 -0.319743D+01 -0.123514D+02
     18  0.330401D+01 -0.874670D-01 -0.357746D+00  0.165209D+01  0.899274D+01
     19 -0.344909D-01 -0.110959D+00 -0.296097D+00 -0.342470D-02 -0.338449D-02
     20  0.233059D-01 -0.250423D-01  0.640076D+00  0.428389D-01 -0.593365D-02
     21 -0.451979D-01  0.663559D-01 -0.143266D+00  0.107048D+00  0.182956D-02
     22 -0.248099D-01  0.277979D-01  0.599236D-01  0.616895D-01 -0.125158D-01
     23  0.562125D-02 -0.315164D-02  0.112156D+00 -0.730475D-02  0.456850D-02
     24 -0.110262D-01  0.109144D-01 -0.392560D-01  0.146935D-01 -0.203712D-02
     25  0.169748D-02 -0.852279D-03  0.190530D-01 -0.111863D-01  0.656076D-02
     26  0.160695D-03 -0.104665D-02  0.240949D-02 -0.320537D-02 -0.617696D-03
     27 -0.191412D-02  0.375206D-02 -0.796673D-02  0.613817D-02  0.482162D-03
     28  0.459708D-02 -0.462691D-02  0.101419D-01  0.631153D-02  0.527658D-02
     29 -0.227900D-02  0.202584D-02  0.168187D+00  0.187665D-01  0.197929D-02
     30  0.616183D-03 -0.267098D-02 -0.432490D-02 -0.459762D-02 -0.387403D-03
     31  0.682892D-03 -0.983714D-03  0.613946D-01 -0.128811D-02  0.610626D-03
     32  0.115669D-02  0.334394D-02 -0.216031D-01 -0.267612D-02 -0.310048D-03
     33 -0.208196D-02 -0.188189D-01 -0.861939D-02 -0.142590D-01  0.250368D-02
                6             7             8             9            10 
      6  0.243533D+11
      7 -0.418513D+01  0.385007D+12
      8  0.942287D+01  0.105070D+02  0.385007D+12
      9  0.939825D+01  0.117227D+01  0.117624D+01  0.385007D+12
     10 -0.562845D+01  0.199068D+01  0.130471D+01  0.106552D+02  0.385007D+12
     11 -0.847076D+00  0.104242D+00  0.485084D+01  0.540532D+01  0.121894D+00
     12  0.119501D+01  0.421640D+00 -0.132429D+01 -0.111817D+01  0.502176D+00
     13  0.954254D-01  0.270647D+00 -0.594930D-01 -0.832621D+00  0.755601D-01
     14  0.953851D+00  0.352401D+00 -0.662094D+00 -0.843611D+00  0.294262D+00
     15 -0.391645D-01 -0.191534D-01 -0.674941D-01  0.105258D+00 -0.574298D-01
     16  0.203467D-01  0.338260D-01 -0.332746D-01  0.467534D-01  0.227616D-01
     17  0.127740D+02 -0.237416D+01 -0.299722D+00 -0.107874D+01 -0.299185D+01
     18 -0.517296D+01 -0.419698D+00  0.552377D-01  0.418637D+00  0.416188D-01
     19 -0.259055D-04 -0.692074D-02 -0.260841D-01  0.772121D-03 -0.142394D-02
     20  0.317515D-03 -0.232195D-01 -0.838963D-02  0.385568D-01  0.670599D-02
     21  0.170245D-01  0.359442D-01  0.157497D-01 -0.998547D-01  0.127783D-01
     22  0.246965D-01  0.843926D-02 -0.195701D-01 -0.177989D-01  0.111494D-01
     23 -0.291154D-02  0.885986D-04  0.273422D-02  0.367702D-02 -0.832203D-04
     24  0.636598D-02  0.446460D-02 -0.109809D-01 -0.338880D-02 -0.346143D-02
     25 -0.274909D-02 -0.117360D-02  0.320588D-02  0.210462D-02 -0.285668D-02
     26 -0.661070D-03 -0.546323D-03  0.571002D-03 -0.215473D-02 -0.222670D-03
     27  0.223222D-02 -0.362777D-03 -0.388268D-02 -0.211513D-02 -0.487350D-03
     28 -0.407444D-02 -0.360692D-02  0.195455D-02  0.133294D-01 -0.505888D-02
     29  0.618210D-02  0.292070D-02 -0.838790D-03 -0.471080D-03  0.550723D-02
     30 -0.102240D-02 -0.270558D-03  0.135962D-02  0.250693D-04 -0.815037D-03
     31  0.540607D-03  0.543623D-03  0.693460D-03  0.297374D-03  0.722897D-03
     32 -0.701018D-03 -0.499946D-03  0.280280D-02  0.333818D-03 -0.865014D-03
     33 -0.276401D-02  0.270559D-02 -0.106730D-01  0.483006D-03 -0.339673D-04
               11            12            13            14            15 
     11  0.243533D+11
     12  0.143789D+03  0.385007D+12
     13  0.139427D+03 -0.271711D+02  0.385007D+12
     14  0.372846D+02 -0.476349D+01 -0.851822D+01  0.243533D+11
     15 -0.602794D+01  0.689989D+01  0.125093D+02  0.147548D+03  0.385007D+12
     16  0.122242D+00  0.331961D+00  0.364693D+01  0.548564D+02 -0.797263D+01
     17 -0.736021D-01 -0.229093D+00 -0.110485D-01 -0.194942D+00  0.144065D-01
     18  0.899803D-01 -0.173429D+00 -0.131751D-01 -0.155211D+00  0.118368D-01
     19 -0.157811D+01 -0.324080D+00 -0.413604D+00 -0.371468D+01 -0.144118D+01
     20  0.423015D+00  0.400904D+01  0.794313D+00  0.781886D+01 -0.212513D+01
     21  0.349007D+01 -0.575373D+00 -0.374809D+00  0.200475D+01  0.762400D+01
     22  0.414175D+00 -0.162635D+00 -0.146824D+00  0.633170D+01  0.258956D+00
     23  0.323766D+00  0.412342D-01 -0.218705D-01  0.538506D+00 -0.826172D+00
     24  0.230561D+01  0.787747D+00 -0.387434D+00 -0.100018D+01  0.419290D+01
     25 -0.804232D-01  0.403050D+00  0.108033D+00  0.161097D+01 -0.699574D+00
     26  0.149156D+00  0.122536D+00 -0.322420D-01  0.200574D+00  0.362769D+00
     27 -0.387790D-01 -0.660357D-01 -0.144470D-01  0.104907D+00  0.655416D+00
     28 -0.286540D-01  0.321371D-02 -0.813781D-02  0.684435D+00 -0.101701D+00
     29  0.624896D+00 -0.513611D-01 -0.167176D-01  0.170290D+01 -0.135866D+00
     30 -0.592712D-01 -0.606825D-02  0.273846D-01 -0.504211D+00  0.545047D+00
     31  0.994017D-01  0.979891D-02  0.353236D-01 -0.157953D+00  0.368380D-01
     32 -0.506001D-01  0.440134D-03 -0.118904D-01 -0.732658D+00  0.542442D+00
     33 -0.154712D+00 -0.192605D-02 -0.317131D+00 -0.734192D+00 -0.650773D+00
               16            17            18            19            20 
     16  0.243533D+11
     17 -0.413149D-02  0.708114D+10
     18 -0.361384D-02 -0.842873D+02  0.385007D+12
     19  0.108096D+02  0.785593D-03  0.405018D-03  0.708114D+10
     20  0.284690D+00 -0.196490D-02 -0.123502D-02 -0.180582D+00  0.201170D+10
     21 -0.133068D+00 -0.154715D-02 -0.124390D-02  0.428267D-01  0.708301D+02
     22  0.161343D+02 -0.549967D-02 -0.422561D-02 -0.187053D+01 -0.162941D-01
     23  0.217451D+01  0.257071D-03  0.292522D-03 -0.222305D+01 -0.240132D-01
     24  0.763713D-01 -0.101702D-02 -0.111001D-02 -0.236967D-01  0.149911D+02
     25 -0.272248D+00  0.314541D-03  0.184755D-03 -0.251142D-01  0.665831D+01
     26  0.324531D+00  0.880066D-05  0.539356D-05 -0.404176D-02  0.967297D+00
     27  0.673951D+00 -0.589494D-03 -0.572347D-03 -0.427011D-01  0.966847D+00
     28 -0.956580D-03  0.461040D-03  0.982284D-04 -0.685741D-02  0.851413D+00
     29 -0.110495D+01 -0.186923D-02 -0.125708D-02 -0.672424D+00 -0.110821D+00
     30  0.216441D+01  0.294264D-03  0.195668D-03 -0.113613D+01  0.315612D+00
     31  0.821317D+01 -0.107022D-03 -0.573598D-04 -0.707504D+00  0.169451D-02
     32  0.148662D+01  0.229488D-03  0.175388D-03 -0.111845D+01  0.245111D+00
     33 -0.390590D+00  0.835682D-03  0.672072D-03  0.897173D-01 -0.154536D+01
               21            22            23            24            25 
     21  0.385007D+12
     22  0.408216D-01  0.201170D+10
     23  0.664852D-01  0.732071D+02  0.385007D+12
     24  0.332349D+01 -0.140726D+00  0.134644D+00  0.243533D+11
     25  0.106348D+01  0.105033D+00 -0.182870D+00  0.539154D+02  0.243533D+11
     26 -0.569054D+00  0.255529D-04 -0.146916D+00 -0.938401D+01  0.140232D+03
     27 -0.394848D+00 -0.231509D-01 -0.224639D-01 -0.928327D+01  0.141338D+03
     28 -0.351049D+00  0.624779D-01 -0.707183D-01 -0.592086D+01  0.136601D+03
     29 -0.324432D-01  0.942550D+01  0.300160D+01 -0.271307D-01 -0.431705D-02
     30  0.277295D-01 -0.147852D+01  0.343391D+01 -0.151963D-01 -0.814028D-03
     31  0.251117D-02 -0.677868D+00  0.924668D+01  0.497931D-02  0.945337D-02
     32  0.574828D-01 -0.135979D+01  0.348850D+01  0.427668D-02  0.588858D-01
     33 -0.171760D+01 -0.182414D+01  0.391523D+01  0.999489D+01 -0.443244D+01
               26            27            28            29            30 
     26  0.385007D+12
     27 -0.288871D+02  0.385007D+12
     28 -0.235139D+02 -0.224274D+02  0.385007D+12
     29 -0.970185D-02 -0.989056D-02  0.271112D-02  0.243533D+11
     30 -0.174896D-02  0.844886D-02  0.122943D-01  0.154086D+03  0.385007D+12
     31  0.190141D-01  0.514932D-02  0.414586D-02  0.144754D+03 -0.232451D+02
     32  0.740796D-02  0.152935D-01 -0.521305D-02  0.154680D+03 -0.233422D+02
     33 -0.176679D+01 -0.157096D+01 -0.386608D+01 -0.146506D+00 -0.908528D-01
               31            32            33 
     31  0.385007D+12
     32 -0.232932D+02  0.385007D+12
     33 -0.181532D+00 -0.195310D+00  0.708114D+10
 End of Minotr F.D. properties file   721 does not exist.
 End of Minotr F.D. properties file   722 does not exist.
 End of Minotr F.D. properties file   788 does not exist.
 Leave Link 1002 at Tue Jun 24 12:41:31 2014, MaxMem=  4294967296 cpu:    456585.9
 (Enter /home/ztw1e12/g09/l601.exe)
 Copying SCF densities to generalized density rwf, IOpCl= 0 IROHF=0.

 **********************************************************************

            Population analysis using the SCF density.

 **********************************************************************

 Orbital symmetries:
       Occupied  (A) (A) (A) (A) (A) (A) (A) (A) (A) (A) (A) (A)
                 (A) (A) (A) (A) (A) (A) (A) (A) (A) (A) (A) (A)
                 (A) (A) (A) (A) (A) (A) (A) (A) (A) (A) (A) (A)
                 (A) (A) (A) (A) (A) (A) (A) (A) (A) (A) (A) (A)
                 (A) (A) (A) (A) (A) (A) (A) (A) (A) (A) (A) (A)
                 (A) (A) (A)
       Virtual   (A) (A) (A) (A) (A) (A) (A) (A) (A) (A) (A) (A)
                 (A) (A) (A) (A) (A) (A) (A) (A) (A) (A) (A) (A)
                 (A) (A) (A) (A) (A) (A) (A) (A) (A) (A) (A) (A)
                 (A) (A) (A) (A) (A) (A) (A) (A) (A) (A) (A) (A)
                 (A) (A) (A) (A) (A) (A) (A) (A) (A) (A) (A) (A)
                 (A) (A) (A) (A) (A) (A) (A) (A) (A) (A) (A) (A)
                 (A) (A) (A) (A) (A) (A) (A) (A) (A) (A) (A) (A)
                 (A) (A) (A) (A) (A) (A) (A) (A) (A) (A) (A) (A)
                 (A) (A) (A) (A) (A) (A) (A) (A) (A) (A) (A) (A)
                 (A) (A) (A) (A) (A) (A) (A) (A) (A) (A) (A) (A)
                 (A) (A) (A) (A) (A) (A) (A) (A) (A) (A) (A) (A)
                 (A) (A) (A) (A) (A) (A) (A) (A) (A) (A) (A) (A)
                 (A) (A) (A) (A) (A) (A) (A) (A) (A) (A) (A) (A)
                 (A) (A) (A) (A) (A) (A) (A) (A) (A) (A) (A) (A)
                 (A) (A) (A) (A) (A) (A) (A) (A) (A) (A) (A) (A)
                 (A) (A) (A) (A) (A) (A) (A) (A) (A) (A) (A) (A)
                 (A) (A) (A) (A) (A) (A) (A) (A) (A) (A) (A) (A)
                 (A) (A) (A) (A) (A) (A) (A) (A) (A) (A) (A) (A)
                 (A) (A) (A) (A) (A) (A) (A) (A) (A) (A) (A) (A)
                 (A) (A) (A) (A) (A) (A) (A) (A) (A) (A) (A) (A)
                 (A) (A) (A) (A) (A) (A) (A) (A) (A) (A) (A) (A)
                 (A) (A) (A) (A) (A) (A) (A) (A) (A) (A) (A) (A)
                 (A) (A) (A) (A) (A) (A) (A) (A) (A) (A) (A) (A)
                 (A) (A) (A) (A) (A) (A) (A) (A) (A) (A) (A) (A)
                 (A) (A) (A) (A) (A) (A) (A) (A) (A) (A) (A) (A)
                 (A) (A) (A) (A) (A) (A) (A) (A) (A) (A) (A) (A)
                 (A) (A) (A) (A) (A) (A) (A) (A) (A) (A) (A) (A)
                 (A) (A) (A) (A) (A) (A) (A) (A) (A) (A) (A) (A)
                 (A) (A) (A) (A) (A) (A) (A) (A) (A) (A) (A) (A)
                 (A) (A) (A) (A) (A) (A) (A) (A) (A) (A) (A) (A)
                 (A) (A) (A) (A) (A) (A) (A) (A) (A) (A) (A) (A)
                 (A) (A) (A) (A) (A) (A) (A) (A) (A) (A) (A) (A)
                 (A) (A) (A) (A) (A) (A) (A) (A) (A) (A) (A) (A)
                 (A) (A) (A) (A) (A) (A) (A) (A) (A) (A) (A) (A)
                 (A) (A) (A) (A) (A) (A) (A) (A) (A) (A) (A) (A)
                 (A) (A) (A) (A) (A) (A) (A) (A) (A) (A) (A) (A)
                 (A) (A) (A) (A) (A) (A) (A) (A) (A) (A) (A) (A)
                 (A) (A) (A) (A) (A) (A) (A) (A) (A) (A) (A) (A)
                 (A) (A) (A) (A) (A) (A) (A) (A) (A) (A) (A) (A)
                 (A) (A) (A) (A) (A) (A) (A) (A) (A) (A) (A) (A)
                 (A) (A) (A) (A) (A) (A) (A) (A) (A) (A) (A) (A)
                 (A) (A) (A) (A) (A) (A) (A) (A) (A) (A) (A) (A)
                 (A) (A) (A) (A) (A) (A) (A) (A) (A) (A) (A) (A)
                 (A) (A) (A) (A) (A) (A) (A) (A) (A) (A) (A) (A)
                 (A) (A) (A) (A) (A) (A) (A) (A) (A) (A) (A) (A)
                 (A) (A) (A) (A) (A) (A) (A) (A) (A) (A) (A) (A)
                 (A) (A) (A) (A) (A) (A) (A) (A) (A) (A) (A) (A)
                 (A) (A) (A) (A) (A) (A) (A) (A) (A) (A) (A) (A)
                 (A) (A) (A) (A) (A) (A) (A) (A) (A) (A) (A) (A)
                 (A) (A) (A) (A) (A) (A) (A) (A) (A) (A) (A) (A)
                 (A) (A) (A) (A) (A) (A) (A) (A) (A) (A) (A) (A)
                 (A) (A) (A) (A) (A) (A) (A) (A) (A) (A) (A) (A)
                 (A) (A) (A) (A) (A) (A) (A) (A) (A) (A) (A) (A)
                 (A) (A) (A) (A) (A) (A) (A) (A) (A) (A) (A) (A)
                 (A) (A) (A) (A) (A) (A) (A) (A) (A) (A) (A) (A)
                 (A) (A) (A) (A) (A) (A) (A) (A) (A) (A) (A) (A)
                 (A) (A) (A) (A) (A) (A) (A) (A) (A) (A) (A) (A)
                 (A) (A) (A) (A) (A) (A) (A) (A) (A) (A) (A) (A)
                 (A) (A) (A) (A) (A) (A) (A) (A) (A) (A) (A) (A)
                 (A) (A) (A) (A) (A) (A) (A) (A) (A) (A) (A) (A)
                 (A) (A) (A) (A) (A) (A) (A) (A) (A) (A) (A) (A)
                 (A) (A) (A) (A) (A) (A) (A) (A) (A) (A) (A) (A)
                 (A) (A) (A) (A) (A) (A) (A) (A) (A) (A) (A) (A)
                 (A) (A) (A) (A) (A) (A) (A) (A) (A) (A) (A) (A)
                 (A) (A) (A) (A) (A) (A) (A) (A) (A) (A) (A) (A)
                 (A) (A) (A) (A) (A) (A) (A) (A) (A) (A) (A) (A)
                 (A) (A) (A) (A) (A) (A) (A) (A) (A) (A) (A) (A)
                 (A) (A) (A) (A) (A) (A) (A) (A) (A) (A) (A) (A)
                 (A) (A) (A) (A) (A) (A) (A) (A) (A) (A) (A) (A)
                 (A) (A) (A) (A) (A) (A) (A) (A) (A) (A) (A) (A)
                 (A) (A) (A) (A) (A) (A) (A) (A) (A) (A) (A) (A)
                 (A) (A) (A) (A) (A) (A) (A) (A) (A) (A) (A) (A)
                 (A) (A) (A) (A) (A) (A) (A) (A) (A) (A) (A) (A)
                 (A) (A) (A) (A) (A) (A) (A) (A) (A) (A) (A) (A)
                 (A) (A) (A) (A) (A) (A) (A) (A) (A) (A) (A) (A)
                 (A) (A) (A) (A) (A) (A) (A) (A) (A) (A) (A) (A)
                 (A) (A) (A) (A) (A) (A) (A) (A) (A) (A) (A) (A)
                 (A) (A) (A) (A) (A) (A) (A) (A) (A) (A) (A) (A)
                 (A) (A) (A) (A) (A) (A) (A) (A) (A) (A) (A) (A)
                 (A) (A) (A) (A) (A) (A) (A) (A) (A) (A) (A) (A)
                 (A) (A) (A) (A) (A) (A) (A) (A) (A) (A) (A) (A)
                 (A) (A) (A) (A) (A) (A) (A) (A) (A) (A) (A) (A)
                 (A) (A) (A) (A) (A) (A) (A) (A) (A) (A) (A) (A)
                 (A) (A) (A) (A) (A) (A) (A) (A) (A)
 The electronic state is 1-A.
 Alpha  occ. eigenvalues --  -19.25102 -19.18603 -19.17194 -14.42992 -14.40504
 Alpha  occ. eigenvalues --  -10.35297 -10.33206 -10.31169 -10.29431 -10.26463
 Alpha  occ. eigenvalues --  -10.25199 -10.25152 -10.25131 -10.25105 -10.25002
 Alpha  occ. eigenvalues --  -10.24936 -10.24486  -1.09410  -1.06623  -1.04843
 Alpha  occ. eigenvalues --   -0.95814  -0.93234  -0.88098  -0.81584  -0.77409
 Alpha  occ. eigenvalues --   -0.77147  -0.74437  -0.71721  -0.66298  -0.64520
 Alpha  occ. eigenvalues --   -0.61506  -0.60724  -0.58591  -0.56778  -0.55168
 Alpha  occ. eigenvalues --   -0.51945  -0.51261  -0.50165  -0.48578  -0.46911
 Alpha  occ. eigenvalues --   -0.46737  -0.45806  -0.45642  -0.44365  -0.43926
 Alpha  occ. eigenvalues --   -0.43400  -0.42778  -0.42499  -0.41689  -0.40853
 Alpha  occ. eigenvalues --   -0.39661  -0.38886  -0.38199  -0.37489  -0.36586
 Alpha  occ. eigenvalues --   -0.35503  -0.35442  -0.30374  -0.28353  -0.27800
 Alpha  occ. eigenvalues --   -0.26925  -0.25966  -0.24156
 Alpha virt. eigenvalues --   -0.01905   0.00129   0.01094   0.01877   0.02323
 Alpha virt. eigenvalues --    0.03586   0.04085   0.04655   0.05541   0.06760
 Alpha virt. eigenvalues --    0.07625   0.08586   0.09111   0.10360   0.10774
 Alpha virt. eigenvalues --    0.11433   0.11945   0.12054   0.13287   0.13710
 Alpha virt. eigenvalues --    0.15402   0.16657   0.17733   0.18287   0.18881
 Alpha virt. eigenvalues --    0.19462   0.20690   0.21999   0.22103   0.23484
 Alpha virt. eigenvalues --    0.24217   0.24312   0.25370   0.25486   0.26150
 Alpha virt. eigenvalues --    0.27156   0.27590   0.28563   0.29138   0.29873
 Alpha virt. eigenvalues --    0.29956   0.30418   0.31686   0.32217   0.32520
 Alpha virt. eigenvalues --    0.32798   0.33512   0.34140   0.34511   0.35145
 Alpha virt. eigenvalues --    0.35366   0.36072   0.36526   0.36937   0.37391
 Alpha virt. eigenvalues --    0.38154   0.38417   0.39090   0.39562   0.39874
 Alpha virt. eigenvalues --    0.40339   0.40658   0.41066   0.41432   0.41878
 Alpha virt. eigenvalues --    0.42061   0.42722   0.43259   0.43573   0.43817
 Alpha virt. eigenvalues --    0.44443   0.44842   0.45232   0.45788   0.46557
 Alpha virt. eigenvalues --    0.47006   0.48198   0.48979   0.49972   0.50530
 Alpha virt. eigenvalues --    0.50631   0.51133   0.51890   0.52965   0.53073
 Alpha virt. eigenvalues --    0.53369   0.54786   0.55499   0.56164   0.56969
 Alpha virt. eigenvalues --    0.58127   0.58818   0.59228   0.60638   0.61104
 Alpha virt. eigenvalues --    0.62154   0.62192   0.63812   0.64081   0.64890
 Alpha virt. eigenvalues --    0.65254   0.65713   0.66743   0.66896   0.68277
 Alpha virt. eigenvalues --    0.68923   0.70908   0.71307   0.72349   0.72643
 Alpha virt. eigenvalues --    0.73248   0.73806   0.74863   0.75456   0.75523
 Alpha virt. eigenvalues --    0.76675   0.77170   0.79092   0.79521   0.79929
 Alpha virt. eigenvalues --    0.80558   0.80855   0.81449   0.81940   0.82748
 Alpha virt. eigenvalues --    0.83412   0.84092   0.85083   0.86130   0.86511
 Alpha virt. eigenvalues --    0.87609   0.88273   0.89162   0.89677   0.91295
 Alpha virt. eigenvalues --    0.91825   0.92284   0.93362   0.93988   0.94207
 Alpha virt. eigenvalues --    0.95126   0.95491   0.96405   0.96986   0.97276
 Alpha virt. eigenvalues --    0.97943   0.99043   0.99853   1.00437   1.00957
 Alpha virt. eigenvalues --    1.01536   1.02829   1.02867   1.04044   1.04902
 Alpha virt. eigenvalues --    1.06133   1.07096   1.07377   1.08148   1.08652
 Alpha virt. eigenvalues --    1.09410   1.10879   1.11337   1.12632   1.13285
 Alpha virt. eigenvalues --    1.14138   1.15550   1.16134   1.16613   1.17107
 Alpha virt. eigenvalues --    1.17776   1.18266   1.19165   1.19407   1.19858
 Alpha virt. eigenvalues --    1.20674   1.21596   1.21777   1.22112   1.22974
 Alpha virt. eigenvalues --    1.23197   1.23684   1.23773   1.24260   1.24718
 Alpha virt. eigenvalues --    1.25513   1.25860   1.26352   1.26682   1.27648
 Alpha virt. eigenvalues --    1.28230   1.28496   1.29395   1.30505   1.30958
 Alpha virt. eigenvalues --    1.32233   1.32671   1.32763   1.33512   1.34198
 Alpha virt. eigenvalues --    1.34616   1.35358   1.35651   1.37024   1.37913
 Alpha virt. eigenvalues --    1.38580   1.39888   1.41241   1.42798   1.45950
 Alpha virt. eigenvalues --    1.47409   1.47648   1.48130   1.49425   1.52860
 Alpha virt. eigenvalues --    1.53844   1.54277   1.55181   1.56301   1.57634
 Alpha virt. eigenvalues --    1.58563   1.59797   1.61566   1.62634   1.63271
 Alpha virt. eigenvalues --    1.64175   1.64492   1.68133   1.69176   1.71260
 Alpha virt. eigenvalues --    1.72286   1.74452   1.76786   1.77561   1.80019
 Alpha virt. eigenvalues --    1.80323   1.81776   1.82859   1.83564   1.84826
 Alpha virt. eigenvalues --    1.85604   1.87214   1.87634   1.89750   1.91200
 Alpha virt. eigenvalues --    1.91668   1.92542   1.92871   1.95408   1.96290
 Alpha virt. eigenvalues --    1.97375   1.99260   2.00962   2.01764   2.02484
 Alpha virt. eigenvalues --    2.04166   2.04695   2.06976   2.07533   2.08638
 Alpha virt. eigenvalues --    2.09267   2.10509   2.11321   2.12356   2.13542
 Alpha virt. eigenvalues --    2.15079   2.16373   2.17573   2.18588   2.19353
 Alpha virt. eigenvalues --    2.21478   2.21907   2.22447   2.24207   2.25600
 Alpha virt. eigenvalues --    2.27728   2.29030   2.29667   2.31617   2.32186
 Alpha virt. eigenvalues --    2.32846   2.34255   2.36412   2.37609   2.38717
 Alpha virt. eigenvalues --    2.39162   2.39899   2.41192   2.43313   2.44076
 Alpha virt. eigenvalues --    2.44847   2.45188   2.45922   2.47080   2.47836
 Alpha virt. eigenvalues --    2.50227   2.51490   2.51819   2.53230   2.53926
 Alpha virt. eigenvalues --    2.55778   2.56386   2.57008   2.58157   2.60025
 Alpha virt. eigenvalues --    2.62025   2.63519   2.65042   2.66647   2.66747
 Alpha virt. eigenvalues --    2.67382   2.68245   2.68491   2.69069   2.70080
 Alpha virt. eigenvalues --    2.70674   2.70758   2.71656   2.72064   2.72488
 Alpha virt. eigenvalues --    2.73501   2.73729   2.74541   2.75139   2.75935
 Alpha virt. eigenvalues --    2.77063   2.78343   2.78851   2.79856   2.80610
 Alpha virt. eigenvalues --    2.80821   2.81959   2.82321   2.83291   2.85648
 Alpha virt. eigenvalues --    2.86403   2.87356   2.88233   2.88570   2.89028
 Alpha virt. eigenvalues --    2.90533   2.91703   2.91955   2.92366   2.93107
 Alpha virt. eigenvalues --    2.93547   2.94075   2.94938   2.94962   2.95948
 Alpha virt. eigenvalues --    2.96234   2.96476   2.97592   2.98247   2.98353
 Alpha virt. eigenvalues --    2.99310   3.00325   3.00745   3.01317   3.01809
 Alpha virt. eigenvalues --    3.02754   3.02926   3.03636   3.04438   3.05219
 Alpha virt. eigenvalues --    3.05911   3.06274   3.07119   3.07555   3.09604
 Alpha virt. eigenvalues --    3.10077   3.10418   3.11407   3.12563   3.13253
 Alpha virt. eigenvalues --    3.14047   3.14489   3.15088   3.16081   3.17159
 Alpha virt. eigenvalues --    3.17748   3.18087   3.18878   3.19864   3.20662
 Alpha virt. eigenvalues --    3.21075   3.22157   3.23688   3.24259   3.24972
 Alpha virt. eigenvalues --    3.25204   3.25992   3.26517   3.27758   3.28134
 Alpha virt. eigenvalues --    3.28559   3.28765   3.29562   3.29831   3.30198
 Alpha virt. eigenvalues --    3.30619   3.32388   3.33497   3.33918   3.34292
 Alpha virt. eigenvalues --    3.34643   3.35560   3.36049   3.38128   3.38676
 Alpha virt. eigenvalues --    3.39826   3.40539   3.40857   3.42019   3.42112
 Alpha virt. eigenvalues --    3.42364   3.42799   3.44124   3.45231   3.46264
 Alpha virt. eigenvalues --    3.46726   3.47695   3.48836   3.49467   3.51581
 Alpha virt. eigenvalues --    3.51899   3.52099   3.53779   3.54551   3.55391
 Alpha virt. eigenvalues --    3.56468   3.58694   3.59716   3.59921   3.61779
 Alpha virt. eigenvalues --    3.62681   3.62951   3.63883   3.65928   3.66066
 Alpha virt. eigenvalues --    3.67785   3.68379   3.68861   3.70214   3.70835
 Alpha virt. eigenvalues --    3.71330   3.72620   3.73095   3.73297   3.73806
 Alpha virt. eigenvalues --    3.74629   3.74907   3.76250   3.77233   3.77367
 Alpha virt. eigenvalues --    3.77827   3.79216   3.80449   3.80693   3.82068
 Alpha virt. eigenvalues --    3.82828   3.83470   3.83986   3.85140   3.85780
 Alpha virt. eigenvalues --    3.86567   3.87171   3.88090   3.88587   3.89872
 Alpha virt. eigenvalues --    3.90499   3.91130   3.93141   3.94559   3.95076
 Alpha virt. eigenvalues --    3.96048   3.97262   3.97463   3.99178   3.99881
 Alpha virt. eigenvalues --    4.01456   4.02639   4.03980   4.05198   4.05480
 Alpha virt. eigenvalues --    4.06464   4.06600   4.07505   4.07709   4.08198
 Alpha virt. eigenvalues --    4.09087   4.10590   4.12619   4.13217   4.13718
 Alpha virt. eigenvalues --    4.14270   4.15259   4.16419   4.17539   4.18904
 Alpha virt. eigenvalues --    4.19519   4.20407   4.20549   4.21472   4.21734
 Alpha virt. eigenvalues --    4.22975   4.23356   4.24839   4.26187   4.26851
 Alpha virt. eigenvalues --    4.27395   4.27950   4.29399   4.30354   4.31568
 Alpha virt. eigenvalues --    4.32019   4.32447   4.34538   4.36624   4.38007
 Alpha virt. eigenvalues --    4.38842   4.40715   4.42473   4.42621   4.44418
 Alpha virt. eigenvalues --    4.45755   4.46166   4.49554   4.50222   4.51745
 Alpha virt. eigenvalues --    4.53629   4.54267   4.56891   4.58209   4.58979
 Alpha virt. eigenvalues --    4.59450   4.61173   4.62154   4.63053   4.63496
 Alpha virt. eigenvalues --    4.64405   4.65325   4.65836   4.66335   4.69128
 Alpha virt. eigenvalues --    4.69218   4.70108   4.70751   4.72492   4.73792
 Alpha virt. eigenvalues --    4.74501   4.76140   4.77345   4.79472   4.79749
 Alpha virt. eigenvalues --    4.80859   4.82572   4.84008   4.84468   4.85883
 Alpha virt. eigenvalues --    4.86896   4.88522   4.89910   4.90121   4.90601
 Alpha virt. eigenvalues --    4.91915   4.93315   4.94186   4.95526   4.96665
 Alpha virt. eigenvalues --    4.96979   4.99168   5.00788   5.01788   5.02912
 Alpha virt. eigenvalues --    5.04398   5.05664   5.06731   5.07639   5.09994
 Alpha virt. eigenvalues --    5.10596   5.11241   5.12452   5.13151   5.15894
 Alpha virt. eigenvalues --    5.16315   5.17533   5.18435   5.20139   5.20700
 Alpha virt. eigenvalues --    5.22798   5.23410   5.24869   5.25831   5.27623
 Alpha virt. eigenvalues --    5.29737   5.33872   5.35370   5.35837   5.37670
 Alpha virt. eigenvalues --    5.40844   5.41930   5.44105   5.45554   5.47592
 Alpha virt. eigenvalues --    5.51545   5.51758   5.52113   5.53788   5.54877
 Alpha virt. eigenvalues --    5.56711   5.57774   5.58986   5.61082   5.62082
 Alpha virt. eigenvalues --    5.63046   5.65073   5.66131   5.66493   5.67406
 Alpha virt. eigenvalues --    5.68650   5.69295   5.70978   5.72631   5.74546
 Alpha virt. eigenvalues --    5.75347   5.76626   5.78720   5.80551   5.81112
 Alpha virt. eigenvalues --    5.84215   5.87321   5.89442   5.91844   5.96265
 Alpha virt. eigenvalues --    5.98805   5.99732   6.05352   6.07049   6.10084
 Alpha virt. eigenvalues --    6.16201   6.17577   6.19148   6.24760   6.26131
 Alpha virt. eigenvalues --    6.45777   6.46479   6.51312   6.55767   6.60332
 Alpha virt. eigenvalues --    6.60623   6.61918   6.62019   6.63966   6.67125
 Alpha virt. eigenvalues --    6.79552   6.80000   6.81352   6.88097   6.88692
 Alpha virt. eigenvalues --    6.90175   6.91294   6.92928   6.94186   7.06293
 Alpha virt. eigenvalues --    7.17914   7.18928   7.22570   7.27577   7.28968
 Alpha virt. eigenvalues --    7.67375   7.99227   8.09089   8.11682   8.12572
 Alpha virt. eigenvalues --    8.16732   8.19470   8.25559   8.35917   8.66737
 Alpha virt. eigenvalues --    8.74353   8.75585   8.77092   8.81361   8.81531
 Alpha virt. eigenvalues --    8.83607   8.84069   8.85202   8.90252   8.92358
 Alpha virt. eigenvalues --    8.93494   8.94390   8.99440   9.00159   9.03773
 Alpha virt. eigenvalues --    9.08336   9.13962   9.16900   9.21530   9.30786
 Alpha virt. eigenvalues --    9.35754   9.40171   9.40660   9.45811   9.48245
 Alpha virt. eigenvalues --    9.57913   9.63295   9.78167   9.81698  10.02800
 Alpha virt. eigenvalues --   10.07068  10.11929  10.12480  10.13511  10.17797
[...]
 Alpha virt. eigenvalues --    6.78080   6.80418   6.85874   6.86834   6.88296
 Alpha virt. eigenvalues --    6.91735   6.92803   7.07969   7.10219   7.10958
 Alpha virt. eigenvalues --    7.15122   7.19091   7.28556   7.43247   8.60673
 Alpha virt. eigenvalues --    9.54377   9.95656  12.04893  12.11536  12.29739
 Alpha virt. eigenvalues --   12.38723  12.48524  12.78562  12.92747  13.25722
 Alpha virt. eigenvalues --   13.52082  13.54608  13.60278  13.75234  14.01889
 Alpha virt. eigenvalues --   15.54544
          Condensed to atoms (all electrons):
               1          2          3          4          5          6
     1  C    5.410846   0.231776  -0.001274  -0.041633  -0.021956   0.304264
     2  C    0.231776   5.362152   0.294230  -0.008344  -0.029414   0.021024
     3  C   -0.001274   0.294230   5.502428   0.264375  -0.048051  -0.066049
     4  C   -0.041633  -0.008344   0.264375   5.291623   0.418642  -0.022182
     5  C   -0.021956  -0.029414  -0.048051   0.418642   5.070912   0.393673
     6  C    0.304264   0.021024  -0.066049  -0.022182   0.393673   4.868184
     7  H    0.450795  -0.033996   0.008905  -0.000545   0.003690  -0.073003
     8  H   -0.020890   0.436686  -0.077785   0.006637  -0.001316   0.006767
     9  H   -0.003472   0.009264  -0.097314   0.450047  -0.031405   0.010668
    10  H    0.014230  -0.005895   0.013560  -0.055998   0.450443  -0.076837
    11  C    0.004339  -0.054479   0.132574  -0.029943   0.008876  -0.000845
    12  H    0.000102  -0.006012  -0.044174   0.006267  -0.000289   0.000091
    13  H   -0.000282   0.004855  -0.048628  -0.003529  -0.000255   0.000051
    14  C    0.001270  -0.000184  -0.022263  -0.008360   0.000246  -0.000263
    15  H   -0.000252  -0.003529   0.002137  -0.000156  -0.000095  -0.000002
    16  C   -0.000016   0.001472   0.009829  -0.000318  -0.000050   0.000003
    17  O   -0.090276   0.013623  -0.000643   0.002838  -0.049287   0.392477
    18  H   -0.004866   0.004585  -0.000355  -0.000745   0.002304  -0.043262
    19  O    0.000000  -0.000158   0.006444  -0.000405  -0.000004   0.000000
    20  N   -0.000055   0.003611  -0.013872   0.002980  -0.000307   0.000043
    21  H   -0.000468   0.001154  -0.001714   0.003420  -0.000198   0.000042
    22  N    0.000000  -0.000062   0.000630  -0.000032   0.000000   0.000000
    23  H   -0.000002  -0.000022  -0.000247   0.000024   0.000000   0.000000
    24  C    0.000172  -0.000887  -0.002434  -0.000036   0.000142  -0.000055
    25  C    0.000028   0.000175   0.000013  -0.000053   0.000017  -0.000002
    26  H    0.000067  -0.000010   0.000051  -0.000101   0.000005   0.000001
    27  H    0.000001   0.000009  -0.000016   0.000005   0.000001   0.000001
    28  H   -0.000019   0.000032   0.000097   0.000080   0.000158  -0.000005
    29  C    0.000000   0.000006  -0.000041   0.000002   0.000000   0.000000
    30  H    0.000000  -0.000001  -0.000007   0.000000   0.000000   0.000000
    31  H    0.000000   0.000000  -0.000002   0.000000   0.000000   0.000000
    32  H    0.000000   0.000001   0.000002   0.000000   0.000000   0.000000
    33  O   -0.000028  -0.000327   0.000026   0.000010   0.000001  -0.000001
               7          8          9         10         11         12
     1  C    0.450795  -0.020890  -0.003472   0.014230   0.004339   0.000102
     2  C   -0.033996   0.436686   0.009264  -0.005895  -0.054479  -0.006012
     3  C    0.008905  -0.077785  -0.097314   0.013560   0.132574  -0.044174
     4  C   -0.000545   0.006637   0.450047  -0.055998  -0.029943   0.006267
     5  C    0.003690  -0.001316  -0.031405   0.450443   0.008876  -0.000289
     6  C   -0.073003   0.006767   0.010668  -0.076837  -0.000845   0.000091
     7  H    0.533631  -0.006661   0.000050  -0.000228  -0.000244  -0.000016
     8  H   -0.006661   0.495992  -0.000193   0.000044   0.001922   0.000363
     9  H    0.000050  -0.000193   0.489918  -0.008829   0.006502   0.000267
    10  H   -0.000228   0.000044  -0.008829   0.537091  -0.000281   0.000014
    11  C   -0.000244   0.001922   0.006502  -0.000281   5.397732   0.438519
    12  H   -0.000016   0.000363   0.000267   0.000014   0.438519   0.471975
    13  H    0.000017   0.000191   0.002314  -0.000050   0.423116  -0.001890
    14  C    0.000046   0.000549  -0.001085   0.000027   0.181140  -0.057966
    15  H    0.000015   0.001682  -0.000010   0.000000   0.000458  -0.003228
    16  C    0.000000   0.000208   0.000007   0.000000  -0.068184   0.003363
    17  O   -0.004095  -0.000113  -0.000132   0.006225  -0.000007  -0.000001
    18  H    0.004544  -0.000006   0.000043  -0.000937  -0.000006   0.000000
    19  O    0.000000   0.000021  -0.000067   0.000000   0.013942   0.001761
    20  N   -0.000003  -0.000234  -0.000064   0.000002  -0.047401   0.003985
    21  H    0.000001   0.000065   0.000924  -0.000048   0.008565   0.000212
    22  N    0.000000  -0.000024  -0.000002   0.000000   0.006996   0.000083
    23  H    0.000000  -0.000020   0.000001   0.000000  -0.000280   0.000002
    24  C    0.000003  -0.000117  -0.000002   0.000003   0.005280   0.000024
    25  C    0.000000  -0.000010   0.000017   0.000003  -0.000344   0.000031
    26  H    0.000001   0.000006  -0.000003   0.000000   0.000067  -0.000003
    27  H    0.000000   0.000000   0.000000   0.000000  -0.000061  -0.000001
    28  H    0.000000   0.000008   0.000005   0.000007  -0.000265   0.000000
    29  C    0.000000  -0.000001   0.000000   0.000000  -0.001031   0.000007
    30  H    0.000000   0.000000   0.000000   0.000000  -0.000119  -0.000007
    31  H    0.000000   0.000000   0.000000   0.000000  -0.000016  -0.000001
    32  H    0.000000   0.000001   0.000000   0.000000   0.000062   0.000007
    33  O    0.000001  -0.000081   0.000001   0.000000   0.002513   0.000051
              13         14         15         16         17         18
     1  C   -0.000282   0.001270  -0.000252  -0.000016  -0.090276  -0.004866
     2  C    0.004855  -0.000184  -0.003529   0.001472   0.013623   0.004585
     3  C   -0.048628  -0.022263   0.002137   0.009829  -0.000643  -0.000355
     4  C   -0.003529  -0.008360  -0.000156  -0.000318   0.002838  -0.000745
     5  C   -0.000255   0.000246  -0.000095  -0.000050  -0.049287   0.002304
     6  C    0.000051  -0.000263  -0.000002   0.000003   0.392477  -0.043262
     7  H    0.000017   0.000046   0.000015   0.000000  -0.004095   0.004544
     8  H    0.000191   0.000549   0.001682   0.000208  -0.000113  -0.000006
     9  H    0.002314  -0.001085  -0.000010   0.000007  -0.000132   0.000043
    10  H   -0.000050   0.000027   0.000000   0.000000   0.006225  -0.000937
    11  C    0.423116   0.181140   0.000458  -0.068184  -0.000007  -0.000006
    12  H   -0.001890  -0.057966  -0.003228   0.003363  -0.000001   0.000000
    13  H    0.439329  -0.054550   0.005485  -0.001298   0.000000   0.000000
    14  C   -0.054550   5.631744   0.380403   0.156179   0.000001   0.000000
    15  H    0.005485   0.380403   0.456161  -0.024919   0.000000   0.000000
    16  C   -0.001298   0.156179  -0.024919   4.536514   0.000000   0.000000
    17  O    0.000000   0.000001   0.000000   0.000000   7.663760   0.359757
    18  H    0.000000   0.000000   0.000000   0.000000   0.359757   0.489926
    19  O    0.018071  -0.113353   0.002118   0.727862   0.000000   0.000000
    20  N   -0.002066   0.187695  -0.050194  -0.003307   0.000000   0.000000
    21  H    0.003134  -0.031967   0.005758   0.000393   0.000002   0.000000
    22  N    0.001154  -0.091356   0.002000   0.468716   0.000000   0.000000
    23  H   -0.000140   0.007125  -0.000313  -0.029898   0.000000   0.000000
    24  C   -0.001013  -0.056952  -0.015881   0.002573   0.000000   0.000000
    25  C   -0.000076   0.010020   0.000776  -0.001169   0.000000   0.000000
    26  H    0.000010  -0.000362   0.000180   0.000044   0.000000   0.000000
    27  H   -0.000008  -0.000415  -0.000268   0.000075   0.000000   0.000000
    28  H   -0.000004   0.000119  -0.000353   0.000213   0.000000   0.000000
    29  C   -0.000163   0.013793  -0.000768  -0.061623   0.000000   0.000000
    30  H    0.000030   0.001550   0.000161  -0.009182   0.000000   0.000000
    31  H   -0.000005   0.001007  -0.000153   0.006344   0.000000   0.000000
    32  H   -0.000036  -0.000933  -0.000345  -0.002614   0.000000   0.000000
    33  O   -0.000035   0.024565   0.019226  -0.019368   0.000000   0.000000
              19         20         21         22         23         24
     1  C    0.000000  -0.000055  -0.000468   0.000000  -0.000002   0.000172
     2  C   -0.000158   0.003611   0.001154  -0.000062  -0.000022  -0.000887
     3  C    0.006444  -0.013872  -0.001714   0.000630  -0.000247  -0.002434
     4  C   -0.000405   0.002980   0.003420  -0.000032   0.000024  -0.000036
     5  C   -0.000004  -0.000307  -0.000198   0.000000   0.000000   0.000142
     6  C    0.000000   0.000043   0.000042   0.000000   0.000000  -0.000055
     7  H    0.000000  -0.000003   0.000001   0.000000   0.000000   0.000003
     8  H    0.000021  -0.000234   0.000065  -0.000024  -0.000020  -0.000117
     9  H   -0.000067  -0.000064   0.000924  -0.000002   0.000001  -0.000002
    10  H    0.000000   0.000002  -0.000048   0.000000   0.000000   0.000003
    11  C    0.013942  -0.047401   0.008565   0.006996  -0.000280   0.005280
    12  H    0.001761   0.003985   0.000212   0.000083   0.000002   0.000024
    13  H    0.018071  -0.002066   0.003134   0.001154  -0.000140  -0.001013
    14  C   -0.113353   0.187695  -0.031967  -0.091356   0.007125  -0.056952
    15  H    0.002118  -0.050194   0.005758   0.002000  -0.000313  -0.015881
    16  C    0.727862  -0.003307   0.000393   0.468716  -0.029898   0.002573
    17  O    0.000000   0.000000   0.000002   0.000000   0.000000   0.000000
    18  H    0.000000   0.000000   0.000000   0.000000   0.000000   0.000000
    19  O    7.838327   0.000639   0.000596  -0.122941   0.003576  -0.000586
    20  N    0.000639   6.550096   0.368585  -0.006011  -0.006537   0.366067
    21  H    0.000596   0.368585   0.499791  -0.000238  -0.000359  -0.018396
    22  N   -0.122941  -0.006011  -0.000238   6.388412   0.380771   0.009334
    23  H    0.003576  -0.006537  -0.000359   0.380771   0.458101  -0.004330
    24  C   -0.000586   0.366067  -0.018396   0.009334  -0.004330   4.571059
    25  C    0.000000  -0.050240  -0.003012  -0.000005   0.001636   0.285212
    26  H    0.000000  -0.001366   0.000617  -0.000004  -0.000044  -0.023199
    27  H   -0.000002   0.000115  -0.000576   0.000159   0.000002  -0.031041
    28  H   -0.000004   0.010867  -0.001190   0.000053  -0.000208  -0.059511
    29  C    0.008952  -0.000581  -0.000011   0.292281  -0.027831   0.000103
    30  H    0.005425   0.000204   0.000008  -0.047219   0.004196  -0.000511
    31  H    0.001448  -0.000070  -0.000004  -0.026448  -0.007685   0.000062
    32  H    0.004196  -0.000064  -0.000002  -0.047595   0.000861   0.000209
    33  O    0.000028  -0.136017   0.004187  -0.014870   0.037694   0.657832
              25         26         27         28         29         30
     1  C    0.000028   0.000067   0.000001  -0.000019   0.000000   0.000000
     2  C    0.000175  -0.000010   0.000009   0.000032   0.000006  -0.000001
     3  C    0.000013   0.000051  -0.000016   0.000097  -0.000041  -0.000007
     4  C   -0.000053  -0.000101   0.000005   0.000080   0.000002   0.000000
     5  C    0.000017   0.000005   0.000001   0.000158   0.000000   0.000000
     6  C   -0.000002   0.000001   0.000001  -0.000005   0.000000   0.000000
     7  H    0.000000   0.000001   0.000000   0.000000   0.000000   0.000000
     8  H   -0.000010   0.000006   0.000000   0.000008  -0.000001   0.000000
     9  H    0.000017  -0.000003   0.000000   0.000005   0.000000   0.000000
    10  H    0.000003   0.000000   0.000000   0.000007   0.000000   0.000000
    11  C   -0.000344   0.000067  -0.000061  -0.000265  -0.001031  -0.000119
    12  H    0.000031  -0.000003  -0.000001   0.000000   0.000007  -0.000007
    13  H   -0.000076   0.000010  -0.000008  -0.000004  -0.000163   0.000030
    14  C    0.010020  -0.000362  -0.000415   0.000119   0.013793   0.001550
    15  H    0.000776   0.000180  -0.000268  -0.000353  -0.000768   0.000161
    16  C   -0.001169   0.000044   0.000075   0.000213  -0.061623  -0.009182
    17  O    0.000000   0.000000   0.000000   0.000000   0.000000   0.000000
    18  H    0.000000   0.000000   0.000000   0.000000   0.000000   0.000000
    19  O    0.000000   0.000000  -0.000002  -0.000004   0.008952   0.005425
    20  N   -0.050240  -0.001366   0.000115   0.010867  -0.000581   0.000204
    21  H   -0.003012   0.000617  -0.000576  -0.001190  -0.000011   0.000008
    22  N   -0.000005  -0.000004   0.000159   0.000053   0.292281  -0.047219
    23  H    0.001636  -0.000044   0.000002  -0.000208  -0.027831   0.004196
    24  C    0.285212  -0.023199  -0.031041  -0.059511   0.000103  -0.000511
    25  C    4.938110   0.386421   0.390155   0.405384  -0.000037  -0.000005
    26  H    0.386421   0.568931  -0.026218  -0.025289  -0.000001   0.000000
    27  H    0.390155  -0.026218   0.574938  -0.024719   0.000009  -0.000008
    28  H    0.405384  -0.025289  -0.024719   0.590317   0.000000  -0.000001
    29  C   -0.000037  -0.000001   0.000009   0.000000   4.763417   0.399168
    30  H   -0.000005   0.000000  -0.000008  -0.000001   0.399168   0.622938
    31  H   -0.000011   0.000000   0.000008   0.000000   0.395966  -0.027317
    32  H    0.000001   0.000000   0.000001   0.000000   0.399805  -0.058495
    33  O   -0.057730   0.001369   0.002301   0.003828   0.000135  -0.000016
              31         32         33
     1  C    0.000000   0.000000  -0.000028
     2  C    0.000000   0.000001  -0.000327
     3  C   -0.000002   0.000002   0.000026
     4  C    0.000000   0.000000   0.000010
     5  C    0.000000   0.000000   0.000001
     6  C    0.000000   0.000000  -0.000001
     7  H    0.000000   0.000000   0.000001
     8  H    0.000000   0.000001  -0.000081
     9  H    0.000000   0.000000   0.000001
    10  H    0.000000   0.000000   0.000000
    11  C   -0.000016   0.000062   0.002513
    12  H   -0.000001   0.000007   0.000051
    13  H   -0.000005  -0.000036  -0.000035
    14  C    0.001007  -0.000933   0.024565
    15  H   -0.000153  -0.000345   0.019226
    16  C    0.006344  -0.002614  -0.019368
    17  O    0.000000   0.000000   0.000000
    18  H    0.000000   0.000000   0.000000
    19  O    0.001448   0.004196   0.000028
    20  N   -0.000070  -0.000064  -0.136017
    21  H   -0.000004  -0.000002   0.004187
    22  N   -0.026448  -0.047595  -0.014870
    23  H   -0.007685   0.000861   0.037694
    24  C    0.000062   0.000209   0.657832
    25  C   -0.000011   0.000001  -0.057730
    26  H    0.000000   0.000000   0.001369
    27  H    0.000008   0.000001   0.002301
    28  H    0.000000   0.000000   0.003828
    29  C    0.395966   0.399805   0.000135
    30  H   -0.027317  -0.058495  -0.000016
    31  H    0.593697  -0.028132   0.000174
    32  H   -0.028132   0.623151  -0.000056
    33  O    0.000174  -0.000056   7.904698
 Mulliken charges:
               1
     1  C   -0.232401
     2  C   -0.241334
     3  C    0.189570
     4  C   -0.274569
     5  C   -0.166485
     6  C    0.285215
     7  H    0.117095
     8  H    0.156310
     9  H    0.172549
    10  H    0.127453
    11  C   -0.429098
    12  H    0.186463
    13  H    0.216271
    14  C   -0.157470
    15  H    0.223902
    16  C    0.308151
    17  O   -0.294129
    18  H    0.189019
    19  O   -0.395889
    20  N   -0.176499
    21  H    0.160729
    22  N   -0.193781
    23  H    0.183924
    24  C    0.316874
    25  C   -0.305305
    26  H    0.118829
    27  H    0.115552
    28  H    0.100402
    29  C   -0.181557
    30  H    0.109208
    31  H    0.091137
    32  H    0.109973
    33  O   -0.430109
 Sum of Mulliken charges =   0.00000
 Mulliken charges with hydrogens summed into heavy atoms:
               1
     1  C   -0.115306
     2  C   -0.085025
     3  C    0.189570
     4  C   -0.102020
     5  C   -0.039032
     6  C    0.285215
    11  C   -0.026364
    14  C    0.066432
    16  C    0.308151
    17  O   -0.105110
    19  O   -0.395889
    20  N   -0.015770
    22  N   -0.009857
    24  C    0.316874
    25  C    0.029478
    29  C    0.128761
    33  O   -0.430109
 Electronic spatial extent (au):  <R**2>=           5097.5581
 Charge=              0.0000 electrons
 Dipole moment (field-independent basis, Debye):
    X=             -1.9706    Y=              2.3435    Z=              0.1995  Tot=              3.0684
 Quadrupole moment (field-independent basis, Debye-Ang):
   XX=            -96.2204   YY=           -108.0598   ZZ=            -94.0708
   XY=              2.8131   XZ=             -6.2366   YZ=             -7.4691
 Traceless Quadrupole moment (field-independent basis, Debye-Ang):
   XX=              3.2299   YY=             -8.6095   ZZ=              5.3795
   XY=              2.8131   XZ=             -6.2366   YZ=             -7.4691
 Octapole moment (field-independent basis, Debye-Ang**2):
  XXX=             34.0822  YYY=             34.3665  ZZZ=             -1.0219  XYY=            -18.2833
  XXY=             33.3153  XXZ=             56.1035  XZZ=            -23.0299  YZZ=             -0.6213
  YYZ=             -5.8660  XYZ=            -24.4124
 Hexadecapole moment (field-independent basis, Debye-Ang**3):
 XXXX=          -4491.2845 YYYY=          -1253.8947 ZZZZ=           -462.9044 XXXY=            -31.6255
 XXXZ=           -211.1128 YYYX=              7.9260 YYYZ=            -44.0659 ZZZX=            -19.3778
 ZZZY=              4.3634 XXYY=          -1112.7379 XXZZ=           -803.3523 YYZZ=           -302.4524
 XXYZ=              8.6125 YYXZ=             -7.4989 ZZXY=            -15.7343
 N-N= 1.209280760090D+03 E-N=-4.288795030651D+03  KE= 7.962006006015D+02
 Calculating spin-rotation constants.
 Leave Link  601 at Tue Jun 24 17:40:41 2014, MaxMem=  4294967296 cpu:        92.1
 (Enter /home/ztw1e12/g09/l9999.exe)

 Test job not archived.
 1\1\GINC-GREEN0087\SP\RM06\Gen\C12H16N2O3\ROOT\24-Jun-2014\0\\#P Geom=
 AllCheck Guess=TCheck SCRF=Check GenChk RM06/ChkBas NMR=ReadFC IOp(3/6
 =22)\\NMR spin-spin scan\\0,1\C,0,3.195989,-0.320261,-1.208831\C,0,1.9
 17462,-0.832157,-1.086799\C,0,1.335034,-1.033486,0.1598\C,0,2.077529,-
 0.707449,1.287341\C,0,3.359426,-0.195985,1.184085\C,0,3.918969,0.00096
 9,-0.068252\H,0,3.644232,-0.168051,-2.184149\H,0,1.357926,-1.083315,-1
 .981706\H,0,1.641458,-0.856741,2.269235\H,0,3.934371,0.055484,2.066263
 \C,0,-0.064892,-1.554961,0.274662\H,0,-0.199149,-2.454935,-0.328969\H,
 0,-0.261266,-1.838066,1.312132\C,0,-1.116489,-0.546916,-0.161966\H,0,-
 1.042388,-0.400229,-1.244372\C,0,-2.534312,-1.040486,0.12464\O,0,5.181
 676,0.511164,-0.128618\H,0,5.444239,0.606876,-1.051048\O,0,-2.764127,-
 2.041808,0.798021\N,0,-0.872501,0.752671,0.443387\H,0,-0.357376,0.7779
 27,1.311529\N,0,-3.499242,-0.29771,-0.423791\H,0,-3.221699,0.526071,-0
 .944082\C,0,-1.172594,1.916663,-0.155545\C,0,-0.717119,3.156397,0.5387
 43\H,0,-0.02593,3.686046,-0.117103\H,0,-1.575483,3.807663,0.700239\H,0
 ,-0.227412,2.961141,1.490171\C,0,-4.897014,-0.598264,-0.220481\H,0,-5.
 148765,-0.60978,0.840605\H,0,-5.495553,0.162497,-0.712178\H,0,-5.15753
 5,-1.570579,-0.640522\O,0,-1.786619,1.967144,-1.22357\\Version=EM64L-G
 09RevD.01\State=1-A\HF=-801.8704257\RMSD=3.993e-09\Dipole=0.7567548,0.
 9255604,-0.1673879\Quadrupole=2.6134548,-5.2237476,2.6102928,-2.472857
 5,-4.5342927,6.3982205\PG=C01 [X(C12H16N2O3)]\\@


 NO HUMAN INVESTIGATION CAN BECOME REAL SCIENCE
 WITHOUT GOING THROUGH MATHEMATICAL PEOPLE.
 -- LEONARDO DA VINCI, IN "PENSIERI" CA. 1492
 Job cpu time:       3 days  7 hours 21 minutes 25.3 seconds.
 File lengths (MBytes):  RWF=   3656 Int=      0 D2E=      0 Chk=     64 Scr=      8
 Normal termination of Gaussian 09 at Tue Jun 24 17:40:42 2014.
