 Entering Gaussian System, Link 0=g09
 Input=scan_input_22.gjf
 Output=scan_input_22.log
 Initial command:
 /home/ztw1e12/g09/l1.exe "/home/ztw1e12/tyrosine_scan/tyrosine_chi1_scan/Gau-27345.inp" -scrdir="/home/ztw1e12/tyrosine_scan/tyrosine_chi1_scan/"
 Default is to use a total of   8 processors:
                                8 via shared-memory
                                1 via Linda
 Entering Link 1 = /home/ztw1e12/g09/l1.exe PID=     27346.
  
 Copyright (c) 1988,1990,1992,1993,1995,1998,2003,2009,2013,
            Gaussian, Inc.  All Rights Reserved.
  
 This is part of the Gaussian(R) 09 program.  It is based on
 the Gaussian(R) 03 system (copyright 2003, Gaussian, Inc.),
 the Gaussian(R) 98 system (copyright 1998, Gaussian, Inc.),
 the Gaussian(R) 94 system (copyright 1995, Gaussian, Inc.),
 the Gaussian 92(TM) system (copyright 1992, Gaussian, Inc.),
 the Gaussian 90(TM) system (copyright 1990, Gaussian, Inc.),
 the Gaussian 88(TM) system (copyright 1988, Gaussian, Inc.),
 the Gaussian 86(TM) system (copyright 1986, Carnegie Mellon
 University), and the Gaussian 82(TM) system (copyright 1983,
 Carnegie Mellon University). Gaussian is a federally registered
 trademark of Gaussian, Inc.
  
 This software contains proprietary and confidential information,
 including trade secrets, belonging to Gaussian, Inc.
  
 This software is provided under written license and may be
 used, copied, transmitted, or stored only in accord with that
 written license.
  
 The following legend is applicable only to US Government
 contracts under FAR:
  
                    RESTRICTED RIGHTS LEGEND
  
 Use, reproduction and disclosure by the US Government is
 subject to restrictions as set forth in subparagraphs (a)
 and (c) of the Commercial Computer Software - Restricted
 Rights clause in FAR 52.227-19.
  
 Gaussian, Inc.
 340 Quinnipiac St., Bldg. 40, Wallingford CT 06492
  
  
 ---------------------------------------------------------------
 Warning -- This program may not be used in any manner that
 competes with the business of Gaussian, Inc. or will provide
 assistance to any competitor of Gaussian, Inc.  The licensee
 of this program is prohibited from giving any competitor of
 Gaussian, Inc. access to this program.  By using this program,
 the user acknowledges that Gaussian, Inc. is engaged in the
 business of creating and licensing software in the field of
 computational chemistry and represents and warrants to the
 licensee that it is not a competitor of Gaussian, Inc. and that
 it will not use this program in any manner prohibited above.
 ---------------------------------------------------------------
  

 Cite this work as:
 Gaussian 09, Revision D.01,
 M. J. Frisch, G. W. Trucks, H. B. Schlegel, G. E. Scuseria, 
 M. A. Robb, J. R. Cheeseman, G. Scalmani, V. Barone, B. Mennucci, 
 G. A. Petersson, H. Nakatsuji, M. Caricato, X. Li, H. P. Hratchian, 
 A. F. Izmaylov, J. Bloino, G. Zheng, J. L. Sonnenberg, M. Hada, 
 M. Ehara, K. Toyota, R. Fukuda, J. Hasegawa, M. Ishida, T. Nakajima, 
 Y. Honda, O. Kitao, H. Nakai, T. Vreven, J. A. Montgomery, Jr., 
 J. E. Peralta, F. Ogliaro, M. Bearpark, J. J. Heyd, E. Brothers, 
 K. N. Kudin, V. N. Staroverov, T. Keith, R. Kobayashi, J. Normand, 
 K. Raghavachari, A. Rendell, J. C. Burant, S. S. Iyengar, J. Tomasi, 
 M. Cossi, N. Rega, J. M. Millam, M. Klene, J. E. Knox, J. B. Cross, 
 V. Bakken, C. Adamo, J. Jaramillo, R. Gomperts, R. E. Stratmann, 
 O. Yazyev, A. J. Austin, R. Cammi, C. Pomelli, J. W. Ochterski, 
 R. L. Martin, K. Morokuma, V. G. Zakrzewski, G. A. Voth, 
 P. Salvador, J. J. Dannenberg, S. Dapprich, A. D. Daniels, 
 O. Farkas, J. B. Foresman, J. V. Ortiz, J. Cioslowski, 
 and D. J. Fox, Gaussian, Inc., Wallingford CT, 2013.
 
 ******************************************
 Gaussian 09:  EM64L-G09RevD.01 24-Apr-2013
                24-Jun-2014 
 ******************************************
 %Mem=32GB
 %NProcShared=16
 Will use up to   16 processors via shared memory.
 Default route:  MaxDisk=100GB
 ----------------------------------------------------------------------
 #p nmr=(giao,mixed,spinspin) m06/cc-pvtz scf=tight integral=(grid=ultr
 afine)
 ----------------------------------------------------------------------
 1/38=1/1;
 2/12=2,17=6,18=5,40=1/2;
 3/5=16,6=1,10=1100000,11=2,16=1,25=1,30=1,74=-54,75=-5/1,2,8,3;
 4//1;
 5/5=2,32=2,38=5/2;
 8/6=1,10=90,11=11/1;
 10/13=100,45=16,47=3/2;
 6/7=2,8=2,9=2,10=2,28=1/1;
 99/9=1/99;
 Leave Link    1 at Tue Jun 24 16:42:42 2014, MaxMem=  4294967296 cpu:         6.0
 (Enter /home/ztw1e12/g09/l101.exe)
 ------------------
 NMR spin-spin scan
 ------------------
 Symbolic Z-matrix:
 Charge =  0 Multiplicity = 1
 C                     2.60208  -1.07375   1.98817 
 C                     2.02323  -0.23612   1.04882 
 C                     1.42592  -0.74242  -0.09652 
 C                     1.42821  -2.12147  -0.28257 
 C                     2.0007   -2.97077   0.64318 
 C                     2.58816  -2.44471   1.78602 
 H                     3.06987  -0.66886   2.87816 
 H                     2.04183   0.83566   1.21291 
 H                     0.96642  -2.53659  -1.17207 
 H                     2.002    -4.04316   0.4948 
 C                     0.73839   0.15149  -1.0803 
 H                     1.04628   1.1888   -0.9137 
 H                     1.01354  -0.11001  -2.10526 
 C                    -0.78946   0.09263  -0.98608 
 H                    -1.14176  -0.89156  -1.30857 
 C                    -1.23216   0.22713   0.46332 
 O                     3.14125  -3.32011   2.67145 
 H                     3.51629  -2.83465   3.41494 
 O                    -1.44773  -0.77338   1.14476 
 N                    -1.34266   1.11944  -1.83986 
 H                    -0.71099   1.70737  -2.36224 
 N                    -1.3043    1.46498   0.95674 
 H                    -1.13832   2.24628   0.3424 
 C                    -2.6675    1.21371  -2.06475 
 C                    -3.1048    2.25032  -3.04513 
 H                    -3.65231   1.7592   -3.84938 
 H                    -3.79456   2.93529  -2.55264 
 H                    -2.27736   2.81549  -3.46879 
 C                    -1.60719   1.70336   2.34934 
 H                    -0.8692    1.2222    2.99347 
 H                    -1.59114   2.77281   2.53566 
 H                    -2.5926    1.31709   2.61163 
 O                    -3.46929   0.48184  -1.48903 
 
 NAtoms=     33 NQM=       33 NQMF=       0 NMMI=      0 NMMIF=      0
                NMic=       0 NMicF=      0.
                    Isotopes and Nuclear Properties:
 (Nuclear quadrupole moments (NQMom) in fm**2, nuclear magnetic moments (NMagM)
  in nuclear magnetons)

  Atom         1           2           3           4           5           6           7           8           9          10
 IAtWgt=          12          12          12          12          12          12           1           1           1           1
 AtmWgt=  12.0000000  12.0000000  12.0000000  12.0000000  12.0000000  12.0000000   1.0078250   1.0078250   1.0078250   1.0078250
 NucSpn=           0           0           0           0           0           0           1           1           1           1
 AtZEff=   0.0000000   0.0000000   0.0000000   0.0000000   0.0000000   0.0000000   0.0000000   0.0000000   0.0000000   0.0000000
 NQMom=    0.0000000   0.0000000   0.0000000   0.0000000   0.0000000   0.0000000   0.0000000   0.0000000   0.0000000   0.0000000
 NMagM=    0.0000000   0.0000000   0.0000000   0.0000000   0.0000000   0.0000000   2.7928460   2.7928460   2.7928460   2.7928460
 AtZNuc=   6.0000000   6.0000000   6.0000000   6.0000000   6.0000000   6.0000000   1.0000000   1.0000000   1.0000000   1.0000000

  Atom        11          12          13          14          15          16          17          18          19          20
 IAtWgt=          12           1           1          12           1          12          16           1          16          14
 AtmWgt=  12.0000000   1.0078250   1.0078250  12.0000000   1.0078250  12.0000000  15.9949146   1.0078250  15.9949146  14.0030740
 NucSpn=           0           1           1           0           1           0           0           1           0           2
 AtZEff=   0.0000000   0.0000000   0.0000000   0.0000000   0.0000000   0.0000000   0.0000000   0.0000000   0.0000000   0.0000000
 NQMom=    0.0000000   0.0000000   0.0000000   0.0000000   0.0000000   0.0000000   0.0000000   0.0000000   0.0000000   2.0440000
 NMagM=    0.0000000   2.7928460   2.7928460   0.0000000   2.7928460   0.0000000   0.0000000   2.7928460   0.0000000   0.4037610
 AtZNuc=   6.0000000   1.0000000   1.0000000   6.0000000   1.0000000   6.0000000   8.0000000   1.0000000   8.0000000   7.0000000

  Atom        21          22          23          24          25          26          27          28          29          30
 IAtWgt=           1          14           1          12          12           1           1           1          12           1
 AtmWgt=   1.0078250  14.0030740   1.0078250  12.0000000  12.0000000   1.0078250   1.0078250   1.0078250  12.0000000   1.0078250
 NucSpn=           1           2           1           0           0           1           1           1           0           1
 AtZEff=   0.0000000   0.0000000   0.0000000   0.0000000   0.0000000   0.0000000   0.0000000   0.0000000   0.0000000   0.0000000
 NQMom=    0.0000000   2.0440000   0.0000000   0.0000000   0.0000000   0.0000000   0.0000000   0.0000000   0.0000000   0.0000000
 NMagM=    2.7928460   0.4037610   2.7928460   0.0000000   0.0000000   2.7928460   2.7928460   2.7928460   0.0000000   2.7928460
 AtZNuc=   1.0000000   7.0000000   1.0000000   6.0000000   6.0000000   1.0000000   1.0000000   1.0000000   6.0000000   1.0000000

  Atom        31          32          33
 IAtWgt=           1           1          16
 AtmWgt=   1.0078250   1.0078250  15.9949146
 NucSpn=           1           1           0
 AtZEff=   0.0000000   0.0000000   0.0000000
 NQMom=    0.0000000   0.0000000   0.0000000
 NMagM=    2.7928460   2.7928460   0.0000000
 AtZNuc=   1.0000000   1.0000000   8.0000000
 Leave Link  101 at Tue Jun 24 16:42:42 2014, MaxMem=  4294967296 cpu:         1.5
 (Enter /home/ztw1e12/g09/l202.exe)
                          Input orientation:                          
 ---------------------------------------------------------------------
 Center     Atomic      Atomic             Coordinates (Angstroms)
 Number     Number       Type             X           Y           Z
 ---------------------------------------------------------------------
      1          6           0        2.602080   -1.073746    1.988167
      2          6           0        2.023232   -0.236117    1.048820
      3          6           0        1.425924   -0.742418   -0.096519
      4          6           0        1.428211   -2.121473   -0.282570
      5          6           0        2.000705   -2.970774    0.643180
      6          6           0        2.588158   -2.444710    1.786018
      7          1           0        3.069866   -0.668855    2.878158
      8          1           0        2.041825    0.835658    1.212911
      9          1           0        0.966416   -2.536591   -1.172073
     10          1           0        2.002002   -4.043159    0.494803
     11          6           0        0.738392    0.151489   -1.080300
     12          1           0        1.046283    1.188804   -0.913701
     13          1           0        1.013535   -0.110008   -2.105264
     14          6           0       -0.789458    0.092628   -0.986081
     15          1           0       -1.141762   -0.891559   -1.308565
     16          6           0       -1.232155    0.227129    0.463321
     17          8           0        3.141248   -3.320108    2.671449
     18          1           0        3.516291   -2.834648    3.414935
     19          8           0       -1.447728   -0.773382    1.144760
     20          7           0       -1.342660    1.119440   -1.839858
     21          1           0       -0.710986    1.707372   -2.362235
     22          7           0       -1.304300    1.464975    0.956738
     23          1           0       -1.138323    2.246276    0.342404
     24          6           0       -2.667495    1.213708   -2.064751
     25          6           0       -3.104801    2.250322   -3.045133
     26          1           0       -3.652309    1.759200   -3.849379
     27          1           0       -3.794555    2.935294   -2.552639
     28          1           0       -2.277357    2.815487   -3.468790
     29          6           0       -1.607193    1.703364    2.349342
     30          1           0       -0.869204    1.222195    2.993469
     31          1           0       -1.591143    2.772811    2.535658
     32          1           0       -2.592603    1.317086    2.611627
     33          8           0       -3.469291    0.481842   -1.489032
 ---------------------------------------------------------------------
                    Distance matrix (angstroms):
                    1          2          3          4          5
     1  C    0.000000
     2  C    1.385301   0.000000
     3  C    2.416410   1.387414   0.000000
     4  C    2.762598   2.383530   1.391551   0.000000
     5  C    2.401949   2.764670   2.417250   1.380607   0.000000
     6  C    1.385857   2.395931   2.791511   2.393536   1.388497
     7  H    1.083902   2.151553   3.399509   3.846470   3.381873
     8  H    2.135587   1.084423   2.141090   3.370105   3.849053
     9  H    3.847393   3.367700   2.141733   1.084801   2.133873
    10  H    3.377520   3.847201   3.402414   2.150912   1.082602
    11  C    3.793418   2.516784   1.496528   2.505709   3.783166
    12  H    3.995056   2.614635   2.131087   3.391479   4.542784
    13  H    4.495380   3.314157   2.145941   2.745935   4.088084
    14  C    4.659304   3.487136   2.529138   3.211733   4.452408
    15  H    4.991792   4.000507   2.843292   3.028220   4.243529
    16  C    4.326522   3.339903   2.884238   3.626270   4.550859
    17  O    2.409091   3.659766   4.153128   3.619040   2.353029
    18  H    2.443814   3.818388   4.591010   4.305838   3.161986
    19  O    4.147590   3.513605   3.130433   3.482190   4.119685
    20  N    5.918177   4.638019   3.764413   4.539426   5.837244
    21  H    6.134902   4.784182   3.962490   4.853991   6.186343
    22  N    4.771662   3.738270   3.665523   4.676014   5.540510
    23  H    5.265140   4.081266   3.962361   5.104402   6.096029
    24  C    7.030435   5.813711   4.945346   5.574442   6.828973
    25  C    8.303736   7.017090   6.178858   6.876957   8.181057
    26  H    9.012209   7.757926   6.791944   7.320754   8.632051
    27  H    8.809555   7.541552   6.841892   7.615864   8.870171
    28  H    8.289356   6.943785   6.143711   6.946712   8.287999
    29  C    5.055766   4.316588   4.600422   5.547073   6.146176
    30  H    4.281564   3.778164   4.321498   5.214467   5.598323
    31  H    5.716543   4.932346   5.328028   6.404133   7.033606
    32  H    5.752348   5.114757   5.265375   6.030507   6.584756
    33  O    7.167448   6.092944   5.234600   5.676119   6.810855
                    6          7          8          9         10
     6  C    0.000000
     7  H    2.139737   0.000000
     8  H    3.374573   2.468497   0.000000
     9  H    3.374728   4.931259   4.268105   0.000000
    10  H    2.136786   4.266924   4.931543   2.473997   0.000000
    11  C    4.286918   4.666704   2.725040   2.699295   4.655398
    12  H    4.782080   4.682305   2.374509   3.735198   5.501883
    13  H    4.803368   5.419899   3.600271   2.600264   4.817374
    14  C    5.052812   5.514216   3.661123   3.167093   5.204806
    15  H    5.089305   5.942731   4.413201   2.677531   4.802913
    16  C    4.845931   5.014141   3.413376   3.891835   5.356876
    17  O    1.362431   2.660257   4.539433   4.485137   2.560951
    18  H    1.914903   2.275540   4.527042   5.256552   3.504389
    19  O    4.415079   4.839861   3.843258   3.782157   4.797345
    20  N    6.426622   6.702840   4.566691   4.375424   6.579501
    21  H    6.732915   6.884985   4.595598   4.716077   6.970766
    22  N    5.578940   5.232439   3.414413   5.069568   6.440851
    23  H    6.162470   5.712871   3.586219   5.440532   7.031491
    24  C    7.472237   7.803442   5.750103   5.297823   7.482658
    25  C    8.820041   9.040657   6.827882   6.557263   8.844122
    26  H    9.400744   9.815439   7.674821   6.852329   9.192960
    27  H    9.407838   9.465924   7.256113   7.383382   9.570046
    28  H    8.885714   9.000954   6.670336   6.666462   9.003555
    29  C    5.926620   5.270859   3.919148   6.082848   7.034780
    30  H    5.182420   4.371000   3.434223   5.903365   6.497008
    31  H    6.726890   5.804083   4.324428   6.962624   7.970773
    32  H    6.455465   6.006543   4.864782   6.467908   7.370452
    33  O    7.482202   7.947140   6.148014   5.374653   7.371993
                   11         12         13         14         15
    11  C    0.000000
    12  H    1.094794   0.000000
    13  H    1.092994   1.762897   0.000000
    14  C    1.531884   2.139342   2.131764   0.000000
    15  H    2.162182   3.044892   2.427109   1.093955   0.000000
    16  C    2.504305   2.830599   3.428471   1.521459   2.097430
    17  O    5.648126   6.129638   6.135869   6.361976   6.331077
    18  H    6.069668   6.405169   6.645303   6.817431   6.912634
    19  O    3.253521   3.782529   4.130440   2.392441   2.475153
    20  N    2.417568   2.563128   2.670887   1.445445   2.089677
    21  H    2.482907   2.335628   2.518507   2.123053   2.837293
    22  N    3.169757   3.016629   4.150757   2.433710   3.272807
    23  H    3.151869   2.732865   4.021647   2.554365   3.545662
    24  C    3.701016   3.888147   3.912013   2.438723   2.707735
    25  C    4.799563   4.785532   4.838926   3.775732   4.091529
    26  H    5.434224   5.569589   5.320336   4.378568   4.448045
    27  H    5.519507   5.400931   5.708917   4.423286   4.819734
    28  H    4.679371   4.496794   4.609522   3.973871   4.438281
    29  C    4.435373   4.237117   5.477230   3.793179   4.508939
    30  H    4.508478   4.351572   5.596119   4.137523   4.801015
    31  H    5.037183   4.622031   6.052533   4.497636   5.329878
    32  H    5.107296   5.068124   6.106545   4.206439   4.727680
    33  O    4.240376   4.606648   4.563525   2.754261   2.708540
                   16         17         18         19         20
    16  C    0.000000
    17  O    6.048584   0.000000
    18  H    6.374499   0.963898   0.000000
    19  O    1.229574   5.465830   5.834723   0.000000
    20  N    2.472461   7.756733   8.176617   3.535783   0.000000
    21  H    3.232105   8.090317   8.477943   4.358434   1.008739
    22  N    1.334514   6.752788   6.911410   2.250815   2.818123
    23  H    2.024939   7.397554   7.544645   3.139720   2.464504
    24  C    3.069965   8.759485   9.200834   3.967029   1.347090
    25  C    4.461991  10.135193  10.555958   5.426222   2.415931
    26  H    5.177236  10.699205  11.192074   6.017938   3.127610
    27  H    4.795421  10.701706  11.061313   5.738696   3.133237
    28  H    4.822193  10.232758  10.624314   5.903652   2.530544
    29  C    2.424252   6.920023   6.926697   2.758753   4.237964
    30  H    2.742907   6.067944   5.989005   2.781141   4.857548
    31  H    3.302113   7.716063   7.635614   3.811909   4.684071
    32  H    2.766594   7.374564   7.429723   2.798659   4.627866
    33  O    2.980157   8.686982   9.156765   3.549530   2.247703
                   21         22         23         24         25
    21  H    0.000000
    22  N    3.380290   0.000000
    23  H    2.790718   1.007664   0.000000
    24  C    2.039639   3.324279   3.032979   0.000000
    25  C    2.547841   4.457975   3.916945   1.492298   0.000000
    26  H    3.296311   5.357096   4.912068   2.110051   1.089852
    27  H    3.324522   4.547410   3.988933   2.114748   1.089724
    28  H    2.214927   4.728215   4.018283   2.165463   1.087916
    29  C    4.796057   1.444963   2.131289   4.565985   5.625154
    30  H    5.379962   2.096789   2.854700   5.368381   6.520710
    31  H    5.089125   2.070194   2.300576   4.975249   5.805978
    32  H    5.332177   2.102440   2.850912   4.678120   5.756059
    33  O    3.142078   3.411089   3.449753   1.228803   2.383658
                   26         27         28         29         30
    26  H    0.000000
    27  H    1.756407   0.000000
    28  H    1.775129   1.776394   0.000000
    29  C    6.527615   5.507415   5.961258   0.000000
    30  H    7.406660   6.500131   6.803107   1.091353   0.000000
    31  H    6.785611   5.547269   6.043683   1.085674   1.770649
    32  H    6.562244   5.543729   6.270252   1.090430   1.767742
    33  O    2.690051   2.693786   3.284212   4.437639   5.234634
                   31         32         33
    31  H    0.000000
    32  H    1.768567   0.000000
    33  O    4.997410   4.275701   0.000000
 Stoichiometry    C12H16N2O3
 Framework group  C1[X(C12H16N2O3)]
 Deg. of freedom    93
 Full point group                 C1      NOp   1
 Largest Abelian subgroup         C1      NOp   1
 Largest concise Abelian subgroup C1      NOp   1
                         Standard orientation:                         
 ---------------------------------------------------------------------
 Center     Atomic      Atomic             Coordinates (Angstroms)
 Number     Number       Type             X           Y           Z
 ---------------------------------------------------------------------
      1          6           0        3.268040    0.538686   -0.845540
      2          6           0        1.978868    0.217178   -1.237625
      3          6           0        1.285057   -0.827403   -0.643996
      4          6           0        1.922906   -1.553008    0.357531
      5          6           0        3.207334   -1.246411    0.760419
      6          6           0        3.882595   -0.193290    0.158021
      7          1           0        3.803757    1.354079   -1.317753
      8          1           0        1.506747    0.792619   -2.026259
      9          1           0        1.397048   -2.373764    0.833585
     10          1           0        3.701275   -1.813756    1.538988
     11          6           0       -0.131801   -1.135403   -1.014461
     12          1           0       -0.378401   -0.649830   -1.964188
     13          1           0       -0.275759   -2.210308   -1.150443
     14          6           0       -1.146551   -0.665334    0.032432
     15          1           0       -1.032048   -1.253226    0.947860
     16          6           0       -0.857887    0.773141    0.435298
     17          8           0        5.148092    0.072722    0.586940
     18          1           0        5.507234    0.818204    0.092599
     19          8           0       -0.169903    1.017399    1.424676
     20          7           0       -2.476756   -0.841923   -0.504861
     21          1           0       -2.577713   -1.227966   -1.431323
     22          7           0       -1.328426    1.728062   -0.369467
     23          1           0       -1.905631    1.466261   -1.152845
     24          6           0       -3.575583   -0.642450    0.248425
     25          6           0       -4.887230   -0.956716   -0.390147
     26          1           0       -5.394674   -1.711010    0.210950
     27          1           0       -5.508805   -0.061687   -0.382070
     28          1           0       -4.790691   -1.318719   -1.411515
     29          6           0       -1.020970    3.121694   -0.143235
     30          1           0        0.057385    3.288240   -0.164778
     31          1           0       -1.483337    3.716256   -0.925157
     32          1           0       -1.399050    3.458520    0.822498
     33          8           0       -3.495655   -0.222745    1.400560
 ---------------------------------------------------------------------
 Rotational constants (GHZ):      0.9918735      0.2443537      0.2228198
 Leave Link  202 at Tue Jun 24 16:42:42 2014, MaxMem=  4294967296 cpu:         1.8
 (Enter /home/ztw1e12/g09/l301.exe)
 Standard basis: CC-pVTZ (5D, 7F)
 Converting basis for Fermi contact spin-spin IFCMod=1.
 AO basis functions are being uncontracted.
 Ernie: Thresh=  0.10000D-02 Tol=  0.10000D-05 Strict=F.
 There are  1305 symmetry adapted cartesian basis functions of A   symmetry.
 There are  1204 symmetry adapted basis functions of A   symmetry.
  1204 basis functions,  1305 primitive gaussians,  1305 cartesian basis functions
    63 alpha electrons       63 beta electrons
       nuclear repulsion energy      1222.0583088259 Hartrees.
 IExCor= 4235 DFT=T Ex+Corr=M06 ExCW=0 ScaHFX=  0.270000
 ScaDFX=  1.000000  1.000000  1.000000  1.000000 ScalE2=  1.000000  1.000000
 IRadAn= 199590 IRanWt=     -1 IRanGd=            0 ICorTp=0 IEmpDi=  4
 NAtoms=   33 NActive=   33 NUniq=   33 SFac= 1.00D+00 NAtFMM=   60 NAOKFM=F Big=F
 Integral buffers will be    131072 words long.
 Raffenetti 2 integral format.
 Two-electron integral symmetry is turned on.
 Leave Link  301 at Tue Jun 24 16:42:42 2014, MaxMem=  4294967296 cpu:         5.9
 (Enter /home/ztw1e12/g09/l302.exe)
 NPDir=0 NMtPBC=     1 NCelOv=     1 NCel=       1 NClECP=     1 NCelD=      1
         NCelK=      1 NCelE2=     1 NClLst=     1 CellRange=     0.0.
 One-electron integrals computed using PRISM.
 GSVD:  received Info=                   1 from GESDD.
 NBasis=  1204 RedAO= T EigKep=  2.52D-05  NBF=  1204
 NBsUse=  1068 1.00D-06 EigRej=  6.41D-15 NBFU=  1068
 Precomputing XC quadrature grid using
 IXCGrd= 4 IRadAn=      199590 IRanWt=          -1 IRanGd=           0 AccXCQ= 0.00D+00.
 Generated NRdTot=       0 NPtTot=           0 NUsed=           0 NTot=          32
 NSgBfM=   985   988   991   991   993 MxSgAt=    33 MxSgA2=    33.
 Leave Link  302 at Tue Jun 24 16:42:48 2014, MaxMem=  4294967296 cpu:        92.0
 (Enter /home/ztw1e12/g09/l308.exe)
 Leave Link  308 at Tue Jun 24 16:42:49 2014, MaxMem=  4294967296 cpu:         7.3
 (Enter /home/ztw1e12/g09/l303.exe)
 DipDrv:  MaxL=1.
 Leave Link  303 at Tue Jun 24 16:42:49 2014, MaxMem=  4294967296 cpu:         4.2
 (Enter /home/ztw1e12/g09/l401.exe)
 ExpMin= 1.03D-01 ExpMax= 1.38D+05 ExpMxC= 1.38D+05 IAcc=4 IRadAn=    199590 AccDes= 0.00D+00
 Harris functional with IExCor= 1009 and IRadAn=  199590 diagonalized for initial guess.
 HarFok:  IExCor= 1009 AccDes= 0.00D+00 IRadAn=    199590 IDoV= 1 UseB2=F ITyADJ=14
 ICtDFT=  3500011 ScaDFX=  1.000000  1.000000  1.000000  1.000000
 FoFCou: FMM=F IPFlag=           0 FMFlag=      100000 FMFlg1=           0
         NFxFlg=           0 DoJE=T BraDBF=F KetDBF=T FulRan=T
         wScrn=  0.000000 ICntrl=     500 IOpCl=  0 I1Cent=   200000004 NGrid=           0
         NMat0=    1 NMatS0=      1 NMatT0=    0 NMatD0=    1 NMtDS0=    0 NMtDT0=    0
 Petite list used in FoFCou.
 Harris En= -801.781883928541    
 JPrj=0 DoOrth=F DoCkMO=F.
 Leave Link  401 at Tue Jun 24 16:43:08 2014, MaxMem=  4294967296 cpu:       298.1
 (Enter /home/ztw1e12/g09/l502.exe)
 Closed shell SCF:
 Using DIIS extrapolation, IDIIS=  1040.
 Integral symmetry usage will be decided dynamically.
 IVT=     5158273 IEndB=     5158273 NGot=  4294967296 MDV=  4291529994
 LenX=  4291529994 LenY=  4289825664
 Requested convergence on RMS density matrix=1.00D-08 within 128 cycles.
 Requested convergence on MAX density matrix=1.00D-06.
 Requested convergence on             energy=1.00D-06.
 No special actions if energy rises.
 Fock matrices will be formed incrementally for  20 cycles.
 Integral accuracy reduced to 1.0D-05 until final iterations.

 Cycle   1  Pass 0  IDiag  1:
 FoFJK:  IHMeth= 1 ICntrl=       0 DoSepK=F KAlg= 0 I1Cent=   0 FoldK=F
 IRaf= 430000000 NMat=   1 IRICut=       1 DoRegI=T DoRafI=F ISym2E= 0.
 FoFCou: FMM=F IPFlag=           0 FMFlag=      100000 FMFlg1=           0
         NFxFlg=           0 DoJE=F BraDBF=F KetDBF=F FulRan=T
         wScrn=  0.000000 ICntrl=       0 IOpCl=  0 I1Cent=           0 NGrid=           0
         NMat0=    1 NMatS0=      1 NMatT0=    0 NMatD0=    1 NMtDS0=    0 NMtDT0=    0
 Symmetry not used in FoFCou.
 E= -801.446800310647    
 DIIS: error= 1.21D-01 at cycle   1 NSaved=   1.
 NSaved= 1 IEnMin= 1 EnMin= -801.446800310647     IErMin= 1 ErrMin= 1.21D-01
 ErrMax= 1.21D-01  0.00D+00 EMaxC= 1.00D-01 BMatC= 1.69D+01 BMatP= 1.69D+01
 IDIUse=3 WtCom= 0.00D+00 WtEn= 1.00D+00
 Coeff-Com:  0.100D+01
 Coeff-En:   0.100D+01
 Coeff:      0.100D+01
 Gap=     0.242 Goal=   None    Shift=    0.000
 GapD=    0.242 DampG=1.000 DampE=0.250 DampFc=0.2500 IDamp=-1.
 Damping current iteration by 2.50D-01
 RMSDP=2.59D-03 MaxDP=4.09D-01              OVMax= 3.17D-01

 Cycle   2  Pass 0  IDiag  1:
 RMSU=  6.45D-04    CP:  1.03D+00
 E= -801.605594088510     Delta-E=       -0.158793777863 Rises=F Damp=T
 DIIS: error= 9.12D-02 at cycle   2 NSaved=   2.
 NSaved= 2 IEnMin= 2 EnMin= -801.605594088510     IErMin= 2 ErrMin= 9.12D-02
 ErrMax= 9.12D-02  0.00D+00 EMaxC= 1.00D-01 BMatC= 1.00D+01 BMatP= 1.69D+01
 IDIUse=3 WtCom= 8.80D-02 WtEn= 9.12D-01
 Coeff-Com: -0.287D+01 0.387D+01
 Coeff-En:   0.000D+00 0.100D+01
 Coeff:     -0.253D+00 0.125D+01
 Gap=     0.256 Goal=   None    Shift=    0.000
 RMSDP=6.59D-04 MaxDP=1.11D-01 DE=-1.59D-01 OVMax= 2.14D-01

 Cycle   3  Pass 0  IDiag  1:
 RMSU=  6.34D-04    CP:  1.06D+00  1.25D+00
 E= -801.867090041633     Delta-E=       -0.261495953123 Rises=F Damp=F
 DIIS: error= 1.33D-02 at cycle   3 NSaved=   3.
 NSaved= 3 IEnMin= 3 EnMin= -801.867090041633     IErMin= 3 ErrMin= 1.33D-02
 ErrMax= 1.33D-02  0.00D+00 EMaxC= 1.00D-01 BMatC= 1.78D-01 BMatP= 1.00D+01
 IDIUse=3 WtCom= 8.67D-01 WtEn= 1.33D-01
 Coeff-Com:  0.175D+00-0.288D+00 0.111D+01
 Coeff-En:   0.000D+00 0.000D+00 0.100D+01
 Coeff:      0.152D+00-0.250D+00 0.110D+01
 Gap=     0.238 Goal=   None    Shift=    0.000
 RMSDP=4.68D-04 MaxDP=6.10D-02 DE=-2.61D-01 OVMax= 1.20D-01

 Cycle   4  Pass 0  IDiag  1:
 RMSU=  4.03D-04    CP:  1.05D+00  1.05D+00  6.88D-01
 E= -801.787994321607     Delta-E=        0.079095720026 Rises=F Damp=F
 DIIS: error= 8.44D-03 at cycle   4 NSaved=   4.
 NSaved= 4 IEnMin= 3 EnMin= -801.867090041633     IErMin= 4 ErrMin= 8.44D-03
 ErrMax= 8.44D-03  0.00D+00 EMaxC= 1.00D-01 BMatC= 1.62D-01 BMatP= 1.78D-01
 IDIUse=3 WtCom= 9.16D-01 WtEn= 8.44D-02
 Coeff-Com:  0.305D+00-0.440D+00 0.623D+00 0.511D+00
 Coeff-En:   0.000D+00 0.000D+00 0.719D+00 0.281D+00
 Coeff:      0.280D+00-0.403D+00 0.631D+00 0.492D+00
 Gap=     0.257 Goal=   None    Shift=    0.000
 RMSDP=3.39D-04 MaxDP=3.21D-02 DE= 7.91D-02 OVMax= 8.64D-02

 Cycle   5  Pass 0  IDiag  1:
 RMSU=  9.59D-05    CP:  1.05D+00  1.10D+00  8.56D-01  2.41D-01
 E= -801.908936074397     Delta-E=       -0.120941752790 Rises=F Damp=F
 DIIS: error= 2.07D-03 at cycle   5 NSaved=   5.
 NSaved= 5 IEnMin= 5 EnMin= -801.908936074397     IErMin= 5 ErrMin= 2.07D-03
 ErrMax= 2.07D-03  0.00D+00 EMaxC= 1.00D-01 BMatC= 7.83D-03 BMatP= 1.62D-01
 IDIUse=3 WtCom= 9.79D-01 WtEn= 2.07D-02
 Coeff-Com:  0.473D-01-0.671D-01 0.381D-01 0.180D+00 0.802D+00
 Coeff-En:   0.000D+00 0.000D+00 0.000D+00 0.000D+00 0.100D+01
 Coeff:      0.464D-01-0.657D-01 0.373D-01 0.176D+00 0.806D+00
 Gap=     0.226 Goal=   None    Shift=    0.000
 RMSDP=1.00D-04 MaxDP=7.88D-03 DE=-1.21D-01 OVMax= 2.48D-02

 Cycle   6  Pass 0  IDiag  1:
 RMSU=  4.70D-05    CP:  1.05D+00  1.08D+00  8.83D-01  3.92D-01  3.62D-01
 E= -801.912007092333     Delta-E=       -0.003071017936 Rises=F Damp=F
 DIIS: error= 2.03D-03 at cycle   6 NSaved=   6.
 NSaved= 6 IEnMin= 6 EnMin= -801.912007092333     IErMin= 6 ErrMin= 2.03D-03
 ErrMax= 2.03D-03  0.00D+00 EMaxC= 1.00D-01 BMatC= 2.42D-03 BMatP= 7.83D-03
 IDIUse=3 WtCom= 9.80D-01 WtEn= 2.03D-02
 Coeff-Com:  0.194D-01-0.266D-01-0.517D-02 0.800D-01 0.462D+00 0.470D+00
 Coeff-En:   0.000D+00 0.000D+00 0.000D+00 0.000D+00 0.280D+00 0.720D+00
 Coeff:      0.190D-01-0.260D-01-0.507D-02 0.784D-01 0.458D+00 0.475D+00
 Gap=     0.226 Goal=   None    Shift=    0.000
 RMSDP=4.30D-05 MaxDP=4.84D-03 DE=-3.07D-03 OVMax= 1.74D-02

 Cycle   7  Pass 0  IDiag  1:
 RMSU=  2.60D-05    CP:  1.05D+00  1.07D+00  8.68D-01  3.92D-01  5.32D-01
                    CP:  4.12D-01
 E= -801.913901864700     Delta-E=       -0.001894772366 Rises=F Damp=F
 DIIS: error= 6.82D-04 at cycle   7 NSaved=   7.
 NSaved= 7 IEnMin= 7 EnMin= -801.913901864700     IErMin= 7 ErrMin= 6.82D-04
 ErrMax= 6.82D-04  0.00D+00 EMaxC= 1.00D-01 BMatC= 2.66D-04 BMatP= 2.42D-03
 IDIUse=3 WtCom= 9.93D-01 WtEn= 6.82D-03
 Coeff-Com:  0.105D-01-0.139D-01-0.333D-02 0.200D-01 0.124D+00 0.268D+00
 Coeff-Com:  0.595D+00
 Coeff-En:   0.000D+00 0.000D+00 0.000D+00 0.000D+00 0.000D+00 0.855D-01
 Coeff-En:   0.915D+00
 Coeff:      0.104D-01-0.138D-01-0.330D-02 0.199D-01 0.123D+00 0.266D+00
 Coeff:      0.597D+00
 Gap=     0.225 Goal=   None    Shift=    0.000
 RMSDP=1.53D-05 MaxDP=1.96D-03 DE=-1.89D-03 OVMax= 4.72D-03

 Cycle   8  Pass 0  IDiag  1:
 RMSU=  9.32D-06    CP:  1.05D+00  1.07D+00  8.73D-01  4.02D-01  5.20D-01
                    CP:  6.02D-01  7.51D-01
 E= -801.914103645177     Delta-E=       -0.000201780477 Rises=F Damp=F
 DIIS: error= 1.26D-04 at cycle   8 NSaved=   8.
 NSaved= 8 IEnMin= 8 EnMin= -801.914103645177     IErMin= 8 ErrMin= 1.26D-04
 ErrMax= 1.26D-04  0.00D+00 EMaxC= 1.00D-01 BMatC= 2.64D-05 BMatP= 2.66D-04
 IDIUse=3 WtCom= 9.99D-01 WtEn= 1.26D-03
 EnCoef did     6 forward-backward iterations
 Coeff-Com:  0.556D-02-0.740D-02-0.695D-03 0.621D-02 0.376D-01 0.119D+00
 Coeff-Com:  0.342D+00 0.498D+00
 Coeff-En:   0.000D+00 0.000D+00 0.000D+00 0.000D+00 0.000D+00 0.000D+00
 Coeff-En:   0.160D-02 0.998D+00
 Coeff:      0.556D-02-0.739D-02-0.694D-03 0.620D-02 0.375D-01 0.118D+00
 Coeff:      0.342D+00 0.498D+00
 Gap=     0.225 Goal=   None    Shift=    0.000
 RMSDP=4.57D-06 MaxDP=4.48D-04 DE=-2.02D-04 OVMax= 1.03D-03

 Initial convergence to 1.0D-05 achieved.  Increase integral accuracy.
 Cycle   9  Pass 1  IDiag  1:
 E= -801.914056908411     Delta-E=        0.000046736766 Rises=F Damp=F
 DIIS: error= 2.62D-04 at cycle   1 NSaved=   1.
 NSaved= 1 IEnMin= 1 EnMin= -801.914056908411     IErMin= 1 ErrMin= 2.62D-04
 ErrMax= 2.62D-04  0.00D+00 EMaxC= 1.00D-01 BMatC= 2.97D-05 BMatP= 2.97D-05
 IDIUse=3 WtCom= 9.97D-01 WtEn= 2.62D-03
 Coeff-Com:  0.100D+01
 Coeff-En:   0.100D+01
 Coeff:      0.100D+01
 Gap=     0.225 Goal=   None    Shift=    0.000
 RMSDP=4.57D-06 MaxDP=4.48D-04 DE= 4.67D-05 OVMax= 1.18D-03

 Cycle  10  Pass 1  IDiag  1:
 RMSU=  1.58D-04    CP:  9.92D-01
 E= -801.914075347652     Delta-E=       -0.000018439242 Rises=F Damp=F
 DIIS: error= 5.07D-05 at cycle   2 NSaved=   2.
 NSaved= 2 IEnMin= 2 EnMin= -801.914075347652     IErMin= 2 ErrMin= 5.07D-05
 ErrMax= 5.07D-05  0.00D+00 EMaxC= 1.00D-01 BMatC= 2.91D-06 BMatP= 2.97D-05
 IDIUse=1 WtCom= 1.00D+00 WtEn= 0.00D+00
 Coeff-Com:  0.121D+00 0.879D+00
 Coeff:      0.121D+00 0.879D+00
 Gap=     0.225 Goal=   None    Shift=    0.000
 RMSDP=3.74D-06 MaxDP=3.09D-04 DE=-1.84D-05 OVMax= 1.11D-03

 Cycle  11  Pass 1  IDiag  1:
 RMSU=  2.96D-06    CP:  9.92D-01  1.01D+00
 E= -801.914071960274     Delta-E=        0.000003387379 Rises=F Damp=F
 DIIS: error= 9.14D-05 at cycle   3 NSaved=   3.
 NSaved= 3 IEnMin= 2 EnMin= -801.914075347652     IErMin= 2 ErrMin= 5.07D-05
 ErrMax= 9.14D-05  0.00D+00 EMaxC= 1.00D-01 BMatC= 7.28D-06 BMatP= 2.91D-06
 IDIUse=1 WtCom= 1.00D+00 WtEn= 0.00D+00
 Coeff-Com: -0.475D-03 0.614D+00 0.386D+00
 Coeff:     -0.475D-03 0.614D+00 0.386D+00
 Gap=     0.225 Goal=   None    Shift=    0.000
 RMSDP=1.82D-06 MaxDP=2.17D-04 DE= 3.39D-06 OVMax= 7.46D-04

 Cycle  12  Pass 1  IDiag  1:
 RMSU=  7.41D-07    CP:  9.92D-01  1.02D+00  4.55D-01
 E= -801.914077572239     Delta-E=       -0.000005611965 Rises=F Damp=F
 DIIS: error= 8.04D-06 at cycle   4 NSaved=   4.
 NSaved= 4 IEnMin= 4 EnMin= -801.914077572239     IErMin= 4 ErrMin= 8.04D-06
 ErrMax= 8.04D-06  0.00D+00 EMaxC= 1.00D-01 BMatC= 8.32D-08 BMatP= 2.91D-06
 IDIUse=1 WtCom= 1.00D+00 WtEn= 0.00D+00
 Coeff-Com: -0.282D-02 0.336D+00 0.221D+00 0.446D+00
 Coeff:     -0.282D-02 0.336D+00 0.221D+00 0.446D+00
 Gap=     0.225 Goal=   None    Shift=    0.000
 RMSDP=2.20D-07 MaxDP=2.78D-05 DE=-5.61D-06 OVMax= 5.63D-05

 Cycle  13  Pass 1  IDiag  1:
 RMSU=  1.97D-07    CP:  9.92D-01  1.02D+00  4.69D-01  9.07D-01
 E= -801.914077626816     Delta-E=       -0.000000054577 Rises=F Damp=F
 DIIS: error= 1.40D-06 at cycle   5 NSaved=   5.
 NSaved= 5 IEnMin= 5 EnMin= -801.914077626816     IErMin= 5 ErrMin= 1.40D-06
 ErrMax= 1.40D-06  0.00D+00 EMaxC= 1.00D-01 BMatC= 3.45D-09 BMatP= 8.32D-08
 IDIUse=1 WtCom= 1.00D+00 WtEn= 0.00D+00
 Coeff-Com: -0.130D-02 0.118D+00 0.785D-01 0.227D+00 0.578D+00
 Coeff:     -0.130D-02 0.118D+00 0.785D-01 0.227D+00 0.578D+00
 Gap=     0.225 Goal=   None    Shift=    0.000
 RMSDP=5.27D-08 MaxDP=6.69D-06 DE=-5.46D-08 OVMax= 1.04D-05

 Cycle  14  Pass 1  IDiag  1:
 RMSU=  4.42D-08    CP:  9.92D-01  1.02D+00  4.70D-01  9.30D-01  9.11D-01
 E= -801.914077628934     Delta-E=       -0.000000002118 Rises=F Damp=F
 DIIS: error= 5.82D-07 at cycle   6 NSaved=   6.
 NSaved= 6 IEnMin= 6 EnMin= -801.914077628934     IErMin= 6 ErrMin= 5.82D-07
 ErrMax= 5.82D-07  0.00D+00 EMaxC= 1.00D-01 BMatC= 3.61D-10 BMatP= 3.45D-09
 IDIUse=1 WtCom= 1.00D+00 WtEn= 0.00D+00
 Coeff-Com: -0.543D-03 0.431D-01 0.289D-01 0.939D-01 0.315D+00 0.519D+00
 Coeff:     -0.543D-03 0.431D-01 0.289D-01 0.939D-01 0.315D+00 0.519D+00
 Gap=     0.225 Goal=   None    Shift=    0.000
 RMSDP=2.32D-08 MaxDP=3.91D-06 DE=-2.12D-09 OVMax= 6.99D-06

 Cycle  15  Pass 1  IDiag  1:
 RMSU=  1.57D-08    CP:  9.92D-01  1.02D+00  4.71D-01  9.42D-01  9.35D-01
                    CP:  7.10D-01
 E= -801.914077629230     Delta-E=       -0.000000000296 Rises=F Damp=F
 DIIS: error= 2.26D-07 at cycle   7 NSaved=   7.
 NSaved= 7 IEnMin= 7 EnMin= -801.914077629230     IErMin= 7 ErrMin= 2.26D-07
 ErrMax= 2.26D-07  0.00D+00 EMaxC= 1.00D-01 BMatC= 7.26D-11 BMatP= 3.61D-10
 IDIUse=1 WtCom= 1.00D+00 WtEn= 0.00D+00
 Coeff-Com: -0.346D-04-0.603D-03-0.282D-03 0.590D-02 0.629D-01 0.322D+00
 Coeff-Com:  0.610D+00
 Coeff:     -0.346D-04-0.603D-03-0.282D-03 0.590D-02 0.629D-01 0.322D+00
 Coeff:      0.610D+00
 Gap=     0.225 Goal=   None    Shift=    0.000
 RMSDP=9.60D-09 MaxDP=9.71D-07 DE=-2.96D-10 OVMax= 3.01D-06

 SCF Done:  E(RM06) =  -801.914077629     A.U. after   15 cycles
            NFock= 15  Conv=0.96D-08     -V/T= 2.0045
 KE= 7.983592091257D+02 PE=-4.317018273792D+03 EE= 1.494686678211D+03
 Leave Link  502 at Tue Jun 24 17:17:42 2014, MaxMem=  4294967296 cpu:     33090.4
 (Enter /home/ztw1e12/g09/l801.exe)
 DoSCS=F DFT=T ScalE2(SS,OS)=  1.000000  1.000000
 Range of M.O.s used for correlation:     1  1068
 NBasis=  1204 NAE=    63 NBE=    63 NFC=     0 NFV=     0
 NROrb=   1068 NOA=    63 NOB=    63 NVA=  1005 NVB=  1005

 **** Warning!!: The largest alpha MO coefficient is  0.26322934D+02

 Leave Link  801 at Tue Jun 24 17:17:42 2014, MaxMem=  4294967296 cpu:         0.4
 (Enter /home/ztw1e12/g09/l1002.exe)
 Minotr:  Closed shell wavefunction.
          IDoAtm=111111111111111111111111111111111
          Direct CPHF calculation.
          Differentiating once with respect to Fermi-contact.
          Electric field/nuclear overlap derivatives assumed to be zero.
          Requested convergence is 1.0D-10 RMS, and 1.0D-09 maximum.
          Secondary convergence is 1.0D-12 RMS, and 1.0D-12 maximum.
          NewPWx=T KeepS1=F KeepF1=F KeepIn=T MapXYZ=F SortEE=F KeepMc=T.
          MDV=    4294965894 using IRadAn=  199590.
 Using stored XC quadrature information.
          Solving linear equations simultaneously, MaxMat=       0.
          There are    33 degrees of freedom in the 1st order CPHF.  IDoFFX=0 NUNeed=    33.
     33 vectors produced by pass  0 Test12= 1.92D-17 3.03D-11 XBig12= 4.29D+01 2.58D+00.
 AX will form    33 AO Fock derivatives at one time.
 FoFJK:  IHMeth= 1 ICntrl=       0 DoSepK=F KAlg= 0 I1Cent=   0 FoldK=F
 IRaf= 450000000 NMat=  33 IRICut=       1 DoRegI=T DoRafI=F ISym2E=-1.
 FoFCou: FMM=F IPFlag=           0 FMFlag=      100000 FMFlg1=           0
         NFxFlg=           0 DoJE=F BraDBF=F KetDBF=F FulRan=T
         wScrn=  0.000000 ICntrl=       0 IOpCl=  0 I1Cent=           0 NGrid=           0
         NMat0=   33 NMatS0=      0 NMatT0=   33 NMatD0=   33 NMtDS0=    0 NMtDT0=    0
 Petite list used in FoFCou.
     33 vectors produced by pass  1 Test12= 1.92D-17 3.03D-11 XBig12= 3.46D-01 1.89D-01.
     33 vectors produced by pass  2 Test12= 1.92D-17 3.03D-11 XBig12= 1.59D-02 4.08D-02.
     33 vectors produced by pass  3 Test12= 1.92D-17 3.03D-11 XBig12= 3.51D-04 6.03D-03.
     33 vectors produced by pass  4 Test12= 1.92D-17 3.03D-11 XBig12= 7.23D-06 1.18D-03.
     33 vectors produced by pass  5 Test12= 1.92D-17 3.03D-11 XBig12= 1.53D-07 1.77D-04.
     33 vectors produced by pass  6 Test12= 1.92D-17 3.03D-11 XBig12= 4.94D-09 1.83D-05.
     33 vectors produced by pass  7 Test12= 1.92D-17 3.03D-11 XBig12= 1.32D-10 4.30D-06.
     33 vectors produced by pass  8 Test12= 1.92D-17 3.03D-11 XBig12= 5.25D-12 3.61D-07.
     33 vectors produced by pass  9 Test12= 1.92D-17 3.03D-11 XBig12= 7.07D-14 9.40D-08.
     33 vectors produced by pass 10 Test12= 1.92D-17 3.03D-11 XBig12= 2.17D-15 9.72D-09.
     33 vectors produced by pass 11 Test12= 1.92D-17 3.03D-11 XBig12= 2.23D-17 5.96D-10.
      6 vectors produced by pass 12 Test12= 1.92D-17 3.03D-11 XBig12= 2.41D-19 6.70D-11.
 InvSVY:  IOpt=1 It=  1 EMax= 7.99D-15
 Solved reduced A of dimension   402 with    33 vectors.
 Max diff in FC couplings:  IJMax=    22     3 Diff= 4.81D-04 IJMaxR=    32     6 DiffR= 1.26D+00
 Fermi Contact (FC) contribution to K (Hz):
                1             2             3             4             5 
      1  0.123400D+11
      2  0.349438D+02  0.123400D+11
      3 -0.116363D+01  0.349776D+02  0.123400D+11
      4  0.312460D+01  0.172959D+00  0.335388D+02  0.123400D+11
      5  0.161214D+01  0.304234D+01 -0.132212D+01  0.353582D+02  0.123400D+11
      6  0.362752D+02 -0.249547D+00  0.434146D+01  0.215565D+00  0.388482D+02
      7  0.216560D+02 -0.301604D+00  0.968227D+00 -0.206009D+00  0.614081D+00
      8 -0.222286D+00  0.219479D+02 -0.268308D+00  0.993595D+00 -0.284000D+00
      9 -0.291711D+00  0.103444D+01 -0.218482D+00  0.222615D+02 -0.222406D+00
     10  0.673075D+00 -0.221146D+00  0.105525D+01 -0.288281D+00  0.230631D+02
     11  0.213799D+01  0.159931D+01  0.245997D+02  0.140867D+01  0.196221D+01
     12  0.204998D-01  0.825147D+00 -0.956848D+00  0.837305D+00  0.912972D-01
     13 -0.482176D-01  0.689548D+00 -0.105957D+01  0.538930D+00 -0.119636D+00
     14 -0.477947D+00  0.864617D+00 -0.187656D+00  0.818141D+00 -0.554294D+00
     15  0.141740D-01 -0.232821D-01  0.131579D+00 -0.138832D-01  0.163906D-01
     16  0.274074D-01 -0.292414D-01  0.424559D+00 -0.250677D-01  0.229160D-01
     17 -0.762861D+00 -0.995668D-01  0.265750D+00  0.309226D+01  0.117256D+02
     18  0.421876D+00 -0.101201D-01 -0.468132D-01  0.212922D+00  0.115727D+01
     19 -0.693739D-01  0.272137D+00  0.317210D+00  0.291283D+00 -0.545854D-01
     20  0.837087D-01 -0.347271D-01  0.323731D+01 -0.581404D-01  0.407286D-01
     21 -0.517908D-03  0.203119D-02 -0.259669D-01  0.100073D-02  0.557185D-03
     22  0.279496D-01  0.162155D+00  0.460130D-01  0.511796D-01  0.133759D-01
     23 -0.132285D-02 -0.454283D-02  0.188937D-02  0.745164D-04 -0.264543D-03
     24 -0.192476D-02  0.168140D-01  0.254563D+00  0.102267D-01 -0.217101D-03
     25  0.192967D-02  0.143217D-02  0.112980D+00 -0.314708D-02 -0.107983D-02
     26  0.145501D-03  0.451981D-03  0.172779D-02  0.727056D-03 -0.171038D-03
     27 -0.312430D-03 -0.369102D-03 -0.250197D-02  0.767519D-03  0.208471D-03
     28 -0.123284D-03  0.211613D-03 -0.106020D-02  0.204361D-03 -0.177188D-03
     29 -0.513343D-03 -0.115276D-01  0.105364D-01 -0.372405D-02  0.420543D-02
     30  0.351007D-02  0.712585D-02  0.574109D-03 -0.912625D-03  0.183792D-02
     31  0.314505D-03  0.129247D-02  0.109312D-03 -0.214546D-03  0.192832D-03
     32  0.172577D-02  0.345319D-02 -0.148096D-02 -0.507604D-03  0.544355D-03
     33 -0.570593D-02  0.174810D-01 -0.268494D-01  0.173476D-01 -0.399904D-02
                6             7             8             9            10 
      6  0.123400D+11
      7 -0.561084D+00  0.123400D+11
      8  0.116675D+01  0.329321D+00  0.123400D+11
      9  0.122293D+01  0.387063D-01  0.386375D-01  0.123400D+11
     10 -0.700688D+00  0.632532D-01  0.405288D-01  0.354114D+00  0.123400D+11
     11 -0.477773D+00  0.113907D-01  0.733690D+00  0.670784D+00  0.217789D-01
     12  0.157650D-01  0.331385D-02 -0.274187D-01 -0.325146D-02  0.754906D-02
     13  0.127678D+00  0.127995D-01 -0.311967D-01 -0.367078D-01  0.122884D-01
     14  0.561528D+00  0.452838D-01 -0.134017D+00 -0.985183D-01  0.518375D-01
     15 -0.939105D-02 -0.199452D-02  0.416951D-02  0.129869D-02 -0.167672D-02
     16 -0.186764D-01 -0.232869D-02  0.144268D-01  0.604471D-02 -0.265488D-02
     17 -0.119765D+02  0.557804D+00  0.685077D-01  0.254767D+00  0.713353D+00
     18 -0.651817D+00 -0.125348D-01  0.164927D-02  0.135913D-01  0.768800D-03
     19  0.633436D-01  0.507565D-02 -0.234287D-01 -0.585529D-02  0.477260D-02
     20  0.304475D-03  0.518409D-02  0.839794D-02  0.890612D-03  0.103639D-01
     21  0.159675D-03  0.874728D-04  0.762763D-04  0.755146D-03 -0.163669D-03
     22  0.781043D-02 -0.463153D-03  0.468536D-01  0.897673D-02 -0.143836D-02
     23  0.323761D-03  0.820071D-04 -0.191895D-03 -0.741697D-04  0.903766D-04
     24  0.101444D-01  0.207901D-02 -0.114198D-02  0.524629D-03  0.157855D-02
     25  0.172551D-02  0.225808D-03  0.600682D-04 -0.338287D-03  0.429622D-03
     26  0.114014D-03  0.164053D-04 -0.435901D-04  0.809372D-05  0.428942D-05
     27  0.102817D-03  0.000000D+00 -0.251243D-04  0.764890D-04 -0.117873D-04
     28  0.132614D-03  0.130932D-04 -0.397763D-04 -0.415337D-04  0.137266D-04
     29 -0.277054D-02 -0.293365D-03  0.303784D-02  0.881648D-03 -0.678518D-03
     30 -0.106799D-02 -0.166767D-03  0.505568D-02  0.182780D-03 -0.340311D-03
     31 -0.111187D-03 -0.474791D-04  0.434856D-03  0.166097D-05 -0.414665D-04
     32 -0.124753D-04  0.000000D+00  0.198212D-02  0.139419D-03 -0.735934D-04
     33  0.594027D-02  0.604057D-03 -0.118616D-02 -0.155059D-02  0.276719D-03
               11            12            13            14            15 
     11  0.123400D+11
     12  0.168615D+02  0.123400D+11
     13  0.177702D+02 -0.779826D+00  0.123400D+11
     14  0.154128D+02 -0.905210D+00 -0.903946D+00  0.123400D+11
     15 -0.704261D+00  0.369314D+00  0.248319D+00  0.214919D+02  0.123400D+11
     16 -0.612484D+00  0.246934D+00  0.100847D+01  0.284416D+02 -0.109855D+01
     17  0.579627D-01  0.458624D-02  0.445720D-01  0.220274D+00 -0.408492D-02
     18  0.120855D-01 -0.476514D-03 -0.478280D-02 -0.231550D-01  0.444023D-03
     19  0.641321D+00 -0.774416D-02 -0.953328D-02  0.433848D+01  0.297173D+00
     20  0.105665D+01  0.855109D+00  0.238836D+00  0.130560D+02 -0.439376D+00
     21  0.605907D+00 -0.229722D-01 -0.143523D-01  0.225186D+00  0.975465D-01
     22 -0.124995D-01  0.904623D-03  0.435375D-01  0.103596D+02  0.311111D+00
     23 -0.302008D-01 -0.376465D-02 -0.487676D-02  0.497418D-01  0.752346D-02
     24  0.164491D+01 -0.963753D-02 -0.380243D-01 -0.113698D+00  0.253620D+00
     25 -0.343350D-01  0.198964D-01  0.411009D-02  0.703468D+00 -0.755184D-01
     26  0.186993D-02 -0.571568D-03 -0.735415D-03  0.343842D-01  0.232614D-01
     27 -0.379510D-03 -0.716544D-03 -0.523661D-03  0.141149D-01  0.278681D-01
     28 -0.254448D-02 -0.489953D-03 -0.135494D-03  0.874257D-01 -0.174909D-02
     29 -0.109391D+00  0.532604D-03  0.336997D-03  0.704553D+00  0.862055D-01
     30  0.594307D-01 -0.804738D-03  0.478400D-02 -0.816659D-01  0.124712D-01
     31  0.122152D-02  0.619579D-03  0.743981D-03 -0.236068D-01  0.552279D-02
     32  0.801435D-01 -0.808469D-03  0.674996D-02 -0.681701D-01  0.377631D-02
     33  0.112104D+00  0.255417D-01  0.387982D-02  0.733483D+00  0.224738D+00
               16            17            18            19            20 
     16  0.123400D+11
     17 -0.546075D-02  0.123400D+11
     18  0.648747D-03  0.198888D+02  0.123400D+11
     19 -0.960371D+01  0.220144D-01 -0.247072D-02  0.123400D+11
     20  0.280151D+00  0.622544D-02 -0.254187D-03  0.978997D+00  0.123400D+11
     21  0.257498D+00  0.221242D-03 -0.982310D-05  0.975054D-01  0.307818D+02
     22  0.296298D+02  0.194205D-02 -0.956748D-04  0.624205D+01 -0.389085D+00
     23  0.389385D+00  0.668280D-04 -0.705418D-05  0.442509D+00 -0.614546D-01
     24  0.108335D+00  0.578665D-02 -0.496110D-03 -0.173793D-01  0.251671D+02
     25 -0.140418D+00  0.811757D-03 -0.808442D-04  0.568978D-01  0.125382D+02
     26  0.495762D-01  0.927709D-05  0.000000D+00 -0.176343D-02  0.401251D+00
     27  0.640584D-01  0.656138D-04 -0.384428D-05  0.340357D-02  0.309432D+00
     28 -0.191864D-02  0.593973D-04 -0.655822D-05  0.403084D-02  0.322547D+00
     29 -0.233348D+00 -0.784774D-03  0.781025D-04  0.627394D+00  0.563482D-01
     30  0.158934D+00 -0.220248D-03  0.159767D-04  0.252698D+00  0.530211D-01
     31  0.949042D+00 -0.252057D-04  0.165674D-05  0.186625D+00  0.531466D-02
     32  0.200845D+00 -0.535980D-04  0.688981D-05  0.255235D+00  0.223151D-01
     33  0.467745D+00  0.257987D-02 -0.280501D-03  0.356990D+00  0.609650D+01
               21            22            23            24            25 
     21  0.123400D+11
     22  0.416977D-01  0.123400D+11
     23  0.492895D-02  0.312836D+02  0.123400D+11
     24  0.455382D+00 -0.444048D-01  0.821877D-02  0.123400D+11
     25  0.770504D-01 -0.187221D-02  0.826805D-03  0.268686D+02  0.123400D+11
     26 -0.136623D-01  0.194573D-02 -0.158758D-04 -0.119314D+01  0.180396D+02
     27 -0.732998D-02  0.366651D-04 -0.286093D-03 -0.118737D+01  0.179743D+02
     28 -0.923982D-02 -0.149094D-02  0.113941D-03 -0.753398D+00  0.169883D+02
     29 -0.109482D-02  0.175482D+02  0.346859D+00 -0.447169D-02 -0.453056D-02
     30 -0.100527D-02 -0.613530D+00  0.109591D+00  0.113198D-02  0.242432D-02
     31 -0.519257D-03 -0.375683D+00  0.290846D+00 -0.121282D-03 -0.215717D-03
     32  0.156536D-02 -0.593767D+00  0.102879D+00 -0.112491D-02  0.237993D-02
     33  0.451202D+00  0.269507D+00 -0.161556D-01 -0.981108D+01  0.348391D+01
               26            27            28            29            30 
     26  0.123400D+11
     27 -0.929557D+00  0.123400D+11
     28 -0.739791D+00 -0.728681D+00  0.123400D+11
     29 -0.192961D-03 -0.433527D-03  0.919017D-04  0.123400D+11
     30  0.339450D-03  0.392302D-03 -0.339716D-04  0.198282D+02  0.123400D+11
     31  0.214238D-03  0.114439D-03  0.273986D-05  0.181153D+02 -0.734989D+00
     32 -0.894519D-04 -0.706676D-04 -0.214967D-04  0.202567D+02 -0.735693D+00
     33  0.462060D+00  0.446991D+00  0.798416D+00 -0.193629D-01  0.141701D-01
               31            32            33 
     31  0.123400D+11
     32 -0.747643D+00  0.123400D+11
     33  0.320941D-02  0.196430D-01  0.123400D+11
 Fermi Contact (FC) contribution to J (Hz):
                1             2             3             4             5 
      1  0.243533D+11
      2  0.689625D+02  0.243533D+11
      3 -0.229646D+01  0.690291D+02  0.243533D+11
      4  0.616647D+01  0.341339D+00  0.661896D+02  0.243533D+11
      5  0.318160D+01  0.600414D+01 -0.260924D+01  0.697804D+02  0.243533D+11
      6  0.715900D+02 -0.492488D+00  0.856798D+01  0.425424D+00  0.766679D+02
      7  0.169933D+03 -0.236666D+01  0.759758D+01 -0.161653D+01  0.481864D+01
      8 -0.174426D+01  0.172223D+03 -0.210539D+01  0.779664D+01 -0.222852D+01
      9 -0.228902D+01  0.811713D+01 -0.171441D+01  0.174683D+03 -0.174520D+01
     10  0.528155D+01 -0.173531D+01  0.828044D+01 -0.226211D+01  0.180974D+03
     11  0.421938D+01  0.315627D+01  0.485482D+02  0.278004D+01  0.387247D+01
     12  0.160860D+00  0.647484D+01 -0.750829D+01  0.657025D+01  0.716401D+00
     13 -0.378359D+00  0.541082D+01 -0.831436D+01  0.422893D+01 -0.938770D+00
     14 -0.943241D+00  0.170634D+01 -0.370345D+00  0.161462D+01 -0.109391D+01
     15  0.111222D+00 -0.182692D+00  0.103249D+01 -0.108940D+00  0.128615D+00
     16  0.540891D-01 -0.577087D-01  0.837878D+00 -0.494717D-01  0.452254D-01
     17  0.811822D+00  0.105957D+00 -0.282806D+00 -0.329072D+01 -0.124781D+02
     18  0.331042D+01 -0.794112D-01 -0.367339D+00  0.167078D+01  0.908099D+01
     19  0.738263D-01 -0.289603D+00 -0.337568D+00 -0.309978D+00  0.580887D-01
     20  0.474806D-01 -0.196976D-01  0.183624D+01 -0.329780D-01  0.231018D-01
     21 -0.406397D-02  0.159385D-01 -0.203759D+00  0.785261D-02  0.437217D-02
     22  0.158534D-01  0.919761D-01  0.260991D-01  0.290297D-01  0.758699D-02
     23 -0.103803D-01 -0.356471D-01  0.148257D-01  0.584723D-03 -0.207584D-02
     24 -0.379857D-02  0.331829D-01  0.502387D+00  0.201826D-01 -0.428455D-03
     25  0.380826D-02  0.282642D-02  0.222968D+00 -0.621083D-02 -0.213106D-02
     26  0.114173D-02  0.354665D-02  0.135578D-01  0.570514D-02 -0.134212D-02
     27 -0.245161D-02 -0.289631D-02 -0.196327D-01  0.602265D-02  0.163585D-02
     28 -0.967396D-03  0.166051D-02 -0.831929D-02  0.160360D-02 -0.139038D-02
     29 -0.101309D-02 -0.227501D-01  0.207938D-01 -0.734951D-02  0.829953D-02
     30  0.275432D-01  0.559159D-01  0.450498D-02 -0.716128D-02  0.144220D-01
     31  0.246789D-02  0.101419D-01  0.857764D-03 -0.168352D-02  0.151313D-02
     32  0.135420D-01  0.270969D-01 -0.116209D-01 -0.398312D-02  0.427150D-02
     33  0.607214D-02 -0.186029D-01  0.285726D-01 -0.184610D-01  0.425570D-02
                6             7             8             9            10 
      6  0.243533D+11
      7 -0.440278D+01  0.385007D+12
      8  0.915536D+01  0.102748D+02  0.385007D+12
      9  0.959624D+01  0.120764D+01  0.120549D+01  0.385007D+12
     10 -0.549823D+01  0.197350D+01  0.126450D+01  0.110484D+02  0.385007D+12
     11 -0.942898D+00  0.893815D-01  0.575719D+01  0.526358D+01  0.170897D+00
     12  0.123706D+00  0.103392D+00 -0.855461D+00 -0.101446D+00  0.235530D+00
     13  0.100188D+01  0.399345D+00 -0.973335D+00 -0.114528D+01  0.383397D+00
     14  0.110819D+01  0.355338D+00 -0.105162D+01 -0.773063D+00  0.406764D+00
     15 -0.736907D-01 -0.622291D-01  0.130088D+00  0.405192D-01 -0.523137D-01
     16 -0.368584D-01 -0.182730D-01  0.113206D+00  0.474322D-01 -0.208326D-01
     17  0.127452D+02 -0.236022D+01 -0.289875D+00 -0.107799D+01 -0.301839D+01
     18 -0.511474D+01 -0.391084D+00  0.514571D-01  0.424048D+00  0.239865D-01
     19 -0.674090D-01 -0.214765D-01  0.991334D-01  0.247753D-01 -0.201942D-01
     20  0.172702D-03  0.116916D-01  0.189397D-01  0.200858D-02  0.233735D-01
     21  0.125295D-02  0.272915D-02  0.237982D-02  0.235605D-01 -0.510648D-02
     22  0.443017D-02 -0.104454D-02  0.105668D+00  0.202451D-01 -0.324391D-02
     23  0.254052D-02  0.255862D-02 -0.598712D-02 -0.231409D-02  0.281975D-02
     24  0.200203D-01  0.163138D-01 -0.896097D-02  0.411671D-02  0.123867D-01
     25  0.340534D-02  0.177190D-02  0.471349D-03 -0.265451D-02  0.337120D-02
     26  0.894656D-03  0.511845D-03 -0.136001D-02  0.252524D-03  0.133830D-03
     27  0.806792D-03  0.308317D-04 -0.783877D-03  0.238645D-02 -0.367763D-03
     28  0.104061D-02  0.408507D-03 -0.124102D-02 -0.129585D-02  0.428269D-03
     29 -0.546774D-02 -0.230201D-02  0.238376D-01  0.691821D-02 -0.532427D-02
     30 -0.838041D-02 -0.520311D-02  0.157737D+00  0.570272D-02 -0.106177D-01
     31 -0.872472D-03 -0.148134D-02  0.135675D-01  0.518221D-04 -0.129375D-02
     32 -0.978923D-04 -0.414302D-05  0.618421D-01  0.434986D-02 -0.229611D-02
     33 -0.632152D-02 -0.255593D-02  0.501896D-02  0.656099D-02 -0.117087D-02
               11            12            13            14            15 
     11  0.243533D+11
     12  0.132311D+03  0.385007D+12
     13  0.139441D+03 -0.243305D+02  0.385007D+12
     14  0.304176D+02 -0.710309D+01 -0.709317D+01  0.243533D+11
     15 -0.552627D+01  0.115226D+02  0.774753D+01  0.168645D+03  0.385007D+12
     16 -0.120875D+01  0.193766D+01  0.791338D+01  0.561301D+02 -0.862021D+01
     17 -0.616828D-01 -0.194056D-01 -0.188596D+00 -0.234412D+00  0.172844D-01
     18  0.948339D-01 -0.148672D-01 -0.149223D+00 -0.181695D+00  0.138535D-01
     19 -0.682482D+00  0.327677D-01  0.403379D-01 -0.461693D+01 -0.125742D+01
     20  0.599347D+00  0.192851D+01  0.538643D+00  0.740554D+01 -0.990917D+00
     21  0.475449D+01 -0.716731D+00 -0.447792D+00  0.176702D+01  0.304345D+01
     22 -0.708989D-02  0.204018D-02  0.981895D-01  0.587611D+01  0.701644D+00
     23 -0.236983D+00 -0.117457D+00 -0.152155D+00  0.390319D+00  0.234732D+00
     24  0.324628D+01 -0.756248D-01 -0.298373D+00 -0.224385D+00  0.199013D+01
     25 -0.677609D-01  0.156125D+00  0.322515D-01  0.138831D+01 -0.592586D+00
     26  0.146732D-01 -0.178329D-01 -0.229449D-01  0.269810D+00  0.725754D+00
     27 -0.297798D-02 -0.223562D-01 -0.163382D-01  0.110758D+00  0.869483D+00
     28 -0.199663D-01 -0.152865D-01 -0.422741D-02  0.686021D+00 -0.545717D-01
     29 -0.215885D+00  0.417929D-02  0.264439D-02  0.139045D+01  0.676446D+00
     30  0.466347D+00 -0.251078D-01  0.149260D+00 -0.640824D+00  0.389101D+00
     31  0.958512D-02  0.193308D-01  0.232122D-01 -0.185240D+00  0.172311D+00
     32  0.628878D+00 -0.252242D-01  0.210599D+00 -0.534924D+00  0.117821D+00
     33 -0.119299D+00 -0.108074D+00 -0.164166D-01 -0.780558D+00 -0.950928D+00
               16            17            18            19            20 
     16  0.243533D+11
     17  0.581122D-02  0.708114D+10
     18  0.509065D-02 -0.841548D+02  0.385007D+12
     19  0.102201D+02  0.126326D-01  0.104543D-01  0.708114D+10
     20  0.158905D+00 -0.190409D-02 -0.573263D-03 -0.299433D+00  0.201170D+10
     21  0.202056D+01 -0.936136D-03 -0.306480D-03 -0.412572D+00  0.694218D+02
     22  0.168064D+02 -0.593989D-03 -0.215774D-03 -0.190918D+01 -0.634298D-01
     23  0.305546D+01 -0.282768D-03 -0.220090D-03 -0.187238D+01 -0.138598D+00
     24  0.213801D+00 -0.615804D-02 -0.389293D-02  0.184948D-01  0.142751D+02
     25 -0.277118D+00 -0.863856D-03 -0.634377D-03 -0.605496D-01  0.711181D+01
     26  0.389020D+00 -0.392539D-04 -0.271665D-04  0.746155D-02  0.904934D+00
     27  0.502660D+00 -0.277630D-03 -0.119941D-03 -0.144014D-01  0.697858D+00
     28 -0.150554D-01 -0.251326D-03 -0.204616D-03 -0.170556D-01  0.727435D+00
     29 -0.460518D+00  0.835141D-03  0.612863D-03 -0.667660D+00  0.319614D-01
     30  0.124714D+01  0.931932D-03  0.498473D-03 -0.106923D+01  0.119578D+00
     31  0.744704D+01  0.106652D-03  0.516903D-04 -0.789663D+00  0.119861D-01
     32  0.157601D+01  0.226788D-03  0.214962D-03 -0.107997D+01  0.503270D-01
     33 -0.497765D+00  0.148042D-02  0.118688D-02  0.204854D+00 -0.186466D+01
               21            22            23            24            25 
     21  0.385007D+12
     22  0.940402D-01  0.201170D+10
     23  0.153783D+00  0.705534D+02  0.385007D+12
     24  0.357334D+01 -0.251869D-01  0.644919D-01  0.243533D+11
     25  0.604607D+00 -0.106194D-02  0.648786D-02  0.530258D+02  0.243533D+11
     26 -0.426262D+00  0.438818D-02 -0.495324D-03 -0.936243D+01  0.141555D+03
     27 -0.228695D+00  0.826903D-04 -0.892610D-02 -0.931721D+01  0.141042D+03
     28 -0.288282D+00 -0.336249D-02  0.355496D-02 -0.591184D+01  0.133306D+03
     29 -0.859095D-02  0.995353D+01  0.272177D+01 -0.882500D-02 -0.894117D-02
     30 -0.313645D-01 -0.138369D+01  0.341923D+01  0.888253D-02  0.190234D-01
     31 -0.162008D-01 -0.847273D+00  0.907439D+01 -0.951686D-03 -0.169271D-02
     32  0.488391D-01 -0.133911D+01  0.320982D+01 -0.882710D-02  0.186751D-01
     33 -0.190916D+01 -0.824306D-01  0.683587D-01  0.104408D+02 -0.370750D+01
               26            27            28            29            30 
     26  0.385007D+12
     27 -0.290021D+02  0.385007D+12
     28 -0.230814D+02 -0.227348D+02  0.385007D+12
     29 -0.151415D-02 -0.340184D-02  0.721144D-03  0.243533D+11
     30  0.105908D-01  0.122398D-01 -0.105991D-02  0.155590D+03  0.385007D+12
     31  0.668423D-02  0.357049D-02  0.854835D-04  0.142149D+03 -0.229316D+02
     32 -0.279089D-02 -0.220482D-02 -0.670697D-03  0.158952D+03 -0.229536D+02
     33 -0.195510D+01 -0.189134D+01 -0.337832D+01  0.206056D-01 -0.599574D-01
               31            32            33 
     31  0.385007D+12
     32 -0.233264D+02  0.385007D+12
     33 -0.135799D-01 -0.831148D-01  0.708114D+10
 End of Minotr F.D. properties file   721 does not exist.
 End of Minotr F.D. properties file   722 does not exist.
 End of Minotr F.D. properties file   788 does not exist.
 Leave Link 1002 at Wed Jun 25 01:27:21 2014, MaxMem=  4294967296 cpu:    468908.9
 (Enter /home/ztw1e12/g09/l601.exe)
 Copying SCF densities to generalized density rwf, IOpCl= 0 IROHF=0.

 **********************************************************************

            Population analysis using the SCF density.

 **********************************************************************

 Orbital symmetries:
       Occupied  (A) (A) (A) (A) (A) (A) (A) (A) (A) (A) (A) (A)
                 (A) (A) (A) (A) (A) (A) (A) (A) (A) (A) (A) (A)
                 (A) (A) (A) (A) (A) (A) (A) (A) (A) (A) (A) (A)
                 (A) (A) (A) (A) (A) (A) (A) (A) (A) (A) (A) (A)
                 (A) (A) (A) (A) (A) (A) (A) (A) (A) (A) (A) (A)
                 (A) (A) (A)
       Virtual   (A) (A) (A) (A) (A) (A) (A) (A) (A) (A) (A) (A)
                 (A) (A) (A) (A) (A) (A) (A) (A) (A) (A) (A) (A)
                 (A) (A) (A) (A) (A) (A) (A) (A) (A) (A) (A) (A)
                 (A) (A) (A) (A) (A) (A) (A) (A) (A) (A) (A) (A)
                 (A) (A) (A) (A) (A) (A) (A) (A) (A) (A) (A) (A)
                 (A) (A) (A) (A) (A) (A) (A) (A) (A) (A) (A) (A)
                 (A) (A) (A) (A) (A) (A) (A) (A) (A) (A) (A) (A)
                 (A) (A) (A) (A) (A) (A) (A) (A) (A) (A) (A) (A)
                 (A) (A) (A) (A) (A) (A) (A) (A) (A) (A) (A) (A)
                 (A) (A) (A) (A) (A) (A) (A) (A) (A) (A) (A) (A)
                 (A) (A) (A) (A) (A) (A) (A) (A) (A) (A) (A) (A)
                 (A) (A) (A) (A) (A) (A) (A) (A) (A) (A) (A) (A)
                 (A) (A) (A) (A) (A) (A) (A) (A) (A) (A) (A) (A)
                 (A) (A) (A) (A) (A) (A) (A) (A) (A) (A) (A) (A)
                 (A) (A) (A) (A) (A) (A) (A) (A) (A) (A) (A) (A)
                 (A) (A) (A) (A) (A) (A) (A) (A) (A) (A) (A) (A)
                 (A) (A) (A) (A) (A) (A) (A) (A) (A) (A) (A) (A)
                 (A) (A) (A) (A) (A) (A) (A) (A) (A) (A) (A) (A)
                 (A) (A) (A) (A) (A) (A) (A) (A) (A) (A) (A) (A)
                 (A) (A) (A) (A) (A) (A) (A) (A) (A) (A) (A) (A)
                 (A) (A) (A) (A) (A) (A) (A) (A) (A) (A) (A) (A)
                 (A) (A) (A) (A) (A) (A) (A) (A) (A) (A) (A) (A)
                 (A) (A) (A) (A) (A) (A) (A) (A) (A) (A) (A) (A)
                 (A) (A) (A) (A) (A) (A) (A) (A) (A) (A) (A) (A)
                 (A) (A) (A) (A) (A) (A) (A) (A) (A) (A) (A) (A)
                 (A) (A) (A) (A) (A) (A) (A) (A) (A) (A) (A) (A)
                 (A) (A) (A) (A) (A) (A) (A) (A) (A) (A) (A) (A)
                 (A) (A) (A) (A) (A) (A) (A) (A) (A) (A) (A) (A)
                 (A) (A) (A) (A) (A) (A) (A) (A) (A) (A) (A) (A)
                 (A) (A) (A) (A) (A) (A) (A) (A) (A) (A) (A) (A)
                 (A) (A) (A) (A) (A) (A) (A) (A) (A) (A) (A) (A)
                 (A) (A) (A) (A) (A) (A) (A) (A) (A) (A) (A) (A)
                 (A) (A) (A) (A) (A) (A) (A) (A) (A) (A) (A) (A)
                 (A) (A) (A) (A) (A) (A) (A) (A) (A) (A) (A) (A)
                 (A) (A) (A) (A) (A) (A) (A) (A) (A) (A) (A) (A)
                 (A) (A) (A) (A) (A) (A) (A) (A) (A) (A) (A) (A)
                 (A) (A) (A) (A) (A) (A) (A) (A) (A) (A) (A) (A)
                 (A) (A) (A) (A) (A) (A) (A) (A) (A) (A) (A) (A)
                 (A) (A) (A) (A) (A) (A) (A) (A) (A) (A) (A) (A)
                 (A) (A) (A) (A) (A) (A) (A) (A) (A) (A) (A) (A)
                 (A) (A) (A) (A) (A) (A) (A) (A) (A) (A) (A) (A)
                 (A) (A) (A) (A) (A) (A) (A) (A) (A) (A) (A) (A)
                 (A) (A) (A) (A) (A) (A) (A) (A) (A) (A) (A) (A)
                 (A) (A) (A) (A) (A) (A) (A) (A) (A) (A) (A) (A)
                 (A) (A) (A) (A) (A) (A) (A) (A) (A) (A) (A) (A)
                 (A) (A) (A) (A) (A) (A) (A) (A) (A) (A) (A) (A)
                 (A) (A) (A) (A) (A) (A) (A) (A) (A) (A) (A) (A)
                 (A) (A) (A) (A) (A) (A) (A) (A) (A) (A) (A) (A)
                 (A) (A) (A) (A) (A) (A) (A) (A) (A) (A) (A) (A)
                 (A) (A) (A) (A) (A) (A) (A) (A) (A) (A) (A) (A)
                 (A) (A) (A) (A) (A) (A) (A) (A) (A) (A) (A) (A)
                 (A) (A) (A) (A) (A) (A) (A) (A) (A) (A) (A) (A)
                 (A) (A) (A) (A) (A) (A) (A) (A) (A) (A) (A) (A)
                 (A) (A) (A) (A) (A) (A) (A) (A) (A) (A) (A) (A)
                 (A) (A) (A) (A) (A) (A) (A) (A) (A) (A) (A) (A)
                 (A) (A) (A) (A) (A) (A) (A) (A) (A) (A) (A) (A)
                 (A) (A) (A) (A) (A) (A) (A) (A) (A) (A) (A) (A)
                 (A) (A) (A) (A) (A) (A) (A) (A) (A) (A) (A) (A)
                 (A) (A) (A) (A) (A) (A) (A) (A) (A) (A) (A) (A)
                 (A) (A) (A) (A) (A) (A) (A) (A) (A) (A) (A) (A)
                 (A) (A) (A) (A) (A) (A) (A) (A) (A) (A) (A) (A)
                 (A) (A) (A) (A) (A) (A) (A) (A) (A) (A) (A) (A)
                 (A) (A) (A) (A) (A) (A) (A) (A) (A) (A) (A) (A)
                 (A) (A) (A) (A) (A) (A) (A) (A) (A) (A) (A) (A)
                 (A) (A) (A) (A) (A) (A) (A) (A) (A) (A) (A) (A)
                 (A) (A) (A) (A) (A) (A) (A) (A) (A) (A) (A) (A)
                 (A) (A) (A) (A) (A) (A) (A) (A) (A) (A) (A) (A)
                 (A) (A) (A) (A) (A) (A) (A) (A) (A) (A) (A) (A)
                 (A) (A) (A) (A) (A) (A) (A) (A) (A) (A) (A) (A)
                 (A) (A) (A) (A) (A) (A) (A) (A) (A) (A) (A) (A)
                 (A) (A) (A) (A) (A) (A) (A) (A) (A) (A) (A) (A)
                 (A) (A) (A) (A) (A) (A) (A) (A) (A) (A) (A) (A)
                 (A) (A) (A) (A) (A) (A) (A) (A) (A) (A) (A) (A)
                 (A) (A) (A) (A) (A) (A) (A) (A) (A) (A) (A) (A)
                 (A) (A) (A) (A) (A) (A) (A) (A) (A) (A) (A) (A)
                 (A) (A) (A) (A) (A) (A) (A) (A) (A) (A) (A) (A)
                 (A) (A) (A) (A) (A) (A) (A) (A) (A) (A) (A) (A)
                 (A) (A) (A) (A) (A) (A) (A) (A) (A) (A) (A) (A)
                 (A) (A) (A) (A) (A) (A) (A) (A) (A) (A) (A) (A)
                 (A) (A) (A) (A) (A) (A) (A) (A) (A) (A) (A) (A)
                 (A) (A) (A) (A) (A) (A) (A) (A) (A) (A) (A) (A)
                 (A) (A) (A) (A) (A) (A) (A) (A) (A) (A) (A) (A)
                 (A) (A) (A) (A) (A) (A) (A) (A) (A) (A) (A) (A)
                 (A) (A) (A) (A) (A) (A) (A) (A) (A)
 The electronic state is 1-A.
 Alpha  occ. eigenvalues --  -19.24268 -19.17691 -19.16327 -14.42876 -14.41418
 Alpha  occ. eigenvalues --  -10.34588 -10.32861 -10.30289 -10.29166 -10.26846
 Alpha  occ. eigenvalues --  -10.26282 -10.25078 -10.24546 -10.24479 -10.24191
 Alpha  occ. eigenvalues --  -10.24024 -10.23468  -1.08566  -1.05887  -1.04100
 Alpha  occ. eigenvalues --   -0.95814  -0.93431  -0.87373  -0.81625  -0.77125
 Alpha  occ. eigenvalues --   -0.76199  -0.73916  -0.71615  -0.66680  -0.63652
 Alpha  occ. eigenvalues --   -0.62227  -0.59617  -0.59415  -0.55949  -0.54829
 Alpha  occ. eigenvalues --   -0.52545  -0.50370  -0.49734  -0.47670  -0.47085
 Alpha  occ. eigenvalues --   -0.46948  -0.45593  -0.44839  -0.44257  -0.43401
 Alpha  occ. eigenvalues --   -0.42746  -0.42155  -0.41920  -0.41174  -0.40954
 Alpha  occ. eigenvalues --   -0.39708  -0.39060  -0.37668  -0.37357  -0.35834
 Alpha  occ. eigenvalues --   -0.34871  -0.34730  -0.29687  -0.27250  -0.27039
 Alpha  occ. eigenvalues --   -0.26744  -0.25402  -0.23234
 Alpha virt. eigenvalues --   -0.00705   0.00208   0.01200   0.02014   0.02472
 Alpha virt. eigenvalues --    0.02890   0.03598   0.04877   0.05366   0.06244
 Alpha virt. eigenvalues --    0.06638   0.07831   0.09258   0.09839   0.10404
 Alpha virt. eigenvalues --    0.10738   0.11908   0.12052   0.13077   0.13522
 Alpha virt. eigenvalues --    0.15491   0.16456   0.16487   0.17079   0.19496
 Alpha virt. eigenvalues --    0.20477   0.21299   0.21969   0.22131   0.23330
 Alpha virt. eigenvalues --    0.24132   0.24509   0.25270   0.25742   0.26715
 Alpha virt. eigenvalues --    0.27241   0.27415   0.28674   0.29310   0.30072
 Alpha virt. eigenvalues --    0.30709   0.31241   0.31895   0.32413   0.32583
 Alpha virt. eigenvalues --    0.32813   0.33856   0.34032   0.34658   0.35521
 Alpha virt. eigenvalues --    0.35832   0.36300   0.36665   0.37209   0.37601
 Alpha virt. eigenvalues --    0.38255   0.38528   0.38628   0.39358   0.39966
 Alpha virt. eigenvalues --    0.40535   0.40647   0.41211   0.41830   0.42035
 Alpha virt. eigenvalues --    0.42517   0.42910   0.42985   0.43077   0.44368
 Alpha virt. eigenvalues --    0.44951   0.45390   0.45692   0.46474   0.47231
 Alpha virt. eigenvalues --    0.48031   0.48658   0.49161   0.49921   0.50791
 Alpha virt. eigenvalues --    0.50809   0.51805   0.51946   0.52385   0.53653
 Alpha virt. eigenvalues --    0.54388   0.55067   0.55812   0.56386   0.57900
 Alpha virt. eigenvalues --    0.58601   0.58773   0.60046   0.60583   0.60852
 Alpha virt. eigenvalues --    0.62381   0.63080   0.63816   0.64636   0.65187
 Alpha virt. eigenvalues --    0.65823   0.66940   0.67643   0.68858   0.69345
 Alpha virt. eigenvalues --    0.69722   0.70729   0.71412   0.71802   0.72927
 Alpha virt. eigenvalues --    0.73551   0.73726   0.74117   0.75660   0.76942
 Alpha virt. eigenvalues --    0.77122   0.77303   0.77921   0.79473   0.80435
 Alpha virt. eigenvalues --    0.81380   0.81784   0.82519   0.82779   0.83252
 Alpha virt. eigenvalues --    0.84474   0.85148   0.85385   0.85817   0.86671
 Alpha virt. eigenvalues --    0.88329   0.89587   0.89873   0.90444   0.91057
 Alpha virt. eigenvalues --    0.91373   0.91932   0.93305   0.94233   0.94753
 Alpha virt. eigenvalues --    0.95608   0.96288   0.96847   0.96937   0.97503
 Alpha virt. eigenvalues --    0.98923   0.99225   0.99612   0.99814   1.01121
 Alpha virt. eigenvalues --    1.02432   1.03568   1.04092   1.05428   1.05758
 Alpha virt. eigenvalues --    1.06229   1.07004   1.07726   1.08660   1.09513
 Alpha virt. eigenvalues --    1.10707   1.11376   1.12637   1.13366   1.14248
 Alpha virt. eigenvalues --    1.14736   1.15281   1.16227   1.16365   1.16863
 Alpha virt. eigenvalues --    1.17722   1.18761   1.19014   1.19654   1.20707
 Alpha virt. eigenvalues --    1.21128   1.22086   1.22617   1.22800   1.22912
 Alpha virt. eigenvalues --    1.23833   1.24285   1.24939   1.25059   1.25193
 Alpha virt. eigenvalues --    1.25829   1.26299   1.26892   1.26908   1.27665
 Alpha virt. eigenvalues --    1.28260   1.28725   1.29518   1.30431   1.31411
 Alpha virt. eigenvalues --    1.31992   1.32892   1.33085   1.33435   1.34623
 Alpha virt. eigenvalues --    1.35515   1.36272   1.36650   1.37003   1.39232
 Alpha virt. eigenvalues --    1.40178   1.41462   1.42018   1.42750   1.43528
 Alpha virt. eigenvalues --    1.45008   1.46961   1.47679   1.48222   1.51121
 Alpha virt. eigenvalues --    1.52955   1.54209   1.54532   1.57052   1.58661
 Alpha virt. eigenvalues --    1.59744   1.60740   1.61115   1.62219   1.62656
 Alpha virt. eigenvalues --    1.65055   1.66057   1.67840   1.69576   1.72668
 Alpha virt. eigenvalues --    1.73170   1.75156   1.76237   1.77727   1.79962
 Alpha virt. eigenvalues --    1.80973   1.81728   1.82746   1.83834   1.86152
 Alpha virt. eigenvalues --    1.86493   1.88412   1.89073   1.89585   1.90558
 Alpha virt. eigenvalues --    1.92493   1.92792   1.93552   1.96367   1.96949
 Alpha virt. eigenvalues --    1.97428   1.99285   2.01327   2.02107   2.02588
 Alpha virt. eigenvalues --    2.03813   2.04993   2.06543   2.07397   2.10204
 Alpha virt. eigenvalues --    2.11327   2.11962   2.12910   2.14299   2.15116
 Alpha virt. eigenvalues --    2.16167   2.17577   2.18318   2.20725   2.21043
 Alpha virt. eigenvalues --    2.21674   2.23923   2.25374   2.26373   2.27179
 Alpha virt. eigenvalues --    2.28605   2.29454   2.29937   2.32585   2.33784
 Alpha virt. eigenvalues --    2.35294   2.36009   2.36635   2.37724   2.38859
 Alpha virt. eigenvalues --    2.39642   2.40641   2.41863   2.43077   2.43505
 Alpha virt. eigenvalues --    2.44335   2.45829   2.46768   2.48662   2.49173
 Alpha virt. eigenvalues --    2.50343   2.50594   2.51917   2.53024   2.54662
 Alpha virt. eigenvalues --    2.56685   2.56830   2.57338   2.58002   2.61503
 Alpha virt. eigenvalues --    2.63488   2.63921   2.64544   2.66776   2.67186
 Alpha virt. eigenvalues --    2.68160   2.68968   2.69349   2.70030   2.70403
 Alpha virt. eigenvalues --    2.70837   2.71414   2.71602   2.72263   2.73391
 Alpha virt. eigenvalues --    2.73462   2.74411   2.75130   2.75576   2.76634
 Alpha virt. eigenvalues --    2.77206   2.77817   2.79258   2.79926   2.81153
 Alpha virt. eigenvalues --    2.82648   2.83676   2.84110   2.84929   2.86758
 Alpha virt. eigenvalues --    2.86915   2.87969   2.88879   2.89476   2.89616
 Alpha virt. eigenvalues --    2.89982   2.91229   2.92179   2.92265   2.92562
 Alpha virt. eigenvalues --    2.92697   2.94271   2.95052   2.95848   2.96617
 Alpha virt. eigenvalues --    2.96798   2.97178   2.97982   2.98511   2.99307
 Alpha virt. eigenvalues --    2.99512   3.00114   3.00925   3.01970   3.02295
 Alpha virt. eigenvalues --    3.03055   3.03201   3.03948   3.04675   3.05301
 Alpha virt. eigenvalues --    3.05896   3.06722   3.07178   3.08623   3.09279
 Alpha virt. eigenvalues --    3.10553   3.11395   3.11862   3.12238   3.13522
 Alpha virt. eigenvalues --    3.14203   3.14628   3.15696   3.16946   3.18128
 Alpha virt. eigenvalues --    3.18220   3.18443   3.19417   3.19947   3.20732
 Alpha virt. eigenvalues --    3.21643   3.22572   3.23491   3.24496   3.24937
 Alpha virt. eigenvalues --    3.26556   3.26807   3.27539   3.27760   3.28463
 Alpha virt. eigenvalues --    3.29021   3.29347   3.29709   3.30861   3.31511
 Alpha virt. eigenvalues --    3.32403   3.32779   3.33246   3.33898   3.33986
 Alpha virt. eigenvalues --    3.34861   3.35538   3.37080   3.37820   3.38720
 Alpha virt. eigenvalues --    3.40733   3.41003   3.41789   3.42443   3.43296
 Alpha virt. eigenvalues --    3.43460   3.44208   3.45156   3.45801   3.46633
 Alpha virt. eigenvalues --    3.47119   3.47958   3.49265   3.50661   3.51742
 Alpha virt. eigenvalues --    3.52855   3.53509   3.54229   3.55170   3.56789
 Alpha virt. eigenvalues --    3.58004   3.58705   3.59051   3.60327   3.61348
 Alpha virt. eigenvalues --    3.61533   3.63314   3.64012   3.66177   3.66361
 Alpha virt. eigenvalues --    3.67537   3.68875   3.69564   3.70181   3.70841
 Alpha virt. eigenvalues --    3.71728   3.72431   3.73534   3.73777   3.73921
 Alpha virt. eigenvalues --    3.75435   3.75802   3.76504   3.76989   3.77603
 Alpha virt. eigenvalues --    3.78799   3.79073   3.80081   3.80860   3.82408
 Alpha virt. eigenvalues --    3.82878   3.82926   3.84306   3.85499   3.85970
 Alpha virt. eigenvalues --    3.86271   3.87431   3.87868   3.88575   3.89679
 Alpha virt. eigenvalues --    3.90902   3.91231   3.92892   3.94063   3.94561
 Alpha virt. eigenvalues --    3.95066   3.96542   3.98139   3.98897   4.00336
 Alpha virt. eigenvalues --    4.01009   4.02668   4.03148   4.05183   4.05793
 Alpha virt. eigenvalues --    4.06073   4.06748   4.07086   4.07488   4.08630
 Alpha virt. eigenvalues --    4.09973   4.10239   4.12287   4.12710   4.14387
 Alpha virt. eigenvalues --    4.15096   4.15546   4.16575   4.18088   4.19202
 Alpha virt. eigenvalues --    4.19711   4.20003   4.21336   4.21775   4.23243
 Alpha virt. eigenvalues --    4.23517   4.24573   4.25037   4.25205   4.26637
 Alpha virt. eigenvalues --    4.27321   4.28802   4.29005   4.29956   4.30528
 Alpha virt. eigenvalues --    4.31404   4.33900   4.34983   4.36795   4.37864
 Alpha virt. eigenvalues --    4.39258   4.40456   4.42503   4.42837   4.44880
 Alpha virt. eigenvalues --    4.45731   4.46681   4.48106   4.49723   4.50517
 Alpha virt. eigenvalues --    4.52625   4.54925   4.56180   4.58349   4.58620
 Alpha virt. eigenvalues --    4.59393   4.60430   4.61538   4.62899   4.64753
 Alpha virt. eigenvalues --    4.65403   4.66208   4.67161   4.67676   4.68628
 Alpha virt. eigenvalues --    4.69158   4.69873   4.70029   4.71473   4.71746
 Alpha virt. eigenvalues --    4.73800   4.75153   4.75524   4.77840   4.79292
 Alpha virt. eigenvalues --    4.81047   4.81716   4.82889   4.86277   4.86958
 Alpha virt. eigenvalues --    4.87465   4.88036   4.90258   4.90864   4.91284
 Alpha virt. eigenvalues --    4.91539   4.93671   4.94299   4.94871   4.96645
 Alpha virt. eigenvalues --    4.98268   4.98946   4.99493   5.01460   5.03407
 Alpha virt. eigenvalues --    5.03723   5.05056   5.06799   5.07260   5.08786
 Alpha virt. eigenvalues --    5.10496   5.11283   5.12464   5.13755   5.14767
 Alpha virt. eigenvalues --    5.16048   5.17183   5.17325   5.18160   5.19957
 Alpha virt. eigenvalues --    5.21492   5.23496   5.24761   5.25287   5.28699
 Alpha virt. eigenvalues --    5.29855   5.33726   5.36011   5.36608   5.38459
 Alpha virt. eigenvalues --    5.42012   5.43489   5.44876   5.46351   5.49013
 Alpha virt. eigenvalues --    5.52197   5.52591   5.53224   5.54702   5.55740
 Alpha virt. eigenvalues --    5.56742   5.58941   5.59410   5.61144   5.61846
 Alpha virt. eigenvalues --    5.63560   5.64928   5.65950   5.66856   5.67775
 Alpha virt. eigenvalues --    5.68489   5.69029   5.72491   5.73289   5.73864
 Alpha virt. eigenvalues --    5.75643   5.77405   5.79408   5.81898   5.82803
 Alpha virt. eigenvalues --    5.85116   5.88574   5.90735   5.93641   5.97243
 Alpha virt. eigenvalues --    5.97951   5.99397   6.04205   6.07052   6.11267
 Alpha virt. eigenvalues --    6.18025   6.19327   6.20774   6.22503   6.26567
 Alpha virt. eigenvalues --    6.46828   6.47332   6.52224   6.53181   6.56845
 Alpha virt. eigenvalues --    6.61389   6.62525   6.63044   6.64608   6.66877
 Alpha virt. eigenvalues --    6.78969   6.80435   6.80897   6.88815   6.89312
 Alpha virt. eigenvalues --    6.91235   6.91789   6.92650   6.94062   7.07388
 Alpha virt. eigenvalues --    7.17926   7.19927   7.22632   7.28185   7.30198
 Alpha virt. eigenvalues --    7.68110   8.00927   8.11413   8.12952   8.13360
 Alpha virt. eigenvalues --    8.19834   8.24641   8.30082   8.38599   8.66775
 Alpha virt. eigenvalues --    8.74648   8.75938   8.77450   8.81528   8.82462
 Alpha virt. eigenvalues --    8.84014   8.84912   8.87305   8.88542   8.90568
 Alpha virt. eigenvalues --    8.93156   8.96172   8.98217   9.02265   9.03093
 Alpha virt. eigenvalues --    9.08585   9.13354   9.18482   9.21990   9.32106
 Alpha virt. eigenvalues --    9.36338   9.41051   9.41838   9.46330   9.48995
 Alpha virt. eigenvalues --    9.58933   9.62063   9.78201   9.82034  10.04315
 Alpha virt. eigenvalues --   10.08550  10.12157  10.13579  10.14948  10.17486
 Alpha virt. eigenvalues --   10.19203  10.20026  10.20618  10.26565  10.28645
 Alpha virt. eigenvalues --   10.30032  10.32811  10.83271  11.72625  11.77748
 Alpha virt. eigenvalues --   11.80191  11.93230  12.00108  12.01882  12.13171
 Alpha virt. eigenvalues --   12.17398  12.22655  12.24813  12.30381  12.31372
 Alpha virt. eigenvalues --   12.44386  12.55475  12.60547  12.83389  12.87824
 Alpha virt. eigenvalues --   12.91920  14.85323  14.95403  15.02961  15.23737
 Alpha virt. eigenvalues --   15.27142  15.42883  15.98468  15.99603  16.03874
 Alpha virt. eigenvalues --   16.82790  16.90079  21.90472  22.00868  22.08603
 Alpha virt. eigenvalues --   40.12638  40.16656  40.20744  40.21903  40.25689
[...]
          Condensed to atoms (all electrons):
               1          2          3          4          5          6
     1  C    5.405448   0.204281   0.018530  -0.040122  -0.018563   0.304885
     2  C    0.204281   5.488207   0.215909  -0.000165  -0.041995   0.039971
     3  C    0.018530   0.215909   5.307323   0.342994  -0.037479  -0.075711
     4  C   -0.040122  -0.000165   0.342994   5.114101   0.449474  -0.022940
     5  C   -0.018563  -0.041995  -0.037479   0.449474   5.036132   0.388456
     6  C    0.304885   0.039971  -0.075711  -0.022940   0.388456   4.858834
     7  H    0.450181  -0.037594   0.009181  -0.000688   0.004352  -0.070697
     8  H   -0.021785   0.444963  -0.089980   0.005023  -0.001244   0.007289
     9  H   -0.003727   0.009135  -0.091753   0.453198  -0.031924   0.011523
    10  H    0.013830  -0.005620   0.014029  -0.055895   0.452324  -0.079606
    11  C    0.006020  -0.036260   0.286364  -0.059482   0.002926  -0.001130
    12  H    0.000029  -0.002918  -0.045381   0.006874   0.000148  -0.000005
    13  H   -0.000343   0.007007  -0.022028  -0.010700  -0.000128   0.000082
    14  C    0.000903  -0.022268  -0.043650   0.002710   0.002069  -0.000319
    15  H   -0.000126   0.001473  -0.008997   0.001693   0.000223   0.000028
    16  C    0.000950  -0.000870   0.037034  -0.002382   0.000146  -0.000584
    17  O   -0.089338   0.013255  -0.000494   0.002557  -0.048503   0.392730
    18  H   -0.005552   0.004690  -0.000464  -0.000649   0.002196  -0.043013
    19  O    0.001701  -0.007145  -0.000400   0.001239   0.000499  -0.000607
    20  N   -0.000018   0.000355   0.005407  -0.000490  -0.000040   0.000002
    21  H    0.000000  -0.000105   0.001564   0.000076   0.000007  -0.000001
    22  N   -0.000457   0.005462  -0.017986  -0.000193  -0.000056   0.000121
    23  H   -0.000067   0.000275  -0.000048   0.000007   0.000003   0.000002
    24  C    0.000003  -0.000069  -0.000089   0.000009   0.000001   0.000000
    25  C    0.000000   0.000001   0.000007  -0.000002   0.000000   0.000000
    26  H    0.000000   0.000000  -0.000002   0.000000   0.000000   0.000000
    27  H    0.000000   0.000000   0.000000   0.000000   0.000000   0.000000
    28  H    0.000000  -0.000001  -0.000005   0.000001   0.000000   0.000000
    29  C   -0.000109  -0.000756   0.000824  -0.000020   0.000009  -0.000022
    30  H    0.000848  -0.000801   0.001658  -0.000048   0.000017  -0.000118
    31  H   -0.000009  -0.000054   0.000069   0.000005   0.000000  -0.000001
    32  H   -0.000022   0.000205  -0.000148  -0.000009  -0.000003   0.000004
    33  O    0.000000   0.000003   0.000055  -0.000025   0.000000   0.000000
               7          8          9         10         11         12
     1  C    0.450181  -0.021785  -0.003727   0.013830   0.006020   0.000029
     2  C   -0.037594   0.444963   0.009135  -0.005620  -0.036260  -0.002918
     3  C    0.009181  -0.089980  -0.091753   0.014029   0.286364  -0.045381
     4  C   -0.000688   0.005023   0.453198  -0.055895  -0.059482   0.006874
     5  C    0.004352  -0.001244  -0.031924   0.452324   0.002926   0.000148
     6  C   -0.070697   0.007289   0.011523  -0.079606  -0.001130  -0.000005
     7  H    0.539474  -0.007017   0.000046  -0.000245  -0.000360  -0.000070
     8  H   -0.007017   0.491791  -0.000249   0.000054   0.004141   0.001506
     9  H    0.000046  -0.000249   0.512364  -0.009501   0.003041   0.000335
    10  H   -0.000245   0.000054  -0.009501   0.546620  -0.000233   0.000019
    11  C   -0.000360   0.004141   0.003041  -0.000233   5.337933   0.413297
    12  H   -0.000070   0.001506   0.000335   0.000019   0.413297   0.474695
    13  H    0.000013   0.000769   0.000533  -0.000021   0.422194  -0.016745
    14  C    0.000032  -0.002060  -0.000998   0.000026   0.186742  -0.023705
    15  H   -0.000002   0.000000   0.001500   0.000009  -0.004943   0.004542
    16  C    0.000081  -0.000417  -0.000385   0.000016  -0.067080  -0.013547
    17  O   -0.004139  -0.000122  -0.000139   0.006457   0.000003  -0.000001
    18  H    0.004601  -0.000005   0.000047  -0.000977  -0.000006   0.000000
    19  O    0.000070  -0.000788  -0.000347   0.000048  -0.002878   0.000280
    20  N    0.000000  -0.000118  -0.000210   0.000000  -0.044460  -0.006208
    21  H    0.000000   0.000010   0.000029   0.000000  -0.002031   0.003207
    22  N   -0.000075   0.004453  -0.000016   0.000000   0.025703   0.000869
    23  H   -0.000003   0.000220   0.000007   0.000000   0.001782   0.003909
    24  C    0.000000  -0.000032  -0.000020   0.000000   0.006409  -0.000549
    25  C    0.000000  -0.000001  -0.000003   0.000000   0.000097  -0.000054
    26  H    0.000000   0.000000   0.000000   0.000000  -0.000001   0.000015
    27  H    0.000000   0.000000   0.000000   0.000000  -0.000016  -0.000021
    28  H    0.000000   0.000000   0.000000   0.000000  -0.000282  -0.000026
    29  C    0.000011   0.000186  -0.000001   0.000000  -0.001108  -0.000322
    30  H    0.000162  -0.001126   0.000000   0.000001  -0.001145  -0.000093
    31  H    0.000001  -0.000024   0.000000   0.000000  -0.000091   0.000014
    32  H   -0.000005   0.000120   0.000000   0.000000   0.000329   0.000007
    33  O    0.000000   0.000001  -0.000010   0.000000   0.002146   0.000001
              13         14         15         16         17         18
     1  C   -0.000343   0.000903  -0.000126   0.000950  -0.089338  -0.005552
     2  C    0.007007  -0.022268   0.001473  -0.000870   0.013255   0.004690
     3  C   -0.022028  -0.043650  -0.008997   0.037034  -0.000494  -0.000464
     4  C   -0.010700   0.002710   0.001693  -0.002382   0.002557  -0.000649
     5  C   -0.000128   0.002069   0.000223   0.000146  -0.048503   0.002196
     6  C    0.000082  -0.000319   0.000028  -0.000584   0.392730  -0.043013
     7  H    0.000013   0.000032  -0.000002   0.000081  -0.004139   0.004601
     8  H    0.000769  -0.002060   0.000000  -0.000417  -0.000122  -0.000005
     9  H    0.000533  -0.000998   0.001500  -0.000385  -0.000139   0.000047
    10  H   -0.000021   0.000026   0.000009   0.000016   0.006457  -0.000977
    11  C    0.422194   0.186742  -0.004943  -0.067080   0.000003  -0.000006
    12  H   -0.016745  -0.023705   0.004542  -0.013547  -0.000001   0.000000
    13  H    0.484627  -0.068974  -0.007780   0.011292  -0.000001   0.000000
    14  C   -0.068974   5.481817   0.435527   0.194431   0.000000   0.000000
    15  H   -0.007780   0.435527   0.443014  -0.074660   0.000000   0.000000
    16  C    0.011292   0.194431  -0.074660   4.825061   0.000001  -0.000001
    17  O   -0.000001   0.000000   0.000000   0.000001   7.662559   0.359328
    18  H    0.000000   0.000000   0.000000  -0.000001   0.359328   0.492537
    19  O   -0.000560  -0.065880   0.008019   0.730949   0.000000   0.000000
    20  N    0.002377   0.167053  -0.035078  -0.044688   0.000000   0.000000
    21  H    0.002838  -0.024383   0.000816   0.003789   0.000000   0.000000
    22  N   -0.000137  -0.113973   0.008329   0.247393   0.000000   0.000000
    23  H   -0.000218  -0.002964   0.000640  -0.026473   0.000000   0.000000
    24  C   -0.001161  -0.077979  -0.001388  -0.004504   0.000000   0.000000
    25  C   -0.000067   0.009417   0.001321  -0.002788   0.000000   0.000000
    26  H   -0.000021  -0.000178   0.000136  -0.000192   0.000000   0.000000
    27  H    0.000008  -0.000561  -0.000148   0.000561   0.000000   0.000000
    28  H   -0.000018   0.001153  -0.000208   0.000058   0.000000   0.000000
    29  C    0.000058   0.009563  -0.000592  -0.052338   0.000000   0.000000
    30  H   -0.000022   0.000703  -0.000145   0.002201  -0.000001   0.000000
    31  H    0.000001   0.000572  -0.000008   0.009812   0.000000   0.000000
    32  H    0.000012   0.000200   0.000041  -0.006997   0.000000   0.000000
    33  O   -0.000047   0.013904   0.010917   0.000797   0.000000   0.000000
              19         20         21         22         23         24
     1  C    0.001701  -0.000018   0.000000  -0.000457  -0.000067   0.000003
     2  C   -0.007145   0.000355  -0.000105   0.005462   0.000275  -0.000069
     3  C   -0.000400   0.005407   0.001564  -0.017986  -0.000048  -0.000089
     4  C    0.001239  -0.000490   0.000076  -0.000193   0.000007   0.000009
     5  C    0.000499  -0.000040   0.000007  -0.000056   0.000003   0.000001
     6  C   -0.000607   0.000002  -0.000001   0.000121   0.000002   0.000000
     7  H    0.000070   0.000000   0.000000  -0.000075  -0.000003   0.000000
     8  H   -0.000788  -0.000118   0.000010   0.004453   0.000220  -0.000032
     9  H   -0.000347  -0.000210   0.000029  -0.000016   0.000007  -0.000020
    10  H    0.000048   0.000000   0.000000   0.000000   0.000000   0.000000
    11  C   -0.002878  -0.044460  -0.002031   0.025703   0.001782   0.006409
    12  H    0.000280  -0.006208   0.003207   0.000869   0.003909  -0.000549
    13  H   -0.000560   0.002377   0.002838  -0.000137  -0.000218  -0.001161
    14  C   -0.065880   0.167053  -0.024383  -0.113973  -0.002964  -0.077979
    15  H    0.008019  -0.035078   0.000816   0.008329   0.000640  -0.001388
    16  C    0.730949  -0.044688   0.003789   0.247393  -0.026473  -0.004504
    17  O    0.000000   0.000000   0.000000   0.000000   0.000000   0.000000
    18  H    0.000000   0.000000   0.000000   0.000000   0.000000   0.000000
    19  O    7.808899   0.004905  -0.000343  -0.130574   0.005591  -0.001748
    20  N    0.004905   6.680780   0.353117   0.002636   0.023635   0.316200
    21  H   -0.000343   0.353117   0.522807  -0.001631  -0.000306  -0.016469
    22  N   -0.130574   0.002636  -0.001631   6.554304   0.374204   0.014031
    23  H    0.005591   0.023635  -0.000306   0.374204   0.529662  -0.003405
    24  C   -0.001748   0.316200  -0.016469   0.014031  -0.003405   4.602487
    25  C   -0.000017  -0.067275  -0.000970  -0.000108   0.000461   0.273071
    26  H    0.000001  -0.000251  -0.000390   0.000005   0.000095  -0.026274
    27  H   -0.000004  -0.000871   0.000416   0.000203  -0.000380  -0.023035
    28  H    0.000001   0.013381  -0.000762   0.000040   0.000071  -0.058602
    29  C    0.008122  -0.001624   0.000101   0.289326  -0.034031  -0.000072
    30  H    0.004688  -0.000174   0.000009  -0.057741   0.001832   0.000200
    31  H    0.001654  -0.000168   0.000036  -0.029840  -0.007990  -0.000065
    32  H    0.005235  -0.000080   0.000003  -0.044602   0.002834  -0.000515
    33  O   -0.000917  -0.134186   0.004929  -0.004461  -0.002158   0.725629
              25         26         27         28         29         30
     1  C    0.000000   0.000000   0.000000   0.000000  -0.000109   0.000848
     2  C    0.000001   0.000000   0.000000  -0.000001  -0.000756  -0.000801
     3  C    0.000007  -0.000002   0.000000  -0.000005   0.000824   0.001658
     4  C   -0.000002   0.000000   0.000000   0.000001  -0.000020  -0.000048
     5  C    0.000000   0.000000   0.000000   0.000000   0.000009   0.000017
     6  C    0.000000   0.000000   0.000000   0.000000  -0.000022  -0.000118
     7  H    0.000000   0.000000   0.000000   0.000000   0.000011   0.000162
     8  H   -0.000001   0.000000   0.000000   0.000000   0.000186  -0.001126
     9  H   -0.000003   0.000000   0.000000   0.000000  -0.000001   0.000000
    10  H    0.000000   0.000000   0.000000   0.000000   0.000000   0.000001
    11  C    0.000097  -0.000001  -0.000016  -0.000282  -0.001108  -0.001145
    12  H   -0.000054   0.000015  -0.000021  -0.000026  -0.000322  -0.000093
    13  H   -0.000067  -0.000021   0.000008  -0.000018   0.000058  -0.000022
    14  C    0.009417  -0.000178  -0.000561   0.001153   0.009563   0.000703
    15  H    0.001321   0.000136  -0.000148  -0.000208  -0.000592  -0.000145
    16  C   -0.002788  -0.000192   0.000561   0.000058  -0.052338   0.002201
    17  O    0.000000   0.000000   0.000000   0.000000   0.000000  -0.000001
    18  H    0.000000   0.000000   0.000000   0.000000   0.000000   0.000000
    19  O   -0.000017   0.000001  -0.000004   0.000001   0.008122   0.004688
    20  N   -0.067275  -0.000251  -0.000871   0.013381  -0.001624  -0.000174
    21  H   -0.000970  -0.000390   0.000416  -0.000762   0.000101   0.000009
    22  N   -0.000108   0.000005   0.000203   0.000040   0.289326  -0.057741
    23  H    0.000461   0.000095  -0.000380   0.000071  -0.034031   0.001832
    24  C    0.273071  -0.026274  -0.023035  -0.058602  -0.000072   0.000200
    25  C    5.004645   0.389791   0.382907   0.394710  -0.000048   0.000000
    26  H    0.389791   0.561610  -0.022907  -0.025337  -0.000002   0.000000
    27  H    0.382907  -0.022907   0.570071  -0.027087   0.000020   0.000002
    28  H    0.394710  -0.025337  -0.027087   0.602118  -0.000001   0.000000
    29  C   -0.000048  -0.000002   0.000020  -0.000001   4.777508   0.390762
    30  H    0.000000   0.000000   0.000002   0.000000   0.390762   0.626712
    31  H   -0.000010   0.000000   0.000007   0.000001   0.391504  -0.028329
    32  H   -0.000008  -0.000001  -0.000005  -0.000001   0.405296  -0.055089
    33  O   -0.068589   0.001473   0.001735   0.004495   0.000192   0.000007
              31         32         33
     1  C   -0.000009  -0.000022   0.000000
     2  C   -0.000054   0.000205   0.000003
     3  C    0.000069  -0.000148   0.000055
     4  C    0.000005  -0.000009  -0.000025
     5  C    0.000000  -0.000003   0.000000
     6  C   -0.000001   0.000004   0.000000
     7  H    0.000001  -0.000005   0.000000
     8  H   -0.000024   0.000120   0.000001
     9  H    0.000000   0.000000  -0.000010
    10  H    0.000000   0.000000   0.000000
    11  C   -0.000091   0.000329   0.002146
    12  H    0.000014   0.000007   0.000001
    13  H    0.000001   0.000012  -0.000047
    14  C    0.000572   0.000200   0.013904
    15  H   -0.000008   0.000041   0.010917
    16  C    0.009812  -0.006997   0.000797
    17  O    0.000000   0.000000   0.000000
    18  H    0.000000   0.000000   0.000000
    19  O    0.001654   0.005235  -0.000917
    20  N   -0.000168  -0.000080  -0.134186
    21  H    0.000036   0.000003   0.004929
    22  N   -0.029840  -0.044602  -0.004461
    23  H   -0.007990   0.002834  -0.002158
    24  C   -0.000065  -0.000515   0.725629
    25  C   -0.000010  -0.000008  -0.068589
    26  H    0.000000  -0.000001   0.001473
    27  H    0.000007  -0.000005   0.001735
    28  H    0.000001  -0.000001   0.004495
    29  C    0.391504   0.405296   0.000192
    30  H   -0.028329  -0.055089   0.000007
    31  H    0.606403  -0.027524   0.000004
    32  H   -0.027524   0.597016   0.000366
    33  O    0.000004   0.000366   7.820089
 Mulliken charges:
               1
     1  C   -0.227370
     2  C   -0.278573
     3  C    0.193668
     4  C   -0.186153
     5  C   -0.159045
     6  C    0.290827
     7  H    0.112690
     8  H    0.164440
     9  H    0.147527
    10  H    0.118667
    11  C   -0.477618
    12  H    0.199898
    13  H    0.197157
    14  C   -0.058932
    15  H    0.215847
    16  C    0.233337
    17  O   -0.294151
    18  H    0.187270
    19  O   -0.369692
    20  N   -0.233908
    21  H    0.153635
    22  N   -0.125229
    23  H    0.132812
    24  C    0.277937
    25  C   -0.316489
    26  H    0.122431
    27  H    0.119105
    28  H    0.096298
    29  C   -0.182437
    30  H    0.115031
    31  H    0.084029
    32  H    0.123341
    33  O   -0.376349
 Sum of Mulliken charges =   0.00000
 Mulliken charges with hydrogens summed into heavy atoms:
               1
     1  C   -0.114681
     2  C   -0.114133
     3  C    0.193668
     4  C   -0.038626
     5  C   -0.040378
     6  C    0.290827
    11  C   -0.080563
    14  C    0.156915
    16  C    0.233337
    17  O   -0.106880
    19  O   -0.369692
    20  N   -0.080274
    22  N    0.007583
    24  C    0.277937
    25  C    0.021345
    29  C    0.139964
    33  O   -0.376349
 Electronic spatial extent (au):  <R**2>=           4977.4680
 Charge=              0.0000 electrons
 Dipole moment (field-independent basis, Debye):
    X=             -1.1607    Y=             -0.0491    Z=             -6.7767  Tot=              6.8756
 Quadrupole moment (field-independent basis, Debye-Ang):
   XX=            -90.4065   YY=            -89.7784   ZZ=           -105.8635
   XY=              8.8680   XZ=              9.6535   YZ=             -5.6715
 Traceless Quadrupole moment (field-independent basis, Debye-Ang):
   XX=              4.9429   YY=              5.5711   ZZ=            -10.5140
   XY=              8.8680   XZ=              9.6535   YZ=             -5.6715
 Octapole moment (field-independent basis, Debye-Ang**2):
  XXX=             -7.7173  YYY=             22.0554  ZZZ=             -8.3384  XYY=             -9.5514
  XXY=             31.8565  XXZ=            -56.8821  XZZ=              1.4771  YZZ=             -1.5909
  YYZ=              1.7660  XYZ=            -11.0713
 Hexadecapole moment (field-independent basis, Debye-Ang**3):
 XXXX=          -4477.2955 YYYY=          -1018.2859 ZZZZ=           -518.0495 XXXY=            316.5227
 XXXZ=             16.6246 YYYX=              2.7752 YYYZ=            -14.8952 ZZZX=             45.8604
 ZZZY=             -9.6836 XXYY=           -907.2889 XXZZ=           -959.1731 YYZZ=           -253.6459
 XXYZ=            -33.0380 YYXZ=             15.3489 ZZXY=              2.4347
 N-N= 1.222058308826D+03 E-N=-4.314802788589D+03  KE= 7.961843010639D+02
 Calculating spin-rotation constants.
 Leave Link  601 at Wed Jun 25 06:31:34 2014, MaxMem=  4294967296 cpu:        91.9
 (Enter /home/ztw1e12/g09/l9999.exe)

 Test job not archived.
 1\1\GINC-GREEN0719\SP\RM06\Gen\C12H16N2O3\ROOT\25-Jun-2014\0\\#P Geom=
 AllCheck Guess=TCheck SCRF=Check GenChk RM06/ChkBas NMR=ReadFC IOp(3/6
 =22)\\NMR spin-spin scan\\0,1\C,0,2.60208,-1.073746,1.988167\C,0,2.023
 232,-0.236117,1.04882\C,0,1.425924,-0.742418,-0.096519\C,0,1.428211,-2
 .121473,-0.28257\C,0,2.000705,-2.970774,0.64318\C,0,2.588158,-2.44471,
 1.786018\H,0,3.069866,-0.668855,2.878158\H,0,2.041825,0.835658,1.21291
 1\H,0,0.966416,-2.536591,-1.172073\H,0,2.002002,-4.043159,0.494803\C,0
 ,0.738392,0.151489,-1.0803\H,0,1.046283,1.188804,-0.913701\H,0,1.01353
 5,-0.110008,-2.105264\C,0,-0.789458,0.092628,-0.986081\H,0,-1.141762,-
 0.891559,-1.308565\C,0,-1.232155,0.227129,0.463321\O,0,3.141248,-3.320
 108,2.671449\H,0,3.516291,-2.834648,3.414935\O,0,-1.447728,-0.773382,1
 .14476\N,0,-1.34266,1.11944,-1.839858\H,0,-0.710986,1.707372,-2.362235
 \N,0,-1.3043,1.464975,0.956738\H,0,-1.138323,2.246276,0.342404\C,0,-2.
 667495,1.213708,-2.064751\C,0,-3.104801,2.250322,-3.045133\H,0,-3.6523
 09,1.7592,-3.849379\H,0,-3.794555,2.935294,-2.552639\H,0,-2.277357,2.8
 15487,-3.46879\C,0,-1.607193,1.703364,2.349342\H,0,-0.869204,1.222195,
 2.993469\H,0,-1.591143,2.772811,2.535658\H,0,-2.592603,1.317086,2.6116
 27\O,0,-3.469291,0.481842,-1.489032\\Version=EM64L-G09RevD.01\State=1-
 A\HF=-801.8598023\RMSD=4.956e-09\Dipole=1.4050758,2.2244358,-0.6284533
 \Quadrupole=-11.7351028,2.7076432,9.0274597,-3.8879551,5.4300153,-0.87
 91325\PG=C01 [X(C12H16N2O3)]\\@


 I MET A TRAVELLER FROM AN ANTIQUE LAND
 WHO SAID... TWO VAST AND TRUNKLESS LEGS OF STONE
 STAND IN THE DESERT..... NEAR THEM,  ON THE SAND,
 HALF SUNK,  A SHATTERED VISAGE LIES,  WHOSE FROWN,
 AND WRINKLED LIP,  AND SNEER OF COLD COMMAND
 TELL THAT ITS SCULPTOR WELL THOSE PASSIONS READ
 WHICH YET SURVIVE,  STAMPED ON THESE LIFELESS THINGS
 THE HAND THAT MOCKED THEM,  AND THE HEART THAT FED-
 AND ON THE PEDESTAL THESE WORDS APPEAR 
 MY NAME IS OZYMANDIAS, KING OF KINGS--   
 LOOK ON MY WORKS YE MIGHTY AND DESPAIR. 
 NOTHING BESIDE REMAINS,  ROUND THE DECAY 
 OF THAT COLOSSAL WRECK,  BOUNDLESS AND BARE
 THE LONE AND LEVEL SANDS STRETCH FAR AWAY.
                                    SHELLEY
 Job cpu time:       3 days  8 hours 42 minutes 38.3 seconds.
 File lengths (MBytes):  RWF=   3656 Int=      0 D2E=      0 Chk=     64 Scr=      8
 Normal termination of Gaussian 09 at Wed Jun 25 06:31:34 2014.
