 Entering Gaussian System, Link 0=g09
 Input=scan_input_4.gjf
 Output=scan_input_4.log
 Initial command:
 /home/ztw1e12/g09/l1.exe "/home/ztw1e12/tyrosine_scan/tyrosine_chi1_scan/Gau-16294.inp" -scrdir="/home/ztw1e12/tyrosine_scan/tyrosine_chi1_scan/"
 Default is to use a total of   8 processors:
                                8 via shared-memory
                                1 via Linda
 Entering Link 1 = /home/ztw1e12/g09/l1.exe PID=     16295.
  
 Copyright (c) 1988,1990,1992,1993,1995,1998,2003,2009,2013,
            Gaussian, Inc.  All Rights Reserved.
  
 This is part of the Gaussian(R) 09 program.  It is based on
 the Gaussian(R) 03 system (copyright 2003, Gaussian, Inc.),
 the Gaussian(R) 98 system (copyright 1998, Gaussian, Inc.),
 the Gaussian(R) 94 system (copyright 1995, Gaussian, Inc.),
 the Gaussian 92(TM) system (copyright 1992, Gaussian, Inc.),
 the Gaussian 90(TM) system (copyright 1990, Gaussian, Inc.),
 the Gaussian 88(TM) system (copyright 1988, Gaussian, Inc.),
 the Gaussian 86(TM) system (copyright 1986, Carnegie Mellon
 University), and the Gaussian 82(TM) system (copyright 1983,
 Carnegie Mellon University). Gaussian is a federally registered
 trademark of Gaussian, Inc.
  
 This software contains proprietary and confidential information,
 including trade secrets, belonging to Gaussian, Inc.
  
 This software is provided under written license and may be
 used, copied, transmitted, or stored only in accord with that
 written license.
  
 The following legend is applicable only to US Government
 contracts under FAR:
  
                    RESTRICTED RIGHTS LEGEND
  
 Use, reproduction and disclosure by the US Government is
 subject to restrictions as set forth in subparagraphs (a)
 and (c) of the Commercial Computer Software - Restricted
 Rights clause in FAR 52.227-19.
  
 Gaussian, Inc.
 340 Quinnipiac St., Bldg. 40, Wallingford CT 06492
  
  
 ---------------------------------------------------------------
 Warning -- This program may not be used in any manner that
 competes with the business of Gaussian, Inc. or will provide
 assistance to any competitor of Gaussian, Inc.  The licensee
 of this program is prohibited from giving any competitor of
 Gaussian, Inc. access to this program.  By using this program,
 the user acknowledges that Gaussian, Inc. is engaged in the
 business of creating and licensing software in the field of
 computational chemistry and represents and warrants to the
 licensee that it is not a competitor of Gaussian, Inc. and that
 it will not use this program in any manner prohibited above.
 ---------------------------------------------------------------
  

 Cite this work as:
 Gaussian 09, Revision D.01,
 M. J. Frisch, G. W. Trucks, H. B. Schlegel, G. E. Scuseria, 
 M. A. Robb, J. R. Cheeseman, G. Scalmani, V. Barone, B. Mennucci, 
 G. A. Petersson, H. Nakatsuji, M. Caricato, X. Li, H. P. Hratchian, 
 A. F. Izmaylov, J. Bloino, G. Zheng, J. L. Sonnenberg, M. Hada, 
 M. Ehara, K. Toyota, R. Fukuda, J. Hasegawa, M. Ishida, T. Nakajima, 
 Y. Honda, O. Kitao, H. Nakai, T. Vreven, J. A. Montgomery, Jr., 
 J. E. Peralta, F. Ogliaro, M. Bearpark, J. J. Heyd, E. Brothers, 
 K. N. Kudin, V. N. Staroverov, T. Keith, R. Kobayashi, J. Normand, 
 K. Raghavachari, A. Rendell, J. C. Burant, S. S. Iyengar, J. Tomasi, 
 M. Cossi, N. Rega, J. M. Millam, M. Klene, J. E. Knox, J. B. Cross, 
 V. Bakken, C. Adamo, J. Jaramillo, R. Gomperts, R. E. Stratmann, 
 O. Yazyev, A. J. Austin, R. Cammi, C. Pomelli, J. W. Ochterski, 
 R. L. Martin, K. Morokuma, V. G. Zakrzewski, G. A. Voth, 
 P. Salvador, J. J. Dannenberg, S. Dapprich, A. D. Daniels, 
 O. Farkas, J. B. Foresman, J. V. Ortiz, J. Cioslowski, 
 and D. J. Fox, Gaussian, Inc., Wallingford CT, 2013.
 
 ******************************************
 Gaussian 09:  EM64L-G09RevD.01 24-Apr-2013
                24-Jun-2014 
 ******************************************
 %Mem=32GB
 %NProcShared=16
 Will use up to   16 processors via shared memory.
 Default route:  MaxDisk=100GB
 ----------------------------------------------------------------------
 #p nmr=(giao,mixed,spinspin) m06/cc-pvtz scf=tight integral=(grid=ultr
 afine)
 ----------------------------------------------------------------------
 1/38=1/1;
 2/12=2,17=6,18=5,40=1/2;
 3/5=16,6=1,10=1100000,11=2,16=1,25=1,30=1,74=-54,75=-5/1,2,8,3;
 4//1;
 5/5=2,32=2,38=5/2;
 8/6=1,10=90,11=11/1;
 10/13=100,45=16,47=3/2;
 6/7=2,8=2,9=2,10=2,28=1/1;
 99/9=1/99;
 Leave Link    1 at Tue Jun 24 17:11:07 2014, MaxMem=  4294967296 cpu:         7.5
 (Enter /home/ztw1e12/g09/l101.exe)
 ------------------
 NMR spin-spin scan
 ------------------
 Symbolic Z-matrix:
 Charge =  0 Multiplicity = 1
 C                     3.27007  -0.10166  -1.03143 
 C                     2.0012   -0.64497  -1.10587 
 C                     1.32147  -1.05693   0.03549 
 C                     1.95436  -0.90624   1.26276 
 C                     3.22509  -0.36503   1.35576 
 C                     3.88481   0.03765   0.2055 
 H                     3.79425   0.21335  -1.92657 
 H                     1.52371  -0.75309  -2.07423 
 H                     1.44196  -1.22073   2.16535 
 H                     3.7171   -0.25346   2.31364 
 C                    -0.06444  -1.61582  -0.06021 
 H                    -0.12795  -2.36723  -0.84902 
 H                    -0.29951  -2.12588   0.87628 
 C                    -1.15721  -0.577    -0.32408 
 H                    -1.26537  -0.44878  -1.40527 
 C                    -2.52136  -1.03345   0.19885 
 O                     5.13633   0.56012   0.34046 
 H                     5.48781   0.78124  -0.52935 
 O                    -2.66059  -1.99218   0.95311 
 N                    -0.80882   0.73802   0.18761 
 H                    -0.18149   0.78993   0.97658 
 N                    -3.5505   -0.30147  -0.23664 
 H                    -3.34792   0.49083  -0.83404 
 C                    -1.18141   1.88488  -0.40347 
 C                    -0.62113   3.13966   0.17899 
 H                    -0.0215    3.63771  -0.58323 
 H                    -1.44262   3.80753   0.43581 
 H                    -0.00597   2.96625   1.05931 
 C                    -4.90318  -0.56516   0.19508 
 H                    -4.99403  -0.49187   1.27965 
 H                    -5.56692   0.16421  -0.25913 
 H                    -5.2237   -1.56334  -0.10505 
 O                    -1.94171   1.91042  -1.37373 
 
 NAtoms=     33 NQM=       33 NQMF=       0 NMMI=      0 NMMIF=      0
                NMic=       0 NMicF=      0.
                    Isotopes and Nuclear Properties:
 (Nuclear quadrupole moments (NQMom) in fm**2, nuclear magnetic moments (NMagM)
  in nuclear magnetons)

  Atom         1           2           3           4           5           6           7           8           9          10
 IAtWgt=          12          12          12          12          12          12           1           1           1           1
 AtmWgt=  12.0000000  12.0000000  12.0000000  12.0000000  12.0000000  12.0000000   1.0078250   1.0078250   1.0078250   1.0078250
 NucSpn=           0           0           0           0           0           0           1           1           1           1
 AtZEff=   0.0000000   0.0000000   0.0000000   0.0000000   0.0000000   0.0000000   0.0000000   0.0000000   0.0000000   0.0000000
 NQMom=    0.0000000   0.0000000   0.0000000   0.0000000   0.0000000   0.0000000   0.0000000   0.0000000   0.0000000   0.0000000
 NMagM=    0.0000000   0.0000000   0.0000000   0.0000000   0.0000000   0.0000000   2.7928460   2.7928460   2.7928460   2.7928460
 AtZNuc=   6.0000000   6.0000000   6.0000000   6.0000000   6.0000000   6.0000000   1.0000000   1.0000000   1.0000000   1.0000000

  Atom        11          12          13          14          15          16          17          18          19          20
 IAtWgt=          12           1           1          12           1          12          16           1          16          14
 AtmWgt=  12.0000000   1.0078250   1.0078250  12.0000000   1.0078250  12.0000000  15.9949146   1.0078250  15.9949146  14.0030740
 NucSpn=           0           1           1           0           1           0           0           1           0           2
 AtZEff=   0.0000000   0.0000000   0.0000000   0.0000000   0.0000000   0.0000000   0.0000000   0.0000000   0.0000000   0.0000000
 NQMom=    0.0000000   0.0000000   0.0000000   0.0000000   0.0000000   0.0000000   0.0000000   0.0000000   0.0000000   2.0440000
 NMagM=    0.0000000   2.7928460   2.7928460   0.0000000   2.7928460   0.0000000   0.0000000   2.7928460   0.0000000   0.4037610
 AtZNuc=   6.0000000   1.0000000   1.0000000   6.0000000   1.0000000   6.0000000   8.0000000   1.0000000   8.0000000   7.0000000

  Atom        21          22          23          24          25          26          27          28          29          30
 IAtWgt=           1          14           1          12          12           1           1           1          12           1
 AtmWgt=   1.0078250  14.0030740   1.0078250  12.0000000  12.0000000   1.0078250   1.0078250   1.0078250  12.0000000   1.0078250
 NucSpn=           1           2           1           0           0           1           1           1           0           1
 AtZEff=   0.0000000   0.0000000   0.0000000   0.0000000   0.0000000   0.0000000   0.0000000   0.0000000   0.0000000   0.0000000
 NQMom=    0.0000000   2.0440000   0.0000000   0.0000000   0.0000000   0.0000000   0.0000000   0.0000000   0.0000000   0.0000000
 NMagM=    2.7928460   0.4037610   2.7928460   0.0000000   0.0000000   2.7928460   2.7928460   2.7928460   0.0000000   2.7928460
 AtZNuc=   1.0000000   7.0000000   1.0000000   6.0000000   6.0000000   1.0000000   1.0000000   1.0000000   6.0000000   1.0000000

  Atom        31          32          33
 IAtWgt=           1           1          16
 AtmWgt=   1.0078250   1.0078250  15.9949146
 NucSpn=           1           1           0
 AtZEff=   0.0000000   0.0000000   0.0000000
 NQMom=    0.0000000   0.0000000   0.0000000
 NMagM=    2.7928460   2.7928460   0.0000000
 AtZNuc=   1.0000000   1.0000000   8.0000000
 Leave Link  101 at Tue Jun 24 17:11:07 2014, MaxMem=  4294967296 cpu:         1.8
 (Enter /home/ztw1e12/g09/l202.exe)
                          Input orientation:                          
 ---------------------------------------------------------------------
 Center     Atomic      Atomic             Coordinates (Angstroms)
 Number     Number       Type             X           Y           Z
 ---------------------------------------------------------------------
      1          6           0        3.270070   -0.101660   -1.031427
      2          6           0        2.001202   -0.644968   -1.105866
      3          6           0        1.321472   -1.056931    0.035492
      4          6           0        1.954359   -0.906243    1.262756
      5          6           0        3.225091   -0.365027    1.355756
      6          6           0        3.884812    0.037653    0.205500
      7          1           0        3.794250    0.213354   -1.926574
      8          1           0        1.523705   -0.753088   -2.074227
      9          1           0        1.441958   -1.220727    2.165349
     10          1           0        3.717100   -0.253456    2.313635
     11          6           0       -0.064435   -1.615823   -0.060208
     12          1           0       -0.127951   -2.367231   -0.849019
     13          1           0       -0.299510   -2.125876    0.876280
     14          6           0       -1.157207   -0.576995   -0.324082
     15          1           0       -1.265367   -0.448778   -1.405274
     16          6           0       -2.521358   -1.033446    0.198846
     17          8           0        5.136331    0.560123    0.340458
     18          1           0        5.487806    0.781238   -0.529354
     19          8           0       -2.660594   -1.992175    0.953107
     20          7           0       -0.808815    0.738015    0.187609
     21          1           0       -0.181486    0.789932    0.976579
     22          7           0       -3.550497   -0.301469   -0.236641
     23          1           0       -3.347919    0.490830   -0.834042
     24          6           0       -1.181408    1.884878   -0.403466
     25          6           0       -0.621131    3.139656    0.178985
     26          1           0       -0.021495    3.637706   -0.583226
     27          1           0       -1.442623    3.807528    0.435809
     28          1           0       -0.005973    2.966246    1.059306
     29          6           0       -4.903184   -0.565157    0.195076
     30          1           0       -4.994027   -0.491866    1.279645
     31          1           0       -5.566924    0.164206   -0.259132
     32          1           0       -5.223701   -1.563336   -0.105049
     33          8           0       -1.941706    1.910421   -1.373729
 ---------------------------------------------------------------------
                    Distance matrix (angstroms):
                    1          2          3          4          5
     1  C    0.000000
     2  C    1.382299   0.000000
     3  C    2.418242   1.390843   0.000000
     4  C    2.764367   2.383449   1.389039   0.000000
     5  C    2.402088   2.763305   2.417766   1.384313   0.000000
     6  C    1.388274   2.394502   2.792441   2.394865   1.385811
     7  H    1.084106   2.150651   3.402640   3.848444   3.381147
     8  H    2.135786   1.085088   2.141059   3.368141   3.848388
     9  H    3.848855   3.368249   2.139541   1.084495   2.137107
    10  H    3.378212   3.845852   3.402138   2.153540   1.082614
    11  C    3.788783   2.510541   1.497417   2.515803   3.793471
    12  H    4.088109   2.750537   2.144778   3.306069   4.484723
    13  H    4.525340   3.378649   2.115928   2.591678   3.969043
    14  C    4.508554   3.254436   2.550192   3.508319   4.698013
    15  H    4.564038   3.286124   3.022812   4.206459   5.272050
    16  C    5.993533   4.723001   3.846372   4.602187   5.899737
    17  O    2.408932   3.656929   4.154638   3.622956   2.353629
    18  H    2.439250   3.810884   4.588710   4.306332   3.160291
    19  O    6.533391   5.271307   4.192082   4.751097   6.119724
    20  N    4.339171   3.388497   2.789820   3.390377   4.342081
    21  H    4.091487   3.340605   2.560357   2.742397   3.616970
    22  N    6.869625   5.629823   4.937698   5.737367   6.960486
    23  H    6.647389   5.475127   4.995485   5.870479   6.980843
    24  C    4.914908   4.125832   3.887330   4.516601   5.251111
    25  C    5.206983   4.780256   4.626623   4.917012   5.334887
    26  H    5.001814   4.765055   4.921990   5.287639   5.506527
    27  H    6.296349   5.836216   5.609228   5.868813   6.328039
    28  H    4.951330   4.664503   4.358470   4.345166   4.650273
    29  C    8.277755   7.026334   6.246091   6.948538   8.213165
    30  H    8.590030   7.392383   6.461636   6.960752   8.220449
    31  H    8.874660   7.658215   7.001998   7.748013   8.954746
    32  H    8.668265   7.351480   6.566238   7.336703   8.657481
    33  O    5.597164   4.706197   4.630271   5.483062   6.270849
                    6          7          8          9         10
     6  C    0.000000
     7  H    2.141217   0.000000
     8  H    3.375982   2.472081   0.000000
     9  H    3.375213   4.932920   4.266072   0.000000
    10  H    2.134738   4.266525   4.930917   2.476666   0.000000
    11  C    4.289654   4.660328   2.706062   2.716326   4.668103
    12  H    4.795596   4.817074   2.614299   3.586851   5.408775
    13  H    4.758083   5.485149   3.730168   2.348128   4.658873
    14  C    5.106878   5.263987   3.206447   3.656134   5.551675
    15  H    5.418076   5.129317   2.884272   4.546962   6.220403
    16  C    6.495099   6.779294   4.648440   4.428327   6.633180
    17  O    1.362897   2.657229   4.539416   4.488880   2.563114
    18  H    1.913771   2.267785   4.522708   5.257202   3.505507
    19  O    6.893581   7.404183   5.311162   4.346906   6.749012
    20  N    4.745626   5.092470   3.574904   3.579679   5.097736
    21  H    4.206574   4.956533   3.820472   2.844555   4.251512
    22  N    7.456159   7.554219   5.415552   5.615977   7.702219
    23  H    7.321094   7.230574   5.178621   5.904972   7.770220
    24  C    5.426755   5.465439   4.131337   4.808913   5.995873
    25  C    5.470525   5.700194   4.983045   5.216792   5.906792
    26  H    5.370447   5.300064   4.887719   5.770679   6.124544
    27  H    6.530434   6.776709   5.991544   6.049419   6.829390
    28  H    4.944072   5.561977   5.098273   4.566243   5.079478
    29  C    8.808653   8.986258   6.818354   6.676270   8.882271
    30  H    8.959239   9.381417   7.334680   6.537401   8.775518
    31  H    9.463996   9.508646   7.376518   7.544573   9.642960
    32  H    9.253357   9.370060   7.075426   7.050042   9.354343
    33  O    6.320565   6.007234   4.426517   5.811914   7.092327
                   11         12         13         14         15
    11  C    0.000000
    12  H    1.091270   0.000000
    13  H    1.091982   1.750526   0.000000
    14  C    1.530668   2.130697   2.139052   0.000000
    15  H    2.147891   2.298608   2.991827   1.094127   0.000000
    16  C    2.538256   2.933496   2.566891   1.530591   2.119564
    17  O    5.651835   6.139782   6.086876   6.429873   6.711721
    18  H    6.065755   6.446066   6.627228   6.785509   6.919936
    19  O    2.812204   3.130911   2.366114   2.427781   3.144947
    20  N    2.481143   3.343759   2.989236   1.453429   2.038184
    21  H    2.622267   3.647376   2.919919   2.124203   2.895242
    22  N    3.729783   4.044280   3.890497   2.410684   2.570841
    23  H    3.977194   4.305454   4.366366   2.489885   2.355035
    24  C    3.690577   4.403262   4.301353   2.463271   2.540988
    25  C    4.793924   5.623684   5.321230   3.788661   3.975145
    26  H    5.279674   6.011759   5.952002   4.372722   4.349981
    27  H    5.617666   6.442577   6.058548   4.459029   4.640813
    28  H    4.717212   5.665912   5.103858   3.974124   4.395750
    29  C    4.958080   5.209650   4.908533   3.781800   3.975975
    30  H    5.230618   5.632664   4.987102   4.159372   4.594949
    31  H    5.786662   6.028148   5.854852   4.472047   4.493638
    32  H    5.159728   5.212140   5.052437   4.190133   4.312915
    33  O    4.205221   4.675824   4.904186   2.811483   2.454435
                   16         17         18         19         20
    16  C    0.000000
    17  O    7.823025   0.000000
    18  H    8.244396   0.963846   0.000000
    19  O    1.227786   8.226883   8.734182   0.000000
    20  N    2.463941   5.949771   6.337455   3.386593   0.000000
    21  H    3.066688   5.360657   5.865900   3.726479   1.009312
    22  N    1.335877   8.748506   9.107626   2.250759   2.962657
    23  H    2.018286   8.565439   8.845745   3.135543   2.748076
    24  C    3.267241   6.497863   6.761086   4.365756   1.342941
    25  C    4.585416   6.310977   6.586577   5.576232   2.408979
    26  H    5.355428   6.076831   6.206022   6.404742   3.101978
    27  H    4.965365   7.337395   7.623701   5.948748   3.144078
    28  H    4.802613   5.722714   6.122067   5.625320   2.523772
    29  C    2.427427  10.103428  10.502869   2.764091   4.296763
    30  H    2.752368  10.228045  10.712707   2.793289   4.496793
    31  H    3.304480  10.727345  11.075234   3.816577   4.813360
    32  H    2.770522  10.584792  10.973306   2.805907   4.987292
    33  O    3.387527   7.406777   7.562121   4.600133   2.257378
                   21         22         23         24         25
    21  H    0.000000
    22  N    3.743433   0.000000
    23  H    3.659796   1.012750   0.000000
    24  C    2.025654   3.228084   2.611998   0.000000
    25  C    2.520049   4.538201   3.934193   1.492524   0.000000
    26  H    3.250908   5.300102   4.585939   2.109530   1.090221
    27  H    3.314934   4.666817   4.030280   2.114048   1.089431
    28  H    2.184946   4.992103   4.569579   2.165804   1.087867
    29  C    4.974077   1.444186   2.143138   4.495836   5.662321
    30  H    4.989530   2.102178   2.853600   4.797691   5.789786
    31  H    5.560707   2.069622   2.315424   4.713204   5.788447
    32  H    5.668485   2.099818   2.875689   5.321594   6.586536
    33  O    3.142900   2.962032   2.069767   1.232930   2.380306
                   26         27         28         29         30
    26  H    0.000000
    27  H    1.756951   0.000000
    28  H    1.774545   1.777770   0.000000
    29  C    6.488505   5.581560   6.099211   0.000000
    30  H    6.726792   5.639975   6.073530   1.090832   0.000000
    31  H    6.551490   5.546765   6.365052   1.085738   1.768184
    32  H    7.371732   6.590543   7.006962   1.090490   1.765836
    33  O    2.701040   2.668806   3.283518   4.166532   4.704045
                   31         32         33
    31  H    0.000000
    32  H    1.768034   0.000000
    33  O    4.175380   4.944495   0.000000
 Stoichiometry    C12H16N2O3
 Framework group  C1[X(C12H16N2O3)]
 Deg. of freedom    93
 Full point group                 C1      NOp   1
 Largest Abelian subgroup         C1      NOp   1
 Largest concise Abelian subgroup C1      NOp   1
                         Standard orientation:                         
 ---------------------------------------------------------------------
 Center     Atomic      Atomic             Coordinates (Angstroms)
 Number     Number       Type             X           Y           Z
 ---------------------------------------------------------------------
      1          6           0       -3.249601    0.088000    1.149200
      2          6           0       -1.965798   -0.399225    1.307978
      3          6           0       -1.306082   -1.053420    0.272967
      4          6           0       -1.974683   -1.205074   -0.935091
      5          6           0       -3.260785   -0.724248   -1.111365
      6          6           0       -3.900035   -0.076630   -0.066176
      7          1           0       -3.757885    0.593383    1.962540
      8          1           0       -1.460380   -0.269492    2.259366
      9          1           0       -1.478380   -1.711899   -1.755421
     10          1           0       -3.780516   -0.848451   -2.052910
     11          6           0        0.095639   -1.548657    0.452348
     12          1           0        0.198998   -2.093941    1.391951
     13          1           0        0.318886   -2.258688   -0.346677
     14          6           0        1.168186   -0.456779    0.432656
     15          1           0        1.301469   -0.077821    1.450369
     16          6           0        2.529274   -0.997179   -0.012445
     17          8           0       -5.167563    0.376538   -0.279479
     18          1           0       -5.501535    0.787934    0.525640
     19          8           0        2.672963   -2.102682   -0.526910
     20          7           0        0.773092    0.695810   -0.359743
     21          1           0        0.124096    0.550506   -1.118954
     22          7           0        3.550558   -0.164766    0.208087
     23          1           0        3.343676    0.741150    0.610804
     24          6           0        1.131807    1.955668   -0.063817
     25          6           0        0.524641    3.029243   -0.904301
     26          1           0       -0.067206    3.680152   -0.260392
     27          1           0        1.321825    3.633920   -1.335257
     28          1           0       -0.108863    2.643783   -1.700258
     29          6           0        4.897685   -0.496689   -0.192847
     30          1           0        4.958054   -0.676822   -1.267008
     31          1           0        5.554373    0.330750    0.058012
     32          1           0        5.251290   -1.391136    0.321055
     33          8           0        1.916484    2.221058    0.849400
 ---------------------------------------------------------------------
 Rotational constants (GHZ):      0.8739927      0.2497722      0.2151173
 Leave Link  202 at Tue Jun 24 17:11:07 2014, MaxMem=  4294967296 cpu:         2.3
 (Enter /home/ztw1e12/g09/l301.exe)
 Standard basis: CC-pVTZ (5D, 7F)
 Converting basis for Fermi contact spin-spin IFCMod=1.
 AO basis functions are being uncontracted.
 Ernie: Thresh=  0.10000D-02 Tol=  0.10000D-05 Strict=F.
 There are  1305 symmetry adapted cartesian basis functions of A   symmetry.
 There are  1204 symmetry adapted basis functions of A   symmetry.
  1204 basis functions,  1305 primitive gaussians,  1305 cartesian basis functions
    63 alpha electrons       63 beta electrons
       nuclear repulsion energy      1210.7596907850 Hartrees.
 IExCor= 4235 DFT=T Ex+Corr=M06 ExCW=0 ScaHFX=  0.270000
 ScaDFX=  1.000000  1.000000  1.000000  1.000000 ScalE2=  1.000000  1.000000
 IRadAn= 199590 IRanWt=     -1 IRanGd=            0 ICorTp=0 IEmpDi=  4
 NAtoms=   33 NActive=   33 NUniq=   33 SFac= 1.00D+00 NAtFMM=   60 NAOKFM=F Big=F
 Integral buffers will be    131072 words long.
 Raffenetti 2 integral format.
 Two-electron integral symmetry is turned on.
 Leave Link  301 at Tue Jun 24 17:11:07 2014, MaxMem=  4294967296 cpu:         5.9
 (Enter /home/ztw1e12/g09/l302.exe)
 NPDir=0 NMtPBC=     1 NCelOv=     1 NCel=       1 NClECP=     1 NCelD=      1
         NCelK=      1 NCelE2=     1 NClLst=     1 CellRange=     0.0.
 One-electron integrals computed using PRISM.
 GSVD:  received Info=                   1 from GESDD.
 NBasis=  1204 RedAO= T EigKep=  2.51D-05  NBF=  1204
 NBsUse=  1068 1.00D-06 EigRej=  6.90D-15 NBFU=  1068
 Precomputing XC quadrature grid using
 IXCGrd= 4 IRadAn=      199590 IRanWt=          -1 IRanGd=           0 AccXCQ= 0.00D+00.
 Generated NRdTot=       0 NPtTot=           0 NUsed=           0 NTot=          32
 NSgBfM=  1022  1022  1022  1022  1022 MxSgAt=    33 MxSgA2=    33.
 Leave Link  302 at Tue Jun 24 17:11:13 2014, MaxMem=  4294967296 cpu:        92.7
 (Enter /home/ztw1e12/g09/l308.exe)
 Leave Link  308 at Tue Jun 24 17:11:14 2014, MaxMem=  4294967296 cpu:         7.3
 (Enter /home/ztw1e12/g09/l303.exe)
 DipDrv:  MaxL=1.
 Leave Link  303 at Tue Jun 24 17:11:14 2014, MaxMem=  4294967296 cpu:         4.2
 (Enter /home/ztw1e12/g09/l401.exe)
 ExpMin= 1.03D-01 ExpMax= 1.38D+05 ExpMxC= 1.38D+05 IAcc=4 IRadAn=    199590 AccDes= 0.00D+00
 Harris functional with IExCor= 1009 and IRadAn=  199590 diagonalized for initial guess.
 HarFok:  IExCor= 1009 AccDes= 0.00D+00 IRadAn=    199590 IDoV= 1 UseB2=F ITyADJ=14
 ICtDFT=  3500011 ScaDFX=  1.000000  1.000000  1.000000  1.000000
 FoFCou: FMM=F IPFlag=           0 FMFlag=      100000 FMFlg1=           0
         NFxFlg=           0 DoJE=T BraDBF=F KetDBF=T FulRan=T
         wScrn=  0.000000 ICntrl=     500 IOpCl=  0 I1Cent=   200000004 NGrid=           0
         NMat0=    1 NMatS0=      1 NMatT0=    0 NMatD0=    1 NMtDS0=    0 NMtDT0=    0
 Petite list used in FoFCou.
 Harris En= -801.780148839804    
 JPrj=0 DoOrth=F DoCkMO=F.
 Leave Link  401 at Tue Jun 24 17:11:34 2014, MaxMem=  4294967296 cpu:       300.7
 (Enter /home/ztw1e12/g09/l502.exe)
 Closed shell SCF:
 Using DIIS extrapolation, IDIIS=  1040.
 Integral symmetry usage will be decided dynamically.
 IVT=     5158273 IEndB=     5158273 NGot=  4294967296 MDV=  4291529994
 LenX=  4291529994 LenY=  4289825664
 Requested convergence on RMS density matrix=1.00D-08 within 128 cycles.
 Requested convergence on MAX density matrix=1.00D-06.
 Requested convergence on             energy=1.00D-06.
 No special actions if energy rises.
 Fock matrices will be formed incrementally for  20 cycles.
 Integral accuracy reduced to 1.0D-05 until final iterations.

 Cycle   1  Pass 0  IDiag  1:
 FoFJK:  IHMeth= 1 ICntrl=       0 DoSepK=F KAlg= 0 I1Cent=   0 FoldK=F
 IRaf= 430000000 NMat=   1 IRICut=       1 DoRegI=T DoRafI=F ISym2E= 0.
 FoFCou: FMM=F IPFlag=           0 FMFlag=      100000 FMFlg1=           0
         NFxFlg=           0 DoJE=F BraDBF=F KetDBF=F FulRan=T
         wScrn=  0.000000 ICntrl=       0 IOpCl=  0 I1Cent=           0 NGrid=           0
         NMat0=    1 NMatS0=      1 NMatT0=    0 NMatD0=    1 NMtDS0=    0 NMtDT0=    0
 Symmetry not used in FoFCou.
 E= -801.487574536809    
 DIIS: error= 1.15D-01 at cycle   1 NSaved=   1.
 NSaved= 1 IEnMin= 1 EnMin= -801.487574536809     IErMin= 1 ErrMin= 1.15D-01
 ErrMax= 1.15D-01  0.00D+00 EMaxC= 1.00D-01 BMatC= 1.69D+01 BMatP= 1.69D+01
 IDIUse=3 WtCom= 0.00D+00 WtEn= 1.00D+00
 Coeff-Com:  0.100D+01
 Coeff-En:   0.100D+01
 Coeff:      0.100D+01
 Gap=     0.239 Goal=   None    Shift=    0.000
 GapD=    0.239 DampG=1.000 DampE=0.250 DampFc=0.2500 IDamp=-1.
 Damping current iteration by 2.50D-01
 RMSDP=1.95D-03 MaxDP=2.62D-01              OVMax= 2.51D-01

 Cycle   2  Pass 0  IDiag  1:
 RMSU=  4.84D-04    CP:  1.02D+00
 E= -801.641016731392     Delta-E=       -0.153442194583 Rises=F Damp=T
 DIIS: error= 8.78D-02 at cycle   2 NSaved=   2.
 NSaved= 2 IEnMin= 2 EnMin= -801.641016731392     IErMin= 2 ErrMin= 8.78D-02
 ErrMax= 8.78D-02  0.00D+00 EMaxC= 1.00D-01 BMatC= 1.00D+01 BMatP= 1.69D+01
 IDIUse=3 WtCom= 1.22D-01 WtEn= 8.78D-01
 Coeff-Com: -0.296D+01 0.396D+01
 Coeff-En:   0.000D+00 0.100D+01
 Coeff:     -0.360D+00 0.136D+01
 Gap=     0.268 Goal=   None    Shift=    0.000
 RMSDP=5.75D-04 MaxDP=9.60D-02 DE=-1.53D-01 OVMax= 1.40D-01

 Cycle   3  Pass 0  IDiag  1:
 RMSU=  4.62D-04    CP:  1.05D+00  1.69D+00
 E= -801.888198738422     Delta-E=       -0.247182007029 Rises=F Damp=F
 DIIS: error= 1.31D-02 at cycle   3 NSaved=   3.
 NSaved= 3 IEnMin= 3 EnMin= -801.888198738422     IErMin= 3 ErrMin= 1.31D-02
 ErrMax= 1.31D-02  0.00D+00 EMaxC= 1.00D-01 BMatC= 1.55D-01 BMatP= 1.00D+01
 IDIUse=3 WtCom= 8.69D-01 WtEn= 1.31D-01
 Coeff-Com:  0.270D+00-0.413D+00 0.114D+01
 Coeff-En:   0.000D+00 0.000D+00 0.100D+01
 Coeff:      0.235D+00-0.359D+00 0.112D+01
 Gap=     0.226 Goal=   None    Shift=    0.000
 RMSDP=3.73D-04 MaxDP=4.87D-02 DE=-2.47D-01 OVMax= 1.06D-01

 Cycle   4  Pass 0  IDiag  1:
 RMSU=  3.32D-04    CP:  1.05D+00  1.42D+00  7.69D-01
 E= -801.831752939974     Delta-E=        0.056445798448 Rises=F Damp=F
 DIIS: error= 1.26D-02 at cycle   4 NSaved=   4.
 NSaved= 4 IEnMin= 3 EnMin= -801.888198738422     IErMin= 4 ErrMin= 1.26D-02
 ErrMax= 1.26D-02  0.00D+00 EMaxC= 1.00D-01 BMatC= 1.17D-01 BMatP= 1.55D-01
 IDIUse=3 WtCom= 8.74D-01 WtEn= 1.26D-01
 Coeff-Com:  0.337D+00-0.477D+00 0.613D+00 0.528D+00
 Coeff-En:   0.000D+00 0.000D+00 0.724D+00 0.276D+00
 Coeff:      0.294D+00-0.418D+00 0.627D+00 0.496D+00
 Gap=     0.259 Goal=   None    Shift=    0.000
 RMSDP=2.84D-04 MaxDP=2.66D-02 DE= 5.64D-02 OVMax= 8.66D-02

 Cycle   5  Pass 0  IDiag  1:
 RMSU=  7.68D-05    CP:  1.05D+00  1.42D+00  9.49D-01  2.16D-01
 E= -801.915594288893     Delta-E=       -0.083841348919 Rises=F Damp=F
 DIIS: error= 3.61D-03 at cycle   5 NSaved=   5.
 NSaved= 5 IEnMin= 5 EnMin= -801.915594288893     IErMin= 5 ErrMin= 3.61D-03
 ErrMax= 3.61D-03  0.00D+00 EMaxC= 1.00D-01 BMatC= 9.57D-03 BMatP= 1.17D-01
 IDIUse=3 WtCom= 9.64D-01 WtEn= 3.61D-02
 Coeff-Com:  0.210D-01-0.323D-01 0.233D-01 0.217D+00 0.771D+00
 Coeff-En:   0.000D+00 0.000D+00 0.000D+00 0.373D-01 0.963D+00
 Coeff:      0.202D-01-0.311D-01 0.224D-01 0.211D+00 0.778D+00
 Gap=     0.223 Goal=   None    Shift=    0.000
 RMSDP=9.08D-05 MaxDP=9.84D-03 DE=-8.38D-02 OVMax= 3.19D-02

 Cycle   6  Pass 0  IDiag  1:
 RMSU=  3.42D-05    CP:  1.05D+00  1.47D+00  9.63D-01  4.18D-01  4.23D-01
 E= -801.920798680063     Delta-E=       -0.005204391171 Rises=F Damp=F
 DIIS: error= 1.51D-03 at cycle   6 NSaved=   6.
 NSaved= 6 IEnMin= 6 EnMin= -801.920798680063     IErMin= 6 ErrMin= 1.51D-03
 ErrMax= 1.51D-03  0.00D+00 EMaxC= 1.00D-01 BMatC= 1.50D-03 BMatP= 9.57D-03
 IDIUse=3 WtCom= 9.85D-01 WtEn= 1.51D-02
 Coeff-Com:  0.621D-02-0.906D-02-0.114D-01 0.876D-01 0.404D+00 0.523D+00
 Coeff-En:   0.000D+00 0.000D+00 0.000D+00 0.000D+00 0.129D+00 0.871D+00
 Coeff:      0.612D-02-0.892D-02-0.112D-01 0.863D-01 0.400D+00 0.528D+00
 Gap=     0.223 Goal=   None    Shift=    0.000
 RMSDP=3.52D-05 MaxDP=3.57D-03 DE=-5.20D-03 OVMax= 1.46D-02

 Cycle   7  Pass 0  IDiag  1:
 RMSU=  1.72D-05    CP:  1.05D+00  1.44D+00  9.62D-01  4.17D-01  6.12D-01
                    CP:  3.41D-01
 E= -801.921897569731     Delta-E=       -0.001098889668 Rises=F Damp=F
 DIIS: error= 7.34D-04 at cycle   7 NSaved=   7.
 NSaved= 7 IEnMin= 7 EnMin= -801.921897569731     IErMin= 7 ErrMin= 7.34D-04
 ErrMax= 7.34D-04  0.00D+00 EMaxC= 1.00D-01 BMatC= 2.17D-04 BMatP= 1.50D-03
 IDIUse=3 WtCom= 9.93D-01 WtEn= 7.34D-03
 Coeff-Com:  0.681D-02-0.896D-02-0.553D-02 0.230D-01 0.119D+00 0.302D+00
 Coeff-Com:  0.564D+00
 Coeff-En:   0.000D+00 0.000D+00 0.000D+00 0.000D+00 0.000D+00 0.134D+00
 Coeff-En:   0.866D+00
 Coeff:      0.676D-02-0.890D-02-0.549D-02 0.229D-01 0.118D+00 0.301D+00
 Coeff:      0.566D+00
 Gap=     0.223 Goal=   None    Shift=    0.000
 RMSDP=1.27D-05 MaxDP=1.77D-03 DE=-1.10D-03 OVMax= 6.01D-03

 Cycle   8  Pass 0  IDiag  1:
 RMSU=  6.24D-06    CP:  1.05D+00  1.44D+00  9.68D-01  4.23D-01  5.96D-01
                    CP:  5.98D-01  6.61D-01
 E= -801.922083116563     Delta-E=       -0.000185546832 Rises=F Damp=F
 DIIS: error= 1.57D-04 at cycle   8 NSaved=   8.
 NSaved= 8 IEnMin= 8 EnMin= -801.922083116563     IErMin= 8 ErrMin= 1.57D-04
 ErrMax= 1.57D-04  0.00D+00 EMaxC= 1.00D-01 BMatC= 1.55D-05 BMatP= 2.17D-04
 IDIUse=3 WtCom= 9.98D-01 WtEn= 1.57D-03
 Coeff-Com:  0.376D-02-0.495D-02-0.196D-02 0.791D-02 0.420D-01 0.136D+00
 Coeff-Com:  0.316D+00 0.501D+00
 Coeff-En:   0.000D+00 0.000D+00 0.000D+00 0.000D+00 0.000D+00 0.000D+00
 Coeff-En:   0.000D+00 0.100D+01
 Coeff:      0.375D-02-0.494D-02-0.196D-02 0.790D-02 0.420D-01 0.135D+00
 Coeff:      0.316D+00 0.502D+00
 Gap=     0.223 Goal=   None    Shift=    0.000
 RMSDP=3.44D-06 MaxDP=4.63D-04 DE=-1.86D-04 OVMax= 1.25D-03

 Initial convergence to 1.0D-05 achieved.  Increase integral accuracy.
 Cycle   9  Pass 1  IDiag  1:
 E= -801.922068195313     Delta-E=        0.000014921249 Rises=F Damp=F
 DIIS: error= 3.16D-04 at cycle   1 NSaved=   1.
 NSaved= 1 IEnMin= 1 EnMin= -801.922068195313     IErMin= 1 ErrMin= 3.16D-04
 ErrMax= 3.16D-04  0.00D+00 EMaxC= 1.00D-01 BMatC= 2.18D-05 BMatP= 2.18D-05
 IDIUse=3 WtCom= 9.97D-01 WtEn= 3.16D-03
 Coeff-Com:  0.100D+01
 Coeff-En:   0.100D+01
 Coeff:      0.100D+01
 Gap=     0.223 Goal=   None    Shift=    0.000
 RMSDP=3.44D-06 MaxDP=4.63D-04 DE= 1.49D-05 OVMax= 5.18D-04

 Cycle  10  Pass 1  IDiag  1:
 RMSU=  1.69D-04    CP:  9.93D-01
 E= -801.922081123566     Delta-E=       -0.000012928252 Rises=F Damp=F
 DIIS: error= 4.07D-05 at cycle   2 NSaved=   2.
 NSaved= 2 IEnMin= 2 EnMin= -801.922081123566     IErMin= 2 ErrMin= 4.07D-05
 ErrMax= 4.07D-05  0.00D+00 EMaxC= 1.00D-01 BMatC= 2.39D-06 BMatP= 2.18D-05
 IDIUse=1 WtCom= 1.00D+00 WtEn= 0.00D+00
 Coeff-Com:  0.137D+00 0.863D+00
 Coeff:      0.137D+00 0.863D+00
 Gap=     0.223 Goal=   None    Shift=    0.000
 RMSDP=3.27D-06 MaxDP=3.88D-04 DE=-1.29D-05 OVMax= 7.37D-04

 Cycle  11  Pass 1  IDiag  1:
 RMSU=  2.47D-06    CP:  9.93D-01  1.01D+00
 E= -801.922079517247     Delta-E=        0.000001606319 Rises=F Damp=F
 DIIS: error= 5.24D-05 at cycle   3 NSaved=   3.
 NSaved= 3 IEnMin= 2 EnMin= -801.922081123566     IErMin= 2 ErrMin= 4.07D-05
 ErrMax= 5.24D-05  0.00D+00 EMaxC= 1.00D-01 BMatC= 4.38D-06 BMatP= 2.39D-06
 IDIUse=1 WtCom= 1.00D+00 WtEn= 0.00D+00
 Coeff-Com: -0.165D-02 0.577D+00 0.425D+00
 Coeff:     -0.165D-02 0.577D+00 0.425D+00
 Gap=     0.223 Goal=   None    Shift=    0.000
 RMSDP=1.56D-06 MaxDP=2.32D-04 DE= 1.61D-06 OVMax= 4.77D-04

 Cycle  12  Pass 1  IDiag  1:
 RMSU=  7.35D-07    CP:  9.93D-01  1.01D+00  4.70D-01
 E= -801.922082915564     Delta-E=       -0.000003398317 Rises=F Damp=F
 DIIS: error= 6.36D-06 at cycle   4 NSaved=   4.
 NSaved= 4 IEnMin= 4 EnMin= -801.922082915564     IErMin= 4 ErrMin= 6.36D-06
 ErrMax= 6.36D-06  0.00D+00 EMaxC= 1.00D-01 BMatC= 6.62D-08 BMatP= 2.39D-06
 IDIUse=1 WtCom= 1.00D+00 WtEn= 0.00D+00
 Coeff-Com: -0.314D-02 0.332D+00 0.256D+00 0.415D+00
 Coeff:     -0.314D-02 0.332D+00 0.256D+00 0.415D+00
 Gap=     0.223 Goal=   None    Shift=    0.000
 RMSDP=1.86D-07 MaxDP=2.24D-05 DE=-3.40D-06 OVMax= 6.79D-05

 Cycle  13  Pass 1  IDiag  1:
 RMSU=  1.67D-07    CP:  9.93D-01  1.01D+00  4.99D-01  9.54D-01
 E= -801.922082964744     Delta-E=       -0.000000049180 Rises=F Damp=F
 DIIS: error= 9.89D-07 at cycle   5 NSaved=   5.
 NSaved= 5 IEnMin= 5 EnMin= -801.922082964744     IErMin= 5 ErrMin= 9.89D-07
 ErrMax= 9.89D-07  0.00D+00 EMaxC= 1.00D-01 BMatC= 2.01D-09 BMatP= 6.62D-08
 IDIUse=1 WtCom= 1.00D+00 WtEn= 0.00D+00
 Coeff-Com: -0.123D-02 0.945D-01 0.742D-01 0.190D+00 0.642D+00
 Coeff:     -0.123D-02 0.945D-01 0.742D-01 0.190D+00 0.642D+00
 Gap=     0.223 Goal=   None    Shift=    0.000
 RMSDP=4.86D-08 MaxDP=8.29D-06 DE=-4.92D-08 OVMax= 1.49D-05

 Cycle  14  Pass 1  IDiag  1:
 RMSU=  3.20D-08    CP:  9.93D-01  1.01D+00  5.03D-01  9.99D-01  9.34D-01
 E= -801.922082965823     Delta-E=       -0.000000001079 Rises=F Damp=F
 DIIS: error= 5.81D-07 at cycle   6 NSaved=   6.
 NSaved= 6 IEnMin= 6 EnMin= -801.922082965823     IErMin= 6 ErrMin= 5.81D-07
 ErrMax= 5.81D-07  0.00D+00 EMaxC= 1.00D-01 BMatC= 2.54D-10 BMatP= 2.01D-09
 IDIUse=1 WtCom= 1.00D+00 WtEn= 0.00D+00
 Coeff-Com: -0.407D-03 0.240D-01 0.191D-01 0.666D-01 0.325D+00 0.566D+00
 Coeff:     -0.407D-03 0.240D-01 0.191D-01 0.666D-01 0.325D+00 0.566D+00
 Gap=     0.223 Goal=   None    Shift=    0.000
 RMSDP=2.39D-08 MaxDP=3.72D-06 DE=-1.08D-09 OVMax= 7.41D-06

 Cycle  15  Pass 1  IDiag  1:
 RMSU=  1.70D-08    CP:  9.93D-01  1.01D+00  5.02D-01  1.02D+00  9.88D-01
                    CP:  8.51D-01
 E= -801.922082966026     Delta-E=       -0.000000000203 Rises=F Damp=F
 DIIS: error= 3.28D-07 at cycle   7 NSaved=   7.
 NSaved= 7 IEnMin= 7 EnMin= -801.922082966026     IErMin= 7 ErrMin= 3.28D-07
 ErrMax= 3.28D-07  0.00D+00 EMaxC= 1.00D-01 BMatC= 7.22D-11 BMatP= 2.54D-10
 IDIUse=1 WtCom= 1.00D+00 WtEn= 0.00D+00
 Coeff-Com:  0.238D-04-0.680D-02-0.530D-02-0.285D-02 0.523D-01 0.366D+00
 Coeff-Com:  0.596D+00
 Coeff:      0.238D-04-0.680D-02-0.530D-02-0.285D-02 0.523D-01 0.366D+00
 Coeff:      0.596D+00
 Gap=     0.223 Goal=   None    Shift=    0.000
 RMSDP=1.09D-08 MaxDP=1.87D-06 DE=-2.03D-10 OVMax= 2.99D-06

 Cycle  16  Pass 1  IDiag  1:
 RMSU=  5.47D-09    CP:  9.93D-01  1.01D+00  5.03D-01  1.02D+00  9.98D-01
                    CP:  1.06D+00  9.30D-01
 E= -801.922082966126     Delta-E=       -0.000000000099 Rises=F Damp=F
 DIIS: error= 5.76D-08 at cycle   8 NSaved=   8.
 NSaved= 8 IEnMin= 8 EnMin= -801.922082966126     IErMin= 8 ErrMin= 5.76D-08
 ErrMax= 5.76D-08  0.00D+00 EMaxC= 1.00D-01 BMatC= 2.44D-12 BMatP= 7.22D-11
 IDIUse=1 WtCom= 1.00D+00 WtEn= 0.00D+00
 Coeff-Com:  0.391D-04-0.459D-02-0.360D-02-0.571D-02 0.931D-03 0.109D+00
 Coeff-Com:  0.244D+00 0.660D+00
 Coeff:      0.391D-04-0.459D-02-0.360D-02-0.571D-02 0.931D-03 0.109D+00
 Coeff:      0.244D+00 0.660D+00
 Gap=     0.223 Goal=   None    Shift=    0.000
 RMSDP=3.04D-09 MaxDP=7.38D-07 DE=-9.94D-11 OVMax= 5.25D-07

 SCF Done:  E(RM06) =  -801.922082966     A.U. after   16 cycles
            NFock= 16  Conv=0.30D-08     -V/T= 2.0044
 KE= 7.983745953209D+02 PE=-4.293958253322D+03 EE= 1.482901884250D+03
 Leave Link  502 at Tue Jun 24 17:47:32 2014, MaxMem=  4294967296 cpu:     34434.0
 (Enter /home/ztw1e12/g09/l801.exe)
 DoSCS=F DFT=T ScalE2(SS,OS)=  1.000000  1.000000
 Range of M.O.s used for correlation:     1  1068
 NBasis=  1204 NAE=    63 NBE=    63 NFC=     0 NFV=     0
 NROrb=   1068 NOA=    63 NOB=    63 NVA=  1005 NVB=  1005

 **** Warning!!: The largest alpha MO coefficient is  0.28510457D+02

 Leave Link  801 at Tue Jun 24 17:47:32 2014, MaxMem=  4294967296 cpu:         0.4
 (Enter /home/ztw1e12/g09/l1002.exe)
 Minotr:  Closed shell wavefunction.
          IDoAtm=111111111111111111111111111111111
          Direct CPHF calculation.
          Differentiating once with respect to Fermi-contact.
          Electric field/nuclear overlap derivatives assumed to be zero.
          Requested convergence is 1.0D-10 RMS, and 1.0D-09 maximum.
          Secondary convergence is 1.0D-12 RMS, and 1.0D-12 maximum.
          NewPWx=T KeepS1=F KeepF1=F KeepIn=T MapXYZ=F SortEE=F KeepMc=T.
          MDV=    4294965894 using IRadAn=  199590.
 Using stored XC quadrature information.
          Solving linear equations simultaneously, MaxMat=       0.
          There are    33 degrees of freedom in the 1st order CPHF.  IDoFFX=0 NUNeed=    33.
     33 vectors produced by pass  0 Test12= 1.92D-17 3.03D-11 XBig12= 4.29D+01 2.58D+00.
 AX will form    33 AO Fock derivatives at one time.
 FoFJK:  IHMeth= 1 ICntrl=       0 DoSepK=F KAlg= 0 I1Cent=   0 FoldK=F
 IRaf= 450000000 NMat=  33 IRICut=       1 DoRegI=T DoRafI=F ISym2E=-1.
 FoFCou: FMM=F IPFlag=           0 FMFlag=      100000 FMFlg1=           0
         NFxFlg=           0 DoJE=F BraDBF=F KetDBF=F FulRan=T
         wScrn=  0.000000 ICntrl=       0 IOpCl=  0 I1Cent=           0 NGrid=           0
         NMat0=   33 NMatS0=      0 NMatT0=   33 NMatD0=   33 NMtDS0=    0 NMtDT0=    0
 Petite list used in FoFCou.
     33 vectors produced by pass  1 Test12= 1.92D-17 3.03D-11 XBig12= 3.46D-01 1.89D-01.
     33 vectors produced by pass  2 Test12= 1.92D-17 3.03D-11 XBig12= 1.68D-02 4.64D-02.
     33 vectors produced by pass  3 Test12= 1.92D-17 3.03D-11 XBig12= 3.85D-04 5.75D-03.
     33 vectors produced by pass  4 Test12= 1.92D-17 3.03D-11 XBig12= 7.11D-06 1.02D-03.
     33 vectors produced by pass  5 Test12= 1.92D-17 3.03D-11 XBig12= 1.49D-07 1.54D-04.
     33 vectors produced by pass  6 Test12= 1.92D-17 3.03D-11 XBig12= 4.54D-09 2.50D-05.
     33 vectors produced by pass  7 Test12= 1.92D-17 3.03D-11 XBig12= 1.18D-10 4.36D-06.
     33 vectors produced by pass  8 Test12= 1.92D-17 3.03D-11 XBig12= 4.06D-12 3.29D-07.
     33 vectors produced by pass  9 Test12= 1.92D-17 3.03D-11 XBig12= 6.56D-14 8.87D-08.
     33 vectors produced by pass 10 Test12= 1.92D-17 3.03D-11 XBig12= 2.85D-15 7.27D-09.
     33 vectors produced by pass 11 Test12= 1.92D-17 3.03D-11 XBig12= 3.48D-17 8.58D-10.
      5 vectors produced by pass 12 Test12= 1.92D-17 3.03D-11 XBig12= 3.27D-19 6.46D-11.
 InvSVY:  IOpt=1 It=  1 EMax= 1.15D-14
 Solved reduced A of dimension   401 with    33 vectors.
 Max diff in FC couplings:  IJMax=     5     3 Diff= 5.61D-04 IJMaxR=    26    17 DiffR= 1.57D+00
 Fermi Contact (FC) contribution to K (Hz):
                1             2             3             4             5 
      1  0.123400D+11
      2  0.346951D+02  0.123400D+11
      3 -0.128453D+01  0.328945D+02  0.123400D+11
      4  0.298691D+01  0.389594D+00  0.337438D+02  0.123400D+11
      5  0.164321D+01  0.304187D+01 -0.124492D+01  0.341259D+02  0.123400D+11
      6  0.356684D+02 -0.198671D+00  0.426220D+01  0.172052D+00  0.389641D+02
      7  0.217856D+02 -0.322764D+00  0.934009D+00 -0.207897D+00  0.607173D+00
      8 -0.201580D+00  0.223000D+02 -0.193289D+00  0.101473D+01 -0.290389D+00
      9 -0.278832D+00  0.100450D+01 -0.164478D+00  0.223557D+02 -0.111187D+00
     10  0.673196D+00 -0.227996D+00  0.103121D+01 -0.245604D+00  0.229403D+02
     11  0.179309D+01  0.111996D+01  0.235693D+02  0.186323D+01  0.203570D+01
     12 -0.120880D+00  0.617801D+00 -0.108241D+01  0.697401D+00 -0.437702D-01
     13  0.131842D+00  0.102196D+01 -0.100604D+01  0.985606D+00  0.251665D-01
     14 -0.525855D+00  0.634036D+00 -0.133337D+01  0.690477D+00 -0.432024D+00
     15  0.125423D-01 -0.216099D-01  0.304269D-01 -0.154325D-02  0.139368D-01
     16  0.327423D-02 -0.853346D-01  0.142175D+01 -0.387582D-01  0.294551D-01
     17 -0.755625D+00 -0.111666D+00  0.255352D+00  0.299371D+01  0.116238D+02
     18  0.421557D+00 -0.107241D-01 -0.458053D-01  0.209736D+00  0.114637D+01
     19  0.443270D-01  0.169764D+00  0.201325D+00  0.174776D-01 -0.179368D-02
     20 -0.143020D-02  0.238171D-01  0.205115D+01  0.140574D+00 -0.717686D-01
     21 -0.611794D-02  0.847632D-02 -0.470678D-01 -0.775832D-03  0.277581D-02
     22 -0.424187D-01  0.454606D-01  0.105785D+00  0.913110D-01 -0.217500D-01
     23  0.822967D-03  0.120016D-03  0.131281D-01 -0.109896D-02  0.350016D-03
     24  0.271667D-03  0.299641D-02  0.841814D-02  0.166209D-01  0.391949D-02
     25  0.128914D-02 -0.195289D-02  0.307430D-01 -0.556183D-02  0.426186D-02
     26 -0.299027D-03 -0.115782D-03  0.179449D-02 -0.631194D-03  0.497614D-04
     27 -0.348000D-03  0.679552D-03 -0.152707D-02  0.309354D-03 -0.942765D-04
     28  0.179415D-03 -0.301699D-03  0.124529D-02  0.595240D-03  0.703452D-03
     29 -0.936077D-03  0.371707D-02  0.754950D-01  0.511113D-02 -0.564328D-03
     30  0.102283D-03 -0.292784D-03 -0.206109D-02 -0.395743D-03 -0.105038D-04
     31  0.891235D-04  0.788206D-04  0.649760D-02 -0.212656D-03 -0.246210D-04
     32  0.166206D-03  0.399573D-03 -0.274801D-02 -0.242587D-03  0.314711D-04
     33 -0.359693D-02  0.177958D-01 -0.356794D-03  0.108672D-01 -0.850395D-02
                6             7             8             9            10 
      6  0.123400D+11
      7 -0.528217D+00  0.123400D+11
      8  0.120248D+01  0.335318D+00  0.123400D+11
      9  0.120583D+01  0.366503D-01  0.380866D-01  0.123400D+11
     10 -0.712891D+00  0.645154D-01  0.413283D-01  0.343272D+00  0.123400D+11
     11 -0.436062D+00  0.899341D-02  0.619990D+00  0.687282D+00  0.186802D-01
     12  0.129545D+00  0.116692D-01 -0.382556D-01 -0.297668D-01  0.149771D-01
     13  0.192868D-01  0.851614D-02 -0.271205D-02 -0.245840D-01  0.379869D-02
     14  0.492583D+00  0.447687D-01 -0.112216D+00 -0.110245D+00  0.386359D-01
     15 -0.890150D-02 -0.102820D-02  0.768907D-02  0.495619D-02 -0.193971D-02
     16  0.387717D-02  0.400564D-02  0.985502D-03  0.203125D-02  0.155102D-02
     17 -0.120004D+02  0.558754D+00  0.714564D-01  0.258248D+00  0.712525D+00
     18 -0.655739D+00 -0.133041D-01  0.174134D-02  0.137839D-01  0.142957D-02
     19  0.312100D-03  0.240814D-02  0.488660D-02  0.255196D-02  0.299390D-03
     20  0.449622D-01 -0.463493D-02 -0.156625D-01 -0.230816D-01  0.105644D-01
     21  0.218135D-02  0.129531D-02  0.264340D-03  0.101157D-03  0.274084D-03
     22  0.414285D-01  0.359048D-02 -0.835950D-02 -0.801403D-02  0.482325D-02
     23 -0.285569D-03  0.192198D-04  0.489016D-04  0.131948D-03 -0.219599D-04
     24 -0.127817D-02 -0.362705D-03 -0.544172D-03  0.529823D-03 -0.134203D-02
     25 -0.189141D-02 -0.208917D-03  0.375663D-03  0.297052D-03 -0.264456D-03
     26 -0.921683D-04 -0.252785D-04  0.197342D-04 -0.508349D-05 -0.184006D-04
     27  0.412012D-03 -0.280561D-04 -0.124235D-03 -0.118543D-03 -0.265942D-04
     28 -0.556326D-03 -0.774687D-04 -0.106241D-04 -0.866152D-04 -0.175718D-03
     29  0.340879D-02  0.480426D-03 -0.210613D-03 -0.243056D-03  0.543475D-03
     30 -0.145263D-03 -0.136810D-04  0.530611D-04  0.968907D-05 -0.330058D-04
     31  0.116530D-03  0.236345D-04  0.173509D-04 -0.872634D-05  0.127397D-04
     32 -0.150686D-03 -0.201810D-04  0.103285D-03  0.581026D-05 -0.262382D-04
     33  0.753514D-02  0.000000D+00  0.777592D-03 -0.231473D-02  0.793955D-03
               11            12            13            14            15 
     11  0.123400D+11
     12  0.181711D+02  0.123400D+11
     13  0.179803D+02 -0.869209D+00  0.123400D+11
     14  0.189433D+02 -0.549248D+00 -0.107141D+01  0.123400D+11
     15 -0.794800D+00  0.360182D+00  0.334858D+00  0.187322D+02  0.123400D+11
     16  0.106448D+00 -0.541557D-02  0.796123D+00  0.277101D+02 -0.104111D+01
     17  0.710934D-01  0.459626D-01  0.591467D-02  0.192679D+00 -0.381394D-02
     18  0.117673D-01 -0.483705D-02 -0.697516D-03 -0.205570D-01  0.459397D-03
     19  0.193464D+01 -0.171445D-01 -0.175421D-01  0.332563D+01  0.317628D+00
     20  0.677084D+00  0.128763D+01  0.216685D-02  0.144486D+02 -0.104357D+01
     21  0.429011D+00 -0.160986D-01 -0.450719D-02  0.229903D+00  0.262901D+00
     22  0.692188D+00 -0.594710D-01 -0.769141D-01  0.112509D+02  0.164000D+00
     23  0.481512D-01 -0.126204D-03 -0.470539D-03  0.663828D-01 -0.272791D-01
     24  0.114262D+01  0.458742D-01 -0.466644D-01 -0.458497D+00  0.585866D+00
     25 -0.396262D-01  0.479922D-01  0.281442D-02  0.838055D+00 -0.930823D-01
     26  0.217889D-01  0.270293D-02 -0.114613D-02  0.226645D-01  0.114515D-01
     27 -0.503650D-02 -0.154428D-02 -0.489158D-03  0.167145D-01  0.208918D-01
     28 -0.367808D-02 -0.130988D-03  0.208333D-03  0.902304D-01 -0.357482D-02
     29  0.335281D+00 -0.961974D-02  0.384262D-02  0.851142D+00 -0.110622D-01
     30 -0.788913D-02  0.168206D-03  0.114064D-02 -0.620845D-01  0.172590D-01
     31  0.142383D-01 -0.220961D-03  0.219857D-02 -0.209473D-01  0.733772D-03
     32 -0.677964D-02 -0.232499D-04 -0.430147D-03 -0.924010D-01  0.153266D-01
     33  0.154414D+00  0.824861D-02  0.707680D-01  0.734899D+00  0.141899D+00
               16            17            18            19            20 
     16  0.123400D+11
     17  0.363912D-03  0.123400D+11
     18 -0.106586D-03  0.199342D+02  0.123400D+11
     19 -0.100705D+02  0.101898D-02 -0.547916D-04  0.123400D+11
     20  0.433797D+00  0.209193D-01 -0.205252D-02  0.600995D+00  0.123400D+11
     21 -0.295185D-01  0.241294D-03 -0.926181D-05 -0.106599D-01  0.315156D+02
     22  0.287958D+02  0.169110D-01 -0.175719D-02  0.614915D+01 -0.475839D-01
     23  0.289746D+00 -0.228413D-04  0.709000D-05  0.533024D+00 -0.128822D-01
     24  0.613816D-01 -0.554597D-04 -0.504895D-04  0.149512D-01  0.265129D+02
     25 -0.147356D+00 -0.281162D-03  0.368743D-04  0.253217D-01  0.118863D+02
     26  0.446690D-01  0.000000D+00  0.000000D+00  0.963699D-03  0.417639D+00
     27  0.887051D-01  0.223271D-03 -0.267919D-04  0.957693D-02  0.451359D+00
     28 -0.377707D-03 -0.474956D-04 -0.396232D-05  0.144666D-02  0.389193D+00
     29 -0.571215D+00  0.186040D-02 -0.170435D-03  0.653303D+00 -0.184278D+00
     30  0.262058D+00 -0.734294D-04  0.670837D-05  0.267649D+00  0.141476D+00
     31  0.104458D+01  0.309615D-04 -0.256952D-05  0.170281D+00  0.647869D-03
     32  0.200813D+00 -0.626164D-04  0.659721D-05  0.265937D+00  0.104192D+00
     33  0.374885D+00  0.302754D-02 -0.308190D-03  0.154436D+00  0.491783D+01
               21            22            23            24            25 
     21  0.123400D+11
     22  0.190760D-01  0.123400D+11
     23  0.195724D-02  0.324979D+02  0.123400D+11
     24  0.423834D+00 -0.235764D+00  0.168202D-01  0.123400D+11
     25  0.142614D+00  0.175809D+00 -0.226788D-01  0.273442D+02  0.123400D+11
     26 -0.180988D-01 -0.150893D-03 -0.456744D-02 -0.119715D+01  0.178261D+02
     27 -0.135854D-01 -0.970805D-02 -0.685846D-03 -0.118302D+01  0.180480D+02
     28 -0.114297D-01  0.270192D-01 -0.225909D-02 -0.761378D+00  0.174424D+02
     29 -0.413878D-02  0.165985D+02  0.385407D+00 -0.129015D-01 -0.329158D-02
     30  0.104990D-02 -0.652893D+00  0.100012D+00 -0.194286D-02  0.132167D-03
     31  0.551967D-04 -0.296151D+00  0.294396D+00  0.495520D-03  0.107201D-02
     32  0.184052D-02 -0.616694D+00  0.121491D+00  0.447462D-03  0.771636D-02
     33  0.392251D+00  0.570086D+01 -0.886486D+00 -0.941337D+01  0.416101D+01
               26            27            28            29            30 
     26  0.123400D+11
     27 -0.921566D+00  0.123400D+11
     28 -0.753874D+00 -0.716161D+00  0.123400D+11
     29 -0.117179D-02 -0.121440D-02  0.388300D-03  0.123400D+11
     30 -0.779880D-04  0.300500D-03  0.365356D-03  0.196146D+02  0.123400D+11
     31  0.576131D-03  0.141660D-03  0.137549D-03  0.184603D+02 -0.744345D+00
     32  0.246027D-03  0.488247D-03 -0.170564D-03  0.197476D+02 -0.747699D+00
     33  0.410087D+00  0.370313D+00  0.913669D+00  0.131557D+00  0.177686D-01
               31            32            33 
     31  0.123400D+11
     32 -0.746231D+00  0.123400D+11
     33  0.407461D-01  0.487752D-01  0.123400D+11
 Fermi Contact (FC) contribution to J (Hz):
                1             2             3             4             5 
      1  0.243533D+11
      2  0.684716D+02  0.243533D+11
      3 -0.253505D+01  0.649180D+02  0.243533D+11
      4  0.589474D+01  0.768873D+00  0.665942D+02  0.243533D+11
      5  0.324292D+01  0.600321D+01 -0.245688D+01  0.673483D+02  0.243533D+11
      6  0.703925D+02 -0.392082D+00  0.841156D+01  0.339550D+00  0.768967D+02
      7  0.170949D+03 -0.253270D+01  0.732908D+01 -0.163134D+01  0.476443D+01
      8 -0.158178D+01  0.174986D+03 -0.151672D+01  0.796247D+01 -0.227866D+01
      9 -0.218797D+01  0.788223D+01 -0.129065D+01  0.175423D+03 -0.872477D+00
     10  0.528251D+01 -0.178906D+01  0.809184D+01 -0.192723D+01  0.180010D+03
     11  0.353871D+01  0.221027D+01  0.465146D+02  0.367714D+01  0.401750D+01
     12 -0.948531D+00  0.484783D+01 -0.849358D+01  0.547244D+01 -0.343460D+00
     13  0.103455D+01  0.801921D+01 -0.789433D+01  0.773396D+01  0.197479D+00
     14 -0.103779D+01  0.125128D+01 -0.263144D+01  0.136267D+01 -0.852610D+00
     15  0.984179D-01 -0.169571D+00  0.238757D+00 -0.121097D-01  0.109361D+00
     16  0.646177D-02 -0.168410D+00  0.280586D+01 -0.764902D-01  0.581304D-01
     17  0.804121D+00  0.118833D+00 -0.271741D+00 -0.318585D+01 -0.123698D+02
     18  0.330792D+01 -0.841508D-01 -0.359429D+00  0.164578D+01  0.899547D+01
     19 -0.471719D-01 -0.180659D+00 -0.214247D+00 -0.185993D-01  0.190880D-02
     20 -0.811229D-03  0.135094D-01  0.116344D+01  0.797353D-01 -0.407080D-01
     21 -0.480069D-01  0.665129D-01 -0.369336D+00 -0.608788D-02  0.217815D-01
     22 -0.240604D-01  0.257858D-01  0.600027D-01  0.517927D-01 -0.123369D-01
     23  0.645774D-02  0.941750D-03  0.103015D+00 -0.862344D-02  0.274654D-02
     24  0.536141D-03  0.591349D-02  0.166134D-01  0.328018D-01  0.773520D-02
     25  0.254414D-02 -0.385407D-02  0.606721D-01 -0.109764D-01  0.841088D-02
     26 -0.234643D-02 -0.908531D-03  0.140812D-01 -0.495292D-02  0.390473D-03
     27 -0.273072D-02  0.533238D-02 -0.119828D-01  0.242747D-02 -0.739778D-03
     28  0.140785D-02 -0.236740D-02  0.977169D-02  0.467079D-02  0.551992D-02
     29 -0.184737D-02  0.733574D-02  0.148991D+00  0.100870D-01 -0.111372D-02
     30  0.802604D-03 -0.229745D-02 -0.161732D-01 -0.310536D-02 -0.824221D-04
     31  0.699343D-03  0.618497D-03  0.509861D-01 -0.166869D-02 -0.193199D-03
     32  0.130420D-02  0.313541D-02 -0.215634D-01 -0.190356D-02  0.246950D-03
     33  0.382778D-02 -0.189380D-01  0.379693D-03 -0.115647D-01  0.904974D-02
                6             7             8             9            10 
      6  0.243533D+11
      7 -0.414487D+01  0.385007D+12
      8  0.943575D+01  0.104619D+02  0.385007D+12
      9  0.946206D+01  0.114349D+01  0.118830D+01  0.385007D+12
     10 -0.559399D+01  0.201288D+01  0.128944D+01  0.107101D+02  0.385007D+12
     11 -0.860579D+00  0.705704D-01  0.486500D+01  0.539303D+01  0.146582D+00
     12  0.101653D+01  0.364080D+00 -0.119357D+01 -0.928724D+00  0.467283D+00
     13  0.151342D+00  0.265703D+00 -0.846158D-01 -0.767018D+00  0.118519D+00
     14  0.972126D+00  0.351296D+00 -0.880545D+00 -0.865080D+00  0.303172D+00
     15 -0.698492D-01 -0.320799D-01  0.239899D+00  0.154633D+00 -0.605190D-01
     16  0.765170D-02  0.314318D-01  0.773314D-02  0.159391D-01  0.121707D-01
     17  0.127706D+02 -0.236424D+01 -0.302351D+00 -0.109272D+01 -0.301489D+01
     18 -0.514552D+01 -0.415086D+00  0.543298D-01  0.430058D+00  0.446024D-01
     19 -0.332130D-03 -0.101895D-01 -0.206765D-01 -0.107981D-01 -0.126680D-02
     20  0.255031D-01 -0.104531D-01 -0.353233D-01 -0.520555D-01  0.238257D-01
     21  0.171168D-01  0.404135D-01  0.824739D-02  0.315609D-02  0.855140D-02
     22  0.234987D-01  0.809755D-02 -0.188531D-01 -0.180739D-01  0.108778D-01
     23 -0.224084D-02  0.599656D-03  0.152573D-02  0.411676D-02 -0.685149D-03
     24 -0.252251D-02 -0.284611D-02 -0.427006D-02  0.415747D-02 -0.105308D-01
     25 -0.373274D-02 -0.163936D-02  0.294779D-02  0.233094D-02 -0.207516D-02
     26 -0.723236D-03 -0.788688D-03  0.615707D-03 -0.158605D-03 -0.574098D-03
     27  0.323302D-02 -0.875349D-03 -0.387612D-02 -0.369854D-02 -0.829738D-03
     28 -0.436544D-02 -0.241702D-02 -0.331472D-03 -0.270239D-02 -0.548238D-02
     29  0.672734D-02  0.376986D-02 -0.165266D-02 -0.190724D-02  0.426460D-02
     30 -0.113987D-02 -0.426845D-03  0.165550D-02  0.302298D-03 -0.102978D-02
     31  0.914402D-03  0.737396D-03  0.541346D-03 -0.272261D-03  0.397478D-03
     32 -0.118242D-02 -0.629646D-03  0.322249D-02  0.181280D-03 -0.818630D-03
     33 -0.801875D-02  0.000000D+00 -0.329021D-02  0.979425D-02 -0.335944D-02
               11            12            13            14            15 
     11  0.243533D+11
     12  0.142587D+03  0.385007D+12
     13  0.141090D+03 -0.271193D+02  0.385007D+12
     14  0.373851D+02 -0.430989D+01 -0.840728D+01  0.243533D+11
     15 -0.623672D+01  0.112377D+02  0.104476D+02  0.146990D+03  0.385007D+12
     16  0.210077D+00 -0.424954D-01  0.624710D+01  0.546867D+02 -0.816951D+01
     17 -0.756562D-01 -0.194480D+00 -0.250266D-01 -0.205045D+00  0.161378D-01
     18  0.923370D-01 -0.150916D+00 -0.217625D-01 -0.161309D+00  0.143332D-01
     19 -0.205881D+01  0.725429D-01  0.742255D-01 -0.353907D+01 -0.134397D+01
     20  0.384051D+00  0.290397D+01  0.488687D-02  0.819545D+01 -0.235355D+01
     21  0.336641D+01 -0.502276D+00 -0.140624D+00  0.180403D+01  0.820250D+01
     22  0.392617D+00 -0.134124D+00 -0.173463D+00  0.638168D+01  0.369868D+00
     23  0.377838D+00 -0.393757D-02 -0.146808D-01  0.520899D+00 -0.851108D+00
     24  0.225499D+01  0.359970D+00 -0.366171D+00 -0.904856D+00  0.459724D+01
     25 -0.782033D-01  0.376590D+00  0.220845D-01  0.165392D+01 -0.730408D+00
     26  0.170976D+00  0.843313D-01 -0.357591D-01  0.177846D+00  0.357286D+00
     27 -0.395209D-01 -0.481815D-01 -0.152617D-01  0.131157D+00  0.651823D+00
     28 -0.288615D-01 -0.408682D-02  0.649997D-02  0.708029D+00 -0.111534D+00
     29  0.661686D+00 -0.754852D-01  0.301527D-01  0.167975D+01 -0.868039D-01
     30 -0.619052D-01  0.524802D-02  0.355878D-01 -0.487171D+00  0.538481D+00
     31  0.111727D+00 -0.689399D-02  0.685951D-01 -0.164371D+00  0.228937D-01
     32 -0.531992D-01 -0.725395D-03 -0.134206D-01 -0.725062D+00  0.478191D+00
     33 -0.164325D+00 -0.349021D-01 -0.299439D+00 -0.782066D+00 -0.600412D+00
               16            17            18            19            20 
     16  0.243533D+11
     17 -0.387269D-03  0.708114D+10
     18 -0.836368D-03 -0.843469D+02  0.385007D+12
     19  0.107168D+02  0.584726D-03  0.231838D-03  0.708114D+10
     20  0.246055D+00 -0.639832D-02 -0.462903D-02 -0.183819D+00  0.201170D+10
     21 -0.231629D+00 -0.102098D-02 -0.288968D-03  0.451050D-01  0.710766D+02
     22  0.163333D+02 -0.517235D-02 -0.396296D-02 -0.188076D+01 -0.775726D-02
     23  0.227361D+01  0.966478D-04  0.221208D-03 -0.225537D+01 -0.290530D-01
     24  0.121138D+00  0.590191D-04 -0.396186D-03 -0.159108D-01  0.150384D+02
     25 -0.290811D+00  0.299207D-03  0.289349D-03 -0.269469D-01  0.674203D+01
     26  0.350513D+00  0.191481D-05 -0.103956D-04 -0.407767D-02  0.941896D+00
     27  0.696060D+00 -0.944722D-03 -0.835907D-03 -0.405226D-01  0.101794D+01
     28 -0.296383D-02  0.200967D-03 -0.123624D-03 -0.612123D-02  0.877741D+00
     29 -0.112731D+01 -0.197981D-02 -0.133739D-02 -0.695233D+00 -0.104525D+00
     30  0.205634D+01  0.310700D-03  0.209301D-03 -0.113250D+01  0.319069D+00
     31  0.819676D+01 -0.131006D-03 -0.801688D-04 -0.720504D+00  0.146113D-02
     32  0.157576D+01  0.264947D-03  0.205833D-03 -0.112525D+01  0.234983D+00
     33 -0.398946D+00  0.173731D-02  0.130403D-02  0.886210D-01 -0.150415D+01
               21            22            23            24            25 
     21  0.385007D+12
     22  0.430217D-01  0.201170D+10
     23  0.610658D-01  0.732920D+02  0.385007D+12
     24  0.332578D+01 -0.133728D+00  0.131987D+00  0.243533D+11
     25  0.111908D+01  0.997212D-01 -0.177958D+00  0.539645D+02  0.243533D+11
     26 -0.564681D+00 -0.340306D-03 -0.142504D+00 -0.939393D+01  0.139880D+03
     27 -0.423863D+00 -0.218944D-01 -0.213984D-01 -0.928302D+01  0.141621D+03
     28 -0.356607D+00  0.609360D-01 -0.704834D-01 -0.597446D+01  0.136869D+03
     29 -0.324766D-01  0.941489D+01  0.302425D+01 -0.254614D-01 -0.649601D-02
     30  0.327567D-01 -0.147246D+01  0.312037D+01 -0.152455D-01  0.103710D-02
     31  0.172214D-02 -0.667906D+00  0.918513D+01  0.388829D-02  0.841192D-02
     32  0.574242D-01 -0.139082D+01  0.379051D+01  0.351119D-02  0.605495D-01
     33 -0.165972D+01 -0.174365D+01  0.375096D+01  0.100175D+02 -0.442806D+01
               26            27            28            29            30 
     26  0.385007D+12
     27 -0.287528D+02  0.385007D+12
     28 -0.235208D+02 -0.223442D+02  0.385007D+12
     29 -0.919494D-02 -0.952928D-02  0.304695D-02  0.243533D+11
     30 -0.243322D-02  0.937558D-02  0.113991D-01  0.153914D+03  0.385007D+12
     31  0.179753D-01  0.441980D-02  0.429152D-02  0.144856D+03 -0.232235D+02
     32  0.767603D-02  0.152333D-01 -0.532159D-02  0.154958D+03 -0.233282D+02
     33 -0.173519D+01 -0.156690D+01 -0.386598D+01 -0.140000D+00 -0.751840D-01
               31            32            33 
     31  0.385007D+12
     32 -0.232824D+02  0.385007D+12
     33 -0.172408D+00 -0.206381D+00  0.708114D+10
 End of Minotr F.D. properties file   721 does not exist.
 End of Minotr F.D. properties file   722 does not exist.
 End of Minotr F.D. properties file   788 does not exist.
 Leave Link 1002 at Wed Jun 25 01:48:25 2014, MaxMem=  4294967296 cpu:    460516.5
 (Enter /home/ztw1e12/g09/l601.exe)
 Copying SCF densities to generalized density rwf, IOpCl= 0 IROHF=0.

 **********************************************************************

            Population analysis using the SCF density.

 **********************************************************************

 Orbital symmetries:
       Occupied  (A) (A) (A) (A) (A) (A) (A) (A) (A) (A) (A) (A)
                 (A) (A) (A) (A) (A) (A) (A) (A) (A) (A) (A) (A)
                 (A) (A) (A) (A) (A) (A) (A) (A) (A) (A) (A) (A)
                 (A) (A) (A) (A) (A) (A) (A) (A) (A) (A) (A) (A)
                 (A) (A) (A) (A) (A) (A) (A) (A) (A) (A) (A) (A)
                 (A) (A) (A)
       Virtual   (A) (A) (A) (A) (A) (A) (A) (A) (A) (A) (A) (A)
                 (A) (A) (A) (A) (A) (A) (A) (A) (A) (A) (A) (A)
                 (A) (A) (A) (A) (A) (A) (A) (A) (A) (A) (A) (A)
                 (A) (A) (A) (A) (A) (A) (A) (A) (A) (A) (A) (A)
                 (A) (A) (A) (A) (A) (A) (A) (A) (A) (A) (A) (A)
                 (A) (A) (A) (A) (A) (A) (A) (A) (A) (A) (A) (A)
                 (A) (A) (A) (A) (A) (A) (A) (A) (A) (A) (A) (A)
                 (A) (A) (A) (A) (A) (A) (A) (A) (A) (A) (A) (A)
                 (A) (A) (A) (A) (A) (A) (A) (A) (A) (A) (A) (A)
                 (A) (A) (A) (A) (A) (A) (A) (A) (A) (A) (A) (A)
                 (A) (A) (A) (A) (A) (A) (A) (A) (A) (A) (A) (A)
                 (A) (A) (A) (A) (A) (A) (A) (A) (A) (A) (A) (A)
                 (A) (A) (A) (A) (A) (A) (A) (A) (A) (A) (A) (A)
                 (A) (A) (A) (A) (A) (A) (A) (A) (A) (A) (A) (A)
                 (A) (A) (A) (A) (A) (A) (A) (A) (A) (A) (A) (A)
                 (A) (A) (A) (A) (A) (A) (A) (A) (A) (A) (A) (A)
                 (A) (A) (A) (A) (A) (A) (A) (A) (A) (A) (A) (A)
                 (A) (A) (A) (A) (A) (A) (A) (A) (A) (A) (A) (A)
                 (A) (A) (A) (A) (A) (A) (A) (A) (A) (A) (A) (A)
                 (A) (A) (A) (A) (A) (A) (A) (A) (A) (A) (A) (A)
                 (A) (A) (A) (A) (A) (A) (A) (A) (A) (A) (A) (A)
                 (A) (A) (A) (A) (A) (A) (A) (A) (A) (A) (A) (A)
                 (A) (A) (A) (A) (A) (A) (A) (A) (A) (A) (A) (A)
                 (A) (A) (A) (A) (A) (A) (A) (A) (A) (A) (A) (A)
                 (A) (A) (A) (A) (A) (A) (A) (A) (A) (A) (A) (A)
                 (A) (A) (A) (A) (A) (A) (A) (A) (A) (A) (A) (A)
                 (A) (A) (A) (A) (A) (A) (A) (A) (A) (A) (A) (A)
                 (A) (A) (A) (A) (A) (A) (A) (A) (A) (A) (A) (A)
                 (A) (A) (A) (A) (A) (A) (A) (A) (A) (A) (A) (A)
                 (A) (A) (A) (A) (A) (A) (A) (A) (A) (A) (A) (A)
                 (A) (A) (A) (A) (A) (A) (A) (A) (A) (A) (A) (A)
                 (A) (A) (A) (A) (A) (A) (A) (A) (A) (A) (A) (A)
                 (A) (A) (A) (A) (A) (A) (A) (A) (A) (A) (A) (A)
                 (A) (A) (A) (A) (A) (A) (A) (A) (A) (A) (A) (A)
                 (A) (A) (A) (A) (A) (A) (A) (A) (A) (A) (A) (A)
                 (A) (A) (A) (A) (A) (A) (A) (A) (A) (A) (A) (A)
                 (A) (A) (A) (A) (A) (A) (A) (A) (A) (A) (A) (A)
                 (A) (A) (A) (A) (A) (A) (A) (A) (A) (A) (A) (A)
                 (A) (A) (A) (A) (A) (A) (A) (A) (A) (A) (A) (A)
                 (A) (A) (A) (A) (A) (A) (A) (A) (A) (A) (A) (A)
                 (A) (A) (A) (A) (A) (A) (A) (A) (A) (A) (A) (A)
                 (A) (A) (A) (A) (A) (A) (A) (A) (A) (A) (A) (A)
                 (A) (A) (A) (A) (A) (A) (A) (A) (A) (A) (A) (A)
                 (A) (A) (A) (A) (A) (A) (A) (A) (A) (A) (A) (A)
                 (A) (A) (A) (A) (A) (A) (A) (A) (A) (A) (A) (A)
                 (A) (A) (A) (A) (A) (A) (A) (A) (A) (A) (A) (A)
                 (A) (A) (A) (A) (A) (A) (A) (A) (A) (A) (A) (A)
                 (A) (A) (A) (A) (A) (A) (A) (A) (A) (A) (A) (A)
                 (A) (A) (A) (A) (A) (A) (A) (A) (A) (A) (A) (A)
                 (A) (A) (A) (A) (A) (A) (A) (A) (A) (A) (A) (A)
                 (A) (A) (A) (A) (A) (A) (A) (A) (A) (A) (A) (A)
                 (A) (A) (A) (A) (A) (A) (A) (A) (A) (A) (A) (A)
                 (A) (A) (A) (A) (A) (A) (A) (A) (A) (A) (A) (A)
                 (A) (A) (A) (A) (A) (A) (A) (A) (A) (A) (A) (A)
                 (A) (A) (A) (A) (A) (A) (A) (A) (A) (A) (A) (A)
                 (A) (A) (A) (A) (A) (A) (A) (A) (A) (A) (A) (A)
                 (A) (A) (A) (A) (A) (A) (A) (A) (A) (A) (A) (A)
                 (A) (A) (A) (A) (A) (A) (A) (A) (A) (A) (A) (A)
                 (A) (A) (A) (A) (A) (A) (A) (A) (A) (A) (A) (A)
                 (A) (A) (A) (A) (A) (A) (A) (A) (A) (A) (A) (A)
                 (A) (A) (A) (A) (A) (A) (A) (A) (A) (A) (A) (A)
                 (A) (A) (A) (A) (A) (A) (A) (A) (A) (A) (A) (A)
                 (A) (A) (A) (A) (A) (A) (A) (A) (A) (A) (A) (A)
                 (A) (A) (A) (A) (A) (A) (A) (A) (A) (A) (A) (A)
                 (A) (A) (A) (A) (A) (A) (A) (A) (A) (A) (A) (A)
                 (A) (A) (A) (A) (A) (A) (A) (A) (A) (A) (A) (A)
                 (A) (A) (A) (A) (A) (A) (A) (A) (A) (A) (A) (A)
                 (A) (A) (A) (A) (A) (A) (A) (A) (A) (A) (A) (A)
                 (A) (A) (A) (A) (A) (A) (A) (A) (A) (A) (A) (A)
                 (A) (A) (A) (A) (A) (A) (A) (A) (A) (A) (A) (A)
                 (A) (A) (A) (A) (A) (A) (A) (A) (A) (A) (A) (A)
                 (A) (A) (A) (A) (A) (A) (A) (A) (A) (A) (A) (A)
                 (A) (A) (A) (A) (A) (A) (A) (A) (A) (A) (A) (A)
                 (A) (A) (A) (A) (A) (A) (A) (A) (A) (A) (A) (A)
                 (A) (A) (A) (A) (A) (A) (A) (A) (A) (A) (A) (A)
                 (A) (A) (A) (A) (A) (A) (A) (A) (A) (A) (A) (A)
                 (A) (A) (A) (A) (A) (A) (A) (A) (A) (A) (A) (A)
                 (A) (A) (A) (A) (A) (A) (A) (A) (A) (A) (A) (A)
                 (A) (A) (A) (A) (A) (A) (A) (A) (A) (A) (A) (A)
                 (A) (A) (A) (A) (A) (A) (A) (A) (A) (A) (A) (A)
                 (A) (A) (A) (A) (A) (A) (A) (A) (A) (A) (A) (A)
                 (A) (A) (A) (A) (A) (A) (A) (A) (A) (A) (A) (A)
                 (A) (A) (A) (A) (A) (A) (A) (A) (A) (A) (A) (A)
                 (A) (A) (A) (A) (A) (A) (A) (A) (A)
 The electronic state is 1-A.
 Alpha  occ. eigenvalues --  -19.25220 -19.18523 -19.17318 -14.42846 -14.40568
 Alpha  occ. eigenvalues --  -10.35201 -10.33275 -10.31301 -10.29406 -10.26486
 Alpha  occ. eigenvalues --  -10.25268 -10.25213 -10.25150 -10.25118 -10.25065
 Alpha  occ. eigenvalues --  -10.24696 -10.24587  -1.09535  -1.06541  -1.04956
 Alpha  occ. eigenvalues --   -0.95713  -0.93270  -0.88160  -0.81408  -0.77433
 Alpha  occ. eigenvalues --   -0.77237  -0.74430  -0.71690  -0.66355  -0.64503
 Alpha  occ. eigenvalues --   -0.61553  -0.60648  -0.58613  -0.56868  -0.55165
 Alpha  occ. eigenvalues --   -0.51717  -0.51120  -0.50404  -0.48427  -0.47029
 Alpha  occ. eigenvalues --   -0.46722  -0.45910  -0.45523  -0.44410  -0.44009
 Alpha  occ. eigenvalues --   -0.43427  -0.42715  -0.42481  -0.41763  -0.40907
 Alpha  occ. eigenvalues --   -0.39830  -0.38897  -0.38215  -0.37247  -0.36460
 Alpha  occ. eigenvalues --   -0.35537  -0.35221  -0.30302  -0.28271  -0.27908
 Alpha  occ. eigenvalues --   -0.26995  -0.26036  -0.24294
 Alpha virt. eigenvalues --   -0.02010  -0.00010   0.01066   0.01754   0.02518
 Alpha virt. eigenvalues --    0.03695   0.04013   0.04851   0.05513   0.06820
 Alpha virt. eigenvalues --    0.07571   0.08581   0.09095   0.10349   0.10881
 Alpha virt. eigenvalues --    0.11355   0.11804   0.11982   0.13206   0.14025
 Alpha virt. eigenvalues --    0.15246   0.16436   0.17709   0.18455   0.19108
 Alpha virt. eigenvalues --    0.19382   0.21021   0.21920   0.22068   0.23543
 Alpha virt. eigenvalues --    0.23604   0.23781   0.24991   0.25516   0.26187
 Alpha virt. eigenvalues --    0.26996   0.27432   0.28536   0.29185   0.29953
 Alpha virt. eigenvalues --    0.30140   0.30218   0.31495   0.32059   0.32757
 Alpha virt. eigenvalues --    0.32981   0.33552   0.34376   0.34540   0.35196
 Alpha virt. eigenvalues --    0.35294   0.35697   0.36532   0.37003   0.37726
 Alpha virt. eigenvalues --    0.38233   0.38781   0.38978   0.39516   0.40085
 Alpha virt. eigenvalues --    0.40360   0.40817   0.41082   0.41280   0.41972
 Alpha virt. eigenvalues --    0.42127   0.42597   0.43113   0.43424   0.43766
 Alpha virt. eigenvalues --    0.44515   0.44999   0.45415   0.45937   0.46313
 Alpha virt. eigenvalues --    0.47140   0.48227   0.49021   0.49607   0.50340
 Alpha virt. eigenvalues --    0.50432   0.51801   0.52023   0.52954   0.53136
 Alpha virt. eigenvalues --    0.53502   0.54343   0.55510   0.56098   0.57806
 Alpha virt. eigenvalues --    0.57924   0.58793   0.59747   0.60560   0.61124
 Alpha virt. eigenvalues --    0.61837   0.62171   0.64040   0.64200   0.64511
 Alpha virt. eigenvalues --    0.64838   0.65060   0.66240   0.66815   0.68215
 Alpha virt. eigenvalues --    0.69346   0.70882   0.71414   0.72083   0.72304
 Alpha virt. eigenvalues --    0.72775   0.74240   0.74723   0.75390   0.76065
 Alpha virt. eigenvalues --    0.76483   0.77160   0.78110   0.79350   0.79606
 Alpha virt. eigenvalues --    0.80311   0.81419   0.81663   0.82193   0.82343
 Alpha virt. eigenvalues --    0.83460   0.84176   0.85250   0.85319   0.86349
 Alpha virt. eigenvalues --    0.87539   0.87699   0.88841   0.89646   0.91226
 Alpha virt. eigenvalues --    0.92008   0.92668   0.93030   0.93919   0.94461
 Alpha virt. eigenvalues --    0.95144   0.96310   0.96584   0.96640   0.97494
 Alpha virt. eigenvalues --    0.98389   0.98628   0.99516   1.00570   1.01322
 Alpha virt. eigenvalues --    1.01814   1.02251   1.04140   1.04527   1.05276
 Alpha virt. eigenvalues --    1.05497   1.06734   1.07268   1.07939   1.08796
 Alpha virt. eigenvalues --    1.09780   1.09914   1.11759   1.12376   1.13467
 Alpha virt. eigenvalues --    1.13941   1.15434   1.15798   1.16242   1.16666
 Alpha virt. eigenvalues --    1.17746   1.18073   1.19733   1.20123   1.20385
 Alpha virt. eigenvalues --    1.21205   1.21336   1.21867   1.22465   1.22538
 Alpha virt. eigenvalues --    1.23029   1.23315   1.23970   1.24414   1.25167
 Alpha virt. eigenvalues --    1.25449   1.25913   1.26380   1.26517   1.26898
 Alpha virt. eigenvalues --    1.28084   1.28567   1.29169   1.30316   1.30671
 Alpha virt. eigenvalues --    1.31069   1.32418   1.32887   1.33827   1.34515
 Alpha virt. eigenvalues --    1.34641   1.35123   1.35864   1.37327   1.38106
 Alpha virt. eigenvalues --    1.38952   1.40049   1.40982   1.42404   1.46004
 Alpha virt. eigenvalues --    1.47020   1.48742   1.49150   1.49698   1.52367
 Alpha virt. eigenvalues --    1.53110   1.53717   1.54688   1.56252   1.58201
 Alpha virt. eigenvalues --    1.59219   1.60143   1.60637   1.61647   1.63626
 Alpha virt. eigenvalues --    1.64044   1.64929   1.68534   1.69767   1.70679
 Alpha virt. eigenvalues --    1.73077   1.73997   1.76291   1.77925   1.79611
 Alpha virt. eigenvalues --    1.80949   1.81692   1.82535   1.83667   1.84482
 Alpha virt. eigenvalues --    1.85308   1.86439   1.87406   1.89857   1.91141
 Alpha virt. eigenvalues --    1.91291   1.92313   1.92919   1.95032   1.95889
 Alpha virt. eigenvalues --    1.96953   1.99643   2.01645   2.01965   2.02709
 Alpha virt. eigenvalues --    2.04007   2.04873   2.06595   2.07308   2.07578
 Alpha virt. eigenvalues --    2.09199   2.09688   2.10470   2.12220   2.14627
 Alpha virt. eigenvalues --    2.15963   2.16719   2.17564   2.18678   2.19023
 Alpha virt. eigenvalues --    2.20011   2.22239   2.22968   2.24142   2.25185
 Alpha virt. eigenvalues --    2.27406   2.28347   2.28609   2.30478   2.31680
 Alpha virt. eigenvalues --    2.32448   2.34465   2.36411   2.36957   2.38440
 Alpha virt. eigenvalues --    2.39293   2.39885   2.40967   2.42678   2.43504
 Alpha virt. eigenvalues --    2.44429   2.45120   2.45687   2.46970   2.47525
 Alpha virt. eigenvalues --    2.49199   2.50747   2.51984   2.53006   2.53950
 Alpha virt. eigenvalues --    2.55611   2.55947   2.56412   2.57805   2.60608
 Alpha virt. eigenvalues --    2.62215   2.63212   2.65133   2.65837   2.66762
 Alpha virt. eigenvalues --    2.67412   2.67820   2.68909   2.69362   2.69769
 Alpha virt. eigenvalues --    2.70380   2.70626   2.71608   2.72132   2.72689
 Alpha virt. eigenvalues --    2.73385   2.73513   2.74795   2.75115   2.75796
 Alpha virt. eigenvalues --    2.77584   2.78529   2.78949   2.79873   2.80096
 Alpha virt. eigenvalues --    2.80857   2.82306   2.83097   2.83938   2.85672
 Alpha virt. eigenvalues --    2.86267   2.87858   2.88402   2.88433   2.89040
 Alpha virt. eigenvalues --    2.90418   2.91106   2.92003   2.92141   2.92844
 Alpha virt. eigenvalues --    2.93402   2.93597   2.93760   2.94976   2.95626
 Alpha virt. eigenvalues --    2.96222   2.97043   2.97723   2.98107   2.99272
 Alpha virt. eigenvalues --    2.99478   3.00287   3.00822   3.01281   3.01911
 Alpha virt. eigenvalues --    3.02693   3.03144   3.03948   3.04447   3.05110
 Alpha virt. eigenvalues --    3.05377   3.05833   3.06940   3.07352   3.09899
 Alpha virt. eigenvalues --    3.10209   3.10282   3.11847   3.12054   3.12960
 Alpha virt. eigenvalues --    3.13234   3.13906   3.15260   3.16026   3.16633
 Alpha virt. eigenvalues --    3.17560   3.18595   3.19054   3.20130   3.20792
 Alpha virt. eigenvalues --    3.21495   3.22396   3.22625   3.23816   3.25200
 Alpha virt. eigenvalues --    3.25615   3.25818   3.27263   3.27708   3.28127
 Alpha virt. eigenvalues --    3.28494   3.29183   3.29624   3.30110   3.30768
 Alpha virt. eigenvalues --    3.31817   3.31981   3.32321   3.33872   3.34723
 Alpha virt. eigenvalues --    3.34906   3.35642   3.36169   3.38094   3.38768
 Alpha virt. eigenvalues --    3.39875   3.40415   3.40832   3.41668   3.42287
 Alpha virt. eigenvalues --    3.43079   3.43397   3.44581   3.45401   3.46702
 Alpha virt. eigenvalues --    3.47374   3.47897   3.49494   3.49779   3.51192
 Alpha virt. eigenvalues --    3.51895   3.52792   3.53510   3.55027   3.55361
 Alpha virt. eigenvalues --    3.56239   3.58536   3.58942   3.59605   3.60351
 Alpha virt. eigenvalues --    3.62823   3.62979   3.64176   3.65978   3.66105
 Alpha virt. eigenvalues --    3.67177   3.68011   3.68788   3.69549   3.70965
 Alpha virt. eigenvalues --    3.71509   3.72522   3.73288   3.73427   3.73520
 Alpha virt. eigenvalues --    3.74962   3.75621   3.76759   3.76797   3.77225
 Alpha virt. eigenvalues --    3.78071   3.78866   3.80035   3.81112   3.81906
 Alpha virt. eigenvalues --    3.82846   3.83327   3.83670   3.85340   3.86524
 Alpha virt. eigenvalues --    3.86614   3.87312   3.88462   3.89575   3.89602
 Alpha virt. eigenvalues --    3.90822   3.91663   3.92928   3.94312   3.94802
 Alpha virt. eigenvalues --    3.96263   3.96746   3.98559   3.99452   4.00501
 Alpha virt. eigenvalues --    4.00923   4.02351   4.03899   4.04627   4.05475
 Alpha virt. eigenvalues --    4.05564   4.06961   4.07127   4.08121   4.08191
 Alpha virt. eigenvalues --    4.10206   4.10640   4.12152   4.13366   4.13808
 Alpha virt. eigenvalues --    4.14693   4.15482   4.16105   4.17118   4.18562
 Alpha virt. eigenvalues --    4.19743   4.20006   4.20503   4.21358   4.21852
 Alpha virt. eigenvalues --    4.22520   4.23669   4.24618   4.25675   4.26763
 Alpha virt. eigenvalues --    4.27511   4.27866   4.29732   4.30494   4.30867
 Alpha virt. eigenvalues --    4.31893   4.32718   4.34278   4.35657   4.38521
 Alpha virt. eigenvalues --    4.39456   4.41691   4.42514   4.43099   4.43460
 Alpha virt. eigenvalues --    4.45080   4.46250   4.49088   4.49470   4.49980
 Alpha virt. eigenvalues --    4.53885   4.54831   4.56108   4.58107   4.59445
 Alpha virt. eigenvalues --    4.60003   4.60474   4.61925   4.62417   4.63846
 Alpha virt. eigenvalues --    4.64672   4.65197   4.65634   4.66388   4.68587
 Alpha virt. eigenvalues --    4.69210   4.70160   4.70381   4.72138   4.72877
 Alpha virt. eigenvalues --    4.74154   4.76988   4.77951   4.79278   4.79786
 Alpha virt. eigenvalues --    4.80417   4.82030   4.83763   4.84598   4.86489
 Alpha virt. eigenvalues --    4.86881   4.88741   4.89464   4.90450   4.91975
 Alpha virt. eigenvalues --    4.92418   4.93379   4.94383   4.95040   4.96649
 Alpha virt. eigenvalues --    4.97878   4.99094   4.99568   5.01560   5.02986
 Alpha virt. eigenvalues --    5.03511   5.05136   5.07631   5.08159   5.09134
 Alpha virt. eigenvalues --    5.10098   5.10816   5.12825   5.12863   5.15675
 Alpha virt. eigenvalues --    5.16596   5.17919   5.18312   5.19492   5.20332
 Alpha virt. eigenvalues --    5.22033   5.22715   5.24178   5.26037   5.27484
 Alpha virt. eigenvalues --    5.29349   5.32962   5.34879   5.35978   5.37608
 Alpha virt. eigenvalues --    5.39951   5.42473   5.43733   5.45751   5.47005
 Alpha virt. eigenvalues --    5.51354   5.51620   5.52157   5.53193   5.55245
 Alpha virt. eigenvalues --    5.56625   5.57832   5.58770   5.61165   5.62452
 Alpha virt. eigenvalues --    5.63561   5.65204   5.65875   5.66689   5.67608
 Alpha virt. eigenvalues --    5.68090   5.69307   5.71123   5.72891   5.74478
 Alpha virt. eigenvalues --    5.74766   5.77159   5.77511   5.80125   5.81183
 Alpha virt. eigenvalues --    5.81505   5.86283   5.89490   5.90537   5.96706
 Alpha virt. eigenvalues --    5.98493   6.00291   6.05111   6.06514   6.09743
 Alpha virt. eigenvalues --    6.16537   6.17281   6.19776   6.24680   6.25958
 Alpha virt. eigenvalues --    6.45818   6.46463   6.50354   6.55570   6.60232
 Alpha virt. eigenvalues --    6.60531   6.61239   6.61826   6.63595   6.66629
 Alpha virt. eigenvalues --    6.79844   6.79881   6.81219   6.87821   6.88722
 Alpha virt. eigenvalues --    6.90122   6.91220   6.93130   6.94173   7.06254
 Alpha virt. eigenvalues --    7.17894   7.19014   7.22651   7.27859   7.28957
 Alpha virt. eigenvalues --    7.67198   7.99326   8.09526   8.11695   8.12799
 Alpha virt. eigenvalues --    8.16524   8.19811   8.25254   8.35533   8.66749
 Alpha virt. eigenvalues --    8.74023   8.75290   8.77189   8.81363   8.81443
 Alpha virt. eigenvalues --    8.83005   8.83569   8.84882   8.89426   8.92107
 Alpha virt. eigenvalues --    8.93293   8.94868   8.96075   9.00908   9.06919
 Alpha virt. eigenvalues --    9.08834   9.12877   9.15739   9.21631   9.30691
 Alpha virt. eigenvalues --    9.35499   9.40068   9.40700   9.45630   9.47955
 Alpha virt. eigenvalues --    9.58006   9.63273   9.78054   9.81881  10.02304
 Alpha virt. eigenvalues --   10.06862  10.11116  10.11927  10.13685  10.17605
[...]
 Alpha virt. eigenvalues --    6.61112   6.61704   6.64108   6.64503   6.72526
 Alpha virt. eigenvalues --    6.78090   6.80313   6.85645   6.87027   6.88172
 Alpha virt. eigenvalues --    6.91792   6.92642   7.07886   7.10397   7.10764
 Alpha virt. eigenvalues --    7.15266   7.19267   7.28470   7.43268   8.63989
 Alpha virt. eigenvalues --    9.52059   9.95526  11.96054  12.12319  12.29204
 Alpha virt. eigenvalues --   12.37475  12.51886  12.77709  12.92876  13.16204
 Alpha virt. eigenvalues --   13.50965  13.55723  13.57313  13.77064  14.01722
 Alpha virt. eigenvalues --   15.56009
          Condensed to atoms (all electrons):
               1          2          3          4          5          6
     1  C    5.417521   0.226446   0.002705  -0.042165  -0.019321   0.298631
     2  C    0.226446   5.385140   0.288837  -0.015541  -0.034168   0.025879
     3  C    0.002705   0.288837   5.491878   0.260782  -0.034382  -0.071171
     4  C   -0.042165  -0.015541   0.260782   5.338146   0.389189  -0.013363
     5  C   -0.019321  -0.034168  -0.034382   0.389189   5.107467   0.377020
     6  C    0.298631   0.025879  -0.071171  -0.013363   0.377020   4.881652
     7  H    0.451230  -0.034742   0.008965  -0.000638   0.003803  -0.072887
     8  H   -0.023528   0.436777  -0.074872   0.006863  -0.001292   0.006811
     9  H   -0.003788   0.009802  -0.091258   0.457081  -0.040169   0.011578
    10  H    0.014335  -0.006017   0.013795  -0.057990   0.453235  -0.078285
    11  C    0.006293  -0.059398   0.151818  -0.037403   0.008208  -0.001567
    12  H    0.000182  -0.008036  -0.053783   0.007470  -0.000466   0.000110
    13  H   -0.000420   0.005140  -0.044776  -0.004796  -0.000552   0.000134
    14  C    0.000388  -0.000991  -0.004471  -0.010136   0.000503  -0.000095
    15  H   -0.000263  -0.004217   0.003714   0.000963  -0.000084   0.000016
    16  C   -0.000029   0.001139   0.006397  -0.000266  -0.000080   0.000009
    17  O   -0.089855   0.013571  -0.000587   0.002776  -0.049758   0.392372
    18  H   -0.005106   0.004658  -0.000369  -0.000715   0.002313  -0.043001
    19  O   -0.000001  -0.000161   0.005238  -0.000509  -0.000014   0.000001
    20  N    0.000446   0.007363  -0.026115  -0.003022   0.000357  -0.000254
    21  H   -0.001028   0.000664   0.001083   0.005157   0.000095   0.000045
    22  N    0.000000  -0.000034   0.000446  -0.000036   0.000000   0.000000
    23  H    0.000000  -0.000004  -0.000235   0.000021   0.000001   0.000000
    24  C    0.000307  -0.002265  -0.000151   0.000002   0.000093  -0.000084
    25  C    0.000202   0.000489   0.000195  -0.000283  -0.000028  -0.000025
    26  H    0.000092   0.000048   0.000061  -0.000042  -0.000029   0.000007
    27  H    0.000003   0.000023  -0.000017  -0.000017   0.000003   0.000001
    28  H   -0.000011  -0.000014  -0.000058   0.000031   0.000354   0.000038
    29  C    0.000000   0.000004  -0.000032   0.000001   0.000000   0.000000
    30  H    0.000000  -0.000001  -0.000015   0.000001   0.000000   0.000000
    31  H    0.000000   0.000000  -0.000002   0.000000   0.000000   0.000000
    32  H    0.000000   0.000001   0.000009   0.000000   0.000000   0.000000
    33  O   -0.000006  -0.000399   0.000171   0.000030  -0.000001  -0.000001
               7          8          9         10         11         12
     1  C    0.451230  -0.023528  -0.003788   0.014335   0.006293   0.000182
     2  C   -0.034742   0.436777   0.009802  -0.006017  -0.059398  -0.008036
     3  C    0.008965  -0.074872  -0.091258   0.013795   0.151818  -0.053783
     4  C   -0.000638   0.006863   0.457081  -0.057990  -0.037403   0.007470
     5  C    0.003803  -0.001292  -0.040169   0.453235   0.008208  -0.000466
     6  C   -0.072887   0.006811   0.011578  -0.078285  -0.001567   0.000110
     7  H    0.532453  -0.006687   0.000045  -0.000221  -0.000222  -0.000020
     8  H   -0.006687   0.492757  -0.000174   0.000042   0.000221  -0.000184
     9  H    0.000045  -0.000174   0.480218  -0.008935   0.003772   0.000248
    10  H   -0.000221   0.000042  -0.008935   0.535278  -0.000213   0.000012
    11  C   -0.000222   0.000221   0.003772  -0.000213   5.415997   0.449642
    12  H   -0.000020  -0.000184   0.000248   0.000012   0.449642   0.485024
    13  H    0.000013   0.000253   0.002411  -0.000066   0.422098  -0.003921
    14  C    0.000020   0.000557  -0.001898   0.000026   0.159966  -0.062021
    15  H   -0.000003   0.001493   0.000088  -0.000002   0.000123  -0.003517
    16  C    0.000000   0.000189   0.000121  -0.000001  -0.063364   0.002012
    17  O   -0.004073  -0.000110  -0.000130   0.006263  -0.000002  -0.000001
    18  H    0.004482  -0.000006   0.000043  -0.000945  -0.000006   0.000000
    19  O    0.000000   0.000016   0.000146   0.000000   0.005553  -0.000066
    20  N    0.000014  -0.000916   0.000152   0.000019  -0.033920   0.004679
    21  H   -0.000003   0.000175   0.000333  -0.000058   0.005701   0.000201
    22  N    0.000000  -0.000007  -0.000004   0.000000   0.004342   0.000360
    23  H    0.000000  -0.000013   0.000002   0.000000  -0.000409   0.000032
    24  C    0.000008  -0.000115  -0.000046   0.000003   0.003347  -0.000113
    25  C    0.000005  -0.000016   0.000008   0.000004  -0.000677   0.000021
    26  H    0.000000   0.000011   0.000001  -0.000001   0.000102  -0.000003
    27  H    0.000000   0.000000  -0.000002   0.000000  -0.000067  -0.000001
    28  H   -0.000001   0.000005  -0.000008   0.000010  -0.000273  -0.000001
    29  C    0.000000   0.000000  -0.000001   0.000000  -0.000934   0.000012
    30  H    0.000000   0.000000   0.000001   0.000000  -0.000087   0.000011
    31  H    0.000000   0.000000   0.000000   0.000000  -0.000012  -0.000001
    32  H    0.000000   0.000000   0.000000   0.000000   0.000114  -0.000029
    33  O    0.000000   0.000042   0.000002   0.000000   0.001857   0.000019
              13         14         15         16         17         18
     1  C   -0.000420   0.000388  -0.000263  -0.000029  -0.089855  -0.005106
     2  C    0.005140  -0.000991  -0.004217   0.001139   0.013571   0.004658
     3  C   -0.044776  -0.004471   0.003714   0.006397  -0.000587  -0.000369
     4  C   -0.004796  -0.010136   0.000963  -0.000266   0.002776  -0.000715
     5  C   -0.000552   0.000503  -0.000084  -0.000080  -0.049758   0.002313
     6  C    0.000134  -0.000095   0.000016   0.000009   0.392372  -0.043001
     7  H    0.000013   0.000020  -0.000003   0.000000  -0.004073   0.004482
     8  H    0.000253   0.000557   0.001493   0.000189  -0.000110  -0.000006
     9  H    0.002411  -0.001898   0.000088   0.000121  -0.000130   0.000043
    10  H   -0.000066   0.000026  -0.000002  -0.000001   0.006263  -0.000945
    11  C    0.422098   0.159966   0.000123  -0.063364  -0.000002  -0.000006
    12  H   -0.003921  -0.062021  -0.003517   0.002012  -0.000001   0.000000
    13  H    0.427592  -0.065110   0.004543   0.000188   0.000000   0.000000
    14  C   -0.065110   5.627669   0.376706   0.173348   0.000001   0.000000
    15  H    0.004543   0.376706   0.468090  -0.022265   0.000000   0.000000
    16  C    0.000188   0.173348  -0.022265   4.509165   0.000000   0.000000
    17  O    0.000000   0.000001   0.000000   0.000000   7.663048   0.359614
    18  H    0.000000   0.000000   0.000000   0.000000   0.359614   0.490113
    19  O    0.029641  -0.116014   0.002226   0.731150   0.000000   0.000000
    20  N    0.000760   0.172506  -0.053365   0.001557   0.000000   0.000000
    21  H    0.001633  -0.031070   0.006263  -0.000727   0.000004   0.000000
    22  N    0.002154  -0.082070   0.001187   0.463773   0.000000   0.000000
    23  H   -0.000252   0.006990  -0.000866  -0.029710   0.000000   0.000000
    24  C   -0.000596  -0.053075  -0.015620   0.002228   0.000000   0.000000
    25  C   -0.000011   0.010544   0.000892  -0.001261  -0.000001   0.000000
    26  H    0.000004  -0.000391   0.000193   0.000058   0.000000   0.000000
    27  H   -0.000004  -0.000413  -0.000292   0.000074   0.000000   0.000000
    28  H    0.000003   0.000287  -0.000365   0.000215  -0.000003   0.000000
    29  C   -0.000205   0.013589  -0.000696  -0.061509   0.000000   0.000000
    30  H   -0.000014   0.001136   0.000142  -0.009009   0.000000   0.000000
    31  H   -0.000006   0.000924  -0.000159   0.006416   0.000000   0.000000
    32  H   -0.000023  -0.000790  -0.000315  -0.002404   0.000000   0.000000
    33  O   -0.000035   0.023053   0.019892  -0.020142   0.000000   0.000000
              19         20         21         22         23         24
     1  C   -0.000001   0.000446  -0.001028   0.000000   0.000000   0.000307
     2  C   -0.000161   0.007363   0.000664  -0.000034  -0.000004  -0.002265
     3  C    0.005238  -0.026115   0.001083   0.000446  -0.000235  -0.000151
     4  C   -0.000509  -0.003022   0.005157  -0.000036   0.000021   0.000002
     5  C   -0.000014   0.000357   0.000095   0.000000   0.000001   0.000093
     6  C    0.000001  -0.000254   0.000045   0.000000   0.000000  -0.000084
     7  H    0.000000   0.000014  -0.000003   0.000000   0.000000   0.000008
     8  H    0.000016  -0.000916   0.000175  -0.000007  -0.000013  -0.000115
     9  H    0.000146   0.000152   0.000333  -0.000004   0.000002  -0.000046
    10  H    0.000000   0.000019  -0.000058   0.000000   0.000000   0.000003
    11  C    0.005553  -0.033920   0.005701   0.004342  -0.000409   0.003347
    12  H   -0.000066   0.004679   0.000201   0.000360   0.000032  -0.000113
    13  H    0.029641   0.000760   0.001633   0.002154  -0.000252  -0.000596
    14  C   -0.116014   0.172506  -0.031070  -0.082070   0.006990  -0.053075
    15  H    0.002226  -0.053365   0.006263   0.001187  -0.000866  -0.015620
    16  C    0.731150   0.001557  -0.000727   0.463773  -0.029710   0.002228
    17  O    0.000000   0.000000   0.000004   0.000000   0.000000   0.000000
    18  H    0.000000   0.000000   0.000000   0.000000   0.000000   0.000000
    19  O    7.835458   0.000977   0.000850  -0.122847   0.003605  -0.000554
    20  N    0.000977   6.576478   0.370457  -0.007838  -0.006288   0.358433
    21  H    0.000850   0.370457   0.487469  -0.000106  -0.000415  -0.018589
    22  N   -0.122847  -0.007838  -0.000106   6.386542   0.381059   0.009140
    23  H    0.003605  -0.006288  -0.000415   0.381059   0.459758  -0.004390
    24  C   -0.000554   0.358433  -0.018589   0.009140  -0.004390   4.574672
    25  C    0.000001  -0.051478  -0.003506  -0.000065   0.001603   0.284476
    26  H    0.000000  -0.001509   0.000706  -0.000005  -0.000050  -0.023359
    27  H   -0.000002   0.000248  -0.000602   0.000164   0.000015  -0.031490
    28  H   -0.000005   0.010910  -0.001153   0.000056  -0.000201  -0.058319
    29  C    0.008708  -0.000560  -0.000023   0.292846  -0.027858   0.000081
    30  H    0.004885   0.000274   0.000013  -0.046973   0.004060  -0.000488
    31  H    0.001450  -0.000062  -0.000006  -0.026294  -0.007630   0.000051
    32  H    0.004620  -0.000086  -0.000004  -0.047894   0.000991   0.000189
    33  O    0.000028  -0.137203   0.003941  -0.014188   0.037259   0.664956
              25         26         27         28         29         30
     1  C    0.000202   0.000092   0.000003  -0.000011   0.000000   0.000000
     2  C    0.000489   0.000048   0.000023  -0.000014   0.000004  -0.000001
     3  C    0.000195   0.000061  -0.000017  -0.000058  -0.000032  -0.000015
     4  C   -0.000283  -0.000042  -0.000017   0.000031   0.000001   0.000001
     5  C   -0.000028  -0.000029   0.000003   0.000354   0.000000   0.000000
     6  C   -0.000025   0.000007   0.000001   0.000038   0.000000   0.000000
     7  H    0.000005   0.000000   0.000000  -0.000001   0.000000   0.000000
     8  H   -0.000016   0.000011   0.000000   0.000005   0.000000   0.000000
     9  H    0.000008   0.000001  -0.000002  -0.000008  -0.000001   0.000001
    10  H    0.000004  -0.000001   0.000000   0.000010   0.000000   0.000000
    11  C   -0.000677   0.000102  -0.000067  -0.000273  -0.000934  -0.000087
    12  H    0.000021  -0.000003  -0.000001  -0.000001   0.000012   0.000011
    13  H   -0.000011   0.000004  -0.000004   0.000003  -0.000205  -0.000014
    14  C    0.010544  -0.000391  -0.000413   0.000287   0.013589   0.001136
    15  H    0.000892   0.000193  -0.000292  -0.000365  -0.000696   0.000142
    16  C   -0.001261   0.000058   0.000074   0.000215  -0.061509  -0.009009
    17  O   -0.000001   0.000000   0.000000  -0.000003   0.000000   0.000000
    18  H    0.000000   0.000000   0.000000   0.000000   0.000000   0.000000
    19  O    0.000001   0.000000  -0.000002  -0.000005   0.008708   0.004885
    20  N   -0.051478  -0.001509   0.000248   0.010910  -0.000560   0.000274
    21  H   -0.003506   0.000706  -0.000602  -0.001153  -0.000023   0.000013
    22  N   -0.000065  -0.000005   0.000164   0.000056   0.292846  -0.046973
    23  H    0.001603  -0.000050   0.000015  -0.000201  -0.027858   0.004060
    24  C    0.284476  -0.023359  -0.031490  -0.058319   0.000081  -0.000488
    25  C    4.945529   0.385838   0.390301   0.404415  -0.000041  -0.000003
    26  H    0.385838   0.570946  -0.026397  -0.025705  -0.000001   0.000000
    27  H    0.390301  -0.026397   0.573633  -0.024067   0.000011  -0.000010
    28  H    0.404415  -0.025705  -0.024067   0.587490   0.000001  -0.000001
    29  C   -0.000041  -0.000001   0.000011   0.000001   4.761893   0.399402
    30  H   -0.000003   0.000000  -0.000010  -0.000001   0.399402   0.624874
    31  H   -0.000011   0.000000   0.000008   0.000000   0.396116  -0.027990
    32  H    0.000001   0.000000   0.000001   0.000000   0.399456  -0.058477
    33  O   -0.058589   0.001443   0.002386   0.003808   0.000102  -0.000015
              31         32         33
     1  C    0.000000   0.000000  -0.000006
     2  C    0.000000   0.000001  -0.000399
     3  C   -0.000002   0.000009   0.000171
     4  C    0.000000   0.000000   0.000030
     5  C    0.000000   0.000000  -0.000001
     6  C    0.000000   0.000000  -0.000001
     7  H    0.000000   0.000000   0.000000
     8  H    0.000000   0.000000   0.000042
     9  H    0.000000   0.000000   0.000002
    10  H    0.000000   0.000000   0.000000
    11  C   -0.000012   0.000114   0.001857
    12  H   -0.000001  -0.000029   0.000019
    13  H   -0.000006  -0.000023  -0.000035
    14  C    0.000924  -0.000790   0.023053
    15  H   -0.000159  -0.000315   0.019892
    16  C    0.006416  -0.002404  -0.020142
    17  O    0.000000   0.000000   0.000000
    18  H    0.000000   0.000000   0.000000
    19  O    0.001450   0.004620   0.000028
    20  N   -0.000062  -0.000086  -0.137203
    21  H   -0.000006  -0.000004   0.003941
    22  N   -0.026294  -0.047894  -0.014188
    23  H   -0.007630   0.000991   0.037259
    24  C    0.000051   0.000189   0.664956
    25  C   -0.000011   0.000001  -0.058589
    26  H    0.000000   0.000000   0.001443
    27  H    0.000008   0.000001   0.002386
    28  H    0.000000   0.000000   0.003808
    29  C    0.396116   0.399456   0.000102
    30  H   -0.027990  -0.058477  -0.000015
    31  H    0.593056  -0.027270   0.000152
    32  H   -0.027270   0.621054  -0.000052
    33  O    0.000152  -0.000052   7.901535
 Mulliken charges:
               1
     1  C   -0.233260
     2  C   -0.239991
     3  C    0.166199
     4  C   -0.281589
     5  C   -0.162299
     6  C    0.286427
     7  H    0.118460
     8  H    0.161710
     9  H    0.180362
    10  H    0.129713
    11  C   -0.440601
    12  H    0.182125
    13  H    0.224220
    14  C   -0.139669
    15  H    0.215499
    16  C    0.312729
    17  O   -0.293127
    18  H    0.188925
    19  O   -0.394380
    20  N   -0.183015
    21  H    0.172500
    22  N   -0.193706
    23  H    0.182926
    24  C    0.311265
    25  C   -0.308528
    26  H    0.117981
    27  H    0.116508
    28  H    0.102560
    29  C   -0.180362
    30  H    0.108286
    31  H    0.091268
    32  H    0.110910
    33  O   -0.430046
 Sum of Mulliken charges =   0.00000
 Mulliken charges with hydrogens summed into heavy atoms:
               1
     1  C   -0.114800
     2  C   -0.078281
     3  C    0.166199
     4  C   -0.101227
     5  C   -0.032586
     6  C    0.286427
    11  C   -0.034256
    14  C    0.075830
    16  C    0.312729
    17  O   -0.104202
    19  O   -0.394380
    20  N   -0.010515
    22  N   -0.010781
    24  C    0.311265
    25  C    0.028521
    29  C    0.130102
    33  O   -0.430046
 Electronic spatial extent (au):  <R**2>=           5069.2339
 Charge=              0.0000 electrons
 Dipole moment (field-independent basis, Debye):
    X=             -2.2253    Y=              2.4962    Z=              0.1920  Tot=              3.3496
 Quadrupole moment (field-independent basis, Debye-Ang):
   XX=            -94.0564   YY=           -108.4151   ZZ=            -95.8263
   XY=             -0.8651   XZ=             -6.7917   YZ=             -5.3018
 Traceless Quadrupole moment (field-independent basis, Debye-Ang):
   XX=              5.3762   YY=             -8.9825   ZZ=              3.6063
   XY=             -0.8651   XZ=             -6.7917   YZ=             -5.3018
 Octapole moment (field-independent basis, Debye-Ang**2):
  XXX=             26.2624  YYY=             31.1615  ZZZ=             -2.1617  XYY=            -27.6593
  XXY=             39.3311  XXZ=             41.3166  XZZ=            -11.0677  YZZ=             -1.1338
  YYZ=             -8.9123  XYZ=            -27.9175
 Hexadecapole moment (field-independent basis, Debye-Ang**3):
 XXXX=          -4344.9374 YYYY=          -1296.9903 ZZZZ=           -440.9589 XXXY=           -124.2171
 XXXZ=           -222.0190 YYYX=             -4.1036 YYYZ=            -40.7836 ZZZX=              3.7772
 ZZZY=             10.7966 XXYY=          -1090.8362 XXZZ=           -851.0364 YYZZ=           -292.3824
 XXYZ=             26.5238 YYXZ=             -7.3803 ZZXY=            -10.2204
 N-N= 1.210759690785D+03 E-N=-4.291739230648D+03  KE= 7.961979523593D+02
 Calculating spin-rotation constants.
 Leave Link  601 at Wed Jun 25 06:48:29 2014, MaxMem=  4294967296 cpu:        95.4
 (Enter /home/ztw1e12/g09/l9999.exe)

 Test job not archived.
 1\1\GINC-GREEN0732\SP\RM06\Gen\C12H16N2O3\ROOT\25-Jun-2014\0\\#P Geom=
 AllCheck Guess=TCheck SCRF=Check GenChk RM06/ChkBas NMR=ReadFC IOp(3/6
 =22)\\NMR spin-spin scan\\0,1\C,0,3.27007,-0.10166,-1.031427\C,0,2.001
 202,-0.644968,-1.105866\C,0,1.321472,-1.056931,0.035492\C,0,1.954359,-
 0.906243,1.262756\C,0,3.225091,-0.365027,1.355756\C,0,3.884812,0.03765
 3,0.2055\H,0,3.79425,0.213354,-1.926574\H,0,1.523705,-0.753088,-2.0742
 27\H,0,1.441958,-1.220727,2.165349\H,0,3.7171,-0.253456,2.313635\C,0,-
 0.064435,-1.615823,-0.060208\H,0,-0.127951,-2.367231,-0.849019\H,0,-0.
 29951,-2.125876,0.87628\C,0,-1.157207,-0.576995,-0.324082\H,0,-1.26536
 7,-0.448778,-1.405274\C,0,-2.521358,-1.033446,0.198846\O,0,5.136331,0.
 560123,0.340458\H,0,5.487806,0.781238,-0.529354\O,0,-2.660594,-1.99217
 5,0.953107\N,0,-0.808815,0.738015,0.187609\H,0,-0.181486,0.789932,0.97
 6579\N,0,-3.550497,-0.301469,-0.236641\H,0,-3.347919,0.49083,-0.834042
 \C,0,-1.181408,1.884878,-0.403466\C,0,-0.621131,3.139656,0.178985\H,0,
 -0.021495,3.637706,-0.583226\H,0,-1.442623,3.807528,0.435809\H,0,-0.00
 5973,2.966246,1.059306\C,0,-4.903184,-0.565157,0.195076\H,0,-4.994027,
 -0.491866,1.279645\H,0,-5.566924,0.164206,-0.259132\H,0,-5.223701,-1.5
 63336,-0.105049\O,0,-1.941706,1.910421,-1.373729\\Version=EM64L-G09Rev
 D.01\State=1-A\HF=-801.867769\RMSD=3.838e-09\Dipole=0.8590097,0.959506
 2,-0.2795332\Quadrupole=4.2909872,-4.4090145,0.1180273,-0.4806565,-5.0
 993951,5.492045\PG=C01 [X(C12H16N2O3)]\\@


 Experience is what you get when you don't get what you want.
 -- Dan Stanford
 Job cpu time:       3 days  7 hours 36 minutes 22.6 seconds.
 File lengths (MBytes):  RWF=   3656 Int=      0 D2E=      0 Chk=     64 Scr=      8
 Normal termination of Gaussian 09 at Wed Jun 25 06:48:29 2014.
