 Entering Gaussian System, Link 0=g09
 Input=scan_input_19.gjf
 Output=scan_input_19.log
 Initial command:
 /home/ztw1e12/g09/l1.exe "/home/ztw1e12/tyrosine_scan/tyrosine_chi1_scan/Gau-15104.inp" -scrdir="/home/ztw1e12/tyrosine_scan/tyrosine_chi1_scan/"
 Default is to use a total of   8 processors:
                                8 via shared-memory
                                1 via Linda
 Entering Link 1 = /home/ztw1e12/g09/l1.exe PID=     15105.
  
 Copyright (c) 1988,1990,1992,1993,1995,1998,2003,2009,2013,
            Gaussian, Inc.  All Rights Reserved.
  
 This is part of the Gaussian(R) 09 program.  It is based on
 the Gaussian(R) 03 system (copyright 2003, Gaussian, Inc.),
 the Gaussian(R) 98 system (copyright 1998, Gaussian, Inc.),
 the Gaussian(R) 94 system (copyright 1995, Gaussian, Inc.),
 the Gaussian 92(TM) system (copyright 1992, Gaussian, Inc.),
 the Gaussian 90(TM) system (copyright 1990, Gaussian, Inc.),
 the Gaussian 88(TM) system (copyright 1988, Gaussian, Inc.),
 the Gaussian 86(TM) system (copyright 1986, Carnegie Mellon
 University), and the Gaussian 82(TM) system (copyright 1983,
 Carnegie Mellon University). Gaussian is a federally registered
 trademark of Gaussian, Inc.
  
 This software contains proprietary and confidential information,
 including trade secrets, belonging to Gaussian, Inc.
  
 This software is provided under written license and may be
 used, copied, transmitted, or stored only in accord with that
 written license.
  
 The following legend is applicable only to US Government
 contracts under FAR:
  
                    RESTRICTED RIGHTS LEGEND
  
 Use, reproduction and disclosure by the US Government is
 subject to restrictions as set forth in subparagraphs (a)
 and (c) of the Commercial Computer Software - Restricted
 Rights clause in FAR 52.227-19.
  
 Gaussian, Inc.
 340 Quinnipiac St., Bldg. 40, Wallingford CT 06492
  
  
 ---------------------------------------------------------------
 Warning -- This program may not be used in any manner that
 competes with the business of Gaussian, Inc. or will provide
 assistance to any competitor of Gaussian, Inc.  The licensee
 of this program is prohibited from giving any competitor of
 Gaussian, Inc. access to this program.  By using this program,
 the user acknowledges that Gaussian, Inc. is engaged in the
 business of creating and licensing software in the field of
 computational chemistry and represents and warrants to the
 licensee that it is not a competitor of Gaussian, Inc. and that
 it will not use this program in any manner prohibited above.
 ---------------------------------------------------------------
  

 Cite this work as:
 Gaussian 09, Revision D.01,
 M. J. Frisch, G. W. Trucks, H. B. Schlegel, G. E. Scuseria, 
 M. A. Robb, J. R. Cheeseman, G. Scalmani, V. Barone, B. Mennucci, 
 G. A. Petersson, H. Nakatsuji, M. Caricato, X. Li, H. P. Hratchian, 
 A. F. Izmaylov, J. Bloino, G. Zheng, J. L. Sonnenberg, M. Hada, 
 M. Ehara, K. Toyota, R. Fukuda, J. Hasegawa, M. Ishida, T. Nakajima, 
 Y. Honda, O. Kitao, H. Nakai, T. Vreven, J. A. Montgomery, Jr., 
 J. E. Peralta, F. Ogliaro, M. Bearpark, J. J. Heyd, E. Brothers, 
 K. N. Kudin, V. N. Staroverov, T. Keith, R. Kobayashi, J. Normand, 
 K. Raghavachari, A. Rendell, J. C. Burant, S. S. Iyengar, J. Tomasi, 
 M. Cossi, N. Rega, J. M. Millam, M. Klene, J. E. Knox, J. B. Cross, 
 V. Bakken, C. Adamo, J. Jaramillo, R. Gomperts, R. E. Stratmann, 
 O. Yazyev, A. J. Austin, R. Cammi, C. Pomelli, J. W. Ochterski, 
 R. L. Martin, K. Morokuma, V. G. Zakrzewski, G. A. Voth, 
 P. Salvador, J. J. Dannenberg, S. Dapprich, A. D. Daniels, 
 O. Farkas, J. B. Foresman, J. V. Ortiz, J. Cioslowski, 
 and D. J. Fox, Gaussian, Inc., Wallingford CT, 2013.
 
 ******************************************
 Gaussian 09:  EM64L-G09RevD.01 24-Apr-2013
                24-Jun-2014 
 ******************************************
 %Mem=32GB
 %NProcShared=16
 Will use up to   16 processors via shared memory.
 Default route:  MaxDisk=100GB
 ----------------------------------------------------------------------
 #p nmr=(giao,mixed,spinspin) m06/cc-pvtz scf=tight integral=(grid=ultr
 afine)
 ----------------------------------------------------------------------
 1/38=1/1;
 2/12=2,17=6,18=5,40=1/2;
 3/5=16,6=1,10=1100000,11=2,16=1,25=1,30=1,74=-54,75=-5/1,2,8,3;
 4//1;
 5/5=2,32=2,38=5/2;
 8/6=1,10=90,11=11/1;
 10/13=100,45=16,47=3/2;
 6/7=2,8=2,9=2,10=2,28=1/1;
 99/9=1/99;
 Leave Link    1 at Tue Jun 24 16:36:32 2014, MaxMem=  4294967296 cpu:         5.6
 (Enter /home/ztw1e12/g09/l101.exe)
 ------------------
 NMR spin-spin scan
 ------------------
 Symbolic Z-matrix:
 Charge =  0 Multiplicity = 1
 C                     2.44331  -0.61244   1.87992 
 C                     1.84869  -0.06367   0.75658 
 C                     1.30549  -0.86788  -0.23642 
 C                     1.3867   -2.24761  -0.07968 
 C                     1.97906  -2.81266   1.03311 
 C                     2.50564  -1.99072   2.01964 
 H                     2.8687    0.02128   2.64987 
 H                     1.80634   1.01486   0.65082 
 H                     0.96796  -2.89098  -0.84603 
 H                     2.04157  -3.88694   1.15109 
 C                     0.60173  -0.27284  -1.4176 
 H                     1.03613   0.71363  -1.60569 
 H                     0.77386  -0.87306  -2.31111 
 C                    -0.9246   -0.08178  -1.24661 
 H                    -1.45655  -0.91978  -1.70281 
 C                    -1.31355  -0.12176   0.2242 
 O                     3.0809   -2.58698   3.10098 
 H                     3.40692  -1.91102   3.70604 
 O                    -1.62968  -1.18488   0.75394 
 N                    -1.32892   1.15531  -1.87895 
 H                    -0.6225    1.75859  -2.27184 
 N                    -1.23711   1.02862   0.89662 
 H                    -0.89869   1.84336   0.40905 
 C                    -2.62737   1.47648  -2.03455 
 C                    -2.92017   2.75236  -2.7511 
 H                    -3.51264   2.52641  -3.63761 
 H                    -3.52886   3.38447  -2.10499 
 H                    -2.02612   3.29684  -3.04759 
 C                    -1.37949   1.0717    2.33285 
 H                    -0.59844   0.48612   2.8246 
 H                    -1.30703   2.10287   2.6657 
 H                    -2.34728   0.67491   2.63825 
 O                    -3.52318   0.75471  -1.60182 
 
 NAtoms=     33 NQM=       33 NQMF=       0 NMMI=      0 NMMIF=      0
                NMic=       0 NMicF=      0.
                    Isotopes and Nuclear Properties:
 (Nuclear quadrupole moments (NQMom) in fm**2, nuclear magnetic moments (NMagM)
  in nuclear magnetons)

  Atom         1           2           3           4           5           6           7           8           9          10
 IAtWgt=          12          12          12          12          12          12           1           1           1           1
 AtmWgt=  12.0000000  12.0000000  12.0000000  12.0000000  12.0000000  12.0000000   1.0078250   1.0078250   1.0078250   1.0078250
 NucSpn=           0           0           0           0           0           0           1           1           1           1
 AtZEff=   0.0000000   0.0000000   0.0000000   0.0000000   0.0000000   0.0000000   0.0000000   0.0000000   0.0000000   0.0000000
 NQMom=    0.0000000   0.0000000   0.0000000   0.0000000   0.0000000   0.0000000   0.0000000   0.0000000   0.0000000   0.0000000
 NMagM=    0.0000000   0.0000000   0.0000000   0.0000000   0.0000000   0.0000000   2.7928460   2.7928460   2.7928460   2.7928460
 AtZNuc=   6.0000000   6.0000000   6.0000000   6.0000000   6.0000000   6.0000000   1.0000000   1.0000000   1.0000000   1.0000000

  Atom        11          12          13          14          15          16          17          18          19          20
 IAtWgt=          12           1           1          12           1          12          16           1          16          14
 AtmWgt=  12.0000000   1.0078250   1.0078250  12.0000000   1.0078250  12.0000000  15.9949146   1.0078250  15.9949146  14.0030740
 NucSpn=           0           1           1           0           1           0           0           1           0           2
 AtZEff=   0.0000000   0.0000000   0.0000000   0.0000000   0.0000000   0.0000000   0.0000000   0.0000000   0.0000000   0.0000000
 NQMom=    0.0000000   0.0000000   0.0000000   0.0000000   0.0000000   0.0000000   0.0000000   0.0000000   0.0000000   2.0440000
 NMagM=    0.0000000   2.7928460   2.7928460   0.0000000   2.7928460   0.0000000   0.0000000   2.7928460   0.0000000   0.4037610
 AtZNuc=   6.0000000   1.0000000   1.0000000   6.0000000   1.0000000   6.0000000   8.0000000   1.0000000   8.0000000   7.0000000

  Atom        21          22          23          24          25          26          27          28          29          30
 IAtWgt=           1          14           1          12          12           1           1           1          12           1
 AtmWgt=   1.0078250  14.0030740   1.0078250  12.0000000  12.0000000   1.0078250   1.0078250   1.0078250  12.0000000   1.0078250
 NucSpn=           1           2           1           0           0           1           1           1           0           1
 AtZEff=   0.0000000   0.0000000   0.0000000   0.0000000   0.0000000   0.0000000   0.0000000   0.0000000   0.0000000   0.0000000
 NQMom=    0.0000000   2.0440000   0.0000000   0.0000000   0.0000000   0.0000000   0.0000000   0.0000000   0.0000000   0.0000000
 NMagM=    2.7928460   0.4037610   2.7928460   0.0000000   0.0000000   2.7928460   2.7928460   2.7928460   0.0000000   2.7928460
 AtZNuc=   1.0000000   7.0000000   1.0000000   6.0000000   6.0000000   1.0000000   1.0000000   1.0000000   6.0000000   1.0000000

  Atom        31          32          33
 IAtWgt=           1           1          16
 AtmWgt=   1.0078250   1.0078250  15.9949146
 NucSpn=           1           1           0
 AtZEff=   0.0000000   0.0000000   0.0000000
 NQMom=    0.0000000   0.0000000   0.0000000
 NMagM=    2.7928460   2.7928460   0.0000000
 AtZNuc=   1.0000000   1.0000000   8.0000000
 Leave Link  101 at Tue Jun 24 16:36:32 2014, MaxMem=  4294967296 cpu:         2.0
 (Enter /home/ztw1e12/g09/l202.exe)
                          Input orientation:                          
 ---------------------------------------------------------------------
 Center     Atomic      Atomic             Coordinates (Angstroms)
 Number     Number       Type             X           Y           Z
 ---------------------------------------------------------------------
      1          6           0        2.443312   -0.612442    1.879921
      2          6           0        1.848691   -0.063670    0.756576
      3          6           0        1.305487   -0.867878   -0.236415
      4          6           0        1.386698   -2.247605   -0.079679
      5          6           0        1.979060   -2.812655    1.033111
      6          6           0        2.505638   -1.990722    2.019642
      7          1           0        2.868702    0.021283    2.649870
      8          1           0        1.806342    1.014862    0.650822
      9          1           0        0.967964   -2.890982   -0.846032
     10          1           0        2.041567   -3.886939    1.151091
     11          6           0        0.601728   -0.272843   -1.417595
     12          1           0        1.036130    0.713627   -1.605692
     13          1           0        0.773856   -0.873058   -2.311110
     14          6           0       -0.924596   -0.081777   -1.246614
     15          1           0       -1.456545   -0.919784   -1.702810
     16          6           0       -1.313548   -0.121762    0.224195
     17          8           0        3.080903   -2.586975    3.100981
     18          1           0        3.406923   -1.911017    3.706042
     19          8           0       -1.629684   -1.184876    0.753942
     20          7           0       -1.328918    1.155314   -1.878949
     21          1           0       -0.622496    1.758587   -2.271839
     22          7           0       -1.237106    1.028621    0.896617
     23          1           0       -0.898694    1.843361    0.409052
     24          6           0       -2.627368    1.476479   -2.034552
     25          6           0       -2.920167    2.752361   -2.751104
     26          1           0       -3.512636    2.526405   -3.637612
     27          1           0       -3.528861    3.384473   -2.104985
     28          1           0       -2.026122    3.296840   -3.047588
     29          6           0       -1.379493    1.071696    2.332852
     30          1           0       -0.598439    0.486124    2.824595
     31          1           0       -1.307025    2.102868    2.665704
     32          1           0       -2.347283    0.674906    2.638248
     33          8           0       -3.523177    0.754710   -1.601817
 ---------------------------------------------------------------------
                    Distance matrix (angstroms):
                    1          2          3          4          5
     1  C    0.000000
     2  C    1.384424   0.000000
     3  C    2.416355   1.388471   0.000000
     4  C    2.762286   2.383764   1.390974   0.000000
     5  C    2.402822   2.765933   2.418172   1.381476   0.000000
     6  C    1.386745   2.395922   2.791225   2.392732   1.387841
     7  H    1.084152   2.152255   3.400719   3.846378   3.381801
     8  H    2.136477   1.084532   2.140737   3.369484   3.850437
     9  H    3.846975   3.367154   2.139744   1.084698   2.135329
    10  H    3.378598   3.848406   3.403192   2.151991   1.082549
    11  C    3.792146   2.515092   1.498175   2.511152   3.788621
    12  H    3.985990   2.616248   2.109178   3.349703   4.504116
    13  H    4.518821   3.349788   2.141732   2.691512   4.049490
    14  C    4.625973   3.421143   2.571328   3.375593   4.591956
    15  H    5.304649   4.207861   3.127592   3.532944   4.782427
    16  C    4.134754   3.207267   2.761919   3.450055   4.328570
    17  O    2.407549   3.658094   4.152783   3.619682   2.353949
    18  H    2.439172   3.813152   4.587716   4.304217   3.161693
    19  O    4.264365   3.654614   3.113924   3.304978   3.968707
    20  N    5.611041   4.304546   3.705579   4.710817   5.930227
    21  H    5.679619   4.312619   3.841665   4.989188   6.211847
    22  N    4.147945   3.276409   3.368271   4.309427   5.011762
    23  H    4.400390   3.362390   3.553288   4.711462   5.509029
    24  C    6.737840   5.495231   4.919010   5.814040   7.001886
    25  C    7.844437   6.555597   6.106222   7.119358   8.324188
    26  H    8.704530   7.400081   6.804675   7.710612   8.971061
    27  H    8.217156   6.999735   6.704100   7.744991   8.865057
    28  H    7.716131   6.385833   6.028863   7.155187   8.367767
    29  C    4.201822   3.767609   4.191921   4.948725   5.296922
    30  H    3.369200   3.250757   3.850719   4.455205   4.553555
    31  H    4.696317   4.277523   4.906409   5.806883   6.134010
    32  H    5.018179   4.657508   4.897612   5.465420   5.784184
    33  O    7.042059   5.923574   5.273814   5.952955   7.067075
                    6          7          8          9         10
     6  C    0.000000
     7  H    2.139431   0.000000
     8  H    3.375829   2.472246   0.000000
     9  H    3.374462   4.931067   4.266036   0.000000
    10  H    2.136675   4.266695   4.932875   2.476500   0.000000
    11  C    4.288424   4.665828   2.718019   2.704712   4.661864
    12  H    4.755629   4.684813   2.403295   3.684418   5.456736
    13  H    4.796213   5.458896   3.661053   2.501229   4.762080
    14  C    5.106761   5.438963   3.501557   3.410848   5.387613
    15  H    5.540979   6.207994   4.464176   3.240052   5.402365
    16  C    4.615498   4.836897   3.347781   3.744231   5.127620
    17  O    1.362256   2.655474   4.538834   4.487298   2.563630
    18  H    1.913795   2.266928   4.522941   5.256447   3.506599
    19  O    4.399122   5.028403   4.081146   3.495496   4.575692
    20  N    6.308754   6.278236   4.031045   4.766036   6.779795
    21  H    6.500719   6.279324   3.872251   5.116735   7.119385
    22  N    4.938193   4.576711   3.053388   4.823116   5.914151
    23  H    5.374353   4.747052   2.839381   5.241531   6.483216
    24  C    7.403089   7.366695   5.204047   5.780459   7.791889
    25  C    8.642697   8.374981   6.077161   7.112959   9.161126
    26  H    9.414275   9.302126   6.997639   7.564177   9.742270
    27  H    9.073062   8.651503   6.455534   7.822259   9.721375
    28  H    8.612316   8.194486   5.794259   7.218070   9.261840
    29  C    4.956889   4.387599   3.603054   5.596309   6.139077
    30  H    4.051914   3.502524   3.284482   5.227998   5.375307
    31  H    5.631276   4.665827   3.864785   6.515090   7.027440
    32  H    5.571273   5.256792   4.617146   5.987205   6.502620
    33  O    7.549766   7.711736   5.791877   5.833749   7.751760
                   11         12         13         14         15
    11  C    0.000000
    12  H    1.094170   0.000000
    13  H    1.090071   1.756124   0.000000
    14  C    1.547710   2.146171   2.154998   0.000000
    15  H    2.176320   2.981760   2.312337   1.092401   0.000000
    16  C    2.527169   3.093113   3.368898   1.521894   2.090606
    17  O    5.649694   6.101462   6.127863   6.420407   6.815011
    18  H    6.066662   6.381531   6.649550   6.829127   7.341086
    19  O    3.244469   4.034693   3.907528   2.390858   2.477071
    20  N    2.445378   2.421406   2.953424   1.446969   2.086467
    21  H    2.520945   2.070443   2.979412   2.128213   2.862360
    22  N    3.229659   3.395346   4.236728   2.433944   3.255988
    23  H    3.172731   3.013144   4.192331   2.539302   3.522234
    24  C    3.723953   3.766574   4.143083   2.438943   2.687556
    25  C    4.830512   4.595725   5.194522   3.778642   4.089714
    26  H    5.449060   5.301522   5.629385   4.383770   4.455018
    27  H    5.559697   5.312425   6.056602   4.419716   4.794045
    28  H    4.722829   4.257868   5.076448   3.983958   4.462372
    29  C    4.449593   4.634175   5.475889   3.788140   4.500944
    30  H    4.473545   4.727686   5.486897   4.123546   4.817709
    31  H    5.095162   5.066082   6.160753   4.497239   5.314386
    32  H    5.103406   5.427708   6.052590   4.205801   4.709696
    33  O    4.254955   4.559494   4.649432   2.752908   2.661785
                   16         17         18         19         20
    16  C    0.000000
    17  O    5.802101   0.000000
    18  H    6.132499   0.964006   0.000000
    19  O    1.229140   5.446476   5.882991   0.000000
    20  N    2.460564   7.632231   7.938684   3.535402   0.000000
    21  H    3.200539   7.840043   8.089331   4.339787   1.008629
    22  N    1.334682   6.047889   6.172629   2.252564   2.779973
    23  H    2.016924   6.535407   6.595744   3.134249   2.427643
    24  C    3.063076   8.687331   8.991230   3.981693   1.346600
    25  C    4.437816   9.938222  10.172212   5.427018   2.417289
    26  H    5.173232  10.725206  11.022716   6.050195   3.121123
    27  H    4.756719  10.317425  10.484052   5.714830   3.140062
    28  H    4.785307   9.925013  10.111937   5.890210   2.537310
    29  C    2.423866   5.819882   5.804482   2.765442   4.212935
    30  H    2.764595   4.801863   4.750385   2.853649   4.806739
    31  H    3.303027   6.437236   6.278127   3.816832   4.642436
    32  H    2.744256   6.349740   6.398286   2.743054   4.655419
    33  O    2.997496   8.769096   9.127199   3.591227   2.247678
                   21         22         23         24         25
    21  H    0.000000
    22  N    3.309034   0.000000
    23  H    2.696414   1.007990   0.000000
    24  C    2.038480   3.274929   3.015645   0.000000
    25  C    2.548838   4.371481   3.859951   1.492331   0.000000
    26  H    3.287520   5.289672   4.865669   2.110887   1.089941
    27  H    3.334412   4.451044   3.951353   2.111419   1.089745
    28  H    2.222200   4.617804   3.915617   2.168283   1.087969
    29  C    4.716783   1.443918   2.127825   4.560182   5.571797
    30  H    5.252940   2.102213   2.786951   5.358047   6.450943
    31  H    4.996643   2.070885   2.307933   4.922202   5.689102
    32  H    5.315845   2.095444   2.903965   4.749319   5.804234
    33  O    3.141759   3.397546   3.480900   1.229099   2.382245
                   26         27         28         29         30
    26  H    0.000000
    27  H    1.756556   0.000000
    28  H    1.775225   1.776064   0.000000
    29  C    6.504838   5.446386   5.858202   0.000000
    30  H    7.376680   6.425617   6.664903   1.093047   0.000000
    31  H    6.691479   5.416506   5.880848   1.085982   1.772344
    32  H    6.646241   5.588930   6.269483   1.089645   1.768847
    33  O    2.698792   2.677473   3.285400   4.491935   5.312189
                   31         32         33
    31  H    0.000000
    32  H    1.766909   0.000000
    33  O    4.994056   4.400823   0.000000
 Stoichiometry    C12H16N2O3
 Framework group  C1[X(C12H16N2O3)]
 Deg. of freedom    93
 Full point group                 C1      NOp   1
 Largest Abelian subgroup         C1      NOp   1
 Largest concise Abelian subgroup C1      NOp   1
                         Standard orientation:                         
 ---------------------------------------------------------------------
 Center     Atomic      Atomic             Coordinates (Angstroms)
 Number     Number       Type             X           Y           Z
 ---------------------------------------------------------------------
      1          6           0        2.947669    0.355401   -1.142237
      2          6           0        1.678295   -0.179749   -1.279839
      3          6           0        1.180266   -1.097137   -0.364296
      4          6           0        1.999299   -1.477797    0.693575
      5          6           0        3.269645   -0.956467    0.844944
      6          6           0        3.743975   -0.031935   -0.075031
      7          1           0        3.331749    1.068653   -1.862751
      8          1           0        1.061509    0.123911   -2.118632
      9          1           0        1.626494   -2.193942    1.417951
     10          1           0        3.904746   -1.256035    1.668848
     11          6           0       -0.218106   -1.623074   -0.475995
     12          1           0       -0.499810   -1.606789   -1.533154
     13          1           0       -0.266291   -2.661760   -0.148785
     14          6           0       -1.287861   -0.818312    0.300785
     15          1           0       -1.482343   -1.294179    1.264666
     16          6           0       -0.774844    0.572711    0.644342
     17          8           0        5.001451    0.458291    0.109835
     18          1           0        5.209688    1.084274   -0.593080
     19          8           0       -0.195260    0.775044    1.709202
     20          7           0       -2.509021   -0.767752   -0.473768
     21          1           0       -2.518371   -1.165705   -1.400525
     22          7           0       -0.939771    1.518964   -0.282362
     23          1           0       -1.359317    1.257044   -1.160669
     24          6           0       -3.653837   -0.284335    0.044919
     25          6           0       -4.860149   -0.335274   -0.832162
     26          1           0       -5.622567   -0.940410   -0.341752
     27          1           0       -5.260723    0.672982   -0.934649
     28          1           0       -4.659540   -0.744383   -1.820121
     29          6           0       -0.313783    2.813920   -0.155364
     30          1           0        0.775457    2.725315   -0.134018
     31          1           0       -0.599151    3.430456   -1.002599
     32          1           0       -0.634073    3.310915    0.759916
     33          8           0       -3.697358    0.179597    1.182265
 ---------------------------------------------------------------------
 Rotational constants (GHZ):      1.0701288      0.2512881      0.2353388
 Leave Link  202 at Tue Jun 24 16:36:32 2014, MaxMem=  4294967296 cpu:         1.7
 (Enter /home/ztw1e12/g09/l301.exe)
 Standard basis: CC-pVTZ (5D, 7F)
 Converting basis for Fermi contact spin-spin IFCMod=1.
 AO basis functions are being uncontracted.
 Ernie: Thresh=  0.10000D-02 Tol=  0.10000D-05 Strict=F.
 There are  1305 symmetry adapted cartesian basis functions of A   symmetry.
 There are  1204 symmetry adapted basis functions of A   symmetry.
  1204 basis functions,  1305 primitive gaussians,  1305 cartesian basis functions
    63 alpha electrons       63 beta electrons
       nuclear repulsion energy      1235.4592223913 Hartrees.
 IExCor= 4235 DFT=T Ex+Corr=M06 ExCW=0 ScaHFX=  0.270000
 ScaDFX=  1.000000  1.000000  1.000000  1.000000 ScalE2=  1.000000  1.000000
 IRadAn= 199590 IRanWt=     -1 IRanGd=            0 ICorTp=0 IEmpDi=  4
 NAtoms=   33 NActive=   33 NUniq=   33 SFac= 1.00D+00 NAtFMM=   60 NAOKFM=F Big=F
 Integral buffers will be    131072 words long.
 Raffenetti 2 integral format.
 Two-electron integral symmetry is turned on.
 Leave Link  301 at Tue Jun 24 16:36:32 2014, MaxMem=  4294967296 cpu:         4.7
 (Enter /home/ztw1e12/g09/l302.exe)
 NPDir=0 NMtPBC=     1 NCelOv=     1 NCel=       1 NClECP=     1 NCelD=      1
         NCelK=      1 NCelE2=     1 NClLst=     1 CellRange=     0.0.
 One-electron integrals computed using PRISM.
 GSVD:  received Info=                   1 from GESDD.
 NBasis=  1204 RedAO= T EigKep=  2.43D-05  NBF=  1204
 NBsUse=  1068 1.00D-06 EigRej=  6.69D-15 NBFU=  1068
 Precomputing XC quadrature grid using
 IXCGrd= 4 IRadAn=      199590 IRanWt=          -1 IRanGd=           0 AccXCQ= 0.00D+00.
 Generated NRdTot=       0 NPtTot=           0 NUsed=           0 NTot=          32
 NSgBfM=   995   995   995   996   996 MxSgAt=    33 MxSgA2=    33.
 Leave Link  302 at Tue Jun 24 16:36:38 2014, MaxMem=  4294967296 cpu:        94.3
 (Enter /home/ztw1e12/g09/l308.exe)
 Leave Link  308 at Tue Jun 24 16:36:39 2014, MaxMem=  4294967296 cpu:         7.7
 (Enter /home/ztw1e12/g09/l303.exe)
 DipDrv:  MaxL=1.
 Leave Link  303 at Tue Jun 24 16:36:39 2014, MaxMem=  4294967296 cpu:         4.2
 (Enter /home/ztw1e12/g09/l401.exe)
 ExpMin= 1.03D-01 ExpMax= 1.38D+05 ExpMxC= 1.38D+05 IAcc=4 IRadAn=    199590 AccDes= 0.00D+00
 Harris functional with IExCor= 1009 and IRadAn=  199590 diagonalized for initial guess.
 HarFok:  IExCor= 1009 AccDes= 0.00D+00 IRadAn=    199590 IDoV= 1 UseB2=F ITyADJ=14
 ICtDFT=  3500011 ScaDFX=  1.000000  1.000000  1.000000  1.000000
 FoFCou: FMM=F IPFlag=           0 FMFlag=      100000 FMFlg1=           0
         NFxFlg=           0 DoJE=T BraDBF=F KetDBF=T FulRan=T
         wScrn=  0.000000 ICntrl=     500 IOpCl=  0 I1Cent=   200000004 NGrid=           0
         NMat0=    1 NMatS0=      1 NMatT0=    0 NMatD0=    1 NMtDS0=    0 NMtDT0=    0
 Petite list used in FoFCou.
 Harris En= -801.776800375564    
 JPrj=0 DoOrth=F DoCkMO=F.
 Leave Link  401 at Tue Jun 24 16:37:00 2014, MaxMem=  4294967296 cpu:       311.5
 (Enter /home/ztw1e12/g09/l502.exe)
 Closed shell SCF:
 Using DIIS extrapolation, IDIIS=  1040.
 Integral symmetry usage will be decided dynamically.
 IVT=     5158273 IEndB=     5158273 NGot=  4294967296 MDV=  4291529994
 LenX=  4291529994 LenY=  4289825664
 Requested convergence on RMS density matrix=1.00D-08 within 128 cycles.
 Requested convergence on MAX density matrix=1.00D-06.
 Requested convergence on             energy=1.00D-06.
 No special actions if energy rises.
 Fock matrices will be formed incrementally for  20 cycles.
 Integral accuracy reduced to 1.0D-05 until final iterations.

 Cycle   1  Pass 0  IDiag  1:
 FoFJK:  IHMeth= 1 ICntrl=       0 DoSepK=F KAlg= 0 I1Cent=   0 FoldK=F
 IRaf= 440000000 NMat=   1 IRICut=       1 DoRegI=T DoRafI=F ISym2E= 0.
 FoFCou: FMM=F IPFlag=           0 FMFlag=      100000 FMFlg1=           0
         NFxFlg=           0 DoJE=F BraDBF=F KetDBF=F FulRan=T
         wScrn=  0.000000 ICntrl=       0 IOpCl=  0 I1Cent=           0 NGrid=           0
         NMat0=    1 NMatS0=      1 NMatT0=    0 NMatD0=    1 NMtDS0=    0 NMtDT0=    0
 Symmetry not used in FoFCou.
 E= -801.443815282339    
 DIIS: error= 1.33D-01 at cycle   1 NSaved=   1.
 NSaved= 1 IEnMin= 1 EnMin= -801.443815282339     IErMin= 1 ErrMin= 1.33D-01
 ErrMax= 1.33D-01  0.00D+00 EMaxC= 1.00D-01 BMatC= 1.69D+01 BMatP= 1.69D+01
 IDIUse=3 WtCom= 0.00D+00 WtEn= 1.00D+00
 Coeff-Com:  0.100D+01
 Coeff-En:   0.100D+01
 Coeff:      0.100D+01
 Gap=     0.243 Goal=   None    Shift=    0.000
 GapD=    0.243 DampG=1.000 DampE=0.250 DampFc=0.2500 IDamp=-1.
 Damping current iteration by 2.50D-01
 RMSDP=2.81D-03 MaxDP=4.31D-01              OVMax= 3.20D-01

 Cycle   2  Pass 0  IDiag  1:
 RMSU=  6.99D-04    CP:  1.03D+00
 E= -801.601881530358     Delta-E=       -0.158066248019 Rises=F Damp=T
 DIIS: error= 1.00D-01 at cycle   2 NSaved=   2.
 NSaved= 2 IEnMin= 2 EnMin= -801.601881530358     IErMin= 2 ErrMin= 1.00D-01
 ErrMax= 1.00D-01  0.00D+00 EMaxC= 1.00D-01 BMatC= 1.00D+01 BMatP= 1.69D+01
 IDIUse=3 WtCom= 0.00D+00 WtEn= 1.00D+00
 Coeff-Com: -0.288D+01 0.388D+01
 Coeff-En:   0.000D+00 0.100D+01
 Coeff:      0.000D+00 0.100D+01
 Gap=     0.213 Goal=   None    Shift=    0.000
 RMSDP=7.99D-04 MaxDP=1.44D-01 DE=-1.58D-01 OVMax= 1.84D-01

 Cycle   3  Pass 0  IDiag  1:
 RMSU=  7.50D-04    CP:  1.07D+00  1.37D+00
 E= -801.823467179590     Delta-E=       -0.221585649232 Rises=F Damp=F
 DIIS: error= 1.50D-02 at cycle   3 NSaved=   3.
 NSaved= 3 IEnMin= 3 EnMin= -801.823467179590     IErMin= 3 ErrMin= 1.50D-02
 ErrMax= 1.50D-02  0.00D+00 EMaxC= 1.00D-01 BMatC= 2.52D-01 BMatP= 1.00D+01
 IDIUse=3 WtCom= 8.50D-01 WtEn= 1.50D-01
 Coeff-Com:  0.894D+00-0.124D+01 0.135D+01
 Coeff-En:   0.881D-01 0.000D+00 0.912D+00
 Coeff:      0.774D+00-0.105D+01 0.128D+01
 Gap=     0.240 Goal=   None    Shift=    0.000
 RMSDP=5.47D-04 MaxDP=8.90D-02 DE=-2.22D-01 OVMax= 7.34D-02

 Cycle   4  Pass 0  IDiag  1:
 RMSU=  3.77D-04    CP:  1.05D+00  9.21D-01  6.83D-01
 E= -801.793008520026     Delta-E=        0.030458659564 Rises=F Damp=F
 DIIS: error= 9.30D-03 at cycle   4 NSaved=   4.
 NSaved= 4 IEnMin= 3 EnMin= -801.823467179590     IErMin= 4 ErrMin= 9.30D-03
 ErrMax= 9.30D-03  0.00D+00 EMaxC= 1.00D-01 BMatC= 1.47D-01 BMatP= 2.52D-01
 IDIUse=3 WtCom= 9.07D-01 WtEn= 9.30D-02
 Coeff-Com:  0.663D+00-0.916D+00 0.718D+00 0.535D+00
 Coeff-En:   0.000D+00 0.000D+00 0.593D+00 0.407D+00
 Coeff:      0.601D+00-0.831D+00 0.706D+00 0.523D+00
 Gap=     0.262 Goal=   None    Shift=    0.000
 RMSDP=3.42D-04 MaxDP=3.50D-02 DE= 3.05D-02 OVMax= 7.91D-02

 Cycle   5  Pass 0  IDiag  1:
 RMSU=  1.44D-04    CP:  1.06D+00  9.66D-01  7.86D-01  2.08D-01
 E= -801.900408944976     Delta-E=       -0.107400424951 Rises=F Damp=F
 DIIS: error= 2.74D-03 at cycle   5 NSaved=   5.
 NSaved= 5 IEnMin= 5 EnMin= -801.900408944976     IErMin= 5 ErrMin= 2.74D-03
 ErrMax= 2.74D-03  0.00D+00 EMaxC= 1.00D-01 BMatC= 1.37D-02 BMatP= 1.47D-01
 IDIUse=3 WtCom= 9.73D-01 WtEn= 2.74D-02
 Coeff-Com:  0.963D-01-0.138D+00 0.927D-01 0.238D+00 0.712D+00
 Coeff-En:   0.000D+00 0.000D+00 0.000D+00 0.275D-01 0.973D+00
 Coeff:      0.937D-01-0.135D+00 0.902D-01 0.232D+00 0.719D+00
 Gap=     0.233 Goal=   None    Shift=    0.000
 RMSDP=1.68D-04 MaxDP=1.77D-02 DE=-1.07D-01 OVMax= 3.11D-02

 Cycle   6  Pass 0  IDiag  1:
 RMSU=  1.07D-04    CP:  1.06D+00  9.71D-01  8.54D-01  4.16D-01  3.75D-01
 E= -801.906869823729     Delta-E=       -0.006460878753 Rises=F Damp=F
 DIIS: error= 1.69D-03 at cycle   6 NSaved=   6.
 NSaved= 6 IEnMin= 6 EnMin= -801.906869823729     IErMin= 6 ErrMin= 1.69D-03
 ErrMax= 1.69D-03  0.00D+00 EMaxC= 1.00D-01 BMatC= 2.85D-03 BMatP= 1.37D-02
 IDIUse=3 WtCom= 9.83D-01 WtEn= 1.69D-02
 Coeff-Com:  0.325D-01-0.462D-01 0.105D-01 0.886D-01 0.376D+00 0.538D+00
 Coeff-En:   0.000D+00 0.000D+00 0.000D+00 0.000D+00 0.203D+00 0.797D+00
 Coeff:      0.319D-01-0.454D-01 0.104D-01 0.871D-01 0.373D+00 0.543D+00
 Gap=     0.227 Goal=   None    Shift=    0.000
 RMSDP=5.38D-05 MaxDP=7.43D-03 DE=-6.46D-03 OVMax= 1.94D-02

 Cycle   7  Pass 0  IDiag  1:
 RMSU=  4.62D-05    CP:  1.06D+00  9.55D-01  8.35D-01  4.20D-01  4.83D-01
                    CP:  8.78D-01
 E= -801.908736856404     Delta-E=       -0.001867032675 Rises=F Damp=F
 DIIS: error= 8.48D-04 at cycle   7 NSaved=   7.
 NSaved= 7 IEnMin= 7 EnMin= -801.908736856404     IErMin= 7 ErrMin= 8.48D-04
 ErrMax= 8.48D-04  0.00D+00 EMaxC= 1.00D-01 BMatC= 6.43D-04 BMatP= 2.85D-03
 IDIUse=3 WtCom= 9.92D-01 WtEn= 8.48D-03
 Coeff-Com:  0.245D-01-0.331D-01 0.449D-02 0.199D-01 0.981D-01 0.337D+00
 Coeff-Com:  0.549D+00
 Coeff-En:   0.000D+00 0.000D+00 0.000D+00 0.000D+00 0.000D+00 0.202D+00
 Coeff-En:   0.798D+00
 Coeff:      0.243D-01-0.328D-01 0.445D-02 0.197D-01 0.973D-01 0.336D+00
 Coeff:      0.551D+00
 Gap=     0.226 Goal=   None    Shift=    0.000
 RMSDP=2.11D-05 MaxDP=3.23D-03 DE=-1.87D-03 OVMax= 6.97D-03

 Cycle   8  Pass 0  IDiag  1:
 RMSU=  1.09D-05    CP:  1.06D+00  9.57D-01  8.39D-01  4.30D-01  4.71D-01
                    CP:  9.77D-01  7.10D-01
 E= -801.909250536110     Delta-E=       -0.000513679706 Rises=F Damp=F
 DIIS: error= 1.47D-04 at cycle   8 NSaved=   8.
 NSaved= 8 IEnMin= 8 EnMin= -801.909250536110     IErMin= 8 ErrMin= 1.47D-04
 ErrMax= 1.47D-04  0.00D+00 EMaxC= 1.00D-01 BMatC= 3.44D-05 BMatP= 6.43D-04
 IDIUse=3 WtCom= 9.99D-01 WtEn= 1.47D-03
 Coeff-Com:  0.141D-01-0.190D-01 0.381D-02 0.469D-02 0.252D-01 0.146D+00
 Coeff-Com:  0.299D+00 0.526D+00
 Coeff-En:   0.000D+00 0.000D+00 0.000D+00 0.000D+00 0.000D+00 0.000D+00
 Coeff-En:   0.000D+00 0.100D+01
 Coeff:      0.141D-01-0.189D-01 0.381D-02 0.469D-02 0.252D-01 0.146D+00
 Coeff:      0.299D+00 0.526D+00
 Gap=     0.226 Goal=   None    Shift=    0.000
 RMSDP=6.04D-06 MaxDP=5.63D-04 DE=-5.14D-04 OVMax= 1.11D-03

 Initial convergence to 1.0D-05 achieved.  Increase integral accuracy.
 Cycle   9  Pass 1  IDiag  1:
 E= -801.909245865303     Delta-E=        0.000004670807 Rises=F Damp=F
 DIIS: error= 2.46D-04 at cycle   1 NSaved=   1.
 NSaved= 1 IEnMin= 1 EnMin= -801.909245865303     IErMin= 1 ErrMin= 2.46D-04
 ErrMax= 2.46D-04  0.00D+00 EMaxC= 1.00D-01 BMatC= 2.83D-05 BMatP= 2.83D-05
 IDIUse=3 WtCom= 9.98D-01 WtEn= 2.46D-03
 Coeff-Com:  0.100D+01
 Coeff-En:   0.100D+01
 Coeff:      0.100D+01
 Gap=     0.226 Goal=   None    Shift=    0.000
 RMSDP=6.04D-06 MaxDP=5.63D-04 DE= 4.67D-06 OVMax= 1.50D-03

 Cycle  10  Pass 1  IDiag  1:
 RMSU=  1.96D-04    CP:  9.90D-01
 E= -801.909259952177     Delta-E=       -0.000014086874 Rises=F Damp=F
 DIIS: error= 7.85D-05 at cycle   2 NSaved=   2.
 NSaved= 2 IEnMin= 2 EnMin= -801.909259952177     IErMin= 2 ErrMin= 7.85D-05
 ErrMax= 7.85D-05  0.00D+00 EMaxC= 1.00D-01 BMatC= 7.22D-06 BMatP= 2.83D-05
 IDIUse=1 WtCom= 1.00D+00 WtEn= 0.00D+00
 Coeff-Com:  0.254D+00 0.746D+00
 Coeff:      0.254D+00 0.746D+00
 Gap=     0.226 Goal=   None    Shift=    0.000
 RMSDP=4.91D-06 MaxDP=5.08D-04 DE=-1.41D-05 OVMax= 1.53D-03

 Cycle  11  Pass 1  IDiag  1:
 RMSU=  4.02D-06    CP:  9.90D-01  1.01D+00
 E= -801.909257211833     Delta-E=        0.000002740345 Rises=F Damp=F
 DIIS: error= 1.09D-04 at cycle   3 NSaved=   3.
 NSaved= 3 IEnMin= 2 EnMin= -801.909259952177     IErMin= 2 ErrMin= 7.85D-05
 ErrMax= 1.09D-04  0.00D+00 EMaxC= 1.00D-01 BMatC= 1.08D-05 BMatP= 7.22D-06
 IDIUse=3 WtCom= 4.89D-01 WtEn= 5.11D-01
 Coeff-Com:  0.943D-02 0.547D+00 0.443D+00
 Coeff-En:   0.000D+00 0.576D+00 0.424D+00
 Coeff:      0.462D-02 0.562D+00 0.433D+00
 Gap=     0.226 Goal=   None    Shift=    0.000
 RMSDP=2.34D-06 MaxDP=3.16D-04 DE= 2.74D-06 OVMax= 8.89D-04

 Cycle  12  Pass 1  IDiag  1:
 RMSU=  8.41D-07    CP:  9.90D-01  1.02D+00  5.14D-01
 E= -801.909265360055     Delta-E=       -0.000008148223 Rises=F Damp=F
 DIIS: error= 1.30D-05 at cycle   4 NSaved=   4.
 NSaved= 4 IEnMin= 4 EnMin= -801.909265360055     IErMin= 4 ErrMin= 1.30D-05
 ErrMax= 1.30D-05  0.00D+00 EMaxC= 1.00D-01 BMatC= 1.93D-07 BMatP= 7.22D-06
 IDIUse=1 WtCom= 1.00D+00 WtEn= 0.00D+00
 Coeff-Com: -0.197D-02 0.303D+00 0.238D+00 0.461D+00
 Coeff:     -0.197D-02 0.303D+00 0.238D+00 0.461D+00
 Gap=     0.226 Goal=   None    Shift=    0.000
 RMSDP=3.75D-07 MaxDP=5.56D-05 DE=-8.15D-06 OVMax= 7.11D-05

 Cycle  13  Pass 1  IDiag  1:
 RMSU=  3.42D-07    CP:  9.90D-01  1.02D+00  5.09D-01  8.69D-01
 E= -801.909265486591     Delta-E=       -0.000000126536 Rises=F Damp=F
 DIIS: error= 3.00D-06 at cycle   5 NSaved=   5.
 NSaved= 5 IEnMin= 5 EnMin= -801.909265486591     IErMin= 5 ErrMin= 3.00D-06
 ErrMax= 3.00D-06  0.00D+00 EMaxC= 1.00D-01 BMatC= 9.25D-09 BMatP= 1.93D-07
 IDIUse=1 WtCom= 1.00D+00 WtEn= 0.00D+00
 Coeff-Com: -0.168D-02 0.972D-01 0.750D-01 0.231D+00 0.598D+00
 Coeff:     -0.168D-02 0.972D-01 0.750D-01 0.231D+00 0.598D+00
 Gap=     0.226 Goal=   None    Shift=    0.000
 RMSDP=8.47D-08 MaxDP=9.04D-06 DE=-1.27D-07 OVMax= 1.85D-05

 Cycle  14  Pass 1  IDiag  1:
 RMSU=  6.24D-08    CP:  9.90D-01  1.02D+00  5.10D-01  9.12D-01  9.00D-01
 E= -801.909265491916     Delta-E=       -0.000000005325 Rises=F Damp=F
 DIIS: error= 9.02D-07 at cycle   6 NSaved=   6.
 NSaved= 6 IEnMin= 6 EnMin= -801.909265491916     IErMin= 6 ErrMin= 9.02D-07
 ErrMax= 9.02D-07  0.00D+00 EMaxC= 1.00D-01 BMatC= 1.13D-09 BMatP= 9.25D-09
 IDIUse=1 WtCom= 1.00D+00 WtEn= 0.00D+00
 Coeff-Com: -0.859D-03 0.365D-01 0.280D-01 0.103D+00 0.340D+00 0.494D+00
 Coeff:     -0.859D-03 0.365D-01 0.280D-01 0.103D+00 0.340D+00 0.494D+00
 Gap=     0.226 Goal=   None    Shift=    0.000
 RMSDP=3.83D-08 MaxDP=7.05D-06 DE=-5.32D-09 OVMax= 9.39D-06

 Cycle  15  Pass 1  IDiag  1:
 RMSU=  3.03D-08    CP:  9.90D-01  1.02D+00  5.11D-01  9.22D-01  9.41D-01
                    CP:  7.82D-01
 E= -801.909265492584     Delta-E=       -0.000000000668 Rises=F Damp=F
 DIIS: error= 3.14D-07 at cycle   7 NSaved=   7.
 NSaved= 7 IEnMin= 7 EnMin= -801.909265492584     IErMin= 7 ErrMin= 3.14D-07
 ErrMax= 3.14D-07  0.00D+00 EMaxC= 1.00D-01 BMatC= 1.63D-10 BMatP= 1.13D-09
 IDIUse=1 WtCom= 1.00D+00 WtEn= 0.00D+00
 Coeff-Com: -0.731D-04-0.375D-02-0.278D-02 0.117D-02 0.453D-01 0.285D+00
 Coeff-Com:  0.676D+00
 Coeff:     -0.731D-04-0.375D-02-0.278D-02 0.117D-02 0.453D-01 0.285D+00
 Coeff:      0.676D+00
 Gap=     0.226 Goal=   None    Shift=    0.000
 RMSDP=1.71D-08 MaxDP=1.43D-06 DE=-6.68D-10 OVMax= 3.70D-06

 Cycle  16  Pass 1  IDiag  1:
 RMSU=  1.14D-08    CP:  9.90D-01  1.02D+00  5.12D-01  9.28D-01  9.52D-01
                    CP:  9.15D-01  1.02D+00
 E= -801.909265492810     Delta-E=       -0.000000000226 Rises=F Damp=F
 DIIS: error= 6.94D-08 at cycle   8 NSaved=   8.
 NSaved= 8 IEnMin= 8 EnMin= -801.909265492810     IErMin= 8 ErrMin= 6.94D-08
 ErrMax= 6.94D-08  0.00D+00 EMaxC= 1.00D-01 BMatC= 1.49D-11 BMatP= 1.63D-10
 IDIUse=1 WtCom= 1.00D+00 WtEn= 0.00D+00
 Coeff-Com:  0.403D-04-0.504D-02-0.378D-02-0.869D-02-0.902D-02 0.927D-01
 Coeff-Com:  0.336D+00 0.598D+00
 Coeff:      0.403D-04-0.504D-02-0.378D-02-0.869D-02-0.902D-02 0.927D-01
 Coeff:      0.336D+00 0.598D+00
 Gap=     0.226 Goal=   None    Shift=    0.000
 RMSDP=5.50D-09 MaxDP=8.10D-07 DE=-2.26D-10 OVMax= 9.39D-07

 SCF Done:  E(RM06) =  -801.909265493     A.U. after   16 cycles
            NFock= 16  Conv=0.55D-08     -V/T= 2.0045
 KE= 7.983563877705D+02 PE=-4.343672064528D+03 EE= 1.507947188874D+03
 Leave Link  502 at Tue Jun 24 17:15:20 2014, MaxMem=  4294967296 cpu:     36701.4
 (Enter /home/ztw1e12/g09/l801.exe)
 DoSCS=F DFT=T ScalE2(SS,OS)=  1.000000  1.000000
 Range of M.O.s used for correlation:     1  1068
 NBasis=  1204 NAE=    63 NBE=    63 NFC=     0 NFV=     0
 NROrb=   1068 NOA=    63 NOB=    63 NVA=  1005 NVB=  1005

 **** Warning!!: The largest alpha MO coefficient is  0.27414424D+02

 Leave Link  801 at Tue Jun 24 17:15:20 2014, MaxMem=  4294967296 cpu:         0.4
 (Enter /home/ztw1e12/g09/l1002.exe)
 Minotr:  Closed shell wavefunction.
          IDoAtm=111111111111111111111111111111111
          Direct CPHF calculation.
          Differentiating once with respect to Fermi-contact.
          Electric field/nuclear overlap derivatives assumed to be zero.
          Requested convergence is 1.0D-10 RMS, and 1.0D-09 maximum.
          Secondary convergence is 1.0D-12 RMS, and 1.0D-12 maximum.
          NewPWx=T KeepS1=F KeepF1=F KeepIn=T MapXYZ=F SortEE=F KeepMc=T.
          MDV=    4294965894 using IRadAn=  199590.
 Using stored XC quadrature information.
          Solving linear equations simultaneously, MaxMat=       0.
          There are    33 degrees of freedom in the 1st order CPHF.  IDoFFX=0 NUNeed=    33.
     33 vectors produced by pass  0 Test12= 1.92D-17 3.03D-11 XBig12= 4.29D+01 2.58D+00.
 AX will form    33 AO Fock derivatives at one time.
 FoFJK:  IHMeth= 1 ICntrl=       0 DoSepK=F KAlg= 0 I1Cent=   0 FoldK=F
 IRaf= 460000000 NMat=  33 IRICut=       1 DoRegI=T DoRafI=F ISym2E=-1.
 FoFCou: FMM=F IPFlag=           0 FMFlag=      100000 FMFlg1=           0
         NFxFlg=           0 DoJE=F BraDBF=F KetDBF=F FulRan=T
         wScrn=  0.000000 ICntrl=       0 IOpCl=  0 I1Cent=           0 NGrid=           0
         NMat0=   33 NMatS0=      0 NMatT0=   33 NMatD0=   33 NMtDS0=    0 NMtDT0=    0
 Petite list used in FoFCou.
     33 vectors produced by pass  1 Test12= 1.92D-17 3.03D-11 XBig12= 3.46D-01 1.89D-01.
     33 vectors produced by pass  2 Test12= 1.92D-17 3.03D-11 XBig12= 1.56D-02 3.74D-02.
     33 vectors produced by pass  3 Test12= 1.92D-17 3.03D-11 XBig12= 3.51D-04 5.94D-03.
     33 vectors produced by pass  4 Test12= 1.92D-17 3.03D-11 XBig12= 7.31D-06 1.19D-03.
     33 vectors produced by pass  5 Test12= 1.92D-17 3.03D-11 XBig12= 1.55D-07 1.80D-04.
     33 vectors produced by pass  6 Test12= 1.92D-17 3.03D-11 XBig12= 5.03D-09 1.81D-05.
     33 vectors produced by pass  7 Test12= 1.92D-17 3.03D-11 XBig12= 1.36D-10 4.09D-06.
     33 vectors produced by pass  8 Test12= 1.92D-17 3.03D-11 XBig12= 5.35D-12 3.75D-07.
     33 vectors produced by pass  9 Test12= 1.92D-17 3.03D-11 XBig12= 7.21D-14 9.72D-08.
     33 vectors produced by pass 10 Test12= 1.92D-17 3.03D-11 XBig12= 1.97D-15 1.00D-08.
     32 vectors produced by pass 11 Test12= 1.92D-17 3.03D-11 XBig12= 1.96D-17 6.22D-10.
     10 vectors produced by pass 12 Test12= 1.92D-17 3.03D-11 XBig12= 2.51D-19 5.82D-11.
 InvSVY:  IOpt=1 It=  1 EMax= 1.33D-14
 Solved reduced A of dimension   405 with    33 vectors.
 Max diff in FC couplings:  IJMax=    22    16 Diff= 5.53D-04 IJMaxR=    26     2 DiffR= 1.72D+00
 Fermi Contact (FC) contribution to K (Hz):
                1             2             3             4             5 
      1  0.123400D+11
      2  0.349220D+02  0.123400D+11
      3 -0.116779D+01  0.345569D+02  0.123400D+11
      4  0.307276D+01  0.305980D+00  0.336137D+02  0.123400D+11
      5  0.160600D+01  0.298242D+01 -0.138591D+01  0.350919D+02  0.123400D+11
      6  0.361506D+02 -0.198903D+00  0.435725D+01  0.209088D+00  0.388323D+02
      7  0.215635D+02 -0.283985D+00  0.961289D+00 -0.200613D+00  0.604614D+00
      8 -0.222078D+00  0.216981D+02 -0.291709D+00  0.980320D+00 -0.296661D+00
      9 -0.287183D+00  0.102530D+01 -0.216277D+00  0.226970D+02 -0.192839D+00
     10  0.682418D+00 -0.223682D+00  0.106404D+01 -0.283468D+00  0.231667D+02
     11  0.205980D+01  0.150260D+01  0.244673D+02  0.146683D+01  0.202870D+01
     12 -0.110831D-01  0.833886D+00 -0.111890D+01  0.833307D+00  0.476483D-01
     13  0.406186D-01  0.823083D+00 -0.968828D+00  0.672620D+00 -0.578904D-01
     14 -0.579842D+00  0.791280D+00 -0.488764D+00  0.697747D+00 -0.602331D+00
     15  0.160339D-01 -0.181976D-01  0.587706D-01 -0.168820D-01  0.157090D-01
     16  0.397241D-01 -0.237437D-01  0.111988D+01 -0.383130D-01  0.248810D-01
     17 -0.758488D+00 -0.109874D+00  0.271448D+00  0.305749D+01  0.116270D+02
     18  0.425158D+00 -0.102939D-01 -0.473813D-01  0.208961D+00  0.114783D+01
     19 -0.379038D-02  0.796035D-01  0.363979D+00  0.446025D+00  0.584670D-03
     20  0.378831D-01 -0.958834D-01  0.212990D+01  0.119133D+00  0.939982D-01
     21 -0.999503D-03  0.798574D-03 -0.186646D-01  0.395346D-02 -0.864986D-04
     22  0.936644D-01  0.522265D+00  0.203045D+00 -0.328369D-01  0.759757D-01
     23  0.236496D-02  0.161119D-01  0.229562D-02  0.388328D-03  0.290233D-03
     24 -0.957796D-02  0.466736D-02  0.189037D+00  0.465044D-01  0.311201D-02
     25  0.143673D-02 -0.184960D-02  0.692163D-01 -0.149442D-02  0.766329D-03
     26 -0.208574D-04  0.000000D+00  0.339848D-03 -0.124463D-03 -0.949246D-04
     27 -0.219955D-03  0.301503D-03 -0.167263D-02  0.427809D-03 -0.131484D-03
     28 -0.134244D-03  0.203763D-03 -0.269511D-03  0.189835D-03 -0.173670D-03
     29  0.105534D+00  0.886935D-01  0.386924D-01 -0.218041D-01  0.223962D-01
     30  0.171804D-01  0.160815D-01  0.999436D-02 -0.111496D-02  0.453263D-02
     31 -0.939785D-03  0.171764D-02  0.162731D-02  0.154550D-03  0.124072D-03
     32  0.913434D-02  0.952566D-02  0.412594D-02  0.119682D-03  0.165844D-02
     33 -0.840713D-02  0.167342D-01 -0.227963D-01  0.135163D-01 -0.797814D-02
                6             7             8             9            10 
      6  0.123400D+11
      7 -0.560226D+00  0.123400D+11
      8  0.116617D+01  0.330228D+00  0.123400D+11
      9  0.123368D+01  0.372252D-01  0.377099D-01  0.123400D+11
     10 -0.699371D+00  0.629503D-01  0.427806D-01  0.352671D+00  0.123400D+11
     11 -0.477314D+00  0.178506D-01  0.693687D+00  0.696758D+00  0.162815D-01
     12  0.496076D-01  0.562109D-02 -0.352331D-01 -0.106332D-01  0.952979D-02
     13  0.732327D-01  0.970250D-02 -0.189987D-01 -0.299940D-01  0.843113D-02
     14  0.603979D+00  0.495447D-01 -0.152977D+00 -0.144256D+00  0.589265D-01
     15 -0.978390D-02 -0.161308D-02  0.700407D-02  0.848875D-02 -0.186632D-02
     16 -0.203947D-01 -0.134669D-02  0.232362D-01  0.361407D-02 -0.193611D-02
     17 -0.120408D+02  0.556809D+00  0.695692D-01  0.261880D+00  0.710125D+00
     18 -0.658577D+00 -0.132720D-01  0.165445D-02  0.140342D-01  0.750762D-03
     19  0.187847D-01 -0.536601D-02 -0.243246D-01  0.327668D-01 -0.196404D-02
     20 -0.128970D-01 -0.692414D-03  0.112893D-01  0.833887D-02  0.999271D-02
     21  0.934342D-03  0.743507D-04  0.429667D-03  0.201112D-03 -0.710248D-04
     22 -0.319605D-01 -0.104577D-01  0.153134D+00  0.113552D-01 -0.151422D-01
     23  0.868779D-04 -0.225156D-03  0.314370D-02  0.149333D-03  0.133420D-04
     24  0.110203D-01  0.995531D-03 -0.229011D-02 -0.430827D-03  0.237449D-02
     25  0.398115D-03 -0.434768D-04  0.223522D-03  0.185276D-03  0.290534D-03
     26  0.804266D-04  0.882085D-05 -0.595950D-04  0.286759D-04  0.100000D-04
     27  0.174658D-03  0.965397D-05 -0.382402D-04 -0.727365D-05  0.406815D-05
     28  0.139815D-03  0.146906D-04 -0.588250D-04 -0.506341D-04  0.162966D-04
     29 -0.303111D-01 -0.111759D-01  0.271867D-01  0.178936D-02 -0.446852D-02
     30  0.372057D-03  0.144664D-02  0.736997D-02  0.704666D-04 -0.946904D-03
     31  0.181324D-03  0.214313D-04  0.159898D-02  0.105272D-04 -0.448208D-04
     32 -0.338369D-03  0.450617D-03  0.343093D-02 -0.297104D-05 -0.326561D-03
     33  0.873087D-02  0.926666D-03 -0.430391D-03 -0.213664D-02  0.550578D-03
               11            12            13            14            15 
     11  0.123400D+11
     12  0.164680D+02  0.123400D+11
     13  0.185475D+02 -0.815184D+00  0.123400D+11
     14  0.155306D+02 -0.941903D+00 -0.739862D+00  0.123400D+11
     15 -0.700781D+00  0.208946D+00  0.404391D+00  0.216728D+02  0.123400D+11
     16 -0.546333D+00  0.126614D-01  0.706947D+00  0.283368D+02 -0.119311D+01
     17  0.619545D-01  0.171891D-01  0.260496D-01  0.245061D+00 -0.337409D-02
     18  0.123063D-01 -0.173705D-02 -0.283592D-02 -0.259383D-01  0.418999D-03
     19  0.696601D+00  0.826467D-02 -0.660849D-02  0.441174D+01  0.332751D+00
     20  0.122527D+01  0.188914D+01 -0.658785D-02  0.132012D+02 -0.372782D+00
     21  0.624296D+00 -0.389396D-01 -0.797318D-02  0.223684D+00  0.119526D+00
     22 -0.897685D-01  0.202978D-01  0.554568D-01  0.966005D+01  0.265584D+00
     23 -0.238420D-01  0.165215D-02 -0.178062D-02  0.646410D-01  0.117725D-01
     24  0.171064D+01  0.483392D-01 -0.300076D-01 -0.139439D+00  0.252444D+00
     25 -0.358708D-01  0.423088D-01  0.285840D-02  0.698630D+00 -0.762811D-01
     26  0.385819D-02 -0.551908D-04 -0.993794D-03  0.270694D-01  0.233403D-01
     27 -0.149627D-02 -0.949815D-03 -0.385220D-03  0.242370D-01  0.260241D-01
     28 -0.286964D-02 -0.735053D-03 -0.205951D-04  0.888639D-01 -0.182361D-02
     29 -0.981284D-01  0.139784D-02  0.440970D-02  0.722032D+00  0.712899D-01
     30  0.653159D-01 -0.148820D-02  0.377847D-02 -0.855595D-01  0.181177D-01
     31  0.239727D-03  0.585119D-04  0.107856D-03 -0.230821D-01  0.804913D-02
     32  0.548338D-01 -0.953982D-03  0.440950D-02 -0.670347D-01  0.437306D-02
     33  0.129472D+00  0.343481D-01 -0.111936D-02  0.797439D+00  0.252598D+00
               16            17            18            19            20 
     16  0.123400D+11
     17 -0.630060D-02  0.123400D+11
     18  0.642985D-03  0.198446D+02  0.123400D+11
     19 -0.941728D+01  0.113214D-01 -0.129690D-02  0.123400D+11
     20  0.193905D+00  0.154851D-02  0.338588D-03  0.107425D+01  0.123400D+11
     21  0.180673D+00  0.400046D-03 -0.341666D-04  0.928563D-01  0.308901D+02
     22  0.296581D+02 -0.591750D-02  0.216919D-03  0.630333D+01 -0.247946D+00
     23  0.338961D+00 -0.970701D-04  0.198874D-04  0.470056D+00 -0.564784D-01
     24  0.967418D-01  0.573306D-02 -0.478217D-03 -0.239030D-01  0.251967D+02
     25 -0.158405D+00  0.374871D-03 -0.308835D-04  0.521642D-01  0.124311D+02
     26  0.600074D-01  0.887710D-05  0.000000D+00 -0.141034D-02  0.361606D+00
     27  0.692565D-01  0.730595D-04 -0.717852D-05  0.480040D-02  0.349155D+00
     28 -0.203571D-02  0.652091D-04 -0.649449D-05  0.383656D-02  0.315788D+00
     29 -0.258700D+00 -0.207877D-02  0.895019D-04  0.686702D+00  0.113135D+00
     30  0.158877D+00 -0.291291D-03 -0.822608D-05  0.239018D+00  0.418241D-01
     31  0.957378D+00 -0.629536D-04  0.420781D-05  0.176769D+00  0.552265D-02
     32  0.207411D+00  0.181145D-03 -0.259876D-04  0.240808D+00  0.120670D-01
     33  0.477227D+00  0.352585D-02 -0.393150D-03  0.297817D+00  0.591039D+01
               21            22            23            24            25 
     21  0.123400D+11
     22  0.374041D-01  0.123400D+11
     23  0.412883D-02  0.310398D+02  0.123400D+11
     24  0.462332D+00 -0.286077D-01  0.837325D-02  0.123400D+11
     25  0.771098D-01  0.721983D-02  0.135563D-02  0.268955D+02  0.123400D+11
     26 -0.135867D-01  0.308805D-02  0.174994D-03 -0.119776D+01  0.180094D+02
     27 -0.758820D-02 -0.596561D-03 -0.139810D-03 -0.119398D+01  0.180059D+02
     28 -0.928519D-02 -0.189882D-02  0.180520D-03 -0.741661D+00  0.169774D+02
     29 -0.244395D-02  0.173286D+02  0.312796D+00 -0.597591D-02 -0.254074D-02
     30 -0.651903D-03 -0.652263D+00  0.444536D-01  0.227921D-02  0.241791D-02
     31 -0.459366D-03 -0.342047D+00  0.283697D+00  0.287915D-03 -0.404887D-03
     32  0.214528D-02 -0.558810D+00  0.191313D+00 -0.951702D-03  0.152132D-02
     33  0.441519D+00  0.354277D+00 -0.199823D-01 -0.979691D+01  0.352073D+01
               26            27            28            29            30 
     26  0.123400D+11
     27 -0.928701D+00  0.123400D+11
     28 -0.742382D+00 -0.726658D+00  0.123400D+11
     29 -0.250246D-03 -0.293639D-03  0.850219D-05  0.123400D+11
     30  0.358060D-03  0.308078D-03 -0.215219D-04  0.196642D+02  0.123400D+11
     31  0.306467D-03  0.162456D-03  0.113275D-04  0.181295D+02 -0.712077D+00
     32 -0.128592D-03 -0.142447D-03 -0.156264D-04  0.202999D+02 -0.740645D+00
     33  0.459185D+00  0.456366D+00  0.801431D+00 -0.249056D-01  0.182334D-01
               31            32            33 
     31  0.123400D+11
     32 -0.764372D+00  0.123400D+11
     33  0.249687D-02  0.183526D-01  0.123400D+11
 Fermi Contact (FC) contribution to J (Hz):
                1             2             3             4             5 
      1  0.243533D+11
      2  0.689195D+02  0.243533D+11
      3 -0.230465D+01  0.681989D+02  0.243533D+11
      4  0.606418D+01  0.603859D+00  0.663374D+02  0.243533D+11
      5  0.316947D+01  0.588587D+01 -0.273512D+01  0.692547D+02  0.243533D+11
      6  0.713441D+02 -0.392540D+00  0.859913D+01  0.412641D+00  0.766365D+02
      7  0.169207D+03 -0.222840D+01  0.754314D+01 -0.157419D+01  0.474435D+01
      8 -0.174263D+01  0.170263D+03 -0.228901D+01  0.769247D+01 -0.232787D+01
      9 -0.225350D+01  0.804544D+01 -0.169710D+01  0.178102D+03 -0.151319D+01
     10  0.535487D+01 -0.175521D+01  0.834939D+01 -0.222435D+01  0.181787D+03
     11  0.406508D+01  0.296542D+01  0.482868D+02  0.289483D+01  0.400369D+01
     12 -0.869677D-01  0.654342D+01 -0.877990D+01  0.653888D+01  0.373891D+00
     13  0.318730D+00  0.645865D+01 -0.760230D+01  0.527799D+01 -0.454261D+00
     14 -0.114433D+01  0.156161D+01 -0.964588D+00  0.137702D+01 -0.118872D+01
     15  0.125817D+00 -0.142795D+00  0.461167D+00 -0.132471D+00  0.123267D+00
     16  0.783966D-01 -0.468589D-01  0.221012D+01 -0.756117D-01  0.491033D-01
     17  0.807169D+00  0.116926D+00 -0.288869D+00 -0.325372D+01 -0.123733D+02
     18  0.333617D+01 -0.807755D-01 -0.371796D+00  0.163970D+01  0.900689D+01
     19  0.403365D-02 -0.847125D-01 -0.387339D+00 -0.474652D+00 -0.622194D-03
     20  0.214878D-01 -0.543862D-01  0.120811D+01  0.675738D-01  0.533169D-01
     21 -0.784300D-02  0.626634D-02 -0.146459D+00  0.310225D-01 -0.678746D-03
     22  0.531276D-01  0.296235D+00  0.115170D+00 -0.186255D-01  0.430944D-01
     23  0.185576D-01  0.126428D+00  0.180135D-01  0.304718D-02  0.227743D-02
     24 -0.189024D-01  0.921115D-02  0.373070D+00  0.917776D-01  0.614164D-02
     25  0.283542D-02 -0.365022D-02  0.136600D+00 -0.294928D-02  0.151237D-02
     26 -0.163666D-03  0.247205D-05  0.266675D-02 -0.976647D-03 -0.744864D-03
     27 -0.172597D-02  0.236587D-02 -0.131250D-01  0.335698D-02 -0.103174D-02
     28 -0.105340D-02  0.159891D-02 -0.211482D-02  0.148962D-02 -0.136277D-02
     29  0.208274D+00  0.175039D+00  0.763605D-01 -0.430310D-01  0.441995D-01
     30  0.134813D+00  0.126190D+00  0.784248D-01 -0.874897D-02  0.355671D-01
     31 -0.737440D-02  0.134782D-01  0.127694D-01  0.121274D-02  0.973581D-03
     32  0.716763D-01  0.747469D-01  0.323759D-01  0.939132D-03  0.130136D-01
     33  0.894671D-02 -0.178082D-01  0.242593D-01 -0.143838D-01  0.849019D-02
                6             7             8             9            10 
      6  0.243533D+11
      7 -0.439604D+01  0.385007D+12
      8  0.915086D+01  0.103031D+02  0.385007D+12
      9  0.968056D+01  0.116142D+01  0.117655D+01  0.385007D+12
     10 -0.548789D+01  0.196405D+01  0.133475D+01  0.110033D+02  0.385007D+12
     11 -0.941991D+00  0.140072D+00  0.544329D+01  0.546739D+01  0.127759D+00
     12  0.389266D+00  0.175378D+00 -0.109927D+01 -0.331756D+00  0.297329D+00
     13  0.574650D+00  0.302718D+00 -0.592757D+00 -0.935811D+00  0.263051D+00
     14  0.119197D+01  0.388772D+00 -0.120039D+01 -0.113196D+01  0.462391D+00
     15 -0.767733D-01 -0.503279D-01  0.218527D+00  0.264848D+00 -0.582290D-01
     16 -0.402494D-01 -0.105673D-01  0.182333D+00  0.283592D-01 -0.151925D-01
     17  0.128136D+02 -0.235601D+01 -0.294366D+00 -0.110809D+01 -0.300473D+01
     18 -0.516779D+01 -0.414086D+00  0.516189D-01  0.437865D+00  0.234237D-01
     19 -0.199904D-01  0.227050D-01  0.102924D+00 -0.138645D+00  0.831039D-02
     20 -0.731533D-02 -0.156159D-02  0.254607D-01  0.188065D-01  0.225364D-01
     21  0.733169D-02  0.231974D-02  0.134056D-01  0.627469D-02 -0.221597D-02
     22 -0.181284D-01 -0.235851D-01  0.345361D+00  0.256092D-01 -0.341499D-01
     23  0.681723D-03 -0.702484D-02  0.980833D-01  0.465918D-02  0.416270D-03
     24  0.217488D-01  0.781183D-02 -0.179703D-01 -0.338066D-02  0.186324D-01
     25  0.785689D-03 -0.341158D-03  0.175395D-02  0.145384D-02  0.227979D-02
     26  0.631099D-03  0.275210D-03 -0.185936D-02  0.894687D-03  0.312001D-03
     27  0.137053D-02  0.301204D-03 -0.119309D-02 -0.226937D-03  0.126926D-03
     28  0.109711D-02  0.458345D-03 -0.183534D-02 -0.157978D-02  0.508452D-03
     29 -0.598197D-01 -0.876960D-01  0.213331D+00  0.140410D-01 -0.350641D-01
     30  0.291950D-02  0.451351D-01  0.229943D+00  0.219855D-02 -0.295434D-01
     31  0.142283D-02  0.668655D-03  0.498881D-01  0.328449D-03 -0.139841D-02
     32 -0.265515D-02  0.140592D-01  0.107045D+00 -0.926963D-04 -0.101887D-01
     33 -0.929123D-02 -0.392098D-02  0.182110D-02  0.904071D-02 -0.232965D-02
               11            12            13            14            15 
     11  0.243533D+11
     12  0.129223D+03  0.385007D+12
     13  0.145541D+03 -0.254337D+02  0.385007D+12
     14  0.306500D+02 -0.739102D+01 -0.580562D+01  0.243533D+11
     15 -0.549896D+01  0.651909D+01  0.126170D+02  0.170064D+03  0.385007D+12
     16 -0.107820D+01  0.993526D-01  0.554734D+01  0.559233D+02 -0.936224D+01
     17 -0.659308D-01 -0.727317D-01 -0.110223D+00 -0.260790D+00  0.142767D-01
     18  0.965665D-01 -0.541958D-01 -0.884805D-01 -0.203535D+00  0.130727D-01
     19 -0.741309D+00 -0.349701D-01  0.279623D-01 -0.469489D+01 -0.140796D+01
     20  0.694988D+00  0.426055D+01 -0.148575D-01  0.748787D+01 -0.840730D+00
     21  0.489879D+01 -0.121491D+01 -0.248763D+00  0.175522D+01  0.372922D+01
     22 -0.509178D-01  0.457773D-01  0.125071D+00  0.547930D+01  0.598967D+00
     23 -0.187086D+00  0.515469D-01 -0.555551D-01  0.507232D+00  0.367302D+00
     24  0.337599D+01  0.379313D+00 -0.235467D+00 -0.275186D+00  0.198090D+01
     25 -0.707920D-01  0.331993D+00  0.224296D-01  0.137876D+01 -0.598570D+00
     26  0.302749D-01 -0.172195D-02 -0.310063D-01  0.212411D+00  0.728215D+00
     27 -0.117411D-01 -0.296342D-01 -0.120188D-01  0.190185D+00  0.811951D+00
     28 -0.225178D-01 -0.229336D-01 -0.642565D-03  0.697306D+00 -0.568966D-01
     29 -0.193659D+00  0.109687D-01  0.346025D-01  0.142495D+01  0.559405D+00
     30  0.512527D+00 -0.464319D-01  0.117888D+00 -0.671377D+00  0.565272D+00
     31  0.188111D-02  0.182557D-02  0.336511D-02 -0.181123D+00  0.251133D+00
     32  0.430276D+00 -0.297642D-01  0.137576D+00 -0.526015D+00  0.136439D+00
     33 -0.137781D+00 -0.145336D+00  0.473631D-02 -0.848620D+00 -0.106881D+01
               16            17            18            19            20 
     16  0.243533D+11
     17  0.670498D-02  0.708114D+10
     18  0.504544D-02 -0.839679D+02  0.385007D+12
     19  0.100217D+02  0.649661D-02  0.548754D-02  0.708114D+10
     20  0.109985D+00 -0.473624D-03  0.763612D-03 -0.328566D+00  0.201170D+10
     21  0.141772D+01 -0.169270D-02 -0.106600D-02 -0.392900D+00  0.696659D+02
     22  0.168224D+02  0.180991D-02  0.489213D-03 -0.192792D+01 -0.404210D-01
     23  0.265979D+01  0.410730D-03  0.620487D-03 -0.198894D+01 -0.127375D+00
     24  0.190922D+00 -0.610101D-02 -0.375253D-02  0.254371D-01  0.142919D+02
     25 -0.312616D+00 -0.398931D-03 -0.242339D-03 -0.555122D-01  0.705108D+01
     26  0.470872D+00 -0.375614D-04 -0.123918D-04  0.596755D-02  0.815524D+00
     27  0.543449D+00 -0.309135D-03 -0.223969D-03 -0.203118D-01  0.787445D+00
     28 -0.159741D-01 -0.275917D-03 -0.202628D-03 -0.162335D-01  0.712192D+00
     29 -0.510550D+00  0.221219D-02  0.702313D-03 -0.730775D+00  0.641714D-01
     30  0.124670D+01  0.123253D-02 -0.256653D-03 -0.101135D+01  0.943253D-01
     31  0.751245D+01  0.266374D-03  0.131283D-03 -0.747957D+00  0.124551D-01
     32  0.162754D+01 -0.766475D-03 -0.810812D-03 -0.101892D+01  0.272145D-01
     33 -0.507855D+00  0.202326D-02  0.166352D-02  0.170898D+00 -0.180774D+01
               21            22            23            24            25 
     21  0.385007D+12
     22  0.843570D-01  0.201170D+10
     23  0.128819D+00  0.700035D+02  0.385007D+12
     24  0.362787D+01 -0.162267D-01  0.657041D-01  0.243533D+11
     25  0.605073D+00  0.409518D-02  0.106375D-01  0.530789D+02  0.243533D+11
     26 -0.423903D+00  0.696443D-02  0.545979D-02 -0.939874D+01  0.141318D+03
     27 -0.236752D+00 -0.134541D-02 -0.436208D-02 -0.936903D+01  0.141290D+03
     28 -0.289697D+00 -0.428238D-02  0.563220D-02 -0.581974D+01  0.133220D+03
     29 -0.191775D-01  0.982898D+01  0.245448D+01 -0.117936D-01 -0.501422D-02
     30 -0.203394D-01 -0.147104D+01  0.138695D+01  0.178847D-01  0.189731D-01
     31 -0.143322D-01 -0.771413D+00  0.885133D+01  0.225924D-02 -0.317711D-02
     32  0.669325D-01 -0.126028D+01  0.596897D+01 -0.746791D-02  0.119376D-01
     33 -0.186819D+01 -0.108358D+00  0.845506D-01  0.104257D+02 -0.374670D+01
               26            27            28            29            30 
     26  0.385007D+12
     27 -0.289754D+02  0.385007D+12
     28 -0.231623D+02 -0.226717D+02  0.385007D+12
     29 -0.196366D-02 -0.230416D-02  0.667159D-04  0.243533D+11
     30  0.111715D-01  0.961203D-02 -0.671481D-03  0.154303D+03  0.385007D+12
     31  0.956176D-02  0.506863D-02  0.353419D-03  0.142261D+03 -0.222168D+02
     32 -0.401208D-02 -0.444436D-02 -0.487543D-03  0.159291D+03 -0.231081D+02
     33 -0.194294D+01 -0.193101D+01 -0.339107D+01  0.265041D-01 -0.771505D-01
               31            32            33 
     31  0.385007D+12
     32 -0.238484D+02  0.385007D+12
     33 -0.105649D-01 -0.776547D-01  0.708114D+10
 End of Minotr F.D. properties file   721 does not exist.
 End of Minotr F.D. properties file   722 does not exist.
 End of Minotr F.D. properties file   788 does not exist.
 Leave Link 1002 at Wed Jun 25 01:42:35 2014, MaxMem=  4294967296 cpu:    485763.1
 (Enter /home/ztw1e12/g09/l601.exe)
 Copying SCF densities to generalized density rwf, IOpCl= 0 IROHF=0.

 **********************************************************************

            Population analysis using the SCF density.

 **********************************************************************

 Orbital symmetries:
       Occupied  (A) (A) (A) (A) (A) (A) (A) (A) (A) (A) (A) (A)
                 (A) (A) (A) (A) (A) (A) (A) (A) (A) (A) (A) (A)
                 (A) (A) (A) (A) (A) (A) (A) (A) (A) (A) (A) (A)
                 (A) (A) (A) (A) (A) (A) (A) (A) (A) (A) (A) (A)
                 (A) (A) (A) (A) (A) (A) (A) (A) (A) (A) (A) (A)
                 (A) (A) (A)
       Virtual   (A) (A) (A) (A) (A) (A) (A) (A) (A) (A) (A) (A)
                 (A) (A) (A) (A) (A) (A) (A) (A) (A) (A) (A) (A)
                 (A) (A) (A) (A) (A) (A) (A) (A) (A) (A) (A) (A)
                 (A) (A) (A) (A) (A) (A) (A) (A) (A) (A) (A) (A)
                 (A) (A) (A) (A) (A) (A) (A) (A) (A) (A) (A) (A)
                 (A) (A) (A) (A) (A) (A) (A) (A) (A) (A) (A) (A)
                 (A) (A) (A) (A) (A) (A) (A) (A) (A) (A) (A) (A)
                 (A) (A) (A) (A) (A) (A) (A) (A) (A) (A) (A) (A)
                 (A) (A) (A) (A) (A) (A) (A) (A) (A) (A) (A) (A)
                 (A) (A) (A) (A) (A) (A) (A) (A) (A) (A) (A) (A)
                 (A) (A) (A) (A) (A) (A) (A) (A) (A) (A) (A) (A)
                 (A) (A) (A) (A) (A) (A) (A) (A) (A) (A) (A) (A)
                 (A) (A) (A) (A) (A) (A) (A) (A) (A) (A) (A) (A)
                 (A) (A) (A) (A) (A) (A) (A) (A) (A) (A) (A) (A)
                 (A) (A) (A) (A) (A) (A) (A) (A) (A) (A) (A) (A)
                 (A) (A) (A) (A) (A) (A) (A) (A) (A) (A) (A) (A)
                 (A) (A) (A) (A) (A) (A) (A) (A) (A) (A) (A) (A)
                 (A) (A) (A) (A) (A) (A) (A) (A) (A) (A) (A) (A)
                 (A) (A) (A) (A) (A) (A) (A) (A) (A) (A) (A) (A)
                 (A) (A) (A) (A) (A) (A) (A) (A) (A) (A) (A) (A)
                 (A) (A) (A) (A) (A) (A) (A) (A) (A) (A) (A) (A)
                 (A) (A) (A) (A) (A) (A) (A) (A) (A) (A) (A) (A)
                 (A) (A) (A) (A) (A) (A) (A) (A) (A) (A) (A) (A)
                 (A) (A) (A) (A) (A) (A) (A) (A) (A) (A) (A) (A)
                 (A) (A) (A) (A) (A) (A) (A) (A) (A) (A) (A) (A)
                 (A) (A) (A) (A) (A) (A) (A) (A) (A) (A) (A) (A)
                 (A) (A) (A) (A) (A) (A) (A) (A) (A) (A) (A) (A)
                 (A) (A) (A) (A) (A) (A) (A) (A) (A) (A) (A) (A)
                 (A) (A) (A) (A) (A) (A) (A) (A) (A) (A) (A) (A)
                 (A) (A) (A) (A) (A) (A) (A) (A) (A) (A) (A) (A)
                 (A) (A) (A) (A) (A) (A) (A) (A) (A) (A) (A) (A)
                 (A) (A) (A) (A) (A) (A) (A) (A) (A) (A) (A) (A)
                 (A) (A) (A) (A) (A) (A) (A) (A) (A) (A) (A) (A)
                 (A) (A) (A) (A) (A) (A) (A) (A) (A) (A) (A) (A)
                 (A) (A) (A) (A) (A) (A) (A) (A) (A) (A) (A) (A)
                 (A) (A) (A) (A) (A) (A) (A) (A) (A) (A) (A) (A)
                 (A) (A) (A) (A) (A) (A) (A) (A) (A) (A) (A) (A)
                 (A) (A) (A) (A) (A) (A) (A) (A) (A) (A) (A) (A)
                 (A) (A) (A) (A) (A) (A) (A) (A) (A) (A) (A) (A)
                 (A) (A) (A) (A) (A) (A) (A) (A) (A) (A) (A) (A)
                 (A) (A) (A) (A) (A) (A) (A) (A) (A) (A) (A) (A)
                 (A) (A) (A) (A) (A) (A) (A) (A) (A) (A) (A) (A)
                 (A) (A) (A) (A) (A) (A) (A) (A) (A) (A) (A) (A)
                 (A) (A) (A) (A) (A) (A) (A) (A) (A) (A) (A) (A)
                 (A) (A) (A) (A) (A) (A) (A) (A) (A) (A) (A) (A)
                 (A) (A) (A) (A) (A) (A) (A) (A) (A) (A) (A) (A)
                 (A) (A) (A) (A) (A) (A) (A) (A) (A) (A) (A) (A)
                 (A) (A) (A) (A) (A) (A) (A) (A) (A) (A) (A) (A)
                 (A) (A) (A) (A) (A) (A) (A) (A) (A) (A) (A) (A)
                 (A) (A) (A) (A) (A) (A) (A) (A) (A) (A) (A) (A)
                 (A) (A) (A) (A) (A) (A) (A) (A) (A) (A) (A) (A)
                 (A) (A) (A) (A) (A) (A) (A) (A) (A) (A) (A) (A)
                 (A) (A) (A) (A) (A) (A) (A) (A) (A) (A) (A) (A)
                 (A) (A) (A) (A) (A) (A) (A) (A) (A) (A) (A) (A)
                 (A) (A) (A) (A) (A) (A) (A) (A) (A) (A) (A) (A)
                 (A) (A) (A) (A) (A) (A) (A) (A) (A) (A) (A) (A)
                 (A) (A) (A) (A) (A) (A) (A) (A) (A) (A) (A) (A)
                 (A) (A) (A) (A) (A) (A) (A) (A) (A) (A) (A) (A)
                 (A) (A) (A) (A) (A) (A) (A) (A) (A) (A) (A) (A)
                 (A) (A) (A) (A) (A) (A) (A) (A) (A) (A) (A) (A)
                 (A) (A) (A) (A) (A) (A) (A) (A) (A) (A) (A) (A)
                 (A) (A) (A) (A) (A) (A) (A) (A) (A) (A) (A) (A)
                 (A) (A) (A) (A) (A) (A) (A) (A) (A) (A) (A) (A)
                 (A) (A) (A) (A) (A) (A) (A) (A) (A) (A) (A) (A)
                 (A) (A) (A) (A) (A) (A) (A) (A) (A) (A) (A) (A)
                 (A) (A) (A) (A) (A) (A) (A) (A) (A) (A) (A) (A)
                 (A) (A) (A) (A) (A) (A) (A) (A) (A) (A) (A) (A)
                 (A) (A) (A) (A) (A) (A) (A) (A) (A) (A) (A) (A)
                 (A) (A) (A) (A) (A) (A) (A) (A) (A) (A) (A) (A)
                 (A) (A) (A) (A) (A) (A) (A) (A) (A) (A) (A) (A)
                 (A) (A) (A) (A) (A) (A) (A) (A) (A) (A) (A) (A)
                 (A) (A) (A) (A) (A) (A) (A) (A) (A) (A) (A) (A)
                 (A) (A) (A) (A) (A) (A) (A) (A) (A) (A) (A) (A)
                 (A) (A) (A) (A) (A) (A) (A) (A) (A) (A) (A) (A)
                 (A) (A) (A) (A) (A) (A) (A) (A) (A) (A) (A) (A)
                 (A) (A) (A) (A) (A) (A) (A) (A) (A) (A) (A) (A)
                 (A) (A) (A) (A) (A) (A) (A) (A) (A) (A) (A) (A)
                 (A) (A) (A) (A) (A) (A) (A) (A) (A) (A) (A) (A)
                 (A) (A) (A) (A) (A) (A) (A) (A) (A) (A) (A) (A)
                 (A) (A) (A) (A) (A) (A) (A) (A) (A) (A) (A) (A)
                 (A) (A) (A) (A) (A) (A) (A) (A) (A) (A) (A) (A)
                 (A) (A) (A) (A) (A) (A) (A) (A) (A) (A) (A) (A)
                 (A) (A) (A) (A) (A) (A) (A) (A) (A) (A) (A) (A)
                 (A) (A) (A) (A) (A) (A) (A) (A) (A)
 The electronic state is 1-A.
 Alpha  occ. eigenvalues --  -19.24581 -19.17609 -19.16450 -14.42865 -14.41383
 Alpha  occ. eigenvalues --  -10.34509 -10.32869 -10.30631 -10.29260 -10.26769
 Alpha  occ. eigenvalues --  -10.26417 -10.25044 -10.24952 -10.24750 -10.24436
 Alpha  occ. eigenvalues --  -10.24398 -10.23669  -1.08890  -1.05831  -1.04178
 Alpha  occ. eigenvalues --   -0.95792  -0.93437  -0.87640  -0.81526  -0.77219
 Alpha  occ. eigenvalues --   -0.76518  -0.73902  -0.71736  -0.66831  -0.63947
 Alpha  occ. eigenvalues --   -0.62335  -0.59832  -0.59303  -0.56183  -0.54899
 Alpha  occ. eigenvalues --   -0.52576  -0.50125  -0.50043  -0.47894  -0.47157
 Alpha  occ. eigenvalues --   -0.46862  -0.45550  -0.45141  -0.44237  -0.43756
 Alpha  occ. eigenvalues --   -0.42991  -0.42281  -0.41818  -0.41202  -0.41052
 Alpha  occ. eigenvalues --   -0.39758  -0.39105  -0.37894  -0.37363  -0.35641
 Alpha  occ. eigenvalues --   -0.35186  -0.34953  -0.29746  -0.27659  -0.27122
 Alpha  occ. eigenvalues --   -0.26534  -0.25379  -0.23608
 Alpha virt. eigenvalues --   -0.00974  -0.00263   0.00807   0.01959   0.02109
 Alpha virt. eigenvalues --    0.02974   0.03770   0.04843   0.05357   0.06504
 Alpha virt. eigenvalues --    0.06937   0.07820   0.09152   0.10178   0.10539
 Alpha virt. eigenvalues --    0.10904   0.11416   0.12259   0.12588   0.13261
 Alpha virt. eigenvalues --    0.14802   0.15674   0.16661   0.18010   0.19429
 Alpha virt. eigenvalues --    0.20041   0.21235   0.21802   0.22581   0.23235
 Alpha virt. eigenvalues --    0.23835   0.24384   0.25279   0.25827   0.26424
 Alpha virt. eigenvalues --    0.27101   0.28195   0.28509   0.28883   0.30333
 Alpha virt. eigenvalues --    0.30636   0.31433   0.31668   0.31792   0.32200
 Alpha virt. eigenvalues --    0.33301   0.33542   0.33941   0.34023   0.35280
 Alpha virt. eigenvalues --    0.35633   0.36122   0.36547   0.36972   0.37748
 Alpha virt. eigenvalues --    0.38326   0.38410   0.39116   0.39422   0.39948
 Alpha virt. eigenvalues --    0.40397   0.41157   0.41330   0.41623   0.42076
 Alpha virt. eigenvalues --    0.42190   0.42843   0.43165   0.43437   0.44511
 Alpha virt. eigenvalues --    0.44881   0.45223   0.46131   0.46524   0.46910
 Alpha virt. eigenvalues --    0.47857   0.48478   0.49429   0.49923   0.50683
 Alpha virt. eigenvalues --    0.51111   0.51385   0.51466   0.52792   0.53708
 Alpha virt. eigenvalues --    0.54476   0.54639   0.56268   0.57058   0.57845
 Alpha virt. eigenvalues --    0.59159   0.59371   0.60014   0.61401   0.61774
 Alpha virt. eigenvalues --    0.62210   0.62554   0.62900   0.65094   0.65106
 Alpha virt. eigenvalues --    0.66120   0.66857   0.67553   0.68265   0.69060
 Alpha virt. eigenvalues --    0.70175   0.70945   0.71666   0.72105   0.72290
 Alpha virt. eigenvalues --    0.73061   0.74169   0.74498   0.75641   0.76634
 Alpha virt. eigenvalues --    0.77641   0.77749   0.78529   0.79509   0.80037
 Alpha virt. eigenvalues --    0.80938   0.81038   0.82255   0.82905   0.83508
 Alpha virt. eigenvalues --    0.83999   0.84595   0.85187   0.86592   0.86780
 Alpha virt. eigenvalues --    0.88282   0.88942   0.90026   0.90493   0.91461
 Alpha virt. eigenvalues --    0.92563   0.93321   0.94039   0.94492   0.95210
 Alpha virt. eigenvalues --    0.95823   0.95977   0.96494   0.97565   0.98264
 Alpha virt. eigenvalues --    0.99073   0.99874   1.00412   1.01352   1.01958
 Alpha virt. eigenvalues --    1.02439   1.03000   1.04112   1.04992   1.05951
 Alpha virt. eigenvalues --    1.06231   1.07193   1.08238   1.09258   1.09506
 Alpha virt. eigenvalues --    1.10373   1.11176   1.11904   1.13333   1.14214
 Alpha virt. eigenvalues --    1.14997   1.15290   1.16272   1.16795   1.17270
 Alpha virt. eigenvalues --    1.17678   1.18421   1.19002   1.19840   1.20754
 Alpha virt. eigenvalues --    1.20927   1.20980   1.22268   1.22933   1.23161
 Alpha virt. eigenvalues --    1.23333   1.23835   1.24623   1.24885   1.25920
 Alpha virt. eigenvalues --    1.26082   1.26208   1.26924   1.27473   1.27868
 Alpha virt. eigenvalues --    1.28345   1.28810   1.29822   1.30673   1.31592
 Alpha virt. eigenvalues --    1.31859   1.32276   1.33185   1.33666   1.34519
 Alpha virt. eigenvalues --    1.35118   1.35784   1.36523   1.37926   1.39055
 Alpha virt. eigenvalues --    1.39738   1.40796   1.41887   1.42961   1.44926
 Alpha virt. eigenvalues --    1.46057   1.47353   1.48277   1.49670   1.50746
 Alpha virt. eigenvalues --    1.53141   1.53414   1.54718   1.57307   1.57871
 Alpha virt. eigenvalues --    1.58602   1.60830   1.62134   1.63034   1.63593
 Alpha virt. eigenvalues --    1.65960   1.66792   1.69678   1.70943   1.72893
 Alpha virt. eigenvalues --    1.74370   1.74882   1.76843   1.78048   1.80450
 Alpha virt. eigenvalues --    1.81382   1.82442   1.83699   1.84949   1.85694
 Alpha virt. eigenvalues --    1.86540   1.86729   1.88592   1.90029   1.91497
 Alpha virt. eigenvalues --    1.92726   1.94138   1.95172   1.95980   1.97090
 Alpha virt. eigenvalues --    1.98222   1.98660   2.02208   2.03491   2.03597
 Alpha virt. eigenvalues --    2.04449   2.04944   2.07299   2.07988   2.08413
 Alpha virt. eigenvalues --    2.10373   2.13066   2.13748   2.14451   2.15282
 Alpha virt. eigenvalues --    2.16161   2.18208   2.18512   2.19918   2.20774
 Alpha virt. eigenvalues --    2.21665   2.22617   2.24234   2.25370   2.27463
 Alpha virt. eigenvalues --    2.27893   2.28533   2.30573   2.32167   2.32989
 Alpha virt. eigenvalues --    2.34176   2.36024   2.36329   2.37226   2.37751
 Alpha virt. eigenvalues --    2.39502   2.40217   2.40624   2.42108   2.42823
 Alpha virt. eigenvalues --    2.44268   2.46315   2.48119   2.48566   2.49577
 Alpha virt. eigenvalues --    2.50694   2.52015   2.52432   2.53536   2.53850
 Alpha virt. eigenvalues --    2.56561   2.57256   2.57984   2.58451   2.60500
 Alpha virt. eigenvalues --    2.63785   2.64068   2.65977   2.66749   2.66865
 Alpha virt. eigenvalues --    2.67611   2.68602   2.69476   2.69743   2.70220
 Alpha virt. eigenvalues --    2.70560   2.71488   2.71708   2.72095   2.72923
 Alpha virt. eigenvalues --    2.74103   2.74707   2.75504   2.75983   2.76542
 Alpha virt. eigenvalues --    2.77518   2.78862   2.79385   2.80076   2.81726
 Alpha virt. eigenvalues --    2.81850   2.83282   2.84651   2.84950   2.86346
 Alpha virt. eigenvalues --    2.87080   2.87586   2.88035   2.88840   2.89728
 Alpha virt. eigenvalues --    2.90094   2.90952   2.91337   2.92384   2.92569
 Alpha virt. eigenvalues --    2.94006   2.94336   2.95106   2.95629   2.96201
 Alpha virt. eigenvalues --    2.96709   2.97091   2.97805   2.98407   2.98783
 Alpha virt. eigenvalues --    2.99650   3.00165   3.01203   3.01499   3.02313
 Alpha virt. eigenvalues --    3.03156   3.03618   3.04688   3.04959   3.05360
 Alpha virt. eigenvalues --    3.05572   3.06594   3.07576   3.08584   3.09088
 Alpha virt. eigenvalues --    3.10814   3.11662   3.12680   3.13190   3.14102
 Alpha virt. eigenvalues --    3.14659   3.15223   3.15780   3.16535   3.16978
 Alpha virt. eigenvalues --    3.17952   3.19090   3.19336   3.20262   3.21695
 Alpha virt. eigenvalues --    3.22402   3.22720   3.23564   3.24556   3.25621
 Alpha virt. eigenvalues --    3.26675   3.27466   3.27960   3.28403   3.28864
 Alpha virt. eigenvalues --    3.29304   3.29715   3.30331   3.30725   3.31189
 Alpha virt. eigenvalues --    3.31721   3.32366   3.33556   3.33796   3.34244
 Alpha virt. eigenvalues --    3.34918   3.36072   3.36783   3.37367   3.38842
 Alpha virt. eigenvalues --    3.40128   3.40891   3.42477   3.42811   3.42968
 Alpha virt. eigenvalues --    3.43142   3.44379   3.45597   3.46023   3.46799
 Alpha virt. eigenvalues --    3.47295   3.48710   3.50566   3.50992   3.52258
 Alpha virt. eigenvalues --    3.52761   3.53998   3.54754   3.55802   3.56849
 Alpha virt. eigenvalues --    3.58059   3.59153   3.60890   3.61102   3.61473
 Alpha virt. eigenvalues --    3.63079   3.63262   3.64029   3.64477   3.66618
 Alpha virt. eigenvalues --    3.67019   3.68196   3.69290   3.70382   3.71473
 Alpha virt. eigenvalues --    3.72156   3.72720   3.73371   3.73817   3.74245
 Alpha virt. eigenvalues --    3.74809   3.75586   3.76623   3.77794   3.78539
 Alpha virt. eigenvalues --    3.78657   3.80019   3.80185   3.81397   3.81877
 Alpha virt. eigenvalues --    3.82476   3.83698   3.84306   3.85366   3.85894
 Alpha virt. eigenvalues --    3.86492   3.87305   3.87857   3.89379   3.89787
 Alpha virt. eigenvalues --    3.91868   3.92702   3.93282   3.93763   3.94719
 Alpha virt. eigenvalues --    3.95903   3.96888   3.98809   3.99221   4.00617
 Alpha virt. eigenvalues --    4.01456   4.02603   4.03702   4.04898   4.05341
 Alpha virt. eigenvalues --    4.05632   4.06343   4.07442   4.07993   4.08772
 Alpha virt. eigenvalues --    4.10704   4.11246   4.12462   4.12705   4.14427
 Alpha virt. eigenvalues --    4.15353   4.16171   4.17034   4.17476   4.18680
 Alpha virt. eigenvalues --    4.19407   4.19889   4.21166   4.21788   4.22934
 Alpha virt. eigenvalues --    4.23665   4.24908   4.25190   4.25921   4.26542
 Alpha virt. eigenvalues --    4.27649   4.28039   4.28950   4.29166   4.31061
 Alpha virt. eigenvalues --    4.32173   4.32587   4.33771   4.36987   4.38031
 Alpha virt. eigenvalues --    4.39093   4.40583   4.42129   4.42958   4.44156
 Alpha virt. eigenvalues --    4.45342   4.48062   4.48475   4.49433   4.51964
 Alpha virt. eigenvalues --    4.53235   4.55434   4.56701   4.57316   4.58393
 Alpha virt. eigenvalues --    4.59496   4.60335   4.60853   4.61589   4.62898
 Alpha virt. eigenvalues --    4.64050   4.65549   4.66431   4.67551   4.68349
 Alpha virt. eigenvalues --    4.68856   4.69621   4.70521   4.71062   4.72947
 Alpha virt. eigenvalues --    4.73647   4.75540   4.75993   4.78176   4.79949
 Alpha virt. eigenvalues --    4.81276   4.82444   4.84784   4.85378   4.85993
 Alpha virt. eigenvalues --    4.87036   4.87768   4.89913   4.91109   4.91609
 Alpha virt. eigenvalues --    4.92423   4.93516   4.94434   4.95762   4.97018
 Alpha virt. eigenvalues --    4.97886   4.99711   5.00660   5.01113   5.02927
 Alpha virt. eigenvalues --    5.04209   5.04675   5.05549   5.07285   5.07913
 Alpha virt. eigenvalues --    5.09793   5.11784   5.12896   5.14048   5.14785
 Alpha virt. eigenvalues --    5.14970   5.15949   5.17368   5.17831   5.19303
 Alpha virt. eigenvalues --    5.20088   5.21840   5.24393   5.26091   5.28747
 Alpha virt. eigenvalues --    5.29746   5.33085   5.35119   5.35911   5.38540
 Alpha virt. eigenvalues --    5.41549   5.43595   5.44916   5.47247   5.48812
 Alpha virt. eigenvalues --    5.51323   5.52384   5.52552   5.54616   5.55543
 Alpha virt. eigenvalues --    5.57098   5.58097   5.59665   5.60855   5.62930
 Alpha virt. eigenvalues --    5.63740   5.64744   5.66432   5.67098   5.68006
 Alpha virt. eigenvalues --    5.68819   5.70127   5.72526   5.73502   5.75271
 Alpha virt. eigenvalues --    5.76035   5.77924   5.78795   5.80704   5.80992
 Alpha virt. eigenvalues --    5.84281   5.87240   5.90304   5.91471   5.97477
 Alpha virt. eigenvalues --    5.98125   5.99781   6.04255   6.08014   6.10802
 Alpha virt. eigenvalues --    6.17641   6.18600   6.19684   6.23437   6.26649
 Alpha virt. eigenvalues --    6.46620   6.47006   6.52246   6.53006   6.56846
 Alpha virt. eigenvalues --    6.61156   6.62488   6.63737   6.64516   6.66918
 Alpha virt. eigenvalues --    6.79321   6.80532   6.80756   6.88671   6.89492
 Alpha virt. eigenvalues --    6.91696   6.92022   6.93069   6.96064   7.07106
 Alpha virt. eigenvalues --    7.17795   7.19648   7.22904   7.28680   7.29833
 Alpha virt. eigenvalues --    7.67797   8.01200   8.11448   8.13090   8.14097
 Alpha virt. eigenvalues --    8.19230   8.27847   8.29936   8.37112   8.68068
 Alpha virt. eigenvalues --    8.74188   8.76005   8.77789   8.79858   8.82229
 Alpha virt. eigenvalues --    8.83789   8.84085   8.85315   8.87820   8.88937
 Alpha virt. eigenvalues --    8.93386   8.95577   8.97534   8.99600   9.05557
 Alpha virt. eigenvalues --    9.08912   9.15693   9.21095   9.21501   9.31726
 Alpha virt. eigenvalues --    9.36247   9.40699   9.41626   9.45966   9.48480
 Alpha virt. eigenvalues --    9.59056   9.63005   9.79072   9.82057  10.02586
 Alpha virt. eigenvalues --   10.08469  10.09970  10.12863  10.13660  10.17956
[...]
 Alpha virt. eigenvalues --    6.58158   6.61783   6.62545   6.65272   6.68023
 Alpha virt. eigenvalues --    6.78816   6.81042   6.86234   6.86332   6.88670
 Alpha virt. eigenvalues --    6.91529   6.97012   7.08789   7.09633   7.12598
 Alpha virt. eigenvalues --    7.15781   7.17525   7.29282   7.44040   8.84396
 Alpha virt. eigenvalues --    9.55423   9.90151  11.89836  12.14797  12.32689
 Alpha virt. eigenvalues --   12.44224  12.73153  12.85720  12.92641  13.25784
 Alpha virt. eigenvalues --   13.46328  13.54954  13.65949  13.72767  13.97099
 Alpha virt. eigenvalues --   15.60654
          Condensed to atoms (all electrons):
               1          2          3          4          5          6
     1  C    5.482360   0.178417   0.008638  -0.036101  -0.017964   0.295739
     2  C    0.178417   5.575837   0.201273   0.002514  -0.046950   0.040202
     3  C    0.008638   0.201273   5.383938   0.352064  -0.036875  -0.072113
     4  C   -0.036101   0.002514   0.352064   5.080985   0.453762  -0.025096
     5  C   -0.017964  -0.046950  -0.036875   0.453762   5.029047   0.389298
     6  C    0.295739   0.040202  -0.072113  -0.025096   0.389298   4.856183
     7  H    0.449741  -0.039461   0.009329  -0.000658   0.004274  -0.071040
     8  H   -0.018192   0.432371  -0.083656   0.003556  -0.000812   0.005906
     9  H   -0.003909   0.010969  -0.087378   0.455425  -0.036626   0.011693
    10  H    0.014284  -0.005950   0.014386  -0.055790   0.452746  -0.080507
    11  C    0.006307  -0.028593   0.197715  -0.046962   0.004304  -0.001241
    12  H    0.000483  -0.008429  -0.068865   0.005149  -0.000068  -0.000024
    13  H   -0.000423   0.007646  -0.036303  -0.010083   0.000166   0.000049
    14  C    0.001154  -0.024046  -0.007233  -0.006250   0.000831  -0.000104
    15  H   -0.000043   0.001546  -0.005947   0.000896  -0.000112   0.000018
    16  C    0.000719  -0.000290   0.029927  -0.001305   0.001065  -0.000804
    17  O   -0.090180   0.013946  -0.000588   0.002751  -0.049066   0.393720
    18  H   -0.005501   0.004871  -0.000447  -0.000656   0.002166  -0.043215
    19  O    0.000666  -0.005434  -0.005168   0.001661   0.001099  -0.000332
    20  N   -0.000045   0.000762   0.001437   0.000444  -0.000007   0.000002
    21  H   -0.000007   0.000206   0.000297  -0.000086   0.000001  -0.000001
    22  N    0.000485   0.016514  -0.023316   0.000413  -0.000228   0.000429
    23  H    0.000203   0.002318  -0.004456  -0.000140  -0.000025   0.000025
    24  C   -0.000001  -0.000130   0.000008   0.000025   0.000001   0.000000
    25  C    0.000000   0.000004   0.000024  -0.000001   0.000000   0.000000
    26  H    0.000000   0.000000  -0.000004   0.000000   0.000000   0.000000
    27  H    0.000000  -0.000001   0.000005   0.000000   0.000000   0.000000
    28  H    0.000000  -0.000004  -0.000010   0.000001   0.000000   0.000000
    29  C   -0.002351  -0.002291   0.001235   0.000155   0.000010   0.000091
    30  H    0.000201   0.000145   0.000581  -0.000200   0.000005   0.000308
    31  H    0.000096  -0.000533   0.000242   0.000006   0.000004  -0.000019
    32  H    0.000074   0.000451  -0.000071  -0.000047  -0.000009  -0.000008
    33  O    0.000000   0.000009   0.000071  -0.000011   0.000000   0.000000
               7          8          9         10         11         12
     1  C    0.449741  -0.018192  -0.003909   0.014284   0.006307   0.000483
     2  C   -0.039461   0.432371   0.010969  -0.005950  -0.028593  -0.008429
     3  C    0.009329  -0.083656  -0.087378   0.014386   0.197715  -0.068865
     4  C   -0.000658   0.003556   0.455425  -0.055790  -0.046962   0.005149
     5  C    0.004274  -0.000812  -0.036626   0.452746   0.004304  -0.000068
     6  C   -0.071040   0.005906   0.011693  -0.080507  -0.001241  -0.000024
     7  H    0.524652  -0.006520   0.000039  -0.000229  -0.000344  -0.000052
     8  H   -0.006520   0.480871  -0.000246   0.000061   0.005106   0.000781
     9  H    0.000039  -0.000246   0.509857  -0.009564   0.001627   0.000132
    10  H   -0.000229   0.000061  -0.009564   0.546362  -0.000185   0.000019
    11  C   -0.000344   0.005106   0.001627  -0.000185   5.386017   0.451652
    12  H   -0.000052   0.000781   0.000132   0.000019   0.451652   0.474556
    13  H    0.000015   0.000514   0.000864  -0.000020   0.437720  -0.006553
    14  C    0.000012  -0.000901  -0.001769   0.000006   0.153200  -0.058857
    15  H   -0.000002  -0.000008   0.000592  -0.000007  -0.006389   0.002667
    16  C    0.000152   0.000118  -0.000122   0.000049  -0.062424   0.003137
    17  O   -0.004062  -0.000128  -0.000130   0.006272   0.000002   0.000000
    18  H    0.004553  -0.000010   0.000045  -0.000965  -0.000007   0.000000
    19  O    0.000028  -0.000249   0.000486   0.000069  -0.001368  -0.000092
    20  N   -0.000001  -0.000549   0.000037   0.000000  -0.027147  -0.006637
    21  H    0.000000   0.000248  -0.000003   0.000000   0.000950   0.008059
    22  N   -0.000243   0.002738   0.000065  -0.000005   0.010920  -0.003390
    23  H   -0.000039   0.001225  -0.000006   0.000000   0.006508   0.001245
    24  C    0.000000  -0.000071  -0.000002   0.000000   0.008325   0.000249
    25  C    0.000000  -0.000002   0.000000   0.000000  -0.000246  -0.000172
    26  H    0.000000   0.000000   0.000000   0.000000  -0.000016   0.000021
    27  H    0.000000   0.000000   0.000000   0.000000   0.000007  -0.000012
    28  H    0.000000  -0.000002   0.000000   0.000000  -0.000227  -0.000035
    29  C    0.000098   0.000366  -0.000007   0.000001  -0.001599  -0.000005
    30  H    0.000444  -0.001103   0.000000   0.000006  -0.000247   0.000032
    31  H    0.000019   0.000154   0.000000   0.000000  -0.000084   0.000025
    32  H   -0.000014   0.000126  -0.000001   0.000000  -0.000008  -0.000012
    33  O    0.000000   0.000004  -0.000002   0.000000   0.001312  -0.000019
              13         14         15         16         17         18
     1  C   -0.000423   0.001154  -0.000043   0.000719  -0.090180  -0.005501
     2  C    0.007646  -0.024046   0.001546  -0.000290   0.013946   0.004871
     3  C   -0.036303  -0.007233  -0.005947   0.029927  -0.000588  -0.000447
     4  C   -0.010083  -0.006250   0.000896  -0.001305   0.002751  -0.000656
     5  C    0.000166   0.000831  -0.000112   0.001065  -0.049066   0.002166
     6  C    0.000049  -0.000104   0.000018  -0.000804   0.393720  -0.043215
     7  H    0.000015   0.000012  -0.000002   0.000152  -0.004062   0.004553
     8  H    0.000514  -0.000901  -0.000008   0.000118  -0.000128  -0.000010
     9  H    0.000864  -0.001769   0.000592  -0.000122  -0.000130   0.000045
    10  H   -0.000020   0.000006  -0.000007   0.000049   0.006272  -0.000965
    11  C    0.437720   0.153200  -0.006389  -0.062424   0.000002  -0.000007
    12  H   -0.006553  -0.058857   0.002667   0.003137   0.000000   0.000000
    13  H    0.473958  -0.059378  -0.005153   0.007061  -0.000001   0.000000
    14  C   -0.059378   5.553586   0.432792   0.167870  -0.000001   0.000000
    15  H   -0.005153   0.432792   0.452312  -0.075869   0.000000   0.000000
    16  C    0.007061   0.167870  -0.075869   4.849579   0.000001  -0.000001
    17  O   -0.000001  -0.000001   0.000000   0.000001   7.661259   0.359097
    18  H    0.000000   0.000000   0.000000  -0.000001   0.359097   0.492766
    19  O   -0.000626  -0.063301   0.007101   0.727241   0.000000   0.000000
    20  N    0.000469   0.128906  -0.032818  -0.038753   0.000000   0.000000
    21  H    0.001950  -0.032632   0.001356   0.003566   0.000000   0.000000
    22  N   -0.000252  -0.092040   0.008455   0.225536   0.000000   0.000000
    23  H    0.000073  -0.003735   0.001055  -0.036317   0.000000   0.000000
    24  C   -0.000801  -0.084379  -0.002408   0.000368   0.000000   0.000000
    25  C   -0.000025   0.012076   0.001569  -0.003065   0.000000   0.000000
    26  H   -0.000004  -0.000265   0.000116  -0.000168   0.000000   0.000000
    27  H    0.000000  -0.000591  -0.000175   0.000636   0.000000   0.000000
    28  H    0.000000   0.000266  -0.000227   0.000072   0.000000   0.000000
    29  C    0.000039   0.010305  -0.000652  -0.048236   0.000002  -0.000001
    30  H   -0.000019  -0.001364  -0.000207   0.008673  -0.000034  -0.000004
    31  H    0.000000   0.000517  -0.000004   0.010024   0.000000   0.000000
    32  H    0.000008   0.001668   0.000078  -0.011021   0.000000   0.000000
    33  O    0.000002   0.018874   0.012461  -0.000350   0.000000   0.000000
              19         20         21         22         23         24
     1  C    0.000666  -0.000045  -0.000007   0.000485   0.000203  -0.000001
     2  C   -0.005434   0.000762   0.000206   0.016514   0.002318  -0.000130
     3  C   -0.005168   0.001437   0.000297  -0.023316  -0.004456   0.000008
     4  C    0.001661   0.000444  -0.000086   0.000413  -0.000140   0.000025
     5  C    0.001099  -0.000007   0.000001  -0.000228  -0.000025   0.000001
     6  C   -0.000332   0.000002  -0.000001   0.000429   0.000025   0.000000
     7  H    0.000028  -0.000001   0.000000  -0.000243  -0.000039   0.000000
     8  H   -0.000249  -0.000549   0.000248   0.002738   0.001225  -0.000071
     9  H    0.000486   0.000037  -0.000003   0.000065  -0.000006  -0.000002
    10  H    0.000069   0.000000   0.000000  -0.000005   0.000000   0.000000
    11  C   -0.001368  -0.027147   0.000950   0.010920   0.006508   0.008325
    12  H   -0.000092  -0.006637   0.008059  -0.003390   0.001245   0.000249
    13  H   -0.000626   0.000469   0.001950  -0.000252   0.000073  -0.000801
    14  C   -0.063301   0.128906  -0.032632  -0.092040  -0.003735  -0.084379
    15  H    0.007101  -0.032818   0.001356   0.008455   0.001055  -0.002408
    16  C    0.727241  -0.038753   0.003566   0.225536  -0.036317   0.000368
    17  O    0.000000   0.000000   0.000000   0.000000   0.000000   0.000000
    18  H    0.000000   0.000000   0.000000   0.000000   0.000000   0.000000
    19  O    7.807161   0.005156  -0.000307  -0.126082   0.005615  -0.001279
    20  N    0.005156   6.689426   0.361252   0.003623   0.026888   0.322451
    21  H   -0.000307   0.361252   0.513985  -0.001327  -0.000267  -0.017640
    22  N   -0.126082   0.003623  -0.001327   6.559616   0.384307   0.012870
    23  H    0.005615   0.026888  -0.000267   0.384307   0.529788  -0.004482
    24  C   -0.001279   0.322451  -0.017640   0.012870  -0.004482   4.599007
    25  C   -0.000011  -0.067417  -0.000598  -0.000213   0.000530   0.270329
    26  H    0.000001  -0.000165  -0.000411   0.000008   0.000110  -0.025856
    27  H   -0.000005  -0.000919   0.000350   0.000272  -0.000475  -0.023402
    28  H    0.000001   0.013722  -0.000773   0.000082   0.000057  -0.057794
    29  C    0.007236  -0.001891   0.000102   0.281609  -0.035349  -0.000051
    30  H    0.003701  -0.000060  -0.000005  -0.065614  -0.000421   0.000201
    31  H    0.001468  -0.000149   0.000034  -0.030255  -0.008483  -0.000078
    32  H    0.007183  -0.000287   0.000018  -0.035936   0.003997  -0.000401
    33  O   -0.000811  -0.138712   0.004863  -0.004638  -0.002138   0.724954
              25         26         27         28         29         30
     1  C    0.000000   0.000000   0.000000   0.000000  -0.002351   0.000201
     2  C    0.000004   0.000000  -0.000001  -0.000004  -0.002291   0.000145
     3  C    0.000024  -0.000004   0.000005  -0.000010   0.001235   0.000581
     4  C   -0.000001   0.000000   0.000000   0.000001   0.000155  -0.000200
     5  C    0.000000   0.000000   0.000000   0.000000   0.000010   0.000005
     6  C    0.000000   0.000000   0.000000   0.000000   0.000091   0.000308
     7  H    0.000000   0.000000   0.000000   0.000000   0.000098   0.000444
     8  H   -0.000002   0.000000   0.000000  -0.000002   0.000366  -0.001103
     9  H    0.000000   0.000000   0.000000   0.000000  -0.000007   0.000000
    10  H    0.000000   0.000000   0.000000   0.000000   0.000001   0.000006
    11  C   -0.000246  -0.000016   0.000007  -0.000227  -0.001599  -0.000247
    12  H   -0.000172   0.000021  -0.000012  -0.000035  -0.000005   0.000032
    13  H   -0.000025  -0.000004   0.000000   0.000000   0.000039  -0.000019
    14  C    0.012076  -0.000265  -0.000591   0.000266   0.010305  -0.001364
    15  H    0.001569   0.000116  -0.000175  -0.000227  -0.000652  -0.000207
    16  C   -0.003065  -0.000168   0.000636   0.000072  -0.048236   0.008673
    17  O    0.000000   0.000000   0.000000   0.000000   0.000002  -0.000034
    18  H    0.000000   0.000000   0.000000   0.000000  -0.000001  -0.000004
    19  O   -0.000011   0.000001  -0.000005   0.000001   0.007236   0.003701
    20  N   -0.067417  -0.000165  -0.000919   0.013722  -0.001891  -0.000060
    21  H   -0.000598  -0.000411   0.000350  -0.000773   0.000102  -0.000005
    22  N   -0.000213   0.000008   0.000272   0.000082   0.281609  -0.065614
    23  H    0.000530   0.000110  -0.000475   0.000057  -0.035349  -0.000421
    24  C    0.270329  -0.025856  -0.023402  -0.057794  -0.000051   0.000201
    25  C    5.004679   0.389878   0.383202   0.394849  -0.000048  -0.000001
    26  H    0.389878   0.560429  -0.022461  -0.025106  -0.000002   0.000000
    27  H    0.383202  -0.022461   0.569551  -0.027518   0.000021   0.000003
    28  H    0.394849  -0.025106  -0.027518   0.602078   0.000000   0.000000
    29  C   -0.000048  -0.000002   0.000021   0.000000   4.813430   0.388469
    30  H   -0.000001   0.000000   0.000003   0.000000   0.388469   0.626306
    31  H   -0.000009   0.000000   0.000008   0.000001   0.392527  -0.032820
    32  H   -0.000010  -0.000001   0.000000  -0.000001   0.406617  -0.049908
    33  O   -0.068169   0.001295   0.001694   0.004522   0.000159   0.000005
              31         32         33
     1  C    0.000096   0.000074   0.000000
     2  C   -0.000533   0.000451   0.000009
     3  C    0.000242  -0.000071   0.000071
     4  C    0.000006  -0.000047  -0.000011
     5  C    0.000004  -0.000009   0.000000
     6  C   -0.000019  -0.000008   0.000000
     7  H    0.000019  -0.000014   0.000000
     8  H    0.000154   0.000126   0.000004
     9  H    0.000000  -0.000001  -0.000002
    10  H    0.000000   0.000000   0.000000
    11  C   -0.000084  -0.000008   0.001312
    12  H    0.000025  -0.000012  -0.000019
    13  H    0.000000   0.000008   0.000002
    14  C    0.000517   0.001668   0.018874
    15  H   -0.000004   0.000078   0.012461
    16  C    0.010024  -0.011021  -0.000350
    17  O    0.000000   0.000000   0.000000
    18  H    0.000000   0.000000   0.000000
    19  O    0.001468   0.007183  -0.000811
    20  N   -0.000149  -0.000287  -0.138712
    21  H    0.000034   0.000018   0.004863
    22  N   -0.030255  -0.035936  -0.004638
    23  H   -0.008483   0.003997  -0.002138
    24  C   -0.000078  -0.000401   0.724954
    25  C   -0.000009  -0.000010  -0.068169
    26  H    0.000000  -0.000001   0.001295
    27  H    0.000008   0.000000   0.001694
    28  H    0.000001  -0.000001   0.004522
    29  C    0.392527   0.406617   0.000159
    30  H   -0.032820  -0.049908   0.000005
    31  H    0.601181  -0.023481   0.000005
    32  H   -0.023481   0.567761   0.000247
    33  O    0.000005   0.000247   7.822307
 Mulliken charges:
               1
     1  C   -0.264849
     2  C   -0.327888
     3  C    0.231261
     4  C   -0.176423
     5  C   -0.150038
     6  C    0.300842
     7  H    0.129310
     8  H    0.178305
     9  H    0.147937
    10  H    0.118962
    11  C   -0.494583
    12  H    0.205016
    13  H    0.189106
    14  C   -0.045217
    15  H    0.207008
    16  C    0.242930
    17  O   -0.292859
    18  H    0.187308
    19  O   -0.370807
    20  N   -0.239018
    21  H    0.156821
    22  N   -0.124401
    23  H    0.132389
    24  C    0.279988
    25  C   -0.317155
    26  H    0.122600
    27  H    0.119813
    28  H    0.096046
    29  C   -0.209987
    30  H    0.122929
    31  H    0.089602
    32  H    0.132988
    33  O   -0.377933
 Sum of Mulliken charges =   0.00000
 Mulliken charges with hydrogens summed into heavy atoms:
               1
     1  C   -0.135540
     2  C   -0.149582
     3  C    0.231261
     4  C   -0.028487
     5  C   -0.031076
     6  C    0.300842
    11  C   -0.100461
    14  C    0.161791
    16  C    0.242930
    17  O   -0.105551
    19  O   -0.370807
    20  N   -0.082196
    22  N    0.007988
    24  C    0.279988
    25  C    0.021304
    29  C    0.135531
    33  O   -0.377933
 Electronic spatial extent (au):  <R**2>=           4763.0232
 Charge=              0.0000 electrons
 Dipole moment (field-independent basis, Debye):
    X=             -0.2873    Y=             -0.5565    Z=             -7.1008  Tot=              7.1284
 Quadrupole moment (field-independent basis, Debye-Ang):
   XX=            -97.0386   YY=            -91.6958   ZZ=           -103.2999
   XY=              9.4438   XZ=              8.7139   YZ=             -7.8950
 Traceless Quadrupole moment (field-independent basis, Debye-Ang):
   XX=              0.3062   YY=              5.6490   ZZ=             -5.9551
   XY=              9.4438   XZ=              8.7139   YZ=             -7.8950
 Octapole moment (field-independent basis, Debye-Ang**2):
  XXX=            -12.1884  YYY=             23.4967  ZZZ=            -12.6622  XYY=             -2.5392
  XXY=             17.1345  XXZ=            -67.3425  XZZ=              9.3779  YZZ=             -2.6708
  YYZ=              1.7005  XYZ=            -13.9237
 Hexadecapole moment (field-independent basis, Debye-Ang**3):
 XXXX=          -4517.0948 YYYY=           -901.0998 ZZZZ=           -556.6152 XXXY=            237.3409
 XXXZ=              9.3427 YYYX=             26.7170 YYYZ=            -12.4591 ZZZX=             26.7788
 ZZZY=            -17.1720 XXYY=           -886.2501 XXZZ=           -874.5187 YYZZ=           -236.7100
 XXYZ=            -76.7133 YYXZ=              2.4662 ZZXY=             15.0774
 N-N= 1.235459222391D+03 E-N=-4.341456254212D+03  KE= 7.961809124218D+02
 Calculating spin-rotation constants.
 Leave Link  601 at Wed Jun 25 07:01:46 2014, MaxMem=  4294967296 cpu:        93.8
 (Enter /home/ztw1e12/g09/l9999.exe)

 Test job not archived.
 1\1\GINC-GREEN0194\SP\RM06\Gen\C12H16N2O3\ROOT\25-Jun-2014\0\\#P Geom=
 AllCheck Guess=TCheck SCRF=Check GenChk RM06/ChkBas NMR=ReadFC IOp(3/6
 =22)\\NMR spin-spin scan\\0,1\C,0,2.443312,-0.612442,1.879921\C,0,1.84
 8691,-0.06367,0.756576\C,0,1.305487,-0.867878,-0.236415\C,0,1.386698,-
 2.247605,-0.079679\C,0,1.97906,-2.812655,1.033111\C,0,2.505638,-1.9907
 22,2.019642\H,0,2.868702,0.021283,2.64987\H,0,1.806342,1.014862,0.6508
 22\H,0,0.967964,-2.890982,-0.846032\H,0,2.041567,-3.886939,1.151091\C,
 0,0.601728,-0.272843,-1.417595\H,0,1.03613,0.713627,-1.605692\H,0,0.77
 3856,-0.873058,-2.31111\C,0,-0.924596,-0.081777,-1.246614\H,0,-1.45654
 5,-0.919784,-1.70281\C,0,-1.313548,-0.121762,0.224195\O,0,3.080903,-2.
 586975,3.100981\H,0,3.406923,-1.911017,3.706042\O,0,-1.629684,-1.18487
 6,0.753942\N,0,-1.328918,1.155314,-1.878949\H,0,-0.622496,1.758587,-2.
 271839\N,0,-1.237106,1.028621,0.896617\H,0,-0.898694,1.843361,0.409052
 \C,0,-2.627368,1.476479,-2.034552\C,0,-2.920167,2.752361,-2.751104\H,0
 ,-3.512636,2.526405,-3.637612\H,0,-3.528861,3.384473,-2.104985\H,0,-2.
 026122,3.29684,-3.047588\C,0,-1.379493,1.071696,2.332852\H,0,-0.598439
 ,0.486124,2.824595\H,0,-1.307025,2.102868,2.665704\H,0,-2.347283,0.674
 906,2.638248\O,0,-3.523177,0.75471,-1.601817\\Version=EM64L-G09RevD.01
 \State=1-A\HF=-801.8549701\RMSD=4.888e-09\Dipole=1.6898876,2.2035776,-
 0.392266\Quadrupole=-12.8546083,3.7001542,9.1544541,-1.9608177,2.93647
 89,0.7302606\PG=C01 [X(C12H16N2O3)]\\@


 MOST BUREAUCRACIES FUNCTION LIKE A SEPTIC TANK.
 THE LARGE CHUNKS RISE TO THE TOP.
 Job cpu time:       3 days 12 hours 41 minutes 47.8 seconds.
 File lengths (MBytes):  RWF=   3656 Int=      0 D2E=      0 Chk=     64 Scr=      8
 Normal termination of Gaussian 09 at Wed Jun 25 07:01:47 2014.
