 Entering Gaussian System, Link 0=g09
 Input=scan_input_10.gjf
 Output=scan_input_10.log
 Initial command:
 /home/ztw1e12/g09/l1.exe "/home/ztw1e12/tyrosine_scan/tyrosine_chi1_scan/Gau-10366.inp" -scrdir="/home/ztw1e12/tyrosine_scan/tyrosine_chi1_scan/"
 Default is to use a total of   8 processors:
                                8 via shared-memory
                                1 via Linda
 Entering Link 1 = /home/ztw1e12/g09/l1.exe PID=     10367.
  
 Copyright (c) 1988,1990,1992,1993,1995,1998,2003,2009,2013,
            Gaussian, Inc.  All Rights Reserved.
  
 This is part of the Gaussian(R) 09 program.  It is based on
 the Gaussian(R) 03 system (copyright 2003, Gaussian, Inc.),
 the Gaussian(R) 98 system (copyright 1998, Gaussian, Inc.),
 the Gaussian(R) 94 system (copyright 1995, Gaussian, Inc.),
 the Gaussian 92(TM) system (copyright 1992, Gaussian, Inc.),
 the Gaussian 90(TM) system (copyright 1990, Gaussian, Inc.),
 the Gaussian 88(TM) system (copyright 1988, Gaussian, Inc.),
 the Gaussian 86(TM) system (copyright 1986, Carnegie Mellon
 University), and the Gaussian 82(TM) system (copyright 1983,
 Carnegie Mellon University). Gaussian is a federally registered
 trademark of Gaussian, Inc.
  
 This software contains proprietary and confidential information,
 including trade secrets, belonging to Gaussian, Inc.
  
 This software is provided under written license and may be
 used, copied, transmitted, or stored only in accord with that
 written license.
  
 The following legend is applicable only to US Government
 contracts under FAR:
  
                    RESTRICTED RIGHTS LEGEND
  
 Use, reproduction and disclosure by the US Government is
 subject to restrictions as set forth in subparagraphs (a)
 and (c) of the Commercial Computer Software - Restricted
 Rights clause in FAR 52.227-19.
  
 Gaussian, Inc.
 340 Quinnipiac St., Bldg. 40, Wallingford CT 06492
  
  
 ---------------------------------------------------------------
 Warning -- This program may not be used in any manner that
 competes with the business of Gaussian, Inc. or will provide
 assistance to any competitor of Gaussian, Inc.  The licensee
 of this program is prohibited from giving any competitor of
 Gaussian, Inc. access to this program.  By using this program,
 the user acknowledges that Gaussian, Inc. is engaged in the
 business of creating and licensing software in the field of
 computational chemistry and represents and warrants to the
 licensee that it is not a competitor of Gaussian, Inc. and that
 it will not use this program in any manner prohibited above.
 ---------------------------------------------------------------
  

 Cite this work as:
 Gaussian 09, Revision D.01,
 M. J. Frisch, G. W. Trucks, H. B. Schlegel, G. E. Scuseria, 
 M. A. Robb, J. R. Cheeseman, G. Scalmani, V. Barone, B. Mennucci, 
 G. A. Petersson, H. Nakatsuji, M. Caricato, X. Li, H. P. Hratchian, 
 A. F. Izmaylov, J. Bloino, G. Zheng, J. L. Sonnenberg, M. Hada, 
 M. Ehara, K. Toyota, R. Fukuda, J. Hasegawa, M. Ishida, T. Nakajima, 
 Y. Honda, O. Kitao, H. Nakai, T. Vreven, J. A. Montgomery, Jr., 
 J. E. Peralta, F. Ogliaro, M. Bearpark, J. J. Heyd, E. Brothers, 
 K. N. Kudin, V. N. Staroverov, T. Keith, R. Kobayashi, J. Normand, 
 K. Raghavachari, A. Rendell, J. C. Burant, S. S. Iyengar, J. Tomasi, 
 M. Cossi, N. Rega, J. M. Millam, M. Klene, J. E. Knox, J. B. Cross, 
 V. Bakken, C. Adamo, J. Jaramillo, R. Gomperts, R. E. Stratmann, 
 O. Yazyev, A. J. Austin, R. Cammi, C. Pomelli, J. W. Ochterski, 
 R. L. Martin, K. Morokuma, V. G. Zakrzewski, G. A. Voth, 
 P. Salvador, J. J. Dannenberg, S. Dapprich, A. D. Daniels, 
 O. Farkas, J. B. Foresman, J. V. Ortiz, J. Cioslowski, 
 and D. J. Fox, Gaussian, Inc., Wallingford CT, 2013.
 
 ******************************************
 Gaussian 09:  EM64L-G09RevD.01 24-Apr-2013
                24-Jun-2014 
 ******************************************
 %Mem=32GB
 %NProcShared=16
 Will use up to   16 processors via shared memory.
 Default route:  MaxDisk=100GB
 ----------------------------------------------------------------------
 #p nmr=(giao,mixed,spinspin) m06/cc-pvtz scf=tight integral=(grid=ultr
 afine)
 ----------------------------------------------------------------------
 1/38=1/1;
 2/12=2,17=6,18=5,40=1/2;
 3/5=16,6=1,10=1100000,11=2,16=1,25=1,30=1,74=-54,75=-5/1,2,8,3;
 4//1;
 5/5=2,32=2,38=5/2;
 8/6=1,10=90,11=11/1;
 10/13=100,45=16,47=3/2;
 6/7=2,8=2,9=2,10=2,28=1/1;
 99/9=1/99;
 Leave Link    1 at Tue Jun 24 18:24:33 2014, MaxMem=  4294967296 cpu:         5.0
 (Enter /home/ztw1e12/g09/l101.exe)
 ------------------
 NMR spin-spin scan
 ------------------
 Symbolic Z-matrix:
 Charge =  0 Multiplicity = 1
 C                     3.37699   0.08142  -0.15525 
 C                     2.25744  -0.24441  -0.90245 
 C                     1.22392  -1.00838  -0.3718 
 C                     1.34796  -1.44028   0.94715 
 C                     2.45883  -1.12544   1.70544 
 C                     3.47728  -0.36087   1.15388 
 H                     4.17718   0.67419  -0.58332 
 H                     2.18794   0.09905  -1.929 
 H                     0.55982  -2.04089   1.38414 
 H                     2.55346  -1.47011   2.72745 
 C                     0.01445  -1.33134  -1.20284 
 H                     0.27656  -1.20599  -2.25526 
 H                    -0.28108  -2.37161  -1.06791 
 C                    -1.21387  -0.46223  -0.9345 
 H                    -1.8738   -0.51876  -1.8052 
 C                    -2.05539  -0.97142   0.24112 
 O                     4.55414  -0.0796    1.93894 
 H                     5.19122   0.44038   1.43608 
 O                    -1.83292  -2.04305   0.79839 
 N                    -0.82899   0.93024  -0.78065 
 H                     0.10679   1.11633  -0.44843 
 N                    -3.08289  -0.18798   0.58204 
 H                    -3.27287   0.6292    0.01662 
 C                    -1.58673   1.97165  -1.16118 
 C                    -0.95381   3.3197   -1.06845 
 H                    -0.94495   3.76649  -2.06269 
 H                    -1.56909   3.95465  -0.43165 
 H                     0.06157   3.29134  -0.67954 
 C                    -3.99637  -0.55849   1.63796 
 H                    -3.46534  -0.70925   2.57773 
 H                    -4.71928   0.24042   1.77242 
 H                    -4.53219  -1.47868   1.39914 
 O                    -2.74516   1.83124  -1.55951 
 
 NAtoms=     33 NQM=       33 NQMF=       0 NMMI=      0 NMMIF=      0
                NMic=       0 NMicF=      0.
                    Isotopes and Nuclear Properties:
 (Nuclear quadrupole moments (NQMom) in fm**2, nuclear magnetic moments (NMagM)
  in nuclear magnetons)

  Atom         1           2           3           4           5           6           7           8           9          10
 IAtWgt=          12          12          12          12          12          12           1           1           1           1
 AtmWgt=  12.0000000  12.0000000  12.0000000  12.0000000  12.0000000  12.0000000   1.0078250   1.0078250   1.0078250   1.0078250
 NucSpn=           0           0           0           0           0           0           1           1           1           1
 AtZEff=   0.0000000   0.0000000   0.0000000   0.0000000   0.0000000   0.0000000   0.0000000   0.0000000   0.0000000   0.0000000
 NQMom=    0.0000000   0.0000000   0.0000000   0.0000000   0.0000000   0.0000000   0.0000000   0.0000000   0.0000000   0.0000000
 NMagM=    0.0000000   0.0000000   0.0000000   0.0000000   0.0000000   0.0000000   2.7928460   2.7928460   2.7928460   2.7928460
 AtZNuc=   6.0000000   6.0000000   6.0000000   6.0000000   6.0000000   6.0000000   1.0000000   1.0000000   1.0000000   1.0000000

  Atom        11          12          13          14          15          16          17          18          19          20
 IAtWgt=          12           1           1          12           1          12          16           1          16          14
 AtmWgt=  12.0000000   1.0078250   1.0078250  12.0000000   1.0078250  12.0000000  15.9949146   1.0078250  15.9949146  14.0030740
 NucSpn=           0           1           1           0           1           0           0           1           0           2
 AtZEff=   0.0000000   0.0000000   0.0000000   0.0000000   0.0000000   0.0000000   0.0000000   0.0000000   0.0000000   0.0000000
 NQMom=    0.0000000   0.0000000   0.0000000   0.0000000   0.0000000   0.0000000   0.0000000   0.0000000   0.0000000   2.0440000
 NMagM=    0.0000000   2.7928460   2.7928460   0.0000000   2.7928460   0.0000000   0.0000000   2.7928460   0.0000000   0.4037610
 AtZNuc=   6.0000000   1.0000000   1.0000000   6.0000000   1.0000000   6.0000000   8.0000000   1.0000000   8.0000000   7.0000000

  Atom        21          22          23          24          25          26          27          28          29          30
 IAtWgt=           1          14           1          12          12           1           1           1          12           1
 AtmWgt=   1.0078250  14.0030740   1.0078250  12.0000000  12.0000000   1.0078250   1.0078250   1.0078250  12.0000000   1.0078250
 NucSpn=           1           2           1           0           0           1           1           1           0           1
 AtZEff=   0.0000000   0.0000000   0.0000000   0.0000000   0.0000000   0.0000000   0.0000000   0.0000000   0.0000000   0.0000000
 NQMom=    0.0000000   2.0440000   0.0000000   0.0000000   0.0000000   0.0000000   0.0000000   0.0000000   0.0000000   0.0000000
 NMagM=    2.7928460   0.4037610   2.7928460   0.0000000   0.0000000   2.7928460   2.7928460   2.7928460   0.0000000   2.7928460
 AtZNuc=   1.0000000   7.0000000   1.0000000   6.0000000   6.0000000   1.0000000   1.0000000   1.0000000   6.0000000   1.0000000

  Atom        31          32          33
 IAtWgt=           1           1          16
 AtmWgt=   1.0078250   1.0078250  15.9949146
 NucSpn=           1           1           0
 AtZEff=   0.0000000   0.0000000   0.0000000
 NQMom=    0.0000000   0.0000000   0.0000000
 NMagM=    2.7928460   2.7928460   0.0000000
 AtZNuc=   1.0000000   1.0000000   8.0000000
 Leave Link  101 at Tue Jun 24 18:24:34 2014, MaxMem=  4294967296 cpu:         2.2
 (Enter /home/ztw1e12/g09/l202.exe)
                          Input orientation:                          
 ---------------------------------------------------------------------
 Center     Atomic      Atomic             Coordinates (Angstroms)
 Number     Number       Type             X           Y           Z
 ---------------------------------------------------------------------
      1          6           0        3.376994    0.081422   -0.155246
      2          6           0        2.257440   -0.244413   -0.902454
      3          6           0        1.223922   -1.008381   -0.371798
      4          6           0        1.347963   -1.440278    0.947153
      5          6           0        2.458828   -1.125436    1.705441
      6          6           0        3.477284   -0.360871    1.153878
      7          1           0        4.177184    0.674193   -0.583319
      8          1           0        2.187944    0.099051   -1.929001
      9          1           0        0.559820   -2.040889    1.384138
     10          1           0        2.553463   -1.470109    2.727450
     11          6           0        0.014447   -1.331335   -1.202842
     12          1           0        0.276560   -1.205989   -2.255264
     13          1           0       -0.281077   -2.371614   -1.067908
     14          6           0       -1.213868   -0.462230   -0.934498
     15          1           0       -1.873802   -0.518755   -1.805201
     16          6           0       -2.055393   -0.971415    0.241122
     17          8           0        4.554137   -0.079600    1.938942
     18          1           0        5.191220    0.440381    1.436075
     19          8           0       -1.832916   -2.043053    0.798389
     20          7           0       -0.828985    0.930240   -0.780645
     21          1           0        0.106790    1.116328   -0.448432
     22          7           0       -3.082893   -0.187984    0.582037
     23          1           0       -3.272873    0.629202    0.016624
     24          6           0       -1.586725    1.971648   -1.161175
     25          6           0       -0.953813    3.319704   -1.068454
     26          1           0       -0.944946    3.766490   -2.062691
     27          1           0       -1.569090    3.954650   -0.431653
     28          1           0        0.061571    3.291339   -0.679539
     29          6           0       -3.996373   -0.558491    1.637964
     30          1           0       -3.465336   -0.709249    2.577727
     31          1           0       -4.719283    0.240417    1.772416
     32          1           0       -4.532189   -1.478684    1.399143
     33          8           0       -2.745161    1.831243   -1.559508
 ---------------------------------------------------------------------
                    Distance matrix (angstroms):
                    1          2          3          4          5
     1  C    0.000000
     2  C    1.384879   0.000000
     3  C    2.422867   1.390468   0.000000
     4  C    2.765469   2.382916   1.393396   0.000000
     5  C    2.400352   2.760050   2.419425   1.381357   0.000000
     6  C    1.385455   2.393759   2.797248   2.396218   1.387816
     7  H    1.083941   2.151999   3.405518   3.849393   3.380804
     8  H    2.135499   1.084710   2.140240   3.368585   3.844726
     9  H    3.848425   3.367156   2.142525   1.082986   2.132492
    10  H    3.375706   3.842677   3.403852   2.150251   1.082708
    11  C    3.794741   2.510508   1.502586   2.532314   3.804669
    12  H    3.959822   2.584300   2.117543   3.385007   4.522827
    13  H    4.497980   3.316086   2.146624   2.753476   4.092860
    14  C    4.688156   3.478283   2.560807   3.325683   4.571413
    15  H    5.536553   4.237614   3.448227   4.336407   5.609309
    16  C    5.547648   4.520711   3.336307   3.507299   4.748278
    17  O    2.407741   3.657255   4.158423   3.621414   2.353426
    18  H    2.439789   3.813755   4.594210   4.306570   3.160745
    19  O    5.706661   4.781107   3.432804   3.240904   4.481499
    20  N    4.336113   3.304643   2.853040   3.652909   4.606098
    21  H    3.442560   2.585159   2.401717   3.166134   3.898302
    22  N    6.507404   5.543109   4.486815   4.618878   5.731625
    23  H    6.674604   5.673823   4.801428   5.147889   6.227620
    24  C    5.405863   4.444712   4.171741   4.969777   5.846017
    25  C    5.484187   4.800274   4.894914   5.658469   6.252990
    26  H    5.991430   5.262012   5.510218   6.436383   7.050917
    27  H    6.288246   5.700536   5.695277   6.286140   6.826314
    28  H    4.644403   4.168102   4.464679   5.166152   5.562632
    29  C    7.615224   6.757407   5.611865   5.460467   6.480401
    30  H    7.410248   6.714008   5.547821   5.134299   6.002484
    31  H    8.324113   7.487633   6.440406   6.349588   7.307210
    32  H    8.210069   7.274602   6.040714   5.897623   7.006634
    33  O    6.520323   5.455830   5.022722   5.808603   6.817869
                    6          7          8          9         10
     6  C    0.000000
     7  H    2.139876   0.000000
     8  H    3.373139   2.469560   0.000000
     9  H    3.374474   4.932330   4.266969   0.000000
    10  H    2.135412   4.265641   4.927312   2.470807   0.000000
    11  C    4.299671   4.662009   2.701370   2.737401   4.681138
    12  H    4.751958   4.641697   2.337299   3.744668   5.484659
    13  H    4.806735   5.421057   3.597462   2.613239   4.822040
    14  C    5.136000   5.520709   3.588370   3.318766   5.349623
    15  H    6.116796   6.287333   4.110327   4.290838   6.407080
    16  C    5.640603   6.498673   4.884797   3.047884   5.260425
    17  O    1.362003   2.659342   4.537815   4.484309   2.560851
    18  H    1.912908   2.271759   4.523263   5.254452   3.503624
    19  O    5.581607   6.738980   5.309857   2.463390   4.825957
    20  N    4.894211   5.016595   3.333385   3.929717   5.432252
    21  H    4.013695   4.096558   2.749207   3.678528   4.770963
    22  N    6.587322   7.403386   5.845462   4.164851   6.165643
    23  H    6.916517   7.474310   5.821258   4.867136   6.760316
    24  C    6.036912   5.936325   4.283025   5.214089   6.641404
    25  C    6.174141   5.793204   4.580806   6.086234   7.046430
    26  H    6.851098   6.163364   4.825244   6.918858   7.912413
    27  H    6.826677   6.618464   5.587754   6.616332   7.510219
    28  H    5.326082   4.878215   4.034020   5.739309   6.363056
    29  C    7.491925   8.559243   7.169475   4.798002   6.702117
    30  H    7.095681   8.385358   7.274855   4.404520   6.068547
    31  H    8.241835   9.213293   7.837746   5.764030   7.531987
    32  H    8.090817   9.187938   7.663288   5.122973   7.209087
    33  O    7.133488   7.085942   5.241425   5.880592   7.573133
                   11         12         13         14         15
    11  C    0.000000
    12  H    1.091791   0.000000
    13  H    1.089827   1.754838   0.000000
    14  C    1.528434   2.125788   2.129236   0.000000
    15  H    2.142103   2.301935   2.552148   1.093998   0.000000
    16  C    2.549277   3.424175   2.611956   1.532813   2.103643
    17  O    5.660957   6.095718   6.137896   6.455459   7.451836
    18  H    6.074688   6.363207   6.642536   6.889084   7.832008
    19  O    2.814999   3.804650   2.449331   2.425926   3.017257
    20  N    2.450377   2.821384   3.359310   1.452852   2.059355
    21  H    2.562951   2.947307   3.563696   2.114768   2.904662
    22  N    3.753207   4.513595   3.916725   2.422466   2.696334
    23  H    4.017123   4.596507   4.374008   2.517014   2.567927
    24  C    3.670856   3.842686   4.536225   2.472684   2.588299
    25  C    4.752657   4.837792   5.730940   3.793230   4.015339
    26  H    5.258098   5.123935   6.253530   4.384884   4.392311
    27  H    5.571711   5.776173   6.487327   4.459581   4.689439
    28  H    4.652438   4.770229   5.686587   3.972534   4.419231
    29  C    4.975354   5.816737   4.940909   3.790668   4.045031
    30  H    5.175769   6.132401   5.117970   4.179217   4.666833
    31  H    5.807819   6.578202   5.881141   4.484309   4.633837
    32  H    5.240605   6.045918   4.995560   4.182142   4.272740
    33  O    4.212428   4.340467   4.896671   2.827634   2.518357
                   16         17         18         19         20
    16  C    0.000000
    17  O    6.882137   0.000000
    18  H    7.478936   0.963914   0.000000
    19  O    1.228190   6.778676   7.477471   0.000000
    20  N    2.482816   6.115058   6.434025   3.513075   0.000000
    21  H    3.083698   5.187359   5.464403   3.911357   1.010282
    22  N    1.336317   7.757394   8.341773   2.247339   2.861368
    23  H    2.023520   8.090723   8.584367   3.134578   2.588214
    24  C    3.293586   7.178338   7.418290   4.474184   1.342946
    25  C    4.619759   7.137031   7.233574   5.746050   2.409970
    26  H    5.384087   7.813155   7.807490   6.536441   3.114708
    27  H    4.995521   7.706413   7.844762   6.128217   3.133146
    28  H    4.847703   6.197001   6.238356   5.850563   2.525490
    29  C    2.426742   8.569197   9.243937   2.754879   4.254214
    30  H    2.741604   8.069477   8.806871   2.758600   4.573503
    31  H    3.302985   9.280434   9.918225   3.807109   4.704083
    32  H    2.780801   9.209242   9.911047   2.822320   4.926267
    33  O    3.401902   8.316864   8.596171   4.626234   2.256139
                   21         22         23         24         25
    21  H    0.000000
    22  N    3.596828   0.000000
    23  H    3.446112   1.011720   0.000000
    24  C    2.026714   3.152985   2.456108   0.000000
    25  C    2.522731   4.422779   3.714059   1.492123   0.000000
    26  H    3.276483   5.215675   4.425536   2.108570   1.090048
    27  H    3.296199   4.525548   3.763301   2.113010   1.089604
    28  H    2.187722   4.856430   4.323209   2.165742   1.087688
    29  C    4.898368   1.444542   2.136074   4.476962   5.623368
    30  H    5.024983   2.097798   2.896160   4.969484   5.986221
    31  H    5.384270   2.068406   2.307826   4.627746   5.633056
    32  H    5.627410   2.105713   2.817875   5.209201   6.474437
    33  O    3.143122   2.962694   2.051237   1.233027   2.380247
                   26         27         28         29         30
    26  H    0.000000
    27  H    1.756487   0.000000
    28  H    1.775374   1.777775   0.000000
    29  C    6.458445   5.526614   6.054661   0.000000
    30  H    6.922289   5.865498   6.249285   1.089900   0.000000
    31  H    6.433262   5.345761   6.178736   1.085786   1.767137
    32  H    7.236329   6.453905   6.940942   1.091279   1.766144
    33  O    2.690567   2.676576   3.283896   4.183323   4.908102
                   31         32         33
    31  H    0.000000
    32  H    1.769080   0.000000
    33  O    4.186837   4.785677   0.000000
 Stoichiometry    C12H16N2O3
 Framework group  C1[X(C12H16N2O3)]
 Deg. of freedom    93
 Full point group                 C1      NOp   1
 Largest Abelian subgroup         C1      NOp   1
 Largest concise Abelian subgroup C1      NOp   1
                         Standard orientation:                         
 ---------------------------------------------------------------------
 Center     Atomic      Atomic             Coordinates (Angstroms)
 Number     Number       Type             X           Y           Z
 ---------------------------------------------------------------------
      1          6           0       -3.296974    0.938663    0.305849
      2          6           0       -2.129840    0.830648    1.043425
      3          6           0       -1.318456   -0.295685    0.963219
      4          6           0       -1.717090   -1.322623    0.109965
      5          6           0       -2.879144   -1.231337   -0.631279
      6          6           0       -3.672334   -0.096619   -0.534855
      7          1           0       -3.922188    1.820876    0.381582
      8          1           0       -1.844915    1.641626    1.705036
      9          1           0       -1.106222   -2.213462    0.031819
     10          1           0       -3.188038   -2.035615   -1.287007
     11          6           0       -0.049484   -0.375890    1.763869
     12          1           0       -0.115589    0.339303    2.586145
     13          1           0        0.066112   -1.364558    2.207598
     14          6           0        1.231520   -0.062106    0.991420
     15          1           0        2.009274    0.213342    1.709792
     16          6           0        1.787356   -1.279955    0.244825
     17          8           0       -4.810427   -0.054256   -1.281850
     18          1           0       -5.274824    0.773380   -1.113080
     19          8           0        1.324046   -2.408884    0.383809
     20          7           0        1.032710    1.082012    0.118353
     21          1           0        0.092305    1.256115   -0.207214
     22          7           0        2.848132   -1.032729   -0.529369
     23          1           0        3.244164   -0.101794   -0.519555
     24          6           0        1.985206    1.979887   -0.181776
     25          6           0        1.547864    3.172061   -0.965282
     26          1           0        1.766027    4.067359   -0.383001
     27          1           0        2.136593    3.227414   -1.880472
     28          1           0        0.489434    3.156644   -1.215385
     29          6           0        3.513803   -2.088392   -1.256803
     30          1           0        2.820534   -2.597896   -1.925882
     31          1           0        4.313218   -1.655060   -1.850175
     32          1           0        3.942230   -2.831126   -0.581758
     33          8           0        3.160310    1.831459    0.160942
 ---------------------------------------------------------------------
 Rotational constants (GHZ):      0.6892150      0.2848584      0.2354984
 Leave Link  202 at Tue Jun 24 18:24:34 2014, MaxMem=  4294967296 cpu:         2.2
 (Enter /home/ztw1e12/g09/l301.exe)
 Standard basis: CC-pVTZ (5D, 7F)
 Converting basis for Fermi contact spin-spin IFCMod=1.
 AO basis functions are being uncontracted.
 Ernie: Thresh=  0.10000D-02 Tol=  0.10000D-05 Strict=F.
 There are  1305 symmetry adapted cartesian basis functions of A   symmetry.
 There are  1204 symmetry adapted basis functions of A   symmetry.
  1204 basis functions,  1305 primitive gaussians,  1305 cartesian basis functions
    63 alpha electrons       63 beta electrons
       nuclear repulsion energy      1220.8210247770 Hartrees.
 IExCor= 4235 DFT=T Ex+Corr=M06 ExCW=0 ScaHFX=  0.270000
 ScaDFX=  1.000000  1.000000  1.000000  1.000000 ScalE2=  1.000000  1.000000
 IRadAn= 199590 IRanWt=     -1 IRanGd=            0 ICorTp=0 IEmpDi=  4
 NAtoms=   33 NActive=   33 NUniq=   33 SFac= 1.00D+00 NAtFMM=   60 NAOKFM=F Big=F
 Integral buffers will be    131072 words long.
 Raffenetti 2 integral format.
 Two-electron integral symmetry is turned on.
 Leave Link  301 at Tue Jun 24 18:24:34 2014, MaxMem=  4294967296 cpu:         4.7
 (Enter /home/ztw1e12/g09/l302.exe)
 NPDir=0 NMtPBC=     1 NCelOv=     1 NCel=       1 NClECP=     1 NCelD=      1
         NCelK=      1 NCelE2=     1 NClLst=     1 CellRange=     0.0.
 One-electron integrals computed using PRISM.
 GSVD:  received Info=                   1 from GESDD.
 NBasis=  1204 RedAO= T EigKep=  2.47D-05  NBF=  1204
 NBsUse=  1068 1.00D-06 EigRej=  6.15D-15 NBFU=  1068
 Precomputing XC quadrature grid using
 IXCGrd= 4 IRadAn=      199590 IRanWt=          -1 IRanGd=           0 AccXCQ= 0.00D+00.
 Generated NRdTot=       0 NPtTot=           0 NUsed=           0 NTot=          32
 NSgBfM=  1036  1036  1036  1036  1036 MxSgAt=    33 MxSgA2=    33.
 Leave Link  302 at Tue Jun 24 18:24:41 2014, MaxMem=  4294967296 cpu:        93.8
 (Enter /home/ztw1e12/g09/l308.exe)
 Leave Link  308 at Tue Jun 24 18:24:41 2014, MaxMem=  4294967296 cpu:         7.0
 (Enter /home/ztw1e12/g09/l303.exe)
 DipDrv:  MaxL=1.
 Leave Link  303 at Tue Jun 24 18:24:42 2014, MaxMem=  4294967296 cpu:         4.2
 (Enter /home/ztw1e12/g09/l401.exe)
 ExpMin= 1.03D-01 ExpMax= 1.38D+05 ExpMxC= 1.38D+05 IAcc=4 IRadAn=    199590 AccDes= 0.00D+00
 Harris functional with IExCor= 1009 and IRadAn=  199590 diagonalized for initial guess.
 HarFok:  IExCor= 1009 AccDes= 0.00D+00 IRadAn=    199590 IDoV= 1 UseB2=F ITyADJ=14
 ICtDFT=  3500011 ScaDFX=  1.000000  1.000000  1.000000  1.000000
 FoFCou: FMM=F IPFlag=           0 FMFlag=      100000 FMFlg1=           0
         NFxFlg=           0 DoJE=T BraDBF=F KetDBF=T FulRan=T
         wScrn=  0.000000 ICntrl=     500 IOpCl=  0 I1Cent=   200000004 NGrid=           0
         NMat0=    1 NMatS0=      1 NMatT0=    0 NMatD0=    1 NMtDS0=    0 NMtDT0=    0
 Petite list used in FoFCou.
 Harris En= -801.780566748515    
 JPrj=0 DoOrth=F DoCkMO=F.
 Leave Link  401 at Tue Jun 24 18:25:02 2014, MaxMem=  4294967296 cpu:       302.1
 (Enter /home/ztw1e12/g09/l502.exe)
 Closed shell SCF:
 Using DIIS extrapolation, IDIIS=  1040.
 Integral symmetry usage will be decided dynamically.
 IVT=     5158273 IEndB=     5158273 NGot=  4294967296 MDV=  4291529994
 LenX=  4291529994 LenY=  4289825664
 Requested convergence on RMS density matrix=1.00D-08 within 128 cycles.
 Requested convergence on MAX density matrix=1.00D-06.
 Requested convergence on             energy=1.00D-06.
 No special actions if energy rises.
 Fock matrices will be formed incrementally for  20 cycles.
 Integral accuracy reduced to 1.0D-05 until final iterations.

 Cycle   1  Pass 0  IDiag  1:
 FoFJK:  IHMeth= 1 ICntrl=       0 DoSepK=F KAlg= 0 I1Cent=   0 FoldK=F
 IRaf= 430000000 NMat=   1 IRICut=       1 DoRegI=T DoRafI=F ISym2E= 0.
 FoFCou: FMM=F IPFlag=           0 FMFlag=      100000 FMFlg1=           0
         NFxFlg=           0 DoJE=F BraDBF=F KetDBF=F FulRan=T
         wScrn=  0.000000 ICntrl=       0 IOpCl=  0 I1Cent=           0 NGrid=           0
         NMat0=    1 NMatS0=      1 NMatT0=    0 NMatD0=    1 NMtDS0=    0 NMtDT0=    0
 Symmetry not used in FoFCou.
 E= -801.491840444009    
 DIIS: error= 1.26D-01 at cycle   1 NSaved=   1.
 NSaved= 1 IEnMin= 1 EnMin= -801.491840444009     IErMin= 1 ErrMin= 1.26D-01
 ErrMax= 1.26D-01  0.00D+00 EMaxC= 1.00D-01 BMatC= 1.69D+01 BMatP= 1.69D+01
 IDIUse=3 WtCom= 0.00D+00 WtEn= 1.00D+00
 Coeff-Com:  0.100D+01
 Coeff-En:   0.100D+01
 Coeff:      0.100D+01
 Gap=     0.248 Goal=   None    Shift=    0.000
 GapD=    0.248 DampG=1.000 DampE=0.250 DampFc=0.2500 IDamp=-1.
 Damping current iteration by 2.50D-01
 RMSDP=1.90D-03 MaxDP=3.18D-01              OVMax= 2.42D-01

 Cycle   2  Pass 0  IDiag  1:
 RMSU=  4.72D-04    CP:  1.02D+00
 E= -801.644836151480     Delta-E=       -0.152995707471 Rises=F Damp=T
 DIIS: error= 9.51D-02 at cycle   2 NSaved=   2.
 NSaved= 2 IEnMin= 2 EnMin= -801.644836151480     IErMin= 2 ErrMin= 9.51D-02
 ErrMax= 9.51D-02  0.00D+00 EMaxC= 1.00D-01 BMatC= 1.00D+01 BMatP= 1.69D+01
 IDIUse=3 WtCom= 4.86D-02 WtEn= 9.51D-01
 Coeff-Com: -0.296D+01 0.396D+01
 Coeff-En:   0.000D+00 0.100D+01
 Coeff:     -0.144D+00 0.114D+01
 Gap=     0.248 Goal=   None    Shift=    0.000
 RMSDP=6.53D-04 MaxDP=1.42D-01 DE=-1.53D-01 OVMax= 1.32D-01

 Cycle   3  Pass 0  IDiag  1:
 RMSU=  4.11D-04    CP:  1.06D+00  2.06D+00
 E= -801.867894080717     Delta-E=       -0.223057929236 Rises=F Damp=F
 DIIS: error= 1.19D-02 at cycle   3 NSaved=   3.
 NSaved= 3 IEnMin= 3 EnMin= -801.867894080717     IErMin= 3 ErrMin= 1.19D-02
 ErrMax= 1.19D-02  0.00D+00 EMaxC= 1.00D-01 BMatC= 2.04D-01 BMatP= 1.00D+01
 IDIUse=3 WtCom= 8.81D-01 WtEn= 1.19D-01
 Coeff-Com:  0.817D+00-0.114D+01 0.132D+01
 Coeff-En:   0.312D-02 0.000D+00 0.997D+00
 Coeff:      0.720D+00-0.100D+01 0.128D+01
 Gap=     0.282 Goal=   None    Shift=    0.000
 RMSDP=4.32D-04 MaxDP=7.71D-02 DE=-2.23D-01 OVMax= 7.20D-02

 Cycle   4  Pass 0  IDiag  1:
 RMSU=  3.16D-04    CP:  1.05D+00  1.49D+00  7.17D-01
 E= -801.839171847396     Delta-E=        0.028722233321 Rises=F Damp=F
 DIIS: error= 8.82D-03 at cycle   4 NSaved=   4.
 NSaved= 4 IEnMin= 3 EnMin= -801.867894080717     IErMin= 4 ErrMin= 8.82D-03
 ErrMax= 8.82D-03  0.00D+00 EMaxC= 1.00D-01 BMatC= 1.11D-01 BMatP= 2.04D-01
 IDIUse=3 WtCom= 9.12D-01 WtEn= 8.82D-02
 Coeff-Com:  0.588D+00-0.813D+00 0.682D+00 0.543D+00
 Coeff-En:   0.000D+00 0.000D+00 0.619D+00 0.381D+00
 Coeff:      0.536D+00-0.741D+00 0.676D+00 0.529D+00
 Gap=     0.265 Goal=   None    Shift=    0.000
 RMSDP=2.89D-04 MaxDP=2.92D-02 DE= 2.87D-02 OVMax= 7.87D-02

 Cycle   5  Pass 0  IDiag  1:
 RMSU=  8.90D-05    CP:  1.05D+00  1.53D+00  9.55D-01  1.90D-01
 E= -801.916360441046     Delta-E=       -0.077188593651 Rises=F Damp=F
 DIIS: error= 3.21D-03 at cycle   5 NSaved=   5.
 NSaved= 5 IEnMin= 5 EnMin= -801.916360441046     IErMin= 5 ErrMin= 3.21D-03
 ErrMax= 3.21D-03  0.00D+00 EMaxC= 1.00D-01 BMatC= 1.42D-02 BMatP= 1.11D-01
 IDIUse=3 WtCom= 9.68D-01 WtEn= 3.21D-02
 Coeff-Com:  0.547D-01-0.815D-01 0.650D-01 0.262D+00 0.699D+00
 Coeff-En:   0.000D+00 0.000D+00 0.000D+00 0.906D-01 0.909D+00
 Coeff:      0.530D-01-0.788D-01 0.629D-01 0.257D+00 0.706D+00
 Gap=     0.225 Goal=   None    Shift=    0.000
 RMSDP=1.16D-04 MaxDP=1.53D-02 DE=-7.72D-02 OVMax= 3.09D-02

 Cycle   6  Pass 0  IDiag  1:
 RMSU=  4.39D-05    CP:  1.06D+00  1.59D+00  1.00D+00  4.57D-01  3.75D-01
 E= -801.924712890375     Delta-E=       -0.008352449329 Rises=F Damp=F
 DIIS: error= 8.09D-04 at cycle   6 NSaved=   6.
 NSaved= 6 IEnMin= 6 EnMin= -801.924712890375     IErMin= 6 ErrMin= 8.09D-04
 ErrMax= 8.09D-04  0.00D+00 EMaxC= 1.00D-01 BMatC= 1.42D-03 BMatP= 1.42D-02
 IDIUse=3 WtCom= 9.92D-01 WtEn= 8.09D-03
 Coeff-Com:  0.203D-01-0.290D-01 0.279D-02 0.882D-01 0.319D+00 0.599D+00
 Coeff-En:   0.000D+00 0.000D+00 0.000D+00 0.000D+00 0.477D-01 0.952D+00
 Coeff:      0.202D-01-0.288D-01 0.277D-02 0.875D-01 0.317D+00 0.602D+00
 Gap=     0.226 Goal=   None    Shift=    0.000
 RMSDP=3.70D-05 MaxDP=3.81D-03 DE=-8.35D-03 OVMax= 1.37D-02

 Cycle   7  Pass 0  IDiag  1:
 RMSU=  2.65D-05    CP:  1.05D+00  1.56D+00  9.99D-01  4.60D-01  5.47D-01
                    CP:  7.45D-01
 E= -801.925553377383     Delta-E=       -0.000840487008 Rises=F Damp=F
 DIIS: error= 6.27D-04 at cycle   7 NSaved=   7.
 NSaved= 7 IEnMin= 7 EnMin= -801.925553377383     IErMin= 7 ErrMin= 6.27D-04
 ErrMax= 6.27D-04  0.00D+00 EMaxC= 1.00D-01 BMatC= 3.54D-04 BMatP= 1.42D-03
 IDIUse=3 WtCom= 9.94D-01 WtEn= 6.27D-03
 Coeff-Com:  0.176D-01-0.237D-01 0.151D-02 0.245D-01 0.100D+00 0.364D+00
 Coeff-Com:  0.516D+00
 Coeff-En:   0.000D+00 0.000D+00 0.000D+00 0.000D+00 0.000D+00 0.227D+00
 Coeff-En:   0.773D+00
 Coeff:      0.175D-01-0.236D-01 0.150D-02 0.243D-01 0.995D-01 0.363D+00
 Coeff:      0.518D+00
 Gap=     0.225 Goal=   None    Shift=    0.000
 RMSDP=1.49D-05 MaxDP=2.20D-03 DE=-8.40D-04 OVMax= 6.98D-03

 Cycle   8  Pass 0  IDiag  1:
 RMSU=  6.95D-06    CP:  1.05D+00  1.56D+00  1.01D+00  4.66D-01  5.22D-01
                    CP:  9.22D-01  6.48D-01
 E= -801.925863631437     Delta-E=       -0.000310254054 Rises=F Damp=F
 DIIS: error= 1.32D-04 at cycle   8 NSaved=   8.
 NSaved= 8 IEnMin= 8 EnMin= -801.925863631437     IErMin= 8 ErrMin= 1.32D-04
 ErrMax= 1.32D-04  0.00D+00 EMaxC= 1.00D-01 BMatC= 1.67D-05 BMatP= 3.54D-04
 IDIUse=3 WtCom= 9.99D-01 WtEn= 1.32D-03
 Coeff-Com:  0.954D-02-0.128D-01 0.192D-02 0.677D-02 0.296D-01 0.152D+00
 Coeff-Com:  0.275D+00 0.538D+00
 Coeff-En:   0.000D+00 0.000D+00 0.000D+00 0.000D+00 0.000D+00 0.000D+00
 Coeff-En:   0.000D+00 0.100D+01
 Coeff:      0.953D-02-0.128D-01 0.192D-02 0.676D-02 0.296D-01 0.152D+00
 Coeff:      0.274D+00 0.539D+00
 Gap=     0.225 Goal=   None    Shift=    0.000
 RMSDP=3.96D-06 MaxDP=3.05D-04 DE=-3.10D-04 OVMax= 1.30D-03

 Initial convergence to 1.0D-05 achieved.  Increase integral accuracy.
 Cycle   9  Pass 1  IDiag  1:
 E= -801.925819384121     Delta-E=        0.000044247316 Rises=F Damp=F
 DIIS: error= 1.92D-04 at cycle   1 NSaved=   1.
 NSaved= 1 IEnMin= 1 EnMin= -801.925819384121     IErMin= 1 ErrMin= 1.92D-04
 ErrMax= 1.92D-04  0.00D+00 EMaxC= 1.00D-01 BMatC= 2.54D-05 BMatP= 2.54D-05
 IDIUse=3 WtCom= 9.98D-01 WtEn= 1.92D-03
 Coeff-Com:  0.100D+01
 Coeff-En:   0.100D+01
 Coeff:      0.100D+01
 Gap=     0.225 Goal=   None    Shift=    0.000
 RMSDP=3.96D-06 MaxDP=3.05D-04 DE= 4.42D-05 OVMax= 7.26D-04

 Cycle  10  Pass 1  IDiag  1:
 RMSU=  1.56D-04    CP:  9.92D-01
 E= -801.925831785714     Delta-E=       -0.000012401593 Rises=F Damp=F
 DIIS: error= 5.42D-05 at cycle   2 NSaved=   2.
 NSaved= 2 IEnMin= 2 EnMin= -801.925831785714     IErMin= 2 ErrMin= 5.42D-05
 ErrMax= 5.42D-05  0.00D+00 EMaxC= 1.00D-01 BMatC= 4.28D-06 BMatP= 2.54D-05
 IDIUse=1 WtCom= 1.00D+00 WtEn= 0.00D+00
 Coeff-Com:  0.195D+00 0.805D+00
 Coeff:      0.195D+00 0.805D+00
 Gap=     0.225 Goal=   None    Shift=    0.000
 RMSDP=3.66D-06 MaxDP=4.49D-04 DE=-1.24D-05 OVMax= 9.94D-04

 Cycle  11  Pass 1  IDiag  1:
 RMSU=  3.10D-06    CP:  9.92D-01  1.01D+00
 E= -801.925830112230     Delta-E=        0.000001673484 Rises=F Damp=F
 DIIS: error= 6.98D-05 at cycle   3 NSaved=   3.
 NSaved= 3 IEnMin= 2 EnMin= -801.925831785714     IErMin= 2 ErrMin= 5.42D-05
 ErrMax= 6.98D-05  0.00D+00 EMaxC= 1.00D-01 BMatC= 6.17D-06 BMatP= 4.28D-06
 IDIUse=1 WtCom= 1.00D+00 WtEn= 0.00D+00
 Coeff-Com:  0.152D-02 0.546D+00 0.453D+00
 Coeff:      0.152D-02 0.546D+00 0.453D+00
 Gap=     0.225 Goal=   None    Shift=    0.000
 RMSDP=1.88D-06 MaxDP=2.67D-04 DE= 1.67D-06 OVMax= 6.32D-04

 Cycle  12  Pass 1  IDiag  1:
 RMSU=  5.45D-07    CP:  9.92D-01  1.01D+00  4.41D-01
 E= -801.925835100057     Delta-E=       -0.000004987827 Rises=F Damp=F
 DIIS: error= 7.31D-06 at cycle   4 NSaved=   4.
 NSaved= 4 IEnMin= 4 EnMin= -801.925835100057     IErMin= 4 ErrMin= 7.31D-06
 ErrMax= 7.31D-06  0.00D+00 EMaxC= 1.00D-01 BMatC= 9.03D-08 BMatP= 4.28D-06
 IDIUse=1 WtCom= 1.00D+00 WtEn= 0.00D+00
 Coeff-Com: -0.227D-02 0.304D+00 0.263D+00 0.434D+00
 Coeff:     -0.227D-02 0.304D+00 0.263D+00 0.434D+00
 Gap=     0.225 Goal=   None    Shift=    0.000
 RMSDP=2.04D-07 MaxDP=2.28D-05 DE=-4.99D-06 OVMax= 6.39D-05

 Cycle  13  Pass 1  IDiag  1:
 RMSU=  1.79D-07    CP:  9.92D-01  1.01D+00  4.63D-01  8.80D-01
 E= -801.925835167040     Delta-E=       -0.000000066983 Rises=F Damp=F
 DIIS: error= 1.30D-06 at cycle   5 NSaved=   5.
 NSaved= 5 IEnMin= 5 EnMin= -801.925835167040     IErMin= 5 ErrMin= 1.30D-06
 ErrMax= 1.30D-06  0.00D+00 EMaxC= 1.00D-01 BMatC= 3.24D-09 BMatP= 9.03D-08
 IDIUse=1 WtCom= 1.00D+00 WtEn= 0.00D+00
 Coeff-Com: -0.117D-02 0.924D-01 0.817D-01 0.209D+00 0.618D+00
 Coeff:     -0.117D-02 0.924D-01 0.817D-01 0.209D+00 0.618D+00
 Gap=     0.225 Goal=   None    Shift=    0.000
 RMSDP=4.42D-08 MaxDP=4.48D-06 DE=-6.70D-08 OVMax= 1.20D-05

 Cycle  14  Pass 1  IDiag  1:
 RMSU=  2.88D-08    CP:  9.92D-01  1.01D+00  4.62D-01  9.22D-01  8.82D-01
 E= -801.925835168905     Delta-E=       -0.000000001866 Rises=F Damp=F
 DIIS: error= 3.49D-07 at cycle   6 NSaved=   6.
 NSaved= 6 IEnMin= 6 EnMin= -801.925835168905     IErMin= 6 ErrMin= 3.49D-07
 ErrMax= 3.49D-07  0.00D+00 EMaxC= 1.00D-01 BMatC= 2.13D-10 BMatP= 3.24D-09
 IDIUse=1 WtCom= 1.00D+00 WtEn= 0.00D+00
 Coeff-Com: -0.442D-03 0.285D-01 0.253D-01 0.776D-01 0.289D+00 0.580D+00
 Coeff:     -0.442D-03 0.285D-01 0.253D-01 0.776D-01 0.289D+00 0.580D+00
 Gap=     0.225 Goal=   None    Shift=    0.000
 RMSDP=2.18D-08 MaxDP=4.04D-06 DE=-1.87D-09 OVMax= 6.43D-06

 Cycle  15  Pass 1  IDiag  1:
 RMSU=  1.52D-08    CP:  9.92D-01  1.01D+00  4.60D-01  9.37D-01  9.28D-01
                    CP:  7.42D-01
 E= -801.925835169054     Delta-E=       -0.000000000148 Rises=F Damp=F
 DIIS: error= 2.62D-07 at cycle   7 NSaved=   7.
 NSaved= 7 IEnMin= 7 EnMin= -801.925835169054     IErMin= 7 ErrMin= 2.62D-07
 ErrMax= 2.62D-07  0.00D+00 EMaxC= 1.00D-01 BMatC= 8.02D-11 BMatP= 2.13D-10
 IDIUse=1 WtCom= 1.00D+00 WtEn= 0.00D+00
 Coeff-Com: -0.329D-05-0.407D-02-0.356D-02-0.200D-03 0.372D-01 0.392D+00
 Coeff-Com:  0.579D+00
 Coeff:     -0.329D-05-0.407D-02-0.356D-02-0.200D-03 0.372D-01 0.392D+00
 Coeff:      0.579D+00
 Gap=     0.225 Goal=   None    Shift=    0.000
 RMSDP=8.77D-09 MaxDP=9.95D-07 DE=-1.48D-10 OVMax= 2.90D-06

 SCF Done:  E(RM06) =  -801.925835169     A.U. after   15 cycles
            NFock= 15  Conv=0.88D-08     -V/T= 2.0044
 KE= 7.983771962864D+02 PE=-4.314165256200D+03 EE= 1.493041199968D+03
 Leave Link  502 at Tue Jun 24 19:01:05 2014, MaxMem=  4294967296 cpu:     34521.2
 (Enter /home/ztw1e12/g09/l801.exe)
 DoSCS=F DFT=T ScalE2(SS,OS)=  1.000000  1.000000
 Range of M.O.s used for correlation:     1  1068
 NBasis=  1204 NAE=    63 NBE=    63 NFC=     0 NFV=     0
 NROrb=   1068 NOA=    63 NOB=    63 NVA=  1005 NVB=  1005

 **** Warning!!: The largest alpha MO coefficient is  0.32343672D+02

 Leave Link  801 at Tue Jun 24 19:01:05 2014, MaxMem=  4294967296 cpu:         0.4
 (Enter /home/ztw1e12/g09/l1002.exe)
 Minotr:  Closed shell wavefunction.
          IDoAtm=111111111111111111111111111111111
          Direct CPHF calculation.
          Differentiating once with respect to Fermi-contact.
          Electric field/nuclear overlap derivatives assumed to be zero.
          Requested convergence is 1.0D-10 RMS, and 1.0D-09 maximum.
          Secondary convergence is 1.0D-12 RMS, and 1.0D-12 maximum.
          NewPWx=T KeepS1=F KeepF1=F KeepIn=T MapXYZ=F SortEE=F KeepMc=T.
          MDV=    4294965894 using IRadAn=  199590.
 Using stored XC quadrature information.
          Solving linear equations simultaneously, MaxMat=       0.
          There are    33 degrees of freedom in the 1st order CPHF.  IDoFFX=0 NUNeed=    33.
     33 vectors produced by pass  0 Test12= 1.92D-17 3.03D-11 XBig12= 4.29D+01 2.58D+00.
 AX will form    33 AO Fock derivatives at one time.
 FoFJK:  IHMeth= 1 ICntrl=       0 DoSepK=F KAlg= 0 I1Cent=   0 FoldK=F
 IRaf= 450000000 NMat=  33 IRICut=       1 DoRegI=T DoRafI=F ISym2E=-1.
 FoFCou: FMM=F IPFlag=           0 FMFlag=      100000 FMFlg1=           0
         NFxFlg=           0 DoJE=F BraDBF=F KetDBF=F FulRan=T
         wScrn=  0.000000 ICntrl=       0 IOpCl=  0 I1Cent=           0 NGrid=           0
         NMat0=   33 NMatS0=      0 NMatT0=   33 NMatD0=   33 NMtDS0=    0 NMtDT0=    0
 Petite list used in FoFCou.
     33 vectors produced by pass  1 Test12= 1.92D-17 3.03D-11 XBig12= 3.49D-01 1.89D-01.
     33 vectors produced by pass  2 Test12= 1.92D-17 3.03D-11 XBig12= 1.71D-02 4.49D-02.
     33 vectors produced by pass  3 Test12= 1.92D-17 3.03D-11 XBig12= 3.94D-04 6.50D-03.
     33 vectors produced by pass  4 Test12= 1.92D-17 3.03D-11 XBig12= 7.24D-06 1.17D-03.
     33 vectors produced by pass  5 Test12= 1.92D-17 3.03D-11 XBig12= 1.51D-07 1.74D-04.
     33 vectors produced by pass  6 Test12= 1.92D-17 3.03D-11 XBig12= 4.52D-09 2.25D-05.
     33 vectors produced by pass  7 Test12= 1.92D-17 3.03D-11 XBig12= 1.18D-10 3.99D-06.
     33 vectors produced by pass  8 Test12= 1.92D-17 3.03D-11 XBig12= 4.64D-12 3.33D-07.
     33 vectors produced by pass  9 Test12= 1.92D-17 3.03D-11 XBig12= 6.48D-14 9.17D-08.
     33 vectors produced by pass 10 Test12= 1.92D-17 3.03D-11 XBig12= 1.92D-15 8.09D-09.
     33 vectors produced by pass 11 Test12= 1.92D-17 3.03D-11 XBig12= 1.97D-17 5.70D-10.
     12 vectors produced by pass 12 Test12= 1.92D-17 3.03D-11 XBig12= 2.35D-19 6.05D-11.
 InvSVY:  IOpt=1 It=  1 EMax= 1.24D-14
 Solved reduced A of dimension   408 with    33 vectors.
 Max diff in FC couplings:  IJMax=    24     5 Diff= 2.58D-04 IJMaxR=    32     6 DiffR= 1.06D+00
 Fermi Contact (FC) contribution to K (Hz):
                1             2             3             4             5 
      1  0.123400D+11
      2  0.342574D+02  0.123400D+11
      3 -0.109157D+01  0.331797D+02  0.123400D+11
      4  0.295699D+01  0.233691D+00  0.323399D+02  0.123400D+11
      5  0.166052D+01  0.306014D+01 -0.132199D+01  0.338365D+02  0.123400D+11
      6  0.358731D+02 -0.235279D+00  0.419314D+01 -0.991996D-02  0.381888D+02
      7  0.216256D+02 -0.274842D+00  0.920920D+00 -0.188751D+00  0.601991D+00
      8 -0.160511D+00  0.219525D+02 -0.216184D+00  0.933165D+00 -0.274385D+00
      9 -0.286119D+00  0.108621D+01 -0.203574D+00  0.238676D+02 -0.151413D+00
     10  0.677796D+00 -0.223956D+00  0.104891D+01 -0.172787D+00  0.231333D+02
     11  0.196944D+01  0.152352D+01  0.235631D+02  0.155047D+01  0.183212D+01
     12  0.194334D-01  0.913706D+00 -0.936632D+00  0.875794D+00  0.892245D-01
     13 -0.118345D-01  0.727946D+00 -0.108825D+01  0.563222D+00 -0.110555D+00
     14 -0.398827D+00  0.711875D+00 -0.165595D+01  0.502301D+00 -0.484618D+00
     15  0.202075D-01 -0.175381D-01  0.894015D+00 -0.281925D-01  0.232599D-01
     16  0.202471D-01  0.108640D-01  0.127993D+00 -0.267145D-01  0.194958D-01
     17 -0.786271D+00 -0.129738D+00  0.245728D+00  0.285531D+01  0.114414D+02
     18  0.423968D+00 -0.930115D-02 -0.450781D-01  0.194156D+00  0.113360D+01
     19  0.446890D-02  0.166503D+00 -0.129173D-01  0.277853D+01  0.283879D+00
     20 -0.920549D-01  0.294341D+00  0.211412D+01 -0.268397D-01  0.704875D-02
     21  0.131344D-01 -0.544689D-01 -0.861670D-01 -0.106915D-02  0.314269D-02
     22 -0.199809D-01  0.343625D-01 -0.919214D-01  0.145447D+00 -0.139352D-01
     23  0.335202D-03  0.100427D-02 -0.423581D-03  0.202118D-02  0.939046D-03
     24 -0.319384D-02  0.120761D-01  0.338671D-02  0.280362D-03 -0.158733D-02
     25  0.472132D-02 -0.472465D-02  0.395548D-01 -0.451753D-02  0.262923D-02
     26 -0.104092D-03 -0.578762D-03  0.230165D-03  0.804558D-03 -0.311020D-03
     27  0.217313D-03 -0.242525D-03 -0.105462D-02  0.593401D-03  0.137277D-03
     28  0.119025D-02  0.192228D-02 -0.921000D-03 -0.623915D-03  0.655861D-03
     29 -0.768617D-03  0.109967D-01 -0.123959D-01  0.142159D-02  0.156078D-03
     30  0.678034D-04 -0.528602D-03  0.865746D-03  0.191753D-02 -0.166547D-03
     31  0.995253D-04  0.332721D-03 -0.242342D-03 -0.235636D-03  0.370401D-04
     32  0.181006D-03 -0.509725D-03  0.208614D-03 -0.633066D-03 -0.285934D-03
     33 -0.121164D-01  0.300898D-01  0.995610D-01  0.124979D-01 -0.913403D-02
                6             7             8             9            10 
      6  0.123400D+11
      7 -0.549919D+00  0.123400D+11
      8  0.116555D+01  0.327277D+00  0.123400D+11
      9  0.129655D+01  0.365412D-01  0.426075D-01  0.123400D+11
     10 -0.662276D+00  0.661598D-01  0.392995D-01  0.370566D+00  0.123400D+11
     11 -0.444149D+00  0.773460D-02  0.678625D+00  0.587548D+00  0.291915D-01
     12  0.261028D-01  0.337465D-02 -0.288927D-01 -0.100679D-01  0.101707D-01
     13  0.114156D+00  0.114457D-01 -0.298597D-01 -0.393933D-01  0.122524D-01
     14  0.450012D+00  0.309359D-01 -0.106784D+00 -0.961074D-01  0.432330D-01
     15 -0.720474D-02  0.572207D-04  0.341089D-02  0.649876D-02 -0.285473D-03
     16 -0.187047D-01 -0.221933D-02  0.100584D-01  0.191032D-01 -0.257152D-02
     17 -0.120933D+02  0.559356D+00  0.670844D-01  0.282913D+00  0.706127D+00
     18 -0.661483D+00 -0.126942D-01  0.195654D-02  0.155154D-01  0.269318D-03
     19  0.211935D+00 -0.125542D-02 -0.139864D-02 -0.741155D-01  0.239234D-01
     20  0.529140D-01  0.980399D-02 -0.111876D-01 -0.155325D-01 -0.103931D-01
     21 -0.730702D-02 -0.814726D-03 -0.508453D-03  0.348290D-02  0.636959D-03
     22  0.294527D-01  0.211547D-02 -0.258712D-02 -0.206250D-01  0.317082D-02
     23 -0.107429D-03 -0.198012D-04 -0.351645D-04  0.207545D-03 -0.636546D-04
     24  0.563531D-03  0.100305D-03 -0.481375D-03 -0.258106D-03 -0.233516D-03
     25 -0.202862D-02 -0.295444D-03  0.109076D-02  0.596319D-03 -0.291590D-03
     26  0.303258D-03 -0.199005D-04 -0.193249D-03 -0.594418D-04  0.554254D-04
     27 -0.158159D-03 -0.248140D-04  0.369029D-03  0.386777D-04 -0.158543D-04
     28 -0.612587D-03 -0.257218D-03  0.157695D-02  0.648323D-04 -0.150220D-03
     29  0.185280D-02  0.205954D-03 -0.412409D-03  0.174833D-02 -0.122234D-03
     30  0.310553D-03 -0.185130D-04  0.840443D-04 -0.447576D-03  0.105186D-03
     31  0.166815D-04 -0.485132D-05  0.489328D-04  0.990713D-04 -0.529897D-05
     32  0.823616D-05 -0.200570D-04  0.197654D-03 -0.178144D-03  0.688296D-04
     33  0.137959D-01  0.977838D-03 -0.409254D-02 -0.267885D-02  0.717647D-03
               11            12            13            14            15 
     11  0.123400D+11
     12  0.170954D+02  0.123400D+11
     13  0.187261D+02 -0.870061D+00  0.123400D+11
     14  0.187416D+02 -0.751959D+00 -0.767196D+00  0.123400D+11
     15 -0.756749D+00  0.281078D+00  0.432448D-01  0.190644D+02  0.123400D+11
     16 -0.674086D-01  0.100055D+01  0.461000D+00  0.273518D+02 -0.113248D+01
     17  0.543973D-01  0.726477D-02  0.409807D-01  0.181532D+00 -0.116053D-02
     18  0.108909D-01 -0.812985D-03 -0.436977D-02 -0.191335D-01  0.337487D-03
     19  0.130093D+01  0.703123D-01  0.111945D+00  0.365188D+01  0.405093D+00
     20  0.718334D+00  0.583714D-01  0.139239D+01  0.149931D+02 -0.936702D+00
     21  0.429763D+00 -0.972161D-02 -0.122415D-01  0.281501D+00  0.244876D+00
     22  0.689960D+00  0.960409D-01 -0.888324D-01  0.101791D+02 -0.199819D-01
     23  0.300044D-01  0.478321D-02  0.295991D-02  0.522613D-01 -0.232682D-01
     24  0.119369D+01 -0.308631D-01  0.639300D-01 -0.411944D+00  0.524998D+00
     25 -0.421719D-01  0.324071D-03  0.380679D-01  0.846665D+00 -0.910716D-01
     26  0.178009D-01 -0.133017D-02  0.544905D-02  0.237144D-01  0.114852D-01
     27 -0.450578D-02 -0.560246D-03 -0.209910D-02  0.119933D-01  0.227584D-01
     28 -0.413776D-02  0.299016D-03  0.551239D-03  0.872217D-01 -0.302253D-02
     29  0.243865D+00  0.468524D-01  0.804872D-02  0.742002D+00 -0.539250D-01
     30 -0.796411D-03 -0.198739D-03  0.782604D-04 -0.698500D-01  0.247279D-01
     31  0.180236D-01  0.190353D-02  0.206496D-02 -0.181479D-01  0.150717D-02
     32  0.821198D-02 -0.159154D-02 -0.179915D-03 -0.898324D-01  0.295765D-01
     33  0.119332D+00  0.746528D-02  0.992231D-02  0.499993D+00  0.122531D+00
               16            17            18            19            20 
     16  0.123400D+11
     17 -0.790232D-02  0.123400D+11
     18  0.728832D-03  0.198382D+02  0.123400D+11
     19 -0.977781D+01  0.697777D-01  0.413293D-02  0.123400D+11
     20  0.661334D+00  0.292642D-01 -0.358010D-02  0.391669D+00  0.123400D+11
     21 -0.275734D-01 -0.296839D-02  0.386240D-03 -0.361062D-02  0.315590D+02
     22  0.287042D+02  0.106335D-01 -0.782614D-03  0.616308D+01 -0.511021D+00
     23  0.296200D+00  0.748620D-04  0.145737D-04  0.552380D+00  0.122323D-01
     24  0.132527D-01  0.377691D-03 -0.746133D-04  0.171113D-01  0.260525D+02
     25 -0.125620D+00 -0.618144D-03  0.675190D-04  0.292916D-01  0.119269D+02
     26  0.374330D-01  0.150675D-03 -0.128024D-04  0.170755D-02  0.459619D+00
     27  0.961164D-01 -0.590802D-04  0.566045D-05  0.119998D-01  0.397799D+00
     28  0.241498D-03 -0.483199D-04  0.310752D-05  0.104311D-02  0.374211D+00
     29 -0.566003D+00  0.916457D-03 -0.711531D-04  0.746706D+00 -0.176008D+00
     30  0.263875D+00  0.423673D-04  0.771176D-05  0.256879D+00  0.961059D-01
     31  0.102844D+01  0.295432D-05  0.000000D+00  0.179755D+00  0.182441D-02
     32  0.205041D+00 -0.364068D-04  0.410376D-05  0.257497D+00  0.104697D+00
     33  0.531905D+00  0.630546D-02 -0.670161D-03  0.161697D+00  0.521200D+01
               21            22            23            24            25 
     21  0.123400D+11
     22  0.124198D-01  0.123400D+11
     23  0.211333D-02  0.324139D+02  0.123400D+11
     24  0.427726D+00 -0.140900D+00  0.190811D-02  0.123400D+11
     25  0.136544D+00  0.167406D+00 -0.152643D-01  0.270926D+02  0.123400D+11
     26 -0.156112D-01  0.536003D-02 -0.560057D-02 -0.119084D+01  0.178257D+02
     27 -0.154122D-01 -0.101776D-01 -0.135656D-02 -0.118294D+01  0.180045D+02
     28 -0.103772D-01  0.174908D-01 -0.161772D-02 -0.761273D+00  0.174299D+02
     29 -0.143136D-02  0.165942D+02  0.350182D+00 -0.489702D-02  0.430788D-02
     30 -0.151012D-03 -0.652518D+00  0.156717D+00 -0.143681D-02 -0.136356D-02
     31  0.123831D-03 -0.279709D+00  0.289018D+00  0.237854D-02  0.291120D-03
     32  0.841560D-03 -0.647044D+00  0.676287D-01  0.198703D-02  0.373256D-02
     33  0.438941D+00  0.542745D+01 -0.849078D+00 -0.965102D+01  0.408973D+01
               26            27            28            29            30 
     26  0.123400D+11
     27 -0.926715D+00  0.123400D+11
     28 -0.748192D+00 -0.722217D+00  0.123400D+11
     29 -0.108976D-02 -0.117277D-02 -0.279306D-03  0.123400D+11
     30  0.141136D-03  0.180264D-04  0.397763D-03  0.197050D+02  0.123400D+11
     31  0.751734D-03  0.297583D-03  0.977263D-04  0.184487D+02 -0.753284D+00
     32  0.158510D-03  0.384730D-03 -0.288346D-04  0.197092D+02 -0.747668D+00
     33  0.416032D+00  0.359757D+00  0.891412D+00  0.140536D+00  0.418805D-01
               31            32            33 
     31  0.123400D+11
     32 -0.734970D+00  0.123400D+11
     33  0.350968D-01  0.174685D-01  0.123400D+11
 Fermi Contact (FC) contribution to J (Hz):
                1             2             3             4             5 
      1  0.243533D+11
      2  0.676078D+02  0.243533D+11
      3 -0.215424D+01  0.654809D+02  0.243533D+11
      4  0.583568D+01  0.461195D+00  0.638236D+02  0.243533D+11
      5  0.327708D+01  0.603927D+01 -0.260897D+01  0.667772D+02  0.243533D+11
      6  0.707965D+02 -0.464330D+00  0.827527D+01 -0.195773D-01  0.753665D+02
      7  0.169694D+03 -0.215666D+01  0.722637D+01 -0.148111D+01  0.472376D+01
      8 -0.125951D+01  0.172259D+03 -0.169638D+01  0.732246D+01 -0.215307D+01
      9 -0.224515D+01  0.852336D+01 -0.159742D+01  0.187287D+03 -0.118812D+01
     10  0.531860D+01 -0.175736D+01  0.823067D+01 -0.135584D+01  0.181525D+03
     11  0.388674D+01  0.300670D+01  0.465023D+02  0.305990D+01  0.361573D+01
     12  0.152492D+00  0.716977D+01 -0.734966D+01  0.687227D+01  0.700136D+00
     13 -0.928642D-01  0.571212D+01 -0.853940D+01  0.441955D+01 -0.867511D+00
     14 -0.787095D+00  0.140490D+01 -0.326806D+01  0.991303D+00 -0.956405D+00
     15  0.158566D+00 -0.137620D+00  0.701525D+01 -0.221224D+00  0.182518D+00
     16  0.399582D-01  0.214404D-01  0.252598D+00 -0.527218D-01  0.384755D-01
     17  0.836735D+00  0.138064D+00 -0.261499D+00 -0.303857D+01 -0.121757D+02
     18  0.332684D+01 -0.729853D-01 -0.353724D+00  0.152352D+01  0.889527D+01
     19 -0.475572D-02 -0.177189D+00  0.137464D-01 -0.295686D+01 -0.302098D+00
     20 -0.522147D-01  0.166954D+00  0.119916D+01 -0.152238D-01  0.399814D-02
     21  0.103064D+00 -0.427412D+00 -0.676144D+00 -0.838951D-02  0.246604D-01
     22 -0.113334D-01  0.194908D-01 -0.521390D-01  0.824995D-01 -0.790421D-02
     23  0.263030D-02  0.788041D-02 -0.332380D-02  0.158600D-01  0.736860D-02
     24 -0.630312D-02  0.238325D-01  0.668375D-02  0.553302D-03 -0.313263D-02
     25  0.931765D-02 -0.932421D-02  0.780623D-01 -0.891547D-02  0.518885D-02
     26 -0.816797D-03 -0.454149D-02  0.180608D-02  0.631329D-02 -0.244055D-02
     27  0.170523D-02 -0.190307D-02 -0.827551D-02  0.465636D-02  0.107720D-02
     28  0.933974D-02  0.150839D-01 -0.722700D-02 -0.489580D-02  0.514648D-02
     29 -0.151688D-02  0.217022D-01 -0.244636D-01  0.280554D-02  0.308024D-03
     30  0.532047D-03 -0.414789D-02  0.679342D-02  0.150467D-01 -0.130688D-02
     31  0.780965D-03  0.261083D-02 -0.190163D-02 -0.184901D-02  0.290650D-03
     32  0.142034D-02 -0.399977D-02  0.163697D-02 -0.496761D-02 -0.224370D-02
     33  0.128940D-01 -0.320209D-01 -0.105951D+00 -0.133000D-01  0.972026D-02
                6             7             8             9            10 
      6  0.243533D+11
      7 -0.431516D+01  0.385007D+12
      8  0.914595D+01  0.102110D+02  0.385007D+12
      9  0.101739D+02  0.114009D+01  0.132935D+01  0.385007D+12
     10 -0.519682D+01  0.206418D+01  0.122614D+01  0.115616D+02  0.385007D+12
     11 -0.876538D+00  0.606927D-01  0.532511D+01  0.461044D+01  0.229063D+00
     12  0.204826D+00  0.105289D+00 -0.901452D+00 -0.314119D+00  0.317324D+00
     13  0.895772D+00  0.357106D+00 -0.931620D+00 -0.122907D+01  0.382275D+00
     14  0.888109D+00  0.242751D+00 -0.837924D+00 -0.754145D+00  0.339245D+00
     15 -0.565349D-01  0.178528D-02  0.106420D+00  0.202761D+00 -0.890676D-02
     16 -0.369143D-01 -0.174149D-01  0.789273D-01  0.149901D+00 -0.201785D-01
     17  0.128694D+02 -0.236679D+01 -0.283852D+00 -0.119708D+01 -0.298781D+01
     18 -0.519059D+01 -0.396059D+00  0.610440D-01  0.484081D+00  0.840271D-02
     19 -0.225537D+00  0.531203D-02  0.591804D-02  0.313603D+00 -0.101227D+00
     20  0.300135D-01  0.221108D-01 -0.252312D-01 -0.350302D-01 -0.234395D-01
     21 -0.573374D-01 -0.254194D-01 -0.158637D-01  0.108666D+00  0.198731D-01
     22  0.167060D-01  0.477099D-02 -0.583469D-02 -0.465152D-01  0.715110D-02
     23 -0.842987D-03 -0.617797D-03 -0.109713D-02  0.647539D-02 -0.198602D-02
     24  0.111214D-02  0.787086D-03 -0.377730D-02 -0.202533D-02 -0.183238D-02
     25 -0.400354D-02 -0.231832D-02  0.855912D-02  0.467926D-02 -0.228808D-02
     26  0.237964D-02 -0.620896D-03 -0.602936D-02 -0.185458D-02  0.172927D-02
     27 -0.124106D-02 -0.774194D-03  0.115137D-01  0.120674D-02 -0.494655D-03
     28 -0.480691D-02 -0.802518D-02  0.492007D-01  0.202276D-02 -0.468685D-02
     29  0.365654D-02  0.161610D-02 -0.323613D-02  0.137190D-01 -0.959156D-03
     30  0.243688D-02 -0.577604D-03  0.262218D-02 -0.139644D-01  0.328180D-02
     31  0.130898D-03 -0.151361D-03  0.152670D-02  0.309102D-02 -0.165328D-03
     32  0.646284D-04 -0.625779D-03  0.616681D-02 -0.555807D-02  0.214748D-02
     33 -0.146813D-01 -0.413750D-02  0.173167D-01  0.113349D-01 -0.303656D-02
               11            12            13            14            15 
     11  0.243533D+11
     12  0.134146D+03  0.385007D+12
     13  0.146942D+03 -0.271459D+02  0.385007D+12
     14  0.369870D+02 -0.590055D+01 -0.602011D+01  0.243533D+11
     15 -0.593814D+01  0.876963D+01  0.134923D+01  0.149597D+03  0.385007D+12
     16 -0.133032D+00  0.785120D+01  0.361742D+01  0.539795D+02 -0.888644D+01
     17 -0.578886D-01 -0.307392D-01 -0.173401D+00 -0.193183D+00  0.491053D-02
     18  0.854597D-01 -0.253651D-01 -0.136337D+00 -0.150139D+00  0.105296D-01
     19 -0.138442D+01 -0.297510D+00 -0.473670D+00 -0.388626D+01 -0.171406D+01
     20  0.407448D+00  0.131644D+00  0.314024D+01  0.850426D+01 -0.211253D+01
     21  0.337231D+01 -0.303314D+00 -0.381933D+00  0.220891D+01  0.764012D+01
     22  0.391354D+00  0.216599D+00 -0.200342D+00  0.577372D+01 -0.450649D-01
     23  0.235442D+00  0.149236D+00  0.923492D-01  0.410089D+00 -0.725968D+00
     24  0.235579D+01 -0.242180D+00  0.501652D+00 -0.812983D+00  0.411961D+01
     25 -0.832273D-01  0.254295D-02  0.298715D+00  0.167091D+01 -0.714630D+00
     26  0.139682D+00 -0.415013D-01  0.170010D+00  0.186085D+00  0.358338D+00
     27 -0.353564D-01 -0.174797D-01 -0.654919D-01  0.941100D-01  0.710060D+00
     28 -0.324686D-01  0.932929D-02  0.171986D-01  0.684420D+00 -0.943029D-01
     29  0.481274D+00  0.367646D+00  0.631575D-01  0.146436D+01 -0.423145D+00
     30 -0.624936D-02 -0.620066D-02  0.244172D-02 -0.548106D+00  0.771508D+00
     31  0.141429D+00  0.593901D-01  0.644268D-01 -0.142405D+00  0.470235D-01
     32  0.644386D-01 -0.496560D-01 -0.561334D-02 -0.704906D+00  0.922786D+00
     33 -0.126991D+00 -0.315876D-01 -0.419840D-01 -0.532083D+00 -0.518462D+00
               16            17            18            19            20 
     16  0.243533D+11
     17  0.840949D-02  0.708114D+10
     18  0.571907D-02 -0.839408D+02  0.385007D+12
     19  0.104054D+02  0.400410D-01 -0.174875D-01  0.708114D+10
     20  0.375117D+00 -0.895067D-02 -0.807413D-02 -0.119795D+00  0.201170D+10
     21 -0.216366D+00  0.125601D-01  0.120507D-01  0.152775D-01  0.711746D+02
     22  0.162814D+02 -0.325234D-02 -0.176502D-02 -0.188502D+01 -0.833082D-01
     23  0.232425D+01 -0.316761D-03  0.454697D-03 -0.233727D+01  0.275872D-01
     24  0.261545D-01 -0.401931D-03 -0.585483D-03 -0.182095D-01  0.147773D+02
     25 -0.247915D+00  0.657817D-03  0.529815D-03 -0.311715D-01  0.676507D+01
     26  0.293733D+00 -0.637545D-03 -0.399435D-03 -0.722513D-02  0.103657D+01
     27  0.754216D+00  0.249985D-03  0.176606D-03 -0.507745D-01  0.897151D+00
     28  0.189501D-02  0.204455D-03  0.969544D-04 -0.441367D-02  0.843952D+00
     29 -0.111702D+01 -0.975276D-03 -0.558332D-03 -0.794631D+00 -0.998336D-01
     30  0.207060D+01 -0.179268D-03  0.240607D-03 -0.108693D+01  0.216746D+00
     31  0.807009D+01 -0.125005D-04  0.418312D-05 -0.760593D+00  0.411455D-02
     32  0.160894D+01  0.154047D-03  0.128037D-03 -0.108954D+01  0.236122D+00
     33 -0.566043D+00  0.361830D-02  0.283563D-02  0.927876D-01 -0.159413D+01
               21            22            23            24            25 
     21  0.385007D+12
     22  0.280103D-01  0.201170D+10
     23  0.659357D-01  0.731025D+02  0.385007D+12
     24  0.335632D+01 -0.799205D-01  0.149727D-01  0.243533D+11
     25  0.107144D+01  0.949547D-01 -0.119777D+00  0.534680D+02  0.243533D+11
     26 -0.487070D+00  0.120884D-01 -0.174738D+00 -0.934441D+01  0.139876D+03
     27 -0.480859D+00 -0.229534D-01 -0.423245D-01 -0.928239D+01  0.141280D+03
     28 -0.323767D+00  0.394468D-01 -0.504727D-01 -0.597364D+01  0.136771D+03
     29 -0.112317D-01  0.941246D+01  0.274785D+01 -0.966440D-02  0.850172D-02
     30 -0.471158D-02 -0.147161D+01  0.488957D+01 -0.112745D-01 -0.106997D-01
     31  0.386353D-02 -0.630823D+00  0.901734D+01  0.186642D-01  0.228439D-02
     32  0.262566D-01 -0.145927D+01  0.211001D+01  0.155920D-01  0.292890D-01
     33 -0.185728D+01 -0.166002D+01  0.359268D+01  0.102704D+02 -0.435221D+01
               26            27            28            29            30 
     26  0.385007D+12
     27 -0.289135D+02  0.385007D+12
     28 -0.233436D+02 -0.225331D+02  0.385007D+12
     29 -0.855122D-02 -0.920264D-02 -0.219169D-02  0.243533D+11
     30  0.440345D-02  0.562424D-03  0.124102D-01  0.154623D+03  0.385007D+12
     31  0.234541D-01  0.928457D-02  0.304906D-02  0.144765D+03 -0.235024D+02
     32  0.494551D-02  0.120036D-01 -0.899639D-03  0.154656D+03 -0.233272D+02
     33 -0.176034D+01 -0.152223D+01 -0.377181D+01 -0.149556D+00 -0.177208D+00
               31            32            33 
     31  0.385007D+12
     32 -0.229310D+02  0.385007D+12
     33 -0.148504D+00 -0.739142D-01  0.708114D+10
 End of Minotr F.D. properties file   721 does not exist.
 End of Minotr F.D. properties file   722 does not exist.
 End of Minotr F.D. properties file   788 does not exist.
 Leave Link 1002 at Wed Jun 25 03:19:23 2014, MaxMem=  4294967296 cpu:    477182.1
 (Enter /home/ztw1e12/g09/l601.exe)
 Copying SCF densities to generalized density rwf, IOpCl= 0 IROHF=0.

 **********************************************************************

            Population analysis using the SCF density.

 **********************************************************************

 Orbital symmetries:
       Occupied  (A) (A) (A) (A) (A) (A) (A) (A) (A) (A) (A) (A)
                 (A) (A) (A) (A) (A) (A) (A) (A) (A) (A) (A) (A)
                 (A) (A) (A) (A) (A) (A) (A) (A) (A) (A) (A) (A)
                 (A) (A) (A) (A) (A) (A) (A) (A) (A) (A) (A) (A)
                 (A) (A) (A) (A) (A) (A) (A) (A) (A) (A) (A) (A)
                 (A) (A) (A)
       Virtual   (A) (A) (A) (A) (A) (A) (A) (A) (A) (A) (A) (A)
                 (A) (A) (A) (A) (A) (A) (A) (A) (A) (A) (A) (A)
                 (A) (A) (A) (A) (A) (A) (A) (A) (A) (A) (A) (A)
                 (A) (A) (A) (A) (A) (A) (A) (A) (A) (A) (A) (A)
                 (A) (A) (A) (A) (A) (A) (A) (A) (A) (A) (A) (A)
                 (A) (A) (A) (A) (A) (A) (A) (A) (A) (A) (A) (A)
                 (A) (A) (A) (A) (A) (A) (A) (A) (A) (A) (A) (A)
                 (A) (A) (A) (A) (A) (A) (A) (A) (A) (A) (A) (A)
                 (A) (A) (A) (A) (A) (A) (A) (A) (A) (A) (A) (A)
                 (A) (A) (A) (A) (A) (A) (A) (A) (A) (A) (A) (A)
                 (A) (A) (A) (A) (A) (A) (A) (A) (A) (A) (A) (A)
                 (A) (A) (A) (A) (A) (A) (A) (A) (A) (A) (A) (A)
                 (A) (A) (A) (A) (A) (A) (A) (A) (A) (A) (A) (A)
                 (A) (A) (A) (A) (A) (A) (A) (A) (A) (A) (A) (A)
                 (A) (A) (A) (A) (A) (A) (A) (A) (A) (A) (A) (A)
                 (A) (A) (A) (A) (A) (A) (A) (A) (A) (A) (A) (A)
                 (A) (A) (A) (A) (A) (A) (A) (A) (A) (A) (A) (A)
                 (A) (A) (A) (A) (A) (A) (A) (A) (A) (A) (A) (A)
                 (A) (A) (A) (A) (A) (A) (A) (A) (A) (A) (A) (A)
                 (A) (A) (A) (A) (A) (A) (A) (A) (A) (A) (A) (A)
                 (A) (A) (A) (A) (A) (A) (A) (A) (A) (A) (A) (A)
                 (A) (A) (A) (A) (A) (A) (A) (A) (A) (A) (A) (A)
                 (A) (A) (A) (A) (A) (A) (A) (A) (A) (A) (A) (A)
                 (A) (A) (A) (A) (A) (A) (A) (A) (A) (A) (A) (A)
                 (A) (A) (A) (A) (A) (A) (A) (A) (A) (A) (A) (A)
                 (A) (A) (A) (A) (A) (A) (A) (A) (A) (A) (A) (A)
                 (A) (A) (A) (A) (A) (A) (A) (A) (A) (A) (A) (A)
                 (A) (A) (A) (A) (A) (A) (A) (A) (A) (A) (A) (A)
                 (A) (A) (A) (A) (A) (A) (A) (A) (A) (A) (A) (A)
                 (A) (A) (A) (A) (A) (A) (A) (A) (A) (A) (A) (A)
                 (A) (A) (A) (A) (A) (A) (A) (A) (A) (A) (A) (A)
                 (A) (A) (A) (A) (A) (A) (A) (A) (A) (A) (A) (A)
                 (A) (A) (A) (A) (A) (A) (A) (A) (A) (A) (A) (A)
                 (A) (A) (A) (A) (A) (A) (A) (A) (A) (A) (A) (A)
                 (A) (A) (A) (A) (A) (A) (A) (A) (A) (A) (A) (A)
                 (A) (A) (A) (A) (A) (A) (A) (A) (A) (A) (A) (A)
                 (A) (A) (A) (A) (A) (A) (A) (A) (A) (A) (A) (A)
                 (A) (A) (A) (A) (A) (A) (A) (A) (A) (A) (A) (A)
                 (A) (A) (A) (A) (A) (A) (A) (A) (A) (A) (A) (A)
                 (A) (A) (A) (A) (A) (A) (A) (A) (A) (A) (A) (A)
                 (A) (A) (A) (A) (A) (A) (A) (A) (A) (A) (A) (A)
                 (A) (A) (A) (A) (A) (A) (A) (A) (A) (A) (A) (A)
                 (A) (A) (A) (A) (A) (A) (A) (A) (A) (A) (A) (A)
                 (A) (A) (A) (A) (A) (A) (A) (A) (A) (A) (A) (A)
                 (A) (A) (A) (A) (A) (A) (A) (A) (A) (A) (A) (A)
                 (A) (A) (A) (A) (A) (A) (A) (A) (A) (A) (A) (A)
                 (A) (A) (A) (A) (A) (A) (A) (A) (A) (A) (A) (A)
                 (A) (A) (A) (A) (A) (A) (A) (A) (A) (A) (A) (A)
                 (A) (A) (A) (A) (A) (A) (A) (A) (A) (A) (A) (A)
                 (A) (A) (A) (A) (A) (A) (A) (A) (A) (A) (A) (A)
                 (A) (A) (A) (A) (A) (A) (A) (A) (A) (A) (A) (A)
                 (A) (A) (A) (A) (A) (A) (A) (A) (A) (A) (A) (A)
                 (A) (A) (A) (A) (A) (A) (A) (A) (A) (A) (A) (A)
                 (A) (A) (A) (A) (A) (A) (A) (A) (A) (A) (A) (A)
                 (A) (A) (A) (A) (A) (A) (A) (A) (A) (A) (A) (A)
                 (A) (A) (A) (A) (A) (A) (A) (A) (A) (A) (A) (A)
                 (A) (A) (A) (A) (A) (A) (A) (A) (A) (A) (A) (A)
                 (A) (A) (A) (A) (A) (A) (A) (A) (A) (A) (A) (A)
                 (A) (A) (A) (A) (A) (A) (A) (A) (A) (A) (A) (A)
                 (A) (A) (A) (A) (A) (A) (A) (A) (A) (A) (A) (A)
                 (A) (A) (A) (A) (A) (A) (A) (A) (A) (A) (A) (A)
                 (A) (A) (A) (A) (A) (A) (A) (A) (A) (A) (A) (A)
                 (A) (A) (A) (A) (A) (A) (A) (A) (A) (A) (A) (A)
                 (A) (A) (A) (A) (A) (A) (A) (A) (A) (A) (A) (A)
                 (A) (A) (A) (A) (A) (A) (A) (A) (A) (A) (A) (A)
                 (A) (A) (A) (A) (A) (A) (A) (A) (A) (A) (A) (A)
                 (A) (A) (A) (A) (A) (A) (A) (A) (A) (A) (A) (A)
                 (A) (A) (A) (A) (A) (A) (A) (A) (A) (A) (A) (A)
                 (A) (A) (A) (A) (A) (A) (A) (A) (A) (A) (A) (A)
                 (A) (A) (A) (A) (A) (A) (A) (A) (A) (A) (A) (A)
                 (A) (A) (A) (A) (A) (A) (A) (A) (A) (A) (A) (A)
                 (A) (A) (A) (A) (A) (A) (A) (A) (A) (A) (A) (A)
                 (A) (A) (A) (A) (A) (A) (A) (A) (A) (A) (A) (A)
                 (A) (A) (A) (A) (A) (A) (A) (A) (A) (A) (A) (A)
                 (A) (A) (A) (A) (A) (A) (A) (A) (A) (A) (A) (A)
                 (A) (A) (A) (A) (A) (A) (A) (A) (A) (A) (A) (A)
                 (A) (A) (A) (A) (A) (A) (A) (A) (A) (A) (A) (A)
                 (A) (A) (A) (A) (A) (A) (A) (A) (A) (A) (A) (A)
                 (A) (A) (A) (A) (A) (A) (A) (A) (A) (A) (A) (A)
                 (A) (A) (A) (A) (A) (A) (A) (A) (A) (A) (A) (A)
                 (A) (A) (A) (A) (A) (A) (A) (A) (A) (A) (A) (A)
                 (A) (A) (A) (A) (A) (A) (A) (A) (A) (A) (A) (A)
                 (A) (A) (A) (A) (A) (A) (A) (A) (A) (A) (A) (A)
                 (A) (A) (A) (A) (A) (A) (A) (A) (A)
 The electronic state is 1-A.
 Alpha  occ. eigenvalues --  -19.25036 -19.18578 -19.17474 -14.42791 -14.40643
 Alpha  occ. eigenvalues --  -10.35282 -10.33439 -10.31038 -10.29573 -10.26527
 Alpha  occ. eigenvalues --  -10.25231 -10.25231 -10.25011 -10.24932 -10.24844
 Alpha  occ. eigenvalues --  -10.24294 -10.24066  -1.09365  -1.06647  -1.05149
 Alpha  occ. eigenvalues --   -0.95814  -0.93280  -0.87834  -0.81400  -0.77379
 Alpha  occ. eigenvalues --   -0.76814  -0.74399  -0.71752  -0.66431  -0.64019
 Alpha  occ. eigenvalues --   -0.61541  -0.60730  -0.58754  -0.56481  -0.55151
 Alpha  occ. eigenvalues --   -0.52112  -0.50778  -0.50371  -0.47894  -0.47459
 Alpha  occ. eigenvalues --   -0.46708  -0.45662  -0.45099  -0.44131  -0.43909
 Alpha  occ. eigenvalues --   -0.43203  -0.42802  -0.42423  -0.41482  -0.41109
 Alpha  occ. eigenvalues --   -0.39875  -0.39084  -0.38507  -0.37470  -0.36006
 Alpha  occ. eigenvalues --   -0.35364  -0.35141  -0.30539  -0.28369  -0.27578
 Alpha  occ. eigenvalues --   -0.27108  -0.25989  -0.24123
 Alpha virt. eigenvalues --   -0.01602   0.00177   0.01069   0.01769   0.02454
 Alpha virt. eigenvalues --    0.03433   0.04707   0.04930   0.06169   0.07184
 Alpha virt. eigenvalues --    0.07494   0.09022   0.09177   0.10311   0.10890
 Alpha virt. eigenvalues --    0.11568   0.11744   0.12098   0.13862   0.14180
 Alpha virt. eigenvalues --    0.15030   0.16543   0.17008   0.17772   0.18969
 Alpha virt. eigenvalues --    0.20010   0.20342   0.21177   0.23073   0.23569
 Alpha virt. eigenvalues --    0.24117   0.24893   0.25168   0.25857   0.26918
 Alpha virt. eigenvalues --    0.27513   0.28365   0.28470   0.29054   0.29745
 Alpha virt. eigenvalues --    0.30574   0.30771   0.31394   0.31682   0.32195
 Alpha virt. eigenvalues --    0.32966   0.33882   0.34236   0.35123   0.35372
 Alpha virt. eigenvalues --    0.35844   0.36435   0.36564   0.37266   0.37623
 Alpha virt. eigenvalues --    0.37978   0.38283   0.38532   0.39131   0.39999
 Alpha virt. eigenvalues --    0.40563   0.40847   0.41272   0.41742   0.42100
 Alpha virt. eigenvalues --    0.42515   0.42896   0.43167   0.43439   0.43857
 Alpha virt. eigenvalues --    0.44812   0.45016   0.45919   0.46518   0.46994
 Alpha virt. eigenvalues --    0.47098   0.47916   0.48810   0.49141   0.49891
 Alpha virt. eigenvalues --    0.51320   0.52044   0.52272   0.53236   0.53519
 Alpha virt. eigenvalues --    0.54622   0.54977   0.56032   0.56721   0.57679
 Alpha virt. eigenvalues --    0.58659   0.58831   0.60612   0.61163   0.61786
 Alpha virt. eigenvalues --    0.62418   0.62986   0.63433   0.64436   0.65060
 Alpha virt. eigenvalues --    0.66002   0.66496   0.67146   0.67954   0.69434
 Alpha virt. eigenvalues --    0.69737   0.70025   0.70875   0.71911   0.72938
 Alpha virt. eigenvalues --    0.73444   0.74523   0.74826   0.75129   0.76342
 Alpha virt. eigenvalues --    0.76715   0.77613   0.78492   0.79193   0.80308
 Alpha virt. eigenvalues --    0.80799   0.81394   0.82329   0.82758   0.83274
 Alpha virt. eigenvalues --    0.83606   0.84173   0.84540   0.85405   0.86422
 Alpha virt. eigenvalues --    0.87134   0.88722   0.89187   0.90383   0.91026
 Alpha virt. eigenvalues --    0.91702   0.91824   0.92542   0.93536   0.94732
 Alpha virt. eigenvalues --    0.95319   0.96277   0.97058   0.97678   0.98054
 Alpha virt. eigenvalues --    0.98325   0.99219   0.99703   1.00215   1.01383
 Alpha virt. eigenvalues --    1.02297   1.03056   1.03768   1.04151   1.05544
 Alpha virt. eigenvalues --    1.06294   1.06891   1.07557   1.08706   1.08936
 Alpha virt. eigenvalues --    1.10092   1.11671   1.11840   1.13390   1.13471
 Alpha virt. eigenvalues --    1.14600   1.14812   1.15613   1.15958   1.17281
 Alpha virt. eigenvalues --    1.17595   1.18078   1.18932   1.19577   1.20231
 Alpha virt. eigenvalues --    1.20747   1.21197   1.21940   1.22620   1.22844
 Alpha virt. eigenvalues --    1.23324   1.23636   1.23968   1.25054   1.25459
 Alpha virt. eigenvalues --    1.25657   1.25908   1.26504   1.27466   1.27961
 Alpha virt. eigenvalues --    1.28982   1.29615   1.30155   1.30503   1.31595
 Alpha virt. eigenvalues --    1.32089   1.32643   1.33704   1.33850   1.34282
 Alpha virt. eigenvalues --    1.34980   1.36184   1.37777   1.37962   1.39199
 Alpha virt. eigenvalues --    1.40055   1.40687   1.42246   1.43876   1.44371
 Alpha virt. eigenvalues --    1.46397   1.47254   1.48489   1.50990   1.51517
 Alpha virt. eigenvalues --    1.52521   1.55628   1.56622   1.57489   1.58512
 Alpha virt. eigenvalues --    1.59929   1.61168   1.62070   1.62576   1.63675
 Alpha virt. eigenvalues --    1.64915   1.65807   1.67691   1.69000   1.72122
 Alpha virt. eigenvalues --    1.73855   1.75571   1.76589   1.78140   1.79331
 Alpha virt. eigenvalues --    1.80478   1.82054   1.83628   1.84083   1.85389
 Alpha virt. eigenvalues --    1.85817   1.87078   1.89451   1.89648   1.90752
 Alpha virt. eigenvalues --    1.92556   1.93562   1.94667   1.95069   1.96596
 Alpha virt. eigenvalues --    1.97602   1.99686   2.01031   2.02571   2.03074
 Alpha virt. eigenvalues --    2.03523   2.04407   2.07364   2.07854   2.08488
 Alpha virt. eigenvalues --    2.10306   2.11893   2.12083   2.13447   2.14365
 Alpha virt. eigenvalues --    2.15972   2.17499   2.18666   2.20269   2.20601
 Alpha virt. eigenvalues --    2.21902   2.22439   2.23799   2.24089   2.26483
 Alpha virt. eigenvalues --    2.27132   2.28432   2.30667   2.31170   2.32587
 Alpha virt. eigenvalues --    2.33948   2.34726   2.35914   2.37573   2.38394
 Alpha virt. eigenvalues --    2.38817   2.40302   2.40971   2.41512   2.42620
 Alpha virt. eigenvalues --    2.43617   2.46471   2.46595   2.46833   2.47701
 Alpha virt. eigenvalues --    2.50162   2.51047   2.52264   2.53801   2.54104
 Alpha virt. eigenvalues --    2.55168   2.56848   2.57276   2.58425   2.61925
 Alpha virt. eigenvalues --    2.62553   2.63382   2.64723   2.66375   2.67262
 Alpha virt. eigenvalues --    2.67513   2.68184   2.68638   2.68991   2.69588
 Alpha virt. eigenvalues --    2.69966   2.70456   2.71515   2.71636   2.72489
 Alpha virt. eigenvalues --    2.72624   2.74661   2.74841   2.75916   2.76539
 Alpha virt. eigenvalues --    2.76667   2.78689   2.79159   2.79448   2.81290
 Alpha virt. eigenvalues --    2.81752   2.82452   2.83217   2.84273   2.85558
 Alpha virt. eigenvalues --    2.86319   2.87667   2.88476   2.89041   2.89196
 Alpha virt. eigenvalues --    2.89976   2.90406   2.91270   2.92191   2.92581
 Alpha virt. eigenvalues --    2.93909   2.94223   2.94644   2.94780   2.96010
 Alpha virt. eigenvalues --    2.96339   2.96608   2.97812   2.98019   2.99080
 Alpha virt. eigenvalues --    2.99431   3.00049   3.00571   3.01152   3.02170
 Alpha virt. eigenvalues --    3.02817   3.03243   3.04324   3.04519   3.05276
 Alpha virt. eigenvalues --    3.06175   3.06939   3.07388   3.08037   3.08922
 Alpha virt. eigenvalues --    3.10567   3.11669   3.12776   3.13385   3.13847
 Alpha virt. eigenvalues --    3.14412   3.15137   3.15334   3.15684   3.17135
 Alpha virt. eigenvalues --    3.18028   3.18914   3.19517   3.20450   3.20637
 Alpha virt. eigenvalues --    3.22099   3.23010   3.24045   3.24928   3.25632
 Alpha virt. eigenvalues --    3.26073   3.26694   3.27234   3.27486   3.28128
 Alpha virt. eigenvalues --    3.28808   3.29134   3.30176   3.30278   3.30656
 Alpha virt. eigenvalues --    3.31418   3.32427   3.33210   3.34149   3.34617
 Alpha virt. eigenvalues --    3.34881   3.35479   3.36781   3.37389   3.38479
 Alpha virt. eigenvalues --    3.39441   3.40339   3.41160   3.41648   3.42436
 Alpha virt. eigenvalues --    3.43335   3.44050   3.44219   3.45670   3.46059
 Alpha virt. eigenvalues --    3.47627   3.48276   3.49051   3.50545   3.51318
 Alpha virt. eigenvalues --    3.51644   3.52001   3.53730   3.53973   3.56818
 Alpha virt. eigenvalues --    3.58009   3.58653   3.60317   3.61518   3.62112
 Alpha virt. eigenvalues --    3.63466   3.64143   3.64399   3.64865   3.67191
 Alpha virt. eigenvalues --    3.68358   3.68820   3.69627   3.70557   3.71285
 Alpha virt. eigenvalues --    3.71891   3.72285   3.73549   3.73659   3.74329
 Alpha virt. eigenvalues --    3.75089   3.76060   3.76626   3.77431   3.78152
 Alpha virt. eigenvalues --    3.78982   3.79600   3.80566   3.81747   3.82354
 Alpha virt. eigenvalues --    3.82828   3.83269   3.85713   3.86099   3.86261
 Alpha virt. eigenvalues --    3.86782   3.86980   3.87713   3.88730   3.89628
 Alpha virt. eigenvalues --    3.90530   3.91794   3.92596   3.94280   3.94830
 Alpha virt. eigenvalues --    3.96143   3.97500   3.98601   3.99199   4.00443
 Alpha virt. eigenvalues --    4.01092   4.02758   4.03070   4.04859   4.05222
 Alpha virt. eigenvalues --    4.06226   4.06381   4.07694   4.08464   4.09477
 Alpha virt. eigenvalues --    4.10653   4.12106   4.12729   4.13705   4.14508
 Alpha virt. eigenvalues --    4.15151   4.15486   4.16279   4.18094   4.18511
 Alpha virt. eigenvalues --    4.19736   4.20417   4.21314   4.21540   4.21828
 Alpha virt. eigenvalues --    4.24179   4.24258   4.25400   4.26614   4.26907
 Alpha virt. eigenvalues --    4.27162   4.28602   4.29512   4.29889   4.30690
 Alpha virt. eigenvalues --    4.31010   4.32735   4.34585   4.36794   4.38833
 Alpha virt. eigenvalues --    4.40455   4.41303   4.43443   4.44432   4.45442
 Alpha virt. eigenvalues --    4.46294   4.47767   4.49527   4.51136   4.51983
 Alpha virt. eigenvalues --    4.52569   4.55164   4.56109   4.56702   4.58209
 Alpha virt. eigenvalues --    4.59718   4.60942   4.61109   4.62899   4.63705
 Alpha virt. eigenvalues --    4.65242   4.65964   4.66180   4.67324   4.68526
 Alpha virt. eigenvalues --    4.69652   4.70434   4.70656   4.72881   4.74319
 Alpha virt. eigenvalues --    4.75236   4.75747   4.76771   4.78670   4.79424
 Alpha virt. eigenvalues --    4.81108   4.82813   4.83569   4.84518   4.86098
 Alpha virt. eigenvalues --    4.88313   4.89977   4.90674   4.91217   4.92509
 Alpha virt. eigenvalues --    4.93162   4.94573   4.95886   4.96345   4.97192
 Alpha virt. eigenvalues --    4.98663   4.99090   4.99972   5.01022   5.02501
 Alpha virt. eigenvalues --    5.03389   5.05121   5.06741   5.07284   5.10180
 Alpha virt. eigenvalues --    5.11439   5.11512   5.12898   5.14171   5.14580
 Alpha virt. eigenvalues --    5.16694   5.16891   5.17807   5.19248   5.20308
 Alpha virt. eigenvalues --    5.20932   5.23445   5.24363   5.26166   5.27673
 Alpha virt. eigenvalues --    5.30721   5.31865   5.33499   5.36521   5.36671
 Alpha virt. eigenvalues --    5.40574   5.43331   5.44552   5.45209   5.48177
 Alpha virt. eigenvalues --    5.50321   5.51998   5.52100   5.53836   5.55485
 Alpha virt. eigenvalues --    5.56806   5.58146   5.59794   5.61148   5.61734
 Alpha virt. eigenvalues --    5.63189   5.65249   5.66278   5.66933   5.67569
 Alpha virt. eigenvalues --    5.68513   5.69281   5.72321   5.72933   5.74689
 Alpha virt. eigenvalues --    5.75189   5.78673   5.78745   5.79473   5.81250
 Alpha virt. eigenvalues --    5.83231   5.86480   5.89976   5.91324   5.96166
 Alpha virt. eigenvalues --    5.97857   6.00713   6.04872   6.06640   6.10301
 Alpha virt. eigenvalues --    6.16650   6.18050   6.20536   6.22896   6.25499
 Alpha virt. eigenvalues --    6.45677   6.46588   6.54030   6.55603   6.60300
 Alpha virt. eigenvalues --    6.60697   6.61303   6.62580   6.63913   6.67560
 Alpha virt. eigenvalues --    6.79697   6.80148   6.80853   6.88211   6.89449
 Alpha virt. eigenvalues --    6.91388   6.91922   6.92640   6.94119   7.06579
 Alpha virt. eigenvalues --    7.18000   7.18447   7.22306   7.28545   7.29461
 Alpha virt. eigenvalues --    7.67432   8.00286   8.10661   8.11270   8.12334
 Alpha virt. eigenvalues --    8.16880   8.19934   8.26656   8.36315   8.66928
 Alpha virt. eigenvalues --    8.74675   8.76444   8.77709   8.80624   8.82020
 Alpha virt. eigenvalues --    8.83796   8.84249   8.86096   8.87575   8.90955
 Alpha virt. eigenvalues --    8.93192   8.94386   8.95459   9.02105   9.05793
 Alpha virt. eigenvalues --    9.07988   9.09680   9.16021   9.21233   9.31425
 Alpha virt. eigenvalues --    9.35632   9.40277   9.41407   9.45730   9.48669
 Alpha virt. eigenvalues --    9.57728   9.62621   9.77999   9.81779  10.01673
 Alpha virt. eigenvalues --   10.07605  10.11875  10.12065  10.13533  10.17290
 Alpha virt. eigenvalues --   10.18839  10.19129  10.20356  10.24568  10.30311
 Alpha virt. eigenvalues --   10.34843  10.36469  10.82532  11.72032  11.75043
 Alpha virt. eigenvalues --   11.80640  11.92514  11.99909  12.01982  12.11970
 Alpha virt. eigenvalues --   12.15477  12.21911  12.23918  12.30357  12.34427
 Alpha virt. eigenvalues --   12.40440  12.56474  12.59398  12.85617  12.86521
 Alpha virt. eigenvalues --   12.91108  14.84571  14.96459  14.99124  15.23016
 Alpha virt. eigenvalues --   15.27303  15.42296  15.98706  15.99107  16.02970
 Alpha virt. eigenvalues --   16.86646  16.87805  21.89816  22.00829  22.06064
 Alpha virt. eigenvalues --   40.12036  40.15489  40.19335  40.20241  40.21224
 Alpha virt. eigenvalues --   40.26969  40.30083  40.37200  40.57079  40.65325
[...]
 Alpha virt. eigenvalues --    6.78279   6.80580   6.85879   6.87016   6.88005
 Alpha virt. eigenvalues --    6.92200   6.94617   7.08262   7.10166   7.11786
 Alpha virt. eigenvalues --    7.15097   7.20805   7.29031   7.43616   8.68212
 Alpha virt. eigenvalues --    9.53048   9.92203  11.99311  12.15872  12.26453
 Alpha virt. eigenvalues --   12.44128  12.56580  12.78110  12.94807  13.30744
 Alpha virt. eigenvalues --   13.47681  13.52305  13.57926  13.74839  13.94805
 Alpha virt. eigenvalues --   15.52745
          Condensed to atoms (all electrons):
               1          2          3          4          5          6
     1  C    5.448754   0.194966   0.010661  -0.043344  -0.014357   0.291584
     2  C    0.194966   5.603005   0.175436  -0.029572  -0.054218   0.040681
     3  C    0.010661   0.175436   5.516992   0.340924  -0.048239  -0.074283
     4  C   -0.043344  -0.029572   0.340924   5.232913   0.417303  -0.023072
     5  C   -0.014357  -0.054218  -0.048239   0.417303   5.112956   0.373266
     6  C    0.291584   0.040681  -0.074283  -0.023072   0.373266   4.889028
     7  H    0.453411  -0.038544   0.009901  -0.001317   0.004522  -0.072852
     8  H   -0.022481   0.448968  -0.088723   0.006092  -0.001864   0.007735
     9  H   -0.003876   0.010202  -0.071947   0.428605  -0.034840   0.010021
    10  H    0.014038  -0.005907   0.013049  -0.055751   0.454569  -0.080362
    11  C    0.007319  -0.055747   0.178375  -0.039107   0.009030  -0.001956
    12  H    0.000964  -0.002616  -0.064999   0.005803  -0.000205  -0.000018
    13  H   -0.000300   0.004910  -0.041336  -0.006568   0.000344   0.000053
    14  C   -0.000022  -0.004048   0.045333  -0.014173  -0.001806  -0.000035
    15  H   -0.000012  -0.002261   0.003916   0.001531   0.000065  -0.000008
    16  C    0.000116   0.002771   0.002363  -0.007591   0.000357  -0.000096
    17  O   -0.090420   0.013700  -0.000606   0.002656  -0.049823   0.393919
    18  H   -0.005635   0.004671  -0.000366  -0.000762   0.002462  -0.042895
    19  O    0.000016  -0.001094  -0.027829   0.006118   0.001644  -0.000026
    20  N    0.000280   0.002452  -0.035957   0.000721   0.000394   0.000041
    21  H    0.000177  -0.001573   0.019108   0.004362  -0.000160  -0.000537
    22  N    0.000002  -0.000068  -0.001333   0.000455   0.000045   0.000000
    23  H   -0.000001   0.000084  -0.000043  -0.000107  -0.000010   0.000000
    24  C   -0.000059   0.000495  -0.001810  -0.000134  -0.000007   0.000023
    25  C   -0.000087  -0.000375   0.000108   0.000042   0.000011  -0.000016
    26  H   -0.000002  -0.000085   0.000067   0.000004   0.000000  -0.000001
    27  H   -0.000001   0.000061  -0.000036  -0.000009  -0.000001   0.000001
    28  H    0.000423   0.000495   0.000196  -0.000101  -0.000001  -0.000002
    29  C    0.000000   0.000017   0.000281  -0.000198  -0.000019   0.000000
    30  H    0.000000   0.000004  -0.000003  -0.000024  -0.000009   0.000000
    31  H    0.000000   0.000000   0.000007  -0.000007  -0.000001   0.000000
    32  H    0.000000   0.000000   0.000019   0.000005   0.000000   0.000000
    33  O   -0.000001  -0.000037  -0.000156   0.000003   0.000000   0.000000
               7          8          9         10         11         12
     1  C    0.453411  -0.022481  -0.003876   0.014038   0.007319   0.000964
     2  C   -0.038544   0.448968   0.010202  -0.005907  -0.055747  -0.002616
     3  C    0.009901  -0.088723  -0.071947   0.013049   0.178375  -0.064999
     4  C   -0.001317   0.006092   0.428605  -0.055751  -0.039107   0.005803
     5  C    0.004522  -0.001864  -0.034840   0.454569   0.009030  -0.000205
     6  C   -0.072852   0.007735   0.010021  -0.080362  -0.001956  -0.000018
     7  H    0.531146  -0.006806   0.000021  -0.000217  -0.000260  -0.000059
     8  H   -0.006806   0.477412  -0.000104   0.000047   0.002884   0.002356
     9  H    0.000021  -0.000104   0.452161  -0.008121   0.000645   0.000140
    10  H   -0.000217   0.000047  -0.008121   0.535932  -0.000115   0.000017
    11  C   -0.000260   0.002884   0.000645  -0.000115   5.313188   0.453405
    12  H   -0.000059   0.002356   0.000140   0.000017   0.453405   0.471472
    13  H    0.000015   0.000223  -0.000275  -0.000026   0.426474  -0.003415
    14  C    0.000021  -0.001382  -0.000065   0.000013   0.179752  -0.052306
    15  H    0.000000  -0.000346  -0.000086   0.000000  -0.018580  -0.005550
    16  C   -0.000001   0.000182  -0.001970   0.000030  -0.065493   0.006421
    17  O   -0.004144  -0.000109  -0.000116   0.006297   0.000005  -0.000001
    18  H    0.004495  -0.000006   0.000036  -0.000949  -0.000006   0.000000
    19  O    0.000000  -0.000027   0.019622  -0.000015   0.023579   0.000808
    20  N    0.000000   0.002215  -0.000206  -0.000001  -0.022583  -0.000627
    21  H    0.000010  -0.000924  -0.000155   0.000011  -0.009619   0.000421
    22  N    0.000000   0.000000   0.000158   0.000000   0.007110   0.000042
    23  H    0.000000   0.000007  -0.000027   0.000000   0.000292  -0.000058
    24  C   -0.000002   0.000158  -0.000095   0.000000   0.004889   0.000372
    25  C    0.000002   0.000110  -0.000006   0.000000   0.000197   0.000013
    26  H    0.000000  -0.000041   0.000000   0.000000   0.000005  -0.000009
    27  H    0.000000   0.000014   0.000000   0.000000  -0.000004   0.000001
    28  H    0.000017   0.000075   0.000001   0.000000  -0.000447  -0.000001
    29  C    0.000000   0.000001   0.000069   0.000000  -0.000968   0.000015
    30  H    0.000000   0.000000   0.000268  -0.000001   0.000068   0.000000
    31  H    0.000000   0.000000   0.000004   0.000000  -0.000001  -0.000001
    32  H    0.000000   0.000000  -0.000072   0.000000  -0.000143  -0.000001
    33  O    0.000000  -0.000016   0.000001   0.000000   0.001428   0.000080
              13         14         15         16         17         18
     1  C   -0.000300  -0.000022  -0.000012   0.000116  -0.090420  -0.005635
     2  C    0.004910  -0.004048  -0.002261   0.002771   0.013700   0.004671
     3  C   -0.041336   0.045333   0.003916   0.002363  -0.000606  -0.000366
     4  C   -0.006568  -0.014173   0.001531  -0.007591   0.002656  -0.000762
     5  C    0.000344  -0.001806   0.000065   0.000357  -0.049823   0.002462
     6  C    0.000053  -0.000035  -0.000008  -0.000096   0.393919  -0.042895
     7  H    0.000015   0.000021   0.000000  -0.000001  -0.004144   0.004495
     8  H    0.000223  -0.001382  -0.000346   0.000182  -0.000109  -0.000006
     9  H   -0.000275  -0.000065  -0.000086  -0.001970  -0.000116   0.000036
    10  H   -0.000026   0.000013   0.000000   0.000030   0.006297  -0.000949
    11  C    0.426474   0.179752  -0.018580  -0.065493   0.000005  -0.000006
    12  H   -0.003415  -0.052306  -0.005550   0.006421  -0.000001   0.000000
    13  H    0.459098  -0.056872  -0.001936   0.004559   0.000000   0.000000
    14  C   -0.056872   5.469051   0.431837   0.166275   0.000000   0.000000
    15  H   -0.001936   0.431837   0.475002  -0.046283   0.000000   0.000000
    16  C    0.004559   0.166275  -0.046283   4.574556   0.000000   0.000000
    17  O    0.000000   0.000000   0.000000   0.000000   7.661517   0.358687
    18  H    0.000000   0.000000   0.000000   0.000000   0.358687   0.492570
    19  O    0.013369  -0.098682   0.002167   0.693852   0.000000   0.000000
    20  N    0.004793   0.164406  -0.047717   0.001422   0.000000   0.000000
    21  H    0.000135  -0.023646   0.005307  -0.002191   0.000005  -0.000002
    22  N    0.001014  -0.094593  -0.003915   0.481096   0.000000   0.000000
    23  H   -0.000035   0.008498  -0.002415  -0.028378   0.000000   0.000000
    24  C    0.000108  -0.073878  -0.005142   0.004807   0.000000   0.000000
    25  C    0.000034   0.010457   0.001615  -0.001595   0.000000   0.000000
    26  H   -0.000003  -0.000491   0.000148   0.000005   0.000000   0.000000
    27  H    0.000000  -0.000465  -0.000222   0.000135   0.000000   0.000000
    28  H   -0.000002   0.000107  -0.000332   0.000287  -0.000001   0.000000
    29  C   -0.000055   0.011640  -0.000797  -0.062572   0.000000   0.000000
    30  H   -0.000062   0.002002  -0.000003  -0.008070   0.000000   0.000000
    31  H   -0.000002   0.000696  -0.000100   0.005996   0.000000   0.000000
    32  H    0.000056  -0.001421  -0.000057  -0.003884   0.000000   0.000000
    33  O    0.000024   0.027528   0.017759  -0.019191   0.000000   0.000000
              19         20         21         22         23         24
     1  C    0.000016   0.000280   0.000177   0.000002  -0.000001  -0.000059
     2  C   -0.001094   0.002452  -0.001573  -0.000068   0.000084   0.000495
     3  C   -0.027829  -0.035957   0.019108  -0.001333  -0.000043  -0.001810
     4  C    0.006118   0.000721   0.004362   0.000455  -0.000107  -0.000134
     5  C    0.001644   0.000394  -0.000160   0.000045  -0.000010  -0.000007
     6  C   -0.000026   0.000041  -0.000537   0.000000   0.000000   0.000023
     7  H    0.000000   0.000000   0.000010   0.000000   0.000000  -0.000002
     8  H   -0.000027   0.002215  -0.000924   0.000000   0.000007   0.000158
     9  H    0.019622  -0.000206  -0.000155   0.000158  -0.000027  -0.000095
    10  H   -0.000015  -0.000001   0.000011   0.000000   0.000000   0.000000
    11  C    0.023579  -0.022583  -0.009619   0.007110   0.000292   0.004889
    12  H    0.000808  -0.000627   0.000421   0.000042  -0.000058   0.000372
    13  H    0.013369   0.004793   0.000135   0.001014  -0.000035   0.000108
    14  C   -0.098682   0.164406  -0.023646  -0.094593   0.008498  -0.073878
    15  H    0.002167  -0.047717   0.005307  -0.003915  -0.002415  -0.005142
    16  C    0.693852   0.001422  -0.002191   0.481096  -0.028378   0.004807
    17  O    0.000000   0.000000   0.000005   0.000000   0.000000   0.000000
    18  H    0.000000   0.000000  -0.000002   0.000000   0.000000   0.000000
    19  O    7.862146   0.002550   0.000128  -0.120517   0.002982  -0.000071
    20  N    0.002550   6.603342   0.370668  -0.003527  -0.010451   0.366578
    21  H    0.000128   0.370668   0.462099   0.000489  -0.000640  -0.017692
    22  N   -0.120517  -0.003527   0.000489   6.374952   0.382326   0.008289
    23  H    0.002982  -0.010451  -0.000640   0.382326   0.458824  -0.004262
    24  C   -0.000071   0.366578  -0.017692   0.008289  -0.004262   4.579286
    25  C    0.000010  -0.052502  -0.001262  -0.000244   0.001568   0.282675
    26  H    0.000000  -0.001214   0.000644  -0.000001  -0.000070  -0.024789
    27  H   -0.000002  -0.000106  -0.000333   0.000201   0.000136  -0.027816
    28  H    0.000000   0.010726  -0.001359   0.000050  -0.000249  -0.056133
    29  C    0.007390  -0.000949  -0.000027   0.291616  -0.027162  -0.000059
    30  H    0.006102   0.000017  -0.000027  -0.044113   0.004778  -0.000381
    31  H    0.001447  -0.000099  -0.000005  -0.026561  -0.007475   0.000025
    32  H    0.004224  -0.000040   0.000011  -0.049812   0.000082   0.000239
    33  O    0.000016  -0.138370   0.003553  -0.014454   0.036680   0.660443
              25         26         27         28         29         30
     1  C   -0.000087  -0.000002  -0.000001   0.000423   0.000000   0.000000
     2  C   -0.000375  -0.000085   0.000061   0.000495   0.000017   0.000004
     3  C    0.000108   0.000067  -0.000036   0.000196   0.000281  -0.000003
     4  C    0.000042   0.000004  -0.000009  -0.000101  -0.000198  -0.000024
     5  C    0.000011   0.000000  -0.000001  -0.000001  -0.000019  -0.000009
     6  C   -0.000016  -0.000001   0.000001  -0.000002   0.000000   0.000000
     7  H    0.000002   0.000000   0.000000   0.000017   0.000000   0.000000
     8  H    0.000110  -0.000041   0.000014   0.000075   0.000001   0.000000
     9  H   -0.000006   0.000000   0.000000   0.000001   0.000069   0.000268
    10  H    0.000000   0.000000   0.000000   0.000000   0.000000  -0.000001
    11  C    0.000197   0.000005  -0.000004  -0.000447  -0.000968   0.000068
    12  H    0.000013  -0.000009   0.000001  -0.000001   0.000015   0.000000
    13  H    0.000034  -0.000003   0.000000  -0.000002  -0.000055  -0.000062
    14  C    0.010457  -0.000491  -0.000465   0.000107   0.011640   0.002002
    15  H    0.001615   0.000148  -0.000222  -0.000332  -0.000797  -0.000003
    16  C   -0.001595   0.000005   0.000135   0.000287  -0.062572  -0.008070
    17  O    0.000000   0.000000   0.000000  -0.000001   0.000000   0.000000
    18  H    0.000000   0.000000   0.000000   0.000000   0.000000   0.000000
    19  O    0.000010   0.000000  -0.000002   0.000000   0.007390   0.006102
    20  N   -0.052502  -0.001214  -0.000106   0.010726  -0.000949   0.000017
    21  H   -0.001262   0.000644  -0.000333  -0.001359  -0.000027  -0.000027
    22  N   -0.000244  -0.000001   0.000201   0.000050   0.291616  -0.044113
    23  H    0.001568  -0.000070   0.000136  -0.000249  -0.027162   0.004778
    24  C    0.282675  -0.024789  -0.027816  -0.056133  -0.000059  -0.000381
    25  C    4.959997   0.388325   0.385022   0.401528  -0.000040   0.000001
    26  H    0.388325   0.569971  -0.026170  -0.026050  -0.000002   0.000000
    27  H    0.385022  -0.026170   0.575569  -0.023864   0.000014  -0.000005
    28  H    0.401528  -0.026050  -0.023864   0.587879   0.000000   0.000001
    29  C   -0.000040  -0.000002   0.000014   0.000000   4.767783   0.397085
    30  H    0.000001   0.000000  -0.000005   0.000001   0.397085   0.614145
    31  H   -0.000024   0.000000   0.000014   0.000000   0.396486  -0.026681
    32  H    0.000000   0.000000   0.000002   0.000000   0.402073  -0.057765
    33  O   -0.060654   0.001202   0.002777   0.003945   0.000127  -0.000024
              31         32         33
     1  C    0.000000   0.000000  -0.000001
     2  C    0.000000   0.000000  -0.000037
     3  C    0.000007   0.000019  -0.000156
     4  C   -0.000007   0.000005   0.000003
     5  C   -0.000001   0.000000   0.000000
     6  C    0.000000   0.000000   0.000000
     7  H    0.000000   0.000000   0.000000
     8  H    0.000000   0.000000  -0.000016
     9  H    0.000004  -0.000072   0.000001
    10  H    0.000000   0.000000   0.000000
    11  C   -0.000001  -0.000143   0.001428
    12  H   -0.000001  -0.000001   0.000080
    13  H   -0.000002   0.000056   0.000024
    14  C    0.000696  -0.001421   0.027528
    15  H   -0.000100  -0.000057   0.017759
    16  C    0.005996  -0.003884  -0.019191
    17  O    0.000000   0.000000   0.000000
    18  H    0.000000   0.000000   0.000000
    19  O    0.001447   0.004224   0.000016
    20  N   -0.000099  -0.000040  -0.138370
    21  H   -0.000005   0.000011   0.003553
    22  N   -0.026561  -0.049812  -0.014454
    23  H   -0.007475   0.000082   0.036680
    24  C    0.000025   0.000239   0.660443
    25  C   -0.000024   0.000000  -0.060654
    26  H    0.000000   0.000000   0.001202
    27  H    0.000014   0.000002   0.002777
    28  H    0.000000   0.000000   0.003945
    29  C    0.396486   0.402073   0.000127
    30  H   -0.026681  -0.057765  -0.000024
    31  H    0.593925  -0.028295   0.000153
    32  H   -0.028295   0.626110  -0.000037
    33  O    0.000153  -0.000037   7.903847
 Mulliken charges:
               1
     1  C   -0.242114
     2  C   -0.306774
     3  C    0.140930
     4  C   -0.225704
     5  C   -0.171409
     6  C    0.289803
     7  H    0.120640
     8  H    0.174352
     9  H    0.200008
    10  H    0.127462
    11  C   -0.393612
    12  H    0.187537
    13  H    0.195679
    14  C   -0.093734
    15  H    0.196415
    16  C    0.302084
    17  O   -0.291565
    18  H    0.187701
    19  O   -0.399908
    20  N   -0.216255
    21  H    0.193027
    22  N   -0.188706
    23  H    0.185126
    24  C    0.303942
    25  C   -0.314911
    26  H    0.118558
    27  H    0.115089
    28  H    0.102810
    29  C   -0.181748
    30  H    0.112698
    31  H    0.090499
    32  H    0.108705
    33  O   -0.426624
 Sum of Mulliken charges =   0.00000
 Mulliken charges with hydrogens summed into heavy atoms:
               1
     1  C   -0.121475
     2  C   -0.132421
     3  C    0.140930
     4  C   -0.025696
     5  C   -0.043947
     6  C    0.289803
    11  C   -0.010397
    14  C    0.102681
    16  C    0.302084
    17  O   -0.103864
    19  O   -0.399908
    20  N   -0.023228
    22  N   -0.003579
    24  C    0.303942
    25  C    0.021546
    29  C    0.130154
    33  O   -0.426624
 Electronic spatial extent (au):  <R**2>=           4782.9224
 Charge=              0.0000 electrons
 Dipole moment (field-independent basis, Debye):
    X=             -1.9602    Y=              3.5941    Z=             -1.0417  Tot=              4.2243
 Quadrupole moment (field-independent basis, Debye-Ang):
   XX=            -98.8217   YY=           -100.4952   ZZ=            -97.8235
   XY=            -12.3131   XZ=             -5.0471   YZ=              0.2926
 Traceless Quadrupole moment (field-independent basis, Debye-Ang):
   XX=              0.2251   YY=             -1.4484   ZZ=              1.2233
   XY=            -12.3131   XZ=             -5.0471   YZ=              0.2926
 Octapole moment (field-independent basis, Debye-Ang**2):
  XXX=            -45.5512  YYY=             36.1244  ZZZ=             -1.8455  XYY=            -18.5221
  XXY=              7.8995  XXZ=            -22.4534  XZZ=             20.8520  YZZ=              2.0908
  YYZ=            -18.1018  XYZ=              2.9882
 Hexadecapole moment (field-independent basis, Debye-Ang**3):
 XXXX=          -3806.7446 YYYY=          -1539.0389 ZZZZ=           -599.9771 XXXY=           -395.4811
 XXXZ=            -28.2595 YYYX=             24.3963 YYYZ=             12.2726 ZZZX=             11.2872
 ZZZY=             -1.3580 XXYY=           -902.6660 XXZZ=           -782.7908 YYZZ=           -341.0011
 XXYZ=            -26.0772 YYXZ=             -9.9209 ZZXY=             -9.0037
 N-N= 1.220821024777D+03 E-N=-4.311943275762D+03  KE= 7.961986105113D+02
 Calculating spin-rotation constants.
 Leave Link  601 at Wed Jun 25 08:24:01 2014, MaxMem=  4294967296 cpu:        93.6
 (Enter /home/ztw1e12/g09/l9999.exe)

 Test job not archived.
 1\1\GINC-GREEN0701\SP\RM06\Gen\C12H16N2O3\ROOT\25-Jun-2014\0\\#P Geom=
 AllCheck Guess=TCheck SCRF=Check GenChk RM06/ChkBas NMR=ReadFC IOp(3/6
 =22)\\NMR spin-spin scan\\0,1\C,0,3.376994,0.081422,-0.155246\C,0,2.25
 744,-0.244413,-0.902454\C,0,1.223922,-1.008381,-0.371798\C,0,1.347963,
 -1.440278,0.947153\C,0,2.458828,-1.125436,1.705441\C,0,3.477284,-0.360
 871,1.153878\H,0,4.177184,0.674193,-0.583319\H,0,2.187944,0.099051,-1.
 929001\H,0,0.55982,-2.040889,1.384138\H,0,2.553463,-1.470109,2.72745\C
 ,0,0.014447,-1.331335,-1.202842\H,0,0.27656,-1.205989,-2.255264\H,0,-0
 .281077,-2.371614,-1.067908\C,0,-1.213868,-0.46223,-0.934498\H,0,-1.87
 3802,-0.518755,-1.805201\C,0,-2.055393,-0.971415,0.241122\O,0,4.554137
 ,-0.0796,1.938942\H,0,5.19122,0.440381,1.436075\O,0,-1.832916,-2.04305
 3,0.798389\N,0,-0.828985,0.93024,-0.780645\H,0,0.10679,1.116328,-0.448
 432\N,0,-3.082893,-0.187984,0.582037\H,0,-3.272873,0.629202,0.016624\C
 ,0,-1.586725,1.971648,-1.161175\C,0,-0.953813,3.319704,-1.068454\H,0,-
 0.944946,3.76649,-2.062691\H,0,-1.56909,3.95465,-0.431653\H,0,0.061571
 ,3.291339,-0.679539\C,0,-3.996373,-0.558491,1.637964\H,0,-3.465336,-0.
 709249,2.577727\H,0,-4.719283,0.240417,1.772416\H,0,-4.532189,-1.47868
 4,1.399143\O,0,-2.745161,1.831243,-1.559508\\Version=EM64L-G09RevD.01\
 State=1-A\HF=-801.8714654\RMSD=4.275e-09\Dipole=1.0268245,1.2761709,-0
 .2814364\Quadrupole=4.3001195,-2.2275412,-2.0725782,4.7620454,-7.37002
 47,2.8410566\PG=C01 [X(C12H16N2O3)]\\@


 SUCCESS-- IF YOU HAVE TRIED TO DO SOMETHING AND FAILED
           YOU ARE BETTER OFF THAN IF YOU HAD TRIED TO DO
           NOTHING AND SUCCEEDED.

                   -- FROM THE BACK OF A SUGAR PACKET
 Job cpu time:       3 days  8 hours 49 minutes 30.1 seconds.
 File lengths (MBytes):  RWF=   3656 Int=      0 D2E=      0 Chk=     64 Scr=      8
 Normal termination of Gaussian 09 at Wed Jun 25 08:24:02 2014.
