 Entering Gaussian System, Link 0=g09
 Input=scan_input_8.gjf
 Output=scan_input_8.log
 Initial command:
 /home/ztw1e12/g09/l1.exe "/home/ztw1e12/tyrosine_scan/tyrosine_chi1_scan/Gau-7427.inp" -scrdir="/home/ztw1e12/tyrosine_scan/tyrosine_chi1_scan/"
 Default is to use a total of   8 processors:
                                8 via shared-memory
                                1 via Linda
 Entering Link 1 = /home/ztw1e12/g09/l1.exe PID=      7428.
  
 Copyright (c) 1988,1990,1992,1993,1995,1998,2003,2009,2013,
            Gaussian, Inc.  All Rights Reserved.
  
 This is part of the Gaussian(R) 09 program.  It is based on
 the Gaussian(R) 03 system (copyright 2003, Gaussian, Inc.),
 the Gaussian(R) 98 system (copyright 1998, Gaussian, Inc.),
 the Gaussian(R) 94 system (copyright 1995, Gaussian, Inc.),
 the Gaussian 92(TM) system (copyright 1992, Gaussian, Inc.),
 the Gaussian 90(TM) system (copyright 1990, Gaussian, Inc.),
 the Gaussian 88(TM) system (copyright 1988, Gaussian, Inc.),
 the Gaussian 86(TM) system (copyright 1986, Carnegie Mellon
 University), and the Gaussian 82(TM) system (copyright 1983,
 Carnegie Mellon University). Gaussian is a federally registered
 trademark of Gaussian, Inc.
  
 This software contains proprietary and confidential information,
 including trade secrets, belonging to Gaussian, Inc.
  
 This software is provided under written license and may be
 used, copied, transmitted, or stored only in accord with that
 written license.
  
 The following legend is applicable only to US Government
 contracts under FAR:
  
                    RESTRICTED RIGHTS LEGEND
  
 Use, reproduction and disclosure by the US Government is
 subject to restrictions as set forth in subparagraphs (a)
 and (c) of the Commercial Computer Software - Restricted
 Rights clause in FAR 52.227-19.
  
 Gaussian, Inc.
 340 Quinnipiac St., Bldg. 40, Wallingford CT 06492
  
  
 ---------------------------------------------------------------
 Warning -- This program may not be used in any manner that
 competes with the business of Gaussian, Inc. or will provide
 assistance to any competitor of Gaussian, Inc.  The licensee
 of this program is prohibited from giving any competitor of
 Gaussian, Inc. access to this program.  By using this program,
 the user acknowledges that Gaussian, Inc. is engaged in the
 business of creating and licensing software in the field of
 computational chemistry and represents and warrants to the
 licensee that it is not a competitor of Gaussian, Inc. and that
 it will not use this program in any manner prohibited above.
 ---------------------------------------------------------------
  

 Cite this work as:
 Gaussian 09, Revision D.01,
 M. J. Frisch, G. W. Trucks, H. B. Schlegel, G. E. Scuseria, 
 M. A. Robb, J. R. Cheeseman, G. Scalmani, V. Barone, B. Mennucci, 
 G. A. Petersson, H. Nakatsuji, M. Caricato, X. Li, H. P. Hratchian, 
 A. F. Izmaylov, J. Bloino, G. Zheng, J. L. Sonnenberg, M. Hada, 
 M. Ehara, K. Toyota, R. Fukuda, J. Hasegawa, M. Ishida, T. Nakajima, 
 Y. Honda, O. Kitao, H. Nakai, T. Vreven, J. A. Montgomery, Jr., 
 J. E. Peralta, F. Ogliaro, M. Bearpark, J. J. Heyd, E. Brothers, 
 K. N. Kudin, V. N. Staroverov, T. Keith, R. Kobayashi, J. Normand, 
 K. Raghavachari, A. Rendell, J. C. Burant, S. S. Iyengar, J. Tomasi, 
 M. Cossi, N. Rega, J. M. Millam, M. Klene, J. E. Knox, J. B. Cross, 
 V. Bakken, C. Adamo, J. Jaramillo, R. Gomperts, R. E. Stratmann, 
 O. Yazyev, A. J. Austin, R. Cammi, C. Pomelli, J. W. Ochterski, 
 R. L. Martin, K. Morokuma, V. G. Zakrzewski, G. A. Voth, 
 P. Salvador, J. J. Dannenberg, S. Dapprich, A. D. Daniels, 
 O. Farkas, J. B. Foresman, J. V. Ortiz, J. Cioslowski, 
 and D. J. Fox, Gaussian, Inc., Wallingford CT, 2013.
 
 ******************************************
 Gaussian 09:  EM64L-G09RevD.01 24-Apr-2013
                24-Jun-2014 
 ******************************************
 %Mem=32GB
 %NProcShared=16
 Will use up to   16 processors via shared memory.
 Default route:  MaxDisk=100GB
 ----------------------------------------------------------------------
 #p nmr=(giao,mixed,spinspin) m06/cc-pvtz scf=tight integral=(grid=ultr
 afine)
 ----------------------------------------------------------------------
 1/38=1/1;
 2/12=2,17=6,18=5,40=1/2;
 3/5=16,6=1,10=1100000,11=2,16=1,25=1,30=1,74=-54,75=-5/1,2,8,3;
 4//1;
 5/5=2,32=2,38=5/2;
 8/6=1,10=90,11=11/1;
 10/13=100,45=16,47=3/2;
 6/7=2,8=2,9=2,10=2,28=1/1;
 99/9=1/99;
 Leave Link    1 at Tue Jun 24 04:07:47 2014, MaxMem=  4294967296 cpu:         8.9
 (Enter /home/ztw1e12/g09/l101.exe)
 ------------------
 NMR spin-spin scan
 ------------------
 Symbolic Z-matrix:
 Charge =  0 Multiplicity = 1
 C                     3.43273  -0.0166   -0.59878 
 C                     2.23021  -0.47711  -1.10532 
 C                     1.27573  -1.06236  -0.28318 
 C                     1.55952  -1.16558   1.07564 
 C                     2.75528  -0.70961   1.59871 
 C                     3.69598  -0.13293   0.75771 
 H                     4.17399   0.43317  -1.24942 
 H                     2.02762  -0.38112  -2.16634 
 H                     0.82592  -1.61476   1.73625 
 H                     2.97434  -0.79726   2.65536 
 C                    -0.03893  -1.52555  -0.83515 
 H                     0.09905  -1.77465  -1.888 
 H                    -0.35     -2.43853  -0.3283 
 C                    -1.19908  -0.51711  -0.74231 
 H                    -1.69294  -0.43909  -1.7113 
 C                    -2.25335  -0.94823   0.28229 
 O                     4.86243   0.30086   1.31148 
 H                     5.42603   0.66951   0.62175 
 O                    -2.0154   -1.73646   1.19374 
 N                    -0.75608   0.822    -0.38657 
 H                     0.09775   0.91345   0.14514 
 N                    -3.44823  -0.37238   0.11816 
 H                    -3.52525   0.35007  -0.58674 
 C                    -1.37498   1.93754  -0.81026 
 C                    -0.74388   3.23252  -0.4179 
 H                    -0.56916   3.82259  -1.31698 
 H                    -1.44557   3.7879    0.20456 
 H                     0.19297   3.10962   0.12111 
 C                    -4.51938  -0.57082   1.06721 
 H                    -4.24868  -0.20584   2.05928 
 H                    -5.39786  -0.03235   0.72481 
 H                    -4.77013  -1.628     1.15094 
 O                    -2.4098    1.90466  -1.47874 
 
 NAtoms=     33 NQM=       33 NQMF=       0 NMMI=      0 NMMIF=      0
                NMic=       0 NMicF=      0.
                    Isotopes and Nuclear Properties:
 (Nuclear quadrupole moments (NQMom) in fm**2, nuclear magnetic moments (NMagM)
  in nuclear magnetons)

  Atom         1           2           3           4           5           6           7           8           9          10
 IAtWgt=          12          12          12          12          12          12           1           1           1           1
 AtmWgt=  12.0000000  12.0000000  12.0000000  12.0000000  12.0000000  12.0000000   1.0078250   1.0078250   1.0078250   1.0078250
 NucSpn=           0           0           0           0           0           0           1           1           1           1
 AtZEff=   0.0000000   0.0000000   0.0000000   0.0000000   0.0000000   0.0000000   0.0000000   0.0000000   0.0000000   0.0000000
 NQMom=    0.0000000   0.0000000   0.0000000   0.0000000   0.0000000   0.0000000   0.0000000   0.0000000   0.0000000   0.0000000
 NMagM=    0.0000000   0.0000000   0.0000000   0.0000000   0.0000000   0.0000000   2.7928460   2.7928460   2.7928460   2.7928460
 AtZNuc=   6.0000000   6.0000000   6.0000000   6.0000000   6.0000000   6.0000000   1.0000000   1.0000000   1.0000000   1.0000000

  Atom        11          12          13          14          15          16          17          18          19          20
 IAtWgt=          12           1           1          12           1          12          16           1          16          14
 AtmWgt=  12.0000000   1.0078250   1.0078250  12.0000000   1.0078250  12.0000000  15.9949146   1.0078250  15.9949146  14.0030740
 NucSpn=           0           1           1           0           1           0           0           1           0           2
 AtZEff=   0.0000000   0.0000000   0.0000000   0.0000000   0.0000000   0.0000000   0.0000000   0.0000000   0.0000000   0.0000000
 NQMom=    0.0000000   0.0000000   0.0000000   0.0000000   0.0000000   0.0000000   0.0000000   0.0000000   0.0000000   2.0440000
 NMagM=    0.0000000   2.7928460   2.7928460   0.0000000   2.7928460   0.0000000   0.0000000   2.7928460   0.0000000   0.4037610
 AtZNuc=   6.0000000   1.0000000   1.0000000   6.0000000   1.0000000   6.0000000   8.0000000   1.0000000   8.0000000   7.0000000

  Atom        21          22          23          24          25          26          27          28          29          30
 IAtWgt=           1          14           1          12          12           1           1           1          12           1
 AtmWgt=   1.0078250  14.0030740   1.0078250  12.0000000  12.0000000   1.0078250   1.0078250   1.0078250  12.0000000   1.0078250
 NucSpn=           1           2           1           0           0           1           1           1           0           1
 AtZEff=   0.0000000   0.0000000   0.0000000   0.0000000   0.0000000   0.0000000   0.0000000   0.0000000   0.0000000   0.0000000
 NQMom=    0.0000000   2.0440000   0.0000000   0.0000000   0.0000000   0.0000000   0.0000000   0.0000000   0.0000000   0.0000000
 NMagM=    2.7928460   0.4037610   2.7928460   0.0000000   0.0000000   2.7928460   2.7928460   2.7928460   0.0000000   2.7928460
 AtZNuc=   1.0000000   7.0000000   1.0000000   6.0000000   6.0000000   1.0000000   1.0000000   1.0000000   6.0000000   1.0000000

  Atom        31          32          33
 IAtWgt=           1           1          16
 AtmWgt=   1.0078250   1.0078250  15.9949146
 NucSpn=           1           1           0
 AtZEff=   0.0000000   0.0000000   0.0000000
 NQMom=    0.0000000   0.0000000   0.0000000
 NMagM=    2.7928460   2.7928460   0.0000000
 AtZNuc=   1.0000000   1.0000000   8.0000000
 Leave Link  101 at Tue Jun 24 04:07:48 2014, MaxMem=  4294967296 cpu:         1.6
 (Enter /home/ztw1e12/g09/l202.exe)
                          Input orientation:                          
 ---------------------------------------------------------------------
 Center     Atomic      Atomic             Coordinates (Angstroms)
 Number     Number       Type             X           Y           Z
 ---------------------------------------------------------------------
      1          6           0        3.432725   -0.016603   -0.598784
      2          6           0        2.230212   -0.477110   -1.105317
      3          6           0        1.275726   -1.062360   -0.283179
      4          6           0        1.559524   -1.165582    1.075644
      5          6           0        2.755275   -0.709609    1.598705
      6          6           0        3.695981   -0.132927    0.757711
      7          1           0        4.173990    0.433166   -1.249416
      8          1           0        2.027616   -0.381121   -2.166341
      9          1           0        0.825918   -1.614764    1.736254
     10          1           0        2.974338   -0.797257    2.655355
     11          6           0       -0.038925   -1.525546   -0.835153
     12          1           0        0.099052   -1.774645   -1.888004
     13          1           0       -0.349996   -2.438534   -0.328295
     14          6           0       -1.199083   -0.517106   -0.742308
     15          1           0       -1.692942   -0.439085   -1.711297
     16          6           0       -2.253352   -0.948230    0.282290
     17          8           0        4.862432    0.300856    1.311484
     18          1           0        5.426026    0.669507    0.621751
     19          8           0       -2.015404   -1.736457    1.193743
     20          7           0       -0.756077    0.821995   -0.386565
     21          1           0        0.097745    0.913445    0.145138
     22          7           0       -3.448234   -0.372383    0.118159
     23          1           0       -3.525251    0.350070   -0.586738
     24          6           0       -1.374980    1.937542   -0.810258
     25          6           0       -0.743875    3.232520   -0.417895
     26          1           0       -0.569160    3.822591   -1.316976
     27          1           0       -1.445569    3.787895    0.204555
     28          1           0        0.192974    3.109624    0.121113
     29          6           0       -4.519377   -0.570821    1.067207
     30          1           0       -4.248678   -0.205844    2.059281
     31          1           0       -5.397857   -0.032353    0.724809
     32          1           0       -4.770133   -1.627997    1.150939
     33          8           0       -2.409800    1.904655   -1.478744
 ---------------------------------------------------------------------
                    Distance matrix (angstroms):
                    1          2          3          4          5
     1  C    0.000000
     2  C    1.383720   0.000000
     3  C    2.417821   1.389054   0.000000
     4  C    2.762742   2.383360   1.391976   0.000000
     5  C    2.401698   2.764323   2.419708   1.382507   0.000000
     6  C    1.386692   2.395373   2.793731   2.394140   1.387357
     7  H    1.084015   2.151195   3.401492   3.846730   3.380899
     8  H    2.136455   1.084450   2.139094   3.368227   3.848761
     9  H    3.847332   3.367614   2.141398   1.084596   2.135566
    10  H    3.377715   3.846930   3.404489   2.152405   1.082673
    11  C    3.792774   2.514198   1.499174   2.517093   3.794334
    12  H    3.983237   2.614964   2.113617   3.359635   4.510761
    13  H    4.499766   3.332930   2.130461   2.690301   4.042922
    14  C    4.660981   3.448687   2.575419   3.366806   4.599385
    15  H    5.261999   3.969861   3.352757   4.344350   5.551210
    16  C    5.828867   4.716964   3.575916   3.900599   5.184229
    17  O    2.407066   3.657149   4.155210   3.621500   2.354495
    18  H    2.435919   3.809294   4.587292   4.303883   3.160587
    19  O    5.987751   4.989678   3.669774   3.622148   4.896712
    20  N    4.277189   3.334996   2.773032   3.383863   4.314707
    21  H    3.541257   2.836317   2.339850   2.706472   3.436514
    22  N    6.927350   5.809700   4.790923   5.159804   6.386647
    23  H    6.967641   5.837680   5.013630   5.560185   6.733802
    24  C    5.193980   4.349139   4.037755   4.668760   5.465301
    25  C    5.294668   4.804071   4.747940   5.184555   5.643679
    26  H    5.591985   5.135047   5.323071   5.927714   6.331974
    27  H    6.238374   5.780778   5.582858   5.858866   6.310173
    28  H    4.559335   4.303386   4.329117   4.588679   4.830653
    29  C    8.143624   7.091234   5.970626   6.107933   7.295362
    30  H    8.130503   7.215558   6.061335   5.968572   7.037135
    31  H    8.929240   7.857137   6.827420   7.057793   8.227754
    32  H    8.540785   7.444465   6.239315   6.346972   7.594452
    33  O    6.212943   5.228954   4.880129   5.630878   6.556147
                    6          7          8          9         10
     6  C    0.000000
     7  H    2.139512   0.000000
     8  H    3.375666   2.471990   0.000000
     9  H    3.375004   4.931311   4.265701   0.000000
    10  H    2.136154   4.266186   4.931349   2.475636   0.000000
    11  C    4.292566   4.664421   2.711524   2.714415   4.668384
    12  H    4.757409   4.678391   2.395567   3.699884   5.464858
    13  H    4.781753   5.437056   3.642032   2.514703   4.758903
    14  C    5.134131   5.479972   3.529582   3.383600   5.388881
    15  H    5.935505   5.949374   3.748730   4.428599   6.401519
    16  C    6.023729   6.750193   4.964282   3.469897   5.743080
    17  O    1.362145   2.655121   4.538341   4.488148   2.564516
    18  H    1.911921   2.263784   4.519565   5.255569   3.506810
    19  O    5.948223   6.998920   5.428914   2.895210   5.283553
    20  N    4.694898   5.020086   3.516253   3.598175   5.078509
    21  H    3.797031   4.334884   3.277688   3.074691   4.183596
    22  N    7.176780   7.785722   5.933292   4.736044   6.918621
    23  H    7.361183   7.728154   5.819288   5.309382   7.353379
    24  C    5.697369   5.766028   4.335068   4.893624   6.197271
    25  C    5.693909   5.719546   4.878179   5.531796   6.285625
    26  H    6.175911   5.830115   5.013568   6.390093   7.048318
    27  H    6.489558   6.704303   5.921559   6.057597   6.823900
    28  H    4.815647   4.989014   4.558910   5.032806   5.424213
    29  C    8.232839   9.052589   7.304446   5.487223   7.663501
    30  H    8.050901   9.071777   7.568254   5.276450   7.271660
    31  H    9.094454   9.784402   7.976092   6.500955   8.625876
    32  H    8.606100   9.487225   7.666058   5.626594   7.932857
    33  O    6.814252   6.750123   5.038673   5.761284   7.306165
                   11         12         13         14         15
    11  C    0.000000
    12  H    1.090680   0.000000
    13  H    1.089595   1.753592   0.000000
    14  C    1.539980   2.139901   2.141084   0.000000
    15  H    2.164208   2.241916   2.777408   1.090378   0.000000
    16  C    2.546696   3.305593   2.493308   1.532042   2.132528
    17  O    5.653945   6.101985   6.112490   6.452061   7.256559
    18  H    6.066837   6.375688   6.627589   6.867370   7.573097
    19  O    2.840312   3.737586   2.362858   2.429298   3.197876
    20  N    2.495293   3.118991   3.286236   1.454647   2.054983
    21  H    2.632171   3.370385   3.414729   2.125041   2.912430
    22  N    3.723168   4.309787   3.750651   2.412474   2.536219
    23  H    3.966625   4.398100   4.233834   2.487419   2.290143
    24  C    3.711959   4.136984   4.520279   2.461880   2.561509
    25  C    4.828069   5.286156   5.685422   3.791062   4.006782
    26  H    5.395913   5.665830   6.342492   4.422671   4.424958
    27  H    5.593952   6.140563   6.344496   4.414786   4.647477
    28  H    4.738462   5.282183   5.592749   3.979509   4.416757
    29  C    4.960335   5.613586   4.776978   3.781743   3.965624
    30  H    5.276493   6.078236   5.087745   4.152808   4.561080
    31  H    5.777652   6.330749   5.690311   4.474050   4.452689
    32  H    5.132191   5.741571   4.731037   4.191761   4.367495
    33  O    4.219187   4.472033   4.942633   2.805904   2.461927
                   16         17         18         19         20
    16  C    0.000000
    17  O    7.297523   0.000000
    18  H    7.855263   0.963988   0.000000
    19  O    1.228278   7.174199   7.841602   0.000000
    20  N    2.413068   5.892589   6.265649   3.260208   0.000000
    21  H    3.002050   4.943467   5.355114   3.547809   1.009992
    22  N    1.336519   8.422853   8.949393   2.251795   2.988142
    23  H    2.014577   8.599936   9.038133   3.131029   2.816222
    24  C    3.208252   6.788655   7.064860   4.233725   1.344248
    25  C    4.499717   6.558665   6.761477   5.376327   2.410759
    26  H    5.306118   6.986674   7.045769   6.268839   3.147091
    27  H    4.805147   7.292161   7.557593   5.641070   3.101836
    28  H    4.740956   5.577634   5.795657   5.432492   2.528177
    29  C    2.427633   9.425382  10.032342   2.764887   4.267999
    30  H    2.773114   9.155778   9.820012   2.842436   4.385986
    31  H    3.304930  10.282448  10.847104   3.816393   4.848833
    32  H    2.747876   9.825098  10.465191   2.757196   4.947628
    33  O    3.356288   7.952541   8.205964   4.533810   2.258275
                   21         22         23         24         25
    21  H    0.000000
    22  N    3.772009   0.000000
    23  H    3.738868   1.012299   0.000000
    24  C    2.032357   3.239768   2.682106   0.000000
    25  C    2.530502   4.538308   4.009124   1.493054   0.000000
    26  H    3.323503   5.286444   4.618455   2.111757   1.089521
    27  H    3.263098   4.618013   4.095102   2.111548   1.090073
    28  H    2.198374   5.038132   4.684164   2.167881   1.087805
    29  C    4.936707   1.444790   2.138191   4.438918   5.561056
    30  H    4.879359   2.106276   2.798893   4.592004   5.499308
    31  H    5.606442   2.069946   2.317985   4.735024   5.798682
    32  H    5.582723   2.095380   2.912388   5.299663   6.503585
    33  O    3.147582   2.968728   2.111076   1.232399   2.379902
                   26         27         28         29         30
    26  H    0.000000
    27  H    1.756233   0.000000
    28  H    1.776871   1.775341   0.000000
    29  C    6.371076   5.402858   6.053678   0.000000
    30  H    6.416093   5.219902   5.871720   1.091191   0.000000
    31  H    6.507365   5.521371   6.441573   1.085777   1.769612
    32  H    7.310793   6.424971   6.938157   1.089730   1.766216
    33  O    2.663194   2.703670   3.284193   4.130395   4.511463
                   31         32         33
    31  H    0.000000
    32  H    1.766834   0.000000
    33  O    4.187616   4.996602   0.000000
 Stoichiometry    C12H16N2O3
 Framework group  C1[X(C12H16N2O3)]
 Deg. of freedom    93
 Full point group                 C1      NOp   1
 Largest Abelian subgroup         C1      NOp   1
 Largest concise Abelian subgroup C1      NOp   1
                         Standard orientation:                         
 ---------------------------------------------------------------------
 Center     Atomic      Atomic             Coordinates (Angstroms)
 Number     Number       Type             X           Y           Z
 ---------------------------------------------------------------------
      1          6           0       -3.398757    0.506753    0.756569
      2          6           0       -2.185764    0.206237    1.350721
      3          6           0       -1.321583   -0.729992    0.797422
      4          6           0       -1.707199   -1.355770   -0.384652
      5          6           0       -2.914860   -1.066589   -0.992314
      6          6           0       -3.764354   -0.131497   -0.418969
      7          1           0       -4.069236    1.234458    1.199279
      8          1           0       -1.902872    0.710260    2.268307
      9          1           0       -1.045043   -2.086441   -0.836334
     10          1           0       -3.213452   -1.560047   -1.908569
     11          6           0        0.006285   -1.022589    1.428832
     12          1           0       -0.066910   -0.811567    2.496397
     13          1           0        0.236809   -2.082651    1.327130
     14          6           0        1.202746   -0.225725    0.876539
     15          1           0        1.768338    0.203463    1.704081
     16          6           0        2.158964   -1.111079    0.070965
     17          8           0       -4.946080    0.122871   -1.046870
     18          1           0       -5.440532    0.779736   -0.543561
     19          8           0        1.819169   -2.182251   -0.424815
     20          7           0        0.798535    0.881387    0.023946
     21          1           0       -0.086188    0.810317   -0.458026
     22          7           0        3.388267   -0.606290   -0.071458
     23          1           0        3.549741    0.332659    0.270670
     24          6           0        1.498038    2.024889   -0.076557
     25          6           0        0.901714    3.090532   -0.935634
     26          1           0        0.820189    4.006035   -0.350601
     27          1           0        1.581952    3.292638   -1.763093
     28          1           0       -0.076310    2.827269   -1.332472
     29          6           0        4.377661   -1.250224   -0.904443
     30          1           0        4.053516   -1.301447   -1.945118
     31          1           0        5.302843   -0.684145   -0.854408
     32          1           0        4.571855   -2.265276   -0.558800
     33          8           0        2.575703    2.191804    0.497538
 ---------------------------------------------------------------------
 Rotational constants (GHZ):      0.7817341      0.2668639      0.2282479
 Leave Link  202 at Tue Jun 24 04:07:48 2014, MaxMem=  4294967296 cpu:         1.7
 (Enter /home/ztw1e12/g09/l301.exe)
 Standard basis: CC-pVTZ (5D, 7F)
 Converting basis for Fermi contact spin-spin IFCMod=1.
 AO basis functions are being uncontracted.
 Ernie: Thresh=  0.10000D-02 Tol=  0.10000D-05 Strict=F.
 There are  1305 symmetry adapted cartesian basis functions of A   symmetry.
 There are  1204 symmetry adapted basis functions of A   symmetry.
  1204 basis functions,  1305 primitive gaussians,  1305 cartesian basis functions
    63 alpha electrons       63 beta electrons
       nuclear repulsion energy      1218.0984524782 Hartrees.
 IExCor= 4235 DFT=T Ex+Corr=M06 ExCW=0 ScaHFX=  0.270000
 ScaDFX=  1.000000  1.000000  1.000000  1.000000 ScalE2=  1.000000  1.000000
 IRadAn= 199590 IRanWt=     -1 IRanGd=            0 ICorTp=0 IEmpDi=  4
 NAtoms=   33 NActive=   33 NUniq=   33 SFac= 1.00D+00 NAtFMM=   60 NAOKFM=F Big=F
 Integral buffers will be    131072 words long.
 Raffenetti 2 integral format.
 Two-electron integral symmetry is turned on.
 Leave Link  301 at Tue Jun 24 04:07:48 2014, MaxMem=  4294967296 cpu:         4.6
 (Enter /home/ztw1e12/g09/l302.exe)
 NPDir=0 NMtPBC=     1 NCelOv=     1 NCel=       1 NClECP=     1 NCelD=      1
         NCelK=      1 NCelE2=     1 NClLst=     1 CellRange=     0.0.
 One-electron integrals computed using PRISM.
 GSVD:  received Info=                   1 from GESDD.
 NBasis=  1204 RedAO= T EigKep=  2.48D-05  NBF=  1204
 NBsUse=  1068 1.00D-06 EigRej=  6.75D-15 NBFU=  1068
 Precomputing XC quadrature grid using
 IXCGrd= 4 IRadAn=      199590 IRanWt=          -1 IRanGd=           0 AccXCQ= 0.00D+00.
 Generated NRdTot=       0 NPtTot=           0 NUsed=           0 NTot=          32
 NSgBfM=  1037  1037  1037  1039  1039 MxSgAt=    33 MxSgA2=    33.
 Leave Link  302 at Tue Jun 24 04:07:54 2014, MaxMem=  4294967296 cpu:        92.5
 (Enter /home/ztw1e12/g09/l308.exe)
 Leave Link  308 at Tue Jun 24 04:07:55 2014, MaxMem=  4294967296 cpu:         8.0
 (Enter /home/ztw1e12/g09/l303.exe)
 DipDrv:  MaxL=1.
 Leave Link  303 at Tue Jun 24 04:07:55 2014, MaxMem=  4294967296 cpu:         4.5
 (Enter /home/ztw1e12/g09/l401.exe)
 ExpMin= 1.03D-01 ExpMax= 1.38D+05 ExpMxC= 1.38D+05 IAcc=4 IRadAn=    199590 AccDes= 0.00D+00
 Harris functional with IExCor= 1009 and IRadAn=  199590 diagonalized for initial guess.
 HarFok:  IExCor= 1009 AccDes= 0.00D+00 IRadAn=    199590 IDoV= 1 UseB2=F ITyADJ=14
 ICtDFT=  3500011 ScaDFX=  1.000000  1.000000  1.000000  1.000000
 FoFCou: FMM=F IPFlag=           0 FMFlag=      100000 FMFlg1=           0
         NFxFlg=           0 DoJE=T BraDBF=F KetDBF=T FulRan=T
         wScrn=  0.000000 ICntrl=     500 IOpCl=  0 I1Cent=   200000004 NGrid=           0
         NMat0=    1 NMatS0=      1 NMatT0=    0 NMatD0=    1 NMtDS0=    0 NMtDT0=    0
 Petite list used in FoFCou.
 Harris En= -801.777857317726    
 JPrj=0 DoOrth=F DoCkMO=F.
 Leave Link  401 at Tue Jun 24 04:08:16 2014, MaxMem=  4294967296 cpu:       302.7
 (Enter /home/ztw1e12/g09/l502.exe)
 Closed shell SCF:
 Using DIIS extrapolation, IDIIS=  1040.
 Integral symmetry usage will be decided dynamically.
 IVT=     5158273 IEndB=     5158273 NGot=  4294967296 MDV=  4291529994
 LenX=  4291529994 LenY=  4289825664
 Requested convergence on RMS density matrix=1.00D-08 within 128 cycles.
 Requested convergence on MAX density matrix=1.00D-06.
 Requested convergence on             energy=1.00D-06.
 No special actions if energy rises.
 Fock matrices will be formed incrementally for  20 cycles.
 Integral accuracy reduced to 1.0D-05 until final iterations.

 Cycle   1  Pass 0  IDiag  1:
 FoFJK:  IHMeth= 1 ICntrl=       0 DoSepK=F KAlg= 0 I1Cent=   0 FoldK=F
 IRaf= 430000000 NMat=   1 IRICut=       1 DoRegI=T DoRafI=F ISym2E= 0.
 FoFCou: FMM=F IPFlag=           0 FMFlag=      100000 FMFlg1=           0
         NFxFlg=           0 DoJE=F BraDBF=F KetDBF=F FulRan=T
         wScrn=  0.000000 ICntrl=       0 IOpCl=  0 I1Cent=           0 NGrid=           0
         NMat0=    1 NMatS0=      1 NMatT0=    0 NMatD0=    1 NMtDS0=    0 NMtDT0=    0
 Symmetry not used in FoFCou.
 E= -801.490630726731    
 DIIS: error= 1.48D-01 at cycle   1 NSaved=   1.
 NSaved= 1 IEnMin= 1 EnMin= -801.490630726731     IErMin= 1 ErrMin= 1.48D-01
 ErrMax= 1.48D-01  0.00D+00 EMaxC= 1.00D-01 BMatC= 1.69D+01 BMatP= 1.69D+01
 IDIUse=3 WtCom= 0.00D+00 WtEn= 1.00D+00
 Coeff-Com:  0.100D+01
 Coeff-En:   0.100D+01
 Coeff:      0.100D+01
 Gap=     0.242 Goal=   None    Shift=    0.000
 GapD=    0.242 DampG=1.000 DampE=0.250 DampFc=0.2500 IDamp=-1.
 Damping current iteration by 2.50D-01
 RMSDP=1.82D-03 MaxDP=2.52D-01              OVMax= 2.38D-01

 Cycle   2  Pass 0  IDiag  1:
 RMSU=  4.53D-04    CP:  1.02D+00
 E= -801.642925671760     Delta-E=       -0.152294945029 Rises=F Damp=T
 DIIS: error= 1.12D-01 at cycle   2 NSaved=   2.
 NSaved= 2 IEnMin= 2 EnMin= -801.642925671760     IErMin= 2 ErrMin= 1.12D-01
 ErrMax= 1.12D-01  0.00D+00 EMaxC= 1.00D-01 BMatC= 1.00D+01 BMatP= 1.69D+01
 IDIUse=3 WtCom= 0.00D+00 WtEn= 1.00D+00
 Coeff-Com: -0.297D+01 0.397D+01
 Coeff-En:   0.000D+00 0.100D+01
 Coeff:      0.000D+00 0.100D+01
 Gap=     0.231 Goal=   None    Shift=    0.000
 RMSDP=6.65D-04 MaxDP=1.22D-01 DE=-1.52D-01 OVMax= 1.13D-01

 Cycle   3  Pass 0  IDiag  1:
 RMSU=  3.86D-04    CP:  1.06D+00  2.18D+00
 E= -801.833364327793     Delta-E=       -0.190438656033 Rises=F Damp=F
 DIIS: error= 1.62D-02 at cycle   3 NSaved=   3.
 NSaved= 3 IEnMin= 3 EnMin= -801.833364327793     IErMin= 3 ErrMin= 1.62D-02
 ErrMax= 1.62D-02  0.00D+00 EMaxC= 1.00D-01 BMatC= 2.60D-01 BMatP= 1.00D+01
 IDIUse=3 WtCom= 8.38D-01 WtEn= 1.62D-01
 Coeff-Com:  0.134D+01-0.183D+01 0.149D+01
 Coeff-En:   0.112D+00 0.000D+00 0.888D+00
 Coeff:      0.114D+01-0.153D+01 0.139D+01
 Gap=     0.284 Goal=   None    Shift=    0.000
 RMSDP=4.63D-04 MaxDP=7.62D-02 DE=-1.90D-01 OVMax= 6.11D-02

 Cycle   4  Pass 0  IDiag  1:
 RMSU=  2.68D-04    CP:  1.04D+00  1.38D+00  7.55D-01
 E= -801.851698161464     Delta-E=       -0.018333833671 Rises=F Damp=F
 DIIS: error= 8.72D-03 at cycle   4 NSaved=   4.
 NSaved= 4 IEnMin= 4 EnMin= -801.851698161464     IErMin= 4 ErrMin= 8.72D-03
 ErrMax= 8.72D-03  0.00D+00 EMaxC= 1.00D-01 BMatC= 9.28D-02 BMatP= 2.60D-01
 IDIUse=3 WtCom= 9.13D-01 WtEn= 8.72D-02
 Coeff-Com:  0.779D+00-0.107D+01 0.710D+00 0.578D+00
 Coeff-En:   0.000D+00 0.000D+00 0.423D+00 0.577D+00
 Coeff:      0.711D+00-0.974D+00 0.685D+00 0.578D+00
 Gap=     0.264 Goal=   None    Shift=    0.000
 RMSDP=2.68D-04 MaxDP=3.38D-02 DE=-1.83D-02 OVMax= 8.52D-02

 Cycle   5  Pass 0  IDiag  1:
 RMSU=  9.55D-05    CP:  1.05D+00  1.49D+00  1.01D+00  1.61D-01
 E= -801.910536769368     Delta-E=       -0.058838607904 Rises=F Damp=F
 DIIS: error= 3.24D-03 at cycle   5 NSaved=   5.
 NSaved= 5 IEnMin= 5 EnMin= -801.910536769368     IErMin= 5 ErrMin= 3.24D-03
 ErrMax= 3.24D-03  0.00D+00 EMaxC= 1.00D-01 BMatC= 1.78D-02 BMatP= 9.28D-02
 IDIUse=3 WtCom= 9.68D-01 WtEn= 3.24D-02
 Coeff-Com:  0.111D+00-0.160D+00 0.103D+00 0.306D+00 0.640D+00
 Coeff-En:   0.000D+00 0.000D+00 0.000D+00 0.150D+00 0.850D+00
 Coeff:      0.108D+00-0.155D+00 0.995D-01 0.301D+00 0.647D+00
 Gap=     0.225 Goal=   None    Shift=    0.000
 RMSDP=1.30D-04 MaxDP=1.39D-02 DE=-5.88D-02 OVMax= 3.77D-02

 Cycle   6  Pass 0  IDiag  1:
 RMSU=  5.90D-05    CP:  1.05D+00  1.53D+00  1.06D+00  5.38D-01  4.83D-01
 E= -801.921109794130     Delta-E=       -0.010573024761 Rises=F Damp=F
 DIIS: error= 1.09D-03 at cycle   6 NSaved=   6.
 NSaved= 6 IEnMin= 6 EnMin= -801.921109794130     IErMin= 6 ErrMin= 1.09D-03
 ErrMax= 1.09D-03  0.00D+00 EMaxC= 1.00D-01 BMatC= 1.59D-03 BMatP= 1.78D-02
 IDIUse=3 WtCom= 9.89D-01 WtEn= 1.09D-02
 Coeff-Com:  0.490D-01-0.676D-01 0.158D-01 0.807D-01 0.262D+00 0.660D+00
 Coeff-En:   0.000D+00 0.000D+00 0.000D+00 0.000D+00 0.386D-01 0.961D+00
 Coeff:      0.484D-01-0.669D-01 0.156D-01 0.798D-01 0.260D+00 0.663D+00
 Gap=     0.225 Goal=   None    Shift=    0.000
 RMSDP=3.95D-05 MaxDP=3.08D-03 DE=-1.06D-02 OVMax= 1.39D-02

 Cycle   7  Pass 0  IDiag  1:
 RMSU=  2.93D-05    CP:  1.05D+00  1.49D+00  1.07D+00  5.42D-01  6.56D-01
                    CP:  9.11D-01
 E= -801.921905443284     Delta-E=       -0.000795649154 Rises=F Damp=F
 DIIS: error= 1.02D-03 at cycle   7 NSaved=   7.
 NSaved= 7 IEnMin= 7 EnMin= -801.921905443284     IErMin= 7 ErrMin= 1.02D-03
 ErrMax= 1.02D-03  0.00D+00 EMaxC= 1.00D-01 BMatC= 4.81D-04 BMatP= 1.59D-03
 IDIUse=3 WtCom= 9.90D-01 WtEn= 1.02D-02
 Coeff-Com:  0.382D-01-0.515D-01 0.112D-01 0.217D-01 0.886D-01 0.410D+00
 Coeff-Com:  0.482D+00
 Coeff-En:   0.000D+00 0.000D+00 0.000D+00 0.000D+00 0.000D+00 0.263D+00
 Coeff-En:   0.737D+00
 Coeff:      0.378D-01-0.509D-01 0.110D-01 0.215D-01 0.877D-01 0.408D+00
 Coeff:      0.485D+00
 Gap=     0.225 Goal=   None    Shift=    0.000
 RMSDP=1.75D-05 MaxDP=2.64D-03 DE=-7.96D-04 OVMax= 7.93D-03

 Cycle   8  Pass 0  IDiag  1:
 RMSU=  7.34D-06    CP:  1.05D+00  1.50D+00  1.08D+00  5.50D-01  6.52D-01
                    CP:  1.05D+00  5.85D-01
 E= -801.922333141670     Delta-E=       -0.000427698386 Rises=F Damp=F
 DIIS: error= 1.73D-04 at cycle   8 NSaved=   8.
 NSaved= 8 IEnMin= 8 EnMin= -801.922333141670     IErMin= 8 ErrMin= 1.73D-04
 ErrMax= 1.73D-04  0.00D+00 EMaxC= 1.00D-01 BMatC= 2.15D-05 BMatP= 4.81D-04
 IDIUse=3 WtCom= 9.98D-01 WtEn= 1.73D-03
 Coeff-Com:  0.195D-01-0.261D-01 0.727D-02 0.179D-02 0.148D-01 0.149D+00
 Coeff-Com:  0.246D+00 0.588D+00
 Coeff-En:   0.000D+00 0.000D+00 0.000D+00 0.000D+00 0.000D+00 0.000D+00
 Coeff-En:   0.000D+00 0.100D+01
 Coeff:      0.194D-01-0.261D-01 0.725D-02 0.179D-02 0.148D-01 0.149D+00
 Coeff:      0.245D+00 0.589D+00
 Gap=     0.225 Goal=   None    Shift=    0.000
 RMSDP=4.77D-06 MaxDP=4.46D-04 DE=-4.28D-04 OVMax= 1.38D-03

 Initial convergence to 1.0D-05 achieved.  Increase integral accuracy.
 Cycle   9  Pass 1  IDiag  1:
 E= -801.922292295754     Delta-E=        0.000040845916 Rises=F Damp=F
 DIIS: error= 2.97D-04 at cycle   1 NSaved=   1.
 NSaved= 1 IEnMin= 1 EnMin= -801.922292295754     IErMin= 1 ErrMin= 2.97D-04
 ErrMax= 2.97D-04  0.00D+00 EMaxC= 1.00D-01 BMatC= 2.34D-05 BMatP= 2.34D-05
 IDIUse=3 WtCom= 9.97D-01 WtEn= 2.97D-03
 Coeff-Com:  0.100D+01
 Coeff-En:   0.100D+01
 Coeff:      0.100D+01
 Gap=     0.225 Goal=   None    Shift=    0.000
 RMSDP=4.77D-06 MaxDP=4.46D-04 DE= 4.08D-05 OVMax= 8.05D-04

 Cycle  10  Pass 1  IDiag  1:
 RMSU=  9.27D-05    CP:  9.98D-01
 E= -801.922300897484     Delta-E=       -0.000008601731 Rises=F Damp=F
 DIIS: error= 6.60D-05 at cycle   2 NSaved=   2.
 NSaved= 2 IEnMin= 2 EnMin= -801.922300897484     IErMin= 2 ErrMin= 6.60D-05
 ErrMax= 6.60D-05  0.00D+00 EMaxC= 1.00D-01 BMatC= 6.75D-06 BMatP= 2.34D-05
 IDIUse=1 WtCom= 1.00D+00 WtEn= 0.00D+00
 Coeff-Com:  0.283D+00 0.717D+00
 Coeff:      0.283D+00 0.717D+00
 Gap=     0.225 Goal=   None    Shift=    0.000
 RMSDP=3.57D-06 MaxDP=4.35D-04 DE=-8.60D-06 OVMax= 9.88D-04

 Cycle  11  Pass 1  IDiag  1:
 RMSU=  3.34D-06    CP:  9.98D-01  1.01D+00
 E= -801.922300954631     Delta-E=       -0.000000057147 Rises=F Damp=F
 DIIS: error= 7.08D-05 at cycle   3 NSaved=   3.
 NSaved= 3 IEnMin= 3 EnMin= -801.922300954631     IErMin= 2 ErrMin= 6.60D-05
 ErrMax= 7.08D-05  0.00D+00 EMaxC= 1.00D-01 BMatC= 6.42D-06 BMatP= 6.75D-06
 IDIUse=1 WtCom= 1.00D+00 WtEn= 0.00D+00
 Coeff-Com:  0.126D-01 0.491D+00 0.496D+00
 Coeff:      0.126D-01 0.491D+00 0.496D+00
 Gap=     0.225 Goal=   None    Shift=    0.000
 RMSDP=1.85D-06 MaxDP=2.78D-04 DE=-5.71D-08 OVMax= 5.67D-04

 Cycle  12  Pass 1  IDiag  1:
 RMSU=  6.45D-07    CP:  9.98D-01  1.02D+00  5.03D-01
 E= -801.922305920029     Delta-E=       -0.000004965398 Rises=F Damp=F
 DIIS: error= 1.58D-05 at cycle   4 NSaved=   4.
 NSaved= 4 IEnMin= 4 EnMin= -801.922305920029     IErMin= 4 ErrMin= 1.58D-05
 ErrMax= 1.58D-05  0.00D+00 EMaxC= 1.00D-01 BMatC= 1.74D-07 BMatP= 6.42D-06
 IDIUse=1 WtCom= 1.00D+00 WtEn= 0.00D+00
 Coeff-Com: -0.714D-03 0.263D+00 0.286D+00 0.452D+00
 Coeff:     -0.714D-03 0.263D+00 0.286D+00 0.452D+00
 Gap=     0.225 Goal=   None    Shift=    0.000
 RMSDP=2.84D-07 MaxDP=3.89D-05 DE=-4.97D-06 OVMax= 8.88D-05

 Cycle  13  Pass 1  IDiag  1:
 RMSU=  2.48D-07    CP:  9.98D-01  1.02D+00  5.33D-01  8.77D-01
 E= -801.922306037866     Delta-E=       -0.000000117837 Rises=F Damp=F
 DIIS: error= 3.09D-06 at cycle   5 NSaved=   5.
 NSaved= 5 IEnMin= 5 EnMin= -801.922306037866     IErMin= 5 ErrMin= 3.09D-06
 ErrMax= 3.09D-06  0.00D+00 EMaxC= 1.00D-01 BMatC= 9.14D-09 BMatP= 1.74D-07
 IDIUse=1 WtCom= 1.00D+00 WtEn= 0.00D+00
 Coeff-Com: -0.155D-02 0.862D-01 0.983D-01 0.237D+00 0.580D+00
 Coeff:     -0.155D-02 0.862D-01 0.983D-01 0.237D+00 0.580D+00
 Gap=     0.225 Goal=   None    Shift=    0.000
 RMSDP=7.70D-08 MaxDP=7.80D-06 DE=-1.18D-07 OVMax= 2.06D-05

 Cycle  14  Pass 1  IDiag  1:
 RMSU=  5.00D-08    CP:  9.98D-01  1.02D+00  5.36D-01  9.46D-01  8.69D-01
 E= -801.922306043394     Delta-E=       -0.000000005528 Rises=F Damp=F
 DIIS: error= 1.08D-06 at cycle   6 NSaved=   6.
 NSaved= 6 IEnMin= 6 EnMin= -801.922306043394     IErMin= 6 ErrMin= 1.08D-06
 ErrMax= 1.08D-06  0.00D+00 EMaxC= 1.00D-01 BMatC= 6.54D-10 BMatP= 9.14D-09
 IDIUse=1 WtCom= 1.00D+00 WtEn= 0.00D+00
 Coeff-Com: -0.766D-03 0.313D-01 0.366D-01 0.102D+00 0.306D+00 0.525D+00
 Coeff:     -0.766D-03 0.313D-01 0.366D-01 0.102D+00 0.306D+00 0.525D+00
 Gap=     0.225 Goal=   None    Shift=    0.000
 RMSDP=3.50D-08 MaxDP=6.19D-06 DE=-5.53D-09 OVMax= 1.24D-05

 Cycle  15  Pass 1  IDiag  1:
 RMSU=  2.12D-08    CP:  9.98D-01  1.02D+00  5.35D-01  9.68D-01  9.39D-01
                    CP:  7.61D-01
 E= -801.922306043794     Delta-E=       -0.000000000400 Rises=F Damp=F
 DIIS: error= 5.68D-07 at cycle   7 NSaved=   7.
 NSaved= 7 IEnMin= 7 EnMin= -801.922306043794     IErMin= 7 ErrMin= 5.68D-07
 ErrMax= 5.68D-07  0.00D+00 EMaxC= 1.00D-01 BMatC= 1.30D-10 BMatP= 6.54D-10
 IDIUse=1 WtCom= 1.00D+00 WtEn= 0.00D+00
 Coeff-Com: -0.560D-04-0.361D-02-0.361D-02-0.316D-03 0.325D-01 0.319D+00
 Coeff-Com:  0.657D+00
 Coeff:     -0.560D-04-0.361D-02-0.361D-02-0.316D-03 0.325D-01 0.319D+00
 Coeff:      0.657D+00
 Gap=     0.225 Goal=   None    Shift=    0.000
 RMSDP=1.73D-08 MaxDP=2.40D-06 DE=-4.00D-10 OVMax= 4.44D-06

 Cycle  16  Pass 1  IDiag  1:
 RMSU=  8.65D-09    CP:  9.98D-01  1.02D+00  5.36D-01  9.83D-01  9.58D-01
                    CP:  9.41D-01  9.64D-01
 E= -801.922306044064     Delta-E=       -0.000000000271 Rises=F Damp=F
 DIIS: error= 1.11D-07 at cycle   8 NSaved=   8.
 NSaved= 8 IEnMin= 8 EnMin= -801.922306044064     IErMin= 8 ErrMin= 1.11D-07
 ErrMax= 1.11D-07  0.00D+00 EMaxC= 1.00D-01 BMatC= 9.79D-12 BMatP= 1.30D-10
 IDIUse=1 WtCom= 1.00D+00 WtEn= 0.00D+00
 Coeff-Com:  0.480D-04-0.468D-02-0.518D-02-0.105D-01-0.153D-01 0.103D+00
 Coeff-Com:  0.325D+00 0.608D+00
 Coeff:      0.480D-04-0.468D-02-0.518D-02-0.105D-01-0.153D-01 0.103D+00
 Coeff:      0.325D+00 0.608D+00
 Gap=     0.225 Goal=   None    Shift=    0.000
 RMSDP=5.05D-09 MaxDP=6.58D-07 DE=-2.71D-10 OVMax= 8.64D-07

 SCF Done:  E(RM06) =  -801.922306044     A.U. after   16 cycles
            NFock= 16  Conv=0.51D-08     -V/T= 2.0044
 KE= 7.983741202866D+02 PE=-4.308741727902D+03 EE= 1.490346849093D+03
 Leave Link  502 at Tue Jun 24 04:46:45 2014, MaxMem=  4294967296 cpu:     36852.8
 (Enter /home/ztw1e12/g09/l801.exe)
 DoSCS=F DFT=T ScalE2(SS,OS)=  1.000000  1.000000
 Range of M.O.s used for correlation:     1  1068
 NBasis=  1204 NAE=    63 NBE=    63 NFC=     0 NFV=     0
 NROrb=   1068 NOA=    63 NOB=    63 NVA=  1005 NVB=  1005

 **** Warning!!: The largest alpha MO coefficient is  0.37295495D+02

 Leave Link  801 at Tue Jun 24 04:46:45 2014, MaxMem=  4294967296 cpu:         0.4
 (Enter /home/ztw1e12/g09/l1002.exe)
 Minotr:  Closed shell wavefunction.
          IDoAtm=111111111111111111111111111111111
          Direct CPHF calculation.
          Differentiating once with respect to Fermi-contact.
          Electric field/nuclear overlap derivatives assumed to be zero.
          Requested convergence is 1.0D-10 RMS, and 1.0D-09 maximum.
          Secondary convergence is 1.0D-12 RMS, and 1.0D-12 maximum.
          NewPWx=T KeepS1=F KeepF1=F KeepIn=T MapXYZ=F SortEE=F KeepMc=T.
          MDV=    4294965894 using IRadAn=  199590.
 Using stored XC quadrature information.
          Solving linear equations simultaneously, MaxMat=       0.
          There are    33 degrees of freedom in the 1st order CPHF.  IDoFFX=0 NUNeed=    33.
     33 vectors produced by pass  0 Test12= 1.92D-17 3.03D-11 XBig12= 4.29D+01 2.58D+00.
 AX will form    33 AO Fock derivatives at one time.
 FoFJK:  IHMeth= 1 ICntrl=       0 DoSepK=F KAlg= 0 I1Cent=   0 FoldK=F
 IRaf= 450000000 NMat=  33 IRICut=       1 DoRegI=T DoRafI=F ISym2E=-1.
 FoFCou: FMM=F IPFlag=           0 FMFlag=      100000 FMFlg1=           0
         NFxFlg=           0 DoJE=F BraDBF=F KetDBF=F FulRan=T
         wScrn=  0.000000 ICntrl=       0 IOpCl=  0 I1Cent=           0 NGrid=           0
         NMat0=   33 NMatS0=      0 NMatT0=   33 NMatD0=   33 NMtDS0=    0 NMtDT0=    0
 Petite list used in FoFCou.
     33 vectors produced by pass  1 Test12= 1.92D-17 3.03D-11 XBig12= 3.49D-01 1.89D-01.
     33 vectors produced by pass  2 Test12= 1.92D-17 3.03D-11 XBig12= 1.73D-02 4.73D-02.
     33 vectors produced by pass  3 Test12= 1.92D-17 3.03D-11 XBig12= 3.83D-04 5.62D-03.
     33 vectors produced by pass  4 Test12= 1.92D-17 3.03D-11 XBig12= 7.20D-06 1.16D-03.
     33 vectors produced by pass  5 Test12= 1.92D-17 3.03D-11 XBig12= 1.53D-07 1.76D-04.
     33 vectors produced by pass  6 Test12= 1.92D-17 3.03D-11 XBig12= 4.96D-09 2.85D-05.
     33 vectors produced by pass  7 Test12= 1.92D-17 3.03D-11 XBig12= 1.29D-10 4.30D-06.
     33 vectors produced by pass  8 Test12= 1.92D-17 3.03D-11 XBig12= 5.15D-12 3.77D-07.
     33 vectors produced by pass  9 Test12= 1.92D-17 3.03D-11 XBig12= 7.26D-14 9.72D-08.
     33 vectors produced by pass 10 Test12= 1.92D-17 3.03D-11 XBig12= 2.58D-15 7.68D-09.
     33 vectors produced by pass 11 Test12= 1.92D-17 3.03D-11 XBig12= 2.76D-17 7.79D-10.
      8 vectors produced by pass 12 Test12= 1.92D-17 3.03D-11 XBig12= 3.05D-19 6.27D-11.
 InvSVY:  IOpt=1 It=  1 EMax= 9.77D-15
 Solved reduced A of dimension   404 with    33 vectors.
 Max diff in FC couplings:  IJMax=     6     3 Diff= 3.20D-04 IJMaxR=    24    10 DiffR= 1.03D+00
 Fermi Contact (FC) contribution to K (Hz):
                1             2             3             4             5 
      1  0.123400D+11
      2  0.343867D+02  0.123400D+11
      3 -0.114712D+01  0.335811D+02  0.123400D+11
      4  0.300159D+01  0.344990D+00  0.323186D+02  0.123400D+11
      5  0.166636D+01  0.301278D+01 -0.129285D+01  0.338338D+02  0.123400D+11
      6  0.357387D+02 -0.240627D+00  0.428328D+01  0.996893D-01  0.383716D+02
      7  0.216772D+02 -0.297942D+00  0.946314D+00 -0.192789D+00  0.603081D+00
      8 -0.172154D+00  0.223085D+02 -0.237795D+00  0.964582D+00 -0.277997D+00
      9 -0.279382D+00  0.105537D+01 -0.167085D+00  0.232723D+02 -0.135940D+00
     10  0.677105D+00 -0.227216D+00  0.103309D+01 -0.205806D+00  0.231099D+02
     11  0.193263D+01  0.139383D+01  0.236756D+02  0.166407D+01  0.191949D+01
     12 -0.822462D-03  0.906569D+00 -0.105622D+01  0.923111D+00  0.842560D-01
     13  0.262696D-01  0.846069D+00 -0.113522D+01  0.741732D+00 -0.655460D-01
     14 -0.467387D+00  0.639469D+00 -0.170483D+01  0.514493D+00 -0.465110D+00
     15  0.126330D-01 -0.292767D-01  0.416101D+00 -0.136467D-01  0.143740D-01
     16  0.290994D-01  0.467631D-01  0.101255D+00 -0.593172D-01  0.544833D-02
     17 -0.764153D+00 -0.126701D+00  0.260371D+00  0.290178D+01  0.114906D+02
     18  0.422931D+00 -0.944580D-02 -0.463327D-01  0.199337D+00  0.113759D+01
     19  0.157452D-01  0.134913D+00  0.129335D-01  0.997357D+00  0.121650D+00
     20 -0.111402D+00  0.190772D+00  0.303805D+01  0.229071D+00 -0.145791D+00
     21  0.127086D-01 -0.150544D-01 -0.856304D-01 -0.363076D-01  0.150631D-01
     22 -0.266142D-01  0.349592D-01  0.722474D-01  0.991745D-01 -0.277938D-01
     23  0.524654D-03  0.146504D-02  0.281752D-02  0.495621D-02  0.130108D-02
     24 -0.336680D-02 -0.477029D-02  0.335783D-01  0.251534D-01 -0.451061D-02
     25  0.392434D-02 -0.659492D-02  0.712714D-01 -0.607520D-02  0.346164D-02
     26  0.153813D-03 -0.293341D-03  0.219954D-02  0.267497D-03  0.358611D-03
     27  0.316578D-03  0.825386D-03 -0.261464D-02  0.604826D-03  0.168244D-03
     28  0.613481D-03  0.581608D-03 -0.897228D-03 -0.414402D-03  0.508841D-03
     29  0.329504D-03  0.133737D-01  0.172911D-01  0.213467D-02 -0.782751D-03
     30  0.343947D-04 -0.425855D-03 -0.211792D-02 -0.190008D-03  0.156028D-03
     31  0.691669D-04  0.191268D-03 -0.618265D-04  0.529960D-04  0.955174D-04
     32 -0.565990D-04 -0.169401D-03 -0.188125D-02 -0.607223D-03 -0.312356D-04
     33 -0.668856D-02  0.311285D-01  0.621617D-01  0.160697D-01 -0.102788D-01
                6             7             8             9            10 
      6  0.123400D+11
      7 -0.545952D+00  0.123400D+11
      8  0.118403D+01  0.331468D+00  0.123400D+11
      9  0.126342D+01  0.366334D-01  0.415899D-01  0.123400D+11
     10 -0.676868D+00  0.660517D-01  0.400226D-01  0.358507D+00  0.123400D+11
     11 -0.432811D+00  0.878451D-02  0.672141D+00  0.640504D+00  0.242919D-01
     12  0.419154D-01  0.502863D-02 -0.276056D-01 -0.906879D-02  0.103318D-01
     13  0.900116D-01  0.108264D-01 -0.204663D-01 -0.347342D-01  0.980960D-02
     14  0.475501D+00  0.386256D-01 -0.114402D+00 -0.102072D+00  0.390149D-01
     15 -0.831049D-02 -0.699085D-03  0.298916D-02  0.660371D-02 -0.115756D-03
     16 -0.174917D-01 -0.480115D-03  0.101055D-01  0.772938D-02 -0.245016D-02
     17 -0.120595D+02  0.564783D+00  0.680669D-01  0.275435D+00  0.699117D+00
     18 -0.663352D+00 -0.132047D-01  0.201495D-02  0.148274D-01  0.433355D-03
     19  0.103059D+00 -0.983791D-05 -0.682045D-03  0.668163D-01  0.102815D-01
     20  0.116844D+00  0.132413D-01 -0.425980D-01 -0.515975D-01  0.173856D-01
     21 -0.933330D-02 -0.841580D-03  0.583469D-02  0.660322D-02 -0.135914D-02
     22  0.416672D-01  0.314258D-02 -0.435243D-02 -0.171402D-01  0.462167D-02
     23  0.172803D-03 -0.202365D-05  0.122621D-04  0.341515D-03 -0.311141D-04
     24  0.296681D-02 -0.268723D-03 -0.124674D-02 -0.122557D-02 -0.360215D-04
     25 -0.157012D-02 -0.160027D-03  0.273847D-03  0.240272D-03 -0.108408D-03
     26 -0.799222D-04 -0.436852D-04 -0.144249D-04  0.768885D-04 -0.349170D-05
     27 -0.411770D-04 -0.369859D-04  0.145271D-03  0.618560D-05 -0.461935D-04
     28 -0.300211D-03 -0.194815D-03  0.146337D-03 -0.652271D-04 -0.126402D-03
     29  0.255016D-02  0.400133D-03  0.310906D-04  0.896168D-03  0.786388D-04
     30 -0.115651D-03 -0.277953D-04  0.323273D-04 -0.398859D-04 -0.173164D-04
     31  0.246009D-04  0.000000D+00  0.231712D-04  0.854880D-04 -0.134386D-04
     32 -0.944509D-04 -0.107490D-04  0.319006D-04 -0.535159D-05 -0.109779D-04
     33  0.107818D-01  0.683154D-04 -0.324670D-02 -0.261870D-02  0.937634D-03
               11            12            13            14            15 
     11  0.123400D+11
     12  0.171893D+02  0.123400D+11
     13  0.187781D+02 -0.862823D+00  0.123400D+11
     14  0.185659D+02 -0.575863D+00 -0.831830D+00  0.123400D+11
     15 -0.632184D+00  0.420000D+00  0.391836D-01  0.197263D+02  0.123400D+11
     16 -0.962193D-03  0.577308D+00  0.912193D+00  0.271224D+02 -0.941581D+00
     17  0.644508D-01  0.139651D-01  0.320305D-01  0.191110D+00 -0.304115D-02
     18  0.110749D-01 -0.137876D-02 -0.342030D-02 -0.204144D-01  0.392274D-03
     19  0.179157D+01  0.434844D-01 -0.880594D-02  0.300883D+01  0.458286D+00
     20  0.533666D+00  0.131467D+00  0.674261D+00  0.150579D+02 -0.929289D+00
     21  0.422562D+00 -0.840553D-02 -0.114030D-01  0.227232D+00  0.253185D+00
     22  0.767531D+00 -0.164870D-01 -0.543489D-01  0.115312D+02  0.151123D+00
     23  0.438875D-01  0.169489D-02  0.218577D-02  0.758286D-01 -0.251357D-01
     24  0.119100D+01 -0.179902D-01  0.187622D-01 -0.295711D+00  0.536501D+00
     25 -0.451252D-01  0.124034D-01  0.190706D-01  0.840168D+00 -0.955787D-01
     26  0.213450D-01 -0.520769D-03  0.174717D-02  0.493249D-01  0.910569D-02
     27 -0.342096D-02 -0.204967D-03 -0.187338D-02 -0.565130D-02  0.239483D-01
     28 -0.403865D-02 -0.705755D-04  0.855313D-03  0.901196D-01 -0.292192D-02
     29  0.335870D+00  0.108957D-01  0.127943D-01  0.894433D+00  0.149132D-01
     30 -0.850408D-02  0.110788D-02  0.219982D-03 -0.572625D-01  0.107966D-01
     31  0.134291D-01  0.198897D-02  0.283139D-02 -0.259183D-01 -0.173018D-03
     32 -0.694117D-02 -0.792643D-03 -0.821657D-03 -0.894886D-01  0.780054D-02
     33  0.146453D+00  0.185620D-01  0.238436D-01  0.717129D+00  0.162978D+00
               16            17            18            19            20 
     16  0.123400D+11
     17 -0.622280D-02  0.123400D+11
     18  0.442834D-03  0.198623D+02  0.123400D+11
     19 -0.989700D+01  0.322820D-01  0.176465D-02  0.123400D+11
     20  0.298596D+00  0.450068D-01 -0.437215D-02  0.467920D+00  0.123400D+11
     21 -0.274424D-01 -0.314104D-02  0.332600D-03 -0.106770D-01  0.319493D+02
     22  0.278145D+02  0.141660D-01 -0.131987D-02  0.613105D+01  0.275079D+00
     23  0.273997D+00  0.190220D-03  0.194164D-04  0.555107D+00 -0.366983D-01
     24  0.989027D-01  0.129369D-02 -0.165858D-03 -0.896955D-02  0.259405D+02
     25 -0.166978D+00 -0.425502D-03  0.550334D-04  0.984347D-02  0.119474D+02
     26  0.422962D-01 -0.393952D-05  0.413278D-05  0.792606D-03  0.547527D+00
     27  0.103950D+00  0.190131D-04 -0.281719D-05  0.722433D-02  0.330894D+00
     28  0.277235D-02  0.680071D-04 -0.111030D-04  0.173564D-02  0.376164D+00
     29 -0.662102D+00  0.152178D-02 -0.127813D-03  0.689140D+00 -0.131921D+00
     30  0.256431D+00 -0.384007D-04  0.543416D-05  0.250335D+00  0.158716D+00
     31  0.104775D+01  0.184623D-04  0.000000D+00  0.165406D+00  0.148158D-02
     32  0.211944D+00 -0.350073D-04  0.168285D-05  0.252732D+00  0.934401D-01
     33  0.397239D+00  0.513678D-02 -0.522178D-03  0.166311D+00  0.480198D+01
               21            22            23            24            25 
     21  0.123400D+11
     22  0.249430D-01  0.123400D+11
     23  0.169426D-02  0.323721D+02  0.123400D+11
     24  0.470905D+00 -0.242607D+00  0.184498D-01  0.123400D+11
     25  0.131902D+00  0.172200D+00 -0.242044D-01  0.273060D+02  0.123400D+11
     26 -0.140017D-01 -0.124825D-02 -0.383547D-02 -0.118038D+01  0.179693D+02
     27 -0.166531D-01 -0.796575D-02 -0.915436D-03 -0.120205D+01  0.178176D+02
     28 -0.106216D-01  0.244920D-01 -0.147742D-02 -0.755468D+00  0.174817D+02
     29 -0.369050D-02  0.161217D+02  0.356546D+00 -0.124184D-01 -0.109369D-01
     30  0.152318D-02 -0.650257D+00  0.516927D-01 -0.164535D-02  0.159124D-02
     31  0.192030D-04 -0.279253D+00  0.284568D+00  0.317569D-03  0.102875D-02
     32  0.135573D-02 -0.614902D+00  0.182716D+00 -0.530719D-03  0.931008D-02
     33  0.403628D+00  0.534074D+01 -0.814138D+00 -0.930301D+01  0.416534D+01
               26            27            28            29            30 
     26  0.123400D+11
     27 -0.924895D+00  0.123400D+11
     28 -0.733211D+00 -0.740012D+00  0.123400D+11
     29 -0.112597D-02 -0.121492D-02  0.882572D-03  0.123400D+11
     30 -0.138150D-03  0.468669D-03  0.276002D-03  0.195705D+02  0.123400D+11
     31  0.432437D-03  0.125222D-03  0.515866D-04  0.184971D+02 -0.731176D+00
     32  0.301240D-03  0.639359D-03 -0.279745D-03  0.197927D+02 -0.745917D+00
     33  0.420483D+00  0.375398D+00  0.909627D+00  0.979696D-01  0.290056D-02
               31            32            33 
     31  0.123400D+11
     32 -0.757753D+00  0.123400D+11
     33  0.334238D-01  0.662020D-01  0.123400D+11
 Fermi Contact (FC) contribution to J (Hz):
                1             2             3             4             5 
      1  0.243533D+11
      2  0.678631D+02  0.243533D+11
      3 -0.226387D+01  0.662731D+02  0.243533D+11
      4  0.592372D+01  0.680847D+00  0.637815D+02  0.243533D+11
      5  0.328860D+01  0.594580D+01 -0.255148D+01  0.667718D+02  0.243533D+11
      6  0.705313D+02 -0.474884D+00  0.845315D+01  0.196739D+00  0.757272D+02
      7  0.170099D+03 -0.233792D+01  0.742564D+01 -0.151279D+01  0.473232D+01
      8 -0.135088D+01  0.175053D+03 -0.186595D+01  0.756898D+01 -0.218142D+01
      9 -0.219228D+01  0.828138D+01 -0.131110D+01  0.182615D+03 -0.106671D+01
     10  0.531318D+01 -0.178295D+01  0.810658D+01 -0.161494D+01  0.181341D+03
     11  0.381410D+01  0.275077D+01  0.467244D+02  0.328407D+01  0.378817D+01
     12 -0.645378D-02  0.711376D+01 -0.828808D+01  0.724356D+01  0.661148D+00
     13  0.206135D+00  0.663902D+01 -0.890794D+01  0.582030D+01 -0.514333D+00
     14 -0.922400D+00  0.126201D+01 -0.336452D+01  0.101536D+01 -0.917907D+00
     15  0.991297D-01 -0.229732D+00  0.326511D+01 -0.107084D+00  0.112792D+00
     16  0.574284D-01  0.922880D-01  0.199829D+00 -0.117064D+00  0.107524D-01
     17  0.813197D+00  0.134833D+00 -0.277082D+00 -0.308802D+01 -0.122281D+02
     18  0.331870D+01 -0.741203D-01 -0.363568D+00  0.156418D+01  0.892653D+01
     19 -0.167558D-01 -0.143571D+00 -0.137636D-01 -0.106137D+01 -0.129458D+00
     20 -0.631885D-01  0.108208D+00  0.172322D+01  0.129932D+00 -0.826944D-01
     21  0.997232D-01 -0.118130D+00 -0.671933D+00 -0.284902D+00  0.118199D+00
     22 -0.150959D-01  0.198293D-01  0.409796D-01  0.562530D-01 -0.157650D-01
     23  0.411691D-02  0.114961D-01  0.221088D-01  0.388909D-01  0.102095D-01
     24 -0.664446D-02 -0.941429D-02  0.662676D-01  0.496409D-01 -0.890180D-02
     25  0.774478D-02 -0.130152D-01  0.140656D+00 -0.119896D-01  0.683164D-02
     26  0.120695D-02 -0.230182D-02  0.172596D-01  0.209903D-02  0.281399D-02
     27  0.248416D-02  0.647672D-02 -0.205168D-01  0.474601D-02  0.132020D-02
     28  0.481393D-02  0.456382D-02 -0.704046D-02 -0.325177D-02  0.399282D-02
     29  0.650285D-03  0.263934D-01  0.341244D-01  0.421283D-02 -0.154478D-02
     30  0.269892D-03 -0.334164D-02 -0.166191D-01 -0.149098D-02  0.122434D-02
     31  0.542746D-03  0.150086D-02 -0.485146D-03  0.415854D-03  0.749515D-03
     32 -0.444127D-03 -0.132927D-02 -0.147620D-01 -0.476482D-02 -0.245103D-03
     33  0.711784D-02 -0.331263D-01 -0.661513D-01 -0.171011D-01  0.109385D-01
                6             7             8             9            10 
      6  0.243533D+11
      7 -0.428403D+01  0.385007D+12
      8  0.929093D+01  0.103418D+02  0.385007D+12
      9  0.991390D+01  0.114296D+01  0.129760D+01  0.385007D+12
     10 -0.531131D+01  0.206081D+01  0.124870D+01  0.111854D+02  0.385007D+12
     11 -0.854163D+00  0.689312D-01  0.527423D+01  0.502597D+01  0.190616D+00
     12  0.328906D+00  0.156893D+00 -0.861293D+00 -0.282946D+00  0.322352D+00
     13  0.706312D+00  0.337783D+00 -0.638546D+00 -0.108371D+01  0.306059D+00
     14  0.938412D+00  0.303091D+00 -0.897704D+00 -0.800947D+00  0.306146D+00
     15 -0.652116D-01 -0.218114D-01  0.932616D-01  0.206035D+00 -0.361157D-02
     16 -0.345203D-01 -0.376741D-02  0.792968D-01  0.606517D-01 -0.192262D-01
     17  0.128335D+02 -0.238975D+01 -0.288010D+00 -0.116544D+01 -0.295816D+01
     18 -0.520526D+01 -0.411985D+00  0.628665D-01  0.462613D+00  0.135207D-01
     19 -0.109673D+00  0.416269D-04  0.288592D-02 -0.282718D+00 -0.435037D-01
     20  0.662755D-01  0.298630D-01 -0.960706D-01 -0.116367D+00  0.392094D-01
     21 -0.732375D-01 -0.262573D-01  0.182042D+00  0.206020D+00 -0.424050D-01
     22  0.236342D-01  0.708740D-02 -0.981596D-02 -0.386561D-01  0.104232D-01
     23  0.135596D-02 -0.631377D-04  0.382576D-03  0.106552D-01 -0.970760D-03
     24  0.585508D-02 -0.210864D-02 -0.978304D-02 -0.961696D-02 -0.282658D-03
     25 -0.309866D-02 -0.125572D-02  0.214885D-02  0.188539D-02 -0.850667D-03
     26 -0.627142D-03 -0.136297D-02 -0.450056D-03  0.239892D-02 -0.108941D-03
     27 -0.323112D-03 -0.115396D-02  0.453244D-02  0.192991D-03 -0.144124D-02
     28 -0.235573D-02 -0.607823D-02  0.456571D-02 -0.203508D-02 -0.394372D-02
     29  0.503280D-02  0.313980D-02  0.243965D-03  0.703215D-02  0.617071D-03
     30 -0.907505D-03 -0.867211D-03  0.100861D-02 -0.124444D-02 -0.540271D-03
     31  0.193040D-03  0.851894D-05  0.722939D-03  0.266722D-02 -0.419284D-03
     32 -0.741147D-03 -0.335367D-03  0.995298D-03 -0.166969D-03 -0.342510D-03
     33 -0.114738D-01 -0.289061D-03  0.137377D-01  0.110804D-01 -0.396739D-02
               11            12            13            14            15 
     11  0.243533D+11
     12  0.134883D+03  0.385007D+12
     13  0.147350D+03 -0.269201D+02  0.385007D+12
     14  0.366402D+02 -0.451874D+01 -0.652729D+01  0.243533D+11
     15 -0.496068D+01  0.131040D+02  0.122253D+01  0.154791D+03  0.385007D+12
     16 -0.189891D-02  0.453008D+01  0.715789D+01  0.535268D+02 -0.738850D+01
     17 -0.685873D-01 -0.590902D-01 -0.135530D+00 -0.203376D+00  0.128679D-01
     18  0.869034D-01 -0.430173D-01 -0.106713D+00 -0.160189D+00  0.122389D-01
     19 -0.190656D+01 -0.183994D+00  0.372604D-01 -0.320194D+01 -0.193913D+01
     20  0.302702D+00  0.296497D+00  0.152065D+01  0.854101D+01 -0.209581D+01
     21  0.331580D+01 -0.262252D+00 -0.355772D+00  0.178307D+01  0.789936D+01
     22  0.435353D+00 -0.371829D-01 -0.122572D+00  0.654064D+01  0.340826D+00
     23  0.344381D+00  0.528804D-01  0.681961D-01  0.595020D+00 -0.784231D+00
     24  0.235046D+01 -0.141167D+00  0.147225D+00 -0.583593D+00  0.420987D+01
     25 -0.890557D-01  0.973284D-01  0.149646D+00  0.165809D+01 -0.749997D+00
     26  0.167492D+00 -0.162480D-01  0.545116D-01  0.387048D+00  0.284097D+00
     27 -0.268440D-01 -0.639497D-02 -0.584495D-01 -0.443452D-01  0.747186D+00
     28 -0.316909D-01 -0.220195D-02  0.266857D-01  0.707160D+00 -0.911637D-01
     29  0.662848D+00  0.854975D-01  0.100395D+00  0.176519D+01  0.117022D+00
     30 -0.667307D-01  0.345657D-01  0.686343D-02 -0.449333D+00  0.336852D+00
     31  0.105377D+00  0.620559D-01  0.883392D-01 -0.203379D+00 -0.539816D-02
     32 -0.544667D-01 -0.247304D-01 -0.256357D-01 -0.702209D+00  0.243376D+00
     33 -0.155852D+00 -0.785411D-01 -0.100889D+00 -0.763155D+00 -0.689604D+00
               16            17            18            19            20 
     16  0.243533D+11
     17  0.662219D-02  0.708114D+10
     18  0.347487D-02 -0.840427D+02  0.385007D+12
     19  0.105322D+02  0.185246D-01 -0.746670D-02  0.708114D+10
     20  0.169368D+00 -0.137656D-01 -0.986044D-02 -0.143117D+00  0.201170D+10
     21 -0.215338D+00  0.132906D-01  0.103771D-01  0.451772D-01  0.720549D+02
     22  0.157767D+02 -0.433277D-02 -0.297668D-02 -0.187523D+01  0.448442D-01
     23  0.215003D+01 -0.804871D-03  0.605789D-03 -0.234881D+01 -0.827652D-01
     24  0.195187D+00 -0.137672D-02 -0.130147D-02  0.954522D-02  0.147138D+02
     25 -0.329536D+00  0.452811D-03  0.431841D-03 -0.104752D-01  0.677670D+01
     26  0.331895D+00  0.166692D-04  0.128943D-03 -0.335373D-02  0.123483D+01
     27  0.815683D+00 -0.804497D-04 -0.878961D-04 -0.305681D-01  0.746260D+00
     28  0.217544D-01 -0.287757D-03 -0.346412D-03 -0.734396D-02  0.848356D+00
     29 -0.130667D+01 -0.161945D-02 -0.100293D-02 -0.733369D+00 -0.748274D-01
     30  0.201219D+01  0.162484D-03  0.169545D-03 -0.105924D+01  0.357951D+00
     31  0.822160D+01 -0.781191D-04  0.493172D-05 -0.699879D+00  0.334139D-02
     32  0.166310D+01  0.148125D-03  0.525047D-04 -0.106938D+01  0.210734D+00
     33 -0.422734D+00  0.294767D-02  0.220948D-02  0.954354D-01 -0.146872D+01
               21            22            23            24            25 
     21  0.385007D+12
     22  0.562537D-01  0.201170D+10
     23  0.528607D-01  0.730084D+02  0.385007D+12
     24  0.369514D+01 -0.137610D+00  0.144774D+00  0.243533D+11
     25  0.103503D+01  0.976739D-01 -0.189929D+00  0.538891D+02  0.243533D+11
     26 -0.436853D+00 -0.281516D-02 -0.119666D+00 -0.926229D+01  0.141003D+03
     27 -0.519575D+00 -0.179650D-01 -0.285616D-01 -0.943234D+01  0.139813D+03
     28 -0.331393D+00  0.552365D-01 -0.460953D-01 -0.592808D+01  0.137177D+03
     29 -0.289590D-01  0.914445D+01  0.279778D+01 -0.245080D-01 -0.215842D-01
     30  0.475233D-01 -0.146651D+01  0.161281D+01 -0.129109D-01  0.124863D-01
     31  0.599133D-03 -0.629795D+00  0.887849D+01  0.249193D-02  0.807252D-02
     32  0.422986D-01 -0.138678D+01  0.570074D+01 -0.416450D-02  0.730553D-01
     33 -0.170786D+01 -0.163350D+01  0.344484D+01  0.990008D+01 -0.443268D+01
               26            27            28            29            30 
     26  0.385007D+12
     27 -0.288567D+02  0.385007D+12
     28 -0.228761D+02 -0.230883D+02  0.385007D+12
     29 -0.883539D-02 -0.953339D-02  0.692546D-02  0.243533D+11
     30 -0.431028D-02  0.146225D-01  0.861126D-02  0.153568D+03  0.385007D+12
     31  0.134920D-01  0.390691D-02  0.160950D-02  0.145145D+03 -0.228127D+02
     32  0.939867D-02  0.199480D-01 -0.872803D-02  0.155311D+03 -0.232726D+02
     33 -0.177918D+01 -0.158841D+01 -0.384888D+01 -0.104257D+00 -0.122731D-01
               31            32            33 
     31  0.385007D+12
     32 -0.236419D+02  0.385007D+12
     33 -0.141425D+00 -0.280119D+00  0.708114D+10
 End of Minotr F.D. properties file   721 does not exist.
 End of Minotr F.D. properties file   722 does not exist.
 End of Minotr F.D. properties file   788 does not exist.
 Leave Link 1002 at Tue Jun 24 13:00:23 2014, MaxMem=  4294967296 cpu:    472615.2
 (Enter /home/ztw1e12/g09/l601.exe)
 Copying SCF densities to generalized density rwf, IOpCl= 0 IROHF=0.

 **********************************************************************

            Population analysis using the SCF density.

 **********************************************************************

 Orbital symmetries:
       Occupied  (A) (A) (A) (A) (A) (A) (A) (A) (A) (A) (A) (A)
                 (A) (A) (A) (A) (A) (A) (A) (A) (A) (A) (A) (A)
                 (A) (A) (A) (A) (A) (A) (A) (A) (A) (A) (A) (A)
                 (A) (A) (A) (A) (A) (A) (A) (A) (A) (A) (A) (A)
                 (A) (A) (A) (A) (A) (A) (A) (A) (A) (A) (A) (A)
                 (A) (A) (A)
       Virtual   (A) (A) (A) (A) (A) (A) (A) (A) (A) (A) (A) (A)
                 (A) (A) (A) (A) (A) (A) (A) (A) (A) (A) (A) (A)
                 (A) (A) (A) (A) (A) (A) (A) (A) (A) (A) (A) (A)
                 (A) (A) (A) (A) (A) (A) (A) (A) (A) (A) (A) (A)
                 (A) (A) (A) (A) (A) (A) (A) (A) (A) (A) (A) (A)
                 (A) (A) (A) (A) (A) (A) (A) (A) (A) (A) (A) (A)
                 (A) (A) (A) (A) (A) (A) (A) (A) (A) (A) (A) (A)
                 (A) (A) (A) (A) (A) (A) (A) (A) (A) (A) (A) (A)
                 (A) (A) (A) (A) (A) (A) (A) (A) (A) (A) (A) (A)
                 (A) (A) (A) (A) (A) (A) (A) (A) (A) (A) (A) (A)
                 (A) (A) (A) (A) (A) (A) (A) (A) (A) (A) (A) (A)
                 (A) (A) (A) (A) (A) (A) (A) (A) (A) (A) (A) (A)
                 (A) (A) (A) (A) (A) (A) (A) (A) (A) (A) (A) (A)
                 (A) (A) (A) (A) (A) (A) (A) (A) (A) (A) (A) (A)
                 (A) (A) (A) (A) (A) (A) (A) (A) (A) (A) (A) (A)
                 (A) (A) (A) (A) (A) (A) (A) (A) (A) (A) (A) (A)
                 (A) (A) (A) (A) (A) (A) (A) (A) (A) (A) (A) (A)
                 (A) (A) (A) (A) (A) (A) (A) (A) (A) (A) (A) (A)
                 (A) (A) (A) (A) (A) (A) (A) (A) (A) (A) (A) (A)
                 (A) (A) (A) (A) (A) (A) (A) (A) (A) (A) (A) (A)
                 (A) (A) (A) (A) (A) (A) (A) (A) (A) (A) (A) (A)
                 (A) (A) (A) (A) (A) (A) (A) (A) (A) (A) (A) (A)
                 (A) (A) (A) (A) (A) (A) (A) (A) (A) (A) (A) (A)
                 (A) (A) (A) (A) (A) (A) (A) (A) (A) (A) (A) (A)
                 (A) (A) (A) (A) (A) (A) (A) (A) (A) (A) (A) (A)
                 (A) (A) (A) (A) (A) (A) (A) (A) (A) (A) (A) (A)
                 (A) (A) (A) (A) (A) (A) (A) (A) (A) (A) (A) (A)
                 (A) (A) (A) (A) (A) (A) (A) (A) (A) (A) (A) (A)
                 (A) (A) (A) (A) (A) (A) (A) (A) (A) (A) (A) (A)
                 (A) (A) (A) (A) (A) (A) (A) (A) (A) (A) (A) (A)
                 (A) (A) (A) (A) (A) (A) (A) (A) (A) (A) (A) (A)
                 (A) (A) (A) (A) (A) (A) (A) (A) (A) (A) (A) (A)
                 (A) (A) (A) (A) (A) (A) (A) (A) (A) (A) (A) (A)
                 (A) (A) (A) (A) (A) (A) (A) (A) (A) (A) (A) (A)
                 (A) (A) (A) (A) (A) (A) (A) (A) (A) (A) (A) (A)
                 (A) (A) (A) (A) (A) (A) (A) (A) (A) (A) (A) (A)
                 (A) (A) (A) (A) (A) (A) (A) (A) (A) (A) (A) (A)
                 (A) (A) (A) (A) (A) (A) (A) (A) (A) (A) (A) (A)
                 (A) (A) (A) (A) (A) (A) (A) (A) (A) (A) (A) (A)
                 (A) (A) (A) (A) (A) (A) (A) (A) (A) (A) (A) (A)
                 (A) (A) (A) (A) (A) (A) (A) (A) (A) (A) (A) (A)
                 (A) (A) (A) (A) (A) (A) (A) (A) (A) (A) (A) (A)
                 (A) (A) (A) (A) (A) (A) (A) (A) (A) (A) (A) (A)
                 (A) (A) (A) (A) (A) (A) (A) (A) (A) (A) (A) (A)
                 (A) (A) (A) (A) (A) (A) (A) (A) (A) (A) (A) (A)
                 (A) (A) (A) (A) (A) (A) (A) (A) (A) (A) (A) (A)
                 (A) (A) (A) (A) (A) (A) (A) (A) (A) (A) (A) (A)
                 (A) (A) (A) (A) (A) (A) (A) (A) (A) (A) (A) (A)
                 (A) (A) (A) (A) (A) (A) (A) (A) (A) (A) (A) (A)
                 (A) (A) (A) (A) (A) (A) (A) (A) (A) (A) (A) (A)
                 (A) (A) (A) (A) (A) (A) (A) (A) (A) (A) (A) (A)
                 (A) (A) (A) (A) (A) (A) (A) (A) (A) (A) (A) (A)
                 (A) (A) (A) (A) (A) (A) (A) (A) (A) (A) (A) (A)
                 (A) (A) (A) (A) (A) (A) (A) (A) (A) (A) (A) (A)
                 (A) (A) (A) (A) (A) (A) (A) (A) (A) (A) (A) (A)
                 (A) (A) (A) (A) (A) (A) (A) (A) (A) (A) (A) (A)
                 (A) (A) (A) (A) (A) (A) (A) (A) (A) (A) (A) (A)
                 (A) (A) (A) (A) (A) (A) (A) (A) (A) (A) (A) (A)
                 (A) (A) (A) (A) (A) (A) (A) (A) (A) (A) (A) (A)
                 (A) (A) (A) (A) (A) (A) (A) (A) (A) (A) (A) (A)
                 (A) (A) (A) (A) (A) (A) (A) (A) (A) (A) (A) (A)
                 (A) (A) (A) (A) (A) (A) (A) (A) (A) (A) (A) (A)
                 (A) (A) (A) (A) (A) (A) (A) (A) (A) (A) (A) (A)
                 (A) (A) (A) (A) (A) (A) (A) (A) (A) (A) (A) (A)
                 (A) (A) (A) (A) (A) (A) (A) (A) (A) (A) (A) (A)
                 (A) (A) (A) (A) (A) (A) (A) (A) (A) (A) (A) (A)
                 (A) (A) (A) (A) (A) (A) (A) (A) (A) (A) (A) (A)
                 (A) (A) (A) (A) (A) (A) (A) (A) (A) (A) (A) (A)
                 (A) (A) (A) (A) (A) (A) (A) (A) (A) (A) (A) (A)
                 (A) (A) (A) (A) (A) (A) (A) (A) (A) (A) (A) (A)
                 (A) (A) (A) (A) (A) (A) (A) (A) (A) (A) (A) (A)
                 (A) (A) (A) (A) (A) (A) (A) (A) (A) (A) (A) (A)
                 (A) (A) (A) (A) (A) (A) (A) (A) (A) (A) (A) (A)
                 (A) (A) (A) (A) (A) (A) (A) (A) (A) (A) (A) (A)
                 (A) (A) (A) (A) (A) (A) (A) (A) (A) (A) (A) (A)
                 (A) (A) (A) (A) (A) (A) (A) (A) (A) (A) (A) (A)
                 (A) (A) (A) (A) (A) (A) (A) (A) (A) (A) (A) (A)
                 (A) (A) (A) (A) (A) (A) (A) (A) (A) (A) (A) (A)
                 (A) (A) (A) (A) (A) (A) (A) (A) (A) (A) (A) (A)
                 (A) (A) (A) (A) (A) (A) (A) (A) (A) (A) (A) (A)
                 (A) (A) (A) (A) (A) (A) (A) (A) (A) (A) (A) (A)
                 (A) (A) (A) (A) (A) (A) (A) (A) (A) (A) (A) (A)
                 (A) (A) (A) (A) (A) (A) (A) (A) (A) (A) (A) (A)
                 (A) (A) (A) (A) (A) (A) (A) (A) (A)
 The electronic state is 1-A.
 Alpha  occ. eigenvalues --  -19.25168 -19.18365 -19.17465 -14.42632 -14.40723
 Alpha  occ. eigenvalues --  -10.35037 -10.33274 -10.31215 -10.29368 -10.26533
 Alpha  occ. eigenvalues --  -10.25245 -10.25078 -10.24984 -10.24952 -10.24765
 Alpha  occ. eigenvalues --  -10.24698 -10.24355  -1.09503  -1.06411  -1.05032
 Alpha  occ. eigenvalues --   -0.95508  -0.93383  -0.88019  -0.81201  -0.77360
 Alpha  occ. eigenvalues --   -0.77011  -0.74339  -0.71655  -0.66398  -0.64185
 Alpha  occ. eigenvalues --   -0.61582  -0.60468  -0.58597  -0.56648  -0.54892
 Alpha  occ. eigenvalues --   -0.51921  -0.50661  -0.50572  -0.47999  -0.47369
 Alpha  occ. eigenvalues --   -0.46497  -0.45946  -0.45172  -0.44210  -0.43925
 Alpha  occ. eigenvalues --   -0.43226  -0.42511  -0.42491  -0.41477  -0.40917
 Alpha  occ. eigenvalues --   -0.39881  -0.39263  -0.38094  -0.36867  -0.36626
 Alpha  occ. eigenvalues --   -0.35446  -0.35129  -0.30203  -0.28171  -0.27781
 Alpha  occ. eigenvalues --   -0.27122  -0.25984  -0.24253
 Alpha virt. eigenvalues --   -0.01757   0.00103   0.01238   0.01758   0.02713
 Alpha virt. eigenvalues --    0.03859   0.04119   0.05021   0.06093   0.07098
 Alpha virt. eigenvalues --    0.07404   0.08507   0.09802   0.10279   0.10842
 Alpha virt. eigenvalues --    0.11287   0.11941   0.12101   0.12715   0.13989
 Alpha virt. eigenvalues --    0.14922   0.15890   0.17112   0.17744   0.19311
 Alpha virt. eigenvalues --    0.19908   0.20727   0.21775   0.22358   0.22726
 Alpha virt. eigenvalues --    0.23425   0.24554   0.25193   0.26085   0.26598
 Alpha virt. eigenvalues --    0.27376   0.28118   0.28206   0.29078   0.29555
 Alpha virt. eigenvalues --    0.30148   0.31136   0.31461   0.31843   0.32727
 Alpha virt. eigenvalues --    0.33060   0.33492   0.34278   0.34508   0.35249
 Alpha virt. eigenvalues --    0.35425   0.35922   0.36500   0.37003   0.38103
 Alpha virt. eigenvalues --    0.38240   0.38660   0.38890   0.39450   0.40107
 Alpha virt. eigenvalues --    0.40531   0.40966   0.41477   0.41716   0.42227
 Alpha virt. eigenvalues --    0.42454   0.42737   0.43380   0.43624   0.44168
 Alpha virt. eigenvalues --    0.44362   0.45224   0.46053   0.46235   0.46533
 Alpha virt. eigenvalues --    0.47417   0.48313   0.48826   0.49954   0.50002
 Alpha virt. eigenvalues --    0.51129   0.51535   0.52361   0.53165   0.53750
 Alpha virt. eigenvalues --    0.54410   0.54753   0.55990   0.56939   0.57449
 Alpha virt. eigenvalues --    0.58744   0.59434   0.59726   0.60378   0.61086
 Alpha virt. eigenvalues --    0.61829   0.62840   0.63310   0.64048   0.65045
 Alpha virt. eigenvalues --    0.65228   0.66400   0.66784   0.68047   0.68335
 Alpha virt. eigenvalues --    0.69460   0.70019   0.70311   0.71519   0.73124
 Alpha virt. eigenvalues --    0.73622   0.74291   0.74805   0.74894   0.76077
 Alpha virt. eigenvalues --    0.76610   0.78131   0.78618   0.78962   0.79411
 Alpha virt. eigenvalues --    0.80294   0.81285   0.81954   0.82201   0.82468
 Alpha virt. eigenvalues --    0.82649   0.84415   0.84754   0.86239   0.86774
 Alpha virt. eigenvalues --    0.87356   0.88159   0.89181   0.90183   0.91087
 Alpha virt. eigenvalues --    0.91535   0.92819   0.93212   0.93845   0.94698
 Alpha virt. eigenvalues --    0.95116   0.96387   0.97009   0.97397   0.97818
 Alpha virt. eigenvalues --    0.98321   0.98639   0.99157   1.00446   1.01565
 Alpha virt. eigenvalues --    1.02100   1.03047   1.03472   1.04460   1.05155
 Alpha virt. eigenvalues --    1.05344   1.06662   1.06814   1.08263   1.08595
 Alpha virt. eigenvalues --    1.09480   1.10533   1.12028   1.13189   1.13595
 Alpha virt. eigenvalues --    1.14728   1.15281   1.15819   1.16939   1.17179
 Alpha virt. eigenvalues --    1.17981   1.18619   1.19012   1.19866   1.20325
 Alpha virt. eigenvalues --    1.21158   1.21592   1.22270   1.22557   1.23070
 Alpha virt. eigenvalues --    1.23363   1.23840   1.24349   1.24855   1.24954
 Alpha virt. eigenvalues --    1.25557   1.25991   1.26490   1.26768   1.26857
 Alpha virt. eigenvalues --    1.28558   1.28924   1.29527   1.30117   1.30524
 Alpha virt. eigenvalues --    1.31127   1.31738   1.32886   1.33425   1.34510
 Alpha virt. eigenvalues --    1.34573   1.35211   1.36745   1.36889   1.38525
 Alpha virt. eigenvalues --    1.39440   1.40554   1.43251   1.44036   1.44836
 Alpha virt. eigenvalues --    1.46687   1.47748   1.48591   1.49805   1.50908
 Alpha virt. eigenvalues --    1.54053   1.54715   1.56196   1.57920   1.58356
 Alpha virt. eigenvalues --    1.59425   1.60720   1.61966   1.62269   1.63033
 Alpha virt. eigenvalues --    1.64124   1.64804   1.67538   1.68690   1.70855
 Alpha virt. eigenvalues --    1.74155   1.74638   1.75314   1.77946   1.79623
 Alpha virt. eigenvalues --    1.80371   1.81727   1.82910   1.83902   1.84678
 Alpha virt. eigenvalues --    1.85196   1.85674   1.87792   1.89159   1.90165
 Alpha virt. eigenvalues --    1.90403   1.93514   1.93992   1.95020   1.96005
 Alpha virt. eigenvalues --    1.97338   1.99329   2.00413   2.01644   2.02463
 Alpha virt. eigenvalues --    2.03701   2.04241   2.05537   2.07874   2.08859
 Alpha virt. eigenvalues --    2.09443   2.09822   2.11891   2.14264   2.14827
 Alpha virt. eigenvalues --    2.15300   2.15971   2.17420   2.19312   2.19432
 Alpha virt. eigenvalues --    2.21048   2.22597   2.23433   2.24348   2.25794
 Alpha virt. eigenvalues --    2.27724   2.28491   2.29756   2.32518   2.33337
 Alpha virt. eigenvalues --    2.33534   2.35348   2.36888   2.37990   2.38648
 Alpha virt. eigenvalues --    2.39205   2.39919   2.41157   2.42199   2.44512
 Alpha virt. eigenvalues --    2.44699   2.45193   2.46527   2.47084   2.47540
 Alpha virt. eigenvalues --    2.50341   2.50604   2.52134   2.53584   2.54721
 Alpha virt. eigenvalues --    2.55917   2.56365   2.57454   2.57779   2.62379
 Alpha virt. eigenvalues --    2.62697   2.64047   2.64555   2.64837   2.66699
 Alpha virt. eigenvalues --    2.67534   2.67823   2.68459   2.69093   2.69391
 Alpha virt. eigenvalues --    2.69911   2.71161   2.71378   2.71826   2.72318
 Alpha virt. eigenvalues --    2.72933   2.73678   2.75184   2.75877   2.76074
 Alpha virt. eigenvalues --    2.76890   2.77838   2.78837   2.79591   2.81516
 Alpha virt. eigenvalues --    2.81780   2.82878   2.83578   2.85383   2.86399
 Alpha virt. eigenvalues --    2.86857   2.87267   2.87776   2.88526   2.88955
 Alpha virt. eigenvalues --    2.90198   2.90440   2.90821   2.91220   2.92005
 Alpha virt. eigenvalues --    2.93294   2.93472   2.94245   2.95078   2.95826
 Alpha virt. eigenvalues --    2.96350   2.96675   2.97408   2.97670   2.98000
 Alpha virt. eigenvalues --    3.00079   3.00366   3.00544   3.01792   3.02241
 Alpha virt. eigenvalues --    3.02764   3.03514   3.03706   3.04432   3.04858
 Alpha virt. eigenvalues --    3.05369   3.05961   3.06468   3.06981   3.09473
 Alpha virt. eigenvalues --    3.10309   3.11496   3.12576   3.12912   3.13329
 Alpha virt. eigenvalues --    3.14345   3.15185   3.15773   3.16066   3.16575
 Alpha virt. eigenvalues --    3.17214   3.18577   3.19508   3.19879   3.20982
 Alpha virt. eigenvalues --    3.21529   3.22441   3.22868   3.23698   3.23919
 Alpha virt. eigenvalues --    3.25332   3.25919   3.26689   3.27603   3.28041
 Alpha virt. eigenvalues --    3.28682   3.29021   3.29393   3.29708   3.30162
 Alpha virt. eigenvalues --    3.31837   3.32728   3.33453   3.33859   3.34560
 Alpha virt. eigenvalues --    3.35897   3.36528   3.36756   3.37873   3.38773
 Alpha virt. eigenvalues --    3.40547   3.41324   3.41820   3.42425   3.42670
 Alpha virt. eigenvalues --    3.43496   3.44368   3.44557   3.45333   3.46899
 Alpha virt. eigenvalues --    3.47452   3.47993   3.48725   3.49163   3.50623
 Alpha virt. eigenvalues --    3.51979   3.52341   3.54044   3.54250   3.55188
 Alpha virt. eigenvalues --    3.56243   3.58473   3.59043   3.60841   3.61277
 Alpha virt. eigenvalues --    3.62878   3.63141   3.63911   3.64382   3.65919
 Alpha virt. eigenvalues --    3.67692   3.68132   3.69376   3.71056   3.71267
 Alpha virt. eigenvalues --    3.71777   3.71973   3.73064   3.73434   3.74011
 Alpha virt. eigenvalues --    3.75064   3.75763   3.76219   3.77224   3.77937
 Alpha virt. eigenvalues --    3.78803   3.80383   3.81088   3.82140   3.82365
 Alpha virt. eigenvalues --    3.83385   3.83809   3.84703   3.85036   3.85473
 Alpha virt. eigenvalues --    3.87195   3.87259   3.87779   3.88667   3.89506
 Alpha virt. eigenvalues --    3.90722   3.90898   3.92349   3.93170   3.95168
 Alpha virt. eigenvalues --    3.96028   3.96204   3.97828   3.98632   4.00123
 Alpha virt. eigenvalues --    4.00968   4.02583   4.03957   4.04559   4.05104
 Alpha virt. eigenvalues --    4.06058   4.06860   4.07452   4.07945   4.08857
 Alpha virt. eigenvalues --    4.09645   4.11413   4.12284   4.12722   4.13908
 Alpha virt. eigenvalues --    4.15022   4.16058   4.16953   4.17466   4.18681
 Alpha virt. eigenvalues --    4.18799   4.19962   4.21188   4.21369   4.22426
 Alpha virt. eigenvalues --    4.23776   4.23916   4.26244   4.26624   4.26747
 Alpha virt. eigenvalues --    4.27586   4.27876   4.29237   4.29604   4.30678
 Alpha virt. eigenvalues --    4.32215   4.33378   4.35755   4.37506   4.38317
 Alpha virt. eigenvalues --    4.40015   4.40566   4.41461   4.42319   4.44671
 Alpha virt. eigenvalues --    4.45258   4.46947   4.47824   4.48877   4.50306
 Alpha virt. eigenvalues --    4.52494   4.53857   4.54467   4.57016   4.57529
 Alpha virt. eigenvalues --    4.59201   4.60148   4.61438   4.62660   4.64740
 Alpha virt. eigenvalues --    4.65167   4.65291   4.65623   4.67063   4.67973
 Alpha virt. eigenvalues --    4.68596   4.70279   4.72104   4.72486   4.73285
 Alpha virt. eigenvalues --    4.74561   4.75549   4.75878   4.78344   4.79077
 Alpha virt. eigenvalues --    4.81081   4.83172   4.83795   4.84395   4.85875
 Alpha virt. eigenvalues --    4.87737   4.88676   4.88913   4.90610   4.92454
 Alpha virt. eigenvalues --    4.93051   4.94446   4.95392   4.95771   4.96261
 Alpha virt. eigenvalues --    4.97416   4.98834   5.00176   5.01435   5.02167
 Alpha virt. eigenvalues --    5.03625   5.05478   5.06843   5.07779   5.08466
 Alpha virt. eigenvalues --    5.11610   5.11908   5.13464   5.13793   5.15140
 Alpha virt. eigenvalues --    5.16016   5.16922   5.17472   5.19035   5.20074
 Alpha virt. eigenvalues --    5.22681   5.23379   5.24545   5.26593   5.27021
 Alpha virt. eigenvalues --    5.29441   5.32432   5.35350   5.35818   5.37155
 Alpha virt. eigenvalues --    5.38906   5.42959   5.44527   5.45340   5.46364
 Alpha virt. eigenvalues --    5.49637   5.51873   5.52369   5.52737   5.54605
 Alpha virt. eigenvalues --    5.56532   5.57370   5.58590   5.61216   5.63099
 Alpha virt. eigenvalues --    5.63501   5.65366   5.66181   5.66693   5.67466
 Alpha virt. eigenvalues --    5.68012   5.69582   5.71524   5.72733   5.73940
 Alpha virt. eigenvalues --    5.75057   5.75741   5.78420   5.80688   5.81050
 Alpha virt. eigenvalues --    5.86371   5.87391   5.89745   5.91097   5.95723
 Alpha virt. eigenvalues --    5.98187   6.00785   6.04594   6.06273   6.10141
 Alpha virt. eigenvalues --    6.16416   6.17775   6.20573   6.23069   6.25332
 Alpha virt. eigenvalues --    6.45551   6.46376   6.52533   6.55935   6.59743
 Alpha virt. eigenvalues --    6.60580   6.60894   6.62261   6.62763   6.66441
 Alpha virt. eigenvalues --    6.77645   6.79991   6.81714   6.88074   6.88629
 Alpha virt. eigenvalues --    6.89956   6.91407   6.93180   6.94084   7.06409
 Alpha virt. eigenvalues --    7.17591   7.19361   7.22768   7.27587   7.29054
 Alpha virt. eigenvalues --    7.67257   8.00458   8.10924   8.11744   8.12371
 Alpha virt. eigenvalues --    8.16519   8.19081   8.26355   8.36991   8.67225
 Alpha virt. eigenvalues --    8.73620   8.75676   8.77436   8.80448   8.80762
 Alpha virt. eigenvalues --    8.83371   8.83570   8.84680   8.89004   8.90259
 Alpha virt. eigenvalues --    8.93479   8.95060   8.95723   9.00964   9.08138
 Alpha virt. eigenvalues --    9.10924   9.13717   9.15606   9.21001   9.30957
 Alpha virt. eigenvalues --    9.35468   9.40145   9.40925   9.46005   9.48297
 Alpha virt. eigenvalues --    9.57792   9.62360   9.77590   9.82040  10.01571
 Alpha virt. eigenvalues --   10.06604  10.09064  10.12054  10.13844  10.17020
[...]
 Alpha virt. eigenvalues --    6.61208   6.61949   6.62979   6.64241   6.69155
 Alpha virt. eigenvalues --    6.78152   6.80427   6.85753   6.87071   6.88284
 Alpha virt. eigenvalues --    6.91950   6.93094   7.08219   7.10636   7.10914
 Alpha virt. eigenvalues --    7.15585   7.18598   7.28884   7.43322   8.71625
 Alpha virt. eigenvalues --    9.45639   9.98806  11.96178  12.15648  12.23704
 Alpha virt. eigenvalues --   12.37397  12.56620  12.78691  12.91299  13.20724
 Alpha virt. eigenvalues --   13.43627  13.51848  13.60554  13.74359  13.96558
 Alpha virt. eigenvalues --   15.56121
          Condensed to atoms (all electrons):
               1          2          3          4          5          6
     1  C    5.445822   0.204903   0.018716  -0.051114  -0.011305   0.286034
     2  C    0.204903   5.468514   0.239384  -0.015876  -0.050406   0.039250
     3  C    0.018716   0.239384   5.531525   0.262874  -0.042927  -0.078139
     4  C   -0.051114  -0.015876   0.262874   5.328827   0.394111  -0.015388
     5  C   -0.011305  -0.050406  -0.042927   0.394111   5.128151   0.363626
     6  C    0.286034   0.039250  -0.078139  -0.015388   0.363626   4.903302
     7  H    0.453205  -0.037640   0.009437  -0.001252   0.004513  -0.073168
     8  H   -0.028655   0.441281  -0.078777   0.008865  -0.001984   0.007540
     9  H   -0.003965   0.009809  -0.087594   0.445751  -0.036133   0.011415
    10  H    0.014041  -0.005955   0.013658  -0.056897   0.455132  -0.080387
    11  C    0.005517  -0.054886   0.190692  -0.039205   0.007899  -0.001740
    12  H    0.000350  -0.004203  -0.065341   0.007257  -0.000341   0.000051
    13  H   -0.000512   0.004803  -0.045393  -0.006118   0.000188   0.000094
    14  C    0.000898  -0.011074   0.044893  -0.015386  -0.000873  -0.000153
    15  H   -0.000026  -0.002720   0.002994   0.001693   0.000074  -0.000017
    16  C   -0.000026   0.002386  -0.000476  -0.002737   0.000028  -0.000002
    17  O   -0.090291   0.013404  -0.000630   0.002625  -0.049488   0.393187
    18  H   -0.005576   0.004651  -0.000394  -0.000707   0.002454  -0.043031
    19  O   -0.000004  -0.000530  -0.016795   0.005868   0.000689   0.000002
    20  N   -0.000135   0.014531  -0.043182  -0.002645   0.000211   0.000046
    21  H   -0.000332  -0.002717   0.013217   0.004775   0.002309  -0.000613
    22  N   -0.000001  -0.000051  -0.000635   0.000210   0.000003   0.000000
    23  H    0.000000   0.000025  -0.000063  -0.000032  -0.000001   0.000000
    24  C   -0.000014  -0.000033  -0.002807   0.000189  -0.000112   0.000054
    25  C    0.000025   0.000164   0.000264  -0.000032  -0.000024  -0.000071
    26  H    0.000000  -0.000095   0.000073   0.000006   0.000001  -0.000005
    27  H   -0.000003   0.000055  -0.000020  -0.000018  -0.000006   0.000002
    28  H    0.000482   0.000059  -0.000054  -0.000341   0.000208   0.000069
    29  C    0.000000   0.000006   0.000121  -0.000057  -0.000002   0.000000
    30  H    0.000000   0.000000  -0.000011   0.000009   0.000000   0.000000
    31  H    0.000000   0.000000   0.000001  -0.000001   0.000000   0.000000
    32  H    0.000000   0.000000   0.000013  -0.000007   0.000000   0.000000
    33  O    0.000001  -0.000118  -0.000073   0.000004   0.000000   0.000000
               7          8          9         10         11         12
     1  C    0.453205  -0.028655  -0.003965   0.014041   0.005517   0.000350
     2  C   -0.037640   0.441281   0.009809  -0.005955  -0.054886  -0.004203
     3  C    0.009437  -0.078777  -0.087594   0.013658   0.190692  -0.065341
     4  C   -0.001252   0.008865   0.445751  -0.056897  -0.039205   0.007257
     5  C    0.004513  -0.001984  -0.036133   0.455132   0.007899  -0.000341
     6  C   -0.073168   0.007540   0.011415  -0.080387  -0.001740   0.000051
     7  H    0.531647  -0.007063   0.000025  -0.000212  -0.000245  -0.000059
     8  H   -0.007063   0.493571  -0.000094   0.000040   0.002794   0.002116
     9  H    0.000025  -0.000094   0.463509  -0.008704   0.001331   0.000193
    10  H   -0.000212   0.000040  -0.008704   0.533806  -0.000146   0.000017
    11  C   -0.000245   0.002794   0.001331  -0.000146   5.348646   0.459553
    12  H   -0.000059   0.002116   0.000193   0.000017   0.459553   0.475799
    13  H    0.000014   0.000148   0.000419  -0.000040   0.441680  -0.004242
    14  C    0.000020  -0.001963  -0.001883   0.000027   0.125830  -0.058098
    15  H    0.000000  -0.000092   0.000098   0.000000  -0.007136  -0.005766
    16  C   -0.000001   0.000091   0.000474  -0.000004  -0.057012   0.005095
    17  O   -0.004120  -0.000104  -0.000122   0.006231   0.000003  -0.000001
    18  H    0.004533  -0.000004   0.000037  -0.000943  -0.000006   0.000000
    19  O    0.000000   0.000000   0.014171  -0.000016   0.012068   0.001042
    20  N    0.000000   0.001136   0.000250   0.000010  -0.025142   0.003856
    21  H    0.000003  -0.000066  -0.000514   0.000036  -0.007533   0.000065
    22  N    0.000000   0.000001   0.000264   0.000000   0.005132   0.000106
    23  H    0.000000   0.000001  -0.000022   0.000000   0.000077  -0.000095
    24  C   -0.000004   0.000221   0.000047  -0.000001   0.009857   0.000312
    25  C    0.000006   0.000043  -0.000001   0.000001  -0.000025   0.000024
    26  H    0.000000  -0.000020   0.000000   0.000000   0.000077  -0.000005
    27  H    0.000000   0.000003  -0.000001   0.000000  -0.000023   0.000001
    28  H    0.000012  -0.000010  -0.000003   0.000004  -0.000281   0.000006
    29  C    0.000000   0.000000  -0.000019   0.000000  -0.000935   0.000011
    30  H    0.000000   0.000000   0.000039   0.000000  -0.000043  -0.000001
    31  H    0.000000   0.000000   0.000000   0.000000   0.000001  -0.000001
    32  H    0.000000   0.000000  -0.000021   0.000000  -0.000022   0.000002
    33  O    0.000000  -0.000007   0.000002   0.000000   0.001106  -0.000049
              13         14         15         16         17         18
     1  C   -0.000512   0.000898  -0.000026  -0.000026  -0.090291  -0.005576
     2  C    0.004803  -0.011074  -0.002720   0.002386   0.013404   0.004651
     3  C   -0.045393   0.044893   0.002994  -0.000476  -0.000630  -0.000394
     4  C   -0.006118  -0.015386   0.001693  -0.002737   0.002625  -0.000707
     5  C    0.000188  -0.000873   0.000074   0.000028  -0.049488   0.002454
     6  C    0.000094  -0.000153  -0.000017  -0.000002   0.393187  -0.043031
     7  H    0.000014   0.000020   0.000000  -0.000001  -0.004120   0.004533
     8  H    0.000148  -0.001963  -0.000092   0.000091  -0.000104  -0.000004
     9  H    0.000419  -0.001883   0.000098   0.000474  -0.000122   0.000037
    10  H   -0.000040   0.000027   0.000000  -0.000004   0.006231  -0.000943
    11  C    0.441680   0.125830  -0.007136  -0.057012   0.000003  -0.000006
    12  H   -0.004242  -0.058098  -0.005766   0.005095  -0.000001   0.000000
    13  H    0.440271  -0.067432   0.000417   0.004272   0.000000   0.000000
    14  C   -0.067432   5.525016   0.409416   0.192560   0.000000   0.000000
    15  H    0.000417   0.409416   0.474435  -0.046746   0.000000   0.000000
    16  C    0.004272   0.192560  -0.046746   4.566066   0.000000   0.000000
    17  O    0.000000   0.000000   0.000000   0.000000   7.661841   0.359271
    18  H    0.000000   0.000000   0.000000   0.000000   0.359271   0.491067
    19  O    0.017131  -0.099328   0.002383   0.707922   0.000000   0.000000
    20  N    0.003536   0.166783  -0.042035  -0.011040   0.000000   0.000000
    21  H    0.000150  -0.020486   0.004692  -0.002710  -0.000011  -0.000002
    22  N    0.000867  -0.079684   0.003071   0.451990   0.000000   0.000000
    23  H   -0.000180   0.003347  -0.000789  -0.024099   0.000000   0.000000
    24  C    0.000084  -0.052228  -0.011522  -0.003799   0.000000   0.000000
    25  C    0.000036   0.010094   0.001281  -0.001763   0.000000   0.000000
    26  H   -0.000001  -0.000524   0.000177  -0.000012   0.000000   0.000000
    27  H   -0.000001  -0.000347  -0.000265   0.000264   0.000000   0.000000
    28  H    0.000001   0.000187  -0.000362   0.000303  -0.000007   0.000000
    29  C   -0.000123   0.012888  -0.000830  -0.061365   0.000000   0.000000
    30  H   -0.000093   0.000221   0.000235  -0.004427   0.000000   0.000000
    31  H   -0.000003   0.000651  -0.000199   0.006819   0.000000   0.000000
    32  H    0.000134   0.000145  -0.000395  -0.007117   0.000000   0.000000
    33  O   -0.000006   0.020058   0.019352  -0.018476   0.000000   0.000000
              19         20         21         22         23         24
     1  C   -0.000004  -0.000135  -0.000332  -0.000001   0.000000  -0.000014
     2  C   -0.000530   0.014531  -0.002717  -0.000051   0.000025  -0.000033
     3  C   -0.016795  -0.043182   0.013217  -0.000635  -0.000063  -0.002807
     4  C    0.005868  -0.002645   0.004775   0.000210  -0.000032   0.000189
     5  C    0.000689   0.000211   0.002309   0.000003  -0.000001  -0.000112
     6  C    0.000002   0.000046  -0.000613   0.000000   0.000000   0.000054
     7  H    0.000000   0.000000   0.000003   0.000000   0.000000  -0.000004
     8  H    0.000000   0.001136  -0.000066   0.000001   0.000001   0.000221
     9  H    0.014171   0.000250  -0.000514   0.000264  -0.000022   0.000047
    10  H   -0.000016   0.000010   0.000036   0.000000   0.000000  -0.000001
    11  C    0.012068  -0.025142  -0.007533   0.005132   0.000077   0.009857
    12  H    0.001042   0.003856   0.000065   0.000106  -0.000095   0.000312
    13  H    0.017131   0.003536   0.000150   0.000867  -0.000180   0.000084
    14  C   -0.099328   0.166783  -0.020486  -0.079684   0.003347  -0.052228
    15  H    0.002383  -0.042035   0.004692   0.003071  -0.000789  -0.011522
    16  C    0.707922  -0.011040  -0.002710   0.451990  -0.024099  -0.003799
    17  O    0.000000   0.000000  -0.000011   0.000000   0.000000   0.000000
    18  H    0.000000   0.000000  -0.000002   0.000000   0.000000   0.000000
    19  O    7.850212   0.001825   0.000520  -0.122472   0.003883  -0.000691
    20  N    0.001825   6.600208   0.373608  -0.005742  -0.005737   0.355445
    21  H    0.000520   0.373608   0.459848   0.000058  -0.000278  -0.018122
    22  N   -0.122472  -0.005742   0.000058   6.391104   0.379605   0.011364
    23  H    0.003883  -0.005737  -0.000278   0.379605   0.464095  -0.004373
    24  C   -0.000691   0.355445  -0.018122   0.011364  -0.004373   4.551621
    25  C   -0.000004  -0.055423  -0.002115   0.000032   0.001381   0.289055
    26  H    0.000000  -0.000287   0.000507   0.000002  -0.000047  -0.026658
    27  H   -0.000004  -0.000731  -0.000288   0.000173  -0.000038  -0.027340
    28  H   -0.000005   0.011433  -0.000962   0.000027  -0.000157  -0.056734
    29  C    0.008333  -0.001034  -0.000013   0.290586  -0.028172   0.000065
    30  H    0.004280   0.000418  -0.000001  -0.051157   0.003146  -0.000631
    31  H    0.001429  -0.000051  -0.000003  -0.026399  -0.007643   0.000015
    32  H    0.005615  -0.000099  -0.000002  -0.042969   0.002072   0.000169
    33  O    0.000046  -0.137449   0.003802  -0.014648   0.035251   0.674257
              25         26         27         28         29         30
     1  C    0.000025   0.000000  -0.000003   0.000482   0.000000   0.000000
     2  C    0.000164  -0.000095   0.000055   0.000059   0.000006   0.000000
     3  C    0.000264   0.000073  -0.000020  -0.000054   0.000121  -0.000011
     4  C   -0.000032   0.000006  -0.000018  -0.000341  -0.000057   0.000009
     5  C   -0.000024   0.000001  -0.000006   0.000208  -0.000002   0.000000
     6  C   -0.000071  -0.000005   0.000002   0.000069   0.000000   0.000000
     7  H    0.000006   0.000000   0.000000   0.000012   0.000000   0.000000
     8  H    0.000043  -0.000020   0.000003  -0.000010   0.000000   0.000000
     9  H   -0.000001   0.000000  -0.000001  -0.000003  -0.000019   0.000039
    10  H    0.000001   0.000000   0.000000   0.000004   0.000000   0.000000
    11  C   -0.000025   0.000077  -0.000023  -0.000281  -0.000935  -0.000043
    12  H    0.000024  -0.000005   0.000001   0.000006   0.000011  -0.000001
    13  H    0.000036  -0.000001  -0.000001   0.000001  -0.000123  -0.000093
    14  C    0.010094  -0.000524  -0.000347   0.000187   0.012888   0.000221
    15  H    0.001281   0.000177  -0.000265  -0.000362  -0.000830   0.000235
    16  C   -0.001763  -0.000012   0.000264   0.000303  -0.061365  -0.004427
    17  O    0.000000   0.000000   0.000000  -0.000007   0.000000   0.000000
    18  H    0.000000   0.000000   0.000000   0.000000   0.000000   0.000000
    19  O   -0.000004   0.000000  -0.000004  -0.000005   0.008333   0.004280
    20  N   -0.055423  -0.000287  -0.000731   0.011433  -0.001034   0.000418
    21  H   -0.002115   0.000507  -0.000288  -0.000962  -0.000013  -0.000001
    22  N    0.000032   0.000002   0.000173   0.000027   0.290586  -0.051157
    23  H    0.001381  -0.000047  -0.000038  -0.000157  -0.028172   0.003146
    24  C    0.289055  -0.026658  -0.027340  -0.056734   0.000065  -0.000631
    25  C    4.950327   0.389111   0.386176   0.402746  -0.000071   0.000001
    26  H    0.389111   0.571717  -0.026445  -0.026292  -0.000003   0.000000
    27  H    0.386176  -0.026445   0.575185  -0.023915   0.000026  -0.000025
    28  H    0.402746  -0.026292  -0.023915   0.587640   0.000003  -0.000002
    29  C   -0.000071  -0.000003   0.000026   0.000003   4.762972   0.398371
    30  H    0.000001   0.000000  -0.000025  -0.000002   0.398371   0.632727
    31  H   -0.000009   0.000000   0.000007   0.000000   0.396518  -0.029253
    32  H    0.000000   0.000000   0.000002   0.000000   0.399989  -0.058069
    33  O   -0.061188   0.002260   0.001427   0.003869   0.000294   0.000010
              31         32         33
     1  C    0.000000   0.000000   0.000001
     2  C    0.000000   0.000000  -0.000118
     3  C    0.000001   0.000013  -0.000073
     4  C   -0.000001  -0.000007   0.000004
     5  C    0.000000   0.000000   0.000000
     6  C    0.000000   0.000000   0.000000
     7  H    0.000000   0.000000   0.000000
     8  H    0.000000   0.000000  -0.000007
     9  H    0.000000  -0.000021   0.000002
    10  H    0.000000   0.000000   0.000000
    11  C    0.000001  -0.000022   0.001106
    12  H   -0.000001   0.000002  -0.000049
    13  H   -0.000003   0.000134  -0.000006
    14  C    0.000651   0.000145   0.020058
    15  H   -0.000199  -0.000395   0.019352
    16  C    0.006819  -0.007117  -0.018476
    17  O    0.000000   0.000000   0.000000
    18  H    0.000000   0.000000   0.000000
    19  O    0.001429   0.005615   0.000046
    20  N   -0.000051  -0.000099  -0.137449
    21  H   -0.000003  -0.000002   0.003802
    22  N   -0.026399  -0.042969  -0.014648
    23  H   -0.007643   0.002072   0.035251
    24  C    0.000015   0.000169   0.674257
    25  C   -0.000009   0.000000  -0.061188
    26  H    0.000000   0.000000   0.002260
    27  H    0.000007   0.000002   0.001427
    28  H    0.000000   0.000000   0.003869
    29  C    0.396518   0.399989   0.000294
    30  H   -0.029253  -0.058069   0.000010
    31  H    0.592117  -0.025685   0.000128
    32  H   -0.025685   0.611411  -0.000049
    33  O    0.000128  -0.000049   7.901280
 Mulliken charges:
               1
     1  C   -0.238037
     2  C   -0.256922
     3  C    0.135448
     4  C   -0.255253
     5  C   -0.165997
     6  C    0.288043
     7  H    0.120349
     8  H    0.160989
     9  H    0.191245
    10  H    0.130303
    11  C   -0.417884
    12  H    0.182347
    13  H    0.209897
    14  C   -0.103575
    15  H    0.198582
    16  C    0.303539
    17  O   -0.291787
    18  H    0.188651
    19  O   -0.397569
    20  N   -0.202563
    21  H    0.193180
    22  N   -0.190841
    23  H    0.178843
    24  C    0.312314
    25  C   -0.310039
    26  H    0.116460
    27  H    0.116148
    28  H    0.102076
    29  C   -0.177560
    30  H    0.104254
    31  H    0.091563
    32  H    0.114882
    33  O   -0.431084
 Sum of Mulliken charges =   0.00000
 Mulliken charges with hydrogens summed into heavy atoms:
               1
     1  C   -0.117688
     2  C   -0.095934
     3  C    0.135448
     4  C   -0.064008
     5  C   -0.035694
     6  C    0.288043
    11  C   -0.025640
    14  C    0.095007
    16  C    0.303539
    17  O   -0.103136
    19  O   -0.397569
    20  N   -0.009382
    22  N   -0.011998
    24  C    0.312314
    25  C    0.024645
    29  C    0.133138
    33  O   -0.431084
 Electronic spatial extent (au):  <R**2>=           4881.5328
 Charge=              0.0000 electrons
 Dipole moment (field-independent basis, Debye):
    X=             -1.9760    Y=              2.7162    Z=              0.3149  Tot=              3.3737
 Quadrupole moment (field-independent basis, Debye-Ang):
   XX=            -91.3787   YY=           -105.8125   ZZ=            -97.9812
   XY=            -10.0618   XZ=             -6.4615   YZ=             -3.6860
 Traceless Quadrupole moment (field-independent basis, Debye-Ang):
   XX=              7.0121   YY=             -7.4217   ZZ=              0.4096
   XY=            -10.0618   XZ=             -6.4615   YZ=             -3.6860
 Octapole moment (field-independent basis, Debye-Ang**2):
  XXX=             -6.8349  YYY=             27.0183  ZZZ=             -1.3570  XYY=            -28.2692
  XXY=             17.5596  XXZ=              3.2883  XZZ=             11.8132  YZZ=              1.6738
  YYZ=            -10.2684  XYZ=            -16.0308
 Hexadecapole moment (field-independent basis, Debye-Ang**3):
 XXXX=          -3850.4190 YYYY=          -1363.3777 ZZZZ=           -546.2523 XXXY=           -328.9331
 XXXZ=           -147.1258 YYYX=            -16.1475 YYYZ=            -25.5058 ZZZX=              9.0204
 ZZZY=             13.4362 XXYY=           -992.9680 XXZZ=           -862.0388 YYZZ=           -310.8644
 XXYZ=              2.6560 YYXZ=             -1.2255 ZZXY=             -0.8332
 N-N= 1.218098452478D+03 E-N=-4.306519245772D+03  KE= 7.961945064501D+02
 Calculating spin-rotation constants.
 Leave Link  601 at Tue Jun 24 18:03:48 2014, MaxMem=  4294967296 cpu:        92.6
 (Enter /home/ztw1e12/g09/l9999.exe)

 Test job not archived.
 1\1\GINC-GREEN0315\SP\RM06\Gen\C12H16N2O3\ROOT\24-Jun-2014\0\\#P Geom=
 AllCheck Guess=TCheck SCRF=Check GenChk RM06/ChkBas NMR=ReadFC IOp(3/6
 =22)\\NMR spin-spin scan\\0,1\C,0,3.432725,-0.016603,-0.598784\C,0,2.2
 30212,-0.47711,-1.105317\C,0,1.275726,-1.06236,-0.283179\C,0,1.559524,
 -1.165582,1.075644\C,0,2.755275,-0.709609,1.598705\C,0,3.695981,-0.132
 927,0.757711\H,0,4.17399,0.433166,-1.249416\H,0,2.027616,-0.381121,-2.
 166341\H,0,0.825918,-1.614764,1.736254\H,0,2.974338,-0.797257,2.655355
 \C,0,-0.038925,-1.525546,-0.835153\H,0,0.099052,-1.774645,-1.888004\H,
 0,-0.349996,-2.438534,-0.328295\C,0,-1.199083,-0.517106,-0.742308\H,0,
 -1.692942,-0.439085,-1.711297\C,0,-2.253352,-0.94823,0.28229\O,0,4.862
 432,0.300856,1.311484\H,0,5.426026,0.669507,0.621751\O,0,-2.015404,-1.
 736457,1.193743\N,0,-0.756077,0.821995,-0.386565\H,0,0.097745,0.913445
 ,0.145138\N,0,-3.448234,-0.372383,0.118159\H,0,-3.525251,0.35007,-0.58
 6738\C,0,-1.37498,1.937542,-0.810258\C,0,-0.743875,3.23252,-0.417895\H
 ,0,-0.56916,3.822591,-1.316976\H,0,-1.445569,3.787895,0.204555\H,0,0.1
 92974,3.109624,0.121113\C,0,-4.519377,-0.570821,1.067207\H,0,-4.248678
 ,-0.205844,2.059281\H,0,-5.397857,-0.032353,0.724809\H,0,-4.770133,-1.
 627997,1.150939\O,0,-2.4098,1.904655,-1.478744\\Version=EM64L-G09RevD.
 01\State=1-A\HF=-801.8679177\RMSD=3.720e-09\Dipole=0.857589,0.8860526,
 -0.4911204\Quadrupole=6.6524266,-2.921624,-3.7308025,4.1412395,-6.5769
 703,4.6526475\PG=C01 [X(C12H16N2O3)]\\@


 I KNOW YOU BELIEVE YOU UNDERSTAND WHAT YOU THINK I SAID,
 BUT I AM NOT SURE YOU REALIZE THAT WHAT YOU HEARD IS NOT WHAT I MEANT.
 Job cpu time:       3 days  8 hours 29 minutes 20.0 seconds.
 File lengths (MBytes):  RWF=   3656 Int=      0 D2E=      0 Chk=     64 Scr=      8
 Normal termination of Gaussian 09 at Tue Jun 24 18:03:49 2014.
