 Entering Gaussian System, Link 0=g09
 Input=scan_input_30.gjf
 Output=scan_input_30.log
 Initial command:
 /home/ztw1e12/g09/l1.exe "/home/ztw1e12/tyrosine_scan/tyrosine_chi1_scan/Gau-6597.inp" -scrdir="/home/ztw1e12/tyrosine_scan/tyrosine_chi1_scan/"
 Default is to use a total of   8 processors:
                                8 via shared-memory
                                1 via Linda
 Entering Link 1 = /home/ztw1e12/g09/l1.exe PID=      6598.
  
 Copyright (c) 1988,1990,1992,1993,1995,1998,2003,2009,2013,
            Gaussian, Inc.  All Rights Reserved.
  
 This is part of the Gaussian(R) 09 program.  It is based on
 the Gaussian(R) 03 system (copyright 2003, Gaussian, Inc.),
 the Gaussian(R) 98 system (copyright 1998, Gaussian, Inc.),
 the Gaussian(R) 94 system (copyright 1995, Gaussian, Inc.),
 the Gaussian 92(TM) system (copyright 1992, Gaussian, Inc.),
 the Gaussian 90(TM) system (copyright 1990, Gaussian, Inc.),
 the Gaussian 88(TM) system (copyright 1988, Gaussian, Inc.),
 the Gaussian 86(TM) system (copyright 1986, Carnegie Mellon
 University), and the Gaussian 82(TM) system (copyright 1983,
 Carnegie Mellon University). Gaussian is a federally registered
 trademark of Gaussian, Inc.
  
 This software contains proprietary and confidential information,
 including trade secrets, belonging to Gaussian, Inc.
  
 This software is provided under written license and may be
 used, copied, transmitted, or stored only in accord with that
 written license.
  
 The following legend is applicable only to US Government
 contracts under FAR:
  
                    RESTRICTED RIGHTS LEGEND
  
 Use, reproduction and disclosure by the US Government is
 subject to restrictions as set forth in subparagraphs (a)
 and (c) of the Commercial Computer Software - Restricted
 Rights clause in FAR 52.227-19.
  
 Gaussian, Inc.
 340 Quinnipiac St., Bldg. 40, Wallingford CT 06492
  
  
 ---------------------------------------------------------------
 Warning -- This program may not be used in any manner that
 competes with the business of Gaussian, Inc. or will provide
 assistance to any competitor of Gaussian, Inc.  The licensee
 of this program is prohibited from giving any competitor of
 Gaussian, Inc. access to this program.  By using this program,
 the user acknowledges that Gaussian, Inc. is engaged in the
 business of creating and licensing software in the field of
 computational chemistry and represents and warrants to the
 licensee that it is not a competitor of Gaussian, Inc. and that
 it will not use this program in any manner prohibited above.
 ---------------------------------------------------------------
  

 Cite this work as:
 Gaussian 09, Revision D.01,
 M. J. Frisch, G. W. Trucks, H. B. Schlegel, G. E. Scuseria, 
 M. A. Robb, J. R. Cheeseman, G. Scalmani, V. Barone, B. Mennucci, 
 G. A. Petersson, H. Nakatsuji, M. Caricato, X. Li, H. P. Hratchian, 
 A. F. Izmaylov, J. Bloino, G. Zheng, J. L. Sonnenberg, M. Hada, 
 M. Ehara, K. Toyota, R. Fukuda, J. Hasegawa, M. Ishida, T. Nakajima, 
 Y. Honda, O. Kitao, H. Nakai, T. Vreven, J. A. Montgomery, Jr., 
 J. E. Peralta, F. Ogliaro, M. Bearpark, J. J. Heyd, E. Brothers, 
 K. N. Kudin, V. N. Staroverov, T. Keith, R. Kobayashi, J. Normand, 
 K. Raghavachari, A. Rendell, J. C. Burant, S. S. Iyengar, J. Tomasi, 
 M. Cossi, N. Rega, J. M. Millam, M. Klene, J. E. Knox, J. B. Cross, 
 V. Bakken, C. Adamo, J. Jaramillo, R. Gomperts, R. E. Stratmann, 
 O. Yazyev, A. J. Austin, R. Cammi, C. Pomelli, J. W. Ochterski, 
 R. L. Martin, K. Morokuma, V. G. Zakrzewski, G. A. Voth, 
 P. Salvador, J. J. Dannenberg, S. Dapprich, A. D. Daniels, 
 O. Farkas, J. B. Foresman, J. V. Ortiz, J. Cioslowski, 
 and D. J. Fox, Gaussian, Inc., Wallingford CT, 2013.
 
 ******************************************
 Gaussian 09:  EM64L-G09RevD.01 24-Apr-2013
                24-Jun-2014 
 ******************************************
 %Mem=32GB
 %NProcShared=16
 Will use up to   16 processors via shared memory.
 Default route:  MaxDisk=100GB
 ----------------------------------------------------------------------
 #p nmr=(giao,mixed,spinspin) m06/cc-pvtz scf=tight integral=(grid=ultr
 afine)
 ----------------------------------------------------------------------
 1/38=1/1;
 2/12=2,17=6,18=5,40=1/2;
 3/5=16,6=1,10=1100000,11=2,16=1,25=1,30=1,74=-54,75=-5/1,2,8,3;
 4//1;
 5/5=2,32=2,38=5/2;
 8/6=1,10=90,11=11/1;
 10/13=100,45=16,47=3/2;
 6/7=2,8=2,9=2,10=2,28=1/1;
 99/9=1/99;
 Leave Link    1 at Tue Jun 24 17:11:06 2014, MaxMem=  4294967296 cpu:         5.6
 (Enter /home/ztw1e12/g09/l101.exe)
 ------------------
 NMR spin-spin scan
 ------------------
 Symbolic Z-matrix:
 Charge =  0 Multiplicity = 1
 C                     2.33522  -2.45238   1.66346 
 C                     1.71621  -1.22475   1.51851 
 C                     1.56558  -0.63723   0.26804 
 C                     2.04967  -1.31981  -0.84073 
 C                     2.67149  -2.54954  -0.71296 
 C                     2.81594  -3.11639   0.54361 
 H                     2.45403  -2.90341   2.64204 
 H                     1.33841  -0.71025   2.39581 
 H                     1.9402   -0.87684  -1.82475 
 H                     3.0529   -3.07672  -1.57828 
 C                     0.85477   0.67359   0.1242 
 H                     1.14811   1.32959   0.94666 
 H                     1.16124   1.17526  -0.79596 
 C                    -0.68113   0.53076   0.13098 
 H                    -0.95132  -0.47904   0.45148 
 C                    -1.25983   1.44093   1.19976 
 O                     3.44065  -4.32528   0.62853 
 H                     3.48203  -4.60071   1.55143 
 O                    -1.13453   1.12966   2.38416 
 N                    -1.2211    0.75768  -1.19173 
 H                    -0.61607   1.12487  -1.91031 
 N                    -1.83266   2.57622   0.80551 
 H                    -1.93187   2.7513   -0.18095 
 C                    -2.46813   0.36483  -1.5249 
 C                    -2.87684   0.58235  -2.94339 
 H                    -3.1568   -0.37727  -3.37744 
 H                    -3.7624    1.21737  -2.95822 
 H                    -2.09653   1.03735  -3.54945 
 C                    -2.37729   3.52001   1.75497 
 H                    -1.59828   3.90449   2.41368 
 H                    -2.81698   4.35106   1.21248 
 H                    -3.14765   3.05658   2.37171 
 O                    -3.22621  -0.13675  -0.69907 
 
 NAtoms=     33 NQM=       33 NQMF=       0 NMMI=      0 NMMIF=      0
                NMic=       0 NMicF=      0.
                    Isotopes and Nuclear Properties:
 (Nuclear quadrupole moments (NQMom) in fm**2, nuclear magnetic moments (NMagM)
  in nuclear magnetons)

  Atom         1           2           3           4           5           6           7           8           9          10
 IAtWgt=          12          12          12          12          12          12           1           1           1           1
 AtmWgt=  12.0000000  12.0000000  12.0000000  12.0000000  12.0000000  12.0000000   1.0078250   1.0078250   1.0078250   1.0078250
 NucSpn=           0           0           0           0           0           0           1           1           1           1
 AtZEff=   0.0000000   0.0000000   0.0000000   0.0000000   0.0000000   0.0000000   0.0000000   0.0000000   0.0000000   0.0000000
 NQMom=    0.0000000   0.0000000   0.0000000   0.0000000   0.0000000   0.0000000   0.0000000   0.0000000   0.0000000   0.0000000
 NMagM=    0.0000000   0.0000000   0.0000000   0.0000000   0.0000000   0.0000000   2.7928460   2.7928460   2.7928460   2.7928460
 AtZNuc=   6.0000000   6.0000000   6.0000000   6.0000000   6.0000000   6.0000000   1.0000000   1.0000000   1.0000000   1.0000000

  Atom        11          12          13          14          15          16          17          18          19          20
 IAtWgt=          12           1           1          12           1          12          16           1          16          14
 AtmWgt=  12.0000000   1.0078250   1.0078250  12.0000000   1.0078250  12.0000000  15.9949146   1.0078250  15.9949146  14.0030740
 NucSpn=           0           1           1           0           1           0           0           1           0           2
 AtZEff=   0.0000000   0.0000000   0.0000000   0.0000000   0.0000000   0.0000000   0.0000000   0.0000000   0.0000000   0.0000000
 NQMom=    0.0000000   0.0000000   0.0000000   0.0000000   0.0000000   0.0000000   0.0000000   0.0000000   0.0000000   2.0440000
 NMagM=    0.0000000   2.7928460   2.7928460   0.0000000   2.7928460   0.0000000   0.0000000   2.7928460   0.0000000   0.4037610
 AtZNuc=   6.0000000   1.0000000   1.0000000   6.0000000   1.0000000   6.0000000   8.0000000   1.0000000   8.0000000   7.0000000

  Atom        21          22          23          24          25          26          27          28          29          30
 IAtWgt=           1          14           1          12          12           1           1           1          12           1
 AtmWgt=   1.0078250  14.0030740   1.0078250  12.0000000  12.0000000   1.0078250   1.0078250   1.0078250  12.0000000   1.0078250
 NucSpn=           1           2           1           0           0           1           1           1           0           1
 AtZEff=   0.0000000   0.0000000   0.0000000   0.0000000   0.0000000   0.0000000   0.0000000   0.0000000   0.0000000   0.0000000
 NQMom=    0.0000000   2.0440000   0.0000000   0.0000000   0.0000000   0.0000000   0.0000000   0.0000000   0.0000000   0.0000000
 NMagM=    2.7928460   0.4037610   2.7928460   0.0000000   0.0000000   2.7928460   2.7928460   2.7928460   0.0000000   2.7928460
 AtZNuc=   1.0000000   7.0000000   1.0000000   6.0000000   6.0000000   1.0000000   1.0000000   1.0000000   6.0000000   1.0000000

  Atom        31          32          33
 IAtWgt=           1           1          16
 AtmWgt=   1.0078250   1.0078250  15.9949146
 NucSpn=           1           1           0
 AtZEff=   0.0000000   0.0000000   0.0000000
 NQMom=    0.0000000   0.0000000   0.0000000
 NMagM=    2.7928460   2.7928460   0.0000000
 AtZNuc=   1.0000000   1.0000000   8.0000000
 Leave Link  101 at Tue Jun 24 17:11:06 2014, MaxMem=  4294967296 cpu:         1.7
 (Enter /home/ztw1e12/g09/l202.exe)
                          Input orientation:                          
 ---------------------------------------------------------------------
 Center     Atomic      Atomic             Coordinates (Angstroms)
 Number     Number       Type             X           Y           Z
 ---------------------------------------------------------------------
      1          6           0        2.335224   -2.452377    1.663462
      2          6           0        1.716212   -1.224747    1.518506
      3          6           0        1.565582   -0.637230    0.268035
      4          6           0        2.049673   -1.319806   -0.840726
      5          6           0        2.671494   -2.549539   -0.712962
      6          6           0        2.815943   -3.116388    0.543610
      7          1           0        2.454029   -2.903414    2.642043
      8          1           0        1.338413   -0.710248    2.395808
      9          1           0        1.940198   -0.876835   -1.824747
     10          1           0        3.052896   -3.076722   -1.578283
     11          6           0        0.854767    0.673588    0.124199
     12          1           0        1.148106    1.329590    0.946664
     13          1           0        1.161243    1.175261   -0.795962
     14          6           0       -0.681133    0.530760    0.130975
     15          1           0       -0.951318   -0.479043    0.451482
     16          6           0       -1.259834    1.440926    1.199760
     17          8           0        3.440650   -4.325276    0.628527
     18          1           0        3.482030   -4.600711    1.551432
     19          8           0       -1.134531    1.129659    2.384163
     20          7           0       -1.221096    0.757681   -1.191727
     21          1           0       -0.616070    1.124873   -1.910311
     22          7           0       -1.832655    2.576220    0.805514
     23          1           0       -1.931868    2.751299   -0.180952
     24          6           0       -2.468129    0.364826   -1.524902
     25          6           0       -2.876840    0.582347   -2.943388
     26          1           0       -3.156800   -0.377265   -3.377437
     27          1           0       -3.762400    1.217369   -2.958215
     28          1           0       -2.096532    1.037347   -3.549454
     29          6           0       -2.377288    3.520005    1.754966
     30          1           0       -1.598280    3.904492    2.413679
     31          1           0       -2.816978    4.351062    1.212480
     32          1           0       -3.147648    3.056580    2.371705
     33          8           0       -3.226214   -0.136748   -0.699072
 ---------------------------------------------------------------------
                    Distance matrix (angstroms):
                    1          2          3          4          5
     1  C    0.000000
     2  C    1.382485   0.000000
     3  C    2.415435   1.389800   0.000000
     4  C    2.763189   2.384577   1.389102   0.000000
     5  C    2.402063   2.765337   2.417090   1.383918   0.000000
     6  C    1.387829   2.395441   2.790263   2.394006   1.386058
     7  H    1.084052   2.150496   3.400124   3.847207   3.380618
     8  H    2.136581   1.084942   2.141111   3.369363   3.850266
     9  H    3.847854   3.368761   2.139506   1.084668   2.137475
    10  H    3.378427   3.847939   3.401781   2.153416   1.082668
    11  C    3.785861   2.507958   1.498062   2.516446   3.793400
    12  H    4.028191   2.678504   2.122076   3.320675   4.485835
    13  H    4.537263   3.380058   2.140258   2.648900   4.020184
    14  C    4.510658   3.279376   2.535885   3.438910   4.630397
    15  H    4.020485   2.968220   2.528530   3.373815   4.332165
    16  C    5.319518   4.008025   3.629025   4.768444   5.919261
    17  O    2.408487   3.657736   4.153013   3.623033   2.354663
    18  H    2.437838   3.810030   4.585746   4.305625   3.160974
    19  O    5.038809   3.797279   3.858822   5.151596   6.133067
    20  N    5.577095   4.461296   3.441258   3.890641   5.130222
    21  H    5.854802   4.766240   3.551029   3.771824   5.073758
    22  N    6.587418   5.248825   4.707776   5.741219   6.990460
    23  H    6.977692   5.657348   4.890386   5.732527   7.040800
    24  C    6.416736   5.412743   4.526540   4.869971   5.963933
    25  C    7.589350   6.653587   5.615667   5.684180   6.750372
    26  H    7.738157   6.959506   5.971427   5.867763   6.766625
    27  H    8.485750   7.484661   6.498894   6.685896   7.786254
    28  H    7.680698   6.733372   5.548739   5.484924   6.606475
    29  C    7.608251   6.270991   5.919442   7.054032   8.271652
    30  H    7.512993   6.172219   5.936417   7.154859   8.346339
    31  H    8.546072   7.192573   6.706852   7.749754   9.024907
    32  H    7.804620   6.535659   6.346983   7.515625   8.649055
    33  O    6.470958   5.525303   4.913969   5.408759   6.372183
                    6          7          8          9         10
     6  C    0.000000
     7  H    2.140038   0.000000
     8  H    3.376869   2.472895   0.000000
     9  H    3.375151   4.931861   4.266495   0.000000
    10  H    2.135451   4.266126   4.932854   2.477568   0.000000
    11  C    4.287894   4.657480   2.703539   2.716682   4.668516
    12  H    4.765591   4.743213   2.509417   3.629937   5.423944
    13  H    4.790693   5.488785   3.711324   2.424101   4.719082
    14  C    5.069664   5.284719   3.278435   3.560555   5.466119
    15  H    4.599601   4.719377   3.012761   3.701395   5.186676
    16  C    6.149114   5.894595   3.578962   4.975928   6.835664
    17  O    1.363407   2.655063   4.539946   4.490173   2.565005
    18  H    1.913790   2.264296   4.521478   5.257669   3.507394
    19  O    6.084636   5.404622   3.082344   5.585239   7.136467
    20  N    5.858113   6.450423   4.645031   3.614711   5.754918
    21  H    5.982369   6.810032   5.072508   3.247870   5.587929
    22  N    7.354172   7.195477   4.835864   5.751198   7.842630
    23  H    7.582641   7.692930   5.414493   5.555026   7.795270
    24  C    6.657252   7.229970   5.569337   4.589660   6.506060
    25  C    7.632010   8.471466   6.924318   5.156009   7.100286
    26  H    7.651867   8.607960   7.324491   5.351617   7.006022
    27  H    8.620837   9.326721   7.641961   6.179811   8.172618
    28  H    7.624900   8.635499   7.085131   4.788935   6.879512
    29  C    8.513445   8.086337   5.666759   7.126516   9.171382
    30  H    8.501487   7.925966   5.469946   7.303846   9.290132
    31  H    9.377633   9.080451   6.654652   7.693268   9.869942
    32  H    8.775641   8.183728   5.857842   7.679072   9.574265
    33  O    6.850560   7.147213   5.544637   5.339165   6.988825
                   11         12         13         14         15
    11  C    0.000000
    12  H    1.092170   0.000000
    13  H    1.091925   1.749496   0.000000
    14  C    1.542542   2.156292   2.160774   0.000000
    15  H    2.167398   2.814949   2.959012   1.093356   0.000000
    16  C    2.493427   2.423763   3.148825   1.518420   2.083599
    17  O    5.650644   6.110195   6.122154   6.388876   5.840739
    18  H    6.062816   6.401673   6.652681   6.758818   6.152448
    19  O    3.045118   2.704960   3.922480   2.375101   2.521259
    20  N    2.459256   3.242362   2.450825   1.446580   2.074223
    21  H    2.550735   3.364005   2.098369   2.126982   2.874544
    22  N    3.362504   3.234029   3.672987   2.442317   3.199488
    23  H    3.489317   3.574775   3.525545   2.567573   3.434612
    24  C    3.722433   4.485149   3.789525   2.441888   2.630385
    25  C    4.831491   5.647218   4.611843   3.778293   4.044666
    26  H    5.427561   6.335883   5.264964   4.388894   4.419856
    27  H    5.578100   6.274850   5.377673   4.416869   4.733501
    28  H    4.726332   5.552311   4.267767   3.975618   4.429271
    29  C    4.605179   4.228436   4.952399   3.801299   4.441266
    30  H    4.658100   4.040407   5.036414   4.175400   4.846045
    31  H    5.309414   4.992178   5.472275   4.508458   5.233519
    32  H    5.171969   4.844248   5.669217   4.181427   4.583858
    33  O    4.241324   4.898293   4.580451   2.758982   2.572177
                   16         17         18         19         20
    16  C    0.000000
    17  O    7.461229   0.000000
    18  H    7.688324   0.964018   0.000000
    19  O    1.231015   7.332861   7.405621   0.000000
    20  N    2.487476   7.133138   7.639154   3.596227   0.000000
    21  H    3.191687   7.253055   7.846044   4.325660   1.008588
    22  N    1.331333   8.687331   8.961619   2.252121   2.769487
    23  H    2.018681   8.921722   9.293196   3.137719   2.345501
    24  C    3.168872   7.845252   8.338152   4.200505   1.349234
    25  C    4.529629   8.760937   9.354289   5.631873   2.416722
    26  H    5.277787   8.669538   9.284681   6.289390   3.132472
    27  H    4.858145   9.770853  10.328056   5.954359   3.128901
    28  H    4.839212   8.767761   9.430116   6.011803   2.530509
    29  C    2.424774   9.831872  10.015940   2.766602   4.201216
    30  H    2.767183   9.813596   9.944420   2.813473   4.800379
    31  H    3.300568  10.713438  10.951102   3.818495   4.608626
    32  H    2.747296  10.046698  10.161672   2.786722   4.657745
    33  O    3.156148   7.984570   8.366138   3.935132   2.250158
                   21         22         23         24         25
    21  H    0.000000
    22  N    3.310920   0.000000
    23  H    2.714271   1.006783   0.000000
    24  C    2.038709   3.274894   2.790884   0.000000
    25  C    2.544143   4.372656   3.637084   1.492134   0.000000
    26  H    3.296086   5.288999   4.637444   2.111126   1.089785
    27  H    3.317537   4.442527   3.662919   2.111008   1.089812
    28  H    2.210479   4.626392   3.783061   2.165451   1.087760
    29  C    4.719407   1.445273   2.130044   4.552026   5.563624
    30  H    5.233346   2.098912   2.858889   5.366404   6.431915
    31  H    5.000411   2.069922   2.298764   4.848199   5.610529
    32  H    5.336295   2.100692   2.843831   4.784436   5.869019
    33  O    3.141916   3.400879   3.206960   1.228114   2.382460
                   26         27         28         29         30
    26  H    0.000000
    27  H    1.756518   0.000000
    28  H    1.776200   1.776820   0.000000
    29  C    6.491372   5.425380   5.863385   0.000000
    30  H    7.368816   6.384457   6.635340   1.090223   0.000000
    31  H    6.598477   5.301750   5.846004   1.085483   1.768482
    32  H    6.696567   5.671743   6.343680   1.090222   1.766708
    33  O    2.690038   2.687909   3.283193   4.484955   5.354532
                   31         32         33
    31  H    0.000000
    32  H    1.768850   0.000000
    33  O    4.895094   4.430935   0.000000
 Stoichiometry    C12H16N2O3
 Framework group  C1[X(C12H16N2O3)]
 Deg. of freedom    93
 Full point group                 C1      NOp   1
 Largest Abelian subgroup         C1      NOp   1
 Largest concise Abelian subgroup C1      NOp   1
                         Standard orientation:                         
 ---------------------------------------------------------------------
 Center     Atomic      Atomic             Coordinates (Angstroms)
 Number     Number       Type             X           Y           Z
 ---------------------------------------------------------------------
      1          6           0       -3.418776   -1.091884    0.576843
      2          6           0       -2.126707   -1.257270    0.113735
      3          6           0       -1.522326   -0.299770   -0.692155
      4          6           0       -2.249853    0.837622   -1.018726
      5          6           0       -3.544046    1.018691   -0.563197
      6          6           0       -4.130472    0.049701    0.235751
      7          1           0       -3.886561   -1.844523    1.201247
      8          1           0       -1.572099   -2.149293    0.385409
      9          1           0       -1.793929    1.595938   -1.646099
     10          1           0       -4.110774    1.903564   -0.823945
     11          6           0       -0.106845   -0.474893   -1.150345
     12          1           0        0.052844   -1.520960   -1.420673
     13          1           0        0.077113    0.109662   -2.054089
     14          6           0        0.927896   -0.079402   -0.076878
     15          1           0        0.423211    0.052257    0.884052
     16          6           0        1.881155   -1.240186    0.145556
     17          8           0       -5.409404    0.261486    0.658079
     18          1           0       -5.697799   -0.485698    1.194618
     19          8           0        1.486225   -2.230624    0.760749
     20          7           0        1.582492    1.161082   -0.430854
     21          1           0        1.440299    1.542859   -1.353501
     22          7           0        3.096860   -1.157354   -0.390769
     23          1           0        3.365453   -0.303581   -0.851792
     24          6           0        2.263358    1.887776    0.479513
     25          6           0        2.822533    3.188412    0.008206
     26          1           0        2.418355    3.987908    0.628752
     27          1           0        3.902539    3.177450    0.153661
     28          1           0        2.601344    3.396915   -1.036219
     29          6           0        4.057035   -2.229814   -0.261514
     30          1           0        3.689550   -3.141554   -0.732970
     31          1           0        4.982012   -1.934541   -0.746804
     32          1           0        4.264396   -2.447250    0.786488
     33          8           0        2.419537    1.491743    1.631482
 ---------------------------------------------------------------------
 Rotational constants (GHZ):      0.7645896      0.2394306      0.2010652
 Leave Link  202 at Tue Jun 24 17:11:07 2014, MaxMem=  4294967296 cpu:         1.7
 (Enter /home/ztw1e12/g09/l301.exe)
 Standard basis: CC-pVTZ (5D, 7F)
 Converting basis for Fermi contact spin-spin IFCMod=1.
 AO basis functions are being uncontracted.
 Ernie: Thresh=  0.10000D-02 Tol=  0.10000D-05 Strict=F.
 There are  1305 symmetry adapted cartesian basis functions of A   symmetry.
 There are  1204 symmetry adapted basis functions of A   symmetry.
  1204 basis functions,  1305 primitive gaussians,  1305 cartesian basis functions
    63 alpha electrons       63 beta electrons
       nuclear repulsion energy      1193.5748560953 Hartrees.
 IExCor= 4235 DFT=T Ex+Corr=M06 ExCW=0 ScaHFX=  0.270000
 ScaDFX=  1.000000  1.000000  1.000000  1.000000 ScalE2=  1.000000  1.000000
 IRadAn= 199590 IRanWt=     -1 IRanGd=            0 ICorTp=0 IEmpDi=  4
 NAtoms=   33 NActive=   33 NUniq=   33 SFac= 1.00D+00 NAtFMM=   60 NAOKFM=F Big=F
 Integral buffers will be    131072 words long.
 Raffenetti 2 integral format.
 Two-electron integral symmetry is turned on.
 Leave Link  301 at Tue Jun 24 17:11:07 2014, MaxMem=  4294967296 cpu:         4.9
 (Enter /home/ztw1e12/g09/l302.exe)
 NPDir=0 NMtPBC=     1 NCelOv=     1 NCel=       1 NClECP=     1 NCelD=      1
         NCelK=      1 NCelE2=     1 NClLst=     1 CellRange=     0.0.
 One-electron integrals computed using PRISM.
 GSVD:  received Info=                   1 from GESDD.
 NBasis=  1204 RedAO= T EigKep=  2.60D-05  NBF=  1204
 NBsUse=  1068 1.00D-06 EigRej=  7.51D-15 NBFU=  1068
 Precomputing XC quadrature grid using
 IXCGrd= 4 IRadAn=      199590 IRanWt=          -1 IRanGd=           0 AccXCQ= 0.00D+00.
 Generated NRdTot=       0 NPtTot=           0 NUsed=           0 NTot=          32
 NSgBfM=   999   999  1002  1002  1002 MxSgAt=    33 MxSgA2=    33.
 Leave Link  302 at Tue Jun 24 17:11:13 2014, MaxMem=  4294967296 cpu:        93.4
 (Enter /home/ztw1e12/g09/l308.exe)
 Leave Link  308 at Tue Jun 24 17:11:14 2014, MaxMem=  4294967296 cpu:         7.2
 (Enter /home/ztw1e12/g09/l303.exe)
 DipDrv:  MaxL=1.
 Leave Link  303 at Tue Jun 24 17:11:14 2014, MaxMem=  4294967296 cpu:         4.2
 (Enter /home/ztw1e12/g09/l401.exe)
 ExpMin= 1.03D-01 ExpMax= 1.38D+05 ExpMxC= 1.38D+05 IAcc=4 IRadAn=    199590 AccDes= 0.00D+00
 Harris functional with IExCor= 1009 and IRadAn=  199590 diagonalized for initial guess.
 HarFok:  IExCor= 1009 AccDes= 0.00D+00 IRadAn=    199590 IDoV= 1 UseB2=F ITyADJ=14
 ICtDFT=  3500011 ScaDFX=  1.000000  1.000000  1.000000  1.000000
 FoFCou: FMM=F IPFlag=           0 FMFlag=      100000 FMFlg1=           0
         NFxFlg=           0 DoJE=T BraDBF=F KetDBF=T FulRan=T
         wScrn=  0.000000 ICntrl=     500 IOpCl=  0 I1Cent=   200000004 NGrid=           0
         NMat0=    1 NMatS0=      1 NMatT0=    0 NMatD0=    1 NMtDS0=    0 NMtDT0=    0
 Petite list used in FoFCou.
 Harris En= -801.780455735043    
 JPrj=0 DoOrth=F DoCkMO=F.
 Leave Link  401 at Tue Jun 24 17:11:33 2014, MaxMem=  4294967296 cpu:       287.8
 (Enter /home/ztw1e12/g09/l502.exe)
 Closed shell SCF:
 Using DIIS extrapolation, IDIIS=  1040.
 Integral symmetry usage will be decided dynamically.
 IVT=     5158273 IEndB=     5158273 NGot=  4294967296 MDV=  4291529994
 LenX=  4291529994 LenY=  4289825664
 Requested convergence on RMS density matrix=1.00D-08 within 128 cycles.
 Requested convergence on MAX density matrix=1.00D-06.
 Requested convergence on             energy=1.00D-06.
 No special actions if energy rises.
 Fock matrices will be formed incrementally for  20 cycles.
 Integral accuracy reduced to 1.0D-05 until final iterations.

 Cycle   1  Pass 0  IDiag  1:
 FoFJK:  IHMeth= 1 ICntrl=       0 DoSepK=F KAlg= 0 I1Cent=   0 FoldK=F
 IRaf= 420000000 NMat=   1 IRICut=       1 DoRegI=T DoRafI=F ISym2E= 0.
 FoFCou: FMM=F IPFlag=           0 FMFlag=      100000 FMFlg1=           0
         NFxFlg=           0 DoJE=F BraDBF=F KetDBF=F FulRan=T
         wScrn=  0.000000 ICntrl=       0 IOpCl=  0 I1Cent=           0 NGrid=           0
         NMat0=    1 NMatS0=      1 NMatT0=    0 NMatD0=    1 NMtDS0=    0 NMtDT0=    0
 Symmetry not used in FoFCou.
 E= -801.454743889426    
 DIIS: error= 1.21D-01 at cycle   1 NSaved=   1.
 NSaved= 1 IEnMin= 1 EnMin= -801.454743889426     IErMin= 1 ErrMin= 1.21D-01
 ErrMax= 1.21D-01  0.00D+00 EMaxC= 1.00D-01 BMatC= 1.69D+01 BMatP= 1.69D+01
 IDIUse=3 WtCom= 0.00D+00 WtEn= 1.00D+00
 Coeff-Com:  0.100D+01
 Coeff-En:   0.100D+01
 Coeff:      0.100D+01
 Gap=     0.247 Goal=   None    Shift=    0.000
 GapD=    0.247 DampG=1.000 DampE=0.250 DampFc=0.2500 IDamp=-1.
 Damping current iteration by 2.50D-01
 RMSDP=2.35D-03 MaxDP=4.46D-01              OVMax= 3.10D-01

 Cycle   2  Pass 0  IDiag  1:
 RMSU=  5.83D-04    CP:  1.03D+00
 E= -801.613878546717     Delta-E=       -0.159134657291 Rises=F Damp=T
 DIIS: error= 9.11D-02 at cycle   2 NSaved=   2.
 NSaved= 2 IEnMin= 2 EnMin= -801.613878546717     IErMin= 2 ErrMin= 9.11D-02
 ErrMax= 9.11D-02  0.00D+00 EMaxC= 1.00D-01 BMatC= 1.00D+01 BMatP= 1.69D+01
 IDIUse=3 WtCom= 8.90D-02 WtEn= 9.11D-01
 Coeff-Com: -0.290D+01 0.390D+01
 Coeff-En:   0.000D+00 0.100D+01
 Coeff:     -0.258D+00 0.126D+01
 Gap=     0.256 Goal=   None    Shift=    0.000
 RMSDP=6.11D-04 MaxDP=9.67D-02 DE=-1.59D-01 OVMax= 1.82D-01

 Cycle   3  Pass 0  IDiag  1:
 RMSU=  5.17D-04    CP:  1.07D+00  1.54D+00
 E= -801.868832384175     Delta-E=       -0.254953837458 Rises=F Damp=F
 DIIS: error= 1.17D-02 at cycle   3 NSaved=   3.
 NSaved= 3 IEnMin= 3 EnMin= -801.868832384175     IErMin= 3 ErrMin= 1.17D-02
 ErrMax= 1.17D-02  0.00D+00 EMaxC= 1.00D-01 BMatC= 1.75D-01 BMatP= 1.00D+01
 IDIUse=3 WtCom= 8.83D-01 WtEn= 1.17D-01
 Coeff-Com:  0.289D+00-0.439D+00 0.115D+01
 Coeff-En:   0.000D+00 0.000D+00 0.100D+01
 Coeff:      0.255D+00-0.388D+00 0.113D+01
 Gap=     0.250 Goal=   None    Shift=    0.000
 RMSDP=4.30D-04 MaxDP=6.00D-02 DE=-2.55D-01 OVMax= 1.02D-01

 Cycle   4  Pass 0  IDiag  1:
 RMSU=  3.68D-04    CP:  1.06D+00  1.28D+00  6.84D-01
 E= -801.802212322449     Delta-E=        0.066620061727 Rises=F Damp=F
 DIIS: error= 8.97D-03 at cycle   4 NSaved=   4.
 NSaved= 4 IEnMin= 3 EnMin= -801.868832384175     IErMin= 4 ErrMin= 8.97D-03
 ErrMax= 8.97D-03  0.00D+00 EMaxC= 1.00D-01 BMatC= 1.42D-01 BMatP= 1.75D-01
 IDIUse=3 WtCom= 9.10D-01 WtEn= 8.97D-02
 Coeff-Com:  0.360D+00-0.511D+00 0.630D+00 0.521D+00
 Coeff-En:   0.000D+00 0.000D+00 0.716D+00 0.284D+00
 Coeff:      0.328D+00-0.465D+00 0.637D+00 0.500D+00
 Gap=     0.260 Goal=   None    Shift=    0.000
 RMSDP=3.19D-04 MaxDP=3.36D-02 DE= 6.66D-02 OVMax= 8.71D-02

 Cycle   5  Pass 0  IDiag  1:
 RMSU=  7.88D-05    CP:  1.06D+00  1.31D+00  9.03D-01  2.19D-01
 E= -801.907523659573     Delta-E=       -0.105311337125 Rises=F Damp=F
 DIIS: error= 1.75D-03 at cycle   5 NSaved=   5.
 NSaved= 5 IEnMin= 5 EnMin= -801.907523659573     IErMin= 5 ErrMin= 1.75D-03
 ErrMax= 1.75D-03  0.00D+00 EMaxC= 1.00D-01 BMatC= 8.37D-03 BMatP= 1.42D-01
 IDIUse=3 WtCom= 9.83D-01 WtEn= 1.75D-02
 Coeff-Com:  0.358D-01-0.522D-01 0.307D-01 0.194D+00 0.792D+00
 Coeff-En:   0.000D+00 0.000D+00 0.000D+00 0.000D+00 0.100D+01
 Coeff:      0.352D-01-0.512D-01 0.301D-01 0.190D+00 0.796D+00
 Gap=     0.224 Goal=   None    Shift=    0.000
 RMSDP=9.05D-05 MaxDP=1.34D-02 DE=-1.05D-01 OVMax= 2.27D-02

 Cycle   6  Pass 0  IDiag  1:
 RMSU=  3.76D-05    CP:  1.06D+00  1.32D+00  9.17D-01  4.08D-01  4.54D-01
 E= -801.911753938701     Delta-E=       -0.004230279128 Rises=F Damp=F
 DIIS: error= 1.16D-03 at cycle   6 NSaved=   6.
 NSaved= 6 IEnMin= 6 EnMin= -801.911753938701     IErMin= 6 ErrMin= 1.16D-03
 ErrMax= 1.16D-03  0.00D+00 EMaxC= 1.00D-01 BMatC= 1.42D-03 BMatP= 8.37D-03
 IDIUse=3 WtCom= 9.88D-01 WtEn= 1.16D-02
 Coeff-Com:  0.137D-01-0.192D-01-0.623D-02 0.786D-01 0.404D+00 0.530D+00
 Coeff-En:   0.000D+00 0.000D+00 0.000D+00 0.000D+00 0.147D+00 0.853D+00
 Coeff:      0.135D-01-0.189D-01-0.616D-02 0.777D-01 0.401D+00 0.533D+00
 Gap=     0.224 Goal=   None    Shift=    0.000
 RMSDP=3.37D-05 MaxDP=2.84D-03 DE=-4.23D-03 OVMax= 1.67D-02

 Cycle   7  Pass 0  IDiag  1:
 RMSU=  2.18D-05    CP:  1.06D+00  1.30D+00  9.12D-01  4.11D-01  6.34D-01
                    CP:  5.07D-01
 E= -801.912829714829     Delta-E=       -0.001075776127 Rises=F Damp=F
 DIIS: error= 6.07D-04 at cycle   7 NSaved=   7.
 NSaved= 7 IEnMin= 7 EnMin= -801.912829714829     IErMin= 7 ErrMin= 6.07D-04
 ErrMax= 6.07D-04  0.00D+00 EMaxC= 1.00D-01 BMatC= 2.26D-04 BMatP= 1.42D-03
 IDIUse=3 WtCom= 9.94D-01 WtEn= 6.07D-03
 Coeff-Com:  0.942D-02-0.125D-01-0.313D-02 0.198D-01 0.107D+00 0.304D+00
 Coeff-Com:  0.576D+00
 Coeff-En:   0.000D+00 0.000D+00 0.000D+00 0.000D+00 0.000D+00 0.154D+00
 Coeff-En:   0.846D+00
 Coeff:      0.936D-02-0.124D-01-0.312D-02 0.197D-01 0.106D+00 0.303D+00
 Coeff:      0.578D+00
 Gap=     0.224 Goal=   None    Shift=    0.000
 RMSDP=1.28D-05 MaxDP=1.43D-03 DE=-1.08D-03 OVMax= 6.60D-03

 Cycle   8  Pass 0  IDiag  1:
 RMSU=  6.51D-06    CP:  1.06D+00  1.30D+00  9.18D-01  4.18D-01  6.09D-01
                    CP:  7.33D-01  7.53D-01
 E= -801.913037936939     Delta-E=       -0.000208222111 Rises=F Damp=F
 DIIS: error= 1.41D-04 at cycle   8 NSaved=   8.
 NSaved= 8 IEnMin= 8 EnMin= -801.913037936939     IErMin= 8 ErrMin= 1.41D-04
 ErrMax= 1.41D-04  0.00D+00 EMaxC= 1.00D-01 BMatC= 1.54D-05 BMatP= 2.26D-04
 IDIUse=3 WtCom= 9.99D-01 WtEn= 1.41D-03
 Coeff-Com:  0.514D-02-0.683D-02-0.716D-03 0.671D-02 0.357D-01 0.137D+00
 Coeff-Com:  0.320D+00 0.503D+00
 Coeff-En:   0.000D+00 0.000D+00 0.000D+00 0.000D+00 0.000D+00 0.000D+00
 Coeff-En:   0.000D+00 0.100D+01
 Coeff:      0.513D-02-0.682D-02-0.715D-03 0.670D-02 0.356D-01 0.137D+00
 Coeff:      0.320D+00 0.503D+00
 Gap=     0.224 Goal=   None    Shift=    0.000
 RMSDP=3.60D-06 MaxDP=4.51D-04 DE=-2.08D-04 OVMax= 1.28D-03

 Initial convergence to 1.0D-05 achieved.  Increase integral accuracy.
 Cycle   9  Pass 1  IDiag  1:
 E= -801.913017011329     Delta-E=        0.000020925610 Rises=F Damp=F
 DIIS: error= 2.02D-04 at cycle   1 NSaved=   1.
 NSaved= 1 IEnMin= 1 EnMin= -801.913017011329     IErMin= 1 ErrMin= 2.02D-04
 ErrMax= 2.02D-04  0.00D+00 EMaxC= 1.00D-01 BMatC= 2.29D-05 BMatP= 2.29D-05
 IDIUse=3 WtCom= 9.98D-01 WtEn= 2.02D-03
 Coeff-Com:  0.100D+01
 Coeff-En:   0.100D+01
 Coeff:      0.100D+01
 Gap=     0.224 Goal=   None    Shift=    0.000
 RMSDP=3.60D-06 MaxDP=4.51D-04 DE= 2.09D-05 OVMax= 7.19D-04

 Cycle  10  Pass 1  IDiag  1:
 RMSU=  1.38D-04    CP:  9.93D-01
 E= -801.913030539653     Delta-E=       -0.000013528324 Rises=F Damp=F
 DIIS: error= 4.07D-05 at cycle   2 NSaved=   2.
 NSaved= 2 IEnMin= 2 EnMin= -801.913030539653     IErMin= 2 ErrMin= 4.07D-05
 ErrMax= 4.07D-05  0.00D+00 EMaxC= 1.00D-01 BMatC= 2.51D-06 BMatP= 2.29D-05
 IDIUse=1 WtCom= 1.00D+00 WtEn= 0.00D+00
 Coeff-Com:  0.137D+00 0.863D+00
 Coeff:      0.137D+00 0.863D+00
 Gap=     0.224 Goal=   None    Shift=    0.000
 RMSDP=3.82D-06 MaxDP=5.35D-04 DE=-1.35D-05 OVMax= 1.04D-03

 Cycle  11  Pass 1  IDiag  1:
 RMSU=  3.05D-06    CP:  9.93D-01  1.02D+00
 E= -801.913028449050     Delta-E=        0.000002090603 Rises=F Damp=F
 DIIS: error= 6.14D-05 at cycle   3 NSaved=   3.
 NSaved= 3 IEnMin= 2 EnMin= -801.913030539653     IErMin= 2 ErrMin= 4.07D-05
 ErrMax= 6.14D-05  0.00D+00 EMaxC= 1.00D-01 BMatC= 4.75D-06 BMatP= 2.51D-06
 IDIUse=1 WtCom= 1.00D+00 WtEn= 0.00D+00
 Coeff-Com: -0.133D-02 0.580D+00 0.421D+00
 Coeff:     -0.133D-02 0.580D+00 0.421D+00
 Gap=     0.224 Goal=   None    Shift=    0.000
 RMSDP=1.82D-06 MaxDP=2.87D-04 DE= 2.09D-06 OVMax= 6.94D-04

 Cycle  12  Pass 1  IDiag  1:
 RMSU=  6.01D-07    CP:  9.93D-01  1.02D+00  4.55D-01
 E= -801.913032621689     Delta-E=       -0.000004172639 Rises=F Damp=F
 DIIS: error= 5.99D-06 at cycle   4 NSaved=   4.
 NSaved= 4 IEnMin= 4 EnMin= -801.913032621689     IErMin= 4 ErrMin= 5.99D-06
 ErrMax= 5.99D-06  0.00D+00 EMaxC= 1.00D-01 BMatC= 6.06D-08 BMatP= 2.51D-06
 IDIUse=1 WtCom= 1.00D+00 WtEn= 0.00D+00
 Coeff-Com: -0.302D-02 0.321D+00 0.243D+00 0.439D+00
 Coeff:     -0.302D-02 0.321D+00 0.243D+00 0.439D+00
 Gap=     0.224 Goal=   None    Shift=    0.000
 RMSDP=1.89D-07 MaxDP=2.08D-05 DE=-4.17D-06 OVMax= 6.53D-05

 Cycle  13  Pass 1  IDiag  1:
 RMSU=  1.72D-07    CP:  9.93D-01  1.02D+00  4.72D-01  9.19D-01
 E= -801.913032667961     Delta-E=       -0.000000046272 Rises=F Damp=F
 DIIS: error= 1.32D-06 at cycle   5 NSaved=   5.
 NSaved= 5 IEnMin= 5 EnMin= -801.913032667961     IErMin= 5 ErrMin= 1.32D-06
 ErrMax= 1.32D-06  0.00D+00 EMaxC= 1.00D-01 BMatC= 2.57D-09 BMatP= 6.06D-08
 IDIUse=1 WtCom= 1.00D+00 WtEn= 0.00D+00
 Coeff-Com: -0.128D-02 0.977D-01 0.754D-01 0.215D+00 0.613D+00
 Coeff:     -0.128D-02 0.977D-01 0.754D-01 0.215D+00 0.613D+00
 Gap=     0.224 Goal=   None    Shift=    0.000
 RMSDP=4.70D-08 MaxDP=3.61D-06 DE=-4.63D-08 OVMax= 1.19D-05

 Cycle  14  Pass 1  IDiag  1:
 RMSU=  3.17D-08    CP:  9.93D-01  1.02D+00  4.74D-01  9.59D-01  8.87D-01
 E= -801.913032669378     Delta-E=       -0.000000001417 Rises=F Damp=F
 DIIS: error= 3.93D-07 at cycle   6 NSaved=   6.
 NSaved= 6 IEnMin= 6 EnMin= -801.913032669378     IErMin= 6 ErrMin= 3.93D-07
 ErrMax= 3.93D-07  0.00D+00 EMaxC= 1.00D-01 BMatC= 2.71D-10 BMatP= 2.57D-09
 IDIUse=1 WtCom= 1.00D+00 WtEn= 0.00D+00
 Coeff-Com: -0.464D-03 0.290D-01 0.225D-01 0.799D-01 0.314D+00 0.556D+00
 Coeff:     -0.464D-03 0.290D-01 0.225D-01 0.799D-01 0.314D+00 0.556D+00
 Gap=     0.224 Goal=   None    Shift=    0.000
 RMSDP=2.30D-08 MaxDP=4.37D-06 DE=-1.42D-09 OVMax= 5.56D-06

 Cycle  15  Pass 1  IDiag  1:
 RMSU=  1.68D-08    CP:  9.93D-01  1.02D+00  4.73D-01  9.74D-01  9.36D-01
                    CP:  7.63D-01
 E= -801.913032669562     Delta-E=       -0.000000000184 Rises=F Damp=F
 DIIS: error= 2.35D-07 at cycle   7 NSaved=   7.
 NSaved= 7 IEnMin= 7 EnMin= -801.913032669562     IErMin= 7 ErrMin= 2.35D-07
 ErrMax= 2.35D-07  0.00D+00 EMaxC= 1.00D-01 BMatC= 8.75D-11 BMatP= 2.71D-10
 IDIUse=1 WtCom= 1.00D+00 WtEn= 0.00D+00
 Coeff-Com:  0.253D-04-0.660D-02-0.502D-02-0.313D-02 0.496D-01 0.379D+00
 Coeff-Com:  0.586D+00
 Coeff:      0.253D-04-0.660D-02-0.502D-02-0.313D-02 0.496D-01 0.379D+00
 Coeff:      0.586D+00
 Gap=     0.224 Goal=   None    Shift=    0.000
 RMSDP=9.40D-09 MaxDP=6.48D-07 DE=-1.84D-10 OVMax= 2.38D-06

 SCF Done:  E(RM06) =  -801.913032670     A.U. after   15 cycles
            NFock= 15  Conv=0.94D-08     -V/T= 2.0044
 KE= 7.983748083489D+02 PE=-4.259780639753D+03 EE= 1.465917942640D+03
 Leave Link  502 at Tue Jun 24 17:45:20 2014, MaxMem=  4294967296 cpu:     32349.4
 (Enter /home/ztw1e12/g09/l801.exe)
 DoSCS=F DFT=T ScalE2(SS,OS)=  1.000000  1.000000
 Range of M.O.s used for correlation:     1  1068
 NBasis=  1204 NAE=    63 NBE=    63 NFC=     0 NFV=     0
 NROrb=   1068 NOA=    63 NOB=    63 NVA=  1005 NVB=  1005

 **** Warning!!: The largest alpha MO coefficient is  0.29576905D+02

 Leave Link  801 at Tue Jun 24 17:45:21 2014, MaxMem=  4294967296 cpu:         0.5
 (Enter /home/ztw1e12/g09/l1002.exe)
 Minotr:  Closed shell wavefunction.
          IDoAtm=111111111111111111111111111111111
          Direct CPHF calculation.
          Differentiating once with respect to Fermi-contact.
          Electric field/nuclear overlap derivatives assumed to be zero.
          Requested convergence is 1.0D-10 RMS, and 1.0D-09 maximum.
          Secondary convergence is 1.0D-12 RMS, and 1.0D-12 maximum.
          NewPWx=T KeepS1=F KeepF1=F KeepIn=T MapXYZ=F SortEE=F KeepMc=T.
          MDV=    4294965894 using IRadAn=  199590.
 Using stored XC quadrature information.
          Solving linear equations simultaneously, MaxMat=       0.
          There are    33 degrees of freedom in the 1st order CPHF.  IDoFFX=0 NUNeed=    33.
     33 vectors produced by pass  0 Test12= 1.92D-17 3.03D-11 XBig12= 4.29D+01 2.58D+00.
 AX will form    33 AO Fock derivatives at one time.
 FoFJK:  IHMeth= 1 ICntrl=       0 DoSepK=F KAlg= 0 I1Cent=   0 FoldK=F
 IRaf= 440000000 NMat=  33 IRICut=       1 DoRegI=T DoRafI=F ISym2E=-1.
 FoFCou: FMM=F IPFlag=           0 FMFlag=      100000 FMFlg1=           0
         NFxFlg=           0 DoJE=F BraDBF=F KetDBF=F FulRan=T
         wScrn=  0.000000 ICntrl=       0 IOpCl=  0 I1Cent=           0 NGrid=           0
         NMat0=   33 NMatS0=      0 NMatT0=   33 NMatD0=   33 NMtDS0=    0 NMtDT0=    0
 Petite list used in FoFCou.
     33 vectors produced by pass  1 Test12= 1.92D-17 3.03D-11 XBig12= 3.46D-01 1.89D-01.
     33 vectors produced by pass  2 Test12= 1.92D-17 3.03D-11 XBig12= 1.55D-02 4.32D-02.
     33 vectors produced by pass  3 Test12= 1.92D-17 3.03D-11 XBig12= 3.41D-04 5.71D-03.
     33 vectors produced by pass  4 Test12= 1.92D-17 3.03D-11 XBig12= 6.95D-06 8.75D-04.
     33 vectors produced by pass  5 Test12= 1.92D-17 3.03D-11 XBig12= 1.40D-07 1.46D-04.
     33 vectors produced by pass  6 Test12= 1.92D-17 3.03D-11 XBig12= 3.98D-09 2.03D-05.
     33 vectors produced by pass  7 Test12= 1.92D-17 3.03D-11 XBig12= 1.10D-10 3.97D-06.
     33 vectors produced by pass  8 Test12= 1.92D-17 3.03D-11 XBig12= 4.05D-12 2.99D-07.
     33 vectors produced by pass  9 Test12= 1.92D-17 3.03D-11 XBig12= 5.69D-14 9.14D-08.
     33 vectors produced by pass 10 Test12= 1.92D-17 3.03D-11 XBig12= 1.85D-15 7.43D-09.
     32 vectors produced by pass 11 Test12= 1.92D-17 3.03D-11 XBig12= 2.18D-17 5.70D-10.
      7 vectors produced by pass 12 Test12= 1.92D-17 3.03D-11 XBig12= 2.38D-19 8.19D-11.
 InvSVY:  IOpt=1 It=  1 EMax= 6.22D-15
 Solved reduced A of dimension   402 with    33 vectors.
 Max diff in FC couplings:  IJMax=     5     1 Diff= 2.85D-04 IJMaxR=    29    26 DiffR= 1.76D+00
 Fermi Contact (FC) contribution to K (Hz):
                1             2             3             4             5 
      1  0.123400D+11
      2  0.347103D+02  0.123400D+11
      3 -0.118140D+01  0.341290D+02  0.123400D+11
      4  0.309817D+01  0.301260D+00  0.333792D+02  0.123400D+11
      5  0.162967D+01  0.297611D+01 -0.131560D+01  0.346730D+02  0.123400D+11
      6  0.355985D+02 -0.320707D+00  0.432556D+01  0.241689D+00  0.391635D+02
      7  0.218788D+02 -0.273278D+00  0.977303D+00 -0.212310D+00  0.612684D+00
      8 -0.240228D+00  0.229597D+02 -0.272553D+00  0.104143D+01 -0.289022D+00
      9 -0.276972D+00  0.946739D+00 -0.179782D+00  0.219376D+02 -0.142692D+00
     10  0.670184D+00 -0.218506D+00  0.102710D+01 -0.273301D+00  0.228100D+02
     11  0.203868D+01  0.171665D+01  0.242562D+02  0.155625D+01  0.199575D+01
     12 -0.704446D-01  0.732729D+00 -0.109944D+01  0.806924D+00 -0.682429D-03
     13  0.943639D-01  0.834680D+00 -0.874529D+00  0.806115D+00  0.441443D-02
     14 -0.670334D+00  0.803416D+00 -0.100006D+01  0.823328D+00 -0.586283D+00
     15  0.136974D-01 -0.136404D-01  0.925373D+00 -0.203757D-01  0.160272D-01
     16 -0.126889D-01 -0.687370D-01  0.111001D+01  0.568597D-02  0.252393D-01
     17 -0.737339D+00 -0.722900D-01  0.261372D+00  0.305460D+01  0.116589D+02
     18  0.417735D+00 -0.125371D-01 -0.465037D-01  0.213613D+00  0.115106D+01
     19  0.788495D-01  0.677476D+00  0.359904D-02  0.598173D-01  0.125409D-01
     20  0.499440D-01  0.403849D-01  0.343055D+00 -0.693869D-01  0.302054D-01
     21 -0.532707D-03  0.439884D-02 -0.149629D-01  0.309327D-02  0.117584D-04
     22 -0.225396D-01  0.905106D-01  0.119588D+00  0.146509D-01 -0.243216D-01
     23  0.604153D-03  0.217815D-02 -0.128064D-02 -0.301238D-04 -0.132841D-03
     24 -0.231151D-02  0.392086D-01 -0.169782D-01  0.456763D-02 -0.846010D-02
     25  0.171927D-03 -0.115746D-02  0.214101D-01 -0.271229D-02  0.601228D-03
     26 -0.626085D-03  0.703440D-03  0.169249D-03  0.851135D-03 -0.461349D-04
     27  0.329911D-04  0.468882D-03 -0.584570D-03  0.175516D-04  0.122863D-03
     28 -0.810084D-04  0.401270D-04 -0.571554D-03 -0.153401D-04 -0.322598D-04
     29  0.458155D-04  0.213710D-02  0.227579D-01  0.155819D-02 -0.115044D-02
     30 -0.424562D-04  0.411008D-03  0.502532D-02  0.342788D-03  0.201641D-03
     31  0.330157D-04  0.303146D-03 -0.178751D-03  0.149447D-03 -0.342816D-04
     32  0.890242D-04 -0.586104D-03  0.516125D-02  0.961417D-03  0.397560D-03
     33 -0.571804D-03  0.479786D-02  0.155432D-02  0.848687D-02 -0.882733D-03
                6             7             8             9            10 
      6  0.123400D+11
      7 -0.528195D+00  0.123400D+11
      8  0.123218D+01  0.344299D+00  0.123400D+11
      9  0.118213D+01  0.369634D-01  0.414622D-01  0.123400D+11
     10 -0.721330D+00  0.644030D-01  0.406236D-01  0.341007D+00  0.123400D+11
     11 -0.458213D+00  0.191217D-01  0.687640D+00  0.706182D+00  0.236751D-01
     12  0.949643D-01  0.920724D-02 -0.373416D-01 -0.211987D-01  0.128910D-01
     13  0.275812D-01  0.741380D-02 -0.426346D-02 -0.219679D-01  0.371864D-02
     14  0.631103D+00  0.590657D-01 -0.144382D+00 -0.154220D+00  0.516687D-01
     15 -0.997105D-03  0.281942D-03  0.330441D-02  0.714492D-03  0.916024D-03
     16  0.123282D-01  0.158748D-02 -0.354934D-02  0.541494D-02  0.320840D-02
     17 -0.119788D+02  0.570216D+00  0.709133D-01  0.250354D+00  0.710112D+00
     18 -0.652699D+00 -0.132375D-01  0.197097D-02  0.134250D-01  0.131973D-02
     19  0.612623D-01  0.554525D-02  0.835207D-01  0.673458D-03 -0.829894D-03
     20 -0.218423D-01 -0.203920D-03  0.653328D-02  0.119388D-01 -0.647053D-02
     21  0.127527D-02  0.281152D-04  0.428134D-03  0.176295D-02  0.105840D-03
     22  0.308412D-01  0.277620D-02 -0.714548D-02 -0.618687D-02  0.261750D-02
     23  0.974185D-04 -0.184828D-04  0.294435D-03 -0.456188D-04 -0.303059D-04
     24  0.811631D-02  0.127451D-02 -0.685910D-03 -0.215396D-02  0.654813D-03
     25  0.794705D-04  0.877652D-04  0.278406D-03 -0.883757D-04 -0.152401D-03
     26  0.468846D-03  0.492814D-04 -0.997984D-04 -0.831007D-04 -0.799656D-05
     27 -0.562417D-04 -0.508167D-05 -0.908669D-05 -0.191155D-04 -0.755524D-05
     28  0.329366D-04  0.603569D-05 -0.238378D-04 -0.153022D-04 -0.110853D-05
     29  0.136598D-02 -0.277547D-04  0.499979D-03 -0.408100D-03  0.191325D-03
     30  0.209057D-03  0.362869D-04 -0.691527D-04  0.380835D-04  0.569246D-04
     31  0.104956D-03  0.449932D-05  0.623701D-04 -0.507104D-05  0.693714D-05
     32  0.250568D-04  0.169509D-04  0.414140D-04  0.981774D-04  0.573878D-04
     33  0.227283D-02 -0.270022D-04 -0.343328D-03  0.579361D-03  0.880780D-05
               11            12            13            14            15 
     11  0.123400D+11
     12  0.180517D+02  0.123400D+11
     13  0.169812D+02 -0.873673D+00  0.123400D+11
     14  0.164384D+02 -0.554189D+00 -0.839757D+00  0.123400D+11
     15 -0.827393D+00  0.651785D-01  0.127619D+00  0.214475D+02  0.123400D+11
     16 -0.426252D+00  0.746992D+00  0.437205D-01  0.275913D+02 -0.124529D+01
     17  0.735284D-01  0.335063D-01  0.825458D-02  0.245527D+00 -0.685060D-03
     18  0.115390D-01 -0.344432D-02 -0.935699D-03 -0.263189D-01  0.103987D-03
     19  0.976557D+00  0.948895D-01  0.725958D-01  0.499642D+01  0.349128D+00
     20  0.118030D+01  0.936189D+00  0.189432D+01  0.130136D+02 -0.496309D+00
     21  0.560926D+00 -0.124185D-01 -0.373046D-01  0.235412D+00  0.157243D+00
     22  0.834862D-02  0.176304D-01  0.113351D-01  0.969589D+01  0.201166D+00
     23 -0.243968D-01  0.208634D-02  0.287080D-02  0.670986D-01 -0.211824D-02
     24  0.155123D+01  0.742128D-01  0.457445D-01 -0.228267D+00  0.354487D+00
     25 -0.292418D-01  0.221672D-01  0.425066D-01  0.646877D+00 -0.780053D-01
     26  0.103856D-01  0.564208D-03  0.381062D-03  0.286561D-01  0.186330D-01
     27 -0.446370D-02 -0.163281D-02 -0.113815D-02  0.214000D-01  0.261427D-01
     28 -0.310116D-02  0.600329D-03 -0.649744D-03  0.935220D-01 -0.223905D-02
     29 -0.653859D-01  0.219355D-01  0.474669D-02  0.662186D+00  0.437443D-01
     30  0.466270D-01 -0.628155D-03 -0.122444D-02 -0.830039D-01  0.261871D-01
     31  0.190004D-02  0.720993D-03  0.115540D-03 -0.232007D-01  0.512383D-02
     32  0.652294D-01 -0.105679D-03 -0.287437D-03 -0.856937D-01  0.112873D-01
     33  0.142874D+00  0.150905D-02  0.338534D-01  0.941493D+00  0.253279D+00
               16            17            18            19            20 
     16  0.123400D+11
     17  0.921518D-02  0.123400D+11
     18 -0.531146D-03  0.199259D+02  0.123400D+11
     19 -0.962007D+01  0.162038D-02 -0.653402D-04  0.123400D+11
     20  0.454565D+00 -0.450447D-02  0.402183D-03  0.106031D+01  0.123400D+11
     21  0.112566D+00  0.590153D-03 -0.184036D-04  0.737876D-01  0.309927D+02
     22  0.301462D+02  0.948367D-02 -0.101921D-02  0.632585D+01 -0.232136D+00
     23  0.387771D+00  0.235814D-04 -0.218776D-05  0.471284D+00 -0.962304D-01
     24  0.280143D-01  0.346284D-02 -0.361461D-03 -0.262333D-01  0.244881D+02
     25 -0.141088D+00  0.855156D-04 -0.167941D-04  0.512643D-01  0.123450D+02
     26  0.601114D-01  0.191904D-03 -0.224482D-04 -0.211110D-02  0.407209D+00
     27  0.899177D-01 -0.116807D-04  0.164751D-05  0.603111D-02  0.320072D+00
     28 -0.153277D-02  0.117601D-04 -0.248087D-05  0.240136D-02  0.331071D+00
     29 -0.263576D+00  0.660224D-03 -0.650687D-04  0.625918D+00  0.155530D+00
     30  0.143660D+00  0.409568D-04 -0.398981D-05  0.234761D+00  0.220686D-01
     31  0.939963D+00  0.403338D-04 -0.272352D-05  0.176842D+00  0.700393D-02
     32  0.239535D+00  0.721522D-04 -0.357262D-05  0.238413D+00  0.296697D-02
     33  0.486255D+00  0.134313D-02 -0.117477D-03  0.684079D-01  0.590111D+01
               21            22            23            24            25 
     21  0.123400D+11
     22  0.108824D-01  0.123400D+11
     23  0.593357D-02  0.317089D+02  0.123400D+11
     24  0.452134D+00 -0.179886D-01  0.442474D-02  0.123400D+11
     25  0.803042D-01 -0.222685D-01  0.410742D-02  0.268435D+02  0.123400D+11
     26 -0.138101D-01  0.379122D-02  0.116594D-03 -0.119677D+01  0.181297D+02
     27 -0.843067D-02 -0.802114D-04  0.130912D-03 -0.119446D+01  0.178973D+02
     28 -0.971258D-02 -0.155504D-02  0.120797D-03 -0.751919D+00  0.170480D+02
     29 -0.352425D-02  0.170560D+02  0.348043D+00 -0.598899D-02 -0.533511D-03
     30 -0.494215D-03 -0.592524D+00  0.117316D+00  0.265696D-02  0.100842D-02
     31 -0.449062D-03 -0.363022D+00  0.293320D+00  0.441837D-03 -0.284781D-03
     32  0.140790D-02 -0.642074D+00  0.101090D+00 -0.101852D-02  0.471609D-03
     33  0.429368D+00  0.304953D+00  0.485658D-02 -0.965681D+01  0.355701D+01
               26            27            28            29            30 
     26  0.123400D+11
     27 -0.930062D+00  0.123400D+11
     28 -0.739296D+00 -0.726458D+00  0.123400D+11
     29 -0.217208D-05 -0.104269D-04 -0.826957D-05  0.123400D+11
     30  0.233258D-03  0.860327D-04 -0.957736D-05  0.198171D+02  0.123400D+11
     31  0.278031D-03  0.112690D-03  0.962685D-05  0.182675D+02 -0.740518D+00
     32 -0.107995D-03 -0.185578D-03  0.620601D-05  0.201736D+02 -0.743292D+00
     33  0.457161D+00  0.447268D+00  0.809267D+00 -0.194319D-01  0.127153D-01
               31            32            33 
     31  0.123400D+11
     32 -0.748177D+00  0.123400D+11
     33  0.186155D-02  0.136666D-01  0.123400D+11
 Fermi Contact (FC) contribution to J (Hz):
                1             2             3             4             5 
      1  0.243533D+11
      2  0.685016D+02  0.243533D+11
      3 -0.233152D+01  0.673545D+02  0.243533D+11
      4  0.611431D+01  0.594543D+00  0.658746D+02  0.243533D+11
      5  0.321620D+01  0.587342D+01 -0.259637D+01  0.684281D+02  0.243533D+11
      6  0.702546D+02 -0.632924D+00  0.853659D+01  0.476979D+00  0.772902D+02
      7  0.171681D+03 -0.214439D+01  0.766880D+01 -0.166598D+01  0.480767D+01
      8 -0.188505D+01  0.180163D+03 -0.213869D+01  0.817197D+01 -0.226793D+01
      9 -0.217337D+01  0.742897D+01 -0.141073D+01  0.172142D+03 -0.111969D+01
     10  0.525887D+01 -0.171459D+01  0.805953D+01 -0.214457D+01  0.178988D+03
     11  0.402338D+01  0.338785D+01  0.478702D+02  0.307129D+01  0.393867D+01
     12 -0.552772D+00  0.574965D+01 -0.862722D+01  0.633185D+01 -0.535496D-02
     13  0.740464D+00  0.654965D+01 -0.686234D+01  0.632550D+01  0.346396D-01
     14 -0.132292D+01  0.158556D+01 -0.197365D+01  0.162486D+01 -0.115704D+01
     15  0.107482D+00 -0.107035D+00  0.726131D+01 -0.159887D+00  0.125764D+00
     16 -0.250418D-01 -0.135654D+00  0.219064D+01  0.112214D-01  0.498103D-01
     17  0.784661D+00  0.769296D-01 -0.278147D+00 -0.325064D+01 -0.124071D+02
     18  0.327792D+01 -0.983774D-01 -0.364910D+00  0.167620D+01  0.903228D+01
     19 -0.839101D-01 -0.720957D+00 -0.383003D-02 -0.636564D-01 -0.133458D-01
     20  0.283288D-01  0.229068D-01  0.194585D+00 -0.393571D-01  0.171329D-01
     21 -0.418010D-02  0.345172D-01 -0.117412D+00  0.242726D-01  0.922669D-04
     22 -0.127848D-01  0.513387D-01  0.678318D-01  0.831018D-02 -0.137955D-01
     23  0.474073D-02  0.170917D-01 -0.100491D-01 -0.236378D-03 -0.104239D-02
     24 -0.456183D-02  0.773791D-01 -0.335069D-01  0.901432D-02 -0.166962D-01
     25  0.339303D-03 -0.228428D-02  0.422534D-01 -0.535276D-02  0.118654D-02
     26 -0.491283D-02  0.551983D-02  0.132808D-02  0.667877D-02 -0.362016D-03
     27  0.258878D-03  0.367927D-02 -0.458706D-02  0.137726D-03  0.964097D-03
     28 -0.635665D-03  0.314873D-03 -0.448493D-02 -0.120372D-03 -0.253139D-03
     29  0.904181D-04  0.421762D-02  0.449133D-01  0.307514D-02 -0.227043D-02
     30 -0.333150D-03  0.322514D-02  0.394332D-01  0.268982D-02  0.158226D-02
     31  0.259071D-03  0.237876D-02 -0.140264D-02  0.117269D-02 -0.269005D-03
     32  0.698564D-03 -0.459910D-02  0.404999D-01  0.754414D-02  0.311962D-02
     33  0.608503D-03 -0.510579D-02 -0.165408D-02 -0.903156D-02  0.939388D-03
                6             7             8             9            10 
      6  0.243533D+11
      7 -0.414470D+01  0.385007D+12
      8  0.966876D+01  0.107421D+02  0.385007D+12
      9  0.927607D+01  0.115326D+01  0.129362D+01  0.385007D+12
     10 -0.566021D+01  0.200937D+01  0.126745D+01  0.106394D+02  0.385007D+12
     11 -0.904294D+00  0.150046D+00  0.539585D+01  0.554134D+01  0.185776D+00
     12  0.745176D+00  0.287266D+00 -0.116506D+01 -0.661399D+00  0.402199D+00
     13  0.216427D+00  0.231310D+00 -0.133020D+00 -0.685398D+00  0.116021D+00
     14  0.124550D+01  0.463483D+00 -0.113295D+01 -0.121015D+01  0.405440D+00
     15 -0.782418D-02  0.879658D-02  0.103097D+00  0.222921D-01  0.285799D-01
     16  0.243300D-01  0.124568D-01 -0.278513D-01  0.424905D-01  0.251760D-01
     17  0.127476D+02 -0.241274D+01 -0.300054D+00 -0.105932D+01 -0.300468D+01
     18 -0.512167D+01 -0.413009D+00  0.614943D-01  0.418860D+00  0.411756D-01
     19 -0.651942D-01 -0.234635D-01 -0.353399D+00 -0.284959D-02  0.351151D-02
     20 -0.123892D-01 -0.459898D-03  0.147344D-01  0.269255D-01 -0.145929D-01
     21  0.100069D-01  0.877193D-03  0.133578D-01  0.550038D-01  0.330220D-02
     22  0.174935D-01  0.626112D-02 -0.161151D-01 -0.139532D-01  0.590321D-02
     23  0.764433D-03 -0.576662D-03  0.918634D-02 -0.142330D-02 -0.945542D-03
     24  0.160177D-01  0.100010D-01 -0.538227D-02 -0.169019D-01  0.513825D-02
     25  0.156837D-03  0.688685D-03  0.218463D-02 -0.693475D-03 -0.119587D-02
     26  0.367899D-02  0.153758D-02 -0.311370D-02 -0.259274D-02 -0.249492D-03
     27 -0.441323D-03 -0.158548D-03 -0.283504D-03 -0.596402D-03 -0.235723D-03
     28  0.258450D-03  0.188313D-03 -0.743738D-03 -0.477428D-03 -0.345862D-04
     29  0.269579D-02 -0.217788D-03  0.392329D-02 -0.320232D-02  0.150131D-02
     30  0.164045D-02  0.113215D-02 -0.215756D-02  0.118820D-02  0.177605D-02
     31  0.823581D-03  0.140379D-03  0.194594D-02 -0.158216D-03  0.216438D-03
     32  0.196619D-03  0.528868D-03  0.129212D-02  0.306313D-02  0.179050D-02
     33 -0.241870D-02  0.114254D-03  0.145272D-02 -0.245143D-02 -0.372682D-04
               11            12            13            14            15 
     11  0.243533D+11
     12  0.141650D+03  0.385007D+12
     13  0.133250D+03 -0.272586D+02  0.385007D+12
     14  0.324416D+02 -0.434867D+01 -0.658950D+01  0.243533D+11
     15 -0.649247D+01  0.203357D+01  0.398171D+01  0.168296D+03  0.385007D+12
     16 -0.841218D+00  0.586157D+01  0.343070D+00  0.544521D+02 -0.977169D+01
     17 -0.782475D-01 -0.141774D+00 -0.349274D-01 -0.261285D+00  0.289868D-02
     18  0.905453D-01 -0.107463D+00 -0.291938D-01 -0.206522D+00  0.324438D-02
     19 -0.103923D+01 -0.401503D+00 -0.307173D+00 -0.531710D+01 -0.147726D+01
     20  0.669481D+00  0.211137D+01  0.427222D+01  0.738145D+01 -0.111932D+01
     21  0.440153D+01 -0.387456D+00 -0.116390D+01  0.184725D+01  0.490597D+01
     22  0.473544D-02  0.397617D-01  0.255638D-01  0.549963D+01  0.453687D+00
     23 -0.191439D+00  0.650937D-01  0.895687D-01  0.526516D+00 -0.660891D-01
     24  0.306139D+01  0.582340D+00  0.358952D+00 -0.450490D+00  0.278162D+01
     25 -0.577094D-01  0.173944D+00  0.333545D+00  0.127663D+01 -0.612100D+00
     26  0.814950D-01  0.176033D-01  0.118891D-01  0.224862D+00  0.581350D+00
     27 -0.350262D-01 -0.509436D-01 -0.355101D-01  0.167924D+00  0.815651D+00
     28 -0.243345D-01  0.187302D-01 -0.202720D-01  0.733858D+00 -0.698584D-01
     29 -0.129041D+00  0.172126D+00  0.372468D-01  0.130684D+01  0.343257D+00
     30  0.365877D+00 -0.195984D-01 -0.382025D-01 -0.651323D+00  0.817037D+00
     31  0.149094D-01  0.224949D-01  0.360483D-02 -0.182054D+00  0.159863D+00
     32  0.511849D+00 -0.329718D-02 -0.896802D-02 -0.672430D+00  0.352162D+00
     33 -0.152044D+00 -0.638521D-02 -0.143243D+00 -0.100192D+01 -0.107169D+01
               16            17            18            19            20 
     16  0.243533D+11
     17 -0.980661D-02  0.708114D+10
     18 -0.416785D-02 -0.843118D+02  0.385007D+12
     19  0.102375D+02  0.929836D-03  0.276472D-03  0.708114D+10
     20  0.257835D+00  0.137772D-02  0.907036D-03 -0.324303D+00  0.201170D+10
     21  0.883297D+00 -0.249710D-02 -0.574192D-03 -0.312216D+00  0.698974D+02
     22  0.170993D+02 -0.290065D-02 -0.229862D-02 -0.193481D+01 -0.378435D-01
     23  0.304280D+01 -0.997792D-04 -0.682580D-04 -0.199413D+01 -0.217027D+00
     24  0.552869D-01 -0.368509D-02 -0.283635D-02  0.279170D-01  0.138900D+02
     25 -0.278440D+00 -0.910040D-04 -0.131781D-03 -0.545545D-01  0.700226D+01
     26  0.471688D+00 -0.812000D-03 -0.700384D-03  0.893265D-02  0.918373D+00
     27  0.705575D+00  0.494241D-04  0.514023D-04 -0.255193D-01  0.721854D+00
     28 -0.120275D-01 -0.497603D-04 -0.774031D-04 -0.101608D-01  0.746659D+00
     29 -0.520173D+00 -0.702597D-03 -0.510588D-03 -0.666090D+00  0.882184D-01
     30  0.112729D+01 -0.173300D-03 -0.124482D-03 -0.993336D+00  0.497709D-01
     31  0.737580D+01 -0.170663D-03 -0.849738D-04 -0.748267D+00  0.157958D-01
     32  0.187961D+01 -0.305296D-03 -0.111466D-03 -0.100879D+01  0.669136D-02
     33 -0.517463D+00  0.770737D-03  0.497077D-03  0.392550D-01 -0.180490D+01
               21            22            23            24            25 
     21  0.385007D+12
     22  0.245429D-01  0.201170D+10
     23  0.185127D+00  0.715126D+02  0.385007D+12
     24  0.354785D+01 -0.102034D-01  0.347205D-01  0.243533D+11
     25  0.630139D+00 -0.126310D-01  0.322305D-01  0.529763D+02  0.243533D+11
     26 -0.430875D+00  0.855029D-02  0.363772D-02 -0.939095D+01  0.142262D+03
     27 -0.263036D+00 -0.180900D-03  0.408445D-02 -0.937284D+01  0.140438D+03
     28 -0.303032D+00 -0.350707D-02  0.376885D-02 -0.590024D+01  0.133774D+03
     29 -0.276545D-01  0.967435D+01  0.273106D+01 -0.118194D-01 -0.105290D-02
     30 -0.154195D-01 -0.133631D+01  0.366026D+01  0.208489D-01  0.791300D-02
     31 -0.140107D-01 -0.818717D+00  0.915157D+01  0.346705D-02 -0.223465D-02
     32  0.439264D-01 -0.144806D+01  0.315400D+01 -0.799222D-02  0.370067D-02
     33 -0.181677D+01 -0.932720D-01 -0.205495D-01  0.102766D+02 -0.378530D+01
               26            27            28            29            30 
     26  0.385007D+12
     27 -0.290179D+02  0.385007D+12
     28 -0.230660D+02 -0.226655D+02  0.385007D+12
     29 -0.170441D-04 -0.818185D-04 -0.648906D-04  0.243533D+11
     30  0.727764D-02  0.268422D-02 -0.298813D-03  0.155503D+03  0.385007D+12
     31  0.867457D-02  0.351593D-02  0.300357D-03  0.143344D+03 -0.231041D+02
     32 -0.336945D-02 -0.579003D-02  0.193627D-03  0.158300D+03 -0.231907D+02
     33 -0.193437D+01 -0.189251D+01 -0.342423D+01  0.206791D-01 -0.538019D-01
               31            32            33 
     31  0.385007D+12
     32 -0.233431D+02  0.385007D+12
     33 -0.787673D-02 -0.578272D-01  0.708114D+10
 End of Minotr F.D. properties file   721 does not exist.
 End of Minotr F.D. properties file   722 does not exist.
 End of Minotr F.D. properties file   788 does not exist.
 Leave Link 1002 at Wed Jun 25 01:27:38 2014, MaxMem=  4294967296 cpu:    442716.6
 (Enter /home/ztw1e12/g09/l601.exe)
 Copying SCF densities to generalized density rwf, IOpCl= 0 IROHF=0.

 **********************************************************************

            Population analysis using the SCF density.

 **********************************************************************

 Orbital symmetries:
       Occupied  (A) (A) (A) (A) (A) (A) (A) (A) (A) (A) (A) (A)
                 (A) (A) (A) (A) (A) (A) (A) (A) (A) (A) (A) (A)
                 (A) (A) (A) (A) (A) (A) (A) (A) (A) (A) (A) (A)
                 (A) (A) (A) (A) (A) (A) (A) (A) (A) (A) (A) (A)
                 (A) (A) (A) (A) (A) (A) (A) (A) (A) (A) (A) (A)
                 (A) (A) (A)
       Virtual   (A) (A) (A) (A) (A) (A) (A) (A) (A) (A) (A) (A)
                 (A) (A) (A) (A) (A) (A) (A) (A) (A) (A) (A) (A)
                 (A) (A) (A) (A) (A) (A) (A) (A) (A) (A) (A) (A)
                 (A) (A) (A) (A) (A) (A) (A) (A) (A) (A) (A) (A)
                 (A) (A) (A) (A) (A) (A) (A) (A) (A) (A) (A) (A)
                 (A) (A) (A) (A) (A) (A) (A) (A) (A) (A) (A) (A)
                 (A) (A) (A) (A) (A) (A) (A) (A) (A) (A) (A) (A)
                 (A) (A) (A) (A) (A) (A) (A) (A) (A) (A) (A) (A)
                 (A) (A) (A) (A) (A) (A) (A) (A) (A) (A) (A) (A)
                 (A) (A) (A) (A) (A) (A) (A) (A) (A) (A) (A) (A)
                 (A) (A) (A) (A) (A) (A) (A) (A) (A) (A) (A) (A)
                 (A) (A) (A) (A) (A) (A) (A) (A) (A) (A) (A) (A)
                 (A) (A) (A) (A) (A) (A) (A) (A) (A) (A) (A) (A)
                 (A) (A) (A) (A) (A) (A) (A) (A) (A) (A) (A) (A)
                 (A) (A) (A) (A) (A) (A) (A) (A) (A) (A) (A) (A)
                 (A) (A) (A) (A) (A) (A) (A) (A) (A) (A) (A) (A)
                 (A) (A) (A) (A) (A) (A) (A) (A) (A) (A) (A) (A)
                 (A) (A) (A) (A) (A) (A) (A) (A) (A) (A) (A) (A)
                 (A) (A) (A) (A) (A) (A) (A) (A) (A) (A) (A) (A)
                 (A) (A) (A) (A) (A) (A) (A) (A) (A) (A) (A) (A)
                 (A) (A) (A) (A) (A) (A) (A) (A) (A) (A) (A) (A)
                 (A) (A) (A) (A) (A) (A) (A) (A) (A) (A) (A) (A)
                 (A) (A) (A) (A) (A) (A) (A) (A) (A) (A) (A) (A)
                 (A) (A) (A) (A) (A) (A) (A) (A) (A) (A) (A) (A)
                 (A) (A) (A) (A) (A) (A) (A) (A) (A) (A) (A) (A)
                 (A) (A) (A) (A) (A) (A) (A) (A) (A) (A) (A) (A)
                 (A) (A) (A) (A) (A) (A) (A) (A) (A) (A) (A) (A)
                 (A) (A) (A) (A) (A) (A) (A) (A) (A) (A) (A) (A)
                 (A) (A) (A) (A) (A) (A) (A) (A) (A) (A) (A) (A)
                 (A) (A) (A) (A) (A) (A) (A) (A) (A) (A) (A) (A)
                 (A) (A) (A) (A) (A) (A) (A) (A) (A) (A) (A) (A)
                 (A) (A) (A) (A) (A) (A) (A) (A) (A) (A) (A) (A)
                 (A) (A) (A) (A) (A) (A) (A) (A) (A) (A) (A) (A)
                 (A) (A) (A) (A) (A) (A) (A) (A) (A) (A) (A) (A)
                 (A) (A) (A) (A) (A) (A) (A) (A) (A) (A) (A) (A)
                 (A) (A) (A) (A) (A) (A) (A) (A) (A) (A) (A) (A)
                 (A) (A) (A) (A) (A) (A) (A) (A) (A) (A) (A) (A)
                 (A) (A) (A) (A) (A) (A) (A) (A) (A) (A) (A) (A)
                 (A) (A) (A) (A) (A) (A) (A) (A) (A) (A) (A) (A)
                 (A) (A) (A) (A) (A) (A) (A) (A) (A) (A) (A) (A)
                 (A) (A) (A) (A) (A) (A) (A) (A) (A) (A) (A) (A)
                 (A) (A) (A) (A) (A) (A) (A) (A) (A) (A) (A) (A)
                 (A) (A) (A) (A) (A) (A) (A) (A) (A) (A) (A) (A)
                 (A) (A) (A) (A) (A) (A) (A) (A) (A) (A) (A) (A)
                 (A) (A) (A) (A) (A) (A) (A) (A) (A) (A) (A) (A)
                 (A) (A) (A) (A) (A) (A) (A) (A) (A) (A) (A) (A)
                 (A) (A) (A) (A) (A) (A) (A) (A) (A) (A) (A) (A)
                 (A) (A) (A) (A) (A) (A) (A) (A) (A) (A) (A) (A)
                 (A) (A) (A) (A) (A) (A) (A) (A) (A) (A) (A) (A)
                 (A) (A) (A) (A) (A) (A) (A) (A) (A) (A) (A) (A)
                 (A) (A) (A) (A) (A) (A) (A) (A) (A) (A) (A) (A)
                 (A) (A) (A) (A) (A) (A) (A) (A) (A) (A) (A) (A)
                 (A) (A) (A) (A) (A) (A) (A) (A) (A) (A) (A) (A)
                 (A) (A) (A) (A) (A) (A) (A) (A) (A) (A) (A) (A)
                 (A) (A) (A) (A) (A) (A) (A) (A) (A) (A) (A) (A)
                 (A) (A) (A) (A) (A) (A) (A) (A) (A) (A) (A) (A)
                 (A) (A) (A) (A) (A) (A) (A) (A) (A) (A) (A) (A)
                 (A) (A) (A) (A) (A) (A) (A) (A) (A) (A) (A) (A)
                 (A) (A) (A) (A) (A) (A) (A) (A) (A) (A) (A) (A)
                 (A) (A) (A) (A) (A) (A) (A) (A) (A) (A) (A) (A)
                 (A) (A) (A) (A) (A) (A) (A) (A) (A) (A) (A) (A)
                 (A) (A) (A) (A) (A) (A) (A) (A) (A) (A) (A) (A)
                 (A) (A) (A) (A) (A) (A) (A) (A) (A) (A) (A) (A)
                 (A) (A) (A) (A) (A) (A) (A) (A) (A) (A) (A) (A)
                 (A) (A) (A) (A) (A) (A) (A) (A) (A) (A) (A) (A)
                 (A) (A) (A) (A) (A) (A) (A) (A) (A) (A) (A) (A)
                 (A) (A) (A) (A) (A) (A) (A) (A) (A) (A) (A) (A)
                 (A) (A) (A) (A) (A) (A) (A) (A) (A) (A) (A) (A)
                 (A) (A) (A) (A) (A) (A) (A) (A) (A) (A) (A) (A)
                 (A) (A) (A) (A) (A) (A) (A) (A) (A) (A) (A) (A)
                 (A) (A) (A) (A) (A) (A) (A) (A) (A) (A) (A) (A)
                 (A) (A) (A) (A) (A) (A) (A) (A) (A) (A) (A) (A)
                 (A) (A) (A) (A) (A) (A) (A) (A) (A) (A) (A) (A)
                 (A) (A) (A) (A) (A) (A) (A) (A) (A) (A) (A) (A)
                 (A) (A) (A) (A) (A) (A) (A) (A) (A) (A) (A) (A)
                 (A) (A) (A) (A) (A) (A) (A) (A) (A) (A) (A) (A)
                 (A) (A) (A) (A) (A) (A) (A) (A) (A) (A) (A) (A)
                 (A) (A) (A) (A) (A) (A) (A) (A) (A) (A) (A) (A)
                 (A) (A) (A) (A) (A) (A) (A) (A) (A) (A) (A) (A)
                 (A) (A) (A) (A) (A) (A) (A) (A) (A) (A) (A) (A)
                 (A) (A) (A) (A) (A) (A) (A) (A) (A) (A) (A) (A)
                 (A) (A) (A) (A) (A) (A) (A) (A) (A) (A) (A) (A)
                 (A) (A) (A) (A) (A) (A) (A) (A) (A) (A) (A) (A)
                 (A) (A) (A) (A) (A) (A) (A) (A) (A)
 The electronic state is 1-A.
 Alpha  occ. eigenvalues --  -19.24467 -19.17965 -19.16937 -14.43105 -14.41872
 Alpha  occ. eigenvalues --  -10.34839 -10.33359 -10.30490 -10.29195 -10.27172
 Alpha  occ. eigenvalues --  -10.25924 -10.25284 -10.24656 -10.24582 -10.24259
 Alpha  occ. eigenvalues --  -10.24169 -10.23791  -1.08756  -1.06168  -1.04771
 Alpha  occ. eigenvalues --   -0.96008  -0.93871  -0.87522  -0.81486  -0.77317
 Alpha  occ. eigenvalues --   -0.76388  -0.74327  -0.71845  -0.66739  -0.63954
 Alpha  occ. eigenvalues --   -0.61807  -0.60218  -0.59900  -0.56101  -0.55192
 Alpha  occ. eigenvalues --   -0.52253  -0.51034  -0.49516  -0.48758  -0.47226
 Alpha  occ. eigenvalues --   -0.46753  -0.45781  -0.45058  -0.43598  -0.43168
 Alpha  occ. eigenvalues --   -0.42986  -0.42651  -0.42261  -0.41508  -0.41247
 Alpha  occ. eigenvalues --   -0.40285  -0.39592  -0.38251  -0.36648  -0.36172
 Alpha  occ. eigenvalues --   -0.34886  -0.34783  -0.30297  -0.27704  -0.27436
 Alpha  occ. eigenvalues --   -0.27020  -0.25999  -0.23479
 Alpha virt. eigenvalues --   -0.01101   0.00142   0.01009   0.01726   0.02536
 Alpha virt. eigenvalues --    0.03043   0.03601   0.04783   0.05966   0.06703
 Alpha virt. eigenvalues --    0.07147   0.07948   0.08977   0.09857   0.10107
 Alpha virt. eigenvalues --    0.10710   0.11524   0.12263   0.12639   0.12986
 Alpha virt. eigenvalues --    0.15145   0.15683   0.16421   0.17335   0.17612
 Alpha virt. eigenvalues --    0.19538   0.21196   0.22199   0.23292   0.23669
 Alpha virt. eigenvalues --    0.24101   0.25067   0.25550   0.25678   0.26104
 Alpha virt. eigenvalues --    0.26871   0.27304   0.28403   0.28954   0.29617
 Alpha virt. eigenvalues --    0.30080   0.30972   0.31089   0.32223   0.32962
 Alpha virt. eigenvalues --    0.33682   0.33983   0.34282   0.34711   0.35508
 Alpha virt. eigenvalues --    0.35870   0.36376   0.36670   0.37144   0.37276
 Alpha virt. eigenvalues --    0.38059   0.38684   0.39285   0.39494   0.40017
 Alpha virt. eigenvalues --    0.40198   0.40762   0.41302   0.41469   0.41661
 Alpha virt. eigenvalues --    0.42020   0.42197   0.42684   0.43534   0.44100
 Alpha virt. eigenvalues --    0.44331   0.44863   0.45255   0.46351   0.46440
 Alpha virt. eigenvalues --    0.46602   0.47599   0.48903   0.49272   0.50102
 Alpha virt. eigenvalues --    0.50332   0.51573   0.52284   0.52330   0.53335
 Alpha virt. eigenvalues --    0.54346   0.55000   0.55532   0.56246   0.57030
 Alpha virt. eigenvalues --    0.57639   0.58713   0.59263   0.60300   0.60612
 Alpha virt. eigenvalues --    0.61804   0.62273   0.63157   0.63962   0.64300
 Alpha virt. eigenvalues --    0.64633   0.66170   0.66710   0.67312   0.68216
 Alpha virt. eigenvalues --    0.69231   0.69830   0.70222   0.70981   0.71864
 Alpha virt. eigenvalues --    0.72209   0.72732   0.74338   0.74655   0.75796
 Alpha virt. eigenvalues --    0.76949   0.77762   0.78358   0.79503   0.80160
 Alpha virt. eigenvalues --    0.80664   0.80843   0.81376   0.82323   0.83053
 Alpha virt. eigenvalues --    0.83497   0.84036   0.84830   0.85229   0.85485
 Alpha virt. eigenvalues --    0.86346   0.87943   0.89186   0.89599   0.89930
 Alpha virt. eigenvalues --    0.91309   0.91468   0.92443   0.93540   0.94015
 Alpha virt. eigenvalues --    0.95182   0.96363   0.96446   0.96935   0.97567
 Alpha virt. eigenvalues --    0.97871   0.99211   0.99638   0.99735   1.01160
 Alpha virt. eigenvalues --    1.01507   1.03374   1.03909   1.05121   1.05165
 Alpha virt. eigenvalues --    1.06330   1.07014   1.07480   1.08205   1.09675
 Alpha virt. eigenvalues --    1.09926   1.11074   1.11555   1.12648   1.13208
 Alpha virt. eigenvalues --    1.14967   1.15363   1.15955   1.16549   1.16871
 Alpha virt. eigenvalues --    1.18266   1.18388   1.18940   1.19017   1.19362
 Alpha virt. eigenvalues --    1.20111   1.20834   1.22220   1.22434   1.22685
 Alpha virt. eigenvalues --    1.23119   1.23523   1.23979   1.24373   1.25221
 Alpha virt. eigenvalues --    1.25619   1.26335   1.26589   1.27172   1.28005
 Alpha virt. eigenvalues --    1.28163   1.28269   1.29373   1.30043   1.31107
 Alpha virt. eigenvalues --    1.31480   1.32276   1.32605   1.33445   1.33788
 Alpha virt. eigenvalues --    1.34099   1.34609   1.35345   1.36300   1.37706
 Alpha virt. eigenvalues --    1.38443   1.39660   1.40535   1.41500   1.43774
 Alpha virt. eigenvalues --    1.44343   1.46213   1.47966   1.49388   1.50591
 Alpha virt. eigenvalues --    1.52301   1.53254   1.54753   1.55973   1.57011
 Alpha virt. eigenvalues --    1.58866   1.60340   1.61218   1.62992   1.64560
 Alpha virt. eigenvalues --    1.64967   1.65580   1.66351   1.68725   1.70909
 Alpha virt. eigenvalues --    1.72689   1.72832   1.73808   1.75686   1.78665
 Alpha virt. eigenvalues --    1.79789   1.80010   1.82503   1.83367   1.84536
 Alpha virt. eigenvalues --    1.85446   1.86267   1.88333   1.88691   1.89628
 Alpha virt. eigenvalues --    1.90591   1.92190   1.93275   1.93994   1.96309
 Alpha virt. eigenvalues --    1.96513   1.98537   1.99521   2.02351   2.03124
 Alpha virt. eigenvalues --    2.03463   2.04695   2.06236   2.07047   2.07868
 Alpha virt. eigenvalues --    2.09197   2.10949   2.11610   2.12913   2.13751
 Alpha virt. eigenvalues --    2.15009   2.17504   2.18046   2.18973   2.19670
 Alpha virt. eigenvalues --    2.21613   2.22202   2.22703   2.23411   2.26040
 Alpha virt. eigenvalues --    2.27591   2.27788   2.29743   2.31212   2.32028
 Alpha virt. eigenvalues --    2.33859   2.35395   2.36070   2.36547   2.37322
 Alpha virt. eigenvalues --    2.38010   2.40383   2.41024   2.41752   2.41872
 Alpha virt. eigenvalues --    2.43439   2.43778   2.44321   2.45387   2.47940
 Alpha virt. eigenvalues --    2.49626   2.50948   2.51742   2.53428   2.54461
 Alpha virt. eigenvalues --    2.55452   2.56660   2.57008   2.57565   2.60148
 Alpha virt. eigenvalues --    2.62009   2.63342   2.65263   2.66185   2.66642
 Alpha virt. eigenvalues --    2.67552   2.67652   2.69026   2.69166   2.69648
 Alpha virt. eigenvalues --    2.70488   2.70745   2.70945   2.71318   2.71800
 Alpha virt. eigenvalues --    2.72956   2.73958   2.74693   2.75145   2.76331
 Alpha virt. eigenvalues --    2.76556   2.77255   2.78778   2.79518   2.81030
 Alpha virt. eigenvalues --    2.82392   2.83995   2.84599   2.85608   2.85869
 Alpha virt. eigenvalues --    2.86209   2.87228   2.87874   2.88417   2.88673
 Alpha virt. eigenvalues --    2.89444   2.89734   2.90939   2.92030   2.92257
 Alpha virt. eigenvalues --    2.92827   2.93663   2.95077   2.95374   2.96086
 Alpha virt. eigenvalues --    2.96313   2.96727   2.96891   2.97537   2.98683
 Alpha virt. eigenvalues --    2.99411   2.99828   3.00644   3.01568   3.01751
 Alpha virt. eigenvalues --    3.02263   3.02389   3.03338   3.03949   3.04391
 Alpha virt. eigenvalues --    3.05251   3.06166   3.06885   3.07805   3.08429
 Alpha virt. eigenvalues --    3.09997   3.11293   3.11711   3.12511   3.13037
 Alpha virt. eigenvalues --    3.13541   3.14088   3.15346   3.16256   3.16766
 Alpha virt. eigenvalues --    3.17393   3.17834   3.17893   3.19011   3.19176
 Alpha virt. eigenvalues --    3.19886   3.21322   3.22691   3.23661   3.25422
 Alpha virt. eigenvalues --    3.25996   3.26110   3.26998   3.27341   3.27787
 Alpha virt. eigenvalues --    3.28223   3.28271   3.28989   3.29792   3.30561
 Alpha virt. eigenvalues --    3.31704   3.32147   3.32748   3.33165   3.33765
 Alpha virt. eigenvalues --    3.34494   3.35436   3.37377   3.37968   3.38698
 Alpha virt. eigenvalues --    3.39526   3.39937   3.41091   3.41372   3.42446
 Alpha virt. eigenvalues --    3.42873   3.44037   3.45468   3.45869   3.46538
 Alpha virt. eigenvalues --    3.47561   3.47869   3.48655   3.50064   3.50553
 Alpha virt. eigenvalues --    3.51348   3.52457   3.53096   3.54562   3.54899
 Alpha virt. eigenvalues --    3.55229   3.57661   3.58993   3.59663   3.60298
 Alpha virt. eigenvalues --    3.61698   3.62438   3.63066   3.64397   3.65800
 Alpha virt. eigenvalues --    3.67936   3.68156   3.68526   3.69787   3.70164
 Alpha virt. eigenvalues --    3.70764   3.71409   3.72246   3.72785   3.73562
 Alpha virt. eigenvalues --    3.74407   3.75244   3.75963   3.76721   3.77406
 Alpha virt. eigenvalues --    3.78982   3.80015   3.80846   3.81095   3.81849
 Alpha virt. eigenvalues --    3.82938   3.83357   3.83849   3.84951   3.86143
 Alpha virt. eigenvalues --    3.87136   3.87195   3.87694   3.88477   3.90329
 Alpha virt. eigenvalues --    3.90703   3.91414   3.92691   3.93217   3.95779
 Alpha virt. eigenvalues --    3.96559   3.97155   3.97844   3.98376   3.99951
 Alpha virt. eigenvalues --    4.00800   4.01583   4.02268   4.03522   4.04809
 Alpha virt. eigenvalues --    4.05985   4.06462   4.07163   4.07684   4.08276
 Alpha virt. eigenvalues --    4.09083   4.09816   4.11453   4.12201   4.13536
 Alpha virt. eigenvalues --    4.14717   4.15651   4.17172   4.17509   4.18620
 Alpha virt. eigenvalues --    4.19333   4.20157   4.20958   4.21738   4.22971
 Alpha virt. eigenvalues --    4.23469   4.24667   4.24924   4.26120   4.26465
 Alpha virt. eigenvalues --    4.28289   4.28570   4.28782   4.29138   4.30723
 Alpha virt. eigenvalues --    4.32018   4.32569   4.34616   4.36259   4.38616
 Alpha virt. eigenvalues --    4.38829   4.39235   4.40962   4.41743   4.43120
 Alpha virt. eigenvalues --    4.45447   4.46002   4.48794   4.49623   4.50635
 Alpha virt. eigenvalues --    4.51792   4.55274   4.55608   4.57465   4.58081
 Alpha virt. eigenvalues --    4.59290   4.59841   4.60279   4.61459   4.63885
 Alpha virt. eigenvalues --    4.64593   4.65357   4.65856   4.66652   4.67069
 Alpha virt. eigenvalues --    4.68687   4.69022   4.70723   4.72118   4.73099
 Alpha virt. eigenvalues --    4.74506   4.75415   4.77328   4.77951   4.79177
 Alpha virt. eigenvalues --    4.80002   4.82825   4.83491   4.84311   4.86336
 Alpha virt. eigenvalues --    4.87239   4.89749   4.90042   4.90642   4.91227
 Alpha virt. eigenvalues --    4.91405   4.93074   4.94290   4.95466   4.96314
 Alpha virt. eigenvalues --    4.98033   4.98338   5.00285   5.01481   5.02169
 Alpha virt. eigenvalues --    5.03513   5.05655   5.07013   5.07938   5.09143
 Alpha virt. eigenvalues --    5.10178   5.11586   5.12073   5.14001   5.14304
 Alpha virt. eigenvalues --    5.15192   5.16140   5.17606   5.17941   5.19588
 Alpha virt. eigenvalues --    5.20100   5.22449   5.22936   5.24450   5.26545
 Alpha virt. eigenvalues --    5.30164   5.30680   5.33913   5.35956   5.36086
 Alpha virt. eigenvalues --    5.40213   5.43341   5.44279   5.45730   5.46881
 Alpha virt. eigenvalues --    5.50253   5.51885   5.52447   5.53061   5.55194
 Alpha virt. eigenvalues --    5.57497   5.57881   5.59021   5.60745   5.62627
 Alpha virt. eigenvalues --    5.63618   5.64337   5.65437   5.66216   5.67705
 Alpha virt. eigenvalues --    5.68593   5.68886   5.71013   5.72626   5.73523
 Alpha virt. eigenvalues --    5.74900   5.77371   5.77698   5.79796   5.81608
 Alpha virt. eigenvalues --    5.85437   5.87565   5.89316   5.90169   5.97100
 Alpha virt. eigenvalues --    5.97968   5.98765   6.02830   6.06754   6.10851
 Alpha virt. eigenvalues --    6.16962   6.17787   6.18403   6.20018   6.27339
 Alpha virt. eigenvalues --    6.46572   6.47070   6.50361   6.52970   6.56146
 Alpha virt. eigenvalues --    6.60680   6.61238   6.62731   6.64564   6.66788
 Alpha virt. eigenvalues --    6.79294   6.80543   6.80622   6.88532   6.88676
 Alpha virt. eigenvalues --    6.91113   6.91321   6.91959   6.92857   7.06960
 Alpha virt. eigenvalues --    7.17109   7.18924   7.22856   7.27378   7.29644
 Alpha virt. eigenvalues --    7.67903   7.99203   8.10313   8.12507   8.13896
 Alpha virt. eigenvalues --    8.19106   8.21951   8.23702   8.35886   8.65798
 Alpha virt. eigenvalues --    8.73495   8.76199   8.77340   8.80193   8.81662
 Alpha virt. eigenvalues --    8.83227   8.84072   8.85234   8.87465   8.88169
 Alpha virt. eigenvalues --    8.93077   8.94091   8.97331   9.01223   9.08169
 Alpha virt. eigenvalues --    9.10676   9.14793   9.17986   9.20929   9.31598
 Alpha virt. eigenvalues --    9.36203   9.40405   9.41645   9.46193   9.49097
 Alpha virt. eigenvalues --    9.57879   9.61097   9.77327   9.81671  10.01627
 Alpha virt. eigenvalues --   10.07325  10.08943  10.11056  10.13472  10.17336
 Alpha virt. eigenvalues --   10.18156  10.19173  10.20376  10.24737  10.26824
 Alpha virt. eigenvalues --   10.30644  10.31871  10.83019  11.69837  11.75190
 Alpha virt. eigenvalues --   11.81290  11.92448  11.95651  12.01808  12.11895
 Alpha virt. eigenvalues --   12.15878  12.20634  12.23458  12.29794  12.34094
 Alpha virt. eigenvalues --   12.40330  12.55607  12.57985  12.82504  12.86756
 Alpha virt. eigenvalues --   12.92340  14.85037  14.94956  14.98744  15.23644
 Alpha virt. eigenvalues --   15.24865  15.42726  15.98122  15.99160  16.01886
 Alpha virt. eigenvalues --   16.79722  16.92883  21.89905  21.99171  22.06632
 Alpha virt. eigenvalues --   40.11726  40.17102  40.19802  40.21273  40.21909
 Alpha virt. eigenvalues --   40.26985  40.28260  40.37275  40.57323  40.65207
[...]
 Alpha virt. eigenvalues --    6.45298   6.47385   6.50368   6.52558   6.53955
 Alpha virt. eigenvalues --    6.56697   6.61863   6.62606   6.64666   6.68412
 Alpha virt. eigenvalues --    6.78857   6.81032   6.86244   6.86480   6.89125
 Alpha virt. eigenvalues --    6.90951   6.93598   7.08669   7.08898   7.10316
 Alpha virt. eigenvalues --    7.15316   7.18753   7.29089   7.43853   8.58664
 Alpha virt. eigenvalues --    9.47098   9.85100  11.82435  12.11016  12.28124
 Alpha virt. eigenvalues --   12.40492  12.59183  12.76281  12.93396  13.19143
 Alpha virt. eigenvalues --   13.47122  13.51678  13.56485  13.74090  14.00045
 Alpha virt. eigenvalues --   15.54419
          Condensed to atoms (all electrons):
               1          2          3          4          5          6
     1  C    5.427081   0.217318   0.005045  -0.044905  -0.021215   0.299304
     2  C    0.217318   5.403567   0.271079  -0.017382  -0.037318   0.024991
     3  C    0.005045   0.271079   5.505543   0.297088  -0.039803  -0.074264
     4  C   -0.044905  -0.017382   0.297088   5.190848   0.448504  -0.025491
     5  C   -0.021215  -0.037318  -0.039803   0.448504   5.049362   0.397001
     6  C    0.299304   0.024991  -0.074264  -0.025491   0.397001   4.876300
     7  H    0.452351  -0.034038   0.009182  -0.000607   0.003970  -0.074949
     8  H   -0.019118   0.437926  -0.090153   0.005340  -0.001566   0.007871
     9  H   -0.003407   0.008677  -0.105987   0.457554  -0.030168   0.011646
    10  H    0.014373  -0.006174   0.014736  -0.056527   0.451272  -0.078701
    11  C    0.005974  -0.066641   0.147421  -0.038332   0.004576  -0.000236
    12  H    0.000551  -0.007698  -0.038377   0.006300  -0.000131   0.000014
    13  H   -0.000309   0.008019  -0.039157  -0.010905  -0.000189   0.000012
    14  C    0.000169  -0.002676   0.004267  -0.006698   0.000235  -0.000169
    15  H    0.000409   0.002426   0.008190  -0.003432  -0.000056  -0.000140
    16  C   -0.000114  -0.002791  -0.010688   0.003224   0.000003   0.000002
    17  O   -0.090642   0.013928  -0.000713   0.002925  -0.049018   0.391981
    18  H   -0.004651   0.004712  -0.000451  -0.000701   0.002262  -0.043668
    19  O    0.000201   0.000876  -0.009850  -0.000271  -0.000004   0.000008
    20  N   -0.000025   0.001120  -0.007885   0.003228   0.000061   0.000021
    21  H   -0.000009  -0.000200  -0.001631   0.002321   0.000008   0.000005
    22  N    0.000002   0.000185   0.002169  -0.000082   0.000000   0.000000
    23  H    0.000001  -0.000004   0.000277  -0.000049   0.000001   0.000000
    24  C   -0.000003   0.000114  -0.001378  -0.000264  -0.000029   0.000003
    25  C    0.000000   0.000002   0.000005  -0.000028  -0.000002   0.000000
    26  H    0.000000   0.000001   0.000026  -0.000017   0.000000   0.000000
    27  H    0.000000   0.000000  -0.000014   0.000005   0.000000   0.000000
    28  H    0.000000   0.000002  -0.000026  -0.000003   0.000000   0.000000
    29  C   -0.000001  -0.000027   0.000025   0.000006   0.000000   0.000000
    30  H    0.000000   0.000003  -0.000102   0.000000   0.000000   0.000000
    31  H    0.000000   0.000000   0.000000   0.000000   0.000000   0.000000
    32  H    0.000000  -0.000003   0.000037   0.000000   0.000000   0.000000
    33  O    0.000000  -0.000035   0.000194  -0.000069  -0.000001   0.000000
               7          8          9         10         11         12
     1  C    0.452351  -0.019118  -0.003407   0.014373   0.005974   0.000551
     2  C   -0.034038   0.437926   0.008677  -0.006174  -0.066641  -0.007698
     3  C    0.009182  -0.090153  -0.105987   0.014736   0.147421  -0.038377
     4  C   -0.000607   0.005340   0.457554  -0.056527  -0.038332   0.006300
     5  C    0.003970  -0.001566  -0.030168   0.451272   0.004576  -0.000131
     6  C   -0.074949   0.007871   0.011646  -0.078701  -0.000236   0.000014
     7  H    0.533934  -0.006797   0.000050  -0.000216  -0.000402  -0.000028
     8  H   -0.006797   0.479517  -0.000167   0.000031   0.002189   0.000757
     9  H    0.000050  -0.000167   0.519660  -0.009815   0.005668   0.000421
    10  H   -0.000216   0.000031  -0.009815   0.543131  -0.000405   0.000015
    11  C   -0.000402   0.002189   0.005668  -0.000405   5.478098   0.428476
    12  H   -0.000028   0.000757   0.000421   0.000015   0.428476   0.445854
    13  H    0.000017   0.000441  -0.000216  -0.000041   0.413920  -0.004676
    14  C    0.000025  -0.001169  -0.001561   0.000043   0.126402  -0.060498
    15  H    0.000040   0.001331  -0.000141   0.000031  -0.033647   0.002671
    16  C   -0.000014  -0.000487   0.000226  -0.000002  -0.029621   0.008455
    17  O   -0.004135  -0.000080  -0.000142   0.006262  -0.000006  -0.000001
    18  H    0.004523   0.000010   0.000047  -0.000947  -0.000009   0.000000
    19  O   -0.000017   0.013616  -0.000002   0.000000   0.012125   0.000850
    20  N   -0.000001   0.000249   0.001807  -0.000012  -0.025391   0.002763
    21  H    0.000000  -0.000023   0.001101  -0.000004   0.001602   0.000980
    22  N    0.000000   0.000395   0.000002   0.000000   0.009090  -0.001127
    23  H    0.000000  -0.000033  -0.000019   0.000000   0.001123  -0.000129
    24  C    0.000000   0.000051  -0.000003  -0.000001   0.012054  -0.000190
    25  C    0.000000   0.000000   0.000031   0.000000   0.000251   0.000030
    26  H    0.000000   0.000000  -0.000016   0.000000  -0.000018  -0.000002
    27  H    0.000000   0.000000   0.000003   0.000000  -0.000001   0.000000
    28  H    0.000000   0.000000   0.000009   0.000000  -0.000221  -0.000006
    29  C    0.000000  -0.000038   0.000000   0.000000  -0.001121  -0.000012
    30  H    0.000000   0.000016   0.000000   0.000000  -0.000279   0.000239
    31  H    0.000000  -0.000001   0.000000   0.000000  -0.000074  -0.000002
    32  H    0.000000  -0.000012   0.000000   0.000000   0.000028  -0.000027
    33  O    0.000000  -0.000003  -0.000018   0.000000   0.001968   0.000050
              13         14         15         16         17         18
     1  C   -0.000309   0.000169   0.000409  -0.000114  -0.090642  -0.004651
     2  C    0.008019  -0.002676   0.002426  -0.002791   0.013928   0.004712
     3  C   -0.039157   0.004267   0.008190  -0.010688  -0.000713  -0.000451
     4  C   -0.010905  -0.006698  -0.003432   0.003224   0.002925  -0.000701
     5  C   -0.000189   0.000235  -0.000056   0.000003  -0.049018   0.002262
     6  C    0.000012  -0.000169  -0.000140   0.000002   0.391981  -0.043668
     7  H    0.000017   0.000025   0.000040  -0.000014  -0.004135   0.004523
     8  H    0.000441  -0.001169   0.001331  -0.000487  -0.000080   0.000010
     9  H   -0.000216  -0.001561  -0.000141   0.000226  -0.000142   0.000047
    10  H   -0.000041   0.000043   0.000031  -0.000002   0.006262  -0.000947
    11  C    0.413920   0.126402  -0.033647  -0.029621  -0.000006  -0.000009
    12  H   -0.004676  -0.060498   0.002671   0.008455  -0.000001   0.000000
    13  H    0.482842  -0.035876   0.003645  -0.004518   0.000000   0.000000
    14  C   -0.035876   5.557439   0.443237   0.160376   0.000001   0.000000
    15  H    0.003645   0.443237   0.430165  -0.072638  -0.000001   0.000000
    16  C   -0.004518   0.160376  -0.072638   4.773133   0.000000   0.000000
    17  O    0.000000   0.000001  -0.000001   0.000000   7.665708   0.359973
    18  H    0.000000   0.000000   0.000000   0.000000   0.359973   0.489747
    19  O    0.000909  -0.075015   0.003360   0.705281   0.000000   0.000000
    20  N   -0.013015   0.161330  -0.037891  -0.051341   0.000000   0.000000
    21  H    0.005556  -0.023595   0.001977   0.002142   0.000000   0.000000
    22  N    0.000164  -0.086004   0.003647   0.319702   0.000000   0.000000
    23  H    0.000530   0.001051   0.001392  -0.039454   0.000000   0.000000
    24  C    0.000723  -0.086619  -0.005583   0.007414   0.000000   0.000000
    25  C   -0.000053   0.006477   0.001753  -0.001100   0.000000   0.000000
    26  H    0.000026  -0.000060   0.000115  -0.000214   0.000000   0.000000
    27  H   -0.000019  -0.000558  -0.000195   0.000537   0.000000   0.000000
    28  H   -0.000085   0.001630  -0.000321  -0.000209   0.000000   0.000000
    29  C   -0.000086   0.009567  -0.000673  -0.050347   0.000000   0.000000
    30  H    0.000026  -0.000579  -0.000142  -0.002973   0.000000   0.000000
    31  H   -0.000009   0.000678  -0.000008   0.008035   0.000000   0.000000
    32  H   -0.000010   0.000696   0.000144  -0.005174   0.000000   0.000000
    33  O    0.000018   0.001631   0.017353   0.006625   0.000000   0.000000
              19         20         21         22         23         24
     1  C    0.000201  -0.000025  -0.000009   0.000002   0.000001  -0.000003
     2  C    0.000876   0.001120  -0.000200   0.000185  -0.000004   0.000114
     3  C   -0.009850  -0.007885  -0.001631   0.002169   0.000277  -0.001378
     4  C   -0.000271   0.003228   0.002321  -0.000082  -0.000049  -0.000264
     5  C   -0.000004   0.000061   0.000008   0.000000   0.000001  -0.000029
     6  C    0.000008   0.000021   0.000005   0.000000   0.000000   0.000003
     7  H   -0.000017  -0.000001   0.000000   0.000000   0.000000   0.000000
     8  H    0.013616   0.000249  -0.000023   0.000395  -0.000033   0.000051
     9  H   -0.000002   0.001807   0.001101   0.000002  -0.000019  -0.000003
    10  H    0.000000  -0.000012  -0.000004   0.000000   0.000000  -0.000001
    11  C    0.012125  -0.025391   0.001602   0.009090   0.001123   0.012054
    12  H    0.000850   0.002763   0.000980  -0.001127  -0.000129  -0.000190
    13  H    0.000909  -0.013015   0.005556   0.000164   0.000530   0.000723
    14  C   -0.075015   0.161330  -0.023595  -0.086004   0.001051  -0.086619
    15  H    0.003360  -0.037891   0.001977   0.003647   0.001392  -0.005583
    16  C    0.705281  -0.051341   0.002142   0.319702  -0.039454   0.007414
    17  O    0.000000   0.000000   0.000000   0.000000   0.000000   0.000000
    18  H    0.000000   0.000000   0.000000   0.000000   0.000000   0.000000
    19  O    7.847279   0.005553  -0.000223  -0.123383   0.005267  -0.000882
    20  N    0.005553   6.679153   0.358290   0.001924   0.028267   0.303387
    21  H   -0.000223   0.358290   0.509178  -0.000283  -0.000361  -0.016777
    22  N   -0.123383   0.001924  -0.000283   6.464215   0.386552   0.008442
    23  H    0.005267   0.028267  -0.000361   0.386552   0.521707  -0.005628
    24  C   -0.000882   0.303387  -0.016777   0.008442  -0.005628   4.626549
    25  C   -0.000005  -0.064070  -0.001540  -0.000503   0.000537   0.277323
    26  H    0.000000   0.000540  -0.000247   0.000003   0.000169  -0.028323
    27  H   -0.000002  -0.001494   0.000309   0.000254  -0.000667  -0.022173
    28  H    0.000000   0.012982  -0.000636   0.000130   0.000074  -0.059464
    29  C    0.008147  -0.002067   0.000088   0.285300  -0.032927   0.000096
    30  H    0.004699  -0.000120  -0.000005  -0.047578   0.001071   0.000177
    31  H    0.001504  -0.000217   0.000027  -0.027873  -0.007968  -0.000061
    32  H    0.005471  -0.000173   0.000013  -0.048211   0.003404  -0.000405
    33  O   -0.000138  -0.132293   0.004833  -0.005885  -0.003357   0.720596
              25         26         27         28         29         30
     1  C    0.000000   0.000000   0.000000   0.000000  -0.000001   0.000000
     2  C    0.000002   0.000001   0.000000   0.000002  -0.000027   0.000003
     3  C    0.000005   0.000026  -0.000014  -0.000026   0.000025  -0.000102
     4  C   -0.000028  -0.000017   0.000005  -0.000003   0.000006   0.000000
     5  C   -0.000002   0.000000   0.000000   0.000000   0.000000   0.000000
     6  C    0.000000   0.000000   0.000000   0.000000   0.000000   0.000000
     7  H    0.000000   0.000000   0.000000   0.000000   0.000000   0.000000
     8  H    0.000000   0.000000   0.000000   0.000000  -0.000038   0.000016
     9  H    0.000031  -0.000016   0.000003   0.000009   0.000000   0.000000
    10  H    0.000000   0.000000   0.000000   0.000000   0.000000   0.000000
    11  C    0.000251  -0.000018  -0.000001  -0.000221  -0.001121  -0.000279
    12  H    0.000030  -0.000002   0.000000  -0.000006  -0.000012   0.000239
    13  H   -0.000053   0.000026  -0.000019  -0.000085  -0.000086   0.000026
    14  C    0.006477  -0.000060  -0.000558   0.001630   0.009567  -0.000579
    15  H    0.001753   0.000115  -0.000195  -0.000321  -0.000673  -0.000142
    16  C   -0.001100  -0.000214   0.000537  -0.000209  -0.050347  -0.002973
    17  O    0.000000   0.000000   0.000000   0.000000   0.000000   0.000000
    18  H    0.000000   0.000000   0.000000   0.000000   0.000000   0.000000
    19  O   -0.000005   0.000000  -0.000002   0.000000   0.008147   0.004699
    20  N   -0.064070   0.000540  -0.001494   0.012982  -0.002067  -0.000120
    21  H   -0.001540  -0.000247   0.000309  -0.000636   0.000088  -0.000005
    22  N   -0.000503   0.000003   0.000254   0.000130   0.285300  -0.047578
    23  H    0.000537   0.000169  -0.000667   0.000074  -0.032927   0.001071
    24  C    0.277323  -0.028323  -0.022173  -0.059464   0.000096   0.000177
    25  C    4.992596   0.392539   0.380726   0.396942  -0.000060   0.000000
    26  H    0.392539   0.557292  -0.023062  -0.024646  -0.000003   0.000000
    27  H    0.380726  -0.023062   0.573545  -0.027400   0.000025   0.000002
    28  H    0.396942  -0.024646  -0.027400   0.599042   0.000002   0.000000
    29  C   -0.000060  -0.000003   0.000025   0.000002   4.758826   0.396519
    30  H    0.000000   0.000000   0.000002   0.000000   0.396519   0.622340
    31  H   -0.000012   0.000000   0.000015   0.000001   0.394383  -0.028955
    32  H   -0.000009  -0.000001  -0.000002  -0.000001   0.402324  -0.055254
    33  O   -0.068059   0.001585   0.001511   0.004460   0.000264   0.000004
              31         32         33
     1  C    0.000000   0.000000   0.000000
     2  C    0.000000  -0.000003  -0.000035
     3  C    0.000000   0.000037   0.000194
     4  C    0.000000   0.000000  -0.000069
     5  C    0.000000   0.000000  -0.000001
     6  C    0.000000   0.000000   0.000000
     7  H    0.000000   0.000000   0.000000
     8  H   -0.000001  -0.000012  -0.000003
     9  H    0.000000   0.000000  -0.000018
    10  H    0.000000   0.000000   0.000000
    11  C   -0.000074   0.000028   0.001968
    12  H   -0.000002  -0.000027   0.000050
    13  H   -0.000009  -0.000010   0.000018
    14  C    0.000678   0.000696   0.001631
    15  H   -0.000008   0.000144   0.017353
    16  C    0.008035  -0.005174   0.006625
    17  O    0.000000   0.000000   0.000000
    18  H    0.000000   0.000000   0.000000
    19  O    0.001504   0.005471  -0.000138
    20  N   -0.000217  -0.000173  -0.132293
    21  H    0.000027   0.000013   0.004833
    22  N   -0.027873  -0.048211  -0.005885
    23  H   -0.007968   0.003404  -0.003357
    24  C   -0.000061  -0.000405   0.720596
    25  C   -0.000012  -0.000009  -0.068059
    26  H    0.000000  -0.000001   0.001585
    27  H    0.000015  -0.000002   0.001511
    28  H    0.000001  -0.000001   0.004460
    29  C    0.394383   0.402324   0.000264
    30  H   -0.028955  -0.055254   0.000004
    31  H    0.602717  -0.026344   0.000011
    32  H   -0.026344   0.605090   0.000240
    33  O    0.000011   0.000240   7.827682
 Mulliken charges:
               1
     1  C   -0.238382
     2  C   -0.219960
     3  C    0.155194
     4  C   -0.211580
     5  C   -0.177758
     6  C    0.288456
     7  H    0.117110
     8  H    0.169904
     9  H    0.144759
    10  H    0.122950
    11  C   -0.454560
    12  H    0.214477
    13  H    0.192317
    14  C   -0.094179
    15  H    0.232981
    16  C    0.276527
    17  O   -0.296042
    18  H    0.189150
    19  O   -0.405352
    20  N   -0.224679
    21  H    0.157103
    22  N   -0.141245
    23  H    0.139174
    24  C    0.270853
    25  C   -0.313771
    26  H    0.124311
    27  H    0.118656
    28  H    0.097745
    29  C   -0.168210
    30  H    0.110890
    31  H    0.084154
    32  H    0.118180
    33  O   -0.379171
 Sum of Mulliken charges =   0.00000
 Mulliken charges with hydrogens summed into heavy atoms:
               1
     1  C   -0.121272
     2  C   -0.050056
     3  C    0.155194
     4  C   -0.066821
     5  C   -0.054808
     6  C    0.288456
    11  C   -0.047767
    14  C    0.138802
    16  C    0.276527
    17  O   -0.106892
    19  O   -0.405352
    20  N   -0.067576
    22  N   -0.002072
    24  C    0.270853
    25  C    0.026941
    29  C    0.145014
    33  O   -0.379171
 Electronic spatial extent (au):  <R**2>=           5400.8461
 Charge=              0.0000 electrons
 Dipole moment (field-independent basis, Debye):
    X=              1.0697    Y=              1.7376    Z=             -4.4601  Tot=              4.9047
 Quadrupole moment (field-independent basis, Debye-Ang):
   XX=            -86.5214   YY=            -97.3383   ZZ=           -103.5900
   XY=              8.5318   XZ=            -17.4529   YZ=             -5.1212
 Traceless Quadrupole moment (field-independent basis, Debye-Ang):
   XX=              9.2952   YY=             -1.5218   ZZ=             -7.7734
   XY=              8.5318   XZ=            -17.4529   YZ=             -5.1212
 Octapole moment (field-independent basis, Debye-Ang**2):
  XXX=             47.0867  YYY=             33.2645  ZZZ=             -1.8612  XYY=              8.3097
  XXY=            -48.6567  XXZ=             10.6006  XZZ=            -14.4176  YZZ=             -3.0440
  YYZ=            -11.0312  XYZ=             11.0380
 Hexadecapole moment (field-independent basis, Debye-Ang**3):
 XXXX=          -4657.7867 YYYY=          -1472.7713 ZZZZ=           -451.6913 XXXY=            164.9549
 XXXZ=           -287.6166 YYYX=             43.0252 YYYZ=             17.8722 ZZZX=            -60.3766
 ZZZY=            -25.2342 XXYY=           -992.1520 XXZZ=           -902.3692 YYZZ=           -332.0112
 XXYZ=            -95.4451 YYXZ=            -30.5563 ZZXY=             -6.0429
 N-N= 1.193574856095D+03 E-N=-4.257561073950D+03  KE= 7.961963041477D+02
 Calculating spin-rotation constants.
 Leave Link  601 at Wed Jun 25 06:14:29 2014, MaxMem=  4294967296 cpu:        94.8
 (Enter /home/ztw1e12/g09/l9999.exe)

 Test job not archived.
 1\1\GINC-GREEN0554\SP\RM06\Gen\C12H16N2O3\ROOT\25-Jun-2014\0\\#P Geom=
 AllCheck Guess=TCheck SCRF=Check GenChk RM06/ChkBas NMR=ReadFC IOp(3/6
 =22)\\NMR spin-spin scan\\0,1\C,0,2.335224,-2.452377,1.663462\C,0,1.71
 6212,-1.224747,1.518506\C,0,1.565582,-0.63723,0.268035\C,0,2.049673,-1
 .319806,-0.840726\C,0,2.671494,-2.549539,-0.712962\C,0,2.815943,-3.116
 388,0.54361\H,0,2.454029,-2.903414,2.642043\H,0,1.338413,-0.710248,2.3
 95808\H,0,1.940198,-0.876835,-1.824747\H,0,3.052896,-3.076722,-1.57828
 3\C,0,0.854767,0.673588,0.124199\H,0,1.148106,1.32959,0.946664\H,0,1.1
 61243,1.175261,-0.795962\C,0,-0.681133,0.53076,0.130975\H,0,-0.951318,
 -0.479043,0.451482\C,0,-1.259834,1.440926,1.19976\O,0,3.44065,-4.32527
 6,0.628527\H,0,3.48203,-4.600711,1.551432\O,0,-1.134531,1.129659,2.384
 163\N,0,-1.221096,0.757681,-1.191727\H,0,-0.61607,1.124873,-1.910311\N
 ,0,-1.832655,2.57622,0.805514\H,0,-1.931868,2.751299,-0.180952\C,0,-2.
 468129,0.364826,-1.524902\C,0,-2.87684,0.582347,-2.943388\H,0,-3.1568,
 -0.377265,-3.377437\H,0,-3.7624,1.217369,-2.958215\H,0,-2.096532,1.037
 347,-3.549454\C,0,-2.377288,3.520005,1.754966\H,0,-1.59828,3.904492,2.
 413679\H,0,-2.816978,4.351062,1.21248\H,0,-3.147648,3.05658,2.371705\O
 ,0,-3.226214,-0.136748,-0.699072\\Version=EM64L-G09RevD.01\State=1-A\H
 F=-801.8587054\RMSD=4.451e-09\Dipole=0.6512169,1.1778738,-1.382768\Qua
 drupole=-9.7969158,7.0519287,2.7449871,-7.2891643,7.5364723,-8.8188068
 \PG=C01 [X(C12H16N2O3)]\\@


 GARBAGE IN, GARBAGE OUT
 Job cpu time:       3 days  4 hours  5 minutes 56.7 seconds.
 File lengths (MBytes):  RWF=   3656 Int=      0 D2E=      0 Chk=     64 Scr=      8
 Normal termination of Gaussian 09 at Wed Jun 25 06:14:30 2014.
