 Entering Gaussian System, Link 0=g09
 Input=scan_input_6.gjf
 Output=scan_input_6.log
 Initial command:
 /home/ztw1e12/g09/l1.exe "/home/ztw1e12/tyrosine_scan/tyrosine_chi1_scan/Gau-27859.inp" -scrdir="/home/ztw1e12/tyrosine_scan/tyrosine_chi1_scan/"
 Default is to use a total of   8 processors:
                                8 via shared-memory
                                1 via Linda
 Entering Link 1 = /home/ztw1e12/g09/l1.exe PID=     27860.
  
 Copyright (c) 1988,1990,1992,1993,1995,1998,2003,2009,2013,
            Gaussian, Inc.  All Rights Reserved.
  
 This is part of the Gaussian(R) 09 program.  It is based on
 the Gaussian(R) 03 system (copyright 2003, Gaussian, Inc.),
 the Gaussian(R) 98 system (copyright 1998, Gaussian, Inc.),
 the Gaussian(R) 94 system (copyright 1995, Gaussian, Inc.),
 the Gaussian 92(TM) system (copyright 1992, Gaussian, Inc.),
 the Gaussian 90(TM) system (copyright 1990, Gaussian, Inc.),
 the Gaussian 88(TM) system (copyright 1988, Gaussian, Inc.),
 the Gaussian 86(TM) system (copyright 1986, Carnegie Mellon
 University), and the Gaussian 82(TM) system (copyright 1983,
 Carnegie Mellon University). Gaussian is a federally registered
 trademark of Gaussian, Inc.
  
 This software contains proprietary and confidential information,
 including trade secrets, belonging to Gaussian, Inc.
  
 This software is provided under written license and may be
 used, copied, transmitted, or stored only in accord with that
 written license.
  
 The following legend is applicable only to US Government
 contracts under FAR:
  
                    RESTRICTED RIGHTS LEGEND
  
 Use, reproduction and disclosure by the US Government is
 subject to restrictions as set forth in subparagraphs (a)
 and (c) of the Commercial Computer Software - Restricted
 Rights clause in FAR 52.227-19.
  
 Gaussian, Inc.
 340 Quinnipiac St., Bldg. 40, Wallingford CT 06492
  
  
 ---------------------------------------------------------------
 Warning -- This program may not be used in any manner that
 competes with the business of Gaussian, Inc. or will provide
 assistance to any competitor of Gaussian, Inc.  The licensee
 of this program is prohibited from giving any competitor of
 Gaussian, Inc. access to this program.  By using this program,
 the user acknowledges that Gaussian, Inc. is engaged in the
 business of creating and licensing software in the field of
 computational chemistry and represents and warrants to the
 licensee that it is not a competitor of Gaussian, Inc. and that
 it will not use this program in any manner prohibited above.
 ---------------------------------------------------------------
  

 Cite this work as:
 Gaussian 09, Revision D.01,
 M. J. Frisch, G. W. Trucks, H. B. Schlegel, G. E. Scuseria, 
 M. A. Robb, J. R. Cheeseman, G. Scalmani, V. Barone, B. Mennucci, 
 G. A. Petersson, H. Nakatsuji, M. Caricato, X. Li, H. P. Hratchian, 
 A. F. Izmaylov, J. Bloino, G. Zheng, J. L. Sonnenberg, M. Hada, 
 M. Ehara, K. Toyota, R. Fukuda, J. Hasegawa, M. Ishida, T. Nakajima, 
 Y. Honda, O. Kitao, H. Nakai, T. Vreven, J. A. Montgomery, Jr., 
 J. E. Peralta, F. Ogliaro, M. Bearpark, J. J. Heyd, E. Brothers, 
 K. N. Kudin, V. N. Staroverov, T. Keith, R. Kobayashi, J. Normand, 
 K. Raghavachari, A. Rendell, J. C. Burant, S. S. Iyengar, J. Tomasi, 
 M. Cossi, N. Rega, J. M. Millam, M. Klene, J. E. Knox, J. B. Cross, 
 V. Bakken, C. Adamo, J. Jaramillo, R. Gomperts, R. E. Stratmann, 
 O. Yazyev, A. J. Austin, R. Cammi, C. Pomelli, J. W. Ochterski, 
 R. L. Martin, K. Morokuma, V. G. Zakrzewski, G. A. Voth, 
 P. Salvador, J. J. Dannenberg, S. Dapprich, A. D. Daniels, 
 O. Farkas, J. B. Foresman, J. V. Ortiz, J. Cioslowski, 
 and D. J. Fox, Gaussian, Inc., Wallingford CT, 2013.
 
 ******************************************
 Gaussian 09:  EM64L-G09RevD.01 24-Apr-2013
                24-Jun-2014 
 ******************************************
 %Mem=32GB
 %NProcShared=16
 Will use up to   16 processors via shared memory.
 Default route:  MaxDisk=100GB
 ----------------------------------------------------------------------
 #p nmr=(giao,mixed,spinspin) m06/cc-pvtz scf=tight integral=(grid=ultr
 afine)
 ----------------------------------------------------------------------
 1/38=1/1;
 2/12=2,17=6,18=5,40=1/2;
 3/5=16,6=1,10=1100000,11=2,16=1,25=1,30=1,74=-54,75=-5/1,2,8,3;
 4//1;
 5/5=2,32=2,38=5/2;
 8/6=1,10=90,11=11/1;
 10/13=100,45=16,47=3/2;
 6/7=2,8=2,9=2,10=2,28=1/1;
 99/9=1/99;
 Leave Link    1 at Tue Jun 24 18:23:42 2014, MaxMem=  4294967296 cpu:         7.0
 (Enter /home/ztw1e12/g09/l101.exe)
 ------------------
 NMR spin-spin scan
 ------------------
 Symbolic Z-matrix:
 Charge =  0 Multiplicity = 1
 C                     3.47824  -0.1931   -0.85759 
 C                     2.22689  -0.68836  -1.1806 
 C                     1.31431  -1.03981  -0.19468 
 C                     1.69217  -0.8761    1.13501 
 C                     2.93635  -0.37944   1.47564 
 C                     3.83304  -0.03738   0.47388 
 H                     4.18822   0.07331  -1.63238 
 H                     1.95477  -0.80946  -2.2231 
 H                     0.98856  -1.14383   1.91768 
 H                     3.2275   -0.25634   2.51101 
 C                    -0.04871  -1.55905  -0.5341 
 H                    -0.01981  -2.04272  -1.51059 
 H                    -0.32084  -2.32517   0.19281 
 C                    -1.18357  -0.51805  -0.56083 
 H                    -1.51383  -0.36715  -1.58911 
 C                    -2.3945   -0.97628   0.25706 
 O                     5.05116   0.44361   0.84927 
 H                     5.57338   0.63653   0.0624 
 O                    -2.30589  -1.776     1.18482 
 N                    -0.78233   0.79223  -0.07179 
 H                    -0.02126   0.84587   0.58945 
 N                    -3.5482   -0.40219  -0.09523 
 H                    -3.51276   0.33094  -0.79141 
 C                    -1.30068   1.93725  -0.54937 
 C                    -0.70482   3.19999  -0.02201 
 H                    -0.24691   3.73945  -0.85147 
 H                    -1.50125   3.82827   0.37502 
 H                     0.04325   3.03317   0.75006 
 C                    -4.76315  -0.62854   0.65325 
 H                    -4.65588  -0.31442   1.69267 
 H                    -5.56916  -0.06083   0.19848 
 H                    -5.03309  -1.68436   0.64437 
 O                    -2.21036   1.9555   -1.37973 
 
 NAtoms=     33 NQM=       33 NQMF=       0 NMMI=      0 NMMIF=      0
                NMic=       0 NMicF=      0.
                    Isotopes and Nuclear Properties:
 (Nuclear quadrupole moments (NQMom) in fm**2, nuclear magnetic moments (NMagM)
  in nuclear magnetons)

  Atom         1           2           3           4           5           6           7           8           9          10
 IAtWgt=          12          12          12          12          12          12           1           1           1           1
 AtmWgt=  12.0000000  12.0000000  12.0000000  12.0000000  12.0000000  12.0000000   1.0078250   1.0078250   1.0078250   1.0078250
 NucSpn=           0           0           0           0           0           0           1           1           1           1
 AtZEff=   0.0000000   0.0000000   0.0000000   0.0000000   0.0000000   0.0000000   0.0000000   0.0000000   0.0000000   0.0000000
 NQMom=    0.0000000   0.0000000   0.0000000   0.0000000   0.0000000   0.0000000   0.0000000   0.0000000   0.0000000   0.0000000
 NMagM=    0.0000000   0.0000000   0.0000000   0.0000000   0.0000000   0.0000000   2.7928460   2.7928460   2.7928460   2.7928460
 AtZNuc=   6.0000000   6.0000000   6.0000000   6.0000000   6.0000000   6.0000000   1.0000000   1.0000000   1.0000000   1.0000000

  Atom        11          12          13          14          15          16          17          18          19          20
 IAtWgt=          12           1           1          12           1          12          16           1          16          14
 AtmWgt=  12.0000000   1.0078250   1.0078250  12.0000000   1.0078250  12.0000000  15.9949146   1.0078250  15.9949146  14.0030740
 NucSpn=           0           1           1           0           1           0           0           1           0           2
 AtZEff=   0.0000000   0.0000000   0.0000000   0.0000000   0.0000000   0.0000000   0.0000000   0.0000000   0.0000000   0.0000000
 NQMom=    0.0000000   0.0000000   0.0000000   0.0000000   0.0000000   0.0000000   0.0000000   0.0000000   0.0000000   2.0440000
 NMagM=    0.0000000   2.7928460   2.7928460   0.0000000   2.7928460   0.0000000   0.0000000   2.7928460   0.0000000   0.4037610
 AtZNuc=   6.0000000   1.0000000   1.0000000   6.0000000   1.0000000   6.0000000   8.0000000   1.0000000   8.0000000   7.0000000

  Atom        21          22          23          24          25          26          27          28          29          30
 IAtWgt=           1          14           1          12          12           1           1           1          12           1
 AtmWgt=   1.0078250  14.0030740   1.0078250  12.0000000  12.0000000   1.0078250   1.0078250   1.0078250  12.0000000   1.0078250
 NucSpn=           1           2           1           0           0           1           1           1           0           1
 AtZEff=   0.0000000   0.0000000   0.0000000   0.0000000   0.0000000   0.0000000   0.0000000   0.0000000   0.0000000   0.0000000
 NQMom=    0.0000000   2.0440000   0.0000000   0.0000000   0.0000000   0.0000000   0.0000000   0.0000000   0.0000000   0.0000000
 NMagM=    2.7928460   0.4037610   2.7928460   0.0000000   0.0000000   2.7928460   2.7928460   2.7928460   0.0000000   2.7928460
 AtZNuc=   1.0000000   7.0000000   1.0000000   6.0000000   6.0000000   1.0000000   1.0000000   1.0000000   6.0000000   1.0000000

  Atom        31          32          33
 IAtWgt=           1           1          16
 AtmWgt=   1.0078250   1.0078250  15.9949146
 NucSpn=           1           1           0
 AtZEff=   0.0000000   0.0000000   0.0000000
 NQMom=    0.0000000   0.0000000   0.0000000
 NMagM=    2.7928460   2.7928460   0.0000000
 AtZNuc=   1.0000000   1.0000000   8.0000000
 Leave Link  101 at Tue Jun 24 18:23:42 2014, MaxMem=  4294967296 cpu:         1.6
 (Enter /home/ztw1e12/g09/l202.exe)
                          Input orientation:                          
 ---------------------------------------------------------------------
 Center     Atomic      Atomic             Coordinates (Angstroms)
 Number     Number       Type             X           Y           Z
 ---------------------------------------------------------------------
      1          6           0        3.478237   -0.193098   -0.857586
      2          6           0        2.226885   -0.688357   -1.180604
      3          6           0        1.314309   -1.039815   -0.194677
      4          6           0        1.692173   -0.876096    1.135007
      5          6           0        2.936350   -0.379443    1.475635
      6          6           0        3.833039   -0.037382    0.473876
      7          1           0        4.188217    0.073306   -1.632378
      8          1           0        1.954767   -0.809456   -2.223097
      9          1           0        0.988563   -1.143833    1.917676
     10          1           0        3.227502   -0.256344    2.511009
     11          6           0       -0.048711   -1.559053   -0.534100
     12          1           0       -0.019812   -2.042721   -1.510592
     13          1           0       -0.320841   -2.325167    0.192809
     14          6           0       -1.183569   -0.518050   -0.560832
     15          1           0       -1.513831   -0.367148   -1.589113
     16          6           0       -2.394503   -0.976283    0.257063
     17          8           0        5.051157    0.443614    0.849272
     18          1           0        5.573378    0.636529    0.062399
     19          8           0       -2.305892   -1.775999    1.184820
     20          7           0       -0.782330    0.792234   -0.071790
     21          1           0       -0.021262    0.845870    0.589452
     22          7           0       -3.548198   -0.402187   -0.095234
     23          1           0       -3.512760    0.330935   -0.791410
     24          6           0       -1.300682    1.937245   -0.549368
     25          6           0       -0.704816    3.199993   -0.022012
     26          1           0       -0.246906    3.739448   -0.851467
     27          1           0       -1.501246    3.828273    0.375015
     28          1           0        0.043254    3.033168    0.750056
     29          6           0       -4.763146   -0.628541    0.653254
     30          1           0       -4.655882   -0.314423    1.692673
     31          1           0       -5.569158   -0.060833    0.198480
     32          1           0       -5.033087   -1.684358    0.644365
     33          8           0       -2.210355    1.955502   -1.379727
 ---------------------------------------------------------------------
                    Distance matrix (angstroms):
                    1          2          3          4          5
     1  C    0.000000
     2  C    1.384017   0.000000
     3  C    2.416395   1.388658   0.000000
     4  C    2.761691   2.383950   1.391993   0.000000
     5  C    2.402558   2.766654   2.420134   1.382269   0.000000
     6  C    1.386695   2.395997   2.792102   2.392455   1.387292
     7  H    1.084133   2.151988   3.400790   3.845779   3.381109
     8  H    2.136698   1.084207   2.139565   3.369015   3.850849
     9  H    3.847655   3.367527   2.139852   1.085965   2.138590
    10  H    3.378506   3.849140   3.405124   2.152837   1.082554
    11  C    3.796029   2.520797   1.497545   2.506596   3.786965
    12  H    4.010470   2.644020   2.125402   3.360223   4.519175
    13  H    4.481299   3.325104   2.115654   2.653256   4.005094
    14  C    4.682531   3.470493   2.577926   3.357672   4.597841
    15  H    5.048383   3.776640   3.224176   4.237726   5.403420
    16  C    6.028673   4.848403   3.736762   4.181118   5.500830
    17  O    2.406833   3.657631   4.153844   3.620228   2.354180
    18  H    2.433982   3.807807   4.584309   4.301427   3.159644
    19  O    6.335073   5.227262   3.943455   4.098394   5.432867
    20  N    4.443060   3.532279   2.787006   3.219138   4.194751
    21  H    3.926814   3.246708   2.440167   2.489710   3.321774
    22  N    7.070763   5.883154   4.905143   5.403663   6.672144
    23  H    7.010922   5.842427   5.053280   5.679730   6.872783
    24  C    5.241319   4.442519   3.978300   4.439503   5.236423
    25  C    5.450613   5.005644   4.699218   4.868136   5.321034
    26  H    5.416793   5.082660   5.070515   5.386033   5.702086
    27  H    6.518127   6.059609   5.652449   5.736427   6.213574
    28  H    4.979198   4.727096   4.370045   4.260219   4.532371
    29  C    8.390032   7.226835   6.150089   6.478002   7.747296
    30  H    8.525399   7.467799   6.303290   6.397208   7.595612
    31  H    9.109782   7.941911   6.963842   7.366727   8.606759
    32  H    8.770539   7.551803   6.434972   6.791402   8.118235
    33  O    6.103212   5.169017   4.774885   5.437974   6.331953
                    6          7          8          9         10
     6  C    0.000000
     7  H    2.138857   0.000000
     8  H    3.376043   2.473159   0.000000
     9  H    3.376364   4.931744   4.265133   0.000000
    10  H    2.136476   4.266064   4.933310   2.480429   0.000000
    11  C    4.289462   4.671442   2.725533   2.694355   4.658681
    12  H    4.775349   4.711678   2.434660   3.684812   5.468955
    13  H    4.750545   5.423614   3.648613   2.466831   4.716441
    14  C    5.144708   5.509446   3.563312   3.354514   5.381658
    15  H    5.740530   5.719198   3.553694   4.377532   6.269252
    16  C    6.301652   6.928479   5.009508   3.772379   6.099633
    17  O    1.362384   2.653371   4.538421   4.490673   2.564572
    18  H    1.911086   2.260124   4.517600   5.256641   3.506572
    19  O    6.419868   7.316419   5.540877   3.433678   5.889531
    20  N    4.720979   5.259147   3.832132   3.292779   4.883556
    21  H    3.955898   4.822147   3.815131   2.596699   3.932140
    22  N    7.412127   7.901963   5.914076   5.018371   7.261121
    23  H    7.463067   7.751042   5.765767   5.456739   7.528745
    24  C    5.594754   5.897049   4.576427   4.562893   5.889159
    25  C    5.596305   6.025879   5.290920   5.049628   5.815977
    26  H    5.715499   5.806956   5.236531   5.748128   6.272488
    27  H    6.588449   7.106292   6.340563   5.770684   6.603607
    28  H    4.885389   5.622943   5.221042   4.438951   4.905230
    29  C    8.618355   9.265182   7.310026   5.911552   8.212201
    30  H    8.580443   9.456447   7.699285   5.709493   7.925957
    31  H    9.406259   9.928565   7.939390   6.865292   9.097650
    32  H    9.019412   9.659471   7.603808   6.178491   8.588417
    33  O    6.627974   6.674445   5.069961   5.541825   7.042754
                   11         12         13         14         15
    11  C    0.000000
    12  H    1.090095   0.000000
    13  H    1.090588   1.752703   0.000000
    14  C    1.540229   2.140326   2.139614   0.000000
    15  H    2.163392   2.246287   2.903844   1.090507   0.000000
    16  C    2.543285   3.146594   2.474609   1.531434   2.134243
    17  O    5.650933   6.120911   6.079100   6.464132   7.049973
    18  H    6.065004   6.398160   6.597762   6.883154   7.345978
    19  O    2.845456   3.544369   2.286066   2.426797   3.210440
    20  N    2.506088   3.269336   3.162463   1.454991   2.044879
    21  H    2.654577   3.571295   3.209758   2.129410   2.906083
    22  N    3.711785   4.140543   3.767845   2.412815   2.524193
    23  H    3.954478   4.283941   4.267542   2.489794   2.262602
    24  C    3.713726   4.290071   4.436110   2.458113   2.537071
    25  C    4.831276   5.492827   5.542651   3.787265   3.979297
    26  H    5.311696   5.824045   6.154310   4.368993   4.360430
    27  H    5.653285   6.341824   6.268284   4.457270   4.632442
    28  H    4.769278   5.556902   5.399523   3.979280   4.411165
    29  C    4.949905   5.401977   4.777512   3.781479   3.956587
    30  H    5.266274   5.894155   5.008519   4.144479   4.543719
    31  H    5.766860   6.135475   5.715949   4.474259   4.442409
    32  H    5.123328   5.468564   4.777008   4.198995   4.371342
    33  O    4.211874   4.560854   4.936320   2.800596   2.433863
                   16         17         18         19         20
    16  C    0.000000
    17  O    7.602938   0.000000
    18  H    8.131801   0.963898   0.000000
    19  O    1.228060   7.691908   8.316430   0.000000
    20  N    2.415553   5.916034   6.359031   3.239773   0.000000
    21  H    3.010481   5.094973   5.623309   3.528200   1.009625
    22  N    1.335931   8.692317   9.181880   2.251493   3.012842
    23  H    2.014600   8.720390   9.131280   3.130685   2.861101
    24  C    3.214875   6.673304   7.022736   4.219720   1.344552
    25  C    4.513780   6.441117   6.781902   5.364735   2.409521
    26  H    5.298974   6.467187   6.658751   6.229450   3.095262
    27  H    4.888310   7.390184   7.767578   5.719362   3.151826
    28  H    4.718199   5.638681   6.066220   5.369878   2.525630
    29  C    2.426595   9.874638  10.430400   2.763570   4.288495
    30  H    2.759143   9.773052  10.401916   2.813640   4.398002
    31  H    3.304529  10.652187  11.165166   3.816224   4.869753
    32  H    2.759257  10.308357  10.873008   2.781741   4.971451
    33  O    3.362790   7.744921   8.025330   4.528811   2.259015
                   21         22         23         24         25
    21  H    0.000000
    22  N    3.803383   0.000000
    23  H    3.789788   1.011625   0.000000
    24  C    2.030991   3.275745   2.744468   0.000000
    25  C    2.526466   4.589759   4.087544   1.492546   0.000000
    26  H    3.240364   5.350099   4.720950   2.109418   1.090270
    27  H    3.336325   4.723128   4.199775   2.114402   1.089342
    28  H    2.194135   5.041300   4.724766   2.166960   1.087901
    29  C    4.966228   1.444842   2.138016   4.474172   5.619938
    30  H    4.903374   2.105060   2.809606   4.621052   5.558974
    31  H    5.635079   2.070524   2.315629   4.771947   5.860326
    32  H    5.614576   2.096632   2.904178   5.335902   6.560097
    33  O    3.146598   2.999741   2.163699   1.231801   2.378822
                   26         27         28         29         30
    26  H    0.000000
    27  H    1.756564   0.000000
    28  H    1.774232   1.777169   0.000000
    29  C    6.460645   5.529973   6.043092   0.000000
    30  H    6.507349   5.371209   5.846090   1.091131   0.000000
    31  H    6.623510   5.630650   6.432437   1.085710   1.769461
    32  H    7.386658   6.552522   6.930762   1.089815   1.765773
    33  O    2.704931   2.662560   3.282696   4.162575   4.535725
                   31         32         33
    31  H    0.000000
    32  H    1.766924   0.000000
    33  O    4.223494   5.031237   0.000000
 Stoichiometry    C12H16N2O3
 Framework group  C1[X(C12H16N2O3)]
 Deg. of freedom    93
 Full point group                 C1      NOp   1
 Largest Abelian subgroup         C1      NOp   1
 Largest concise Abelian subgroup C1      NOp   1
                         Standard orientation:                         
 ---------------------------------------------------------------------
 Center     Atomic      Atomic             Coordinates (Angstroms)
 Number     Number       Type             X           Y           Z
 ---------------------------------------------------------------------
      1          6           0       -3.461799    0.102796    1.027084
      2          6           0       -2.203814   -0.310548    1.429732
      3          6           0       -1.328735   -0.924260    0.543187
      4          6           0       -1.751271   -1.110232   -0.770024
      5          6           0       -3.002686   -0.700299   -1.190243
      6          6           0       -3.861410   -0.091745   -0.286456
      7          1           0       -4.142391    0.575521    1.726134
      8          1           0       -1.896601   -0.157343    2.458155
      9          1           0       -1.077328   -1.586212   -1.476115
     10          1           0       -3.328658   -0.849386   -2.211731
     11          6           0        0.041234   -1.358260    0.964460
     12          1           0        0.042553   -1.567178    2.034347
     13          1           0        0.282090   -2.293140    0.457143
     14          6           0        1.184270   -0.365871    0.679970
     15          1           0        1.551179    0.044994    1.621126
     16          6           0        2.362535   -1.043261   -0.025809
     17          8           0       -5.088110    0.293499   -0.736885
     18          1           0       -5.581205    0.695416   -0.012716
     19          8           0        2.235649   -2.057475   -0.706545
     20          7           0        0.776336    0.775843   -0.124442
     21          1           0       -0.006798    0.666042   -0.752127
     22          7           0        3.532127   -0.415817    0.126117
     23          1           0        3.526493    0.475233    0.605057
     24          6           0        1.319705    1.997468    0.017694
     25          6           0        0.715572    3.086459   -0.804994
     26          1           0        0.290878    3.832786   -0.133190
     27          1           0        1.502524    3.574760   -1.378524
     28          1           0       -0.060107    2.734611   -1.481791
     29          6           0        4.718588   -0.851335   -0.574028
     30          1           0        4.577709   -0.820277   -1.655581
     31          1           0        5.544224   -0.197318   -0.310678
     32          1           0        4.980585   -1.871863   -0.295502
     33          8           0        2.257771    2.218689    0.784784
 ---------------------------------------------------------------------
 Rotational constants (GHZ):      0.8380037      0.2532768      0.2203187
 Leave Link  202 at Tue Jun 24 18:23:42 2014, MaxMem=  4294967296 cpu:         2.3
 (Enter /home/ztw1e12/g09/l301.exe)
 Standard basis: CC-pVTZ (5D, 7F)
 Converting basis for Fermi contact spin-spin IFCMod=1.
 AO basis functions are being uncontracted.
 Ernie: Thresh=  0.10000D-02 Tol=  0.10000D-05 Strict=F.
 There are  1305 symmetry adapted cartesian basis functions of A   symmetry.
 There are  1204 symmetry adapted basis functions of A   symmetry.
  1204 basis functions,  1305 primitive gaussians,  1305 cartesian basis functions
    63 alpha electrons       63 beta electrons
       nuclear repulsion energy      1212.4946100899 Hartrees.
 IExCor= 4235 DFT=T Ex+Corr=M06 ExCW=0 ScaHFX=  0.270000
 ScaDFX=  1.000000  1.000000  1.000000  1.000000 ScalE2=  1.000000  1.000000
 IRadAn= 199590 IRanWt=     -1 IRanGd=            0 ICorTp=0 IEmpDi=  4
 NAtoms=   33 NActive=   33 NUniq=   33 SFac= 1.00D+00 NAtFMM=   60 NAOKFM=F Big=F
 Integral buffers will be    131072 words long.
 Raffenetti 2 integral format.
 Two-electron integral symmetry is turned on.
 Leave Link  301 at Tue Jun 24 18:23:43 2014, MaxMem=  4294967296 cpu:         5.0
 (Enter /home/ztw1e12/g09/l302.exe)
 NPDir=0 NMtPBC=     1 NCelOv=     1 NCel=       1 NClECP=     1 NCelD=      1
         NCelK=      1 NCelE2=     1 NClLst=     1 CellRange=     0.0.
 One-electron integrals computed using PRISM.
 GSVD:  received Info=                   1 from GESDD.
 NBasis=  1204 RedAO= T EigKep=  2.46D-05  NBF=  1204
 NBsUse=  1068 1.00D-06 EigRej=  6.77D-15 NBFU=  1068
 Precomputing XC quadrature grid using
 IXCGrd= 4 IRadAn=      199590 IRanWt=          -1 IRanGd=           0 AccXCQ= 0.00D+00.
 Generated NRdTot=       0 NPtTot=           0 NUsed=           0 NTot=          32
 NSgBfM=  1033  1033  1033  1033  1033 MxSgAt=    33 MxSgA2=    33.
 Leave Link  302 at Tue Jun 24 18:23:48 2014, MaxMem=  4294967296 cpu:        91.8
 (Enter /home/ztw1e12/g09/l308.exe)
 Leave Link  308 at Tue Jun 24 18:23:49 2014, MaxMem=  4294967296 cpu:         7.9
 (Enter /home/ztw1e12/g09/l303.exe)
 DipDrv:  MaxL=1.
 Leave Link  303 at Tue Jun 24 18:23:50 2014, MaxMem=  4294967296 cpu:         4.2
 (Enter /home/ztw1e12/g09/l401.exe)
 ExpMin= 1.03D-01 ExpMax= 1.38D+05 ExpMxC= 1.38D+05 IAcc=4 IRadAn=    199590 AccDes= 0.00D+00
 Harris functional with IExCor= 1009 and IRadAn=  199590 diagonalized for initial guess.
 HarFok:  IExCor= 1009 AccDes= 0.00D+00 IRadAn=    199590 IDoV= 1 UseB2=F ITyADJ=14
 ICtDFT=  3500011 ScaDFX=  1.000000  1.000000  1.000000  1.000000
 FoFCou: FMM=F IPFlag=           0 FMFlag=      100000 FMFlg1=           0
         NFxFlg=           0 DoJE=T BraDBF=F KetDBF=T FulRan=T
         wScrn=  0.000000 ICntrl=     500 IOpCl=  0 I1Cent=   200000004 NGrid=           0
         NMat0=    1 NMatS0=      1 NMatT0=    0 NMatD0=    1 NMtDS0=    0 NMtDT0=    0
 Petite list used in FoFCou.
 Harris En= -801.777577020988    
 JPrj=0 DoOrth=F DoCkMO=F.
 Leave Link  401 at Tue Jun 24 18:24:10 2014, MaxMem=  4294967296 cpu:       299.2
 (Enter /home/ztw1e12/g09/l502.exe)
 Closed shell SCF:
 Using DIIS extrapolation, IDIIS=  1040.
 Integral symmetry usage will be decided dynamically.
 IVT=     5158273 IEndB=     5158273 NGot=  4294967296 MDV=  4291529994
 LenX=  4291529994 LenY=  4289825664
 Requested convergence on RMS density matrix=1.00D-08 within 128 cycles.
 Requested convergence on MAX density matrix=1.00D-06.
 Requested convergence on             energy=1.00D-06.
 No special actions if energy rises.
 Fock matrices will be formed incrementally for  20 cycles.
 Integral accuracy reduced to 1.0D-05 until final iterations.

 Cycle   1  Pass 0  IDiag  1:
 FoFJK:  IHMeth= 1 ICntrl=       0 DoSepK=F KAlg= 0 I1Cent=   0 FoldK=F
 IRaf= 430000000 NMat=   1 IRICut=       1 DoRegI=T DoRafI=F ISym2E= 0.
 FoFCou: FMM=F IPFlag=           0 FMFlag=      100000 FMFlg1=           0
         NFxFlg=           0 DoJE=F BraDBF=F KetDBF=F FulRan=T
         wScrn=  0.000000 ICntrl=       0 IOpCl=  0 I1Cent=           0 NGrid=           0
         NMat0=    1 NMatS0=      1 NMatT0=    0 NMatD0=    1 NMtDS0=    0 NMtDT0=    0
 Symmetry not used in FoFCou.
 E= -801.487919903328    
 DIIS: error= 1.21D-01 at cycle   1 NSaved=   1.
 NSaved= 1 IEnMin= 1 EnMin= -801.487919903328     IErMin= 1 ErrMin= 1.21D-01
 ErrMax= 1.21D-01  0.00D+00 EMaxC= 1.00D-01 BMatC= 1.69D+01 BMatP= 1.69D+01
 IDIUse=3 WtCom= 0.00D+00 WtEn= 1.00D+00
 Coeff-Com:  0.100D+01
 Coeff-En:   0.100D+01
 Coeff:      0.100D+01
 Gap=     0.238 Goal=   None    Shift=    0.000
 GapD=    0.238 DampG=1.000 DampE=0.250 DampFc=0.2500 IDamp=-1.
 Damping current iteration by 2.50D-01
 RMSDP=1.96D-03 MaxDP=2.44D-01              OVMax= 2.49D-01

 Cycle   2  Pass 0  IDiag  1:
 RMSU=  4.88D-04    CP:  1.02D+00
 E= -801.640476436413     Delta-E=       -0.152556533086 Rises=F Damp=T
 DIIS: error= 9.10D-02 at cycle   2 NSaved=   2.
 NSaved= 2 IEnMin= 2 EnMin= -801.640476436413     IErMin= 2 ErrMin= 9.10D-02
 ErrMax= 9.10D-02  0.00D+00 EMaxC= 1.00D-01 BMatC= 1.00D+01 BMatP= 1.69D+01
 IDIUse=3 WtCom= 8.97D-02 WtEn= 9.10D-01
 Coeff-Com: -0.296D+01 0.396D+01
 Coeff-En:   0.000D+00 0.100D+01
 Coeff:     -0.266D+00 0.127D+01
 Gap=     0.260 Goal=   None    Shift=    0.000
 RMSDP=5.74D-04 MaxDP=9.44D-02 DE=-1.53D-01 OVMax= 1.34D-01

 Cycle   3  Pass 0  IDiag  1:
 RMSU=  4.50D-04    CP:  1.05D+00  1.72D+00
 E= -801.879273850042     Delta-E=       -0.238797413629 Rises=F Damp=F
 DIIS: error= 1.34D-02 at cycle   3 NSaved=   3.
 NSaved= 3 IEnMin= 3 EnMin= -801.879273850042     IErMin= 3 ErrMin= 1.34D-02
 ErrMax= 1.34D-02  0.00D+00 EMaxC= 1.00D-01 BMatC= 1.71D-01 BMatP= 1.00D+01
 IDIUse=3 WtCom= 8.66D-01 WtEn= 1.34D-01
 Coeff-Com:  0.497D+00-0.713D+00 0.122D+01
 Coeff-En:   0.000D+00 0.000D+00 0.100D+01
 Coeff:      0.430D+00-0.617D+00 0.119D+01
 Gap=     0.226 Goal=   None    Shift=    0.000
 RMSDP=3.83D-04 MaxDP=5.15D-02 DE=-2.39D-01 OVMax= 9.17D-02

 Cycle   4  Pass 0  IDiag  1:
 RMSU=  3.18D-04    CP:  1.05D+00  1.34D+00  7.54D-01
 E= -801.835490037173     Delta-E=        0.043783812869 Rises=F Damp=F
 DIIS: error= 9.02D-03 at cycle   4 NSaved=   4.
 NSaved= 4 IEnMin= 3 EnMin= -801.879273850042     IErMin= 4 ErrMin= 9.02D-03
 ErrMax= 9.02D-03  0.00D+00 EMaxC= 1.00D-01 BMatC= 1.09D-01 BMatP= 1.71D-01
 IDIUse=3 WtCom= 9.10D-01 WtEn= 9.02D-02
 Coeff-Com:  0.434D+00-0.607D+00 0.634D+00 0.539D+00
 Coeff-En:   0.000D+00 0.000D+00 0.687D+00 0.313D+00
 Coeff:      0.394D+00-0.552D+00 0.639D+00 0.519D+00
 Gap=     0.260 Goal=   None    Shift=    0.000
 RMSDP=2.78D-04 MaxDP=2.74D-02 DE= 4.38D-02 OVMax= 8.50D-02

 Cycle   5  Pass 0  IDiag  1:
 RMSU=  7.93D-05    CP:  1.05D+00  1.37D+00  9.27D-01  1.99D-01
 E= -801.912333491578     Delta-E=       -0.076843454405 Rises=F Damp=F
 DIIS: error= 2.89D-03 at cycle   5 NSaved=   5.
 NSaved= 5 IEnMin= 5 EnMin= -801.912333491578     IErMin= 5 ErrMin= 2.89D-03
 ErrMax= 2.89D-03  0.00D+00 EMaxC= 1.00D-01 BMatC= 1.17D-02 BMatP= 1.09D-01
 IDIUse=3 WtCom= 9.71D-01 WtEn= 2.89D-02
 Coeff-Com:  0.324D-01-0.490D-01 0.386D-01 0.244D+00 0.734D+00
 Coeff-En:   0.000D+00 0.000D+00 0.000D+00 0.686D-01 0.931D+00
 Coeff:      0.314D-01-0.476D-01 0.375D-01 0.239D+00 0.740D+00
 Gap=     0.223 Goal=   None    Shift=    0.000
 RMSDP=1.01D-04 MaxDP=1.19D-02 DE=-7.68D-02 OVMax= 3.04D-02

 Cycle   6  Pass 0  IDiag  1:
 RMSU=  3.87D-05    CP:  1.05D+00  1.42D+00  9.62D-01  4.40D-01  4.28D-01
 E= -801.919059124378     Delta-E=       -0.006725632800 Rises=F Damp=F
 DIIS: error= 1.36D-03 at cycle   6 NSaved=   6.
 NSaved= 6 IEnMin= 6 EnMin= -801.919059124378     IErMin= 6 ErrMin= 1.36D-03
 ErrMax= 1.36D-03  0.00D+00 EMaxC= 1.00D-01 BMatC= 1.36D-03 BMatP= 1.17D-02
 IDIUse=3 WtCom= 9.86D-01 WtEn= 1.36D-02
 Coeff-Com:  0.109D-01-0.159D-01-0.514D-02 0.938D-01 0.361D+00 0.556D+00
 Coeff-En:   0.000D+00 0.000D+00 0.000D+00 0.000D+00 0.655D-01 0.934D+00
 Coeff:      0.108D-01-0.157D-01-0.507D-02 0.925D-01 0.357D+00 0.561D+00
 Gap=     0.223 Goal=   None    Shift=    0.000
 RMSDP=3.63D-05 MaxDP=4.03D-03 DE=-6.73D-03 OVMax= 1.44D-02

 Cycle   7  Pass 0  IDiag  1:
 RMSU=  2.20D-05    CP:  1.05D+00  1.38D+00  9.60D-01  4.41D-01  5.93D-01
                    CP:  5.25D-01
 E= -801.919966483936     Delta-E=       -0.000907359558 Rises=F Damp=F
 DIIS: error= 8.72D-04 at cycle   7 NSaved=   7.
 NSaved= 7 IEnMin= 7 EnMin= -801.919966483936     IErMin= 7 ErrMin= 8.72D-04
 ErrMax= 8.72D-04  0.00D+00 EMaxC= 1.00D-01 BMatC= 2.72D-04 BMatP= 1.36D-03
 IDIUse=3 WtCom= 9.91D-01 WtEn= 8.72D-03
 Coeff-Com:  0.102D-01-0.136D-01-0.285D-02 0.256D-01 0.108D+00 0.333D+00
 Coeff-Com:  0.540D+00
 Coeff-En:   0.000D+00 0.000D+00 0.000D+00 0.000D+00 0.000D+00 0.192D+00
 Coeff-En:   0.808D+00
 Coeff:      0.101D-01-0.135D-01-0.282D-02 0.254D-01 0.107D+00 0.332D+00
 Coeff:      0.542D+00
 Gap=     0.223 Goal=   None    Shift=    0.000
 RMSDP=1.33D-05 MaxDP=1.62D-03 DE=-9.07D-04 OVMax= 6.53D-03

 Cycle   8  Pass 0  IDiag  1:
 RMSU=  6.47D-06    CP:  1.05D+00  1.38D+00  9.66D-01  4.48D-01  5.78D-01
                    CP:  7.39D-01  6.71D-01
 E= -801.920206172188     Delta-E=       -0.000239688252 Rises=F Damp=F
 DIIS: error= 1.90D-04 at cycle   8 NSaved=   8.
 NSaved= 8 IEnMin= 8 EnMin= -801.920206172188     IErMin= 8 ErrMin= 1.90D-04
 ErrMax= 1.90D-04  0.00D+00 EMaxC= 1.00D-01 BMatC= 1.48D-05 BMatP= 2.72D-04
 IDIUse=3 WtCom= 9.98D-01 WtEn= 1.90D-03
 Coeff-Com:  0.552D-02-0.736D-02-0.522D-03 0.834D-02 0.359D-01 0.145D+00
 Coeff-Com:  0.294D+00 0.519D+00
 Coeff-En:   0.000D+00 0.000D+00 0.000D+00 0.000D+00 0.000D+00 0.000D+00
 Coeff-En:   0.000D+00 0.100D+01
 Coeff:      0.551D-02-0.734D-02-0.521D-03 0.832D-02 0.359D-01 0.145D+00
 Coeff:      0.294D+00 0.519D+00
 Gap=     0.223 Goal=   None    Shift=    0.000
 RMSDP=3.51D-06 MaxDP=3.88D-04 DE=-2.40D-04 OVMax= 1.27D-03

 Initial convergence to 1.0D-05 achieved.  Increase integral accuracy.
 Cycle   9  Pass 1  IDiag  1:
 E= -801.920281177343     Delta-E=       -0.000075005155 Rises=F Damp=F
 DIIS: error= 2.68D-04 at cycle   1 NSaved=   1.
 NSaved= 1 IEnMin= 1 EnMin= -801.920281177343     IErMin= 1 ErrMin= 2.68D-04
 ErrMax= 2.68D-04  0.00D+00 EMaxC= 1.00D-01 BMatC= 2.11D-05 BMatP= 2.11D-05
 IDIUse=3 WtCom= 9.97D-01 WtEn= 2.68D-03
 Coeff-Com:  0.100D+01
 Coeff-En:   0.100D+01
 Coeff:      0.100D+01
 Gap=     0.223 Goal=   None    Shift=    0.000
 RMSDP=3.51D-06 MaxDP=3.88D-04 DE=-7.50D-05 OVMax= 6.33D-04

 Cycle  10  Pass 1  IDiag  1:
 RMSU=  1.31D-04    CP:  9.95D-01
 E= -801.920292193102     Delta-E=       -0.000011015759 Rises=F Damp=F
 DIIS: error= 5.43D-05 at cycle   2 NSaved=   2.
 NSaved= 2 IEnMin= 2 EnMin= -801.920292193102     IErMin= 2 ErrMin= 5.43D-05
 ErrMax= 5.43D-05  0.00D+00 EMaxC= 1.00D-01 BMatC= 3.07D-06 BMatP= 2.11D-05
 IDIUse=1 WtCom= 1.00D+00 WtEn= 0.00D+00
 Coeff-Com:  0.173D+00 0.827D+00
 Coeff:      0.173D+00 0.827D+00
 Gap=     0.223 Goal=   None    Shift=    0.000
 RMSDP=3.23D-06 MaxDP=4.19D-04 DE=-1.10D-05 OVMax= 8.60D-04

 Cycle  11  Pass 1  IDiag  1:
 RMSU=  2.66D-06    CP:  9.95D-01  1.01D+00
 E= -801.920290690953     Delta-E=        0.000001502149 Rises=F Damp=F
 DIIS: error= 7.70D-05 at cycle   3 NSaved=   3.
 NSaved= 3 IEnMin= 2 EnMin= -801.920292193102     IErMin= 2 ErrMin= 5.43D-05
 ErrMax= 7.70D-05  0.00D+00 EMaxC= 1.00D-01 BMatC= 4.86D-06 BMatP= 3.07D-06
 IDIUse=1 WtCom= 1.00D+00 WtEn= 0.00D+00
 Coeff-Com: -0.292D-03 0.558D+00 0.442D+00
 Coeff:     -0.292D-03 0.558D+00 0.442D+00
 Gap=     0.223 Goal=   None    Shift=    0.000
 RMSDP=1.65D-06 MaxDP=2.55D-04 DE= 1.50D-06 OVMax= 5.51D-04

 Cycle  12  Pass 1  IDiag  1:
 RMSU=  5.50D-07    CP:  9.95D-01  1.02D+00  4.35D-01
 E= -801.920294543104     Delta-E=       -0.000003852151 Rises=F Damp=F
 DIIS: error= 8.89D-06 at cycle   4 NSaved=   4.
 NSaved= 4 IEnMin= 4 EnMin= -801.920294543104     IErMin= 4 ErrMin= 8.89D-06
 ErrMax= 8.89D-06  0.00D+00 EMaxC= 1.00D-01 BMatC= 7.53D-08 BMatP= 3.07D-06
 IDIUse=1 WtCom= 1.00D+00 WtEn= 0.00D+00
 Coeff-Com: -0.271D-02 0.324D+00 0.268D+00 0.410D+00
 Coeff:     -0.271D-02 0.324D+00 0.268D+00 0.410D+00
 Gap=     0.223 Goal=   None    Shift=    0.000
 RMSDP=1.87D-07 MaxDP=2.36D-05 DE=-3.85D-06 OVMax= 6.35D-05

 Cycle  13  Pass 1  IDiag  1:
 RMSU=  1.60D-07    CP:  9.95D-01  1.02D+00  4.62D-01  8.86D-01
 E= -801.920294600431     Delta-E=       -0.000000057326 Rises=F Damp=F
 DIIS: error= 1.10D-06 at cycle   5 NSaved=   5.
 NSaved= 5 IEnMin= 5 EnMin= -801.920294600431     IErMin= 5 ErrMin= 1.10D-06
 ErrMax= 1.10D-06  0.00D+00 EMaxC= 1.00D-01 BMatC= 1.85D-09 BMatP= 7.53D-08
 IDIUse=1 WtCom= 1.00D+00 WtEn= 0.00D+00
 Coeff-Com: -0.116D-02 0.954D-01 0.803D-01 0.185D+00 0.641D+00
 Coeff:     -0.116D-02 0.954D-01 0.803D-01 0.185D+00 0.641D+00
 Gap=     0.223 Goal=   None    Shift=    0.000
 RMSDP=3.98D-08 MaxDP=3.26D-06 DE=-5.73D-08 OVMax= 1.26D-05

 Cycle  14  Pass 1  IDiag  1:
 RMSU=  3.05D-08    CP:  9.95D-01  1.02D+00  4.63D-01  9.23D-01  9.17D-01
 E= -801.920294601380     Delta-E=       -0.000000000949 Rises=F Damp=F
 DIIS: error= 7.13D-07 at cycle   6 NSaved=   6.
 NSaved= 6 IEnMin= 6 EnMin= -801.920294601380     IErMin= 6 ErrMin= 7.13D-07
 ErrMax= 7.13D-07  0.00D+00 EMaxC= 1.00D-01 BMatC= 2.85D-10 BMatP= 1.85D-09
 IDIUse=1 WtCom= 1.00D+00 WtEn= 0.00D+00
 Coeff-Com: -0.460D-03 0.313D-01 0.267D-01 0.767D-01 0.355D+00 0.511D+00
 Coeff:     -0.460D-03 0.313D-01 0.267D-01 0.767D-01 0.355D+00 0.511D+00
 Gap=     0.223 Goal=   None    Shift=    0.000
 RMSDP=2.02D-08 MaxDP=2.98D-06 DE=-9.49D-10 OVMax= 7.18D-06

 Cycle  15  Pass 1  IDiag  1:
 RMSU=  1.57D-08    CP:  9.95D-01  1.02D+00  4.61D-01  9.35D-01  9.64D-01
                    CP:  8.25D-01
 E= -801.920294601621     Delta-E=       -0.000000000241 Rises=F Damp=F
 DIIS: error= 2.93D-07 at cycle   7 NSaved=   7.
 NSaved= 7 IEnMin= 7 EnMin= -801.920294601621     IErMin= 7 ErrMin= 2.93D-07
 ErrMax= 2.93D-07  0.00D+00 EMaxC= 1.00D-01 BMatC= 4.91D-11 BMatP= 2.85D-10
 IDIUse=1 WtCom= 1.00D+00 WtEn= 0.00D+00
 Coeff-Com:  0.315D-04-0.645D-02-0.530D-02-0.262D-02 0.398D-01 0.308D+00
 Coeff-Com:  0.667D+00
 Coeff:      0.315D-04-0.645D-02-0.530D-02-0.262D-02 0.398D-01 0.308D+00
 Coeff:      0.667D+00
 Gap=     0.223 Goal=   None    Shift=    0.000
 RMSDP=9.97D-09 MaxDP=1.28D-06 DE=-2.41D-10 OVMax= 2.27D-06

 Cycle  16  Pass 1  IDiag  1:
 RMSU=  5.80D-09    CP:  9.95D-01  1.02D+00  4.61D-01  9.43D-01  9.71D-01
                    CP:  1.04D+00  1.03D+00
 E= -801.920294601589     Delta-E=        0.000000000032 Rises=F Damp=F
 DIIS: error= 5.79D-08 at cycle   8 NSaved=   8.
 NSaved= 8 IEnMin= 7 EnMin= -801.920294601621     IErMin= 8 ErrMin= 5.79D-08
 ErrMax= 5.79D-08  0.00D+00 EMaxC= 1.00D-01 BMatC= 2.44D-12 BMatP= 4.91D-11
 IDIUse=1 WtCom= 1.00D+00 WtEn= 0.00D+00
 Coeff-Com:  0.420D-04-0.485D-02-0.403D-02-0.587D-02-0.341D-02 0.107D+00
 Coeff-Com:  0.304D+00 0.607D+00
 Coeff:      0.420D-04-0.485D-02-0.403D-02-0.587D-02-0.341D-02 0.107D+00
 Coeff:      0.304D+00 0.607D+00
 Gap=     0.223 Goal=   None    Shift=    0.000
 RMSDP=2.25D-09 MaxDP=3.43D-07 DE= 3.23D-11 OVMax= 4.55D-07

 SCF Done:  E(RM06) =  -801.920294602     A.U. after   16 cycles
            NFock= 16  Conv=0.23D-08     -V/T= 2.0044
 KE= 7.983753645516D+02 PE=-4.297490847941D+03 EE= 1.484700578698D+03
 Leave Link  502 at Tue Jun 24 19:01:28 2014, MaxMem=  4294967296 cpu:     35718.8
 (Enter /home/ztw1e12/g09/l801.exe)
 DoSCS=F DFT=T ScalE2(SS,OS)=  1.000000  1.000000
 Range of M.O.s used for correlation:     1  1068
 NBasis=  1204 NAE=    63 NBE=    63 NFC=     0 NFV=     0
 NROrb=   1068 NOA=    63 NOB=    63 NVA=  1005 NVB=  1005

 **** Warning!!: The largest alpha MO coefficient is  0.25531352D+02

 Leave Link  801 at Tue Jun 24 19:01:28 2014, MaxMem=  4294967296 cpu:         0.5
 (Enter /home/ztw1e12/g09/l1002.exe)
 Minotr:  Closed shell wavefunction.
          IDoAtm=111111111111111111111111111111111
          Direct CPHF calculation.
          Differentiating once with respect to Fermi-contact.
          Electric field/nuclear overlap derivatives assumed to be zero.
          Requested convergence is 1.0D-10 RMS, and 1.0D-09 maximum.
          Secondary convergence is 1.0D-12 RMS, and 1.0D-12 maximum.
          NewPWx=T KeepS1=F KeepF1=F KeepIn=T MapXYZ=F SortEE=F KeepMc=T.
          MDV=    4294965894 using IRadAn=  199590.
 Using stored XC quadrature information.
          Solving linear equations simultaneously, MaxMat=       0.
          There are    33 degrees of freedom in the 1st order CPHF.  IDoFFX=0 NUNeed=    33.
     33 vectors produced by pass  0 Test12= 1.92D-17 3.03D-11 XBig12= 4.29D+01 2.58D+00.
 AX will form    33 AO Fock derivatives at one time.
 FoFJK:  IHMeth= 1 ICntrl=       0 DoSepK=F KAlg= 0 I1Cent=   0 FoldK=F
 IRaf= 450000000 NMat=  33 IRICut=       1 DoRegI=T DoRafI=F ISym2E=-1.
 FoFCou: FMM=F IPFlag=           0 FMFlag=      100000 FMFlg1=           0
         NFxFlg=           0 DoJE=F BraDBF=F KetDBF=F FulRan=T
         wScrn=  0.000000 ICntrl=       0 IOpCl=  0 I1Cent=           0 NGrid=           0
         NMat0=   33 NMatS0=      0 NMatT0=   33 NMatD0=   33 NMtDS0=    0 NMtDT0=    0
 Petite list used in FoFCou.
     33 vectors produced by pass  1 Test12= 1.92D-17 3.03D-11 XBig12= 3.46D-01 1.89D-01.
     33 vectors produced by pass  2 Test12= 1.92D-17 3.03D-11 XBig12= 1.67D-02 4.64D-02.
     33 vectors produced by pass  3 Test12= 1.92D-17 3.03D-11 XBig12= 3.77D-04 5.43D-03.
     33 vectors produced by pass  4 Test12= 1.92D-17 3.03D-11 XBig12= 7.18D-06 1.12D-03.
     33 vectors produced by pass  5 Test12= 1.92D-17 3.03D-11 XBig12= 1.50D-07 1.69D-04.
     33 vectors produced by pass  6 Test12= 1.92D-17 3.03D-11 XBig12= 4.53D-09 2.11D-05.
     33 vectors produced by pass  7 Test12= 1.92D-17 3.03D-11 XBig12= 1.17D-10 4.28D-06.
     33 vectors produced by pass  8 Test12= 1.92D-17 3.03D-11 XBig12= 4.12D-12 3.27D-07.
     33 vectors produced by pass  9 Test12= 1.92D-17 3.03D-11 XBig12= 6.29D-14 8.70D-08.
     33 vectors produced by pass 10 Test12= 1.92D-17 3.03D-11 XBig12= 2.44D-15 7.42D-09.
     33 vectors produced by pass 11 Test12= 1.92D-17 3.03D-11 XBig12= 2.88D-17 7.63D-10.
      6 vectors produced by pass 12 Test12= 1.92D-17 3.03D-11 XBig12= 2.95D-19 6.69D-11.
 InvSVY:  IOpt=1 It=  1 EMax= 6.22D-15
 Solved reduced A of dimension   402 with    33 vectors.
 Max diff in FC couplings:  IJMax=    19     4 Diff= 5.18D-04 IJMaxR=    32     6 DiffR= 1.67D+00
 Fermi Contact (FC) contribution to K (Hz):
                1             2             3             4             5 
      1  0.123400D+11
      2  0.344370D+02  0.123400D+11
      3 -0.122815D+01  0.337567D+02  0.123400D+11
      4  0.302192D+01  0.394098D+00  0.324798D+02  0.123400D+11
      5  0.165583D+01  0.297793D+01 -0.128357D+01  0.341813D+02  0.123400D+11
      6  0.358432D+02 -0.244252D+00  0.430309D+01  0.208813D+00  0.386220D+02
      7  0.217466D+02 -0.305302D+00  0.953291D+00 -0.202691D+00  0.607910D+00
      8 -0.178446D+00  0.224369D+02 -0.218170D+00  0.987524D+00 -0.280899D+00
      9 -0.287384D+00  0.102684D+01 -0.163429D+00  0.225105D+02 -0.113004D+00
     10  0.670445D+00 -0.227718D+00  0.102490D+01 -0.236988D+00  0.230316D+02
     11  0.190214D+01  0.138741D+01  0.236390D+02  0.159012D+01  0.192359D+01
     12 -0.714274D-02  0.853364D+00 -0.103937D+01  0.919886D+00  0.943274D-01
     13  0.122914D-01  0.887976D+00 -0.117517D+01  0.842296D+00 -0.630835D-01
     14 -0.501912D+00  0.705414D+00 -0.159465D+01  0.523168D+00 -0.461809D+00
     15  0.990528D-02 -0.236611D-01  0.116798D+00 -0.257093D-02  0.102744D-01
     16  0.450232D-01  0.253638D-01  0.713423D+00 -0.578582D-01  0.190128D-01
     17 -0.748510D+00 -0.118974D+00  0.259800D+00  0.297706D+01  0.115789D+02
     18  0.420855D+00 -0.978090D-02 -0.463171D-01  0.206378D+00  0.114515D+01
     19  0.229695D-01  0.169274D+00  0.350074D-01  0.312564D-01 -0.326646D-02
     20  0.740566D-01 -0.613231D-01  0.288351D+01  0.383656D+00 -0.435126D-01
     21 -0.117578D-01  0.116141D-01 -0.905085D-01 -0.581134D-01 -0.400933D-02
     22 -0.347730D-01  0.395632D-01  0.140436D+00  0.326764D-01 -0.331671D-01
     23  0.101284D-02  0.160239D-02  0.696950D-02 -0.349399D-03  0.617183D-03
     24  0.374995D-02 -0.637546D-02  0.287339D-01  0.381492D-01  0.644703D-02
     25  0.218385D-02 -0.510226D-02  0.632857D-01 -0.563541D-02  0.470823D-02
     26 -0.761077D-04  0.963977D-05  0.145756D-02 -0.481653D-03  0.254494D-03
     27 -0.754593D-04  0.637662D-03 -0.229377D-02  0.249179D-03 -0.149466D-03
     28  0.193376D-03 -0.148268D-03 -0.309611D-03  0.524316D-03  0.124765D-02
     29  0.200658D-02  0.125616D-01  0.496178D-01  0.516083D-03 -0.874130D-03
     30 -0.446358D-04 -0.148169D-03 -0.307537D-02 -0.165457D-03  0.100052D-03
     31  0.198611D-03  0.442213D-03  0.232268D-02 -0.388368D-04  0.398541D-04
     32 -0.147759D-03  0.396492D-04 -0.272011D-02  0.105592D-03 -0.887032D-05
     33 -0.307747D-02  0.140150D-01  0.195476D-01  0.138164D-01 -0.104566D-01
                6             7             8             9            10 
      6  0.123400D+11
      7 -0.546965D+00  0.123400D+11
      8  0.118976D+01  0.331832D+00  0.123400D+11
      9  0.123859D+01  0.382649D-01  0.389128D-01  0.123400D+11
     10 -0.691455D+00  0.647972D-01  0.400668D-01  0.350125D+00  0.123400D+11
     11 -0.433248D+00  0.825237D-02  0.667945D+00  0.630692D+00  0.228579D-01
     12  0.380040D-01  0.542827D-02 -0.264086D-01 -0.724177D-02  0.892912D-02
     13  0.988212D-01  0.128286D-01 -0.239711D-01 -0.347705D-01  0.100796D-01
     14  0.493731D+00  0.462370D-01 -0.123651D+00 -0.109657D+00  0.378963D-01
     15 -0.940776D-02 -0.115555D-02  0.456299D-02  0.680746D-02 -0.730855D-03
     16 -0.143264D-01  0.126855D-02  0.945731D-02  0.351309D-02 -0.214356D-02
     17 -0.119923D+02  0.565528D+00  0.692224D-01  0.268451D+00  0.699371D+00
     18 -0.663857D+00 -0.132712D-01  0.194288D-02  0.141863D-01  0.694291D-03
     19  0.200121D-01  0.214073D-02  0.173071D-03  0.402737D-01  0.253084D-02
     20  0.113780D-01 -0.180917D-01 -0.129814D-01  0.189359D-01  0.312646D-02
     21  0.604998D-02  0.270771D-02  0.248416D-03 -0.100823D-01  0.171197D-02
     22  0.426493D-01  0.406767D-02 -0.676349D-02 -0.910106D-02  0.407630D-02
     23 -0.371704D-03  0.105343D-05  0.890568D-04  0.543744D-03 -0.541548D-04
     24 -0.274833D-02 -0.134010D-02 -0.350606D-03  0.462267D-02 -0.183065D-02
     25 -0.138686D-02 -0.385444D-04  0.113802D-03  0.105167D-03 -0.287527D-03
     26 -0.590882D-04 -0.588542D-05  0.101438D-04  0.376240D-04 -0.655982D-05
     27  0.369034D-03  0.321540D-05 -0.828356D-04 -0.594980D-04 -0.169296D-04
     28 -0.406785D-03 -0.729161D-04 -0.383205D-04 -0.105531D-03 -0.225356D-03
     29  0.211431D-02  0.485263D-03  0.165367D-03  0.515971D-03  0.133677D-03
     30 -0.101643D-03 -0.124966D-04  0.103019D-04 -0.246241D-04 -0.176538D-04
     31  0.253066D-04  0.100653D-04  0.340540D-04  0.394557D-04 -0.807916D-05
     32  0.357493D-05 -0.480301D-05  0.321448D-05 -0.870207D-04 -0.277592D-05
     33  0.864923D-02 -0.477157D-03 -0.256365D-02 -0.913911D-03  0.107912D-02
               11            12            13            14            15 
     11  0.123400D+11
     12  0.175410D+02  0.123400D+11
     13  0.185635D+02 -0.861178D+00  0.123400D+11
     14  0.186683D+02 -0.450111D+00 -0.991671D+00  0.123400D+11
     15 -0.668459D+00  0.436440D+00  0.161859D+00  0.195622D+02  0.123400D+11
     16  0.335795D-01  0.190289D+00  0.101950D+01  0.272255D+02 -0.925414D+00
     17  0.648976D-01  0.137541D-01  0.348172D-01  0.196607D+00 -0.365878D-02
     18  0.109497D-01 -0.129024D-02 -0.372474D-02 -0.211544D-01  0.416171D-03
     19  0.222383D+01 -0.128796D-01 -0.108764D+00  0.290997D+01  0.389226D+00
     20  0.417941D+00  0.645789D+00  0.157949D+00  0.149147D+02 -0.979645D+00
     21  0.416649D+00 -0.133639D-01 -0.851777D-02  0.205477D+00  0.259905D+00
     22  0.639149D+00 -0.457410D-01 -0.639186D-01  0.117423D+02  0.207626D+00
     23  0.532157D-01  0.122879D-04  0.600498D-03  0.788032D-01 -0.252561D-01
     24  0.111681D+01  0.282132D-02 -0.173417D-01 -0.320176D+00  0.570792D+00
     25 -0.434895D-01  0.352627D-01  0.334016D-02  0.837073D+00 -0.948876D-01
     26  0.234086D-01  0.758144D-03 -0.405627D-03  0.171586D-01  0.114894D-01
     27 -0.583833D-02 -0.829981D-03 -0.904938D-03  0.268028D-01  0.197072D-01
     28 -0.289680D-02 -0.293943D-03  0.811339D-03  0.942205D-01 -0.353486D-02
     29  0.343171D+00 -0.348915D-02  0.911455D-02  0.916177D+00  0.219069D-01
     30 -0.631905D-02  0.815613D-03  0.747428D-03 -0.563743D-01  0.843625D-02
     31  0.144373D-01  0.710044D-03  0.300253D-02 -0.252215D-01 -0.125829D-03
     32 -0.619280D-02 -0.508518D-03 -0.946515D-03 -0.918211D-01  0.594693D-02
     33  0.163742D+00  0.188788D-01  0.500978D-01  0.848287D+00  0.149562D+00
               16            17            18            19            20 
     16  0.123400D+11
     17 -0.376768D-02  0.123400D+11
     18  0.334113D-03  0.198810D+02  0.123400D+11
     19 -0.100181D+02  0.762871D-02 -0.235385D-04  0.123400D+11
     20  0.254448D+00  0.126087D-01 -0.131020D-02  0.568943D+00  0.123400D+11
     21 -0.278211D-01  0.812782D-03 -0.466811D-04 -0.105514D-01  0.318954D+02
     22  0.283755D+02  0.160635D-01 -0.174813D-02  0.624597D+01  0.345339D+00
     23  0.292742D+00 -0.126554D-04  0.167728D-04  0.556132D+00 -0.404976D-01
     24  0.111319D+00  0.143042D-04 -0.699012D-04 -0.102657D-01  0.260131D+02
     25 -0.168586D+00 -0.432288D-03  0.470261D-04  0.129743D-01  0.120178D+02
     26  0.564154D-01 -0.102233D-04  0.391510D-05  0.704205D-03  0.404123D+00
     27  0.915504D-01  0.136916D-03 -0.170544D-04  0.729605D-02  0.460605D+00
     28 -0.133830D-02 -0.124098D-04 -0.112361D-04  0.138294D-02  0.384179D+00
     29 -0.637864D+00  0.139637D-02 -0.126255D-03  0.674428D+00 -0.113266D+00
     30  0.265805D+00 -0.288840D-04  0.442124D-05  0.257542D+00  0.150145D+00
     31  0.103950D+01  0.134305D-04  0.000000D+00  0.168696D+00 -0.695375D-03
     32  0.198004D+00 -0.126876D-04  0.000000D+00  0.253183D+00  0.934460D-01
     33  0.350235D+00  0.379018D-02 -0.357379D-03  0.153341D+00  0.478933D+01
               21            22            23            24            25 
     21  0.123400D+11
     22  0.318622D-01  0.123400D+11
     23  0.115672D-02  0.324529D+02  0.123400D+11
     24  0.463186D+00 -0.222088D+00  0.187051D-01  0.123400D+11
     25  0.135107D+00  0.153201D+00 -0.234050D-01  0.274053D+02  0.123400D+11
     26 -0.190304D-01 -0.395170D-02 -0.317114D-02 -0.119521D+01  0.177356D+02
     27 -0.112206D-01 -0.518977D-02 -0.264733D-03 -0.118403D+01  0.180569D+02
     28 -0.110017D-01  0.273296D-01 -0.232346D-02 -0.756711D+00  0.174454D+02
     29 -0.346756D-02  0.162075D+02  0.362663D+00 -0.111472D-01 -0.108739D-01
     30  0.190413D-02 -0.658821D+00  0.620984D-01 -0.148645D-02  0.154202D-02
     31 -0.484393D-05 -0.292281D+00  0.287624D+00  0.221837D-03  0.122301D-02
     32  0.146241D-02 -0.600390D+00  0.167480D+00 -0.916584D-03  0.922046D-02
     33  0.386555D+00  0.479106D+01 -0.716499D+00 -0.922813D+01  0.416709D+01
               26            27            28            29            30 
     26  0.123400D+11
     27 -0.922821D+00  0.123400D+11
     28 -0.756093D+00 -0.719504D+00  0.123400D+11
     29 -0.106375D-02 -0.670328D-03  0.799046D-03  0.123400D+11
     30 -0.123135D-03  0.541443D-03  0.208841D-03  0.196065D+02  0.123400D+11
     31  0.386192D-03  0.494165D-04  0.113832D-03  0.184898D+02 -0.735285D+00
     32  0.309941D-03  0.502944D-03 -0.228660D-03  0.197916D+02 -0.747610D+00
     33  0.409807D+00  0.385645D+00  0.917128D+00  0.901146D-01  0.266939D-02
               31            32            33 
     31  0.123400D+11
     32 -0.755257D+00  0.123400D+11
     33  0.314281D-01  0.607061D-01  0.123400D+11
 Fermi Contact (FC) contribution to J (Hz):
                1             2             3             4             5 
      1  0.243533D+11
      2  0.679622D+02  0.243533D+11
      3 -0.242379D+01  0.666196D+02  0.243533D+11
      4  0.596383D+01  0.777762D+00  0.640998D+02  0.243533D+11
      5  0.326782D+01  0.587702D+01 -0.253316D+01  0.674576D+02  0.243533D+11
      6  0.707375D+02 -0.482038D+00  0.849225D+01  0.412098D+00  0.762215D+02
      7  0.170644D+03 -0.239567D+01  0.748038D+01 -0.159050D+01  0.477021D+01
      8 -0.140025D+01  0.176060D+03 -0.171196D+01  0.774901D+01 -0.220419D+01
      9 -0.225508D+01  0.805755D+01 -0.128241D+01  0.176638D+03 -0.886732D+00
     10  0.526092D+01 -0.178688D+01  0.804229D+01 -0.185962D+01  0.180727D+03
     11  0.375392D+01  0.273808D+01  0.466521D+02  0.313815D+01  0.379626D+01
     12 -0.560484D-01  0.669626D+01 -0.815586D+01  0.721826D+01  0.740178D+00
     13  0.964492D-01  0.696786D+01 -0.922143D+01  0.660941D+01 -0.495010D+00
     14 -0.990535D+00  0.139215D+01 -0.314708D+01  0.103249D+01 -0.911391D+00
     15  0.777258D-01 -0.185666D+00  0.916501D+00 -0.201738D-01  0.806219D-01
     16  0.888544D-01  0.500561D-01  0.140796D+01 -0.114185D+00  0.375222D-01
     17  0.796550D+00  0.126610D+00 -0.276474D+00 -0.316813D+01 -0.123221D+02
     18  0.330241D+01 -0.767497D-01 -0.363446D+00  0.161943D+01  0.898587D+01
     19 -0.244437D-01 -0.180138D+00 -0.372542D-01 -0.332624D-01  0.347610D-02
     20  0.420058D-01 -0.347832D-01  0.163556D+01  0.217614D+00 -0.246809D-01
     21 -0.922621D-01  0.911348D-01 -0.710212D+00 -0.456010D+00 -0.314608D-01
     22 -0.197237D-01  0.224407D-01  0.796573D-01  0.185345D-01 -0.188128D-01
     23  0.794766D-02  0.125738D-01  0.546890D-01 -0.274170D-02  0.484297D-02
     24  0.740061D-02 -0.125821D-01  0.567071D-01  0.752883D-01  0.127234D-01
     25  0.430989D-02 -0.100694D-01  0.124896D+00 -0.111216D-01  0.929181D-02
     26 -0.597210D-03  0.756424D-04  0.114374D-01 -0.377949D-02  0.199699D-02
     27 -0.592122D-03  0.500367D-02 -0.179990D-01  0.195529D-02 -0.117284D-02
     28  0.151740D-02 -0.116345D-02 -0.242949D-02  0.411425D-02  0.979021D-02
     29  0.396003D-02  0.247906D-01  0.979220D-01  0.101850D-02 -0.172512D-02
     30 -0.350253D-03 -0.116267D-02 -0.241321D-01 -0.129833D-02  0.785097D-03
     31  0.155848D-02  0.347000D-02  0.182258D-01 -0.304749D-03  0.312731D-03
     32 -0.115945D-02  0.311123D-03 -0.213445D-01  0.828567D-03 -0.696046D-04
     33  0.327499D-02 -0.149145D-01 -0.208022D-01 -0.147032D-01  0.111277D-01
                6             7             8             9            10 
      6  0.243533D+11
      7 -0.429198D+01  0.385007D+12
      8  0.933591D+01  0.103531D+02  0.385007D+12
      9  0.971910D+01  0.119386D+01  0.121408D+01  0.385007D+12
     10 -0.542578D+01  0.202167D+01  0.125008D+01  0.109239D+02  0.385007D+12
     11 -0.855026D+00  0.647556D-01  0.524130D+01  0.494898D+01  0.179364D+00
     12  0.298214D+00  0.169362D+00 -0.823947D+00 -0.225943D+00  0.278588D+00
     13  0.775440D+00  0.400251D+00 -0.747897D+00 -0.108484D+01  0.314482D+00
     14  0.974390D+00  0.362817D+00 -0.970279D+00 -0.860467D+00  0.297368D+00
     15 -0.738218D-01 -0.360532D-01  0.142365D+00  0.212392D+00 -0.228027D-01
     16 -0.282736D-01  0.995415D-02  0.742106D-01  0.275669D-01 -0.168203D-01
     17  0.127620D+02 -0.239290D+01 -0.292899D+00 -0.113589D+01 -0.295923D+01
     18 -0.520922D+01 -0.414061D+00  0.606176D-01  0.442613D+00  0.216619D-01
     19 -0.212965D-01 -0.905801D-02 -0.732310D-03 -0.170409D+00 -0.107087D-01
     20  0.645375D-02 -0.408020D-01 -0.292767D-01  0.427058D-01  0.705107D-02
     21  0.474736D-01  0.844806D-01  0.775058D-02 -0.314566D+00  0.534134D-01
     22  0.241912D-01  0.917376D-02 -0.152536D-01 -0.205255D-01  0.919322D-02
     23 -0.291673D-02  0.328669D-04  0.277857D-02  0.169648D-01 -0.168963D-02
     24 -0.542391D-02 -0.105156D-01 -0.275117D-02  0.362737D-01 -0.143650D-01
     25 -0.273701D-02 -0.302454D-03  0.892992D-03  0.825232D-03 -0.225620D-02
     26 -0.463659D-03 -0.183625D-03  0.316486D-03  0.117387D-02 -0.204666D-03
     27  0.289577D-02  0.100320D-03 -0.258447D-02 -0.185633D-02 -0.528202D-03
     28 -0.319200D-02 -0.227498D-02 -0.119560D-02 -0.329257D-02 -0.703110D-02
     29  0.417265D-02  0.380781D-02  0.129762D-02  0.404877D-02  0.104895D-02
     30 -0.797582D-03 -0.389893D-03  0.321420D-03 -0.768271D-03 -0.550796D-03
     31  0.198578D-03  0.314036D-03  0.106248D-02  0.123102D-02 -0.252069D-03
     32  0.280521D-04 -0.149854D-03  0.100292D-03 -0.271504D-02 -0.866085D-04
     33 -0.920435D-02  0.201898D-02  0.108475D-01  0.386701D-02 -0.456605D-02
               11            12            13            14            15 
     11  0.243533D+11
     12  0.137643D+03  0.385007D+12
     13  0.145666D+03 -0.268687D+02  0.385007D+12
     14  0.368424D+02 -0.353197D+01 -0.778155D+01  0.243533D+11
     15 -0.524534D+01  0.136169D+02  0.504999D+01  0.153503D+03  0.385007D+12
     16  0.662699D-01  0.149318D+01  0.799993D+01  0.537301D+02 -0.726163D+01
     17 -0.690627D-01 -0.581975D-01 -0.147321D+00 -0.209226D+00  0.154813D-01
     18  0.859215D-01 -0.402554D-01 -0.116212D+00 -0.165997D+00  0.129845D-01
     19 -0.236656D+01  0.544972D-01  0.460209D+00 -0.309674D+01 -0.164692D+01
     20  0.237061D+00  0.145644D+01  0.356220D+00  0.845979D+01 -0.220938D+01
     21  0.326941D+01 -0.416953D+00 -0.265754D+00  0.161236D+01  0.810903D+01
     22  0.362533D+00 -0.103159D+00 -0.144155D+00  0.666035D+01  0.468256D+00
     23  0.417578D+00  0.383380D-03  0.187355D-01  0.618361D+00 -0.787989D+00
     24  0.220406D+01  0.221386D-01 -0.136079D+00 -0.631875D+00  0.447895D+01
     25 -0.858277D-01  0.276703D+00  0.262099D-01  0.165199D+01 -0.744574D+00
     26  0.183685D+00  0.236541D-01 -0.126555D-01  0.134642D+00  0.358468D+00
     27 -0.458128D-01 -0.258954D-01 -0.282340D-01  0.210319D+00  0.614865D+00
     28 -0.227309D-01 -0.917102D-02  0.253138D-01  0.739339D+00 -0.110287D+00
     29  0.677256D+00 -0.273790D-01  0.715210D-01  0.180810D+01  0.171902D+00
     30 -0.495850D-01  0.254471D-01  0.233197D-01 -0.442363D+00  0.263211D+00
     31  0.113288D+00  0.221533D-01  0.936787D-01 -0.197911D+00 -0.392585D-02
     32 -0.485943D-01 -0.158658D-01 -0.295312D-01 -0.720511D+00  0.185544D+00
     33 -0.174251D+00 -0.798813D-01 -0.211978D+00 -0.902731D+00 -0.632839D+00
               16            17            18            19            20 
     16  0.243533D+11
     17  0.400949D-02  0.708114D+10
     18  0.262175D-02 -0.841221D+02  0.385007D+12
     19  0.106611D+02  0.437763D-02  0.995977D-04  0.708114D+10
     20  0.144326D+00 -0.385646D-02 -0.295487D-02 -0.174015D+00  0.201170D+10
     21 -0.218310D+00 -0.343910D-02 -0.145645D-02  0.446459D-01  0.719332D+02
     22  0.160949D+02 -0.491312D-02 -0.394254D-02 -0.191037D+01  0.562982D-01
     23  0.229712D+01  0.535483D-04  0.523311D-03 -0.235315D+01 -0.913337D-01
     24  0.219691D+00 -0.152223D-04 -0.548508D-03  0.109245D-01  0.147549D+02
     25 -0.332709D+00  0.460033D-03  0.369009D-03 -0.138070D-01  0.681664D+01
     26  0.442686D+00  0.432577D-04  0.122151D-03 -0.297969D-02  0.911412D+00
     27  0.718387D+00 -0.579330D-03 -0.532095D-03 -0.308716D-01  0.103880D+01
     28 -0.105015D-01  0.525094D-04 -0.350567D-03 -0.585158D-02  0.866434D+00
     29 -0.125884D+01 -0.148599D-02 -0.990712D-03 -0.717714D+00 -0.642458D-01
     30  0.208574D+01  0.122216D-03  0.137943D-03 -0.108973D+01  0.338619D+00
     31  0.815686D+01 -0.568279D-04 -0.589538D-05 -0.713799D+00 -0.156827D-02
     32  0.155371D+01  0.536847D-04  0.126647D-04 -0.107129D+01  0.210747D+00
     33 -0.372713D+00  0.217494D-02  0.151217D-02  0.879927D-01 -0.146485D+01
               21            22            23            24            25 
     21  0.385007D+12
     22  0.718583D-01  0.201170D+10
     23  0.360897D-01  0.731906D+02  0.385007D+12
     24  0.363458D+01 -0.125971D+00  0.146777D+00  0.243533D+11
     25  0.106017D+01  0.868977D-01 -0.183657D+00  0.540850D+02  0.243533D+11
     26 -0.593748D+00 -0.891220D-02 -0.989393D-01 -0.937868D+01  0.139169D+03
     27 -0.350083D+00 -0.117044D-01 -0.825967D-02 -0.929100D+01  0.141691D+03
     28 -0.343254D+00  0.616361D-01 -0.724919D-01 -0.593784D+01  0.136892D+03
     29 -0.272096D-01  0.919309D+01  0.284578D+01 -0.219993D-01 -0.214599D-01
     30  0.594086D-01 -0.148583D+01  0.193747D+01 -0.116640D-01  0.121001D-01
     31 -0.151130D-03 -0.659177D+00  0.897385D+01  0.174073D-02  0.959684D-02
     32  0.456271D-01 -0.135405D+01  0.522536D+01 -0.719235D-02  0.723520D-01
     33 -0.163562D+01 -0.146538D+01  0.303170D+01  0.982039D+01 -0.443454D+01
               26            27            28            29            30 
     26  0.385007D+12
     27 -0.287920D+02  0.385007D+12
     28 -0.235901D+02 -0.224485D+02  0.385007D+12
     29 -0.834718D-02 -0.526000D-02  0.627004D-02  0.243533D+11
     30 -0.384182D-02  0.168930D-01  0.651583D-02  0.153850D+03  0.385007D+12
     31  0.120492D-01  0.154179D-02  0.355154D-02  0.145088D+03 -0.229409D+02
     32  0.967014D-02  0.156918D-01 -0.713418D-02  0.155303D+03 -0.233254D+02
     33 -0.173400D+01 -0.163177D+01 -0.388062D+01 -0.958982D-01 -0.112949D-01
               31            32            33 
     31  0.385007D+12
     32 -0.235640D+02  0.385007D+12
     33 -0.132981D+00 -0.256864D+00  0.708114D+10
 End of Minotr F.D. properties file   721 does not exist.
 End of Minotr F.D. properties file   722 does not exist.
 End of Minotr F.D. properties file   788 does not exist.
 Leave Link 1002 at Wed Jun 25 03:05:36 2014, MaxMem=  4294967296 cpu:    463631.2
 (Enter /home/ztw1e12/g09/l601.exe)
 Copying SCF densities to generalized density rwf, IOpCl= 0 IROHF=0.

 **********************************************************************

            Population analysis using the SCF density.

 **********************************************************************

 Orbital symmetries:
       Occupied  (A) (A) (A) (A) (A) (A) (A) (A) (A) (A) (A) (A)
                 (A) (A) (A) (A) (A) (A) (A) (A) (A) (A) (A) (A)
                 (A) (A) (A) (A) (A) (A) (A) (A) (A) (A) (A) (A)
                 (A) (A) (A) (A) (A) (A) (A) (A) (A) (A) (A) (A)
                 (A) (A) (A) (A) (A) (A) (A) (A) (A) (A) (A) (A)
                 (A) (A) (A)
       Virtual   (A) (A) (A) (A) (A) (A) (A) (A) (A) (A) (A) (A)
                 (A) (A) (A) (A) (A) (A) (A) (A) (A) (A) (A) (A)
                 (A) (A) (A) (A) (A) (A) (A) (A) (A) (A) (A) (A)
                 (A) (A) (A) (A) (A) (A) (A) (A) (A) (A) (A) (A)
                 (A) (A) (A) (A) (A) (A) (A) (A) (A) (A) (A) (A)
                 (A) (A) (A) (A) (A) (A) (A) (A) (A) (A) (A) (A)
                 (A) (A) (A) (A) (A) (A) (A) (A) (A) (A) (A) (A)
                 (A) (A) (A) (A) (A) (A) (A) (A) (A) (A) (A) (A)
                 (A) (A) (A) (A) (A) (A) (A) (A) (A) (A) (A) (A)
                 (A) (A) (A) (A) (A) (A) (A) (A) (A) (A) (A) (A)
                 (A) (A) (A) (A) (A) (A) (A) (A) (A) (A) (A) (A)
                 (A) (A) (A) (A) (A) (A) (A) (A) (A) (A) (A) (A)
                 (A) (A) (A) (A) (A) (A) (A) (A) (A) (A) (A) (A)
                 (A) (A) (A) (A) (A) (A) (A) (A) (A) (A) (A) (A)
                 (A) (A) (A) (A) (A) (A) (A) (A) (A) (A) (A) (A)
                 (A) (A) (A) (A) (A) (A) (A) (A) (A) (A) (A) (A)
                 (A) (A) (A) (A) (A) (A) (A) (A) (A) (A) (A) (A)
                 (A) (A) (A) (A) (A) (A) (A) (A) (A) (A) (A) (A)
                 (A) (A) (A) (A) (A) (A) (A) (A) (A) (A) (A) (A)
                 (A) (A) (A) (A) (A) (A) (A) (A) (A) (A) (A) (A)
                 (A) (A) (A) (A) (A) (A) (A) (A) (A) (A) (A) (A)
                 (A) (A) (A) (A) (A) (A) (A) (A) (A) (A) (A) (A)
                 (A) (A) (A) (A) (A) (A) (A) (A) (A) (A) (A) (A)
                 (A) (A) (A) (A) (A) (A) (A) (A) (A) (A) (A) (A)
                 (A) (A) (A) (A) (A) (A) (A) (A) (A) (A) (A) (A)
                 (A) (A) (A) (A) (A) (A) (A) (A) (A) (A) (A) (A)
                 (A) (A) (A) (A) (A) (A) (A) (A) (A) (A) (A) (A)
                 (A) (A) (A) (A) (A) (A) (A) (A) (A) (A) (A) (A)
                 (A) (A) (A) (A) (A) (A) (A) (A) (A) (A) (A) (A)
                 (A) (A) (A) (A) (A) (A) (A) (A) (A) (A) (A) (A)
                 (A) (A) (A) (A) (A) (A) (A) (A) (A) (A) (A) (A)
                 (A) (A) (A) (A) (A) (A) (A) (A) (A) (A) (A) (A)
                 (A) (A) (A) (A) (A) (A) (A) (A) (A) (A) (A) (A)
                 (A) (A) (A) (A) (A) (A) (A) (A) (A) (A) (A) (A)
                 (A) (A) (A) (A) (A) (A) (A) (A) (A) (A) (A) (A)
                 (A) (A) (A) (A) (A) (A) (A) (A) (A) (A) (A) (A)
                 (A) (A) (A) (A) (A) (A) (A) (A) (A) (A) (A) (A)
                 (A) (A) (A) (A) (A) (A) (A) (A) (A) (A) (A) (A)
                 (A) (A) (A) (A) (A) (A) (A) (A) (A) (A) (A) (A)
                 (A) (A) (A) (A) (A) (A) (A) (A) (A) (A) (A) (A)
                 (A) (A) (A) (A) (A) (A) (A) (A) (A) (A) (A) (A)
                 (A) (A) (A) (A) (A) (A) (A) (A) (A) (A) (A) (A)
                 (A) (A) (A) (A) (A) (A) (A) (A) (A) (A) (A) (A)
                 (A) (A) (A) (A) (A) (A) (A) (A) (A) (A) (A) (A)
                 (A) (A) (A) (A) (A) (A) (A) (A) (A) (A) (A) (A)
                 (A) (A) (A) (A) (A) (A) (A) (A) (A) (A) (A) (A)
                 (A) (A) (A) (A) (A) (A) (A) (A) (A) (A) (A) (A)
                 (A) (A) (A) (A) (A) (A) (A) (A) (A) (A) (A) (A)
                 (A) (A) (A) (A) (A) (A) (A) (A) (A) (A) (A) (A)
                 (A) (A) (A) (A) (A) (A) (A) (A) (A) (A) (A) (A)
                 (A) (A) (A) (A) (A) (A) (A) (A) (A) (A) (A) (A)
                 (A) (A) (A) (A) (A) (A) (A) (A) (A) (A) (A) (A)
                 (A) (A) (A) (A) (A) (A) (A) (A) (A) (A) (A) (A)
                 (A) (A) (A) (A) (A) (A) (A) (A) (A) (A) (A) (A)
                 (A) (A) (A) (A) (A) (A) (A) (A) (A) (A) (A) (A)
                 (A) (A) (A) (A) (A) (A) (A) (A) (A) (A) (A) (A)
                 (A) (A) (A) (A) (A) (A) (A) (A) (A) (A) (A) (A)
                 (A) (A) (A) (A) (A) (A) (A) (A) (A) (A) (A) (A)
                 (A) (A) (A) (A) (A) (A) (A) (A) (A) (A) (A) (A)
                 (A) (A) (A) (A) (A) (A) (A) (A) (A) (A) (A) (A)
                 (A) (A) (A) (A) (A) (A) (A) (A) (A) (A) (A) (A)
                 (A) (A) (A) (A) (A) (A) (A) (A) (A) (A) (A) (A)
                 (A) (A) (A) (A) (A) (A) (A) (A) (A) (A) (A) (A)
                 (A) (A) (A) (A) (A) (A) (A) (A) (A) (A) (A) (A)
                 (A) (A) (A) (A) (A) (A) (A) (A) (A) (A) (A) (A)
                 (A) (A) (A) (A) (A) (A) (A) (A) (A) (A) (A) (A)
                 (A) (A) (A) (A) (A) (A) (A) (A) (A) (A) (A) (A)
                 (A) (A) (A) (A) (A) (A) (A) (A) (A) (A) (A) (A)
                 (A) (A) (A) (A) (A) (A) (A) (A) (A) (A) (A) (A)
                 (A) (A) (A) (A) (A) (A) (A) (A) (A) (A) (A) (A)
                 (A) (A) (A) (A) (A) (A) (A) (A) (A) (A) (A) (A)
                 (A) (A) (A) (A) (A) (A) (A) (A) (A) (A) (A) (A)
                 (A) (A) (A) (A) (A) (A) (A) (A) (A) (A) (A) (A)
                 (A) (A) (A) (A) (A) (A) (A) (A) (A) (A) (A) (A)
                 (A) (A) (A) (A) (A) (A) (A) (A) (A) (A) (A) (A)
                 (A) (A) (A) (A) (A) (A) (A) (A) (A) (A) (A) (A)
                 (A) (A) (A) (A) (A) (A) (A) (A) (A) (A) (A) (A)
                 (A) (A) (A) (A) (A) (A) (A) (A) (A) (A) (A) (A)
                 (A) (A) (A) (A) (A) (A) (A) (A) (A) (A) (A) (A)
                 (A) (A) (A) (A) (A) (A) (A) (A) (A) (A) (A) (A)
                 (A) (A) (A) (A) (A) (A) (A) (A) (A) (A) (A) (A)
                 (A) (A) (A) (A) (A) (A) (A) (A) (A) (A) (A) (A)
                 (A) (A) (A) (A) (A) (A) (A) (A) (A) (A) (A) (A)
                 (A) (A) (A) (A) (A) (A) (A) (A) (A)
 The electronic state is 1-A.
 Alpha  occ. eigenvalues --  -19.25226 -19.18262 -19.17472 -14.42546 -14.40841
 Alpha  occ. eigenvalues --  -10.34925 -10.33301 -10.31299 -10.29308 -10.26578
 Alpha  occ. eigenvalues --  -10.25287 -10.25223 -10.25078 -10.25048 -10.24841
 Alpha  occ. eigenvalues --  -10.24627 -10.24601  -1.09567  -1.06317  -1.05052
 Alpha  occ. eigenvalues --   -0.95414  -0.93460  -0.88144  -0.81187  -0.77382
 Alpha  occ. eigenvalues --   -0.77205  -0.74328  -0.71677  -0.66405  -0.64413
 Alpha  occ. eigenvalues --   -0.61509  -0.60455  -0.58683  -0.56804  -0.54915
 Alpha  occ. eigenvalues --   -0.51785  -0.50880  -0.50387  -0.48343  -0.47204
 Alpha  occ. eigenvalues --   -0.46515  -0.46012  -0.45372  -0.44379  -0.43966
 Alpha  occ. eigenvalues --   -0.43398  -0.42455  -0.42333  -0.41667  -0.40800
 Alpha  occ. eigenvalues --   -0.39905  -0.39202  -0.38025  -0.37020  -0.36536
 Alpha  occ. eigenvalues --   -0.35555  -0.35094  -0.30079  -0.28206  -0.27837
 Alpha  occ. eigenvalues --   -0.27175  -0.26058  -0.24279
 Alpha virt. eigenvalues --   -0.01984   0.00029   0.01264   0.01777   0.02792
 Alpha virt. eigenvalues --    0.03805   0.04049   0.04968   0.05788   0.07004
 Alpha virt. eigenvalues --    0.07929   0.08391   0.09564   0.10358   0.10811
 Alpha virt. eigenvalues --    0.11301   0.11916   0.12194   0.12566   0.14034
 Alpha virt. eigenvalues --    0.15030   0.15710   0.17411   0.17826   0.19452
 Alpha virt. eigenvalues --    0.19980   0.20133   0.21995   0.22586   0.22874
 Alpha virt. eigenvalues --    0.23667   0.24317   0.24661   0.25527   0.26328
 Alpha virt. eigenvalues --    0.27201   0.27640   0.28241   0.28908   0.29528
 Alpha virt. eigenvalues --    0.30077   0.31387   0.31705   0.32313   0.32659
 Alpha virt. eigenvalues --    0.32767   0.33647   0.34238   0.34712   0.35124
 Alpha virt. eigenvalues --    0.35759   0.36043   0.36603   0.36941   0.37933
 Alpha virt. eigenvalues --    0.38545   0.38857   0.38918   0.39468   0.39745
 Alpha virt. eigenvalues --    0.40438   0.40887   0.41224   0.41890   0.42203
 Alpha virt. eigenvalues --    0.42411   0.42670   0.43234   0.43517   0.44103
 Alpha virt. eigenvalues --    0.44342   0.45235   0.45642   0.45890   0.46557
 Alpha virt. eigenvalues --    0.47316   0.47976   0.49362   0.50011   0.50107
 Alpha virt. eigenvalues --    0.50781   0.51578   0.52123   0.52803   0.53504
 Alpha virt. eigenvalues --    0.54120   0.54266   0.55846   0.56694   0.57518
 Alpha virt. eigenvalues --    0.58619   0.59345   0.60268   0.60544   0.61745
 Alpha virt. eigenvalues --    0.62285   0.62664   0.63100   0.63838   0.64307
 Alpha virt. eigenvalues --    0.65058   0.65641   0.66407   0.67581   0.68632
 Alpha virt. eigenvalues --    0.69199   0.70354   0.71039   0.71325   0.72704
 Alpha virt. eigenvalues --    0.73199   0.73395   0.74211   0.74679   0.75308
 Alpha virt. eigenvalues --    0.76118   0.77146   0.78503   0.79276   0.79469
 Alpha virt. eigenvalues --    0.80945   0.81699   0.82151   0.82331   0.83333
 Alpha virt. eigenvalues --    0.83736   0.84554   0.84916   0.85612   0.86579
 Alpha virt. eigenvalues --    0.86824   0.88101   0.88873   0.89413   0.89892
 Alpha virt. eigenvalues --    0.91064   0.92535   0.93695   0.93907   0.94348
 Alpha virt. eigenvalues --    0.95342   0.96262   0.96528   0.97191   0.97536
 Alpha virt. eigenvalues --    0.97945   0.98868   0.99631   1.01014   1.01326
 Alpha virt. eigenvalues --    1.02446   1.03060   1.04216   1.04541   1.05472
 Alpha virt. eigenvalues --    1.05829   1.06228   1.07536   1.07568   1.08400
 Alpha virt. eigenvalues --    1.09009   1.10247   1.12070   1.12346   1.13421
 Alpha virt. eigenvalues --    1.14920   1.15438   1.15944   1.16111   1.17474
 Alpha virt. eigenvalues --    1.18496   1.19021   1.19222   1.19937   1.20478
 Alpha virt. eigenvalues --    1.20779   1.21136   1.22047   1.22568   1.22653
 Alpha virt. eigenvalues --    1.23236   1.23441   1.23563   1.24951   1.25486
 Alpha virt. eigenvalues --    1.25594   1.26301   1.26522   1.26992   1.27741
 Alpha virt. eigenvalues --    1.27986   1.28838   1.29118   1.29234   1.30548
 Alpha virt. eigenvalues --    1.30825   1.32286   1.33085   1.33217   1.34543
 Alpha virt. eigenvalues --    1.35434   1.35641   1.35905   1.37132   1.39070
 Alpha virt. eigenvalues --    1.39634   1.41628   1.42474   1.44073   1.44800
 Alpha virt. eigenvalues --    1.45605   1.47851   1.48031   1.49611   1.50266
 Alpha virt. eigenvalues --    1.52684   1.54255   1.54690   1.56416   1.59054
 Alpha virt. eigenvalues --    1.59243   1.61280   1.61652   1.62581   1.63587
 Alpha virt. eigenvalues --    1.64133   1.65798   1.68585   1.69323   1.71199
 Alpha virt. eigenvalues --    1.73352   1.74782   1.76701   1.78298   1.79396
 Alpha virt. eigenvalues --    1.80055   1.80320   1.82023   1.83660   1.84052
 Alpha virt. eigenvalues --    1.84724   1.86135   1.88312   1.89393   1.89728
 Alpha virt. eigenvalues --    1.91626   1.92208   1.93843   1.95309   1.95790
 Alpha virt. eigenvalues --    1.98044   1.99173   2.00498   2.01215   2.02822
 Alpha virt. eigenvalues --    2.03950   2.04712   2.06012   2.07756   2.08343
 Alpha virt. eigenvalues --    2.09389   2.10074   2.11308   2.13700   2.14120
 Alpha virt. eigenvalues --    2.15569   2.16027   2.18305   2.18383   2.18562
 Alpha virt. eigenvalues --    2.22058   2.22477   2.22880   2.23759   2.24695
 Alpha virt. eigenvalues --    2.27126   2.27955   2.30328   2.31144   2.31710
 Alpha virt. eigenvalues --    2.32493   2.35591   2.36256   2.37445   2.37964
 Alpha virt. eigenvalues --    2.38910   2.39463   2.40537   2.41289   2.43867
 Alpha virt. eigenvalues --    2.45032   2.45641   2.46051   2.46856   2.47435
 Alpha virt. eigenvalues --    2.48725   2.50308   2.51314   2.52986   2.54762
 Alpha virt. eigenvalues --    2.55206   2.56107   2.56706   2.56968   2.62254
 Alpha virt. eigenvalues --    2.62471   2.63427   2.64774   2.64871   2.66740
 Alpha virt. eigenvalues --    2.66844   2.68041   2.68500   2.68923   2.69331
 Alpha virt. eigenvalues --    2.70176   2.70881   2.71176   2.71634   2.72088
 Alpha virt. eigenvalues --    2.72570   2.74331   2.75261   2.75367   2.76501
 Alpha virt. eigenvalues --    2.76586   2.77807   2.79084   2.80284   2.80655
 Alpha virt. eigenvalues --    2.82084   2.83048   2.83601   2.84833   2.84974
 Alpha virt. eigenvalues --    2.86456   2.87413   2.88658   2.88763   2.88992
 Alpha virt. eigenvalues --    2.89242   2.89888   2.90844   2.91207   2.92226
 Alpha virt. eigenvalues --    2.93027   2.93536   2.94264   2.94853   2.95486
 Alpha virt. eigenvalues --    2.95942   2.96543   2.97242   2.97645   2.98359
 Alpha virt. eigenvalues --    2.98869   3.00524   3.00864   3.01900   3.02175
 Alpha virt. eigenvalues --    3.02621   3.03043   3.03907   3.04082   3.04956
 Alpha virt. eigenvalues --    3.05566   3.05637   3.07109   3.07693   3.08074
 Alpha virt. eigenvalues --    3.10194   3.10568   3.11422   3.12379   3.13971
 Alpha virt. eigenvalues --    3.14460   3.14821   3.15416   3.15803   3.16532
 Alpha virt. eigenvalues --    3.17781   3.18211   3.18791   3.19915   3.20505
 Alpha virt. eigenvalues --    3.21003   3.21761   3.22183   3.23191   3.24508
 Alpha virt. eigenvalues --    3.25275   3.26648   3.27399   3.27886   3.28130
 Alpha virt. eigenvalues --    3.28577   3.29500   3.29853   3.30558   3.30970
 Alpha virt. eigenvalues --    3.31461   3.33079   3.34352   3.34439   3.35235
 Alpha virt. eigenvalues --    3.35887   3.37035   3.37317   3.38296   3.39402
 Alpha virt. eigenvalues --    3.40010   3.40886   3.41652   3.42023   3.42622
 Alpha virt. eigenvalues --    3.43071   3.43998   3.44521   3.45682   3.46400
 Alpha virt. eigenvalues --    3.47547   3.47961   3.48711   3.49558   3.51125
 Alpha virt. eigenvalues --    3.51855   3.52385   3.52860   3.53933   3.54647
 Alpha virt. eigenvalues --    3.56007   3.57490   3.58730   3.60043   3.61740
 Alpha virt. eigenvalues --    3.61981   3.63348   3.64163   3.64350   3.66620
 Alpha virt. eigenvalues --    3.67099   3.67680   3.69208   3.70383   3.71089
 Alpha virt. eigenvalues --    3.71502   3.72479   3.72938   3.73482   3.73860
 Alpha virt. eigenvalues --    3.74636   3.76104   3.76384   3.76997   3.77877
 Alpha virt. eigenvalues --    3.78768   3.79430   3.80785   3.81321   3.82437
 Alpha virt. eigenvalues --    3.83639   3.84540   3.84916   3.85289   3.86352
 Alpha virt. eigenvalues --    3.86780   3.87725   3.88416   3.88609   3.89647
 Alpha virt. eigenvalues --    3.90331   3.91181   3.91930   3.93594   3.95053
 Alpha virt. eigenvalues --    3.96160   3.96602   3.98164   4.00285   4.01162
 Alpha virt. eigenvalues --    4.01740   4.02482   4.03687   4.04336   4.04994
 Alpha virt. eigenvalues --    4.06404   4.06618   4.07552   4.07794   4.08922
 Alpha virt. eigenvalues --    4.10533   4.11203   4.12440   4.12705   4.14026
 Alpha virt. eigenvalues --    4.14143   4.15443   4.16918   4.17235   4.18278
 Alpha virt. eigenvalues --    4.18946   4.19396   4.20616   4.21179   4.22084
 Alpha virt. eigenvalues --    4.23470   4.23880   4.24730   4.26024   4.26290
 Alpha virt. eigenvalues --    4.27598   4.27894   4.29102   4.29563   4.31068
 Alpha virt. eigenvalues --    4.31825   4.32877   4.34974   4.36630   4.37854
 Alpha virt. eigenvalues --    4.38842   4.40035   4.42194   4.43337   4.44535
 Alpha virt. eigenvalues --    4.45229   4.45879   4.47497   4.47668   4.50838
 Alpha virt. eigenvalues --    4.52809   4.54687   4.54944   4.57583   4.58913
 Alpha virt. eigenvalues --    4.59780   4.60589   4.61844   4.62750   4.64329
 Alpha virt. eigenvalues --    4.64717   4.65369   4.65494   4.66763   4.68737
 Alpha virt. eigenvalues --    4.68833   4.69395   4.70560   4.72313   4.73507
 Alpha virt. eigenvalues --    4.75022   4.75093   4.76468   4.79001   4.79803
 Alpha virt. eigenvalues --    4.80557   4.82126   4.84301   4.85281   4.85401
 Alpha virt. eigenvalues --    4.87255   4.87938   4.89200   4.90681   4.92875
 Alpha virt. eigenvalues --    4.93172   4.93999   4.94942   4.96023   4.96681
 Alpha virt. eigenvalues --    4.96859   4.98829   4.99367   5.01463   5.02759
 Alpha virt. eigenvalues --    5.03596   5.04966   5.07130   5.07910   5.09598
 Alpha virt. eigenvalues --    5.11384   5.11870   5.12455   5.12914   5.14209
 Alpha virt. eigenvalues --    5.16049   5.17516   5.17726   5.19314   5.20282
 Alpha virt. eigenvalues --    5.22614   5.22788   5.25512   5.26547   5.27443
 Alpha virt. eigenvalues --    5.28808   5.32193   5.35381   5.35776   5.36488
 Alpha virt. eigenvalues --    5.39808   5.42846   5.44743   5.45404   5.46309
 Alpha virt. eigenvalues --    5.50963   5.51868   5.52008   5.52688   5.54741
 Alpha virt. eigenvalues --    5.55888   5.57099   5.58908   5.61526   5.62470
 Alpha virt. eigenvalues --    5.63962   5.65630   5.66252   5.67045   5.67507
 Alpha virt. eigenvalues --    5.68562   5.69414   5.71203   5.72309   5.74123
 Alpha virt. eigenvalues --    5.74668   5.76636   5.78085   5.80509   5.81588
 Alpha virt. eigenvalues --    5.85319   5.86322   5.89496   5.90878   5.96937
 Alpha virt. eigenvalues --    5.98525   6.00429   6.04481   6.06177   6.09366
 Alpha virt. eigenvalues --    6.16800   6.17755   6.21273   6.22744   6.25002
 Alpha virt. eigenvalues --    6.45554   6.46320   6.52058   6.55587   6.58998
 Alpha virt. eigenvalues --    6.60470   6.60550   6.62100   6.63030   6.66313
 Alpha virt. eigenvalues --    6.77476   6.79917   6.81914   6.87984   6.88565
 Alpha virt. eigenvalues --    6.90223   6.91276   6.93105   6.94139   7.06255
 Alpha virt. eigenvalues --    7.17247   7.19643   7.23072   7.27167   7.28836
 Alpha virt. eigenvalues --    7.67244   7.99614   8.09822   8.11548   8.12412
 Alpha virt. eigenvalues --    8.16910   8.19667   8.25365   8.35595   8.66950
 Alpha virt. eigenvalues --    8.73271   8.75221   8.77471   8.80588   8.80922
 Alpha virt. eigenvalues --    8.82890   8.83731   8.84539   8.89478   8.90373
 Alpha virt. eigenvalues --    8.93675   8.94449   8.95452   9.01268   9.07658
 Alpha virt. eigenvalues --    9.11511   9.12718   9.15032   9.21019   9.30795
 Alpha virt. eigenvalues --    9.35379   9.39879   9.40703   9.45479   9.47954
 Alpha virt. eigenvalues --    9.57950   9.62495   9.77465   9.82159  10.01897
 Alpha virt. eigenvalues --   10.07177  10.09481  10.11900  10.13964  10.17502
[...]
 Alpha virt. eigenvalues --    6.61163   6.61685   6.62023   6.64580   6.68005
 Alpha virt. eigenvalues --    6.77967   6.80343   6.85661   6.87501   6.88254
 Alpha virt. eigenvalues --    6.91990   6.93098   7.08077   7.10200   7.10439
 Alpha virt. eigenvalues --    7.15964   7.18021   7.28694   7.43137   8.67680
 Alpha virt. eigenvalues --    9.44490  10.01335  11.94210  12.13640  12.24471
 Alpha virt. eigenvalues --   12.31850  12.56536  12.72657  12.90027  13.10838
 Alpha virt. eigenvalues --   13.50875  13.52095  13.57979  13.76896  14.03313
 Alpha virt. eigenvalues --   15.56129
          Condensed to atoms (all electrons):
               1          2          3          4          5          6
     1  C    5.412199   0.236858   0.004003  -0.045399  -0.025208   0.306475
     2  C    0.236858   5.335783   0.325831  -0.035387  -0.033575   0.025139
     3  C    0.004003   0.325831   5.594353   0.157411  -0.042095  -0.079630
     4  C   -0.045399  -0.035387   0.157411   5.454756   0.403555  -0.020375
     5  C   -0.025208  -0.033575  -0.042095   0.403555   5.106154   0.372702
     6  C    0.306475   0.025139  -0.079630  -0.020375   0.372702   4.890112
     7  H    0.452903  -0.037386   0.009029  -0.001136   0.004434  -0.072416
     8  H   -0.031008   0.436470  -0.070058   0.009275  -0.001789   0.006947
     9  H   -0.003572   0.006462  -0.117488   0.459330  -0.026572   0.013405
    10  H    0.013453  -0.005711   0.015377  -0.055615   0.453284  -0.080751
    11  C    0.006261  -0.054838   0.173975  -0.036156   0.007785  -0.001468
    12  H    0.000012  -0.009245  -0.061515   0.010978  -0.000380   0.000061
    13  H   -0.000375   0.003859  -0.047272  -0.007616   0.000424   0.000033
    14  C    0.000407  -0.004236   0.041152  -0.018359  -0.000810  -0.000063
    15  H   -0.000148  -0.002654   0.003073   0.002632   0.000022  -0.000002
    16  C   -0.000001   0.001245  -0.001812  -0.001135   0.000076  -0.000002
    17  O   -0.090242   0.013064  -0.000531   0.002787  -0.048948   0.392508
    18  H   -0.005064   0.004508  -0.000366  -0.000828   0.002630  -0.043373
    19  O   -0.000004  -0.000318  -0.006688   0.002369   0.000152   0.000004
    20  N    0.000337   0.009081  -0.032616  -0.008756   0.000515  -0.000193
    21  H   -0.000905   0.000311   0.008116   0.004053   0.002037  -0.000357
    22  N    0.000000  -0.000050  -0.000122   0.000098   0.000000   0.000000
    23  H    0.000000   0.000018  -0.000084  -0.000017   0.000000   0.000000
    24  C    0.000114  -0.000481  -0.002430   0.000493  -0.000113   0.000019
    25  C    0.000091   0.000489   0.000284  -0.000366  -0.000116  -0.000034
    26  H    0.000011  -0.000030   0.000029   0.000024  -0.000015  -0.000003
    27  H    0.000001   0.000018   0.000018  -0.000039  -0.000001   0.000000
    28  H    0.000052  -0.000134  -0.000006   0.000088   0.000495   0.000061
    29  C    0.000000   0.000003   0.000042  -0.000016   0.000000   0.000000
    30  H    0.000000   0.000000  -0.000013   0.000003   0.000000   0.000000
    31  H    0.000000   0.000000   0.000000   0.000000   0.000000   0.000000
    32  H    0.000000   0.000000   0.000009  -0.000003   0.000000   0.000000
    33  O    0.000001  -0.000088  -0.000064   0.000032   0.000000   0.000000
               7          8          9         10         11         12
     1  C    0.452903  -0.031008  -0.003572   0.013453   0.006261   0.000012
     2  C   -0.037386   0.436470   0.006462  -0.005711  -0.054838  -0.009245
     3  C    0.009029  -0.070058  -0.117488   0.015377   0.173975  -0.061515
     4  C   -0.001136   0.009275   0.459330  -0.055615  -0.036156   0.010978
     5  C    0.004434  -0.001789  -0.026572   0.453284   0.007785  -0.000380
     6  C   -0.072416   0.006947   0.013405  -0.080751  -0.001468   0.000061
     7  H    0.533742  -0.007081   0.000033  -0.000215  -0.000262  -0.000049
     8  H   -0.007081   0.504376  -0.000111   0.000039   0.001602   0.001878
     9  H    0.000033  -0.000111   0.474753  -0.009347   0.003939   0.000630
    10  H   -0.000215   0.000039  -0.009347   0.533582  -0.000156   0.000012
    11  C   -0.000262   0.001602   0.003939  -0.000156   5.409194   0.454954
    12  H   -0.000049   0.001878   0.000630   0.000012   0.454954   0.488351
    13  H    0.000013   0.000153  -0.000489  -0.000039   0.438785  -0.005218
    14  C    0.000020  -0.001731  -0.003937   0.000023   0.107822  -0.058945
    15  H   -0.000001   0.000353   0.000440  -0.000002  -0.000986  -0.004314
    16  C    0.000000  -0.000007   0.000811  -0.000005  -0.059872   0.003018
    17  O   -0.004145  -0.000105  -0.000131   0.006174   0.000002  -0.000001
    18  H    0.004653  -0.000006   0.000039  -0.000918  -0.000006   0.000000
    19  O    0.000000   0.000007   0.007401  -0.000006   0.005848   0.001186
    20  N    0.000004   0.000073   0.000817   0.000029  -0.025511   0.005346
    21  H    0.000004   0.000014  -0.000054  -0.000051  -0.003911  -0.000099
    22  N    0.000000   0.000001   0.000115   0.000000   0.004117   0.000519
    23  H    0.000000  -0.000001  -0.000013   0.000000  -0.000067  -0.000065
    24  C    0.000000   0.000076   0.000013   0.000001   0.009152   0.000012
    25  C    0.000002   0.000013  -0.000002   0.000004  -0.000426   0.000015
    26  H    0.000000  -0.000003   0.000007  -0.000001   0.000121  -0.000003
    27  H    0.000000   0.000000  -0.000012   0.000000  -0.000045   0.000000
    28  H    0.000001  -0.000002  -0.000026   0.000018  -0.000215   0.000004
    29  C    0.000000   0.000000  -0.000025   0.000000  -0.000935  -0.000001
    30  H    0.000000   0.000000   0.000024   0.000000  -0.000018   0.000006
    31  H    0.000000   0.000000  -0.000001   0.000000  -0.000005  -0.000002
    32  H    0.000000   0.000000  -0.000010   0.000000  -0.000005  -0.000016
    33  O    0.000000   0.000007   0.000005   0.000000   0.001436  -0.000071
              13         14         15         16         17         18
     1  C   -0.000375   0.000407  -0.000148  -0.000001  -0.090242  -0.005064
     2  C    0.003859  -0.004236  -0.002654   0.001245   0.013064   0.004508
     3  C   -0.047272   0.041152   0.003073  -0.001812  -0.000531  -0.000366
     4  C   -0.007616  -0.018359   0.002632  -0.001135   0.002787  -0.000828
     5  C    0.000424  -0.000810   0.000022   0.000076  -0.048948   0.002630
     6  C    0.000033  -0.000063  -0.000002  -0.000002   0.392508  -0.043373
     7  H    0.000013   0.000020  -0.000001   0.000000  -0.004145   0.004653
     8  H    0.000153  -0.001731   0.000353  -0.000007  -0.000105  -0.000006
     9  H   -0.000489  -0.003937   0.000440   0.000811  -0.000131   0.000039
    10  H   -0.000039   0.000023  -0.000002  -0.000005   0.006174  -0.000918
    11  C    0.438785   0.107822  -0.000986  -0.059872   0.000002  -0.000006
    12  H   -0.005218  -0.058945  -0.004314   0.003018  -0.000001   0.000000
    13  H    0.422696  -0.070785   0.001364   0.003845   0.000000   0.000000
    14  C   -0.070785   5.569926   0.391091   0.198896   0.000000   0.000000
    15  H    0.001364   0.391091   0.477734  -0.044508   0.000000   0.000000
    16  C    0.003845   0.198896  -0.044508   4.560521   0.000000   0.000000
    17  O    0.000000   0.000000   0.000000   0.000000   7.662776   0.359443
    18  H    0.000000   0.000000   0.000000   0.000000   0.359443   0.490281
    19  O    0.024722  -0.103783   0.002501   0.720203   0.000000   0.000000
    20  N    0.002510   0.165251  -0.045605  -0.007484   0.000000   0.000000
    21  H    0.000278  -0.020304   0.004703  -0.002434   0.000004   0.000000
    22  N    0.001574  -0.074924   0.003715   0.437234   0.000000   0.000000
    23  H   -0.000283   0.003345  -0.000637  -0.022744   0.000000   0.000000
    24  C    0.000111  -0.049802  -0.012618  -0.003876   0.000000   0.000000
    25  C    0.000041   0.010967   0.001215  -0.001766   0.000000   0.000000
    26  H    0.000000  -0.000523   0.000189  -0.000002   0.000000   0.000000
    27  H   -0.000001  -0.000430  -0.000315   0.000241   0.000000   0.000000
    28  H    0.000005   0.000386  -0.000302   0.000213  -0.000005   0.000000
    29  C   -0.000138   0.012684  -0.000828  -0.059959   0.000000   0.000000
    30  H   -0.000125  -0.000008   0.000209  -0.004692   0.000000   0.000000
    31  H   -0.000003   0.000673  -0.000201   0.006918   0.000000   0.000000
    32  H    0.000138   0.000119  -0.000358  -0.006389   0.000000   0.000000
    33  O   -0.000021   0.018014   0.021389  -0.018361   0.000000   0.000000
              19         20         21         22         23         24
     1  C   -0.000004   0.000337  -0.000905   0.000000   0.000000   0.000114
     2  C   -0.000318   0.009081   0.000311  -0.000050   0.000018  -0.000481
     3  C   -0.006688  -0.032616   0.008116  -0.000122  -0.000084  -0.002430
     4  C    0.002369  -0.008756   0.004053   0.000098  -0.000017   0.000493
     5  C    0.000152   0.000515   0.002037   0.000000   0.000000  -0.000113
     6  C    0.000004  -0.000193  -0.000357   0.000000   0.000000   0.000019
     7  H    0.000000   0.000004   0.000004   0.000000   0.000000   0.000000
     8  H    0.000007   0.000073   0.000014   0.000001  -0.000001   0.000076
     9  H    0.007401   0.000817  -0.000054   0.000115  -0.000013   0.000013
    10  H   -0.000006   0.000029  -0.000051   0.000000   0.000000   0.000001
    11  C    0.005848  -0.025511  -0.003911   0.004117  -0.000067   0.009152
    12  H    0.001186   0.005346  -0.000099   0.000519  -0.000065   0.000012
    13  H    0.024722   0.002510   0.000278   0.001574  -0.000283   0.000111
    14  C   -0.103783   0.165251  -0.020304  -0.074924   0.003345  -0.049802
    15  H    0.002501  -0.045605   0.004703   0.003715  -0.000637  -0.012618
    16  C    0.720203  -0.007484  -0.002434   0.437234  -0.022744  -0.003876
    17  O    0.000000   0.000000   0.000004   0.000000   0.000000   0.000000
    18  H    0.000000   0.000000   0.000000   0.000000   0.000000   0.000000
    19  O    7.843412   0.001944   0.000813  -0.126220   0.004030  -0.000753
    20  N    0.001944   6.604194   0.376846  -0.007106  -0.005010   0.349457
    21  H    0.000813   0.376846   0.457541  -0.000105  -0.000225  -0.018968
    22  N   -0.126220  -0.007106  -0.000105   6.399563   0.378654   0.010716
    23  H    0.004030  -0.005010  -0.000225   0.378654   0.468519  -0.004158
    24  C   -0.000753   0.349457  -0.018968   0.010716  -0.004158   4.548520
    25  C   -0.000011  -0.054797  -0.003604   0.000136   0.001198   0.288357
    26  H    0.000001  -0.001720   0.000455   0.000000  -0.000037  -0.024263
    27  H   -0.000002   0.000506  -0.000099   0.000110   0.000000  -0.029459
    28  H   -0.000009   0.010944  -0.000792   0.000045  -0.000163  -0.056625
    29  C    0.008693  -0.000867   0.000001   0.290670  -0.028554   0.000053
    30  H    0.004541   0.000444   0.000016  -0.050898   0.003315  -0.000585
    31  H    0.001461  -0.000039  -0.000002  -0.026293  -0.007575   0.000007
    32  H    0.005103  -0.000111  -0.000006  -0.043232   0.001915   0.000160
    33  O    0.000047  -0.139024   0.003485  -0.013140   0.033192   0.681595
              25         26         27         28         29         30
     1  C    0.000091   0.000011   0.000001   0.000052   0.000000   0.000000
     2  C    0.000489  -0.000030   0.000018  -0.000134   0.000003   0.000000
     3  C    0.000284   0.000029   0.000018  -0.000006   0.000042  -0.000013
     4  C   -0.000366   0.000024  -0.000039   0.000088  -0.000016   0.000003
     5  C   -0.000116  -0.000015  -0.000001   0.000495   0.000000   0.000000
     6  C   -0.000034  -0.000003   0.000000   0.000061   0.000000   0.000000
     7  H    0.000002   0.000000   0.000000   0.000001   0.000000   0.000000
     8  H    0.000013  -0.000003   0.000000  -0.000002   0.000000   0.000000
     9  H   -0.000002   0.000007  -0.000012  -0.000026  -0.000025   0.000024
    10  H    0.000004  -0.000001   0.000000   0.000018   0.000000   0.000000
    11  C   -0.000426   0.000121  -0.000045  -0.000215  -0.000935  -0.000018
    12  H    0.000015  -0.000003   0.000000   0.000004  -0.000001   0.000006
    13  H    0.000041   0.000000  -0.000001   0.000005  -0.000138  -0.000125
    14  C    0.010967  -0.000523  -0.000430   0.000386   0.012684  -0.000008
    15  H    0.001215   0.000189  -0.000315  -0.000302  -0.000828   0.000209
    16  C   -0.001766  -0.000002   0.000241   0.000213  -0.059959  -0.004692
    17  O    0.000000   0.000000   0.000000  -0.000005   0.000000   0.000000
    18  H    0.000000   0.000000   0.000000   0.000000   0.000000   0.000000
    19  O   -0.000011   0.000001  -0.000002  -0.000009   0.008693   0.004541
    20  N   -0.054797  -0.001720   0.000506   0.010944  -0.000867   0.000444
    21  H   -0.003604   0.000455  -0.000099  -0.000792   0.000001   0.000016
    22  N    0.000136   0.000000   0.000110   0.000045   0.290670  -0.050898
    23  H    0.001198  -0.000037   0.000000  -0.000163  -0.028554   0.003315
    24  C    0.288357  -0.024263  -0.029459  -0.056625   0.000053  -0.000585
    25  C    4.951949   0.386446   0.388497   0.403116  -0.000063  -0.000008
    26  H    0.386446   0.573150  -0.027097  -0.024928  -0.000002   0.000000
    27  H    0.388497  -0.027097   0.576312  -0.025364   0.000018  -0.000016
    28  H    0.403116  -0.024928  -0.025364   0.587373   0.000001  -0.000003
    29  C   -0.000063  -0.000002   0.000018   0.000001   4.760394   0.398845
    30  H   -0.000008   0.000000  -0.000016  -0.000003   0.398845   0.629994
    31  H   -0.000009   0.000000   0.000006   0.000000   0.396228  -0.028364
    32  H    0.000001   0.000000   0.000001   0.000000   0.399535  -0.058089
    33  O   -0.061912   0.001551   0.002222   0.003836   0.000214   0.000016
              31         32         33
     1  C    0.000000   0.000000   0.000001
     2  C    0.000000   0.000000  -0.000088
     3  C    0.000000   0.000009  -0.000064
     4  C    0.000000  -0.000003   0.000032
     5  C    0.000000   0.000000   0.000000
     6  C    0.000000   0.000000   0.000000
     7  H    0.000000   0.000000   0.000000
     8  H    0.000000   0.000000   0.000007
     9  H   -0.000001  -0.000010   0.000005
    10  H    0.000000   0.000000   0.000000
    11  C   -0.000005  -0.000005   0.001436
    12  H   -0.000002  -0.000016  -0.000071
    13  H   -0.000003   0.000138  -0.000021
    14  C    0.000673   0.000119   0.018014
    15  H   -0.000201  -0.000358   0.021389
    16  C    0.006918  -0.006389  -0.018361
    17  O    0.000000   0.000000   0.000000
    18  H    0.000000   0.000000   0.000000
    19  O    0.001461   0.005103   0.000047
    20  N   -0.000039  -0.000111  -0.139024
    21  H   -0.000002  -0.000006   0.003485
    22  N   -0.026293  -0.043232  -0.013140
    23  H   -0.007575   0.001915   0.033192
    24  C    0.000007   0.000160   0.681595
    25  C   -0.000009   0.000001  -0.061912
    26  H    0.000000   0.000000   0.001551
    27  H    0.000006   0.000001   0.002222
    28  H    0.000000   0.000000   0.003836
    29  C    0.396228   0.399535   0.000214
    30  H   -0.028364  -0.058089   0.000016
    31  H    0.592500  -0.026528   0.000096
    32  H   -0.026528   0.613998  -0.000042
    33  O    0.000096  -0.000042   7.896537
 Mulliken charges:
               1
     1  C   -0.231252
     2  C   -0.215006
     3  C    0.130089
     4  C   -0.276681
     5  C   -0.174640
     6  C    0.291200
     7  H    0.117852
     8  H    0.150619
     9  H    0.193564
    10  H    0.130821
    11  C   -0.440112
    12  H    0.172941
    13  H    0.231813
    14  C   -0.112135
    15  H    0.202849
    16  C    0.301831
    17  O   -0.292651
    18  H    0.189009
    19  O   -0.396642
    20  N   -0.199459
    21  H    0.193236
    22  N   -0.185178
    23  H    0.175446
    24  C    0.315277
    25  C   -0.309707
    26  H    0.116643
    27  H    0.114929
    28  H    0.101941
    29  C   -0.175992
    30  H    0.105405
    31  H    0.091134
    32  H    0.113810
    33  O   -0.430952
 Sum of Mulliken charges =   0.00000
 Mulliken charges with hydrogens summed into heavy atoms:
               1
     1  C   -0.113400
     2  C   -0.064387
     3  C    0.130089
     4  C   -0.083117
     5  C   -0.043820
     6  C    0.291200
    11  C   -0.035358
    14  C    0.090714
    16  C    0.301831
    17  O   -0.103642
    19  O   -0.396642
    20  N   -0.006223
    22  N   -0.009732
    24  C    0.315277
    25  C    0.023806
    29  C    0.134357
    33  O   -0.430952
 Electronic spatial extent (au):  <R**2>=           5013.8670
 Charge=              0.0000 electrons
 Dipole moment (field-independent basis, Debye):
    X=             -2.1422    Y=              2.2287    Z=              0.7678  Tot=              3.1852
 Quadrupole moment (field-independent basis, Debye-Ang):
   XX=            -89.4061   YY=           -107.9961   ZZ=            -97.5256
   XY=             -5.1288   XZ=             -7.4400   YZ=             -6.0408
 Traceless Quadrupole moment (field-independent basis, Debye-Ang):
   XX=              8.9032   YY=             -9.6868   ZZ=              0.7836
   XY=             -5.1288   XZ=             -7.4400   YZ=             -6.0408
 Octapole moment (field-independent basis, Debye-Ang**2):
  XXX=              4.2587  YYY=             27.7521  ZZZ=             -1.1307  XYY=            -22.7292
  XXY=             21.5078  XXZ=             29.9931  XZZ=             -2.6146  YZZ=              0.0444
  YYZ=             -7.6224  XYZ=            -24.0395
 Hexadecapole moment (field-independent basis, Debye-Ang**3):
 XXXX=          -4012.0504 YYYY=          -1281.4525 ZZZZ=           -502.9476 XXXY=           -213.4693
 XXXZ=           -230.3139 YYYX=            -20.4925 YYYZ=            -38.2405 ZZZX=              9.7189
 ZZZY=              9.7101 XXYY=          -1060.6391 XXZZ=           -883.7175 YYZZ=           -308.0635
 XXYZ=              9.5969 YYXZ=             -5.6959 ZZXY=             -0.1090
 N-N= 1.212494610090D+03 E-N=-4.295269033301D+03  KE= 7.961961614804D+02
 Calculating spin-rotation constants.
 Leave Link  601 at Wed Jun 25 08:05:47 2014, MaxMem=  4294967296 cpu:        92.3
 (Enter /home/ztw1e12/g09/l9999.exe)

 Test job not archived.
 1\1\GINC-GREEN0365\SP\RM06\Gen\C12H16N2O3\ROOT\25-Jun-2014\0\\#P Geom=
 AllCheck Guess=TCheck SCRF=Check GenChk RM06/ChkBas NMR=ReadFC IOp(3/6
 =22)\\NMR spin-spin scan\\0,1\C,0,3.478237,-0.193098,-0.857586\C,0,2.2
 26885,-0.688357,-1.180604\C,0,1.314309,-1.039815,-0.194677\C,0,1.69217
 3,-0.876096,1.135007\C,0,2.93635,-0.379443,1.475635\C,0,3.833039,-0.03
 7382,0.473876\H,0,4.188217,0.073306,-1.632378\H,0,1.954767,-0.809456,-
 2.223097\H,0,0.988563,-1.143833,1.917676\H,0,3.227502,-0.256344,2.5110
 09\C,0,-0.048711,-1.559053,-0.5341\H,0,-0.019812,-2.042721,-1.510592\H
 ,0,-0.320841,-2.325167,0.192809\C,0,-1.183569,-0.51805,-0.560832\H,0,-
 1.513831,-0.367148,-1.589113\C,0,-2.394503,-0.976283,0.257063\O,0,5.05
 1157,0.443614,0.849272\H,0,5.573378,0.636529,0.062399\O,0,-2.305892,-1
 .775999,1.18482\N,0,-0.78233,0.792234,-0.07179\H,0,-0.021262,0.84587,0
 .589452\N,0,-3.548198,-0.402187,-0.095234\H,0,-3.51276,0.330935,-0.791
 41\C,0,-1.300682,1.937245,-0.549368\C,0,-0.704816,3.199993,-0.022012\H
 ,0,-0.246906,3.739448,-0.851467\H,0,-1.501246,3.828273,0.375015\H,0,0.
 043254,3.033168,0.750056\C,0,-4.763146,-0.628541,0.653254\H,0,-4.65588
 2,-0.314423,1.692673\H,0,-5.569158,-0.060833,0.19848\H,0,-5.033087,-1.
 684358,0.644365\O,0,-2.210355,1.955502,-1.379727\\Version=EM64L-G09Rev
 D.01\State=1-A\HF=-801.8659187\RMSD=4.306e-09\Dipole=0.866277,0.759642
 5,-0.4928561\Quadrupole=7.0788612,-4.4086455,-2.6702158,1.9288525,-5.9
 72481,5.9657201\PG=C01 [X(C12H16N2O3)]\\@


 FRICTION IS A DRAG,
 AND ENTROPY AIN'T WHAT IT USED TO BE.
 Job cpu time:       3 days  7 hours 38 minutes 21.8 seconds.
 File lengths (MBytes):  RWF=   3656 Int=      0 D2E=      0 Chk=     64 Scr=      8
 Normal termination of Gaussian 09 at Wed Jun 25 08:05:48 2014.
