 Entering Gaussian System, Link 0=g09
 Input=scan_input_29.gjf
 Output=scan_input_29.log
 Initial command:
 /home/ztw1e12/g09/l1.exe "/home/ztw1e12/tyrosine_scan/tyrosine_chi1_scan/Gau-11678.inp" -scrdir="/home/ztw1e12/tyrosine_scan/tyrosine_chi1_scan/"
 Default is to use a total of   8 processors:
                                8 via shared-memory
                                1 via Linda
 Entering Link 1 = /home/ztw1e12/g09/l1.exe PID=     11679.
  
 Copyright (c) 1988,1990,1992,1993,1995,1998,2003,2009,2013,
            Gaussian, Inc.  All Rights Reserved.
  
 This is part of the Gaussian(R) 09 program.  It is based on
 the Gaussian(R) 03 system (copyright 2003, Gaussian, Inc.),
 the Gaussian(R) 98 system (copyright 1998, Gaussian, Inc.),
 the Gaussian(R) 94 system (copyright 1995, Gaussian, Inc.),
 the Gaussian 92(TM) system (copyright 1992, Gaussian, Inc.),
 the Gaussian 90(TM) system (copyright 1990, Gaussian, Inc.),
 the Gaussian 88(TM) system (copyright 1988, Gaussian, Inc.),
 the Gaussian 86(TM) system (copyright 1986, Carnegie Mellon
 University), and the Gaussian 82(TM) system (copyright 1983,
 Carnegie Mellon University). Gaussian is a federally registered
 trademark of Gaussian, Inc.
  
 This software contains proprietary and confidential information,
 including trade secrets, belonging to Gaussian, Inc.
  
 This software is provided under written license and may be
 used, copied, transmitted, or stored only in accord with that
 written license.
  
 The following legend is applicable only to US Government
 contracts under FAR:
  
                    RESTRICTED RIGHTS LEGEND
  
 Use, reproduction and disclosure by the US Government is
 subject to restrictions as set forth in subparagraphs (a)
 and (c) of the Commercial Computer Software - Restricted
 Rights clause in FAR 52.227-19.
  
 Gaussian, Inc.
 340 Quinnipiac St., Bldg. 40, Wallingford CT 06492
  
  
 ---------------------------------------------------------------
 Warning -- This program may not be used in any manner that
 competes with the business of Gaussian, Inc. or will provide
 assistance to any competitor of Gaussian, Inc.  The licensee
 of this program is prohibited from giving any competitor of
 Gaussian, Inc. access to this program.  By using this program,
 the user acknowledges that Gaussian, Inc. is engaged in the
 business of creating and licensing software in the field of
 computational chemistry and represents and warrants to the
 licensee that it is not a competitor of Gaussian, Inc. and that
 it will not use this program in any manner prohibited above.
 ---------------------------------------------------------------
  

 Cite this work as:
 Gaussian 09, Revision D.01,
 M. J. Frisch, G. W. Trucks, H. B. Schlegel, G. E. Scuseria, 
 M. A. Robb, J. R. Cheeseman, G. Scalmani, V. Barone, B. Mennucci, 
 G. A. Petersson, H. Nakatsuji, M. Caricato, X. Li, H. P. Hratchian, 
 A. F. Izmaylov, J. Bloino, G. Zheng, J. L. Sonnenberg, M. Hada, 
 M. Ehara, K. Toyota, R. Fukuda, J. Hasegawa, M. Ishida, T. Nakajima, 
 Y. Honda, O. Kitao, H. Nakai, T. Vreven, J. A. Montgomery, Jr., 
 J. E. Peralta, F. Ogliaro, M. Bearpark, J. J. Heyd, E. Brothers, 
 K. N. Kudin, V. N. Staroverov, T. Keith, R. Kobayashi, J. Normand, 
 K. Raghavachari, A. Rendell, J. C. Burant, S. S. Iyengar, J. Tomasi, 
 M. Cossi, N. Rega, J. M. Millam, M. Klene, J. E. Knox, J. B. Cross, 
 V. Bakken, C. Adamo, J. Jaramillo, R. Gomperts, R. E. Stratmann, 
 O. Yazyev, A. J. Austin, R. Cammi, C. Pomelli, J. W. Ochterski, 
 R. L. Martin, K. Morokuma, V. G. Zakrzewski, G. A. Voth, 
 P. Salvador, J. J. Dannenberg, S. Dapprich, A. D. Daniels, 
 O. Farkas, J. B. Foresman, J. V. Ortiz, J. Cioslowski, 
 and D. J. Fox, Gaussian, Inc., Wallingford CT, 2013.
 
 ******************************************
 Gaussian 09:  EM64L-G09RevD.01 24-Apr-2013
                24-Jun-2014 
 ******************************************
 %Mem=32GB
 %NProcShared=16
 Will use up to   16 processors via shared memory.
 Default route:  MaxDisk=100GB
 ----------------------------------------------------------------------
 #p nmr=(giao,mixed,spinspin) m06/cc-pvtz scf=tight integral=(grid=ultr
 afine)
 ----------------------------------------------------------------------
 1/38=1/1;
 2/12=2,17=6,18=5,40=1/2;
 3/5=16,6=1,10=1100000,11=2,16=1,25=1,30=1,74=-54,75=-5/1,2,8,3;
 4//1;
 5/5=2,32=2,38=5/2;
 8/6=1,10=90,11=11/1;
 10/13=100,45=16,47=3/2;
 6/7=2,8=2,9=2,10=2,28=1/1;
 99/9=1/99;
 Leave Link    1 at Tue Jun 24 17:06:41 2014, MaxMem=  4294967296 cpu:         7.0
 (Enter /home/ztw1e12/g09/l101.exe)
 ------------------
 NMR spin-spin scan
 ------------------
 Symbolic Z-matrix:
 Charge =  0 Multiplicity = 1
 C                     2.73337  -2.1728    1.75837 
 C                     2.1413   -0.94773   1.49822 
 C                     1.56793  -0.67164   0.26544 
 C                     1.59922  -1.66374  -0.70996 
 C                     2.18203  -2.89176  -0.46573 
 C                     2.75157  -3.14775   0.77445 
 H                     3.18035  -2.37941   2.72416 
 H                     2.12189  -0.18981   2.27346 
 H                     1.15749  -1.46882  -1.68161 
 H                     2.20752  -3.66134  -1.22685 
 C                     0.89669   0.64123   0.00079 
 H                     1.19488   1.36342   0.76225 
 H                     1.24017   1.0419   -0.95638 
 C                    -0.64383   0.54155  -0.04487 
 H                    -0.93772  -0.49543   0.14208 
 C                    -1.22657   1.31262   1.12418 
 O                     3.31505  -4.37327   0.97131 
 H                     3.66306  -4.42553   1.86874 
 O                    -0.99998   0.9118    2.26639 
 N                    -1.15972   0.91391  -1.34347 
 H                    -0.56616   1.43237  -1.97307 
 N                    -1.9292    2.41374   0.86796 
 H                    -2.11446   2.66194  -0.09015 
 C                    -2.38555   0.53972  -1.76343 
 C                    -2.76889   0.95848  -3.1438 
 H                    -3.03901   0.07123  -3.7159 
 H                    -3.65535   1.58981  -3.08344 
 H                    -1.98015   1.49693  -3.66429 
 C                    -2.51576   3.20264   1.92783 
 H                    -1.74684   3.6024    2.58901 
 H                    -3.0618    4.03133   1.48796 
 H                    -3.20436   2.60545   2.52614 
 O                    -3.14634  -0.10591  -1.04692 
 
 NAtoms=     33 NQM=       33 NQMF=       0 NMMI=      0 NMMIF=      0
                NMic=       0 NMicF=      0.
                    Isotopes and Nuclear Properties:
 (Nuclear quadrupole moments (NQMom) in fm**2, nuclear magnetic moments (NMagM)
  in nuclear magnetons)

  Atom         1           2           3           4           5           6           7           8           9          10
 IAtWgt=          12          12          12          12          12          12           1           1           1           1
 AtmWgt=  12.0000000  12.0000000  12.0000000  12.0000000  12.0000000  12.0000000   1.0078250   1.0078250   1.0078250   1.0078250
 NucSpn=           0           0           0           0           0           0           1           1           1           1
 AtZEff=   0.0000000   0.0000000   0.0000000   0.0000000   0.0000000   0.0000000   0.0000000   0.0000000   0.0000000   0.0000000
 NQMom=    0.0000000   0.0000000   0.0000000   0.0000000   0.0000000   0.0000000   0.0000000   0.0000000   0.0000000   0.0000000
 NMagM=    0.0000000   0.0000000   0.0000000   0.0000000   0.0000000   0.0000000   2.7928460   2.7928460   2.7928460   2.7928460
 AtZNuc=   6.0000000   6.0000000   6.0000000   6.0000000   6.0000000   6.0000000   1.0000000   1.0000000   1.0000000   1.0000000

  Atom        11          12          13          14          15          16          17          18          19          20
 IAtWgt=          12           1           1          12           1          12          16           1          16          14
 AtmWgt=  12.0000000   1.0078250   1.0078250  12.0000000   1.0078250  12.0000000  15.9949146   1.0078250  15.9949146  14.0030740
 NucSpn=           0           1           1           0           1           0           0           1           0           2
 AtZEff=   0.0000000   0.0000000   0.0000000   0.0000000   0.0000000   0.0000000   0.0000000   0.0000000   0.0000000   0.0000000
 NQMom=    0.0000000   0.0000000   0.0000000   0.0000000   0.0000000   0.0000000   0.0000000   0.0000000   0.0000000   2.0440000
 NMagM=    0.0000000   2.7928460   2.7928460   0.0000000   2.7928460   0.0000000   0.0000000   2.7928460   0.0000000   0.4037610
 AtZNuc=   6.0000000   1.0000000   1.0000000   6.0000000   1.0000000   6.0000000   8.0000000   1.0000000   8.0000000   7.0000000

  Atom        21          22          23          24          25          26          27          28          29          30
 IAtWgt=           1          14           1          12          12           1           1           1          12           1
 AtmWgt=   1.0078250  14.0030740   1.0078250  12.0000000  12.0000000   1.0078250   1.0078250   1.0078250  12.0000000   1.0078250
 NucSpn=           1           2           1           0           0           1           1           1           0           1
 AtZEff=   0.0000000   0.0000000   0.0000000   0.0000000   0.0000000   0.0000000   0.0000000   0.0000000   0.0000000   0.0000000
 NQMom=    0.0000000   2.0440000   0.0000000   0.0000000   0.0000000   0.0000000   0.0000000   0.0000000   0.0000000   0.0000000
 NMagM=    2.7928460   0.4037610   2.7928460   0.0000000   0.0000000   2.7928460   2.7928460   2.7928460   0.0000000   2.7928460
 AtZNuc=   1.0000000   7.0000000   1.0000000   6.0000000   6.0000000   1.0000000   1.0000000   1.0000000   6.0000000   1.0000000

  Atom        31          32          33
 IAtWgt=           1           1          16
 AtmWgt=   1.0078250   1.0078250  15.9949146
 NucSpn=           1           1           0
 AtZEff=   0.0000000   0.0000000   0.0000000
 NQMom=    0.0000000   0.0000000   0.0000000
 NMagM=    2.7928460   2.7928460   0.0000000
 AtZNuc=   1.0000000   1.0000000   8.0000000
 Leave Link  101 at Tue Jun 24 17:06:41 2014, MaxMem=  4294967296 cpu:         1.8
 (Enter /home/ztw1e12/g09/l202.exe)
                          Input orientation:                          
 ---------------------------------------------------------------------
 Center     Atomic      Atomic             Coordinates (Angstroms)
 Number     Number       Type             X           Y           Z
 ---------------------------------------------------------------------
      1          6           0        2.733372   -2.172798    1.758372
      2          6           0        2.141302   -0.947729    1.498215
      3          6           0        1.567932   -0.671643    0.265444
      4          6           0        1.599216   -1.663737   -0.709956
      5          6           0        2.182032   -2.891755   -0.465730
      6          6           0        2.751574   -3.147754    0.774449
      7          1           0        3.180346   -2.379407    2.724155
      8          1           0        2.121893   -0.189811    2.273460
      9          1           0        1.157494   -1.468817   -1.681611
     10          1           0        2.207521   -3.661342   -1.226845
     11          6           0        0.896688    0.641229    0.000785
     12          1           0        1.194879    1.363423    0.762249
     13          1           0        1.240168    1.041899   -0.956384
     14          6           0       -0.643830    0.541553   -0.044871
     15          1           0       -0.937721   -0.495427    0.142084
     16          6           0       -1.226573    1.312615    1.124178
     17          8           0        3.315052   -4.373270    0.971309
     18          1           0        3.663062   -4.425532    1.868741
     19          8           0       -0.999980    0.911799    2.266393
     20          7           0       -1.159723    0.913908   -1.343473
     21          1           0       -0.566163    1.432367   -1.973072
     22          7           0       -1.929197    2.413736    0.867956
     23          1           0       -2.114459    2.661939   -0.090147
     24          6           0       -2.385546    0.539717   -1.763428
     25          6           0       -2.768889    0.958479   -3.143798
     26          1           0       -3.039010    0.071230   -3.715904
     27          1           0       -3.655347    1.589813   -3.083436
     28          1           0       -1.980149    1.496934   -3.664287
     29          6           0       -2.515764    3.202641    1.927829
     30          1           0       -1.746843    3.602395    2.589007
     31          1           0       -3.061795    4.031333    1.487958
     32          1           0       -3.204355    2.605454    2.526144
     33          8           0       -3.146342   -0.105908   -1.046915
 ---------------------------------------------------------------------
                    Distance matrix (angstroms):
                    1          2          3          4          5
     1  C    0.000000
     2  C    1.385288   0.000000
     3  C    2.416723   1.387336   0.000000
     4  C    2.763711   2.383809   1.391630   0.000000
     5  C    2.401563   2.763689   2.416740   1.381068   0.000000
     6  C    1.385271   2.395074   2.791276   2.394513   1.388509
     7  H    1.084071   2.152265   3.400235   3.847762   3.381493
     8  H    2.138097   1.084353   2.138028   3.368445   3.848023
     9  H    3.848696   3.369081   2.143588   1.085000   2.133728
    10  H    3.376952   3.846301   3.402102   2.151194   1.082686
    11  C    3.792264   2.513195   1.498081   2.512283   3.788367
    12  H    3.982974   2.603610   2.127787   3.390365   4.537504
    13  H    4.464732   3.285684   2.129911   2.740458   4.074492
    14  C    4.693067   3.515115   2.541659   3.215105   4.466567
    15  H    4.347745   3.394709   2.514869   2.920098   3.980538
    16  C    5.313329   4.073284   3.533265   4.495309   5.641199
    17  O    2.408297   3.659187   4.153639   3.621093   2.354507
    18  H    2.439532   3.814205   4.588226   4.305421   3.161594
    19  O    4.869368   3.730361   3.620118   4.716764   5.661865
    20  N    5.857080   4.736840   3.541566   3.828491   5.140120
    21  H    6.148806   5.004504   3.740611   3.983740   5.340664
    22  N    6.600658   5.316544   4.702393   5.618300   6.843183
    23  H    7.091768   5.802077   4.979881   5.734720   7.031672
    24  C    6.779685   5.774354   4.605834   4.673686   5.858480
    25  C    8.006937   7.020818   5.752238   5.646233   6.819675
    26  H    8.265818   7.420306   6.134078   5.793011   6.826580
    27  H    8.855285   7.812284   6.603925   6.620380   7.811007
    28  H    8.067803   7.043732   5.721398   5.615137   6.842157
    29  C    7.515151   6.252872   5.869427   6.897290   8.058540
    30  H    7.356299   6.083677   5.886772   7.057720   8.181776
    31  H    8.494017   7.201624   6.711698   7.680473   8.901897
    32  H    7.660142   6.500600   6.214890   7.195320   8.257347
    33  O    6.834669   5.928366   4.926126   5.006066   6.040719
                    6          7          8          9         10
     6  C    0.000000
     7  H    2.139055   0.000000
     8  H    3.375346   2.473415   0.000000
     9  H    3.375226   4.932735   4.267143   0.000000
    10  H    2.136573   4.266163   4.930618   2.473163   0.000000
    11  C    4.289003   4.664341   2.712343   2.711230   4.662347
    12  H    4.772229   4.669040   2.357043   3.741047   5.498200
    13  H    4.778423   5.386649   3.567414   2.614667   4.809303
    14  C    5.080457   5.551922   3.682224   3.156782   5.214556
    15  H    4.587551   5.212960   3.741310   2.943345   4.667926
    16  C    5.986890   5.967570   3.845823   4.614390   6.485411
    17  O    1.363140   2.658215   4.540986   4.486523   2.562293
    18  H    1.913374   2.269664   4.525520   5.255952   3.505030
    19  O    5.725384   5.340104   3.310542   5.090065   6.588201
    20  N    6.023366   6.799097   5.006936   3.340840   5.681976
    21  H    6.287588   7.115469   5.281112   3.387154   5.847739
    22  N    7.269700   7.247560   5.016496   5.576932   7.642460
    23  H    7.627472   7.833928   5.627237   5.504687   7.743092
    24  C    6.813829   7.722619   6.094726   4.073578   6.247646
    25  C    7.917659   8.998208   7.388166   4.842132   7.055644
    26  H    8.003499   9.282261   7.910470   4.911287   6.903158
    27  H    8.853048   9.808645   8.077122   5.872288   8.086704
    28  H    7.979017   9.081240   7.411390   4.750946   7.077112
    29  C    8.330825   8.014928   5.756392   6.952942   8.909301
    30  H    8.312213   7.750962   5.426556   7.238131   9.108216
    31  H    9.265185   9.032724   6.730950   7.622350   9.711493
    32  H    8.464096   8.102620   6.020488   7.302781   9.090988
    33  O    6.881541   7.708226   6.227859   4.558878   6.429412
                   11         12         13         14         15
    11  C    0.000000
    12  H    1.091013   0.000000
    13  H    1.093018   1.749036   0.000000
    14  C    1.544414   2.169738   2.151895   0.000000
    15  H    2.162639   2.896189   2.883263   1.093916   0.000000
    16  C    2.494195   2.448878   3.238339   1.516839   2.077730
    17  O    5.651159   6.119517   6.111072   6.392249   5.814754
    18  H    6.067467   6.389699   6.613966   6.847128   6.292398
    19  O    2.967076   2.698855   3.927019   2.367671   2.548892
    20  N    2.471884   3.190655   2.434275   1.446085   2.059706
    21  H    2.581074   3.253921   2.109254   2.125451   2.885885
    22  N    3.446649   3.297602   3.905769   2.447548   3.158029
    23  H    3.627471   3.655741   3.824712   2.580860   3.377514
    24  C    3.727709   4.458361   3.748241   2.446838   2.607431
    25  C    4.839990   5.579663   4.567743   3.780615   4.032870
    26  H    5.443197   6.296780   5.183485   4.408466   4.429513
    27  H    5.579718   6.193968   5.365690   4.404652   4.705071
    28  H    4.737212   5.449115   4.232049   3.974755   4.420930
    29  C    4.681790   4.302345   5.205239   3.804875   4.399410
    30  H    4.738740   4.123563   5.296052   4.186013   4.840894
    31  H    5.419786   5.075793   5.780866   4.513833   5.178284
    32  H    5.201362   4.899717   5.858881   4.174457   4.520712
    33  O    4.242874   4.927292   4.535099   2.772339   2.538395
                   16         17         18         19         20
    16  C    0.000000
    17  O    7.278668   0.000000
    18  H    7.575568   0.963964   0.000000
    19  O    1.231525   6.944688   7.098534   0.000000
    20  N    2.500547   7.303155   7.879543   3.613399   0.000000
    21  H    3.169139   7.578828   8.182961   4.293280   1.008716
    22  N    1.331089   8.577662   8.891036   2.252751   2.780646
    23  H    2.020792   8.949885   9.351430   3.139798   2.353287
    24  C    3.206066   8.007062   8.627399   4.277581   1.348712
    25  C    4.551897   9.076122   9.771546   5.692221   2.415072
    26  H    5.315295   9.060775   9.814627   6.375898   3.141696
    27  H    4.866189  10.029246  10.689600   6.010936   3.116482
    28  H    4.850902   9.164453   9.876023   6.039543   2.529663
    29  C    2.424885   9.607693   9.816843   2.767704   4.216463
    30  H    2.767580   9.583891   9.707392   2.810906   4.799695
    31  H    3.300273  10.562597  10.811441   3.819494   4.620954
    32  H    2.747465   9.675886   9.850297   2.791990   4.692098
    33  O    3.226665   8.002076   8.574858   4.076838   2.252693
                   21         22         23         24         25
    21  H    0.000000
    22  N    3.300362   0.000000
    23  H    2.730288   1.006920   0.000000
    24  C    2.037383   3.262573   2.716097   0.000000
    25  C    2.539128   4.349371   3.557364   1.492560   0.000000
    26  H    3.317398   5.266003   4.551119   2.111553   1.089716
    27  H    3.286450   4.389982   3.533209   2.111283   1.089970
    28  H    2.205387   4.624321   3.761616   2.166535   1.087637
    29  C    4.706574   1.445601   2.127353   4.553405   5.551733
    30  H    5.188024   2.099567   2.863122   5.360189   6.395305
    31  H    4.996152   2.069734   2.294145   4.818735   5.566093
    32  H    5.345946   2.100564   2.834791   4.830957   5.920338
    33  O    3.143466   3.390690   3.105022   1.228427   2.381661
                   26         27         28         29         30
    26  H    0.000000
    27  H    1.756696   0.000000
    28  H    1.776649   1.775473   0.000000
    29  C    6.475434   5.386338   5.870952   0.000000
    30  H    7.341030   6.314229   6.602354   1.090045   0.000000
    31  H    6.539351   5.216413   5.842839   1.085526   1.767879
    32  H    6.738902   5.718593   6.406944   1.090308   1.766970
    33  O    2.677013   2.698513   3.283252   4.493687   5.378665
                   31         32         33
    31  H    0.000000
    32  H    1.769544   0.000000
    33  O    4.852782   4.485711   0.000000
 Stoichiometry    C12H16N2O3
 Framework group  C1[X(C12H16N2O3)]
 Deg. of freedom    93
 Full point group                 C1      NOp   1
 Largest Abelian subgroup         C1      NOp   1
 Largest concise Abelian subgroup C1      NOp   1
                         Standard orientation:                         
 ---------------------------------------------------------------------
 Center     Atomic      Atomic             Coordinates (Angstroms)
 Number     Number       Type             X           Y           Z
 ---------------------------------------------------------------------
      1          6           0       -3.618335   -1.108515    0.042968
      2          6           0       -2.333436   -1.259545   -0.452255
      3          6           0       -1.532786   -0.160190   -0.726261
      4          6           0       -2.054284    1.107611   -0.486769
      5          6           0       -3.331785    1.275667    0.010319
      6          6           0       -4.117553    0.162338    0.276823
      7          1           0       -4.237564   -1.973213    0.252882
      8          1           0       -1.943152   -2.256096   -0.626567
      9          1           0       -1.445685    1.981399   -0.694922
     10          1           0       -3.736499    2.263007    0.193559
     11          6           0       -0.131102   -0.329302   -1.227189
     12          1           0        0.004740   -1.347727   -1.594158
     13          1           0        0.034781    0.331708   -2.081727
     14          6           0        0.940917   -0.014652   -0.160893
     15          1           0        0.442073    0.264340    0.771828
     16          6           0        1.690144   -1.288325    0.181480
     17          8           0       -5.371618    0.375383    0.766806
     18          1           0       -5.805375   -0.472324    0.916715
     19          8           0        1.076154   -2.204072    0.730184
     20          7           0        1.773491    1.098239   -0.560210
     21          1           0        1.781097    1.377776   -1.529390
     22          7           0        2.973720   -1.377810   -0.159434
     23          1           0        3.427119   -0.576107   -0.566361
     24          6           0        2.493364    1.811968    0.329395
     25          6           0        3.272410    2.960882   -0.219073
     26          1           0        2.976654    3.867364    0.308469
     27          1           0        4.330018    2.794878   -0.014273
     28          1           0        3.132492    3.103833   -1.288158
     29          6           0        3.755035   -2.558690    0.131829
     30          1           0        3.348660   -3.431981   -0.378487
     31          1           0        4.773299   -2.399026   -0.208776
     32          1           0        3.770212   -2.764676    1.202394
     33          8           0        2.510604    1.528482    1.524540
 ---------------------------------------------------------------------
 Rotational constants (GHZ):      0.7621702      0.2422970      0.1996106
 Leave Link  202 at Tue Jun 24 17:06:41 2014, MaxMem=  4294967296 cpu:         1.8
 (Enter /home/ztw1e12/g09/l301.exe)
 Standard basis: CC-pVTZ (5D, 7F)
 Converting basis for Fermi contact spin-spin IFCMod=1.
 AO basis functions are being uncontracted.
 Ernie: Thresh=  0.10000D-02 Tol=  0.10000D-05 Strict=F.
 There are  1305 symmetry adapted cartesian basis functions of A   symmetry.
 There are  1204 symmetry adapted basis functions of A   symmetry.
  1204 basis functions,  1305 primitive gaussians,  1305 cartesian basis functions
    63 alpha electrons       63 beta electrons
       nuclear repulsion energy      1193.7858152653 Hartrees.
 IExCor= 4235 DFT=T Ex+Corr=M06 ExCW=0 ScaHFX=  0.270000
 ScaDFX=  1.000000  1.000000  1.000000  1.000000 ScalE2=  1.000000  1.000000
 IRadAn= 199590 IRanWt=     -1 IRanGd=            0 ICorTp=0 IEmpDi=  4
 NAtoms=   33 NActive=   33 NUniq=   33 SFac= 1.00D+00 NAtFMM=   60 NAOKFM=F Big=F
 Integral buffers will be    131072 words long.
 Raffenetti 2 integral format.
 Two-electron integral symmetry is turned on.
 Leave Link  301 at Tue Jun 24 17:06:42 2014, MaxMem=  4294967296 cpu:         5.7
 (Enter /home/ztw1e12/g09/l302.exe)
 NPDir=0 NMtPBC=     1 NCelOv=     1 NCel=       1 NClECP=     1 NCelD=      1
         NCelK=      1 NCelE2=     1 NClLst=     1 CellRange=     0.0.
 One-electron integrals computed using PRISM.
 GSVD:  received Info=                   1 from GESDD.
 NBasis=  1204 RedAO= T EigKep=  2.60D-05  NBF=  1204
 NBsUse=  1068 1.00D-06 EigRej=  6.44D-15 NBFU=  1068
 Precomputing XC quadrature grid using
 IXCGrd= 4 IRadAn=      199590 IRanWt=          -1 IRanGd=           0 AccXCQ= 0.00D+00.
 Generated NRdTot=       0 NPtTot=           0 NUsed=           0 NTot=          32
 NSgBfM=   994   994   994   995   995 MxSgAt=    33 MxSgA2=    33.
 Leave Link  302 at Tue Jun 24 17:06:48 2014, MaxMem=  4294967296 cpu:        92.3
 (Enter /home/ztw1e12/g09/l308.exe)
 Leave Link  308 at Tue Jun 24 17:06:48 2014, MaxMem=  4294967296 cpu:         7.3
 (Enter /home/ztw1e12/g09/l303.exe)
 DipDrv:  MaxL=1.
 Leave Link  303 at Tue Jun 24 17:06:49 2014, MaxMem=  4294967296 cpu:         4.1
 (Enter /home/ztw1e12/g09/l401.exe)
 ExpMin= 1.03D-01 ExpMax= 1.38D+05 ExpMxC= 1.38D+05 IAcc=4 IRadAn=    199590 AccDes= 0.00D+00
 Harris functional with IExCor= 1009 and IRadAn=  199590 diagonalized for initial guess.
 HarFok:  IExCor= 1009 AccDes= 0.00D+00 IRadAn=    199590 IDoV= 1 UseB2=F ITyADJ=14
 ICtDFT=  3500011 ScaDFX=  1.000000  1.000000  1.000000  1.000000
 FoFCou: FMM=F IPFlag=           0 FMFlag=      100000 FMFlg1=           0
         NFxFlg=           0 DoJE=T BraDBF=F KetDBF=T FulRan=T
         wScrn=  0.000000 ICntrl=     500 IOpCl=  0 I1Cent=   200000004 NGrid=           0
         NMat0=    1 NMatS0=      1 NMatT0=    0 NMatD0=    1 NMtDS0=    0 NMtDT0=    0
 Petite list used in FoFCou.
 Harris En= -801.780169681185    
 JPrj=0 DoOrth=F DoCkMO=F.
 Leave Link  401 at Tue Jun 24 17:07:09 2014, MaxMem=  4294967296 cpu:       292.3
 (Enter /home/ztw1e12/g09/l502.exe)
 Closed shell SCF:
 Using DIIS extrapolation, IDIIS=  1040.
 Integral symmetry usage will be decided dynamically.
 IVT=     5158273 IEndB=     5158273 NGot=  4294967296 MDV=  4291529994
 LenX=  4291529994 LenY=  4289825664
 Requested convergence on RMS density matrix=1.00D-08 within 128 cycles.
 Requested convergence on MAX density matrix=1.00D-06.
 Requested convergence on             energy=1.00D-06.
 No special actions if energy rises.
 Fock matrices will be formed incrementally for  20 cycles.
 Integral accuracy reduced to 1.0D-05 until final iterations.

 Cycle   1  Pass 0  IDiag  1:
 FoFJK:  IHMeth= 1 ICntrl=       0 DoSepK=F KAlg= 0 I1Cent=   0 FoldK=F
 IRaf= 420000000 NMat=   1 IRICut=       1 DoRegI=T DoRafI=F ISym2E= 0.
 FoFCou: FMM=F IPFlag=           0 FMFlag=      100000 FMFlg1=           0
         NFxFlg=           0 DoJE=F BraDBF=F KetDBF=F FulRan=T
         wScrn=  0.000000 ICntrl=       0 IOpCl=  0 I1Cent=           0 NGrid=           0
         NMat0=    1 NMatS0=      1 NMatT0=    0 NMatD0=    1 NMtDS0=    0 NMtDT0=    0
 Symmetry not used in FoFCou.
 E= -801.450814290957    
 DIIS: error= 1.20D-01 at cycle   1 NSaved=   1.
 NSaved= 1 IEnMin= 1 EnMin= -801.450814290957     IErMin= 1 ErrMin= 1.20D-01
 ErrMax= 1.20D-01  0.00D+00 EMaxC= 1.00D-01 BMatC= 1.69D+01 BMatP= 1.69D+01
 IDIUse=3 WtCom= 0.00D+00 WtEn= 1.00D+00
 Coeff-Com:  0.100D+01
 Coeff-En:   0.100D+01
 Coeff:      0.100D+01
 Gap=     0.250 Goal=   None    Shift=    0.000
 GapD=    0.250 DampG=1.000 DampE=0.250 DampFc=0.2500 IDamp=-1.
 Damping current iteration by 2.50D-01
 RMSDP=2.27D-03 MaxDP=4.55D-01              OVMax= 3.05D-01

 Cycle   2  Pass 0  IDiag  1:
 RMSU=  5.64D-04    CP:  1.03D+00
 E= -801.610594237907     Delta-E=       -0.159779946951 Rises=F Damp=T
 DIIS: error= 9.12D-02 at cycle   2 NSaved=   2.
 NSaved= 2 IEnMin= 2 EnMin= -801.610594237907     IErMin= 2 ErrMin= 9.12D-02
 ErrMax= 9.12D-02  0.00D+00 EMaxC= 1.00D-01 BMatC= 1.00D+01 BMatP= 1.69D+01
 IDIUse=3 WtCom= 8.76D-02 WtEn= 9.12D-01
 Coeff-Com: -0.290D+01 0.390D+01
 Coeff-En:   0.000D+00 0.100D+01
 Coeff:     -0.254D+00 0.125D+01
 Gap=     0.255 Goal=   None    Shift=    0.000
 RMSDP=6.09D-04 MaxDP=9.65D-02 DE=-1.60D-01 OVMax= 1.85D-01

 Cycle   3  Pass 0  IDiag  1:
 RMSU=  5.13D-04    CP:  1.07D+00  1.56D+00
 E= -801.867120062878     Delta-E=       -0.256525824970 Rises=F Damp=F
 DIIS: error= 1.10D-02 at cycle   3 NSaved=   3.
 NSaved= 3 IEnMin= 3 EnMin= -801.867120062878     IErMin= 3 ErrMin= 1.10D-02
 ErrMax= 1.10D-02  0.00D+00 EMaxC= 1.00D-01 BMatC= 1.76D-01 BMatP= 1.00D+01
 IDIUse=3 WtCom= 8.90D-01 WtEn= 1.10D-01
 Coeff-Com:  0.280D+00-0.426D+00 0.115D+01
 Coeff-En:   0.000D+00 0.000D+00 0.100D+01
 Coeff:      0.249D+00-0.379D+00 0.113D+01
 Gap=     0.248 Goal=   None    Shift=    0.000
 RMSDP=4.36D-04 MaxDP=5.97D-02 DE=-2.57D-01 OVMax= 1.05D-01

 Cycle   4  Pass 0  IDiag  1:
 RMSU=  3.67D-04    CP:  1.05D+00  1.30D+00  6.49D-01
 E= -801.800076710856     Delta-E=        0.067043352022 Rises=F Damp=F
 DIIS: error= 9.94D-03 at cycle   4 NSaved=   4.
 NSaved= 4 IEnMin= 3 EnMin= -801.867120062878     IErMin= 4 ErrMin= 9.94D-03
 ErrMax= 9.94D-03  0.00D+00 EMaxC= 1.00D-01 BMatC= 1.43D-01 BMatP= 1.76D-01
 IDIUse=3 WtCom= 9.01D-01 WtEn= 9.94D-02
 Coeff-Com:  0.355D+00-0.505D+00 0.628D+00 0.521D+00
 Coeff-En:   0.000D+00 0.000D+00 0.715D+00 0.285D+00
 Coeff:      0.320D+00-0.455D+00 0.637D+00 0.498D+00
 Gap=     0.259 Goal=   None    Shift=    0.000
 RMSDP=3.21D-04 MaxDP=3.48D-02 DE= 6.70D-02 OVMax= 8.90D-02

 Cycle   5  Pass 0  IDiag  1:
 RMSU=  7.18D-05    CP:  1.06D+00  1.32D+00  8.92D-01  2.19D-01
 E= -801.906637914028     Delta-E=       -0.106561203172 Rises=F Damp=F
 DIIS: error= 2.02D-03 at cycle   5 NSaved=   5.
 NSaved= 5 IEnMin= 5 EnMin= -801.906637914028     IErMin= 5 ErrMin= 2.02D-03
 ErrMax= 2.02D-03  0.00D+00 EMaxC= 1.00D-01 BMatC= 7.96D-03 BMatP= 1.43D-01
 IDIUse=3 WtCom= 9.80D-01 WtEn= 2.02D-02
 Coeff-Com:  0.319D-01-0.469D-01 0.278D-01 0.188D+00 0.800D+00
 Coeff-En:   0.000D+00 0.000D+00 0.000D+00 0.000D+00 0.100D+01
 Coeff:      0.313D-01-0.460D-01 0.273D-01 0.184D+00 0.804D+00
 Gap=     0.223 Goal=   None    Shift=    0.000
 RMSDP=8.78D-05 MaxDP=1.38D-02 DE=-1.07D-01 OVMax= 2.18D-02

 Cycle   6  Pass 0  IDiag  1:
 RMSU=  3.64D-05    CP:  1.06D+00  1.33D+00  8.98D-01  4.05D-01  4.32D-01
 E= -801.910565734650     Delta-E=       -0.003927820622 Rises=F Damp=F
 DIIS: error= 1.44D-03 at cycle   6 NSaved=   6.
 NSaved= 6 IEnMin= 6 EnMin= -801.910565734650     IErMin= 6 ErrMin= 1.44D-03
 ErrMax= 1.44D-03  0.00D+00 EMaxC= 1.00D-01 BMatC= 1.39D-03 BMatP= 7.96D-03
 IDIUse=3 WtCom= 9.86D-01 WtEn= 1.44D-02
 Coeff-Com:  0.117D-01-0.165D-01-0.748D-02 0.753D-01 0.406D+00 0.531D+00
 Coeff-En:   0.000D+00 0.000D+00 0.000D+00 0.000D+00 0.153D+00 0.847D+00
 Coeff:      0.116D-01-0.162D-01-0.737D-02 0.742D-01 0.402D+00 0.536D+00
 Gap=     0.224 Goal=   None    Shift=    0.000
 RMSDP=3.27D-05 MaxDP=2.90D-03 DE=-3.93D-03 OVMax= 1.60D-02

 Cycle   7  Pass 0  IDiag  1:
 RMSU=  2.15D-05    CP:  1.06D+00  1.32D+00  8.93D-01  4.07D-01  6.30D-01
                    CP:  5.05D-01
 E= -801.911595781716     Delta-E=       -0.001030047065 Rises=F Damp=F
 DIIS: error= 7.19D-04 at cycle   7 NSaved=   7.
 NSaved= 7 IEnMin= 7 EnMin= -801.911595781716     IErMin= 7 ErrMin= 7.19D-04
 ErrMax= 7.19D-04  0.00D+00 EMaxC= 1.00D-01 BMatC= 2.34D-04 BMatP= 1.39D-03
 IDIUse=3 WtCom= 9.93D-01 WtEn= 7.19D-03
 Coeff-Com:  0.854D-02-0.113D-01-0.374D-02 0.193D-01 0.110D+00 0.309D+00
 Coeff-Com:  0.568D+00
 Coeff-En:   0.000D+00 0.000D+00 0.000D+00 0.000D+00 0.000D+00 0.162D+00
 Coeff-En:   0.838D+00
 Coeff:      0.848D-02-0.112D-01-0.372D-02 0.191D-01 0.109D+00 0.308D+00
 Coeff:      0.570D+00
 Gap=     0.223 Goal=   None    Shift=    0.000
 RMSDP=1.25D-05 MaxDP=1.25D-03 DE=-1.03D-03 OVMax= 6.34D-03

 Cycle   8  Pass 0  IDiag  1:
 RMSU=  6.33D-06    CP:  1.06D+00  1.32D+00  8.98D-01  4.14D-01  6.05D-01
                    CP:  7.25D-01  7.25D-01
 E= -801.911806904354     Delta-E=       -0.000211122638 Rises=F Damp=F
 DIIS: error= 1.30D-04 at cycle   8 NSaved=   8.
 NSaved= 8 IEnMin= 8 EnMin= -801.911806904354     IErMin= 8 ErrMin= 1.30D-04
 ErrMax= 1.30D-04  0.00D+00 EMaxC= 1.00D-01 BMatC= 1.58D-05 BMatP= 2.34D-04
 IDIUse=3 WtCom= 9.99D-01 WtEn= 1.30D-03
 Coeff-Com:  0.468D-02-0.621D-02-0.106D-02 0.657D-02 0.375D-01 0.140D+00
 Coeff-Com:  0.317D+00 0.501D+00
 Coeff-En:   0.000D+00 0.000D+00 0.000D+00 0.000D+00 0.000D+00 0.000D+00
 Coeff-En:   0.000D+00 0.100D+01
 Coeff:      0.467D-02-0.620D-02-0.106D-02 0.656D-02 0.375D-01 0.140D+00
 Coeff:      0.317D+00 0.501D+00
 Gap=     0.224 Goal=   None    Shift=    0.000
 RMSDP=3.54D-06 MaxDP=3.52D-04 DE=-2.11D-04 OVMax= 1.14D-03

 Initial convergence to 1.0D-05 achieved.  Increase integral accuracy.
 Cycle   9  Pass 1  IDiag  1:
 E= -801.911890032286     Delta-E=       -0.000083127932 Rises=F Damp=F
 DIIS: error= 2.37D-04 at cycle   1 NSaved=   1.
 NSaved= 1 IEnMin= 1 EnMin= -801.911890032286     IErMin= 1 ErrMin= 2.37D-04
 ErrMax= 2.37D-04  0.00D+00 EMaxC= 1.00D-01 BMatC= 2.54D-05 BMatP= 2.54D-05
 IDIUse=3 WtCom= 9.98D-01 WtEn= 2.37D-03
 Coeff-Com:  0.100D+01
 Coeff-En:   0.100D+01
 Coeff:      0.100D+01
 Gap=     0.224 Goal=   None    Shift=    0.000
 RMSDP=3.54D-06 MaxDP=3.52D-04 DE=-8.31D-05 OVMax= 6.16D-04

 Cycle  10  Pass 1  IDiag  1:
 RMSU=  1.07D-04    CP:  9.96D-01
 E= -801.911905056995     Delta-E=       -0.000015024709 Rises=F Damp=F
 DIIS: error= 4.29D-05 at cycle   2 NSaved=   2.
 NSaved= 2 IEnMin= 2 EnMin= -801.911905056995     IErMin= 2 ErrMin= 4.29D-05
 ErrMax= 4.29D-05  0.00D+00 EMaxC= 1.00D-01 BMatC= 2.65D-06 BMatP= 2.54D-05
 IDIUse=1 WtCom= 1.00D+00 WtEn= 0.00D+00
 Coeff-Com:  0.130D+00 0.870D+00
 Coeff:      0.130D+00 0.870D+00
 Gap=     0.224 Goal=   None    Shift=    0.000
 RMSDP=3.42D-06 MaxDP=4.59D-04 DE=-1.50D-05 OVMax= 7.76D-04

 Cycle  11  Pass 1  IDiag  1:
 RMSU=  2.93D-06    CP:  9.95D-01  1.02D+00
 E= -801.911902865813     Delta-E=        0.000002191183 Rises=F Damp=F
 DIIS: error= 6.62D-05 at cycle   3 NSaved=   3.
 NSaved= 3 IEnMin= 2 EnMin= -801.911905056995     IErMin= 2 ErrMin= 4.29D-05
 ErrMax= 6.62D-05  0.00D+00 EMaxC= 1.00D-01 BMatC= 5.37D-06 BMatP= 2.65D-06
 IDIUse=1 WtCom= 1.00D+00 WtEn= 0.00D+00
 Coeff-Com: -0.162D-02 0.589D+00 0.413D+00
 Coeff:     -0.162D-02 0.589D+00 0.413D+00
 Gap=     0.224 Goal=   None    Shift=    0.000
 RMSDP=1.75D-06 MaxDP=2.22D-04 DE= 2.19D-06 OVMax= 5.11D-04

 Cycle  12  Pass 1  IDiag  1:
 RMSU=  5.33D-07    CP:  9.95D-01  1.02D+00  4.43D-01
 E= -801.911907053538     Delta-E=       -0.000004187726 Rises=F Damp=F
 DIIS: error= 9.33D-06 at cycle   4 NSaved=   4.
 NSaved= 4 IEnMin= 4 EnMin= -801.911907053538     IErMin= 4 ErrMin= 9.33D-06
 ErrMax= 9.33D-06  0.00D+00 EMaxC= 1.00D-01 BMatC= 7.10D-08 BMatP= 2.65D-06
 IDIUse=1 WtCom= 1.00D+00 WtEn= 0.00D+00
 Coeff-Com: -0.311D-02 0.337D+00 0.246D+00 0.420D+00
 Coeff:     -0.311D-02 0.337D+00 0.246D+00 0.420D+00
 Gap=     0.224 Goal=   None    Shift=    0.000
 RMSDP=2.00D-07 MaxDP=2.40D-05 DE=-4.19D-06 OVMax= 5.41D-05

 Cycle  13  Pass 1  IDiag  1:
 RMSU=  1.81D-07    CP:  9.95D-01  1.02D+00  4.55D-01  8.77D-01
 E= -801.911907103917     Delta-E=       -0.000000050379 Rises=F Damp=F
 DIIS: error= 1.36D-06 at cycle   5 NSaved=   5.
 NSaved= 5 IEnMin= 5 EnMin= -801.911907103917     IErMin= 5 ErrMin= 1.36D-06
 ErrMax= 1.36D-06  0.00D+00 EMaxC= 1.00D-01 BMatC= 1.99D-09 BMatP= 7.10D-08
 IDIUse=1 WtCom= 1.00D+00 WtEn= 0.00D+00
 Coeff-Com: -0.122D-02 0.988D-01 0.737D-01 0.192D+00 0.636D+00
 Coeff:     -0.122D-02 0.988D-01 0.737D-01 0.192D+00 0.636D+00
 Gap=     0.224 Goal=   None    Shift=    0.000
 RMSDP=4.56D-08 MaxDP=3.16D-06 DE=-5.04D-08 OVMax= 1.16D-05

 Cycle  14  Pass 1  IDiag  1:
 RMSU=  3.33D-08    CP:  9.95D-01  1.02D+00  4.59D-01  9.23D-01  9.33D-01
 E= -801.911907105102     Delta-E=       -0.000000001185 Rises=F Damp=F
 DIIS: error= 5.70D-07 at cycle   6 NSaved=   6.
 NSaved= 6 IEnMin= 6 EnMin= -801.911907105102     IErMin= 6 ErrMin= 5.70D-07
 ErrMax= 5.70D-07  0.00D+00 EMaxC= 1.00D-01 BMatC= 2.64D-10 BMatP= 1.99D-09
 IDIUse=1 WtCom= 1.00D+00 WtEn= 0.00D+00
 Coeff-Com: -0.437D-03 0.295D-01 0.223D-01 0.721D-01 0.336D+00 0.540D+00
 Coeff:     -0.437D-03 0.295D-01 0.223D-01 0.721D-01 0.336D+00 0.540D+00
 Gap=     0.224 Goal=   None    Shift=    0.000
 RMSDP=2.30D-08 MaxDP=3.52D-06 DE=-1.18D-09 OVMax= 7.58D-06

 Cycle  15  Pass 1  IDiag  1:
 RMSU=  1.63D-08    CP:  9.95D-01  1.02D+00  4.57D-01  9.38D-01  9.87D-01
                    CP:  7.72D-01
 E= -801.911907105263     Delta-E=       -0.000000000161 Rises=F Damp=F
 DIIS: error= 3.31D-07 at cycle   7 NSaved=   7.
 NSaved= 7 IEnMin= 7 EnMin= -801.911907105263     IErMin= 7 ErrMin= 3.31D-07
 ErrMax= 3.31D-07  0.00D+00 EMaxC= 1.00D-01 BMatC= 6.49D-11 BMatP= 2.64D-10
 IDIUse=1 WtCom= 1.00D+00 WtEn= 0.00D+00
 Coeff-Com:  0.475D-04-0.778D-02-0.556D-02-0.460D-02 0.510D-01 0.349D+00
 Coeff-Com:  0.618D+00
 Coeff:      0.475D-04-0.778D-02-0.556D-02-0.460D-02 0.510D-01 0.349D+00
 Coeff:      0.618D+00
 Gap=     0.224 Goal=   None    Shift=    0.000
 RMSDP=1.01D-08 MaxDP=7.96D-07 DE=-1.61D-10 OVMax= 2.39D-06

 Cycle  16  Pass 1  IDiag  1:
 RMSU=  5.29D-09    CP:  9.95D-01  1.02D+00  4.58D-01  9.46D-01  1.01D+00
                    CP:  9.52D-01  1.01D+00
 E= -801.911907105333     Delta-E=       -0.000000000070 Rises=F Damp=F
 DIIS: error= 3.58D-08 at cycle   8 NSaved=   8.
 NSaved= 8 IEnMin= 8 EnMin= -801.911907105333     IErMin= 8 ErrMin= 3.58D-08
 ErrMax= 3.58D-08  0.00D+00 EMaxC= 1.00D-01 BMatC= 2.89D-12 BMatP= 6.49D-11
 IDIUse=1 WtCom= 1.00D+00 WtEn= 0.00D+00
 Coeff-Com:  0.493D-04-0.557D-02-0.406D-02-0.674D-02 0.335D-02 0.133D+00
 Coeff-Com:  0.293D+00 0.586D+00
 Coeff:      0.493D-04-0.557D-02-0.406D-02-0.674D-02 0.335D-02 0.133D+00
 Coeff:      0.293D+00 0.586D+00
 Gap=     0.224 Goal=   None    Shift=    0.000
 RMSDP=2.54D-09 MaxDP=4.04D-07 DE=-6.98D-11 OVMax= 4.09D-07

 SCF Done:  E(RM06) =  -801.911907105     A.U. after   16 cycles
            NFock= 16  Conv=0.25D-08     -V/T= 2.0044
 KE= 7.983712500928D+02 PE=-4.260295300361D+03 EE= 1.466226327897D+03
 Leave Link  502 at Tue Jun 24 17:42:17 2014, MaxMem=  4294967296 cpu:     33646.3
 (Enter /home/ztw1e12/g09/l801.exe)
 DoSCS=F DFT=T ScalE2(SS,OS)=  1.000000  1.000000
 Range of M.O.s used for correlation:     1  1068
 NBasis=  1204 NAE=    63 NBE=    63 NFC=     0 NFV=     0
 NROrb=   1068 NOA=    63 NOB=    63 NVA=  1005 NVB=  1005

 **** Warning!!: The largest alpha MO coefficient is  0.26955174D+02

 Leave Link  801 at Tue Jun 24 17:42:17 2014, MaxMem=  4294967296 cpu:         1.6
 (Enter /home/ztw1e12/g09/l1002.exe)
 Minotr:  Closed shell wavefunction.
          IDoAtm=111111111111111111111111111111111
          Direct CPHF calculation.
          Differentiating once with respect to Fermi-contact.
          Electric field/nuclear overlap derivatives assumed to be zero.
          Requested convergence is 1.0D-10 RMS, and 1.0D-09 maximum.
          Secondary convergence is 1.0D-12 RMS, and 1.0D-12 maximum.
          NewPWx=T KeepS1=F KeepF1=F KeepIn=T MapXYZ=F SortEE=F KeepMc=T.
          MDV=    4294965894 using IRadAn=  199590.
 Using stored XC quadrature information.
          Solving linear equations simultaneously, MaxMat=       0.
          There are    33 degrees of freedom in the 1st order CPHF.  IDoFFX=0 NUNeed=    33.
     33 vectors produced by pass  0 Test12= 1.92D-17 3.03D-11 XBig12= 4.29D+01 2.58D+00.
 AX will form    33 AO Fock derivatives at one time.
 FoFJK:  IHMeth= 1 ICntrl=       0 DoSepK=F KAlg= 0 I1Cent=   0 FoldK=F
 IRaf= 440000000 NMat=  33 IRICut=       1 DoRegI=T DoRafI=F ISym2E=-1.
 FoFCou: FMM=F IPFlag=           0 FMFlag=      100000 FMFlg1=           0
         NFxFlg=           0 DoJE=F BraDBF=F KetDBF=F FulRan=T
         wScrn=  0.000000 ICntrl=       0 IOpCl=  0 I1Cent=           0 NGrid=           0
         NMat0=   33 NMatS0=      0 NMatT0=   33 NMatD0=   33 NMtDS0=    0 NMtDT0=    0
 Petite list used in FoFCou.
     33 vectors produced by pass  1 Test12= 1.92D-17 3.03D-11 XBig12= 3.46D-01 1.89D-01.
     33 vectors produced by pass  2 Test12= 1.92D-17 3.03D-11 XBig12= 1.54D-02 4.37D-02.
     33 vectors produced by pass  3 Test12= 1.92D-17 3.03D-11 XBig12= 3.43D-04 5.58D-03.
     33 vectors produced by pass  4 Test12= 1.92D-17 3.03D-11 XBig12= 6.99D-06 1.12D-03.
     33 vectors produced by pass  5 Test12= 1.92D-17 3.03D-11 XBig12= 1.41D-07 1.64D-04.
     33 vectors produced by pass  6 Test12= 1.92D-17 3.03D-11 XBig12= 4.09D-09 1.86D-05.
     33 vectors produced by pass  7 Test12= 1.92D-17 3.03D-11 XBig12= 1.11D-10 3.82D-06.
     33 vectors produced by pass  8 Test12= 1.92D-17 3.03D-11 XBig12= 4.09D-12 3.02D-07.
     33 vectors produced by pass  9 Test12= 1.92D-17 3.03D-11 XBig12= 5.58D-14 9.26D-08.
     33 vectors produced by pass 10 Test12= 1.92D-17 3.03D-11 XBig12= 1.97D-15 7.73D-09.
     32 vectors produced by pass 11 Test12= 1.92D-17 3.03D-11 XBig12= 2.28D-17 5.63D-10.
      7 vectors produced by pass 12 Test12= 1.92D-17 3.03D-11 XBig12= 2.46D-19 6.96D-11.
 InvSVY:  IOpt=1 It=  1 EMax= 8.88D-15
 Solved reduced A of dimension   402 with    33 vectors.
 Max diff in FC couplings:  IJMax=     4     3 Diff= 3.44D-04 IJMaxR=    28     6 DiffR= 7.48D-01
 Fermi Contact (FC) contribution to K (Hz):
                1             2             3             4             5 
      1  0.123400D+11
      2  0.344619D+02  0.123400D+11
      3 -0.118475D+01  0.345879D+02  0.123400D+11
      4  0.308606D+01  0.318648D+00  0.333196D+02  0.123400D+11
      5  0.162810D+01  0.300758D+01 -0.130536D+01  0.351501D+02  0.123400D+11
      6  0.359922D+02 -0.293329D+00  0.431150D+01  0.250058D+00  0.388451D+02
      7  0.217926D+02 -0.281804D+00  0.968634D+00 -0.216311D+00  0.619255D+00
      8 -0.204245D+00  0.228771D+02 -0.291702D+00  0.100578D+01 -0.279262D+00
      9 -0.288764D+00  0.993683D+00 -0.207359D+00  0.218486D+02 -0.202049D+00
     10  0.667464D+00 -0.215365D+00  0.103732D+01 -0.281141D+00  0.228469D+02
     11  0.218039D+01  0.192765D+01  0.245680D+02  0.129819D+01  0.189105D+01
     12  0.241421D-01  0.860421D+00 -0.942669D+00  0.935929D+00  0.124468D+00
     13 -0.638324D-01  0.659297D+00 -0.110090D+01  0.627850D+00 -0.109327D+00
     14 -0.484230D+00  0.101243D+01 -0.850980D+00  0.964544D+00 -0.605080D+00
     15  0.132685D-01 -0.195696D-01  0.971667D+00 -0.273739D-01  0.118680D-01
     16 -0.253603D-02 -0.373136D-01  0.746927D+00 -0.614960D-01 -0.110544D-01
     17 -0.748427D+00 -0.797276D-01  0.263377D+00  0.308240D+01  0.116969D+02
     18  0.416985D+00 -0.112599D-01 -0.466152D-01  0.213815D+00  0.115646D+01
     19  0.365375D-01  0.293490D+00  0.151728D+00  0.389047D-01  0.229024D-01
     20  0.106565D+00  0.229945D+00  0.862486D+00 -0.398663D-01  0.346494D-01
     21  0.109260D-02  0.670535D-02 -0.169754D-01 -0.100981D-02  0.712122D-03
     22 -0.219117D-01  0.416589D-01  0.132699D+00  0.358433D-01 -0.273546D-01
     23  0.940893D-03  0.916810D-03  0.357007D-03 -0.885954D-03  0.720580D-04
     24  0.127024D-01  0.591297D-01  0.186133D-01 -0.267879D-02 -0.358607D-02
     25  0.269032D-02  0.547605D-02  0.419517D-01 -0.259601D-02  0.807123D-03
     26 -0.591185D-03  0.109363D-02  0.178560D-02  0.997903D-03 -0.473043D-03
     27 -0.880851D-04 -0.102324D-03 -0.684443D-03  0.128167D-03  0.380729D-04
     28 -0.963692D-04  0.484828D-04 -0.934550D-03  0.747366D-04 -0.701677D-04
     29  0.138649D-02  0.796903D-03  0.170996D-01 -0.113227D-02 -0.171471D-02
     30 -0.248294D-03  0.504837D-03  0.235976D-02  0.429647D-03  0.174019D-03
     31  0.515437D-04  0.242779D-03 -0.717452D-03  0.158928D-04  0.108142D-04
     32 -0.193503D-03 -0.506280D-04  0.122275D-02  0.871746D-03  0.264849D-03
     33 -0.273939D-02  0.673372D-03  0.146509D-01  0.964544D-02 -0.939631D-03
                6             7             8             9            10 
      6  0.123400D+11
      7 -0.547590D+00  0.123400D+11
      8  0.121141D+01  0.334843D+00  0.123400D+11
      9  0.120095D+01  0.386767D-01  0.409680D-01  0.123400D+11
     10 -0.705180D+00  0.644943D-01  0.392786D-01  0.351378D+00  0.123400D+11
     11 -0.467734D+00  0.121921D-01  0.759808D+00  0.637534D+00  0.307432D-01
     12  0.935030D-02  0.358254D-02 -0.231494D-01  0.832804D-03  0.659250D-02
     13  0.128405D+00  0.144474D-01 -0.305040D-01 -0.352171D-01  0.112109D-01
     14  0.578095D+00  0.469183D-01 -0.147914D+00 -0.128494D+00  0.555970D-01
     15  0.404549D-03  0.857515D-03  0.565428D-03  0.292682D-02  0.942935D-03
     16  0.127356D-01  0.832164D-03 -0.922610D-02  0.912211D-03  0.256252D-02
     17 -0.119434D+02  0.571369D+00  0.702090D-01  0.249845D+00  0.706591D+00
     18 -0.652333D+00 -0.126254D-01  0.187378D-02  0.133057D-01  0.637191D-03
     19  0.193626D-01 -0.330177D-03  0.850316D-01 -0.808576D-03 -0.455530D-02
     20 -0.854722D-02  0.279714D-02  0.154369D-01  0.379152D-01 -0.252227D-02
     21 -0.565641D-03 -0.531532D-04  0.218670D-03  0.182407D-02 -0.933618D-04
     22  0.306937D-01  0.273560D-02 -0.267923D-02 -0.291122D-02  0.273557D-02
     23 -0.430931D-03 -0.122299D-03  0.356716D-03 -0.431727D-04 -0.480361D-04
     24  0.109698D-02  0.108874D-02  0.175120D-02 -0.352309D-03 -0.798189D-04
     25  0.151174D-03  0.173975D-03  0.369319D-03  0.844969D-03 -0.813040D-04
     26  0.808654D-03  0.757414D-04 -0.158272D-03 -0.683039D-04  0.456598D-04
     27 -0.483766D-04 -0.522933D-05 -0.254457D-04  0.794148D-05 -0.497208D-05
     28  0.300435D-04  0.356825D-05 -0.202348D-04 -0.636733D-05  0.395935D-05
     29  0.587735D-03 -0.271676D-03  0.174372D-03 -0.141830D-03  0.141648D-03
     30  0.268339D-03  0.589649D-04 -0.926796D-05  0.287023D-04  0.131566D-04
     31  0.816455D-05 -0.916010D-05  0.000000D+00  0.993770D-05 -0.564929D-05
     32  0.119787D-03  0.522667D-04 -0.768045D-04  0.142694D-03  0.187827D-04
     33  0.385938D-02  0.157913D-03 -0.770470D-03  0.113035D-02  0.298726D-03
               11            12            13            14            15 
     11  0.123400D+11
     12  0.182551D+02  0.123400D+11
     13  0.166448D+02 -0.868529D+00  0.123400D+11
     14  0.170069D+02 -0.565402D+00 -0.930351D+00  0.123400D+11
     15 -0.911319D+00  0.132504D+00  0.599684D-01  0.209046D+02  0.123400D+11
     16 -0.254798D+00  0.784052D+00  0.168356D+00  0.276184D+02 -0.132967D+01
     17  0.626464D-01  0.354299D-02  0.434988D-01  0.226657D+00 -0.204611D-03
     18  0.111798D-01 -0.193574D-03 -0.470688D-02 -0.236091D-01  0.754454D-04
     19  0.107551D+01  0.108825D+00  0.105403D+00  0.491064D+01  0.365629D+00
     20  0.118060D+01  0.484492D+00  0.189141D+01  0.131781D+02 -0.548439D+00
     21  0.532521D+00 -0.738496D-02 -0.357005D-01  0.227184D+00  0.200206D+00
     22  0.393034D-01  0.256246D-01  0.233065D-01  0.979725D+01  0.134738D+00
     23 -0.164879D-01  0.284535D-02  0.290014D-02  0.673717D-01 -0.740919D-02
     24  0.147440D+01  0.318436D-01  0.439972D-01 -0.218805D+00  0.389678D+00
     25 -0.270421D-01  0.103791D-01  0.410942D-01  0.662436D+00 -0.792213D-01
     26  0.153123D-01  0.277495D-03  0.503653D-03  0.297111D-01  0.166722D-01
     27 -0.545403D-02 -0.134987D-02 -0.124101D-02  0.205584D-01  0.254087D-01
     28 -0.363098D-02  0.601425D-03 -0.506662D-03  0.935507D-01 -0.250268D-02
     29 -0.376550D-01  0.263461D-01  0.127821D-01  0.671758D+00  0.212185D-01
     30  0.383753D-01 -0.964470D-03 -0.153535D-02 -0.826786D-01  0.303174D-01
     31  0.409791D-02  0.709611D-03  0.466714D-03 -0.225189D-01  0.394021D-02
     32  0.613304D-01 -0.578780D-03 -0.666783D-03 -0.876345D-01  0.154780D-01
     33  0.147199D+00  0.138909D-01  0.255909D-01  0.921593D+00  0.232406D+00
               16            17            18            19            20 
     16  0.123400D+11
     17  0.211466D-02  0.123400D+11
     18 -0.137122D-03  0.199006D+02  0.123400D+11
     19 -0.986610D+01  0.355395D-02 -0.542378D-03  0.123400D+11
     20  0.279351D+00  0.395662D-02  0.430667D-03  0.104879D+01  0.123400D+11
     21  0.400468D-01 -0.201923D-03  0.359078D-04  0.599703D-01  0.309531D+02
     22  0.301222D+02  0.843982D-02 -0.873407D-03  0.632031D+01 -0.437597D+00
     23  0.387114D+00 -0.855253D-04  0.711410D-05  0.461596D+00 -0.821963D-01
     24  0.243254D-01  0.105447D-02 -0.136035D-03 -0.245495D-01  0.247500D+02
     25 -0.144379D+00  0.398881D-03 -0.208817D-04  0.543711D-01  0.123697D+02
     26  0.600195D-01  0.346187D-03 -0.351855D-04 -0.214689D-02  0.407050D+00
     27  0.986382D-01 -0.116091D-05 -0.109784D-05  0.749924D-02  0.330453D+00
     28 -0.114409D-02  0.972855D-05 -0.213308D-05  0.193490D-02  0.333318D+00
     29 -0.252624D+00  0.269802D-03 -0.290829D-04  0.621595D+00  0.151029D+00
     30  0.147878D+00  0.919115D-04 -0.108458D-04  0.234654D+00  0.146247D-01
     31  0.943778D+00  0.117544D-04  0.000000D+00  0.178058D+00  0.757783D-02
     32  0.234463D+00  0.105286D-03 -0.834422D-05  0.239008D+00  0.271977D-02
     33  0.488440D+00  0.174601D-02 -0.123164D-03  0.429488D-01  0.579356D+01
               21            22            23            24            25 
     21  0.123400D+11
     22  0.434450D-02  0.123400D+11
     23  0.567498D-02  0.316861D+02  0.123400D+11
     24  0.464940D+00  0.279560D-01 -0.975308D-03  0.123400D+11
     25  0.882643D-01 -0.309515D-01  0.482736D-02  0.268506D+02  0.123400D+11
     26 -0.112267D-01  0.467796D-02  0.304600D-03 -0.119685D+01  0.181984D+02
     27 -0.120070D-01  0.935227D-03  0.497332D-03 -0.118846D+01  0.178068D+02
     28 -0.100756D-01 -0.123340D-02  0.105231D-03 -0.748450D+00  0.170591D+02
     29 -0.368616D-02  0.170018D+02  0.333227D+00 -0.385160D-02  0.902266D-03
     30 -0.383994D-03 -0.590767D+00  0.124471D+00  0.319310D-02  0.676602D-03
     31 -0.346996D-03 -0.355776D+00  0.293350D+00  0.872709D-03 -0.245418D-03
     32  0.104825D-02 -0.648261D+00  0.935010D-01 -0.724510D-03 -0.165804D-04
     33  0.400894D+00  0.335719D+00  0.177862D-01 -0.976417D+01  0.360052D+01
               26            27            28            29            30 
     26  0.123400D+11
     27 -0.928806D+00  0.123400D+11
     28 -0.734527D+00 -0.732961D+00  0.123400D+11
     29  0.183433D-03  0.116775D-03 -0.512735D-04  0.123400D+11
     30  0.167704D-03  0.196780D-04 -0.294683D-05  0.198317D+02  0.123400D+11
     31  0.246121D-03  0.826238D-04  0.984228D-05  0.182850D+02 -0.743632D+00
     32 -0.760278D-04 -0.175585D-03  0.255106D-04  0.201592D+02 -0.742734D+00
     33  0.450676D+00  0.440942D+00  0.811562D+00 -0.161924D-01  0.128566D-01
               31            32            33 
     31  0.123400D+11
     32 -0.744823D+00  0.123400D+11
     33  0.100645D-02  0.997752D-02  0.123400D+11
 Fermi Contact (FC) contribution to J (Hz):
                1             2             3             4             5 
      1  0.243533D+11
      2  0.680114D+02  0.243533D+11
      3 -0.233813D+01  0.682600D+02  0.243533D+11
      4  0.609041D+01  0.628860D+00  0.657571D+02  0.243533D+11
      5  0.321310D+01  0.593553D+01 -0.257616D+01  0.693696D+02  0.243533D+11
      6  0.710315D+02 -0.578893D+00  0.850885D+01  0.493496D+00  0.766617D+02
      7  0.171004D+03 -0.221129D+01  0.760078D+01 -0.169737D+01  0.485923D+01
      8 -0.160269D+01  0.179514D+03 -0.228896D+01  0.789224D+01 -0.219134D+01
      9 -0.226590D+01  0.779733D+01 -0.162713D+01  0.171444D+03 -0.158546D+01
     10  0.523752D+01 -0.168995D+01  0.813977D+01 -0.220608D+01  0.179278D+03
     11  0.430305D+01  0.380427D+01  0.484855D+02  0.256200D+01  0.373204D+01
     12  0.189441D+00  0.675164D+01 -0.739703D+01  0.734415D+01  0.976691D+00
     13 -0.500887D+00  0.517344D+01 -0.863865D+01  0.492668D+01 -0.857879D+00
     14 -0.955639D+00  0.199805D+01 -0.167943D+01  0.190355D+01 -0.119414D+01
     15  0.104117D+00 -0.153561D+00  0.762458D+01 -0.214800D+00  0.931271D-01
     16 -0.500492D-02 -0.736393D-01  0.147408D+01 -0.121364D+00 -0.218162D-01
     17  0.796462D+00  0.848445D-01 -0.280281D+00 -0.328023D+01 -0.124476D+02
     18  0.327204D+01 -0.883550D-01 -0.365785D+00  0.167779D+01  0.907463D+01
     19 -0.388825D-01 -0.312327D+00 -0.161466D+00 -0.414016D-01 -0.243723D-01
     20  0.604452D-01  0.130428D+00  0.489213D+00 -0.226126D-01  0.196536D-01
     21  0.857355D-02  0.526162D-01 -0.133204D+00 -0.792390D-02  0.558795D-02
     22 -0.124286D-01  0.236294D-01  0.752683D-01  0.203308D-01 -0.155159D-01
     23  0.738310D-02  0.719412D-02  0.280140D-02 -0.695199D-02  0.565432D-03
     24  0.250686D-01  0.116694D+00  0.367338D-01 -0.528667D-02 -0.707719D-02
     25  0.530942D-02  0.108071D-01  0.827928D-01 -0.512329D-02  0.159288D-02
     26 -0.463897D-02  0.858164D-02  0.140114D-01  0.783044D-02 -0.371192D-02
     27 -0.691196D-03 -0.802930D-03 -0.537075D-02  0.100571D-02  0.298754D-03
     28 -0.756200D-03  0.380440D-03 -0.733333D-02  0.586451D-03 -0.550599D-03
     29  0.273627D-02  0.157271D-02  0.337465D-01 -0.223457D-02 -0.338403D-02
     30 -0.194834D-02  0.396140D-02  0.185168D-01  0.337140D-02  0.136551D-02
     31  0.404459D-03  0.190506D-02 -0.562978D-02  0.124709D-03  0.848578D-04
     32 -0.151840D-02 -0.397273D-03  0.959480D-02  0.684051D-02  0.207825D-02
     33  0.291521D-02 -0.716590D-03 -0.155912D-01 -0.102645D-01  0.999938D-03
                6             7             8             9            10 
      6  0.243533D+11
      7 -0.429688D+01  0.385007D+12
      8  0.950584D+01  0.104471D+02  0.385007D+12
      9  0.942371D+01  0.120671D+01  0.127820D+01  0.385007D+12
     10 -0.553348D+01  0.201222D+01  0.122549D+01  0.109630D+02  0.385007D+12
     11 -0.923085D+00  0.956699D-01  0.596214D+01  0.500267D+01  0.241239D+00
     12  0.733709D-01  0.111775D+00 -0.722259D+00  0.259834D-01  0.205686D+00
     13  0.100758D+01  0.450759D+00 -0.951725D+00 -0.109877D+01  0.349779D+00
     14  0.114088D+01  0.368164D+00 -0.116066D+01 -0.100828D+01  0.436265D+00
     15  0.317446D-02  0.267544D-01  0.176413D-01  0.913165D-01  0.294195D-01
     16  0.251340D-01  0.652991D-02 -0.723963D-01  0.715803D-02  0.201078D-01
     17  0.127099D+02 -0.241762D+01 -0.297074D+00 -0.105716D+01 -0.298978D+01
     18 -0.511880D+01 -0.393911D+00  0.584619D-01  0.415137D+00  0.198803D-01
     19 -0.206053D-01  0.139707D-02 -0.359792D+00  0.342131D-02  0.192747D-01
     20 -0.484809D-02  0.630834D-02  0.348145D-01  0.855095D-01 -0.568843D-02
     21 -0.443853D-02 -0.165838D-02  0.682250D-02  0.569108D-01 -0.291288D-02
     22  0.174099D-01  0.616956D-02 -0.604242D-02 -0.656564D-02  0.616949D-02
     23 -0.338147D-02 -0.381574D-02  0.111295D-01 -0.134699D-02 -0.149872D-02
     24  0.216491D-02  0.854322D-02  0.137415D-01 -0.276454D-02 -0.626331D-03
     25  0.298345D-03  0.136517D-02  0.289801D-02  0.663039D-02 -0.637985D-03
     26  0.634543D-02  0.236313D-02 -0.493809D-02 -0.213108D-02  0.142458D-02
     27 -0.379606D-03 -0.163155D-03 -0.793906D-03  0.247774D-03 -0.155129D-03
     28  0.235748D-03  0.111329D-03 -0.631326D-03 -0.198660D-03  0.123532D-03
     29  0.115991D-02 -0.213182D-02  0.136828D-02 -0.111293D-02  0.111150D-02
     30  0.210563D-02  0.183970D-02 -0.289160D-03  0.895509D-03  0.410485D-03
     31  0.640664D-04 -0.285795D-03  0.156725D-04  0.310056D-03 -0.176258D-03
     32  0.939954D-03  0.163072D-02 -0.239630D-02  0.445204D-02  0.586020D-03
     33 -0.410708D-02 -0.668172D-03  0.326007D-02 -0.478284D-02 -0.126399D-02
               11            12            13            14            15 
     11  0.243533D+11
     12  0.143246D+03  0.385007D+12
     13  0.130610D+03 -0.270981D+02  0.385007D+12
     14  0.335635D+02 -0.443665D+01 -0.730037D+01  0.243533D+11
     15 -0.715103D+01  0.413411D+01  0.187101D+01  0.164037D+03  0.385007D+12
     16 -0.502851D+00  0.615238D+01  0.132107D+01  0.545056D+02 -0.104338D+02
     17 -0.666671D-01 -0.149914D-01 -0.184055D+00 -0.241204D+00  0.865765D-03
     18  0.877267D-01 -0.603951D-02 -0.146854D+00 -0.185258D+00  0.235389D-02
     19 -0.114454D+01 -0.460470D+00 -0.445990D+00 -0.522581D+01 -0.154708D+01
     20  0.669650D+00  0.109267D+01  0.426566D+01  0.747479D+01 -0.123689D+01
     21  0.417864D+01 -0.230410D+00 -0.111385D+01  0.178269D+01  0.624641D+01
     22  0.222933D-01  0.577909D-01  0.525629D-01  0.555712D+01  0.303872D+00
     23 -0.129379D+00  0.887748D-01  0.904844D-01  0.528659D+00 -0.231166D+00
     24  0.290976D+01  0.249873D+00  0.345242D+00 -0.431817D+00  0.305777D+01
     25 -0.533683D-01  0.814438D-01  0.322462D+00  0.130733D+01 -0.621642D+00
     26  0.120154D+00  0.865783D-02  0.157140D-01  0.233140D+00  0.520172D+00
     27 -0.427973D-01 -0.421159D-01 -0.387194D-01  0.161320D+00  0.792751D+00
     28 -0.284920D-01  0.187644D-01 -0.158078D-01  0.734083D+00 -0.780836D-01
     29 -0.743130D-01  0.206735D+00  0.100300D+00  0.132573D+01  0.166499D+00
     30  0.301127D+00 -0.300914D-01 -0.479029D-01 -0.648771D+00  0.945902D+00
     31  0.321559D-01  0.221398D-01  0.145615D-01 -0.176704D+00  0.122934D+00
     32  0.481254D+00 -0.180579D-01 -0.208036D-01 -0.687659D+00  0.482911D+00
     33 -0.156647D+00 -0.587760D-01 -0.108282D+00 -0.980741D+00 -0.983373D+00
               16            17            18            19            20 
     16  0.243533D+11
     17 -0.225038D-02  0.708114D+10
     18 -0.107598D-02 -0.842048D+02  0.385007D+12
     19  0.104993D+02  0.203939D-02  0.229495D-02  0.708114D+10
     20  0.158451D+00 -0.121016D-02  0.971276D-03 -0.320779D+00  0.201170D+10
     21  0.314244D+00  0.854392D-03  0.112032D-02 -0.253751D+00  0.698081D+02
     22  0.170857D+02 -0.258138D-02 -0.196978D-02 -0.193311D+01 -0.713383D-01
     23  0.303765D+01  0.361881D-03  0.221960D-03 -0.195314D+01 -0.185376D+00
     24  0.480068D-01 -0.112215D-02 -0.106745D-02  0.261251D-01  0.140385D+02
     25 -0.284935D+00 -0.424482D-03 -0.163857D-03 -0.578606D-01  0.701623D+01
     26  0.470967D+00 -0.146481D-02 -0.109779D-02  0.908407D-02  0.918013D+00
     27  0.774004D+00  0.491212D-05 -0.342525D-04 -0.317313D-01  0.745266D+00
     28 -0.897756D-02 -0.411642D-04 -0.665518D-04 -0.818708D-02  0.751726D+00
     29 -0.498560D+00 -0.287118D-03 -0.228211D-03 -0.661490D+00  0.856653D-01
     30  0.116038D+01 -0.388903D-03 -0.338387D-03 -0.992884D+00  0.329828D-01
     31  0.740574D+01 -0.497362D-04 -0.247013D-04 -0.753412D+00  0.170902D-01
     32  0.183981D+01 -0.445494D-03 -0.260339D-03 -0.101131D+01  0.613386D-02
     33 -0.519789D+00  0.100192D-02  0.521139D-03  0.246456D-01 -0.177200D+01
               21            22            23            24            25 
     21  0.385007D+12
     22  0.979808D-02  0.201170D+10
     23  0.177059D+00  0.714611D+02  0.385007D+12
     24  0.364834D+01  0.158570D-01 -0.765315D-02  0.243533D+11
     25  0.692601D+00 -0.175561D-01  0.378798D-01  0.529903D+02  0.243533D+11
     26 -0.350273D+00  0.105501D-01  0.950351D-02 -0.939154D+01  0.142801D+03
     27 -0.374618D+00  0.210920D-02  0.155167D-01 -0.932575D+01  0.139728D+03
     28 -0.314359D+00 -0.278166D-02  0.328321D-02 -0.587301D+01  0.133861D+03
     29 -0.289249D-01  0.964364D+01  0.261480D+01 -0.760123D-02  0.178065D-02
     30 -0.119806D-01 -0.133235D+01  0.388348D+01  0.250559D-01  0.530923D-02
     31 -0.108262D-01 -0.802377D+00  0.915252D+01  0.684807D-02 -0.192577D-02
     32  0.327053D-01 -0.146201D+01  0.291723D+01 -0.568516D-02 -0.130105D-03
     33 -0.169629D+01 -0.102682D+00 -0.752584D-01  0.103908D+02 -0.383160D+01
               26            27            28            29            30 
     26  0.385007D+12
     27 -0.289787D+02  0.385007D+12
     28 -0.229172D+02 -0.228683D+02  0.385007D+12
     29  0.143938D-02  0.916324D-03 -0.402338D-03  0.243533D+11
     30  0.523236D-02  0.613951D-03 -0.919410D-04  0.155618D+03  0.385007D+12
     31  0.767895D-02  0.257786D-02  0.307079D-03  0.143480D+03 -0.232013D+02
     32 -0.237206D-02 -0.547825D-02  0.795929D-03  0.158187D+03 -0.231733D+02
     33 -0.190693D+01 -0.186575D+01 -0.343394D+01  0.172317D-01 -0.543997D-01
               31            32            33 
     31  0.385007D+12
     32 -0.232384D+02  0.385007D+12
     33 -0.425855D-02 -0.422176D-01  0.708114D+10
 End of Minotr F.D. properties file   721 does not exist.
 End of Minotr F.D. properties file   722 does not exist.
 End of Minotr F.D. properties file   788 does not exist.
 Leave Link 1002 at Wed Jun 25 01:20:37 2014, MaxMem=  4294967296 cpu:    438927.5
 (Enter /home/ztw1e12/g09/l601.exe)
 Copying SCF densities to generalized density rwf, IOpCl= 0 IROHF=0.

 **********************************************************************

            Population analysis using the SCF density.

 **********************************************************************

 Orbital symmetries:
       Occupied  (A) (A) (A) (A) (A) (A) (A) (A) (A) (A) (A) (A)
                 (A) (A) (A) (A) (A) (A) (A) (A) (A) (A) (A) (A)
                 (A) (A) (A) (A) (A) (A) (A) (A) (A) (A) (A) (A)
                 (A) (A) (A) (A) (A) (A) (A) (A) (A) (A) (A) (A)
                 (A) (A) (A) (A) (A) (A) (A) (A) (A) (A) (A) (A)
                 (A) (A) (A)
       Virtual   (A) (A) (A) (A) (A) (A) (A) (A) (A) (A) (A) (A)
                 (A) (A) (A) (A) (A) (A) (A) (A) (A) (A) (A) (A)
                 (A) (A) (A) (A) (A) (A) (A) (A) (A) (A) (A) (A)
                 (A) (A) (A) (A) (A) (A) (A) (A) (A) (A) (A) (A)
                 (A) (A) (A) (A) (A) (A) (A) (A) (A) (A) (A) (A)
                 (A) (A) (A) (A) (A) (A) (A) (A) (A) (A) (A) (A)
                 (A) (A) (A) (A) (A) (A) (A) (A) (A) (A) (A) (A)
                 (A) (A) (A) (A) (A) (A) (A) (A) (A) (A) (A) (A)
                 (A) (A) (A) (A) (A) (A) (A) (A) (A) (A) (A) (A)
                 (A) (A) (A) (A) (A) (A) (A) (A) (A) (A) (A) (A)
                 (A) (A) (A) (A) (A) (A) (A) (A) (A) (A) (A) (A)
                 (A) (A) (A) (A) (A) (A) (A) (A) (A) (A) (A) (A)
                 (A) (A) (A) (A) (A) (A) (A) (A) (A) (A) (A) (A)
                 (A) (A) (A) (A) (A) (A) (A) (A) (A) (A) (A) (A)
                 (A) (A) (A) (A) (A) (A) (A) (A) (A) (A) (A) (A)
                 (A) (A) (A) (A) (A) (A) (A) (A) (A) (A) (A) (A)
                 (A) (A) (A) (A) (A) (A) (A) (A) (A) (A) (A) (A)
                 (A) (A) (A) (A) (A) (A) (A) (A) (A) (A) (A) (A)
                 (A) (A) (A) (A) (A) (A) (A) (A) (A) (A) (A) (A)
                 (A) (A) (A) (A) (A) (A) (A) (A) (A) (A) (A) (A)
                 (A) (A) (A) (A) (A) (A) (A) (A) (A) (A) (A) (A)
                 (A) (A) (A) (A) (A) (A) (A) (A) (A) (A) (A) (A)
                 (A) (A) (A) (A) (A) (A) (A) (A) (A) (A) (A) (A)
                 (A) (A) (A) (A) (A) (A) (A) (A) (A) (A) (A) (A)
                 (A) (A) (A) (A) (A) (A) (A) (A) (A) (A) (A) (A)
                 (A) (A) (A) (A) (A) (A) (A) (A) (A) (A) (A) (A)
                 (A) (A) (A) (A) (A) (A) (A) (A) (A) (A) (A) (A)
                 (A) (A) (A) (A) (A) (A) (A) (A) (A) (A) (A) (A)
                 (A) (A) (A) (A) (A) (A) (A) (A) (A) (A) (A) (A)
                 (A) (A) (A) (A) (A) (A) (A) (A) (A) (A) (A) (A)
                 (A) (A) (A) (A) (A) (A) (A) (A) (A) (A) (A) (A)
                 (A) (A) (A) (A) (A) (A) (A) (A) (A) (A) (A) (A)
                 (A) (A) (A) (A) (A) (A) (A) (A) (A) (A) (A) (A)
                 (A) (A) (A) (A) (A) (A) (A) (A) (A) (A) (A) (A)
                 (A) (A) (A) (A) (A) (A) (A) (A) (A) (A) (A) (A)
                 (A) (A) (A) (A) (A) (A) (A) (A) (A) (A) (A) (A)
                 (A) (A) (A) (A) (A) (A) (A) (A) (A) (A) (A) (A)
                 (A) (A) (A) (A) (A) (A) (A) (A) (A) (A) (A) (A)
                 (A) (A) (A) (A) (A) (A) (A) (A) (A) (A) (A) (A)
                 (A) (A) (A) (A) (A) (A) (A) (A) (A) (A) (A) (A)
                 (A) (A) (A) (A) (A) (A) (A) (A) (A) (A) (A) (A)
                 (A) (A) (A) (A) (A) (A) (A) (A) (A) (A) (A) (A)
                 (A) (A) (A) (A) (A) (A) (A) (A) (A) (A) (A) (A)
                 (A) (A) (A) (A) (A) (A) (A) (A) (A) (A) (A) (A)
                 (A) (A) (A) (A) (A) (A) (A) (A) (A) (A) (A) (A)
                 (A) (A) (A) (A) (A) (A) (A) (A) (A) (A) (A) (A)
                 (A) (A) (A) (A) (A) (A) (A) (A) (A) (A) (A) (A)
                 (A) (A) (A) (A) (A) (A) (A) (A) (A) (A) (A) (A)
                 (A) (A) (A) (A) (A) (A) (A) (A) (A) (A) (A) (A)
                 (A) (A) (A) (A) (A) (A) (A) (A) (A) (A) (A) (A)
                 (A) (A) (A) (A) (A) (A) (A) (A) (A) (A) (A) (A)
                 (A) (A) (A) (A) (A) (A) (A) (A) (A) (A) (A) (A)
                 (A) (A) (A) (A) (A) (A) (A) (A) (A) (A) (A) (A)
                 (A) (A) (A) (A) (A) (A) (A) (A) (A) (A) (A) (A)
                 (A) (A) (A) (A) (A) (A) (A) (A) (A) (A) (A) (A)
                 (A) (A) (A) (A) (A) (A) (A) (A) (A) (A) (A) (A)
                 (A) (A) (A) (A) (A) (A) (A) (A) (A) (A) (A) (A)
                 (A) (A) (A) (A) (A) (A) (A) (A) (A) (A) (A) (A)
                 (A) (A) (A) (A) (A) (A) (A) (A) (A) (A) (A) (A)
                 (A) (A) (A) (A) (A) (A) (A) (A) (A) (A) (A) (A)
                 (A) (A) (A) (A) (A) (A) (A) (A) (A) (A) (A) (A)
                 (A) (A) (A) (A) (A) (A) (A) (A) (A) (A) (A) (A)
                 (A) (A) (A) (A) (A) (A) (A) (A) (A) (A) (A) (A)
                 (A) (A) (A) (A) (A) (A) (A) (A) (A) (A) (A) (A)
                 (A) (A) (A) (A) (A) (A) (A) (A) (A) (A) (A) (A)
                 (A) (A) (A) (A) (A) (A) (A) (A) (A) (A) (A) (A)
                 (A) (A) (A) (A) (A) (A) (A) (A) (A) (A) (A) (A)
                 (A) (A) (A) (A) (A) (A) (A) (A) (A) (A) (A) (A)
                 (A) (A) (A) (A) (A) (A) (A) (A) (A) (A) (A) (A)
                 (A) (A) (A) (A) (A) (A) (A) (A) (A) (A) (A) (A)
                 (A) (A) (A) (A) (A) (A) (A) (A) (A) (A) (A) (A)
                 (A) (A) (A) (A) (A) (A) (A) (A) (A) (A) (A) (A)
                 (A) (A) (A) (A) (A) (A) (A) (A) (A) (A) (A) (A)
                 (A) (A) (A) (A) (A) (A) (A) (A) (A) (A) (A) (A)
                 (A) (A) (A) (A) (A) (A) (A) (A) (A) (A) (A) (A)
                 (A) (A) (A) (A) (A) (A) (A) (A) (A) (A) (A) (A)
                 (A) (A) (A) (A) (A) (A) (A) (A) (A) (A) (A) (A)
                 (A) (A) (A) (A) (A) (A) (A) (A) (A) (A) (A) (A)
                 (A) (A) (A) (A) (A) (A) (A) (A) (A) (A) (A) (A)
                 (A) (A) (A) (A) (A) (A) (A) (A) (A) (A) (A) (A)
                 (A) (A) (A) (A) (A) (A) (A) (A) (A) (A) (A) (A)
                 (A) (A) (A) (A) (A) (A) (A) (A) (A) (A) (A) (A)
                 (A) (A) (A) (A) (A) (A) (A) (A) (A) (A) (A) (A)
                 (A) (A) (A) (A) (A) (A) (A) (A) (A)
 The electronic state is 1-A.
 Alpha  occ. eigenvalues --  -19.24280 -19.18015 -19.16850 -14.43175 -14.41907
 Alpha  occ. eigenvalues --  -10.34936 -10.33383 -10.30266 -10.29187 -10.27190
 Alpha  occ. eigenvalues --  -10.25789 -10.25373 -10.24415 -10.24306 -10.24124
 Alpha  occ. eigenvalues --  -10.23891 -10.23610  -1.08574  -1.06201  -1.04749
 Alpha  occ. eigenvalues --   -0.96040  -0.93903  -0.87291  -0.81367  -0.77284
 Alpha  occ. eigenvalues --   -0.76158  -0.74269  -0.71816  -0.66735  -0.63625
 Alpha  occ. eigenvalues --   -0.61908  -0.60067  -0.59945  -0.55981  -0.55316
 Alpha  occ. eigenvalues --   -0.52041  -0.50871  -0.49474  -0.48752  -0.47278
 Alpha  occ. eigenvalues --   -0.46878  -0.45642  -0.44755  -0.43508  -0.43181
 Alpha  occ. eigenvalues --   -0.42750  -0.42624  -0.42275  -0.41581  -0.41190
 Alpha  occ. eigenvalues --   -0.40219  -0.39264  -0.37999  -0.36723  -0.36103
 Alpha  occ. eigenvalues --   -0.34794  -0.34515  -0.30406  -0.27766  -0.27371
 Alpha  occ. eigenvalues --   -0.26760  -0.25999  -0.23189
 Alpha virt. eigenvalues --   -0.00836   0.00295   0.01122   0.01707   0.02674
 Alpha virt. eigenvalues --    0.03414   0.03486   0.05038   0.05377   0.06639
 Alpha virt. eigenvalues --    0.07022   0.07997   0.09021   0.09727   0.10074
 Alpha virt. eigenvalues --    0.10701   0.11103   0.12366   0.12785   0.13108
 Alpha virt. eigenvalues --    0.15332   0.16228   0.16394   0.17434   0.18416
 Alpha virt. eigenvalues --    0.19676   0.20753   0.22908   0.23275   0.23419
 Alpha virt. eigenvalues --    0.23885   0.24979   0.25521   0.26230   0.26642
 Alpha virt. eigenvalues --    0.27153   0.27675   0.28130   0.29598   0.29941
 Alpha virt. eigenvalues --    0.30505   0.30953   0.31347   0.32250   0.33081
 Alpha virt. eigenvalues --    0.33424   0.33867   0.34482   0.34644   0.35391
 Alpha virt. eigenvalues --    0.35770   0.36412   0.36841   0.37028   0.37470
 Alpha virt. eigenvalues --    0.38274   0.38976   0.39275   0.39886   0.40102
 Alpha virt. eigenvalues --    0.40509   0.40870   0.41339   0.41425   0.41780
 Alpha virt. eigenvalues --    0.41910   0.42753   0.42945   0.43651   0.43809
 Alpha virt. eigenvalues --    0.44261   0.44822   0.45829   0.45907   0.46690
 Alpha virt. eigenvalues --    0.47075   0.48038   0.48130   0.49441   0.50285
 Alpha virt. eigenvalues --    0.50717   0.51344   0.51841   0.52281   0.52837
 Alpha virt. eigenvalues --    0.53537   0.54963   0.56028   0.56807   0.56905
 Alpha virt. eigenvalues --    0.57143   0.57870   0.59142   0.59784   0.60791
 Alpha virt. eigenvalues --    0.61522   0.63187   0.63401   0.63875   0.64974
 Alpha virt. eigenvalues --    0.65639   0.66081   0.66720   0.67169   0.68521
 Alpha virt. eigenvalues --    0.68670   0.70030   0.70441   0.70940   0.71900
 Alpha virt. eigenvalues --    0.72422   0.72895   0.73608   0.74823   0.76468
 Alpha virt. eigenvalues --    0.76618   0.77612   0.78379   0.79727   0.80283
 Alpha virt. eigenvalues --    0.80510   0.81265   0.82046   0.82913   0.83108
 Alpha virt. eigenvalues --    0.83703   0.84466   0.85109   0.85629   0.86129
 Alpha virt. eigenvalues --    0.87448   0.88058   0.88591   0.89704   0.89711
 Alpha virt. eigenvalues --    0.91419   0.92111   0.92705   0.93961   0.94602
 Alpha virt. eigenvalues --    0.94858   0.95360   0.95941   0.96905   0.97788
 Alpha virt. eigenvalues --    0.98256   0.99172   0.99886   1.00115   1.00964
 Alpha virt. eigenvalues --    1.01806   1.03381   1.03530   1.04318   1.05253
 Alpha virt. eigenvalues --    1.06007   1.07368   1.07694   1.07964   1.08310
 Alpha virt. eigenvalues --    1.09820   1.10332   1.12209   1.13197   1.14319
 Alpha virt. eigenvalues --    1.14454   1.15205   1.16174   1.16864   1.17140
 Alpha virt. eigenvalues --    1.18211   1.18722   1.18933   1.19175   1.19765
 Alpha virt. eigenvalues --    1.20590   1.21653   1.22005   1.22187   1.22361
 Alpha virt. eigenvalues --    1.23333   1.23786   1.24043   1.24770   1.25279
 Alpha virt. eigenvalues --    1.25729   1.26163   1.26839   1.27247   1.27744
 Alpha virt. eigenvalues --    1.28212   1.28613   1.29207   1.29334   1.30974
 Alpha virt. eigenvalues --    1.31561   1.31956   1.32281   1.33061   1.33976
 Alpha virt. eigenvalues --    1.34332   1.35229   1.35927   1.36784   1.37568
 Alpha virt. eigenvalues --    1.38843   1.39139   1.40113   1.42236   1.43318
 Alpha virt. eigenvalues --    1.45557   1.45662   1.46194   1.47737   1.51456
 Alpha virt. eigenvalues --    1.53299   1.53821   1.54102   1.55443   1.58528
 Alpha virt. eigenvalues --    1.58672   1.60708   1.61907   1.62332   1.62699
 Alpha virt. eigenvalues --    1.65161   1.65766   1.67705   1.68751   1.70857
 Alpha virt. eigenvalues --    1.73001   1.73429   1.74418   1.75328   1.78171
 Alpha virt. eigenvalues --    1.79875   1.80218   1.81771   1.83726   1.84481
 Alpha virt. eigenvalues --    1.85159   1.85926   1.88131   1.88742   1.89368
 Alpha virt. eigenvalues --    1.90992   1.91929   1.92618   1.94285   1.96162
 Alpha virt. eigenvalues --    1.97765   1.98616   1.99819   2.01480   2.03139
 Alpha virt. eigenvalues --    2.03382   2.04783   2.05782   2.08032   2.08345
 Alpha virt. eigenvalues --    2.09891   2.10148   2.11621   2.11848   2.13773
 Alpha virt. eigenvalues --    2.16336   2.17239   2.17631   2.19107   2.20599
 Alpha virt. eigenvalues --    2.21286   2.21707   2.22714   2.24877   2.26441
 Alpha virt. eigenvalues --    2.27625   2.28846   2.30151   2.31656   2.32208
 Alpha virt. eigenvalues --    2.33957   2.35242   2.35572   2.36840   2.37103
 Alpha virt. eigenvalues --    2.38316   2.39818   2.40800   2.41303   2.42270
 Alpha virt. eigenvalues --    2.42778   2.43603   2.44451   2.45019   2.47508
 Alpha virt. eigenvalues --    2.49277   2.49963   2.51823   2.53033   2.54644
 Alpha virt. eigenvalues --    2.56643   2.56930   2.57350   2.58713   2.60110
 Alpha virt. eigenvalues --    2.61783   2.63113   2.65491   2.66393   2.66917
 Alpha virt. eigenvalues --    2.67836   2.68575   2.68936   2.69191   2.69487
 Alpha virt. eigenvalues --    2.70325   2.70602   2.70856   2.72276   2.72422
 Alpha virt. eigenvalues --    2.73221   2.73851   2.74426   2.75546   2.76035
 Alpha virt. eigenvalues --    2.76825   2.77617   2.78711   2.78896   2.80895
 Alpha virt. eigenvalues --    2.82123   2.83150   2.84581   2.85908   2.86222
 Alpha virt. eigenvalues --    2.86520   2.87069   2.87528   2.88755   2.89276
 Alpha virt. eigenvalues --    2.89856   2.90571   2.90863   2.91675   2.92197
 Alpha virt. eigenvalues --    2.93146   2.93729   2.95007   2.95595   2.96136
 Alpha virt. eigenvalues --    2.96521   2.96664   2.97898   2.98447   2.98812
 Alpha virt. eigenvalues --    2.99431   3.00267   3.00863   3.01351   3.01688
 Alpha virt. eigenvalues --    3.02432   3.03222   3.03391   3.04307   3.04806
 Alpha virt. eigenvalues --    3.05136   3.05926   3.06766   3.07465   3.08497
 Alpha virt. eigenvalues --    3.10140   3.11112   3.12232   3.12572   3.13597
 Alpha virt. eigenvalues --    3.14009   3.14855   3.15535   3.15761   3.17067
 Alpha virt. eigenvalues --    3.17601   3.18153   3.18672   3.18706   3.19759
 Alpha virt. eigenvalues --    3.20815   3.21311   3.22552   3.22949   3.24369
 Alpha virt. eigenvalues --    3.25264   3.26259   3.26710   3.27286   3.27395
 Alpha virt. eigenvalues --    3.27880   3.28409   3.29811   3.30364   3.31011
 Alpha virt. eigenvalues --    3.31396   3.31918   3.33185   3.33313   3.33883
 Alpha virt. eigenvalues --    3.34673   3.36734   3.37421   3.37509   3.38588
 Alpha virt. eigenvalues --    3.39495   3.40584   3.41053   3.42062   3.43150
 Alpha virt. eigenvalues --    3.43856   3.44503   3.45069   3.45528   3.46424
 Alpha virt. eigenvalues --    3.46958   3.47443   3.48447   3.49782   3.50878
 Alpha virt. eigenvalues --    3.51699   3.52875   3.53779   3.54158   3.54470
 Alpha virt. eigenvalues --    3.55438   3.57594   3.58260   3.59431   3.60209
 Alpha virt. eigenvalues --    3.61566   3.62199   3.63750   3.64315   3.65105
 Alpha virt. eigenvalues --    3.67672   3.68220   3.68555   3.69614   3.70360
 Alpha virt. eigenvalues --    3.71377   3.72048   3.72854   3.73113   3.73816
 Alpha virt. eigenvalues --    3.74419   3.75217   3.75352   3.76409   3.77052
 Alpha virt. eigenvalues --    3.79147   3.79992   3.80647   3.80832   3.82127
 Alpha virt. eigenvalues --    3.83056   3.83554   3.84599   3.85111   3.85950
 Alpha virt. eigenvalues --    3.86752   3.87315   3.87817   3.88277   3.89382
 Alpha virt. eigenvalues --    3.90831   3.91607   3.92302   3.93508   3.95651
 Alpha virt. eigenvalues --    3.96134   3.97309   3.97647   3.98969   3.99747
 Alpha virt. eigenvalues --    4.00219   4.01678   4.02374   4.03956   4.04798
 Alpha virt. eigenvalues --    4.05567   4.06430   4.07041   4.07791   4.08974
 Alpha virt. eigenvalues --    4.09377   4.11232   4.12221   4.13083   4.14011
 Alpha virt. eigenvalues --    4.14415   4.15719   4.16528   4.16899   4.19086
 Alpha virt. eigenvalues --    4.19275   4.20345   4.21106   4.22194   4.22429
 Alpha virt. eigenvalues --    4.23834   4.24438   4.24851   4.26244   4.27290
 Alpha virt. eigenvalues --    4.27712   4.28798   4.29063   4.29673   4.30111
 Alpha virt. eigenvalues --    4.31199   4.32356   4.34508   4.35977   4.38290
 Alpha virt. eigenvalues --    4.38654   4.39397   4.41446   4.41630   4.45093
 Alpha virt. eigenvalues --    4.45461   4.45942   4.48031   4.49294   4.50642
 Alpha virt. eigenvalues --    4.52805   4.54447   4.55220   4.56966   4.58103
 Alpha virt. eigenvalues --    4.58729   4.60474   4.60951   4.61593   4.63440
 Alpha virt. eigenvalues --    4.64923   4.65265   4.66180   4.66774   4.67360
 Alpha virt. eigenvalues --    4.69241   4.70637   4.71229   4.71999   4.73348
 Alpha virt. eigenvalues --    4.74558   4.76613   4.77759   4.78346   4.78980
 Alpha virt. eigenvalues --    4.80156   4.82859   4.84782   4.85836   4.86156
 Alpha virt. eigenvalues --    4.86946   4.89284   4.90000   4.90578   4.91203
 Alpha virt. eigenvalues --    4.91828   4.94320   4.94386   4.95756   4.96425
 Alpha virt. eigenvalues --    4.97182   4.98398   5.00630   5.00812   5.02731
 Alpha virt. eigenvalues --    5.03882   5.04502   5.06264   5.07734   5.08730
 Alpha virt. eigenvalues --    5.10351   5.10978   5.12040   5.13762   5.14517
 Alpha virt. eigenvalues --    5.16384   5.16620   5.17657   5.18277   5.19137
 Alpha virt. eigenvalues --    5.20379   5.22366   5.22934   5.24397   5.26704
 Alpha virt. eigenvalues --    5.30092   5.31364   5.33345   5.35607   5.36731
 Alpha virt. eigenvalues --    5.39979   5.43904   5.44566   5.45789   5.46203
 Alpha virt. eigenvalues --    5.50790   5.52086   5.52650   5.52969   5.55718
 Alpha virt. eigenvalues --    5.57425   5.57554   5.58522   5.60311   5.63108
 Alpha virt. eigenvalues --    5.63582   5.64549   5.65596   5.66270   5.67766
 Alpha virt. eigenvalues --    5.68549   5.69367   5.71394   5.72345   5.74053
 Alpha virt. eigenvalues --    5.75165   5.77193   5.78998   5.79709   5.80656
 Alpha virt. eigenvalues --    5.84873   5.86184   5.90389   5.91709   5.96101
 Alpha virt. eigenvalues --    5.97625   5.98649   6.02583   6.06068   6.10117
 Alpha virt. eigenvalues --    6.16652   6.18236   6.18428   6.19390   6.28367
 Alpha virt. eigenvalues --    6.46462   6.47259   6.49553   6.53633   6.56165
 Alpha virt. eigenvalues --    6.60037   6.61396   6.63059   6.64046   6.67139
 Alpha virt. eigenvalues --    6.79458   6.80819   6.81556   6.88575   6.88838
 Alpha virt. eigenvalues --    6.90861   6.91536   6.92163   6.92442   7.07152
 Alpha virt. eigenvalues --    7.17075   7.18203   7.23056   7.26970   7.29933
 Alpha virt. eigenvalues --    7.68109   7.99373   8.10448   8.12754   8.14528
 Alpha virt. eigenvalues --    8.19419   8.20459   8.23671   8.36101   8.65720
 Alpha virt. eigenvalues --    8.73433   8.76502   8.77318   8.80558   8.82020
 Alpha virt. eigenvalues --    8.83284   8.84413   8.85685   8.87469   8.91246
 Alpha virt. eigenvalues --    8.93326   8.97123   8.98114   8.98932   9.08748
 Alpha virt. eigenvalues --    9.11015   9.13010   9.17251   9.20882   9.32115
 Alpha virt. eigenvalues --    9.36191   9.40948   9.41786   9.46529   9.49216
 Alpha virt. eigenvalues --    9.57524   9.61147   9.77265   9.81523  10.02324
 Alpha virt. eigenvalues --   10.07770  10.09907  10.11081  10.13440  10.17236
[...]
 Alpha virt. eigenvalues --    6.55107   6.62016   6.62759   6.64644   6.69053
 Alpha virt. eigenvalues --    6.78978   6.81241   6.86484   6.86937   6.89260
 Alpha virt. eigenvalues --    6.91011   6.93459   7.08546   7.08947   7.09834
 Alpha virt. eigenvalues --    7.15211   7.18746   7.29270   7.44179   8.59074
 Alpha virt. eigenvalues --    9.44577   9.84967  11.85050  12.11627  12.29471
 Alpha virt. eigenvalues --   12.43713  12.51536  12.77157  12.93113  13.19399
 Alpha virt. eigenvalues --   13.43696  13.52975  13.55952  13.74078  14.01481
 Alpha virt. eigenvalues --   15.54449
          Condensed to atoms (all electrons):
               1          2          3          4          5          6
     1  C    5.417804   0.225531   0.012865  -0.046209  -0.021620   0.302842
     2  C    0.225531   5.316463   0.288326  -0.016053  -0.034469   0.028669
     3  C    0.012865   0.288326   5.464384   0.277848  -0.036760  -0.078142
     4  C   -0.046209  -0.016053   0.277848   5.223333   0.436494  -0.020075
     5  C   -0.021620  -0.034469  -0.036760   0.436494   5.064717   0.386003
     6  C    0.302842   0.028669  -0.078142  -0.020075   0.386003   4.879252
     7  H    0.452680  -0.035991   0.008948  -0.001035   0.004705  -0.074426
     8  H   -0.027330   0.440119  -0.078703   0.007135  -0.001621   0.007903
     9  H   -0.003516   0.006973  -0.111540   0.458290  -0.027916   0.012486
    10  H    0.013731  -0.005739   0.015279  -0.055262   0.451328  -0.080101
    11  C    0.005364  -0.059504   0.171301  -0.032949   0.001776   0.000314
    12  H    0.000450  -0.003747  -0.036566   0.006440  -0.000160  -0.000005
    13  H   -0.000319   0.005126  -0.044797  -0.008930  -0.000206   0.000110
    14  C    0.000225   0.001725   0.016529  -0.017314   0.000322  -0.000307
    15  H    0.000198   0.003128   0.014986  -0.010585   0.000472  -0.000300
    16  C   -0.000174  -0.002833  -0.005210   0.004066  -0.000009   0.000024
    17  O   -0.090183   0.013286  -0.000582   0.002789  -0.048734   0.391808
    18  H   -0.004846   0.004572  -0.000420  -0.000750   0.002411  -0.043679
    19  O   -0.000078   0.004802  -0.009552  -0.000230   0.000015   0.000018
    20  N   -0.000029   0.000392  -0.013184   0.004227   0.000180   0.000022
    21  H    0.000002  -0.000099   0.001054   0.000546  -0.000031   0.000001
    22  N    0.000001   0.000197   0.001180  -0.000065   0.000000   0.000000
    23  H    0.000001   0.000002   0.000189  -0.000057   0.000000   0.000000
    24  C   -0.000004   0.000078  -0.001467  -0.000043  -0.000030   0.000001
    25  C    0.000000   0.000002  -0.000052  -0.000034   0.000001   0.000000
    26  H    0.000000   0.000000   0.000025  -0.000003  -0.000001   0.000000
    27  H    0.000000   0.000000  -0.000010   0.000003   0.000000   0.000000
    28  H    0.000000   0.000000  -0.000012  -0.000002   0.000000   0.000000
    29  C   -0.000001  -0.000031   0.000056   0.000008   0.000000   0.000000
    30  H    0.000000   0.000004  -0.000089   0.000001   0.000000   0.000000
    31  H    0.000000   0.000000   0.000001   0.000000   0.000000   0.000000
    32  H    0.000000  -0.000005   0.000038   0.000001   0.000000   0.000000
    33  O    0.000000   0.000001   0.000203  -0.000152  -0.000006   0.000000
               7          8          9         10         11         12
     1  C    0.452680  -0.027330  -0.003516   0.013731   0.005364   0.000450
     2  C   -0.035991   0.440119   0.006973  -0.005739  -0.059504  -0.003747
     3  C    0.008948  -0.078703  -0.111540   0.015279   0.171301  -0.036566
     4  C   -0.001035   0.007135   0.458290  -0.055262  -0.032949   0.006440
     5  C    0.004705  -0.001621  -0.027916   0.451328   0.001776  -0.000160
     6  C   -0.074426   0.007903   0.012486  -0.080101   0.000314  -0.000005
     7  H    0.537829  -0.007212   0.000042  -0.000220  -0.000458  -0.000045
     8  H   -0.007212   0.507623  -0.000233   0.000037   0.002801   0.002863
     9  H    0.000042  -0.000233   0.517408  -0.010240   0.007328   0.000357
    10  H   -0.000220   0.000037  -0.010240   0.543943  -0.000423   0.000016
    11  C   -0.000458   0.002801   0.007328  -0.000423   5.444183   0.415296
    12  H   -0.000045   0.002863   0.000357   0.000016   0.415296   0.458554
    13  H    0.000016   0.000556  -0.001283  -0.000033   0.434136  -0.006417
    14  C    0.000032  -0.000973  -0.003526   0.000093   0.104258  -0.038033
    15  H    0.000021   0.000212  -0.002315   0.000108  -0.042323   0.002849
    16  C   -0.000009   0.000406   0.000672  -0.000004  -0.024671   0.000851
    17  O   -0.004131  -0.000100  -0.000146   0.006412   0.000001  -0.000001
    18  H    0.004574   0.000001   0.000046  -0.000952  -0.000006   0.000000
    19  O   -0.000012   0.005383  -0.000023   0.000000   0.013062  -0.001978
    20  N    0.000000   0.000046   0.006524  -0.000024  -0.015513   0.001280
    21  H    0.000000  -0.000001   0.000517   0.000000  -0.000955   0.000991
    22  N    0.000000   0.000049  -0.000003   0.000000   0.001070   0.000286
    23  H    0.000000  -0.000013  -0.000027   0.000000   0.000393   0.000069
    24  C    0.000000   0.000011  -0.000189  -0.000001   0.013669  -0.000353
    25  C    0.000000   0.000000   0.000072   0.000000   0.000262   0.000023
    26  H    0.000000   0.000000  -0.000056   0.000000  -0.000024  -0.000002
    27  H    0.000000   0.000000   0.000014   0.000000   0.000011   0.000000
    28  H    0.000000   0.000000   0.000033   0.000000  -0.000238  -0.000004
    29  C    0.000000  -0.000013   0.000001   0.000000  -0.000872  -0.000062
    30  H    0.000000   0.000033   0.000000   0.000000   0.000188   0.000000
    31  H    0.000000   0.000000   0.000000   0.000000  -0.000039  -0.000002
    32  H    0.000000  -0.000009   0.000000   0.000000  -0.000125   0.000024
    33  O    0.000000  -0.000001  -0.000290   0.000001   0.001726   0.000032
              13         14         15         16         17         18
     1  C   -0.000319   0.000225   0.000198  -0.000174  -0.090183  -0.004846
     2  C    0.005126   0.001725   0.003128  -0.002833   0.013286   0.004572
     3  C   -0.044797   0.016529   0.014986  -0.005210  -0.000582  -0.000420
     4  C   -0.008930  -0.017314  -0.010585   0.004066   0.002789  -0.000750
     5  C   -0.000206   0.000322   0.000472  -0.000009  -0.048734   0.002411
     6  C    0.000110  -0.000307  -0.000300   0.000024   0.391808  -0.043679
     7  H    0.000016   0.000032   0.000021  -0.000009  -0.004131   0.004574
     8  H    0.000556  -0.000973   0.000212   0.000406  -0.000100   0.000001
     9  H   -0.001283  -0.003526  -0.002315   0.000672  -0.000146   0.000046
    10  H   -0.000033   0.000093   0.000108  -0.000004   0.006412  -0.000952
    11  C    0.434136   0.104258  -0.042323  -0.024671   0.000001  -0.000006
    12  H   -0.006417  -0.038033   0.002849   0.000851  -0.000001   0.000000
    13  H    0.480384  -0.062639   0.001639   0.002314   0.000000   0.000000
    14  C   -0.062639   5.591999   0.435792   0.219437   0.000001   0.000000
    15  H    0.001639   0.435792   0.438534  -0.051794   0.000000   0.000000
    16  C    0.002314   0.219437  -0.051794   4.600468   0.000000   0.000000
    17  O    0.000000   0.000001   0.000000   0.000000   7.665740   0.359858
    18  H    0.000000   0.000000   0.000000   0.000000   0.359858   0.490538
    19  O    0.000663  -0.082001   0.005117   0.723785   0.000000   0.000000
    20  N   -0.008625   0.111393  -0.044301  -0.027948   0.000000   0.000000
    21  H    0.008117  -0.019011   0.003269  -0.001272   0.000000   0.000000
    22  N   -0.000109  -0.091724   0.002170   0.361043   0.000000   0.000000
    23  H   -0.000157  -0.003486   0.001425  -0.029770   0.000000   0.000000
    24  C    0.000940  -0.093445  -0.009508   0.010379   0.000000   0.000000
    25  C   -0.000115   0.005044   0.001626  -0.000303   0.000000   0.000000
    26  H    0.000005  -0.000012   0.000130  -0.000148   0.000000   0.000000
    27  H    0.000003  -0.000367  -0.000220   0.000353   0.000000   0.000000
    28  H   -0.000065   0.001410  -0.000379  -0.000234   0.000000   0.000000
    29  C    0.000024   0.012226  -0.000634  -0.055435   0.000000   0.000000
    30  H    0.000027  -0.000167  -0.000177  -0.003973   0.000000   0.000000
    31  H   -0.000002   0.000781  -0.000010   0.007375   0.000000   0.000000
    32  H   -0.000007   0.000450   0.000211  -0.004628   0.000000   0.000000
    33  O   -0.000013   0.001028   0.019322   0.006304   0.000000   0.000000
              19         20         21         22         23         24
     1  C   -0.000078  -0.000029   0.000002   0.000001   0.000001  -0.000004
     2  C    0.004802   0.000392  -0.000099   0.000197   0.000002   0.000078
     3  C   -0.009552  -0.013184   0.001054   0.001180   0.000189  -0.001467
     4  C   -0.000230   0.004227   0.000546  -0.000065  -0.000057  -0.000043
     5  C    0.000015   0.000180  -0.000031   0.000000   0.000000  -0.000030
     6  C    0.000018   0.000022   0.000001   0.000000   0.000000   0.000001
     7  H   -0.000012   0.000000   0.000000   0.000000   0.000000   0.000000
     8  H    0.005383   0.000046  -0.000001   0.000049  -0.000013   0.000011
     9  H   -0.000023   0.006524   0.000517  -0.000003  -0.000027  -0.000189
    10  H    0.000000  -0.000024   0.000000   0.000000   0.000000  -0.000001
    11  C    0.013062  -0.015513  -0.000955   0.001070   0.000393   0.013669
    12  H   -0.001978   0.001280   0.000991   0.000286   0.000069  -0.000353
    13  H    0.000663  -0.008625   0.008117  -0.000109  -0.000157   0.000940
    14  C   -0.082001   0.111393  -0.019011  -0.091724  -0.003486  -0.093445
    15  H    0.005117  -0.044301   0.003269   0.002170   0.001425  -0.009508
    16  C    0.723785  -0.027948  -0.001272   0.361043  -0.029770   0.010379
    17  O    0.000000   0.000000   0.000000   0.000000   0.000000   0.000000
    18  H    0.000000   0.000000   0.000000   0.000000   0.000000   0.000000
    19  O    7.845054   0.005472  -0.000159  -0.127236   0.005173  -0.000631
    20  N    0.005472   6.707387   0.358412   0.001262   0.025826   0.297832
    21  H   -0.000159   0.358412   0.507446   0.000306   0.000448  -0.018039
    22  N   -0.127236   0.001262   0.000306   6.439193   0.384641   0.007004
    23  H    0.005173   0.025826   0.000448   0.384641   0.521231  -0.006830
    24  C   -0.000631   0.297832  -0.018039   0.007004  -0.006830   4.652788
    25  C   -0.000003  -0.064575  -0.001515  -0.000447   0.000200   0.278718
    26  H    0.000000   0.001054   0.000040   0.000000   0.000191  -0.028302
    27  H   -0.000002  -0.002149  -0.000093   0.000252  -0.000665  -0.022202
    28  H    0.000000   0.013414  -0.000833   0.000149  -0.000001  -0.060204
    29  C    0.007709  -0.001807   0.000031   0.288800  -0.032676   0.000156
    30  H    0.005030  -0.000109  -0.000018  -0.046327   0.001142   0.000181
    31  H    0.001505  -0.000188   0.000018  -0.027729  -0.007902  -0.000063
    32  H    0.005583  -0.000173   0.000017  -0.048927   0.003575  -0.000392
    33  O   -0.000011  -0.132265   0.005020  -0.005993  -0.003671   0.718851
              25         26         27         28         29         30
     1  C    0.000000   0.000000   0.000000   0.000000  -0.000001   0.000000
     2  C    0.000002   0.000000   0.000000   0.000000  -0.000031   0.000004
     3  C   -0.000052   0.000025  -0.000010  -0.000012   0.000056  -0.000089
     4  C   -0.000034  -0.000003   0.000003  -0.000002   0.000008   0.000001
     5  C    0.000001  -0.000001   0.000000   0.000000   0.000000   0.000000
     6  C    0.000000   0.000000   0.000000   0.000000   0.000000   0.000000
     7  H    0.000000   0.000000   0.000000   0.000000   0.000000   0.000000
     8  H    0.000000   0.000000   0.000000   0.000000  -0.000013   0.000033
     9  H    0.000072  -0.000056   0.000014   0.000033   0.000001   0.000000
    10  H    0.000000   0.000000   0.000000   0.000000   0.000000   0.000000
    11  C    0.000262  -0.000024   0.000011  -0.000238  -0.000872   0.000188
    12  H    0.000023  -0.000002   0.000000  -0.000004  -0.000062   0.000000
    13  H   -0.000115   0.000005   0.000003  -0.000065   0.000024   0.000027
    14  C    0.005044  -0.000012  -0.000367   0.001410   0.012226  -0.000167
    15  H    0.001626   0.000130  -0.000220  -0.000379  -0.000634  -0.000177
    16  C   -0.000303  -0.000148   0.000353  -0.000234  -0.055435  -0.003973
    17  O    0.000000   0.000000   0.000000   0.000000   0.000000   0.000000
    18  H    0.000000   0.000000   0.000000   0.000000   0.000000   0.000000
    19  O   -0.000003   0.000000  -0.000002   0.000000   0.007709   0.005030
    20  N   -0.064575   0.001054  -0.002149   0.013414  -0.001807  -0.000109
    21  H   -0.001515   0.000040  -0.000093  -0.000833   0.000031  -0.000018
    22  N   -0.000447   0.000000   0.000252   0.000149   0.288800  -0.046327
    23  H    0.000200   0.000191  -0.000665  -0.000001  -0.032676   0.001142
    24  C    0.278718  -0.028302  -0.022202  -0.060204   0.000156   0.000181
    25  C    4.992421   0.392579   0.380293   0.397556  -0.000056   0.000001
    26  H    0.392579   0.555733  -0.023031  -0.025090  -0.000002   0.000000
    27  H    0.380293  -0.023031   0.574811  -0.026946   0.000025   0.000003
    28  H    0.397556  -0.025090  -0.026946   0.597776   0.000004   0.000000
    29  C   -0.000056  -0.000002   0.000025   0.000004   4.756850   0.395428
    30  H    0.000001   0.000000   0.000003   0.000000   0.395428   0.622481
    31  H   -0.000012   0.000000   0.000017   0.000001   0.394894  -0.029159
    32  H   -0.000010  -0.000001  -0.000001  -0.000001   0.402580  -0.055364
    33  O   -0.068658   0.001987   0.001137   0.004507   0.000216   0.000003
              31         32         33
     1  C    0.000000   0.000000   0.000000
     2  C    0.000000  -0.000005   0.000001
     3  C    0.000001   0.000038   0.000203
     4  C    0.000000   0.000001  -0.000152
     5  C    0.000000   0.000000  -0.000006
     6  C    0.000000   0.000000   0.000000
     7  H    0.000000   0.000000   0.000000
     8  H    0.000000  -0.000009  -0.000001
     9  H    0.000000   0.000000  -0.000290
    10  H    0.000000   0.000000   0.000001
    11  C   -0.000039  -0.000125   0.001726
    12  H   -0.000002   0.000024   0.000032
    13  H   -0.000002  -0.000007  -0.000013
    14  C    0.000781   0.000450   0.001028
    15  H   -0.000010   0.000211   0.019322
    16  C    0.007375  -0.004628   0.006304
    17  O    0.000000   0.000000   0.000000
    18  H    0.000000   0.000000   0.000000
    19  O    0.001505   0.005583  -0.000011
    20  N   -0.000188  -0.000173  -0.132265
    21  H    0.000018   0.000017   0.005020
    22  N   -0.027729  -0.048927  -0.005993
    23  H   -0.007902   0.003575  -0.003671
    24  C   -0.000063  -0.000392   0.718851
    25  C   -0.000012  -0.000010  -0.068658
    26  H    0.000000  -0.000001   0.001987
    27  H    0.000017  -0.000001   0.001137
    28  H    0.000001  -0.000001   0.004507
    29  C    0.394894   0.402580   0.000216
    30  H   -0.029159  -0.055364   0.000003
    31  H    0.602553  -0.026276   0.000009
    32  H   -0.026276   0.605575   0.000205
    33  O    0.000009   0.000205   7.829916
 Mulliken charges:
               1
     1  C   -0.237383
     2  C   -0.180925
     3  C    0.143873
     4  C   -0.211433
     5  C   -0.176861
     6  C    0.287582
     7  H    0.114692
     8  H    0.141031
     9  H    0.150540
    10  H    0.122052
    11  C   -0.439041
    12  H    0.196993
    13  H    0.199658
    14  C   -0.089739
    15  H    0.231340
    16  C    0.270936
    17  O   -0.296018
    18  H    0.188652
    19  O   -0.406457
    20  N   -0.223831
    21  H    0.155792
    22  N   -0.139045
    23  H    0.140746
    24  C    0.261094
    25  C   -0.313019
    26  H    0.124928
    27  H    0.118764
    28  H    0.099155
    29  C   -0.167419
    30  H    0.110862
    31  H    0.084229
    32  H    0.117660
    33  O   -0.379408
 Sum of Mulliken charges =   0.00000
 Mulliken charges with hydrogens summed into heavy atoms:
               1
     1  C   -0.122691
     2  C   -0.039894
     3  C    0.143873
     4  C   -0.060893
     5  C   -0.054809
     6  C    0.287582
    11  C   -0.042390
    14  C    0.141601
    16  C    0.270936
    17  O   -0.107366
    19  O   -0.406457
    20  N   -0.068039
    22  N    0.001701
    24  C    0.261094
    25  C    0.029829
    29  C    0.145332
    33  O   -0.379408
 Electronic spatial extent (au):  <R**2>=           5400.6140
 Charge=              0.0000 electrons
 Dipole moment (field-independent basis, Debye):
    X=              1.8013    Y=              0.9820    Z=             -4.8554  Tot=              5.2711
 Quadrupole moment (field-independent basis, Debye-Ang):
   XX=            -81.3598   YY=            -96.2539   ZZ=           -105.7084
   XY=              8.1460   XZ=            -12.9666   YZ=             -3.4667
 Traceless Quadrupole moment (field-independent basis, Debye-Ang):
   XX=             13.0809   YY=             -1.8132   ZZ=            -11.2677
   XY=              8.1460   XZ=            -12.9666   YZ=             -3.4667
 Octapole moment (field-independent basis, Debye-Ang**2):
  XXX=             26.9535  YYY=             24.2543  ZZZ=             -2.5547  XYY=             10.6981
  XXY=            -63.7380  XXZ=             -2.3399  XZZ=             -0.4050  YZZ=             -4.4195
  YYZ=            -11.3741  XYZ=             -3.8050
 Hexadecapole moment (field-independent basis, Debye-Ang**3):
 XXXX=          -4463.7022 YYYY=          -1514.8525 ZZZZ=           -388.5954 XXXY=            248.1266
 XXXZ=           -175.6192 YYYX=             21.6382 YYYZ=             18.8885 ZZZX=            -44.8865
 ZZZY=            -23.4893 XXYY=           -971.1902 XXZZ=           -954.5753 YYZZ=           -341.7222
 XXYZ=            -81.5591 YYXZ=            -25.3442 ZZXY=             -7.9827
 N-N= 1.193785815265D+03 E-N=-4.258075160350D+03  KE= 7.961923002143D+02
 Calculating spin-rotation constants.
 Leave Link  601 at Wed Jun 25 06:03:39 2014, MaxMem=  4294967296 cpu:        91.8
 (Enter /home/ztw1e12/g09/l9999.exe)

 Test job not archived.
 1\1\GINC-GREEN0516\SP\RM06\Gen\C12H16N2O3\ROOT\25-Jun-2014\0\\#P Geom=
 AllCheck Guess=TCheck SCRF=Check GenChk RM06/ChkBas NMR=ReadFC IOp(3/6
 =22)\\NMR spin-spin scan\\0,1\C,0,2.733372,-2.172798,1.758372\C,0,2.14
 1302,-0.947729,1.498215\C,0,1.567932,-0.671643,0.265444\C,0,1.599216,-
 1.663737,-0.709956\C,0,2.182032,-2.891755,-0.46573\C,0,2.751574,-3.147
 754,0.774449\H,0,3.180346,-2.379407,2.724155\H,0,2.121893,-0.189811,2.
 27346\H,0,1.157494,-1.468817,-1.681611\H,0,2.207521,-3.661342,-1.22684
 5\C,0,0.896688,0.641229,0.000785\H,0,1.194879,1.363423,0.762249\H,0,1.
 240168,1.041899,-0.956384\C,0,-0.64383,0.541553,-0.044871\H,0,-0.93772
 1,-0.495427,0.142084\C,0,-1.226573,1.312615,1.124178\O,0,3.315052,-4.3
 7327,0.971309\H,0,3.663062,-4.425532,1.868741\O,0,-0.99998,0.911799,2.
 266393\N,0,-1.159723,0.913908,-1.343473\H,0,-0.566163,1.432367,-1.9730
 72\N,0,-1.929197,2.413736,0.867956\H,0,-2.114459,2.661939,-0.090147\C,
 0,-2.385546,0.539717,-1.763428\C,0,-2.768889,0.958479,-3.143798\H,0,-3
 .03901,0.07123,-3.715904\H,0,-3.655347,1.589813,-3.083436\H,0,-1.98014
 9,1.496934,-3.664287\C,0,-2.515764,3.202641,1.927829\H,0,-1.746843,3.6
 02395,2.589007\H,0,-3.061795,4.031333,1.487958\H,0,-3.204355,2.605454,
 2.526144\O,0,-3.146342,-0.105908,-1.046915\\Version=EM64L-G09RevD.01\S
 tate=1-A\HF=-801.8575844\RMSD=4.392e-09\Dipole=0.6858885,1.5439899,-1.
 20264\Quadrupole=-7.0005143,4.3462141,2.6543001,-8.4753955,7.5972691,-
 7.2474172\PG=C01 [X(C12H16N2O3)]\\@


 IN THE UNIVERSE THE DIFFICULT THINGS ARE DONE AS IF THEY WERE EASY.

                                                          -- LAO-TSU
 Job cpu time:       3 days  3 hours  4 minutes 43.9 seconds.
 File lengths (MBytes):  RWF=   3656 Int=      0 D2E=      0 Chk=     64 Scr=      8
 Normal termination of Gaussian 09 at Wed Jun 25 06:03:39 2014.
