 Entering Gaussian System, Link 0=g09
 Input=scan_input_17.gjf
 Output=scan_input_17.log
 Initial command:
 /home/ztw1e12/g09/l1.exe "/home/ztw1e12/tyrosine_scan/tyrosine_chi1_scan/Gau-27299.inp" -scrdir="/home/ztw1e12/tyrosine_scan/tyrosine_chi1_scan/"
 Default is to use a total of   8 processors:
                                8 via shared-memory
                                1 via Linda
 Entering Link 1 = /home/ztw1e12/g09/l1.exe PID=     27300.
  
 Copyright (c) 1988,1990,1992,1993,1995,1998,2003,2009,2013,
            Gaussian, Inc.  All Rights Reserved.
  
 This is part of the Gaussian(R) 09 program.  It is based on
 the Gaussian(R) 03 system (copyright 2003, Gaussian, Inc.),
 the Gaussian(R) 98 system (copyright 1998, Gaussian, Inc.),
 the Gaussian(R) 94 system (copyright 1995, Gaussian, Inc.),
 the Gaussian 92(TM) system (copyright 1992, Gaussian, Inc.),
 the Gaussian 90(TM) system (copyright 1990, Gaussian, Inc.),
 the Gaussian 88(TM) system (copyright 1988, Gaussian, Inc.),
 the Gaussian 86(TM) system (copyright 1986, Carnegie Mellon
 University), and the Gaussian 82(TM) system (copyright 1983,
 Carnegie Mellon University). Gaussian is a federally registered
 trademark of Gaussian, Inc.
  
 This software contains proprietary and confidential information,
 including trade secrets, belonging to Gaussian, Inc.
  
 This software is provided under written license and may be
 used, copied, transmitted, or stored only in accord with that
 written license.
  
 The following legend is applicable only to US Government
 contracts under FAR:
  
                    RESTRICTED RIGHTS LEGEND
  
 Use, reproduction and disclosure by the US Government is
 subject to restrictions as set forth in subparagraphs (a)
 and (c) of the Commercial Computer Software - Restricted
 Rights clause in FAR 52.227-19.
  
 Gaussian, Inc.
 340 Quinnipiac St., Bldg. 40, Wallingford CT 06492
  
  
 ---------------------------------------------------------------
 Warning -- This program may not be used in any manner that
 competes with the business of Gaussian, Inc. or will provide
 assistance to any competitor of Gaussian, Inc.  The licensee
 of this program is prohibited from giving any competitor of
 Gaussian, Inc. access to this program.  By using this program,
 the user acknowledges that Gaussian, Inc. is engaged in the
 business of creating and licensing software in the field of
 computational chemistry and represents and warrants to the
 licensee that it is not a competitor of Gaussian, Inc. and that
 it will not use this program in any manner prohibited above.
 ---------------------------------------------------------------
  

 Cite this work as:
 Gaussian 09, Revision D.01,
 M. J. Frisch, G. W. Trucks, H. B. Schlegel, G. E. Scuseria, 
 M. A. Robb, J. R. Cheeseman, G. Scalmani, V. Barone, B. Mennucci, 
 G. A. Petersson, H. Nakatsuji, M. Caricato, X. Li, H. P. Hratchian, 
 A. F. Izmaylov, J. Bloino, G. Zheng, J. L. Sonnenberg, M. Hada, 
 M. Ehara, K. Toyota, R. Fukuda, J. Hasegawa, M. Ishida, T. Nakajima, 
 Y. Honda, O. Kitao, H. Nakai, T. Vreven, J. A. Montgomery, Jr., 
 J. E. Peralta, F. Ogliaro, M. Bearpark, J. J. Heyd, E. Brothers, 
 K. N. Kudin, V. N. Staroverov, T. Keith, R. Kobayashi, J. Normand, 
 K. Raghavachari, A. Rendell, J. C. Burant, S. S. Iyengar, J. Tomasi, 
 M. Cossi, N. Rega, J. M. Millam, M. Klene, J. E. Knox, J. B. Cross, 
 V. Bakken, C. Adamo, J. Jaramillo, R. Gomperts, R. E. Stratmann, 
 O. Yazyev, A. J. Austin, R. Cammi, C. Pomelli, J. W. Ochterski, 
 R. L. Martin, K. Morokuma, V. G. Zakrzewski, G. A. Voth, 
 P. Salvador, J. J. Dannenberg, S. Dapprich, A. D. Daniels, 
 O. Farkas, J. B. Foresman, J. V. Ortiz, J. Cioslowski, 
 and D. J. Fox, Gaussian, Inc., Wallingford CT, 2013.
 
 ******************************************
 Gaussian 09:  EM64L-G09RevD.01 24-Apr-2013
                24-Jun-2014 
 ******************************************
 %Mem=32GB
 %NProcShared=16
 Will use up to   16 processors via shared memory.
 Default route:  MaxDisk=100GB
 ----------------------------------------------------------------------
 #p nmr=(giao,mixed,spinspin) m06/cc-pvtz scf=tight integral=(grid=ultr
 afine)
 ----------------------------------------------------------------------
 1/38=1/1;
 2/12=2,17=6,18=5,40=1/2;
 3/5=16,6=1,10=1100000,11=2,16=1,25=1,30=1,74=-54,75=-5/1,2,8,3;
 4//1;
 5/5=2,32=2,38=5/2;
 8/6=1,10=90,11=11/1;
 10/13=100,45=16,47=3/2;
 6/7=2,8=2,9=2,10=2,28=1/1;
 99/9=1/99;
 Leave Link    1 at Tue Jun 24 16:42:42 2014, MaxMem=  4294967296 cpu:         5.0
 (Enter /home/ztw1e12/g09/l101.exe)
 ------------------
 NMR spin-spin scan
 ------------------
 Symbolic Z-matrix:
 Charge =  0 Multiplicity = 1
 C                     2.42094  -0.33209   1.66085 
 C                     1.73702  -0.00998   0.50214 
 C                     1.19291  -0.99501  -0.31399 
 C                     1.36405  -2.32202   0.06024 
 C                     2.04622  -2.66306   1.2135 
 C                     2.57217  -1.66413   2.01889 
 H                     2.84503   0.44175   2.29064 
 H                     1.62069   1.03293   0.22427 
 H                     0.94456  -3.10473  -0.56207 
 H                     2.17706  -3.69839   1.50161 
 C                     0.40712  -0.62646  -1.53591 
 H                     0.92187   0.18161  -2.06113 
 H                     0.38517  -1.47471  -2.21965 
 C                    -1.05648  -0.16727  -1.28649 
 H                    -1.73322  -0.84645  -1.80875 
 C                    -1.43491  -0.3065    0.17682 
 O                     3.23558  -2.04021   3.14779 
 H                     3.54239  -1.25379   3.61298 
 O                    -1.72149  -1.41591   0.62347 
 N                    -1.26059   1.16196  -1.81839 
 H                    -0.45539   1.72965  -2.03547 
 N                    -1.39581   0.7904    0.93497 
 H                    -1.07158   1.64846   0.51705 
 C                    -2.49307   1.66541  -2.02548 
 C                    -2.56067   3.0463   -2.58696 
 H                    -3.17159   3.03017  -3.48888 
 H                    -3.06261   3.69137  -1.8656 
 H                    -1.5837    3.46335  -2.82013 
 C                    -1.48998   0.70251   2.37408 
 H                    -0.68053   0.0913    2.78222 
 H                    -1.42561   1.70124   2.79538 
 H                    -2.4385    0.25853   2.67428 
 O                    -3.5062    1.0213   -1.76342 
 
 NAtoms=     33 NQM=       33 NQMF=       0 NMMI=      0 NMMIF=      0
                NMic=       0 NMicF=      0.
                    Isotopes and Nuclear Properties:
 (Nuclear quadrupole moments (NQMom) in fm**2, nuclear magnetic moments (NMagM)
  in nuclear magnetons)

  Atom         1           2           3           4           5           6           7           8           9          10
 IAtWgt=          12          12          12          12          12          12           1           1           1           1
 AtmWgt=  12.0000000  12.0000000  12.0000000  12.0000000  12.0000000  12.0000000   1.0078250   1.0078250   1.0078250   1.0078250
 NucSpn=           0           0           0           0           0           0           1           1           1           1
 AtZEff=   0.0000000   0.0000000   0.0000000   0.0000000   0.0000000   0.0000000   0.0000000   0.0000000   0.0000000   0.0000000
 NQMom=    0.0000000   0.0000000   0.0000000   0.0000000   0.0000000   0.0000000   0.0000000   0.0000000   0.0000000   0.0000000
 NMagM=    0.0000000   0.0000000   0.0000000   0.0000000   0.0000000   0.0000000   2.7928460   2.7928460   2.7928460   2.7928460
 AtZNuc=   6.0000000   6.0000000   6.0000000   6.0000000   6.0000000   6.0000000   1.0000000   1.0000000   1.0000000   1.0000000

  Atom        11          12          13          14          15          16          17          18          19          20
 IAtWgt=          12           1           1          12           1          12          16           1          16          14
 AtmWgt=  12.0000000   1.0078250   1.0078250  12.0000000   1.0078250  12.0000000  15.9949146   1.0078250  15.9949146  14.0030740
 NucSpn=           0           1           1           0           1           0           0           1           0           2
 AtZEff=   0.0000000   0.0000000   0.0000000   0.0000000   0.0000000   0.0000000   0.0000000   0.0000000   0.0000000   0.0000000
 NQMom=    0.0000000   0.0000000   0.0000000   0.0000000   0.0000000   0.0000000   0.0000000   0.0000000   0.0000000   2.0440000
 NMagM=    0.0000000   2.7928460   2.7928460   0.0000000   2.7928460   0.0000000   0.0000000   2.7928460   0.0000000   0.4037610
 AtZNuc=   6.0000000   1.0000000   1.0000000   6.0000000   1.0000000   6.0000000   8.0000000   1.0000000   8.0000000   7.0000000

  Atom        21          22          23          24          25          26          27          28          29          30
 IAtWgt=           1          14           1          12          12           1           1           1          12           1
 AtmWgt=   1.0078250  14.0030740   1.0078250  12.0000000  12.0000000   1.0078250   1.0078250   1.0078250  12.0000000   1.0078250
 NucSpn=           1           2           1           0           0           1           1           1           0           1
 AtZEff=   0.0000000   0.0000000   0.0000000   0.0000000   0.0000000   0.0000000   0.0000000   0.0000000   0.0000000   0.0000000
 NQMom=    0.0000000   2.0440000   0.0000000   0.0000000   0.0000000   0.0000000   0.0000000   0.0000000   0.0000000   0.0000000
 NMagM=    2.7928460   0.4037610   2.7928460   0.0000000   0.0000000   2.7928460   2.7928460   2.7928460   0.0000000   2.7928460
 AtZNuc=   1.0000000   7.0000000   1.0000000   6.0000000   6.0000000   1.0000000   1.0000000   1.0000000   6.0000000   1.0000000

  Atom        31          32          33
 IAtWgt=           1           1          16
 AtmWgt=   1.0078250   1.0078250  15.9949146
 NucSpn=           1           1           0
 AtZEff=   0.0000000   0.0000000   0.0000000
 NQMom=    0.0000000   0.0000000   0.0000000
 NMagM=    2.7928460   2.7928460   0.0000000
 AtZNuc=   1.0000000   1.0000000   8.0000000
 Leave Link  101 at Tue Jun 24 16:42:42 2014, MaxMem=  4294967296 cpu:         1.6
 (Enter /home/ztw1e12/g09/l202.exe)
                          Input orientation:                          
 ---------------------------------------------------------------------
 Center     Atomic      Atomic             Coordinates (Angstroms)
 Number     Number       Type             X           Y           Z
 ---------------------------------------------------------------------
      1          6           0        2.420944   -0.332090    1.660853
      2          6           0        1.737016   -0.009981    0.502141
      3          6           0        1.192914   -0.995008   -0.313990
      4          6           0        1.364045   -2.322023    0.060240
      5          6           0        2.046224   -2.663063    1.213502
      6          6           0        2.572170   -1.664134    2.018888
      7          1           0        2.845027    0.441753    2.290641
      8          1           0        1.620686    1.032933    0.224270
      9          1           0        0.944564   -3.104728   -0.562068
     10          1           0        2.177058   -3.698391    1.501612
     11          6           0        0.407119   -0.626463   -1.535913
     12          1           0        0.921866    0.181606   -2.061125
     13          1           0        0.385174   -1.474708   -2.219655
     14          6           0       -1.056475   -0.167274   -1.286488
     15          1           0       -1.733220   -0.846447   -1.808745
     16          6           0       -1.434907   -0.306500    0.176821
     17          8           0        3.235575   -2.040208    3.147786
     18          1           0        3.542388   -1.253789    3.612975
     19          8           0       -1.721490   -1.415906    0.623473
     20          7           0       -1.260594    1.161959   -1.818391
     21          1           0       -0.455392    1.729653   -2.035474
     22          7           0       -1.395811    0.790399    0.934968
     23          1           0       -1.071582    1.648461    0.517049
     24          6           0       -2.493073    1.665411   -2.025479
     25          6           0       -2.560673    3.046298   -2.586964
     26          1           0       -3.171595    3.030172   -3.488875
     27          1           0       -3.062607    3.691374   -1.865597
     28          1           0       -1.583699    3.463354   -2.820130
     29          6           0       -1.489975    0.702510    2.374076
     30          1           0       -0.680525    0.091297    2.782224
     31          1           0       -1.425609    1.701241    2.795380
     32          1           0       -2.438502    0.258527    2.674281
     33          8           0       -3.506198    1.021296   -1.763417
 ---------------------------------------------------------------------
                    Distance matrix (angstroms):
                    1          2          3          4          5
     1  C    0.000000
     2  C    1.383519   0.000000
     3  C    2.418165   1.390106   0.000000
     4  C    2.763843   2.383259   1.389353   0.000000
     5  C    2.402909   2.764143   2.417391   1.382639   0.000000
     6  C    1.387588   2.394624   2.791486   2.393467   1.386768
     7  H    1.084118   2.151856   3.402626   3.847916   3.382040
     8  H    2.137164   1.085548   2.141321   3.368754   3.849682
     9  H    3.848194   3.367192   2.138724   1.084370   2.135737
    10  H    3.378879   3.846680   3.401945   2.152425   1.082603
    11  C    3.789652   2.510446   1.498798   2.517605   3.793901
    12  H    4.045274   2.696573   2.123763   3.311173   4.481016
    13  H    4.528607   3.373585   2.124645   2.621841   3.994727
    14  C    4.561406   3.320772   2.586628   3.509350   4.701665
    15  H    5.436888   4.252341   3.289168   3.906850   5.168972
    16  C    4.131657   3.202320   2.760504   3.451095   4.329708
    17  O    2.406712   3.656082   4.153167   3.621462   2.354561
    18  H    2.432683   3.805748   4.583454   4.302119   3.159435
    19  O    4.405743   3.735319   3.090266   3.264783   4.012381
    20  N    5.281197   3.967868   3.596586   4.749328   5.895610
    21  H    5.117316   3.777892   3.619972   4.911054   6.009150
    22  N    4.044071   3.262293   3.383648   4.250779   4.883809
    23  H    4.174758   3.261729   3.578617   4.680352   5.366097
    24  C    6.459614   5.204753   4.857317   5.926821   7.059172
    25  C    7.367086   6.111754   5.965566   7.157511   8.262194
    26  H    8.312701   7.018917   6.732823   7.862203   9.041621
    27  H    7.661165   6.507119   6.517601   7.711358   8.715496
    28  H    7.107867   5.841976   5.819563   7.103261   8.184101
    29  C    4.107843   3.798059   4.159947   4.758893   5.017840
    30  H    3.325032   3.324686   3.778409   4.172958   4.181214
    31  H    4.496394   4.264906   4.877971   5.608013   5.796819
    32  H    4.999008   4.714365   4.867062   5.286947   5.548183
    33  O    6.977700   5.804100   5.314882   6.182457   7.298352
                    6          7          8          9         10
     6  C    0.000000
     7  H    2.140808   0.000000
     8  H    3.376410   2.473539   0.000000
     9  H    3.374277   4.932265   4.265643   0.000000
    10  H    2.135858   4.267264   4.932198   2.475935   0.000000
    11  C    4.289617   4.661223   2.706397   2.716435   4.668617
    12  H    4.772501   4.764881   2.536954   3.612157   5.415070
    13  H    4.773267   5.483290   3.713155   2.391125   4.690783
    14  C    5.131585   5.328084   3.300012   3.627338   5.540580
    15  H    5.818571   6.278915   4.349012   3.718140   5.863644
    16  C    4.614439   4.831765   3.336612   3.746721   5.128965
    17  O    1.362332   2.654686   4.538613   4.488313   2.565135
    18  H    1.910712   2.260474   4.517229   5.254108   3.506859
    19  O    4.521539   5.204174   4.162489   3.371271   4.602124
    20  N    6.115684   5.853116   3.534245   4.964442   6.816368
    21  H    6.092764   5.591665   3.146738   5.244239   6.993170
    22  N    4.790041   4.465883   3.108564   4.784400   5.765042
    23  H    5.148372   4.465602   2.777211   5.274670   6.333392
    24  C    7.286938   6.972915   4.731217   6.059137   7.938568
    25  C    8.351534   7.732805   5.425904   7.363560   9.200727
    26  H    9.239199   8.735128   6.382975   7.946443   9.939145
    27  H    8.690305   7.920511   5.776512   7.996475   9.664410
    28  H    8.184038   7.407001   5.044145   7.391256   9.171223
    29  C    4.714678   4.343639   3.795663   5.389154   5.794502
    30  H    3.774155   3.576869   3.567265   4.903038   4.916043
    31  H    5.283079   4.481005   4.041925   6.323568   6.618842
    32  H    5.406755   5.300607   4.804088   5.764597   6.191587
    33  O    7.646170   7.557071   5.498725   6.186808   8.076835
                   11         12         13         14         15
    11  C    0.000000
    12  H    1.092606   0.000000
    13  H    1.089727   1.748298   0.000000
    14  C    1.554083   2.153047   2.158364   0.000000
    15  H    2.168843   2.858333   2.247477   1.091793   0.000000
    16  C    2.535526   3.286492   3.228080   1.517850   2.079184
    17  O    5.651183   6.117390   6.103605   6.449214   7.119072
    18  H    6.060899   6.412714   6.635991   6.806967   7.575818
    19  O    3.133232   4.092242   3.539049   2.376821   2.498020
    20  N    2.461608   2.404817   3.133940   1.446183   2.063289
    21  H    2.558275   2.072184   3.317891   2.126173   2.884535
    22  N    3.370951   3.836513   4.272501   2.442776   3.212642
    23  H    3.402424   3.573861   4.400667   2.559271   3.474428
    24  C    3.728736   3.723541   4.264078   2.443083   2.633207
    25  C    4.837527   4.539939   5.408551   3.779007   4.055091
    26  H    5.476517   5.187410   5.878390   4.421301   4.463175
    27  H    5.549000   5.313448   6.221009   4.387379   4.728882
    28  H    4.726433   4.198073   5.349905   3.976366   4.429406
    29  C    4.544574   5.075365   5.418379   3.787370   4.467038
    30  H    4.510483   5.102337   5.348540   4.094217   4.802554
    31  H    5.247590   5.604067   6.206139   4.504360   5.270987
    32  H    5.158149   5.807070   5.909980   4.216515   4.670751
    33  O    4.252166   4.516798   4.645532   2.764291   2.575649
                   16         17         18         19         20
    16  C    0.000000
    17  O    5.800498   0.000000
    18  H    6.121926   0.963841   0.000000
    19  O    1.229801   5.597714   6.055726   0.000000
    20  N    2.483471   7.425114   7.642265   3.580574   0.000000
    21  H    3.162217   7.396031   7.535791   4.309007   1.008837
    22  N    1.333980   5.861624   5.977979   2.251861   2.781605
    23  H    2.017333   6.251292   6.268695   3.134334   2.393050
    24  C    3.139789   8.562225   8.760176   4.136037   1.347351
    25  C    4.488553   9.610223   9.704501   5.560791   2.414880
    26  H    5.252313  10.526436  10.670809   6.227505   3.151613
    27  H    4.775340   9.881910   9.904310   5.837668   3.106030
    28  H    4.818263   9.440901   9.482249   5.973656   2.530671
    29  C    2.418484   5.518329   5.539554   2.757879   4.223800
    30  H    2.741434   4.473566   4.509146   2.831161   4.759039
    31  H    3.299691   5.987426   5.837950   3.810686   4.648111
    32  H    2.750230   6.140321   6.240136   2.742926   4.731570
    33  O    3.133339   8.885056   9.152277   3.849984   2.250677
                   21         22         23         24         25
    21  H    0.000000
    22  N    3.254245   0.000000
    23  H    2.627100   1.007994   0.000000
    24  C    2.038718   3.276260   2.912966   0.000000
    25  C    2.543600   4.341657   3.715674   1.492208   0.000000
    26  H    3.343872   5.266914   4.729335   2.112935   1.089463
    27  H    3.267228   4.363144   3.716810   2.110559   1.090152
    28  H    2.212347   4.613106   3.833127   2.165879   1.087557
    29  C    4.644299   1.444861   2.125659   4.614051   5.590318
    30  H    5.093634   2.100650   2.776455   5.373749   6.410551
    31  H    4.927401   2.071631   2.306277   4.937757   5.662789
    32  H    5.317775   2.096498   2.907583   4.906123   5.955442
    33  O    3.143756   3.433414   3.394292   1.228814   2.381781
                   26         27         28         29         30
    26  H    0.000000
    27  H    1.756160   0.000000
    28  H    1.776592   1.774907   0.000000
    29  C    6.528403   5.420453   5.883096   0.000000
    30  H    7.359966   6.343273   6.600974   1.093332   0.000000
    31  H    6.656304   5.325889   5.887613   1.085865   1.774047
    32  H    6.797348   5.725770   6.417956   1.089471   1.769209
    33  O    2.669222   2.708603   3.282726   4.613635   5.432511
                   31         32         33
    31  H    0.000000
    32  H    1.766930   0.000000
    33  O    5.057055   4.627630   0.000000
 Stoichiometry    C12H16N2O3
 Framework group  C1[X(C12H16N2O3)]
 Deg. of freedom    93
 Full point group                 C1      NOp   1
 Largest Abelian subgroup         C1      NOp   1
 Largest concise Abelian subgroup C1      NOp   1
                         Standard orientation:                         
 ---------------------------------------------------------------------
 Center     Atomic      Atomic             Coordinates (Angstroms)
 Number     Number       Type             X           Y           Z
 ---------------------------------------------------------------------
      1          6           0        2.721890    0.142335   -1.338380
      2          6           0        1.476700   -0.446101   -1.206578
      3          6           0        1.140939   -1.182754   -0.076532
      4          6           0        2.098548   -1.323681    0.920176
      5          6           0        3.348774   -0.744563    0.805076
      6          6           0        3.659465   -0.004991   -0.326131
      7          1           0        2.977310    0.712888   -2.224123
      8          1           0        0.745374   -0.329590   -2.000304
      9          1           0        1.854570   -1.892476    1.810572
     10          1           0        4.091981   -0.856606    1.584254
     11          6           0       -0.231219   -1.766405    0.074886
     12          1           0       -0.538832   -2.206841   -0.876523
     13          1           0       -0.198219   -2.582121    0.796706
     14          6           0       -1.343842   -0.774701    0.515075
     15          1           0       -1.764725   -1.114864    1.463315
     16          6           0       -0.768426    0.595067    0.825719
     17          8           0        4.900615    0.551630   -0.401420
     18          1           0        4.981108    1.037915   -1.229693
     19          8           0       -0.197434    0.780900    1.898958
     20          7           0       -2.408828   -0.752430   -0.463064
     21          1           0       -2.234772   -1.129070   -1.382628
     22          7           0       -0.870156    1.538145   -0.112236
     23          1           0       -1.278371    1.287516   -0.999139
     24          6           0       -3.622366   -0.237824   -0.184031
     25          6           0       -4.632504   -0.286149   -1.281287
     26          1           0       -5.527848   -0.786437   -0.913863
     27          1           0       -4.913659    0.734597   -1.541019
     28          1           0       -4.274213   -0.795901   -2.172668
     29          6           0       -0.133656    2.776443   -0.003575
     30          1           0        0.942452    2.588577    0.041961
     31          1           0       -0.348213    3.393981   -0.870591
     32          1           0       -0.423676    3.322767    0.893289
     33          8           0       -3.881081    0.246921    0.915092
 ---------------------------------------------------------------------
 Rotational constants (GHZ):      1.0137671      0.2553797      0.2428272
 Leave Link  202 at Tue Jun 24 16:42:42 2014, MaxMem=  4294967296 cpu:         1.9
 (Enter /home/ztw1e12/g09/l301.exe)
 Standard basis: CC-pVTZ (5D, 7F)
 Converting basis for Fermi contact spin-spin IFCMod=1.
 AO basis functions are being uncontracted.
 Ernie: Thresh=  0.10000D-02 Tol=  0.10000D-05 Strict=F.
 There are  1305 symmetry adapted cartesian basis functions of A   symmetry.
 There are  1204 symmetry adapted basis functions of A   symmetry.
  1204 basis functions,  1305 primitive gaussians,  1305 cartesian basis functions
    63 alpha electrons       63 beta electrons
       nuclear repulsion energy      1237.0368095128 Hartrees.
 IExCor= 4235 DFT=T Ex+Corr=M06 ExCW=0 ScaHFX=  0.270000
 ScaDFX=  1.000000  1.000000  1.000000  1.000000 ScalE2=  1.000000  1.000000
 IRadAn= 199590 IRanWt=     -1 IRanGd=            0 ICorTp=0 IEmpDi=  4
 NAtoms=   33 NActive=   33 NUniq=   33 SFac= 1.00D+00 NAtFMM=   60 NAOKFM=F Big=F
 Integral buffers will be    131072 words long.
 Raffenetti 2 integral format.
 Two-electron integral symmetry is turned on.
 Leave Link  301 at Tue Jun 24 16:42:42 2014, MaxMem=  4294967296 cpu:         4.8
 (Enter /home/ztw1e12/g09/l302.exe)
 NPDir=0 NMtPBC=     1 NCelOv=     1 NCel=       1 NClECP=     1 NCelD=      1
         NCelK=      1 NCelE2=     1 NClLst=     1 CellRange=     0.0.
 One-electron integrals computed using PRISM.
 GSVD:  received Info=                   1 from GESDD.
 NBasis=  1204 RedAO= T EigKep=  2.40D-05  NBF=  1204
 NBsUse=  1068 1.00D-06 EigRej=  6.45D-15 NBFU=  1068
 Precomputing XC quadrature grid using
 IXCGrd= 4 IRadAn=      199590 IRanWt=          -1 IRanGd=           0 AccXCQ= 0.00D+00.
 Generated NRdTot=       0 NPtTot=           0 NUsed=           0 NTot=          32
 NSgBfM=   999   999  1000  1000  1000 MxSgAt=    33 MxSgA2=    33.
 Leave Link  302 at Tue Jun 24 16:42:48 2014, MaxMem=  4294967296 cpu:        92.5
 (Enter /home/ztw1e12/g09/l308.exe)
 Leave Link  308 at Tue Jun 24 16:42:49 2014, MaxMem=  4294967296 cpu:         7.4
 (Enter /home/ztw1e12/g09/l303.exe)
 DipDrv:  MaxL=1.
 Leave Link  303 at Tue Jun 24 16:42:49 2014, MaxMem=  4294967296 cpu:         4.2
 (Enter /home/ztw1e12/g09/l401.exe)
 ExpMin= 1.03D-01 ExpMax= 1.38D+05 ExpMxC= 1.38D+05 IAcc=4 IRadAn=    199590 AccDes= 0.00D+00
 Harris functional with IExCor= 1009 and IRadAn=  199590 diagonalized for initial guess.
 HarFok:  IExCor= 1009 AccDes= 0.00D+00 IRadAn=    199590 IDoV= 1 UseB2=F ITyADJ=14
 ICtDFT=  3500011 ScaDFX=  1.000000  1.000000  1.000000  1.000000
 FoFCou: FMM=F IPFlag=           0 FMFlag=      100000 FMFlg1=           0
         NFxFlg=           0 DoJE=T BraDBF=F KetDBF=T FulRan=T
         wScrn=  0.000000 ICntrl=     500 IOpCl=  0 I1Cent=   200000004 NGrid=           0
         NMat0=    1 NMatS0=      1 NMatT0=    0 NMatD0=    1 NMtDS0=    0 NMtDT0=    0
 Petite list used in FoFCou.
 Harris En= -801.775926243486    
 JPrj=0 DoOrth=F DoCkMO=F.
 Leave Link  401 at Tue Jun 24 16:43:09 2014, MaxMem=  4294967296 cpu:       306.4
 (Enter /home/ztw1e12/g09/l502.exe)
 Closed shell SCF:
 Using DIIS extrapolation, IDIIS=  1040.
 Integral symmetry usage will be decided dynamically.
 IVT=     5158273 IEndB=     5158273 NGot=  4294967296 MDV=  4291529994
 LenX=  4291529994 LenY=  4289825664
 Requested convergence on RMS density matrix=1.00D-08 within 128 cycles.
 Requested convergence on MAX density matrix=1.00D-06.
 Requested convergence on             energy=1.00D-06.
 No special actions if energy rises.
 Fock matrices will be formed incrementally for  20 cycles.
 Integral accuracy reduced to 1.0D-05 until final iterations.

 Cycle   1  Pass 0  IDiag  1:
 FoFJK:  IHMeth= 1 ICntrl=       0 DoSepK=F KAlg= 0 I1Cent=   0 FoldK=F
 IRaf= 440000000 NMat=   1 IRICut=       1 DoRegI=T DoRafI=F ISym2E= 0.
 FoFCou: FMM=F IPFlag=           0 FMFlag=      100000 FMFlg1=           0
         NFxFlg=           0 DoJE=F BraDBF=F KetDBF=F FulRan=T
         wScrn=  0.000000 ICntrl=       0 IOpCl=  0 I1Cent=           0 NGrid=           0
         NMat0=    1 NMatS0=      1 NMatT0=    0 NMatD0=    1 NMtDS0=    0 NMtDT0=    0
 Symmetry not used in FoFCou.
 E= -801.444168956717    
 DIIS: error= 1.27D-01 at cycle   1 NSaved=   1.
 NSaved= 1 IEnMin= 1 EnMin= -801.444168956717     IErMin= 1 ErrMin= 1.27D-01
 ErrMax= 1.27D-01  0.00D+00 EMaxC= 1.00D-01 BMatC= 1.69D+01 BMatP= 1.69D+01
 IDIUse=3 WtCom= 0.00D+00 WtEn= 1.00D+00
 Coeff-Com:  0.100D+01
 Coeff-En:   0.100D+01
 Coeff:      0.100D+01
 Gap=     0.242 Goal=   None    Shift=    0.000
 GapD=    0.242 DampG=1.000 DampE=0.250 DampFc=0.2500 IDamp=-1.
 Damping current iteration by 2.50D-01
 RMSDP=2.74D-03 MaxDP=5.74D-01              OVMax= 3.16D-01

 Cycle   2  Pass 0  IDiag  1:
 RMSU=  6.81D-04    CP:  1.03D+00
 E= -801.602856812734     Delta-E=       -0.158687856017 Rises=F Damp=T
 DIIS: error= 9.55D-02 at cycle   2 NSaved=   2.
 NSaved= 2 IEnMin= 2 EnMin= -801.602856812734     IErMin= 2 ErrMin= 9.55D-02
 ErrMax= 9.55D-02  0.00D+00 EMaxC= 1.00D-01 BMatC= 1.00D+01 BMatP= 1.69D+01
 IDIUse=3 WtCom= 4.47D-02 WtEn= 9.55D-01
 Coeff-Com: -0.288D+01 0.388D+01
 Coeff-En:   0.000D+00 0.100D+01
 Coeff:     -0.129D+00 0.113D+01
 Gap=     0.232 Goal=   None    Shift=    0.000
 RMSDP=7.75D-04 MaxDP=1.36D-01 DE=-1.59D-01 OVMax= 1.94D-01

 Cycle   3  Pass 0  IDiag  1:
 RMSU=  7.29D-04    CP:  1.07D+00  1.36D+00
 E= -801.849283991347     Delta-E=       -0.246427178613 Rises=F Damp=F
 DIIS: error= 1.45D-02 at cycle   3 NSaved=   3.
 NSaved= 3 IEnMin= 3 EnMin= -801.849283991347     IErMin= 3 ErrMin= 1.45D-02
 ErrMax= 1.45D-02  0.00D+00 EMaxC= 1.00D-01 BMatC= 2.05D-01 BMatP= 1.00D+01
 IDIUse=3 WtCom= 8.55D-01 WtEn= 1.45D-01
 Coeff-Com:  0.525D+00-0.752D+00 0.123D+01
 Coeff-En:   0.000D+00 0.000D+00 0.100D+01
 Coeff:      0.449D+00-0.643D+00 0.119D+01
 Gap=     0.246 Goal=   None    Shift=    0.000
 RMSDP=5.03D-04 MaxDP=8.07D-02 DE=-2.46D-01 OVMax= 9.85D-02

 Cycle   4  Pass 0  IDiag  1:
 RMSU=  4.09D-04    CP:  1.06D+00  1.04D+00  7.30D-01
 E= -801.789994828161     Delta-E=        0.059289163186 Rises=F Damp=F
 DIIS: error= 8.16D-03 at cycle   4 NSaved=   4.
 NSaved= 4 IEnMin= 3 EnMin= -801.849283991347     IErMin= 4 ErrMin= 8.16D-03
 ErrMax= 8.16D-03  0.00D+00 EMaxC= 1.00D-01 BMatC= 1.49D-01 BMatP= 2.05D-01
 IDIUse=3 WtCom= 9.18D-01 WtEn= 8.16D-02
 Coeff-Com:  0.468D+00-0.656D+00 0.666D+00 0.522D+00
 Coeff-En:   0.000D+00 0.000D+00 0.682D+00 0.318D+00
 Coeff:      0.430D+00-0.602D+00 0.667D+00 0.505D+00
 Gap=     0.260 Goal=   None    Shift=    0.000
 RMSDP=3.51D-04 MaxDP=4.81D-02 DE= 5.93D-02 OVMax= 7.14D-02

 Cycle   5  Pass 0  IDiag  1:
 RMSU=  1.20D-04    CP:  1.06D+00  1.05D+00  8.26D-01  2.10D-01
 E= -801.901573781034     Delta-E=       -0.111578952873 Rises=F Damp=F
 DIIS: error= 2.07D-03 at cycle   5 NSaved=   5.
 NSaved= 5 IEnMin= 5 EnMin= -801.901573781034     IErMin= 5 ErrMin= 2.07D-03
 ErrMax= 2.07D-03  0.00D+00 EMaxC= 1.00D-01 BMatC= 1.04D-02 BMatP= 1.49D-01
 IDIUse=3 WtCom= 9.79D-01 WtEn= 2.07D-02
 Coeff-Com:  0.569D-01-0.826D-01 0.588D-01 0.210D+00 0.757D+00
 Coeff-En:   0.000D+00 0.000D+00 0.000D+00 0.000D+00 0.100D+01
 Coeff:      0.558D-01-0.809D-01 0.576D-01 0.205D+00 0.762D+00
 Gap=     0.230 Goal=   None    Shift=    0.000
 RMSDP=1.42D-04 MaxDP=1.94D-02 DE=-1.12D-01 OVMax= 2.82D-02

 Cycle   6  Pass 0  IDiag  1:
 RMSU=  7.51D-05    CP:  1.07D+00  1.07D+00  8.90D-01  4.06D-01  3.80D-01
 E= -801.906388103815     Delta-E=       -0.004814322781 Rises=F Damp=F
 DIIS: error= 1.41D-03 at cycle   6 NSaved=   6.
 NSaved= 6 IEnMin= 6 EnMin= -801.906388103815     IErMin= 6 ErrMin= 1.41D-03
 ErrMax= 1.41D-03  0.00D+00 EMaxC= 1.00D-01 BMatC= 2.44D-03 BMatP= 1.04D-02
 IDIUse=3 WtCom= 9.86D-01 WtEn= 1.41D-02
 Coeff-Com:  0.192D-01-0.274D-01 0.598D-03 0.866D-01 0.416D+00 0.505D+00
 Coeff-En:   0.000D+00 0.000D+00 0.000D+00 0.000D+00 0.222D+00 0.778D+00
 Coeff:      0.189D-01-0.270D-01 0.589D-03 0.854D-01 0.413D+00 0.509D+00
 Gap=     0.226 Goal=   None    Shift=    0.000
 RMSDP=4.95D-05 MaxDP=8.15D-03 DE=-4.81D-03 OVMax= 1.91D-02

 Cycle   7  Pass 0  IDiag  1:
 RMSU=  3.72D-05    CP:  1.06D+00  1.05D+00  8.69D-01  4.11D-01  5.22D-01
                    CP:  7.54D-01
 E= -801.908204729672     Delta-E=       -0.001816625857 Rises=F Damp=F
 DIIS: error= 6.10D-04 at cycle   7 NSaved=   7.
 NSaved= 7 IEnMin= 7 EnMin= -801.908204729672     IErMin= 7 ErrMin= 6.10D-04
 ErrMax= 6.10D-04  0.00D+00 EMaxC= 1.00D-01 BMatC= 3.81D-04 BMatP= 2.44D-03
 IDIUse=3 WtCom= 9.94D-01 WtEn= 6.10D-03
 Coeff-Com:  0.136D-01-0.182D-01-0.101D-02 0.212D-01 0.112D+00 0.300D+00
 Coeff-Com:  0.573D+00
 Coeff-En:   0.000D+00 0.000D+00 0.000D+00 0.000D+00 0.000D+00 0.142D+00
 Coeff-En:   0.858D+00
 Coeff:      0.135D-01-0.181D-01-0.101D-02 0.211D-01 0.111D+00 0.299D+00
 Coeff:      0.575D+00
 Gap=     0.226 Goal=   None    Shift=    0.000
 RMSDP=1.76D-05 MaxDP=2.89D-03 DE=-1.82D-03 OVMax= 6.25D-03

 Cycle   8  Pass 0  IDiag  1:
 RMSU=  1.00D-05    CP:  1.06D+00  1.06D+00  8.73D-01  4.21D-01  5.07D-01
                    CP:  8.77D-01  7.50D-01
 E= -801.908512736647     Delta-E=       -0.000308006974 Rises=F Damp=F
 DIIS: error= 1.08D-04 at cycle   8 NSaved=   8.
 NSaved= 8 IEnMin= 8 EnMin= -801.908512736647     IErMin= 8 ErrMin= 1.08D-04
 ErrMax= 1.08D-04  0.00D+00 EMaxC= 1.00D-01 BMatC= 2.77D-05 BMatP= 3.81D-04
 IDIUse=3 WtCom= 9.99D-01 WtEn= 1.08D-03
 Coeff-Com:  0.784D-02-0.105D-01 0.569D-03 0.651D-02 0.342D-01 0.134D+00
 Coeff-Com:  0.322D+00 0.506D+00
 Coeff-En:   0.000D+00 0.000D+00 0.000D+00 0.000D+00 0.000D+00 0.000D+00
 Coeff-En:   0.000D+00 0.100D+01
 Coeff:      0.783D-02-0.105D-01 0.568D-03 0.650D-02 0.342D-01 0.134D+00
 Coeff:      0.321D+00 0.507D+00
 Gap=     0.226 Goal=   None    Shift=    0.000
 RMSDP=5.10D-06 MaxDP=8.37D-04 DE=-3.08D-04 OVMax= 9.72D-04

 Initial convergence to 1.0D-05 achieved.  Increase integral accuracy.
 Cycle   9  Pass 1  IDiag  1:
 E= -801.908571233953     Delta-E=       -0.000058497306 Rises=F Damp=F
 DIIS: error= 1.95D-04 at cycle   1 NSaved=   1.
 NSaved= 1 IEnMin= 1 EnMin= -801.908571233953     IErMin= 1 ErrMin= 1.95D-04
 ErrMax= 1.95D-04  0.00D+00 EMaxC= 1.00D-01 BMatC= 2.47D-05 BMatP= 2.47D-05
 IDIUse=3 WtCom= 9.98D-01 WtEn= 1.95D-03
 Coeff-Com:  0.100D+01
 Coeff-En:   0.100D+01
 Coeff:      0.100D+01
 Gap=     0.226 Goal=   None    Shift=    0.000
 RMSDP=5.10D-06 MaxDP=8.37D-04 DE=-5.85D-05 OVMax= 1.54D-03

 Cycle  10  Pass 1  IDiag  1:
 RMSU=  1.99D-04    CP:  9.93D-01
 E= -801.908585332059     Delta-E=       -0.000014098106 Rises=F Damp=F
 DIIS: error= 5.84D-05 at cycle   2 NSaved=   2.
 NSaved= 2 IEnMin= 2 EnMin= -801.908585332059     IErMin= 2 ErrMin= 5.84D-05
 ErrMax= 5.84D-05  0.00D+00 EMaxC= 1.00D-01 BMatC= 4.50D-06 BMatP= 2.47D-05
 IDIUse=1 WtCom= 1.00D+00 WtEn= 0.00D+00
 Coeff-Com:  0.201D+00 0.799D+00
 Coeff:      0.201D+00 0.799D+00
 Gap=     0.226 Goal=   None    Shift=    0.000
 RMSDP=4.35D-06 MaxDP=4.44D-04 DE=-1.41D-05 OVMax= 1.19D-03

 Cycle  11  Pass 1  IDiag  1:
 RMSU=  3.28D-06    CP:  9.93D-01  1.01D+00
 E= -801.908582689767     Delta-E=        0.000002642292 Rises=F Damp=F
 DIIS: error= 8.98D-05 at cycle   3 NSaved=   3.
 NSaved= 3 IEnMin= 2 EnMin= -801.908585332059     IErMin= 2 ErrMin= 5.84D-05
 ErrMax= 8.98D-05  0.00D+00 EMaxC= 1.00D-01 BMatC= 8.00D-06 BMatP= 4.50D-06
 IDIUse=1 WtCom= 1.00D+00 WtEn= 0.00D+00
 Coeff-Com:  0.405D-02 0.571D+00 0.425D+00
 Coeff:      0.405D-02 0.571D+00 0.425D+00
 Gap=     0.226 Goal=   None    Shift=    0.000
 RMSDP=2.00D-06 MaxDP=2.30D-04 DE= 2.64D-06 OVMax= 7.66D-04

 Cycle  12  Pass 1  IDiag  1:
 RMSU=  7.37D-07    CP:  9.93D-01  1.02D+00  4.71D-01
 E= -801.908588592296     Delta-E=       -0.000005902529 Rises=F Damp=F
 DIIS: error= 9.70D-06 at cycle   4 NSaved=   4.
 NSaved= 4 IEnMin= 4 EnMin= -801.908588592296     IErMin= 4 ErrMin= 9.70D-06
 ErrMax= 9.70D-06  0.00D+00 EMaxC= 1.00D-01 BMatC= 1.40D-07 BMatP= 4.50D-06
 IDIUse=1 WtCom= 1.00D+00 WtEn= 0.00D+00
 Coeff-Com: -0.245D-02 0.318D+00 0.249D+00 0.436D+00
 Coeff:     -0.245D-02 0.318D+00 0.249D+00 0.436D+00
 Gap=     0.226 Goal=   None    Shift=    0.000
 RMSDP=3.22D-07 MaxDP=6.01D-05 DE=-5.90D-06 OVMax= 7.42D-05

 Cycle  13  Pass 1  IDiag  1:
 RMSU=  2.82D-07    CP:  9.93D-01  1.02D+00  4.87D-01  8.78D-01
 E= -801.908588685425     Delta-E=       -0.000000093129 Rises=F Damp=F
 DIIS: error= 1.61D-06 at cycle   5 NSaved=   5.
 NSaved= 5 IEnMin= 5 EnMin= -801.908588685425     IErMin= 5 ErrMin= 1.61D-06
 ErrMax= 1.61D-06  0.00D+00 EMaxC= 1.00D-01 BMatC= 4.80D-09 BMatP= 1.40D-07
 IDIUse=1 WtCom= 1.00D+00 WtEn= 0.00D+00
 Coeff-Com: -0.142D-02 0.104D+00 0.836D-01 0.213D+00 0.601D+00
 Coeff:     -0.142D-02 0.104D+00 0.836D-01 0.213D+00 0.601D+00
 Gap=     0.226 Goal=   None    Shift=    0.000
 RMSDP=6.52D-08 MaxDP=1.15D-05 DE=-9.31D-08 OVMax= 1.24D-05

 Cycle  14  Pass 1  IDiag  1:
 RMSU=  4.94D-08    CP:  9.93D-01  1.02D+00  4.88D-01  9.19D-01  9.11D-01
 E= -801.908588688179     Delta-E=       -0.000000002755 Rises=F Damp=F
 DIIS: error= 6.98D-07 at cycle   6 NSaved=   6.
 NSaved= 6 IEnMin= 6 EnMin= -801.908588688179     IErMin= 6 ErrMin= 6.98D-07
 ErrMax= 6.98D-07  0.00D+00 EMaxC= 1.00D-01 BMatC= 5.33D-10 BMatP= 4.80D-09
 IDIUse=1 WtCom= 1.00D+00 WtEn= 0.00D+00
 Coeff-Com: -0.639D-03 0.380D-01 0.307D-01 0.887D-01 0.324D+00 0.520D+00
 Coeff:     -0.639D-03 0.380D-01 0.307D-01 0.887D-01 0.324D+00 0.520D+00
 Gap=     0.226 Goal=   None    Shift=    0.000
 RMSDP=3.32D-08 MaxDP=8.16D-06 DE=-2.75D-09 OVMax= 6.93D-06

 Cycle  15  Pass 1  IDiag  1:
 RMSU=  2.42D-08    CP:  9.93D-01  1.02D+00  4.88D-01  9.29D-01  9.69D-01
                    CP:  7.94D-01
 E= -801.908588688507     Delta-E=       -0.000000000327 Rises=F Damp=F
 DIIS: error= 3.20D-07 at cycle   7 NSaved=   7.
 NSaved= 7 IEnMin= 7 EnMin= -801.908588688507     IErMin= 7 ErrMin= 3.20D-07
 ErrMax= 3.20D-07  0.00D+00 EMaxC= 1.00D-01 BMatC= 1.22D-10 BMatP= 5.33D-10
 IDIUse=1 WtCom= 1.00D+00 WtEn= 0.00D+00
 Coeff-Com: -0.552D-04-0.215D-02-0.147D-02 0.321D-02 0.537D-01 0.333D+00
 Coeff-Com:  0.613D+00
 Coeff:     -0.552D-04-0.215D-02-0.147D-02 0.321D-02 0.537D-01 0.333D+00
 Coeff:      0.613D+00
 Gap=     0.226 Goal=   None    Shift=    0.000
 RMSDP=1.28D-08 MaxDP=1.03D-06 DE=-3.27D-10 OVMax= 3.10D-06

 Cycle  16  Pass 1  IDiag  1:
 RMSU=  9.67D-09    CP:  9.93D-01  1.02D+00  4.89D-01  9.35D-01  9.78D-01
                    CP:  8.89D-01  9.45D-01
 E= -801.908588688616     Delta-E=       -0.000000000110 Rises=F Damp=F
 DIIS: error= 5.24D-08 at cycle   8 NSaved=   8.
 NSaved= 8 IEnMin= 8 EnMin= -801.908588688616     IErMin= 8 ErrMin= 5.24D-08
 ErrMax= 5.24D-08  0.00D+00 EMaxC= 1.00D-01 BMatC= 7.40D-12 BMatP= 1.22D-10
 IDIUse=1 WtCom= 1.00D+00 WtEn= 0.00D+00
 Coeff-Com:  0.352D-04-0.470D-02-0.367D-02-0.709D-02-0.692D-02 0.105D+00
 Coeff-Com:  0.287D+00 0.630D+00
 Coeff:      0.352D-04-0.470D-02-0.367D-02-0.709D-02-0.692D-02 0.105D+00
 Coeff:      0.287D+00 0.630D+00
 Gap=     0.226 Goal=   None    Shift=    0.000
 RMSDP=4.89D-09 MaxDP=7.74D-07 DE=-1.10D-10 OVMax= 7.85D-07

 SCF Done:  E(RM06) =  -801.908588689     A.U. after   16 cycles
            NFock= 16  Conv=0.49D-08     -V/T= 2.0044
 KE= 7.983609779686D+02 PE=-4.346673562646D+03 EE= 1.509367186476D+03
 Leave Link  502 at Tue Jun 24 17:22:53 2014, MaxMem=  4294967296 cpu:     38048.5
 (Enter /home/ztw1e12/g09/l801.exe)
 DoSCS=F DFT=T ScalE2(SS,OS)=  1.000000  1.000000
 Range of M.O.s used for correlation:     1  1068
 NBasis=  1204 NAE=    63 NBE=    63 NFC=     0 NFV=     0
 NROrb=   1068 NOA=    63 NOB=    63 NVA=  1005 NVB=  1005

 **** Warning!!: The largest alpha MO coefficient is  0.22868950D+02

 Leave Link  801 at Tue Jun 24 17:22:53 2014, MaxMem=  4294967296 cpu:         0.4
 (Enter /home/ztw1e12/g09/l1002.exe)
 Minotr:  Closed shell wavefunction.
          IDoAtm=111111111111111111111111111111111
          Direct CPHF calculation.
          Differentiating once with respect to Fermi-contact.
          Electric field/nuclear overlap derivatives assumed to be zero.
          Requested convergence is 1.0D-10 RMS, and 1.0D-09 maximum.
          Secondary convergence is 1.0D-12 RMS, and 1.0D-12 maximum.
          NewPWx=T KeepS1=F KeepF1=F KeepIn=T MapXYZ=F SortEE=F KeepMc=T.
          MDV=    4294965894 using IRadAn=  199590.
 Using stored XC quadrature information.
          Solving linear equations simultaneously, MaxMat=       0.
          There are    33 degrees of freedom in the 1st order CPHF.  IDoFFX=0 NUNeed=    33.
     33 vectors produced by pass  0 Test12= 1.92D-17 3.03D-11 XBig12= 4.29D+01 2.58D+00.
 AX will form    33 AO Fock derivatives at one time.
 FoFJK:  IHMeth= 1 ICntrl=       0 DoSepK=F KAlg= 0 I1Cent=   0 FoldK=F
 IRaf= 460000000 NMat=  33 IRICut=       1 DoRegI=T DoRafI=F ISym2E=-1.
 FoFCou: FMM=F IPFlag=           0 FMFlag=      100000 FMFlg1=           0
         NFxFlg=           0 DoJE=F BraDBF=F KetDBF=F FulRan=T
         wScrn=  0.000000 ICntrl=       0 IOpCl=  0 I1Cent=           0 NGrid=           0
         NMat0=   33 NMatS0=      0 NMatT0=   33 NMatD0=   33 NMtDS0=    0 NMtDT0=    0
 Petite list used in FoFCou.
     33 vectors produced by pass  1 Test12= 1.92D-17 3.03D-11 XBig12= 3.46D-01 1.89D-01.
     33 vectors produced by pass  2 Test12= 1.92D-17 3.03D-11 XBig12= 1.55D-02 3.97D-02.
     33 vectors produced by pass  3 Test12= 1.92D-17 3.03D-11 XBig12= 3.49D-04 5.76D-03.
     33 vectors produced by pass  4 Test12= 1.92D-17 3.03D-11 XBig12= 7.30D-06 1.18D-03.
     33 vectors produced by pass  5 Test12= 1.92D-17 3.03D-11 XBig12= 1.54D-07 1.79D-04.
     33 vectors produced by pass  6 Test12= 1.92D-17 3.03D-11 XBig12= 4.85D-09 1.81D-05.
     33 vectors produced by pass  7 Test12= 1.92D-17 3.03D-11 XBig12= 1.33D-10 4.00D-06.
     33 vectors produced by pass  8 Test12= 1.92D-17 3.03D-11 XBig12= 5.34D-12 3.78D-07.
     33 vectors produced by pass  9 Test12= 1.92D-17 3.03D-11 XBig12= 7.09D-14 9.73D-08.
     33 vectors produced by pass 10 Test12= 1.92D-17 3.03D-11 XBig12= 2.31D-15 1.06D-08.
     33 vectors produced by pass 11 Test12= 1.92D-17 3.03D-11 XBig12= 2.52D-17 5.61D-10.
      8 vectors produced by pass 12 Test12= 1.92D-17 3.03D-11 XBig12= 2.91D-19 5.60D-11.
 InvSVY:  IOpt=1 It=  1 EMax= 7.11D-15
 Solved reduced A of dimension   404 with    33 vectors.
 Max diff in FC couplings:  IJMax=    22     6 Diff= 3.67D-04 IJMaxR=    26     3 DiffR= 1.35D+00
 Fermi Contact (FC) contribution to K (Hz):
                1             2             3             4             5 
      1  0.123400D+11
      2  0.350272D+02  0.123400D+11
      3 -0.121937D+01  0.336377D+02  0.123400D+11
      4  0.302744D+01  0.381580D+00  0.343218D+02  0.123400D+11
      5  0.161587D+01  0.303522D+01 -0.133688D+01  0.347694D+02  0.123400D+11
      6  0.360624D+02 -0.133814D+00  0.435439D+01  0.157051D+00  0.388635D+02
      7  0.215321D+02 -0.308839D+00  0.941666D+00 -0.199328D+00  0.601419D+00
      8 -0.221562D+00  0.213910D+02 -0.252866D+00  0.979235D+00 -0.297847D+00
      9 -0.284193D+00  0.102866D+01 -0.240143D+00  0.229569D+02 -0.178739D+00
     10  0.685821D+00 -0.227646D+00  0.107114D+01 -0.271752D+00  0.231629D+02
     11  0.197381D+01  0.137882D+01  0.242997D+02  0.160593D+01  0.208791D+01
     12 -0.793022D-01  0.726030D+00 -0.110289D+01  0.709602D+00 -0.273562D-01
     13  0.124188D+00  0.100165D+01 -0.976870D+00  0.816459D+00  0.836326D-04
     14 -0.577046D+00  0.815863D+00 -0.784578D+00  0.869275D+00 -0.516799D+00
     15  0.110430D-01 -0.242960D-01  0.329520D+00 -0.212457D-01  0.112644D-01
     16  0.395968D-01 -0.241138D-01  0.136136D+01 -0.484147D-01  0.255125D-01
     17 -0.754667D+00 -0.120855D+00  0.270066D+00  0.300992D+01  0.115363D+02
     18  0.428107D+00 -0.103242D-01 -0.471454D-01  0.205349D+00  0.113836D+01
     19  0.141416D-01  0.514912D-01  0.396914D+00  0.529283D+00  0.174601D-01
     20  0.277503D-01 -0.693078D-01  0.879277D+00  0.239322D+00  0.109111D+00
     21  0.306836D-03  0.519213D-02 -0.733069D-02  0.565883D-02 -0.386204D-03
     22  0.819232D-01  0.472002D+00  0.221577D+00 -0.493938D-01  0.862276D-01
     23  0.363713D-02  0.205194D-01  0.522502D-02 -0.684245D-03  0.123417D-02
     24 -0.724769D-02  0.381798D-02  0.893015D-01  0.620126D-01  0.435803D-02
     25  0.105008D-02 -0.325778D-02  0.227130D-01  0.288585D-02  0.222664D-02
     26 -0.913155D-04  0.229639D-03  0.661774D-05  0.343516D-03  0.564421D-04
     27  0.151911D-04  0.540278D-03 -0.194189D-02 -0.108283D-03 -0.232046D-03
     28 -0.120397D-03  0.963878D-04  0.654362D-03  0.143501D-03 -0.133808D-03
     29  0.125415D+00  0.783863D-01  0.368383D-01 -0.682051D-02 -0.340424D-03
     30  0.177009D-01  0.189548D-01  0.724173D-02 -0.868859D-03  0.683213D-02
     31 -0.176599D-02  0.343533D-03  0.238340D-02  0.166185D-03  0.483846D-03
     32  0.123461D-01  0.137361D-01  0.157629D-02 -0.701113D-03  0.226791D-02
     33 -0.924363D-02  0.173835D-01  0.491299D-02  0.114388D-01 -0.780620D-02
                6             7             8             9            10 
      6  0.123400D+11
      7 -0.550023D+00  0.123400D+11
      8  0.115814D+01  0.328165D+00  0.123400D+11
      9  0.123819D+01  0.369457D-01  0.375592D-01  0.123400D+11
     10 -0.702275D+00  0.634141D-01  0.434802D-01  0.351995D+00  0.123400D+11
     11 -0.468194D+00  0.187081D-01  0.664066D+00  0.721803D+00  0.140694D-01
     12  0.105853D+00  0.889996D-02 -0.373066D-01 -0.231755D-01  0.137983D-01
     13  0.253876D-01  0.676037D-02 -0.170717D-02 -0.252333D-01  0.487940D-02
     14  0.572389D+00  0.470186D-01 -0.138356D+00 -0.140689D+00  0.566934D-01
     15 -0.547115D-02 -0.376026D-03  0.783472D-02  0.231489D-02 -0.985903D-03
     16 -0.189612D-01 -0.735062D-03  0.248956D-01  0.421618D-02 -0.157775D-02
     17 -0.120733D+02  0.553588D+00  0.703266D-01  0.263116D+00  0.711604D+00
     18 -0.671619D+00 -0.137968D-01  0.169695D-02  0.139338D-01  0.868460D-03
     19  0.107126D-01 -0.955849D-02 -0.218468D-01  0.536408D-01 -0.479074D-02
     20 -0.192463D-01 -0.253616D-02  0.359611D-01  0.140894D-01  0.313794D-02
     21  0.157389D-02  0.462315D-04  0.238897D-02 -0.167994D-05  0.936123D-04
     22 -0.417539D-01 -0.120604D-01  0.150560D+00  0.105705D-01 -0.171855D-01
     23 -0.102038D-02 -0.503924D-03  0.419844D-02  0.327018D-03 -0.185056D-03
     24  0.874516D-02  0.352059D-03  0.354524D-03 -0.145690D-03  0.189922D-02
     25 -0.602303D-03 -0.137338D-03  0.450863D-03  0.496513D-03  0.520488D-04
     26  0.593780D-04 -0.310604D-05 -0.122123D-03  0.230618D-05  0.240504D-04
     27  0.859788D-04  0.327876D-05  0.994075D-05 -0.481414D-04 -0.313398D-05
     28  0.106085D-03  0.991171D-05 -0.996647D-04 -0.399314D-04  0.176488D-04
     29 -0.139298D-01 -0.849551D-02  0.909715D-03 -0.292396D-03 -0.603411D-03
     30  0.754660D-03  0.169508D-02  0.290899D-02 -0.169901D-03 -0.134558D-02
     31  0.559315D-04  0.166899D-03  0.110879D-02 -0.413218D-04 -0.104267D-03
     32 -0.518004D-03  0.698178D-03  0.149192D-02 -0.927775D-04 -0.500433D-03
     33  0.105481D-01  0.112673D-02 -0.208952D-03 -0.237553D-02  0.676156D-03
               11            12            13            14            15 
     11  0.123400D+11
     12  0.169870D+02  0.123400D+11
     13  0.184777D+02 -0.864331D+00  0.123400D+11
     14  0.159722D+02 -0.936035D+00 -0.645148D+00  0.123400D+11
     15 -0.831449D+00  0.605244D-01  0.456566D+00  0.212034D+02  0.123400D+11
     16 -0.274785D+00  0.152247D+00  0.320262D+00  0.286332D+02 -0.132560D+01
     17  0.663899D-01  0.363853D-01  0.924450D-02  0.233073D+00 -0.230145D-02
     18  0.124497D-01 -0.372214D-02 -0.111117D-02 -0.244703D-01  0.230674D-03
     19  0.754099D+00  0.137011D-01  0.118268D-01  0.455840D+01  0.370580D+00
     20  0.135226D+01  0.203837D+01  0.530518D+00  0.131518D+02 -0.441969D+00
     21  0.580711D+00 -0.385683D-01 -0.120496D-01  0.213481D+00  0.190583D+00
     22  0.769459D-03  0.476168D-01  0.586024D-01  0.937792D+01  0.151788D+00
     23 -0.234547D-01  0.275308D-02  0.853347D-03  0.680415D-01  0.785401D-02
     24  0.161670D+01  0.494146D-01  0.280498D-01 -0.190624D+00  0.317340D+00
     25 -0.350962D-01  0.456959D-01  0.197227D-01  0.675581D+00 -0.779732D-01
     26  0.132432D-01  0.730164D-03 -0.841422D-04  0.410309D-01  0.178519D-01
     27 -0.484694D-02 -0.126547D-02 -0.472133D-03  0.120694D-01  0.266433D-01
     28 -0.353838D-02 -0.638463D-03 -0.185042D-03  0.930398D-01 -0.222321D-02
     29 -0.640931D-01  0.567588D-02  0.719905D-02  0.677188D+00  0.331036D-01
     30  0.548809D-01 -0.101263D-02  0.376740D-03 -0.913665D-01  0.289030D-01
     31 -0.740755D-03 -0.405890D-04 -0.316572D-03 -0.227927D-01  0.734939D-02
     32  0.449508D-01 -0.850386D-03  0.603824D-03 -0.752660D-01  0.869164D-02
     33  0.155882D+00  0.292385D-01  0.104690D-02  0.884413D+00  0.254971D+00
               16            17            18            19            20 
     16  0.123400D+11
     17 -0.639038D-02  0.123400D+11
     18  0.640174D-03  0.197920D+02  0.123400D+11
     19 -0.936177D+01  0.127187D-01 -0.134460D-02  0.123400D+11
     20  0.367777D-01 -0.221165D-02  0.665839D-03  0.111718D+01  0.123400D+11
     21  0.481258D-01  0.524274D-03 -0.436558D-04  0.721959D-01  0.308308D+02
     22  0.297913D+02 -0.779045D-02  0.337030D-03  0.650751D+01 -0.433827D+00
     23  0.328037D+00 -0.266277D-03  0.320665D-04  0.483515D+00 -0.516509D-01
     24  0.489039D-01  0.448696D-02 -0.383481D-03 -0.249669D-01  0.250666D+02
     25 -0.155198D+00  0.464537D-04  0.149004D-04  0.516941D-01  0.123976D+02
     26  0.555930D-01  0.226031D-04 -0.113317D-05 -0.163353D-02  0.403294D+00
     27  0.886924D-01  0.429416D-04 -0.486907D-05  0.657952D-02  0.319898D+00
     28 -0.117624D-02  0.502286D-04 -0.549875D-05  0.268541D-02  0.328888D+00
     29 -0.251737D+00  0.339025D-02 -0.342293D-03  0.800793D+00  0.152735D+00
     30  0.190566D+00 -0.540241D-03 -0.132250D-04  0.239288D+00  0.169779D-01
     31  0.963459D+00 -0.674292D-04  0.449800D-05  0.188757D+00  0.621828D-02
     32  0.180868D+00  0.282936D-03 -0.397664D-04  0.237131D+00  0.604124D-02
     33  0.457337D+00  0.422244D-02 -0.463609D-03  0.109088D+00  0.577912D+01
               21            22            23            24            25 
     21  0.123400D+11
     22  0.276688D-01  0.123400D+11
     23  0.289019D-02  0.311221D+02  0.123400D+11
     24  0.481018D+00 -0.432211D-02  0.684644D-02  0.123400D+11
     25  0.847465D-01 -0.522777D-02  0.353794D-02  0.269192D+02  0.123400D+11
     26 -0.849401D-02  0.389188D-02  0.460671D-03 -0.119044D+01  0.182402D+02
     27 -0.134328D-01  0.325383D-03  0.265486D-03 -0.119426D+01  0.177660D+02
     28 -0.975235D-02 -0.239986D-02  0.170562D-03 -0.749783D+00  0.169851D+02
     29 -0.403935D-02  0.169212D+02  0.293135D+00 -0.587503D-02  0.121037D-02
     30 -0.297818D-03 -0.685236D+00  0.407145D-01  0.330418D-02  0.125654D-02
     31 -0.924589D-04 -0.321122D+00  0.280635D+00  0.511465D-03 -0.353105D-03
     32  0.206370D-02 -0.553078D+00  0.199423D+00 -0.565430D-03  0.417313D-03
     33  0.404580D+00  0.355771D+00 -0.105659D-01 -0.977878D+01  0.358026D+01
               26            27            28            29            30 
     26  0.123400D+11
     27 -0.928985D+00  0.123400D+11
     28 -0.730218D+00 -0.737506D+00  0.123400D+11
     29 -0.462805D-04 -0.157629D-04 -0.941730D-04  0.123400D+11
     30  0.268605D-03  0.165196D-03 -0.164661D-04  0.197181D+02  0.123400D+11
     31  0.268394D-03  0.136877D-03  0.106799D-04  0.182080D+02 -0.707106D+00
     32 -0.808982D-04 -0.172931D-03  0.154537D-04  0.202727D+02 -0.744396D+00
     33  0.452574D+00  0.452159D+00  0.805774D+00 -0.177557D-01  0.146717D-01
               31            32            33 
     31  0.123400D+11
     32 -0.762237D+00  0.123400D+11
     33  0.154946D-02  0.130445D-01  0.123400D+11
 Fermi Contact (FC) contribution to J (Hz):
                1             2             3             4             5 
      1  0.243533D+11
      2  0.691270D+02  0.243533D+11
      3 -0.240646D+01  0.663848D+02  0.243533D+11
      4  0.597472D+01  0.753058D+00  0.677349D+02  0.243533D+11
      5  0.318895D+01  0.599008D+01 -0.263836D+01  0.686183D+02  0.243533D+11
      6  0.711701D+02 -0.264086D+00  0.859349D+01  0.309944D+00  0.766981D+02
      7  0.168960D+03 -0.242343D+01  0.738916D+01 -0.156411D+01  0.471928D+01
      8 -0.173858D+01  0.167853D+03 -0.198421D+01  0.768396D+01 -0.233717D+01
      9 -0.223004D+01  0.807183D+01 -0.188438D+01  0.180141D+03 -0.140255D+01
     10  0.538157D+01 -0.178631D+01  0.840514D+01 -0.213241D+01  0.181757D+03
     11  0.389537D+01  0.272114D+01  0.479560D+02  0.316934D+01  0.412055D+01
     12 -0.622276D+00  0.569709D+01 -0.865430D+01  0.556818D+01 -0.214662D+00
     13  0.974489D+00  0.785982D+01 -0.766540D+01  0.640668D+01  0.656257D-03
     14 -0.113881D+01  0.161013D+01 -0.154838D+01  0.171554D+01 -0.101992D+01
     15  0.866530D-01 -0.190648D+00  0.258571D+01 -0.166713D+00  0.883909D-01
     16  0.781453D-01 -0.475891D-01  0.268668D+01 -0.955477D-01  0.503496D-01
     17  0.803102D+00  0.128612D+00 -0.287399D+00 -0.320310D+01 -0.122767D+02
     18  0.335931D+01 -0.810130D-01 -0.369945D+00  0.161135D+01  0.893256D+01
     19 -0.150492D-01 -0.547960D-01 -0.422389D+00 -0.563253D+00 -0.185807D-01
     20  0.157403D-01 -0.393122D-01  0.498737D+00  0.135747D+00  0.618893D-01
     21  0.240771D-02  0.407421D-01 -0.575232D-01  0.444043D-01 -0.303050D-02
     22  0.464678D-01  0.267725D+00  0.125681D+00 -0.280167D-01  0.489094D-01
     23  0.285402D-01  0.161014D+00  0.410002D-01 -0.536920D-02  0.968443D-02
     24 -0.143035D-01  0.753488D-02  0.176239D+00  0.122383D+00  0.860069D-02
     25  0.207237D-02 -0.642930D-02  0.448246D-01  0.569530D-02  0.439434D-02
     26 -0.716544D-03  0.180195D-02  0.519287D-04  0.269554D-02  0.442896D-03
     27  0.119203D-03  0.423951D-02 -0.152378D-01 -0.849689D-03 -0.182084D-02
     28 -0.944742D-03  0.756346D-03  0.513472D-02  0.112604D-02 -0.104998D-02
     29  0.247509D+00  0.154697D+00  0.727012D-01 -0.134604D-01 -0.671835D-03
     30  0.138897D+00  0.148736D+00  0.568251D-01 -0.681785D-02  0.536111D-01
     31 -0.138576D-01  0.269567D-02  0.187023D-01  0.130404D-02  0.379670D-02
     32  0.968785D-01  0.107786D+00  0.123690D-01 -0.550156D-02  0.177961D-01
     33  0.983689D-02 -0.184992D-01 -0.522831D-02 -0.121730D-01  0.830721D-02
                6             7             8             9            10 
      6  0.243533D+11
      7 -0.431598D+01  0.385007D+12
      8  0.908784D+01  0.102387D+02  0.385007D+12
      9  0.971597D+01  0.115270D+01  0.117185D+01  0.385007D+12
     10 -0.551068D+01  0.197852D+01  0.135658D+01  0.109822D+02  0.385007D+12
     11 -0.923993D+00  0.146800D+00  0.521086D+01  0.566392D+01  0.110402D+00
     12  0.830616D+00  0.277678D+00 -0.116396D+01 -0.723075D+00  0.430506D+00
     13  0.199214D+00  0.210923D+00 -0.532636D-01 -0.787279D+00  0.152237D+00
     14  0.112962D+01  0.368950D+00 -0.108567D+01 -0.110397D+01  0.444867D+00
     15 -0.429316D-01 -0.117320D-01  0.244443D+00  0.722245D-01 -0.307601D-01
     16 -0.374204D-01 -0.576796D-02  0.195353D+00  0.330840D-01 -0.123804D-01
     17  0.128482D+02 -0.234238D+01 -0.297571D+00 -0.111332D+01 -0.301099D+01
     18 -0.527013D+01 -0.430460D+00  0.529447D-01  0.434733D+00  0.270959D-01
     19 -0.114001D-01  0.404446D-01  0.924400D-01 -0.226969D+00  0.202709D-01
     20 -0.109167D-01 -0.571976D-02  0.811024D-01  0.317757D-01  0.707694D-02
     21  0.123502D-01  0.144242D-02  0.745356D-01 -0.524141D-04  0.292070D-02
     22 -0.236834D-01 -0.271995D-01  0.339556D+00  0.238395D-01 -0.387581D-01
     23 -0.800684D-02 -0.157224D-01  0.130991D+00  0.102029D-01 -0.577375D-02
     24  0.172588D-01  0.276257D-02  0.278191D-02 -0.114322D-02  0.149030D-01
     25 -0.118866D-02 -0.107768D-02  0.353787D-02  0.389609D-02  0.408422D-03
     26  0.465934D-03 -0.969084D-04 -0.381023D-02  0.719527D-04  0.750372D-03
     27  0.674667D-03  0.102297D-03  0.310151D-03 -0.150201D-02 -0.977800D-04
     28  0.832438D-03  0.309245D-03 -0.310953D-02 -0.124586D-02  0.550641D-03
     29 -0.274907D-01 -0.666634D-01  0.713845D-02 -0.229440D-02 -0.473491D-02
     30  0.592174D-02  0.528864D-01  0.907605D-01 -0.530089D-02 -0.419820D-01
     31  0.438889D-03  0.520723D-02  0.345941D-01 -0.128924D-02 -0.325313D-02
     32 -0.406473D-02  0.217831D-01  0.465479D-01 -0.289466D-02 -0.156135D-01
     33 -0.112251D-01 -0.476748D-02  0.884134D-03  0.100515D-01 -0.286100D-02
               11            12            13            14            15 
     11  0.243533D+11
     12  0.133295D+03  0.385007D+12
     13  0.144992D+03 -0.269671D+02  0.385007D+12
     14  0.315216D+02 -0.734498D+01 -0.506241D+01  0.243533D+11
     15 -0.652430D+01  0.188836D+01  0.142448D+02  0.166381D+03  0.385007D+12
     16 -0.542294D+00  0.119466D+01  0.251307D+01  0.565083D+02 -0.104018D+02
     17 -0.706509D-01 -0.153956D+00 -0.391160D-01 -0.248032D+00  0.973809D-02
     18  0.976914D-01 -0.116130D+00 -0.346685D-01 -0.192016D+00  0.719701D-02
     19 -0.802497D+00 -0.579729D-01 -0.500422D-01 -0.485096D+01 -0.156802D+01
     20  0.767019D+00  0.459711D+01  0.119647D+01  0.745986D+01 -0.996767D+00
     21  0.455678D+01 -0.120333D+01 -0.375948D+00  0.167517D+01  0.594618D+01
     22  0.436446D-03  0.107390D+00  0.132165D+00  0.531927D+01  0.342325D+00
     23 -0.184046D+00  0.858959D-01  0.266244D-01  0.533915D+00  0.245045D+00
     24  0.319059D+01  0.387751D+00  0.220104D+00 -0.376201D+00  0.249014D+01
     25 -0.692633D-01  0.358572D+00  0.154762D+00  0.133328D+01 -0.611848D+00
     26  0.103918D+00  0.227811D-01 -0.262523D-02  0.321965D+00  0.556977D+00
     27 -0.380334D-01 -0.394825D-01 -0.147305D-01  0.947074D-01  0.831269D+00
     28 -0.277653D-01 -0.199200D-01 -0.577332D-02  0.730074D+00 -0.693641D-01
     29 -0.126489D+00  0.445381D-01  0.564903D-01  0.133645D+01  0.259760D+00
     30  0.430645D+00 -0.315942D-01  0.117543D-01 -0.716944D+00  0.901772D+00
     31 -0.581263D-02 -0.126637D-02 -0.987702D-02 -0.178852D+00  0.229301D+00
     32  0.352725D+00 -0.265320D-01  0.188393D-01 -0.590605D+00  0.271179D+00
     33 -0.165886D+00 -0.123716D+00 -0.442973D-02 -0.941175D+00 -0.107885D+01
               16            17            18            19            20 
     16  0.243533D+11
     17  0.680052D-02  0.708114D+10
     18  0.502338D-02 -0.837452D+02  0.385007D+12
     19  0.996261D+01  0.729844D-02  0.568935D-02  0.708114D+10
     20  0.208607D-01  0.676450D-03  0.150166D-02 -0.341696D+00  0.201170D+10
     21  0.377638D+00 -0.221835D-02 -0.136206D-02 -0.305480D+00  0.695322D+02
     22  0.168980D+02  0.238276D-02  0.760098D-03 -0.199037D+01 -0.707238D-01
     23  0.257407D+01  0.112669D-02  0.100047D-02 -0.204588D+01 -0.116487D+00
     24  0.965130D-01 -0.477494D-02 -0.300914D-02  0.265693D-01  0.142181D+02
     25 -0.306287D+00 -0.494352D-04  0.116922D-03 -0.550119D-01  0.703205D+01
     26  0.436233D+00 -0.956399D-04 -0.353547D-04  0.691189D-02  0.909542D+00
     27  0.695961D+00 -0.181698D-03 -0.151915D-03 -0.278397D-01  0.721461D+00
     28 -0.922981D-02 -0.212531D-03 -0.171561D-03 -0.113627D-01  0.741736D+00
     29 -0.496809D+00 -0.360783D-02 -0.268594D-02 -0.852189D+00  0.866333D-01
     30  0.149535D+01  0.228591D-02 -0.412620D-03 -0.101249D+01  0.382901D-01
     31  0.756017D+01  0.285311D-03  0.140337D-03 -0.798681D+00  0.140240D-01
     32  0.141925D+01 -0.119718D-02 -0.124071D-02 -0.100337D+01  0.136247D-01
     33 -0.486690D+00  0.242299D-02  0.196165D-02  0.625986D-01 -0.176758D+01
               21            22            23            24            25 
     21  0.385007D+12
     22  0.624010D-01  0.201170D+10
     23  0.901738D-01  0.701892D+02  0.385007D+12
     24  0.377451D+01 -0.245156D-02  0.537233D-01  0.243533D+11
     25  0.664998D+00 -0.296526D-02  0.277619D-01  0.531256D+02  0.243533D+11
     26 -0.265013D+00  0.877730D-02  0.143729D-01 -0.934124D+01  0.143129D+03
     27 -0.419103D+00  0.733832D-03  0.828316D-02 -0.937125D+01  0.139408D+03
     28 -0.304273D+00 -0.541237D-02  0.532153D-02 -0.588347D+01  0.133281D+03
     29 -0.316964D-01  0.959792D+01  0.230020D+01 -0.115945D-01  0.238870D-02
     30 -0.929192D-02 -0.154540D+01  0.127029D+01  0.259276D-01  0.985992D-02
     31 -0.288471D-02 -0.724222D+00  0.875581D+01  0.401342D-02 -0.277078D-02
     32  0.643872D-01 -0.124735D+01  0.622200D+01 -0.443688D-02  0.327462D-02
     33 -0.171189D+01 -0.108815D+00  0.447073D-01  0.104064D+02 -0.381005D+01
               26            27            28            29            30 
     26  0.385007D+12
     27 -0.289843D+02  0.385007D+12
     28 -0.227828D+02 -0.230102D+02  0.385007D+12
     29 -0.363159D-03 -0.123690D-03 -0.738966D-03  0.243533D+11
     30  0.838045D-02  0.515411D-02 -0.513743D-03  0.154726D+03  0.385007D+12
     31  0.837388D-02  0.427056D-02  0.333212D-03  0.142876D+03 -0.220617D+02
     32 -0.252402D-02 -0.539545D-02  0.482155D-03  0.159078D+03 -0.232251D+02
     33 -0.191497D+01 -0.191321D+01 -0.340945D+01  0.188953D-01 -0.620800D-01
               31            32            33 
     31  0.385007D+12
     32 -0.237818D+02  0.385007D+12
     33 -0.655619D-02 -0.551950D-01  0.708114D+10
 End of Minotr F.D. properties file   721 does not exist.
 End of Minotr F.D. properties file   722 does not exist.
 End of Minotr F.D. properties file   788 does not exist.
 Leave Link 1002 at Wed Jun 25 01:56:32 2014, MaxMem=  4294967296 cpu:    491906.7
 (Enter /home/ztw1e12/g09/l601.exe)
 Copying SCF densities to generalized density rwf, IOpCl= 0 IROHF=0.

 **********************************************************************

            Population analysis using the SCF density.

 **********************************************************************

 Orbital symmetries:
       Occupied  (A) (A) (A) (A) (A) (A) (A) (A) (A) (A) (A) (A)
                 (A) (A) (A) (A) (A) (A) (A) (A) (A) (A) (A) (A)
                 (A) (A) (A) (A) (A) (A) (A) (A) (A) (A) (A) (A)
                 (A) (A) (A) (A) (A) (A) (A) (A) (A) (A) (A) (A)
                 (A) (A) (A) (A) (A) (A) (A) (A) (A) (A) (A) (A)
                 (A) (A) (A)
       Virtual   (A) (A) (A) (A) (A) (A) (A) (A) (A) (A) (A) (A)
                 (A) (A) (A) (A) (A) (A) (A) (A) (A) (A) (A) (A)
                 (A) (A) (A) (A) (A) (A) (A) (A) (A) (A) (A) (A)
                 (A) (A) (A) (A) (A) (A) (A) (A) (A) (A) (A) (A)
                 (A) (A) (A) (A) (A) (A) (A) (A) (A) (A) (A) (A)
                 (A) (A) (A) (A) (A) (A) (A) (A) (A) (A) (A) (A)
                 (A) (A) (A) (A) (A) (A) (A) (A) (A) (A) (A) (A)
                 (A) (A) (A) (A) (A) (A) (A) (A) (A) (A) (A) (A)
                 (A) (A) (A) (A) (A) (A) (A) (A) (A) (A) (A) (A)
                 (A) (A) (A) (A) (A) (A) (A) (A) (A) (A) (A) (A)
                 (A) (A) (A) (A) (A) (A) (A) (A) (A) (A) (A) (A)
                 (A) (A) (A) (A) (A) (A) (A) (A) (A) (A) (A) (A)
                 (A) (A) (A) (A) (A) (A) (A) (A) (A) (A) (A) (A)
                 (A) (A) (A) (A) (A) (A) (A) (A) (A) (A) (A) (A)
                 (A) (A) (A) (A) (A) (A) (A) (A) (A) (A) (A) (A)
                 (A) (A) (A) (A) (A) (A) (A) (A) (A) (A) (A) (A)
                 (A) (A) (A) (A) (A) (A) (A) (A) (A) (A) (A) (A)
                 (A) (A) (A) (A) (A) (A) (A) (A) (A) (A) (A) (A)
                 (A) (A) (A) (A) (A) (A) (A) (A) (A) (A) (A) (A)
                 (A) (A) (A) (A) (A) (A) (A) (A) (A) (A) (A) (A)
                 (A) (A) (A) (A) (A) (A) (A) (A) (A) (A) (A) (A)
                 (A) (A) (A) (A) (A) (A) (A) (A) (A) (A) (A) (A)
                 (A) (A) (A) (A) (A) (A) (A) (A) (A) (A) (A) (A)
                 (A) (A) (A) (A) (A) (A) (A) (A) (A) (A) (A) (A)
                 (A) (A) (A) (A) (A) (A) (A) (A) (A) (A) (A) (A)
                 (A) (A) (A) (A) (A) (A) (A) (A) (A) (A) (A) (A)
                 (A) (A) (A) (A) (A) (A) (A) (A) (A) (A) (A) (A)
                 (A) (A) (A) (A) (A) (A) (A) (A) (A) (A) (A) (A)
                 (A) (A) (A) (A) (A) (A) (A) (A) (A) (A) (A) (A)
                 (A) (A) (A) (A) (A) (A) (A) (A) (A) (A) (A) (A)
                 (A) (A) (A) (A) (A) (A) (A) (A) (A) (A) (A) (A)
                 (A) (A) (A) (A) (A) (A) (A) (A) (A) (A) (A) (A)
                 (A) (A) (A) (A) (A) (A) (A) (A) (A) (A) (A) (A)
                 (A) (A) (A) (A) (A) (A) (A) (A) (A) (A) (A) (A)
                 (A) (A) (A) (A) (A) (A) (A) (A) (A) (A) (A) (A)
                 (A) (A) (A) (A) (A) (A) (A) (A) (A) (A) (A) (A)
                 (A) (A) (A) (A) (A) (A) (A) (A) (A) (A) (A) (A)
                 (A) (A) (A) (A) (A) (A) (A) (A) (A) (A) (A) (A)
                 (A) (A) (A) (A) (A) (A) (A) (A) (A) (A) (A) (A)
                 (A) (A) (A) (A) (A) (A) (A) (A) (A) (A) (A) (A)
                 (A) (A) (A) (A) (A) (A) (A) (A) (A) (A) (A) (A)
                 (A) (A) (A) (A) (A) (A) (A) (A) (A) (A) (A) (A)
                 (A) (A) (A) (A) (A) (A) (A) (A) (A) (A) (A) (A)
                 (A) (A) (A) (A) (A) (A) (A) (A) (A) (A) (A) (A)
                 (A) (A) (A) (A) (A) (A) (A) (A) (A) (A) (A) (A)
                 (A) (A) (A) (A) (A) (A) (A) (A) (A) (A) (A) (A)
                 (A) (A) (A) (A) (A) (A) (A) (A) (A) (A) (A) (A)
                 (A) (A) (A) (A) (A) (A) (A) (A) (A) (A) (A) (A)
                 (A) (A) (A) (A) (A) (A) (A) (A) (A) (A) (A) (A)
                 (A) (A) (A) (A) (A) (A) (A) (A) (A) (A) (A) (A)
                 (A) (A) (A) (A) (A) (A) (A) (A) (A) (A) (A) (A)
                 (A) (A) (A) (A) (A) (A) (A) (A) (A) (A) (A) (A)
                 (A) (A) (A) (A) (A) (A) (A) (A) (A) (A) (A) (A)
                 (A) (A) (A) (A) (A) (A) (A) (A) (A) (A) (A) (A)
                 (A) (A) (A) (A) (A) (A) (A) (A) (A) (A) (A) (A)
                 (A) (A) (A) (A) (A) (A) (A) (A) (A) (A) (A) (A)
                 (A) (A) (A) (A) (A) (A) (A) (A) (A) (A) (A) (A)
                 (A) (A) (A) (A) (A) (A) (A) (A) (A) (A) (A) (A)
                 (A) (A) (A) (A) (A) (A) (A) (A) (A) (A) (A) (A)
                 (A) (A) (A) (A) (A) (A) (A) (A) (A) (A) (A) (A)
                 (A) (A) (A) (A) (A) (A) (A) (A) (A) (A) (A) (A)
                 (A) (A) (A) (A) (A) (A) (A) (A) (A) (A) (A) (A)
                 (A) (A) (A) (A) (A) (A) (A) (A) (A) (A) (A) (A)
                 (A) (A) (A) (A) (A) (A) (A) (A) (A) (A) (A) (A)
                 (A) (A) (A) (A) (A) (A) (A) (A) (A) (A) (A) (A)
                 (A) (A) (A) (A) (A) (A) (A) (A) (A) (A) (A) (A)
                 (A) (A) (A) (A) (A) (A) (A) (A) (A) (A) (A) (A)
                 (A) (A) (A) (A) (A) (A) (A) (A) (A) (A) (A) (A)
                 (A) (A) (A) (A) (A) (A) (A) (A) (A) (A) (A) (A)
                 (A) (A) (A) (A) (A) (A) (A) (A) (A) (A) (A) (A)
                 (A) (A) (A) (A) (A) (A) (A) (A) (A) (A) (A) (A)
                 (A) (A) (A) (A) (A) (A) (A) (A) (A) (A) (A) (A)
                 (A) (A) (A) (A) (A) (A) (A) (A) (A) (A) (A) (A)
                 (A) (A) (A) (A) (A) (A) (A) (A) (A) (A) (A) (A)
                 (A) (A) (A) (A) (A) (A) (A) (A) (A) (A) (A) (A)
                 (A) (A) (A) (A) (A) (A) (A) (A) (A) (A) (A) (A)
                 (A) (A) (A) (A) (A) (A) (A) (A) (A) (A) (A) (A)
                 (A) (A) (A) (A) (A) (A) (A) (A) (A) (A) (A) (A)
                 (A) (A) (A) (A) (A) (A) (A) (A) (A) (A) (A) (A)
                 (A) (A) (A) (A) (A) (A) (A) (A) (A) (A) (A) (A)
                 (A) (A) (A) (A) (A) (A) (A) (A) (A) (A) (A) (A)
                 (A) (A) (A) (A) (A) (A) (A) (A) (A) (A) (A) (A)
                 (A) (A) (A) (A) (A) (A) (A) (A) (A) (A) (A) (A)
                 (A) (A) (A) (A) (A) (A) (A) (A) (A)
 The electronic state is 1-A.
 Alpha  occ. eigenvalues --  -19.24756 -19.17743 -19.16678 -14.42980 -14.41556
 Alpha  occ. eigenvalues --  -10.34656 -10.33083 -10.30790 -10.29280 -10.26849
 Alpha  occ. eigenvalues --  -10.26239 -10.25172 -10.25160 -10.24823 -10.24662
 Alpha  occ. eigenvalues --  -10.24487 -10.23795  -1.09084  -1.05935  -1.04465
 Alpha  occ. eigenvalues --   -0.95897  -0.93592  -0.87762  -0.81469  -0.77333
 Alpha  occ. eigenvalues --   -0.76691  -0.73997  -0.71871  -0.66856  -0.64137
 Alpha  occ. eigenvalues --   -0.62319  -0.60138  -0.59429  -0.56321  -0.55341
 Alpha  occ. eigenvalues --   -0.52385  -0.50414  -0.49855  -0.48151  -0.47317
 Alpha  occ. eigenvalues --   -0.46943  -0.45590  -0.45106  -0.44182  -0.43952
 Alpha  occ. eigenvalues --   -0.43191  -0.42519  -0.41903  -0.41400  -0.41082
 Alpha  occ. eigenvalues --   -0.39970  -0.39290  -0.38017  -0.37352  -0.35493
 Alpha  occ. eigenvalues --   -0.35359  -0.35061  -0.30048  -0.27953  -0.27262
 Alpha  occ. eigenvalues --   -0.26596  -0.25565  -0.23771
 Alpha virt. eigenvalues --   -0.01199  -0.00519   0.00518   0.01842   0.01954
 Alpha virt. eigenvalues --    0.02974   0.03950   0.04399   0.05475   0.06545
 Alpha virt. eigenvalues --    0.06894   0.07879   0.09035   0.09699   0.10481
 Alpha virt. eigenvalues --    0.10730   0.11764   0.12411   0.12473   0.12967
 Alpha virt. eigenvalues --    0.14779   0.15246   0.16699   0.17175   0.19446
 Alpha virt. eigenvalues --    0.20223   0.21314   0.21881   0.22677   0.23465
 Alpha virt. eigenvalues --    0.23957   0.24135   0.24508   0.25277   0.25895
 Alpha virt. eigenvalues --    0.26882   0.28032   0.28509   0.29801   0.30053
 Alpha virt. eigenvalues --    0.30437   0.31090   0.31486   0.31727   0.32161
 Alpha virt. eigenvalues --    0.32889   0.33589   0.34239   0.34898   0.35188
 Alpha virt. eigenvalues --    0.35751   0.36269   0.36924   0.37350   0.37817
 Alpha virt. eigenvalues --    0.38383   0.38487   0.38881   0.39126   0.39941
 Alpha virt. eigenvalues --    0.40065   0.40901   0.41158   0.41438   0.42013
 Alpha virt. eigenvalues --    0.42408   0.42840   0.43273   0.43363   0.44165
 Alpha virt. eigenvalues --    0.44711   0.45029   0.45507   0.46913   0.47086
 Alpha virt. eigenvalues --    0.48114   0.48595   0.49120   0.49312   0.50765
 Alpha virt. eigenvalues --    0.50969   0.51386   0.51957   0.52910   0.54351
 Alpha virt. eigenvalues --    0.54489   0.55055   0.56265   0.56636   0.58135
 Alpha virt. eigenvalues --    0.58325   0.58957   0.59687   0.60339   0.61432
 Alpha virt. eigenvalues --    0.62083   0.62813   0.63552   0.64643   0.65127
 Alpha virt. eigenvalues --    0.65770   0.66257   0.67006   0.67622   0.69422
 Alpha virt. eigenvalues --    0.69956   0.70442   0.70769   0.71591   0.71771
 Alpha virt. eigenvalues --    0.72180   0.74140   0.74791   0.75115   0.76776
 Alpha virt. eigenvalues --    0.77055   0.77901   0.78434   0.79145   0.80276
 Alpha virt. eigenvalues --    0.81301   0.82155   0.82465   0.83149   0.83552
 Alpha virt. eigenvalues --    0.84050   0.84908   0.85107   0.86857   0.87213
 Alpha virt. eigenvalues --    0.88095   0.88944   0.89300   0.90553   0.91051
 Alpha virt. eigenvalues --    0.91974   0.92903   0.93584   0.95176   0.95240
 Alpha virt. eigenvalues --    0.95837   0.96530   0.96839   0.97864   0.98468
 Alpha virt. eigenvalues --    0.99403   1.00161   1.00250   1.01373   1.02072
 Alpha virt. eigenvalues --    1.03272   1.03516   1.04573   1.04728   1.04882
 Alpha virt. eigenvalues --    1.06831   1.06981   1.07826   1.08123   1.09291
 Alpha virt. eigenvalues --    1.10614   1.11135   1.12246   1.13323   1.13747
 Alpha virt. eigenvalues --    1.14418   1.15450   1.16249   1.16489   1.17231
 Alpha virt. eigenvalues --    1.18038   1.18294   1.18979   1.19628   1.20122
 Alpha virt. eigenvalues --    1.20920   1.21112   1.21640   1.22523   1.22716
 Alpha virt. eigenvalues --    1.22942   1.23730   1.24238   1.24977   1.25223
 Alpha virt. eigenvalues --    1.25938   1.26491   1.27108   1.27386   1.28026
 Alpha virt. eigenvalues --    1.28551   1.29125   1.29835   1.30516   1.31390
 Alpha virt. eigenvalues --    1.31695   1.32369   1.32653   1.33114   1.34033
 Alpha virt. eigenvalues --    1.34878   1.35645   1.35919   1.37694   1.38186
 Alpha virt. eigenvalues --    1.40094   1.41514   1.41996   1.42816   1.44199
 Alpha virt. eigenvalues --    1.44532   1.48051   1.49825   1.51127   1.52340
 Alpha virt. eigenvalues --    1.53467   1.54156   1.54540   1.57160   1.57859
 Alpha virt. eigenvalues --    1.58743   1.60291   1.61755   1.63670   1.64819
 Alpha virt. eigenvalues --    1.65404   1.67729   1.69451   1.70205   1.72016
 Alpha virt. eigenvalues --    1.74346   1.74818   1.76100   1.76326   1.79939
 Alpha virt. eigenvalues --    1.80124   1.81538   1.82591   1.83845   1.84874
 Alpha virt. eigenvalues --    1.86395   1.87278   1.88754   1.89917   1.91553
 Alpha virt. eigenvalues --    1.92055   1.92986   1.94814   1.96453   1.96983
 Alpha virt. eigenvalues --    1.97479   1.99440   2.00370   2.02691   2.04262
 Alpha virt. eigenvalues --    2.04345   2.05144   2.07687   2.08407   2.09202
 Alpha virt. eigenvalues --    2.10271   2.13216   2.13448   2.15175   2.15730
 Alpha virt. eigenvalues --    2.16706   2.17952   2.18576   2.19666   2.21272
 Alpha virt. eigenvalues --    2.21485   2.22330   2.24268   2.25410   2.25933
 Alpha virt. eigenvalues --    2.28113   2.28935   2.30876   2.31605   2.32929
 Alpha virt. eigenvalues --    2.35069   2.36619   2.37407   2.38050   2.38592
 Alpha virt. eigenvalues --    2.38964   2.40193   2.41571   2.42377   2.43014
 Alpha virt. eigenvalues --    2.43973   2.45816   2.47037   2.47641   2.48855
 Alpha virt. eigenvalues --    2.50541   2.50794   2.52027   2.53738   2.54018
 Alpha virt. eigenvalues --    2.56482   2.56988   2.58261   2.59172   2.60046
 Alpha virt. eigenvalues --    2.62116   2.64211   2.65437   2.66350   2.67377
 Alpha virt. eigenvalues --    2.67933   2.68102   2.68555   2.68895   2.69731
 Alpha virt. eigenvalues --    2.69938   2.70993   2.71444   2.72219   2.72663
 Alpha virt. eigenvalues --    2.73487   2.74661   2.75206   2.75699   2.76225
 Alpha virt. eigenvalues --    2.77118   2.78197   2.80006   2.80111   2.81041
 Alpha virt. eigenvalues --    2.82317   2.82906   2.84282   2.85129   2.86006
 Alpha virt. eigenvalues --    2.87102   2.87775   2.88238   2.88874   2.89781
 Alpha virt. eigenvalues --    2.90358   2.90919   2.91363   2.92482   2.93618
 Alpha virt. eigenvalues --    2.94355   2.94655   2.94846   2.95345   2.96323
 Alpha virt. eigenvalues --    2.96925   2.97647   2.97819   2.98412   2.98867
 Alpha virt. eigenvalues --    2.99095   3.00342   3.00615   3.01391   3.01863
 Alpha virt. eigenvalues --    3.02891   3.03376   3.04554   3.04996   3.05426
 Alpha virt. eigenvalues --    3.05793   3.06651   3.07211   3.08169   3.09693
 Alpha virt. eigenvalues --    3.10782   3.11067   3.12630   3.12920   3.13609
 Alpha virt. eigenvalues --    3.14342   3.15240   3.15702   3.16299   3.17505
 Alpha virt. eigenvalues --    3.18216   3.18837   3.19474   3.19795   3.20796
 Alpha virt. eigenvalues --    3.22313   3.22678   3.23287   3.24522   3.24784
 Alpha virt. eigenvalues --    3.26029   3.26616   3.27749   3.28052   3.28390
 Alpha virt. eigenvalues --    3.29238   3.29795   3.30472   3.31095   3.31324
 Alpha virt. eigenvalues --    3.31793   3.32320   3.32577   3.34264   3.34410
 Alpha virt. eigenvalues --    3.34634   3.35935   3.37142   3.38226   3.39101
 Alpha virt. eigenvalues --    3.39489   3.41142   3.41876   3.41926   3.42924
 Alpha virt. eigenvalues --    3.43401   3.44210   3.45432   3.46476   3.47033
 Alpha virt. eigenvalues --    3.47942   3.48331   3.50816   3.51225   3.52100
 Alpha virt. eigenvalues --    3.52326   3.52697   3.54404   3.55309   3.55701
 Alpha virt. eigenvalues --    3.57291   3.58127   3.60104   3.61059   3.61690
 Alpha virt. eigenvalues --    3.62920   3.63024   3.63743   3.65494   3.66734
 Alpha virt. eigenvalues --    3.67596   3.68089   3.69187   3.70115   3.70857
 Alpha virt. eigenvalues --    3.72140   3.72433   3.73206   3.73543   3.74268
 Alpha virt. eigenvalues --    3.74503   3.74639   3.76287   3.77105   3.77866
 Alpha virt. eigenvalues --    3.79340   3.80000   3.80490   3.81217   3.82049
 Alpha virt. eigenvalues --    3.82472   3.83739   3.84160   3.85897   3.86037
 Alpha virt. eigenvalues --    3.86967   3.88154   3.88717   3.89866   3.90570
 Alpha virt. eigenvalues --    3.91641   3.92397   3.92944   3.93515   3.94613
 Alpha virt. eigenvalues --    3.96683   3.98057   3.98378   3.98896   3.99563
 Alpha virt. eigenvalues --    4.00423   4.02472   4.03675   4.04773   4.04910
 Alpha virt. eigenvalues --    4.05428   4.06925   4.07760   4.08715   4.09063
 Alpha virt. eigenvalues --    4.09624   4.11736   4.12986   4.13009   4.13874
 Alpha virt. eigenvalues --    4.15045   4.15700   4.17102   4.18504   4.18965
 Alpha virt. eigenvalues --    4.19353   4.20190   4.20621   4.21422   4.21532
 Alpha virt. eigenvalues --    4.23356   4.24601   4.25317   4.25608   4.26479
 Alpha virt. eigenvalues --    4.27279   4.27742   4.28618   4.29530   4.30051
 Alpha virt. eigenvalues --    4.31689   4.32551   4.33722   4.36465   4.37076
 Alpha virt. eigenvalues --    4.39434   4.40121   4.42690   4.42961   4.43473
 Alpha virt. eigenvalues --    4.45200   4.47410   4.48592   4.48748   4.52204
 Alpha virt. eigenvalues --    4.53087   4.55424   4.55826   4.57328   4.58392
 Alpha virt. eigenvalues --    4.58838   4.60039   4.60544   4.61327   4.62297
 Alpha virt. eigenvalues --    4.64566   4.65389   4.66311   4.67303   4.67675
 Alpha virt. eigenvalues --    4.68466   4.69502   4.70685   4.71780   4.73231
 Alpha virt. eigenvalues --    4.73483   4.75527   4.76763   4.77800   4.79083
 Alpha virt. eigenvalues --    4.80232   4.82905   4.84488   4.85294   4.86739
 Alpha virt. eigenvalues --    4.87276   4.89400   4.90603   4.91073   4.91279
 Alpha virt. eigenvalues --    4.92245   4.93415   4.94110   4.95707   4.96433
 Alpha virt. eigenvalues --    4.97142   4.99221   5.00659   5.01875   5.03249
 Alpha virt. eigenvalues --    5.03898   5.05010   5.06368   5.07335   5.08523
 Alpha virt. eigenvalues --    5.09536   5.11242   5.12521   5.12999   5.14129
 Alpha virt. eigenvalues --    5.15571   5.16114   5.16909   5.17852   5.19182
 Alpha virt. eigenvalues --    5.19309   5.22384   5.24339   5.27118   5.29264
 Alpha virt. eigenvalues --    5.31574   5.32833   5.35131   5.37133   5.38292
 Alpha virt. eigenvalues --    5.40151   5.43302   5.43992   5.46459   5.47653
 Alpha virt. eigenvalues --    5.51561   5.52171   5.52468   5.54304   5.55124
 Alpha virt. eigenvalues --    5.57447   5.58075   5.59013   5.60629   5.62908
 Alpha virt. eigenvalues --    5.64084   5.65165   5.66244   5.66976   5.68177
 Alpha virt. eigenvalues --    5.68965   5.70099   5.71217   5.71701   5.74280
 Alpha virt. eigenvalues --    5.75448   5.75937   5.79453   5.80183   5.81883
 Alpha virt. eigenvalues --    5.85687   5.89454   5.89836   5.90442   5.96536
 Alpha virt. eigenvalues --    5.97937   5.98529   6.03476   6.08285   6.11321
 Alpha virt. eigenvalues --    6.17003   6.18248   6.18336   6.21831   6.27363
 Alpha virt. eigenvalues --    6.46641   6.46814   6.51019   6.52349   6.56178
 Alpha virt. eigenvalues --    6.61062   6.62051   6.62355   6.65517   6.68054
 Alpha virt. eigenvalues --    6.79982   6.80465   6.82164   6.88753   6.89213
 Alpha virt. eigenvalues --    6.91446   6.91806   6.92259   6.96559   7.06878
 Alpha virt. eigenvalues --    7.17464   7.19295   7.23043   7.28428   7.29548
 Alpha virt. eigenvalues --    7.67829   8.01698   8.11392   8.13580   8.13900
 Alpha virt. eigenvalues --    8.19973   8.27433   8.28345   8.36509   8.68110
 Alpha virt. eigenvalues --    8.74272   8.76011   8.77945   8.78710   8.81885
 Alpha virt. eigenvalues --    8.83239   8.84138   8.85189   8.87345   8.89070
 Alpha virt. eigenvalues --    8.92991   8.95497   8.96260   8.99221   9.08739
 Alpha virt. eigenvalues --    9.09665   9.15136   9.19499   9.22554   9.31519
 Alpha virt. eigenvalues --    9.36241   9.40575   9.41371   9.45805   9.48492
 Alpha virt. eigenvalues --    9.58708   9.62243   9.78778   9.81813  10.01873
 Alpha virt. eigenvalues --   10.06840  10.09553  10.12855  10.13701  10.18519
[...]
 Alpha virt. eigenvalues --    6.56705   6.61699   6.62718   6.65667   6.68619
 Alpha virt. eigenvalues --    6.78448   6.80886   6.86446   6.86728   6.88813
 Alpha virt. eigenvalues --    6.91290   6.97145   7.08576   7.09179   7.11516
 Alpha virt. eigenvalues --    7.15470   7.18140   7.29479   7.43686   8.88098
 Alpha virt. eigenvalues --    9.53101   9.86632  11.82100  12.14754  12.34778
 Alpha virt. eigenvalues --   12.46082  12.64260  12.77580  12.94667  13.33932
 Alpha virt. eigenvalues --   13.38661  13.57737  13.62252  13.71352  13.98977
 Alpha virt. eigenvalues --   15.60145
          Condensed to atoms (all electrons):
               1          2          3          4          5          6
     1  C    5.497525   0.178249  -0.001997  -0.036668  -0.018989   0.292505
     2  C    0.178249   5.610599   0.188323   0.005027  -0.047708   0.033142
     3  C   -0.001997   0.188323   5.453506   0.337142  -0.034365  -0.074974
     4  C   -0.036668   0.005027   0.337142   5.092892   0.444492  -0.021136
     5  C   -0.018989  -0.047708  -0.034365   0.444492   5.045088   0.385892
     6  C    0.292505   0.033142  -0.074974  -0.021136   0.385892   4.873281
     7  H    0.448172  -0.036079   0.009643  -0.000651   0.004021  -0.072955
     8  H   -0.009476   0.427303  -0.095067   0.003477  -0.000872   0.006450
     9  H   -0.003940   0.011422  -0.087867   0.458399  -0.040836   0.012040
    10  H    0.014740  -0.006262   0.014480  -0.056476   0.453676  -0.081130
    11  C    0.008572  -0.032365   0.159780  -0.044777   0.004930  -0.001415
    12  H    0.000273  -0.010675  -0.053658   0.003755   0.000003  -0.000076
    13  H   -0.000495   0.006289  -0.041947  -0.007843   0.000010   0.000040
    14  C    0.000319  -0.012380   0.009916  -0.009066  -0.000117   0.000123
    15  H    0.000030   0.002507  -0.000456   0.000141  -0.000118   0.000012
    16  C   -0.000835  -0.005323   0.012841   0.001580   0.001198  -0.000718
    17  O   -0.091386   0.014460  -0.000611   0.002600  -0.049452   0.393579
    18  H   -0.005937   0.004924  -0.000441  -0.000621   0.002106  -0.042946
    19  O    0.000200  -0.002091  -0.012776   0.002609   0.000753  -0.000170
    20  N    0.000151   0.000717  -0.003000   0.000842   0.000000   0.000007
    21  H    0.000045   0.001683  -0.002435  -0.000173  -0.000004   0.000003
    22  N    0.001482   0.013021  -0.011532   0.000989  -0.000345   0.000472
    23  H    0.000996   0.003353  -0.003353  -0.000379  -0.000038   0.000049
    24  C   -0.000007  -0.000168  -0.000521   0.000032   0.000001   0.000000
    25  C    0.000000   0.000010  -0.000016   0.000000   0.000000   0.000000
    26  H    0.000000   0.000001  -0.000005   0.000000   0.000000   0.000000
    27  H    0.000000  -0.000005   0.000009   0.000000   0.000000   0.000000
    28  H    0.000000  -0.000018   0.000019   0.000000   0.000000   0.000000
    29  C   -0.003186  -0.000797   0.000901   0.000303   0.000026   0.000030
    30  H   -0.000818   0.000381  -0.001529  -0.000277   0.000197   0.000718
    31  H    0.000112  -0.000444   0.000242   0.000000   0.000013  -0.000020
    32  H    0.000093   0.000356   0.000177  -0.000075  -0.000008  -0.000026
    33  O    0.000000   0.000013  -0.000012  -0.000005   0.000000   0.000000
               7          8          9         10         11         12
     1  C    0.448172  -0.009476  -0.003940   0.014740   0.008572   0.000273
     2  C   -0.036079   0.427303   0.011422  -0.006262  -0.032365  -0.010675
     3  C    0.009643  -0.095067  -0.087867   0.014480   0.159780  -0.053658
     4  C   -0.000651   0.003477   0.458399  -0.056476  -0.044777   0.003755
     5  C    0.004021  -0.000872  -0.040836   0.453676   0.004930   0.000003
     6  C   -0.072955   0.006450   0.012040  -0.081130  -0.001415  -0.000076
     7  H    0.524913  -0.006633   0.000037  -0.000222  -0.000336  -0.000013
     8  H   -0.006633   0.480797  -0.000261   0.000061   0.009293  -0.000869
     9  H    0.000037  -0.000261   0.514313  -0.009737   0.001300   0.000079
    10  H   -0.000222   0.000061  -0.009737   0.544657  -0.000151   0.000021
    11  C   -0.000336   0.009293   0.001300  -0.000151   5.440474   0.447404
    12  H   -0.000013  -0.000869   0.000079   0.000021   0.447404   0.462230
    13  H    0.000018   0.000319   0.001391  -0.000031   0.438574  -0.001828
    14  C    0.000011   0.000170  -0.001624  -0.000001   0.085424  -0.073841
    15  H   -0.000002   0.000194   0.000294  -0.000004  -0.016371  -0.000545
    16  C    0.000119  -0.002057   0.000217   0.000041  -0.016691   0.010011
    17  O   -0.004097  -0.000136  -0.000128   0.006190   0.000000   0.000000
    18  H    0.004484  -0.000013   0.000044  -0.000971  -0.000006   0.000000
    19  O    0.000002  -0.000001   0.001719   0.000042   0.007069  -0.000201
    20  N   -0.000006   0.000531   0.000063   0.000000  -0.015431  -0.000871
    21  H   -0.000005   0.001524  -0.000013   0.000000   0.002749   0.006988
    22  N   -0.000091  -0.000242   0.000151  -0.000010  -0.008370  -0.001040
    23  H   -0.000055   0.002275  -0.000017   0.000000   0.001717  -0.000578
    24  C    0.000000  -0.000061   0.000005   0.000000   0.010644   0.000385
    25  C    0.000000   0.000027   0.000000   0.000000  -0.000153  -0.000246
    26  H    0.000000   0.000001   0.000000   0.000000   0.000014  -0.000017
    27  H    0.000000  -0.000009   0.000000   0.000000  -0.000002   0.000027
    28  H    0.000000  -0.000023   0.000000   0.000000  -0.000176  -0.000006
    29  C    0.000047   0.000263  -0.000015   0.000004  -0.000807   0.000082
    30  H    0.000040  -0.000096  -0.000009   0.000016   0.000961   0.000003
    31  H    0.000038   0.000041  -0.000001   0.000000  -0.000044   0.000005
    32  H    0.000000   0.000002  -0.000002   0.000000  -0.000261   0.000003
    33  O    0.000000   0.000007   0.000000   0.000000   0.001023  -0.000079
              13         14         15         16         17         18
     1  C   -0.000495   0.000319   0.000030  -0.000835  -0.091386  -0.005937
     2  C    0.006289  -0.012380   0.002507  -0.005323   0.014460   0.004924
     3  C   -0.041947   0.009916  -0.000456   0.012841  -0.000611  -0.000441
     4  C   -0.007843  -0.009066   0.000141   0.001580   0.002600  -0.000621
     5  C    0.000010  -0.000117  -0.000118   0.001198  -0.049452   0.002106
     6  C    0.000040   0.000123   0.000012  -0.000718   0.393579  -0.042946
     7  H    0.000018   0.000011  -0.000002   0.000119  -0.004097   0.004484
     8  H    0.000319   0.000170   0.000194  -0.002057  -0.000136  -0.000013
     9  H    0.001391  -0.001624   0.000294   0.000217  -0.000128   0.000044
    10  H   -0.000031  -0.000001  -0.000004   0.000041   0.006190  -0.000971
    11  C    0.438574   0.085424  -0.016371  -0.016691   0.000000  -0.000006
    12  H   -0.001828  -0.073841  -0.000545   0.010011   0.000000   0.000000
    13  H    0.470698  -0.048151  -0.005429   0.004997   0.000000   0.000000
    14  C   -0.048151   5.673551   0.436581   0.125639   0.000000   0.000000
    15  H   -0.005429   0.436581   0.457295  -0.070332   0.000000   0.000000
    16  C    0.004997   0.125639  -0.070332   4.828246   0.000002   0.000000
    17  O    0.000000   0.000000   0.000000   0.000002   7.662193   0.359072
    18  H    0.000000   0.000000   0.000000   0.000000   0.359072   0.493002
    19  O   -0.001526  -0.068271   0.006847   0.726531   0.000000   0.000000
    20  N    0.000077   0.084566  -0.036773  -0.028685   0.000000   0.000000
    21  H    0.000961  -0.024187   0.003162  -0.001316   0.000000   0.000000
    22  N   -0.000721  -0.072409   0.007122   0.238103   0.000000   0.000000
    23  H    0.000017   0.003735   0.001140  -0.042109   0.000000   0.000000
    24  C   -0.000470  -0.094055  -0.003681   0.006470   0.000000   0.000000
    25  C   -0.000011   0.008900   0.002032  -0.001776   0.000000   0.000000
    26  H   -0.000003  -0.000312   0.000104  -0.000146   0.000000   0.000000
    27  H    0.000000  -0.000343  -0.000198   0.000556   0.000000   0.000000
    28  H    0.000007   0.000333  -0.000361   0.000004   0.000000   0.000000
    29  C    0.000050   0.009923  -0.000700  -0.046272  -0.000004  -0.000001
    30  H    0.000009  -0.002693  -0.000248   0.013232  -0.000021   0.000000
    31  H    0.000001   0.000495  -0.000008   0.009158  -0.000001   0.000000
    32  H    0.000001   0.002311   0.000134  -0.013447   0.000000   0.000000
    33  O    0.000013   0.013072   0.016366   0.001809   0.000000   0.000000
              19         20         21         22         23         24
     1  C    0.000200   0.000151   0.000045   0.001482   0.000996  -0.000007
     2  C   -0.002091   0.000717   0.001683   0.013021   0.003353  -0.000168
     3  C   -0.012776  -0.003000  -0.002435  -0.011532  -0.003353  -0.000521
     4  C    0.002609   0.000842  -0.000173   0.000989  -0.000379   0.000032
     5  C    0.000753   0.000000  -0.000004  -0.000345  -0.000038   0.000001
     6  C   -0.000170   0.000007   0.000003   0.000472   0.000049   0.000000
     7  H    0.000002  -0.000006  -0.000005  -0.000091  -0.000055   0.000000
     8  H   -0.000001   0.000531   0.001524  -0.000242   0.002275  -0.000061
     9  H    0.001719   0.000063  -0.000013   0.000151  -0.000017   0.000005
    10  H    0.000042   0.000000   0.000000  -0.000010   0.000000   0.000000
    11  C    0.007069  -0.015431   0.002749  -0.008370   0.001717   0.010644
    12  H   -0.000201  -0.000871   0.006988  -0.001040  -0.000578   0.000385
    13  H   -0.001526   0.000077   0.000961  -0.000721   0.000017  -0.000470
    14  C   -0.068271   0.084566  -0.024187  -0.072409   0.003735  -0.094055
    15  H    0.006847  -0.036773   0.003162   0.007122   0.001140  -0.003681
    16  C    0.726531  -0.028685  -0.001316   0.238103  -0.042109   0.006470
    17  O    0.000000   0.000000   0.000000   0.000000   0.000000   0.000000
    18  H    0.000000   0.000000   0.000000   0.000000   0.000000   0.000000
    19  O    7.814125   0.005474  -0.000234  -0.123969   0.005379  -0.000643
    20  N    0.005474   6.708760   0.360763   0.004894   0.024006   0.326457
    21  H   -0.000234   0.360763   0.507919  -0.000829   0.000469  -0.018010
    22  N   -0.123969   0.004894  -0.000829   6.525830   0.391854   0.009427
    23  H    0.005379   0.024006   0.000469   0.391854   0.524117  -0.005451
    24  C   -0.000643   0.326457  -0.018010   0.009427  -0.005451   4.604909
    25  C   -0.000003  -0.066320  -0.000875  -0.000481   0.000568   0.272275
    26  H    0.000001   0.000997   0.000054   0.000007   0.000140  -0.027037
    27  H   -0.000003  -0.002067  -0.000076   0.000324  -0.000533  -0.022580
    28  H    0.000000   0.013498  -0.000812   0.000137  -0.000067  -0.058000
    29  C    0.005328  -0.001731   0.000039   0.279885  -0.034286  -0.000081
    30  H    0.004466   0.000010  -0.000010  -0.069391  -0.000631   0.000156
    31  H    0.001462  -0.000152   0.000031  -0.029588  -0.008613  -0.000062
    32  H    0.007046  -0.000332   0.000009  -0.032022   0.004339  -0.000261
    33  O   -0.000283  -0.138919   0.004890  -0.004759  -0.002427   0.723168
              25         26         27         28         29         30
     1  C    0.000000   0.000000   0.000000   0.000000  -0.003186  -0.000818
     2  C    0.000010   0.000001  -0.000005  -0.000018  -0.000797   0.000381
     3  C   -0.000016  -0.000005   0.000009   0.000019   0.000901  -0.001529
     4  C    0.000000   0.000000   0.000000   0.000000   0.000303  -0.000277
     5  C    0.000000   0.000000   0.000000   0.000000   0.000026   0.000197
     6  C    0.000000   0.000000   0.000000   0.000000   0.000030   0.000718
     7  H    0.000000   0.000000   0.000000   0.000000   0.000047   0.000040
     8  H    0.000027   0.000001  -0.000009  -0.000023   0.000263  -0.000096
     9  H    0.000000   0.000000   0.000000   0.000000  -0.000015  -0.000009
    10  H    0.000000   0.000000   0.000000   0.000000   0.000004   0.000016
    11  C   -0.000153   0.000014  -0.000002  -0.000176  -0.000807   0.000961
    12  H   -0.000246  -0.000017   0.000027  -0.000006   0.000082   0.000003
    13  H   -0.000011  -0.000003   0.000000   0.000007   0.000050   0.000009
    14  C    0.008900  -0.000312  -0.000343   0.000333   0.009923  -0.002693
    15  H    0.002032   0.000104  -0.000198  -0.000361  -0.000700  -0.000248
    16  C   -0.001776  -0.000146   0.000556   0.000004  -0.046272   0.013232
    17  O    0.000000   0.000000   0.000000   0.000000  -0.000004  -0.000021
    18  H    0.000000   0.000000   0.000000   0.000000  -0.000001   0.000000
    19  O   -0.000003   0.000001  -0.000003   0.000000   0.005328   0.004466
    20  N   -0.066320   0.000997  -0.002067   0.013498  -0.001731   0.000010
    21  H   -0.000875   0.000054  -0.000076  -0.000812   0.000039  -0.000010
    22  N   -0.000481   0.000007   0.000324   0.000137   0.279885  -0.069391
    23  H    0.000568   0.000140  -0.000533  -0.000067  -0.034286  -0.000631
    24  C    0.272275  -0.027037  -0.022580  -0.058000  -0.000081   0.000156
    25  C    5.005129   0.392090   0.380442   0.394686  -0.000054  -0.000001
    26  H    0.392090   0.556080  -0.022436  -0.025354  -0.000002   0.000000
    27  H    0.380442  -0.022436   0.572969  -0.027065   0.000021   0.000003
    28  H    0.394686  -0.025354  -0.027065   0.600919   0.000007   0.000000
    29  C   -0.000054  -0.000002   0.000021   0.000007   4.812201   0.389494
    30  H   -0.000001   0.000000   0.000003   0.000000   0.389494   0.622801
    31  H   -0.000009   0.000000   0.000011   0.000001   0.393654  -0.031264
    32  H   -0.000006  -0.000001   0.000000   0.000000   0.405974  -0.049133
    33  O   -0.068366   0.001968   0.001079   0.004565   0.000067   0.000002
              31         32         33
     1  C    0.000112   0.000093   0.000000
     2  C   -0.000444   0.000356   0.000013
     3  C    0.000242   0.000177  -0.000012
     4  C    0.000000  -0.000075  -0.000005
     5  C    0.000013  -0.000008   0.000000
     6  C   -0.000020  -0.000026   0.000000
     7  H    0.000038   0.000000   0.000000
     8  H    0.000041   0.000002   0.000007
     9  H   -0.000001  -0.000002   0.000000
    10  H    0.000000   0.000000   0.000000
    11  C   -0.000044  -0.000261   0.001023
    12  H    0.000005   0.000003  -0.000079
    13  H    0.000001   0.000001   0.000013
    14  C    0.000495   0.002311   0.013072
    15  H   -0.000008   0.000134   0.016366
    16  C    0.009158  -0.013447   0.001809
    17  O   -0.000001   0.000000   0.000000
    18  H    0.000000   0.000000   0.000000
    19  O    0.001462   0.007046  -0.000283
    20  N   -0.000152  -0.000332  -0.138919
    21  H    0.000031   0.000009   0.004890
    22  N   -0.029588  -0.032022  -0.004759
    23  H   -0.008613   0.004339  -0.002427
    24  C   -0.000062  -0.000261   0.723168
    25  C   -0.000009  -0.000006  -0.068366
    26  H    0.000000  -0.000001   0.001968
    27  H    0.000011   0.000000   0.001079
    28  H    0.000001   0.000000   0.004565
    29  C    0.393654   0.405974   0.000067
    30  H   -0.031264  -0.049133   0.000002
    31  H    0.598354  -0.024232   0.000005
    32  H   -0.024232   0.566155   0.000135
    33  O    0.000005   0.000135   7.826315
 Mulliken charges:
               1
     1  C   -0.269729
     2  C   -0.347466
     3  C    0.239581
     4  C   -0.176134
     5  C   -0.149553
     6  C    0.297222
     7  H    0.129598
     8  H    0.183084
     9  H    0.142973
    10  H    0.121065
    11  C   -0.482572
    12  H    0.213276
    13  H    0.184980
    14  C   -0.047619
    15  H    0.201266
    16  C    0.248954
    17  O   -0.292258
    18  H    0.187305
    19  O   -0.378882
    20  N   -0.237527
    21  H    0.157692
    22  N   -0.117900
    23  H    0.134384
    24  C    0.277158
    25  C   -0.317842
    26  H    0.123856
    27  H    0.119876
    28  H    0.097705
    29  C   -0.210365
    30  H    0.123632
    31  H    0.090816
    32  H    0.133071
    33  O   -0.379646
 Sum of Mulliken charges =   0.00000
 Mulliken charges with hydrogens summed into heavy atoms:
               1
     1  C   -0.140131
     2  C   -0.164382
     3  C    0.239581
     4  C   -0.033162
     5  C   -0.028488
     6  C    0.297222
    11  C   -0.084316
    14  C    0.153647
    16  C    0.248954
    17  O   -0.104953
    19  O   -0.378882
    20  N   -0.079836
    22  N    0.016484
    24  C    0.277158
    25  C    0.023595
    29  C    0.137154
    33  O   -0.379646
 Electronic spatial extent (au):  <R**2>=           4688.0125
 Charge=              0.0000 electrons
 Dipole moment (field-independent basis, Debye):
    X=              0.2681    Y=             -0.7815    Z=             -7.0196  Tot=              7.0681
 Quadrupole moment (field-independent basis, Debye-Ang):
   XX=           -103.6986   YY=            -93.3918   ZZ=           -100.1394
   XY=              8.3382   XZ=              8.1276   YZ=             -8.3395
 Traceless Quadrupole moment (field-independent basis, Debye-Ang):
   XX=             -4.6220   YY=              5.6848   ZZ=             -1.0628
   XY=              8.3382   XZ=              8.1276   YZ=             -8.3395
 Octapole moment (field-independent basis, Debye-Ang**2):
  XXX=             -0.3898  YYY=             25.9388  ZZZ=            -18.6149  XYY=             -5.3321
  XXY=              5.7450  XXZ=            -69.6313  XZZ=             14.7538  YZZ=             -2.5619
  YYZ=              0.3568  XYZ=            -14.1443
 Hexadecapole moment (field-independent basis, Debye-Ang**3):
 XXXX=          -4583.0671 YYYY=           -894.5727 ZZZZ=           -639.4698 XXXY=            177.7695
 XXXZ=             40.1163 YYYX=             28.4007 YYYZ=            -10.1183 ZZZX=             -9.2805
 ZZZY=            -25.4223 XXYY=           -886.3409 XXZZ=           -787.9535 YYZZ=           -245.2264
 XXYZ=            -82.7190 YYXZ=             -4.0782 ZZXY=             24.5252
 N-N= 1.237036809513D+03 E-N=-4.344457216590D+03  KE= 7.961844809856D+02
 Calculating spin-rotation constants.
 Leave Link  601 at Wed Jun 25 07:15:54 2014, MaxMem=  4294967296 cpu:        93.4
 (Enter /home/ztw1e12/g09/l9999.exe)

 Test job not archived.
 1\1\GINC-GREEN0459\SP\RM06\Gen\C12H16N2O3\ROOT\25-Jun-2014\0\\#P Geom=
 AllCheck Guess=TCheck SCRF=Check GenChk RM06/ChkBas NMR=ReadFC IOp(3/6
 =22)\\NMR spin-spin scan\\0,1\C,0,2.420944,-0.33209,1.660853\C,0,1.737
 016,-0.009981,0.502141\C,0,1.192914,-0.995008,-0.31399\C,0,1.364045,-2
 .322023,0.06024\C,0,2.046224,-2.663063,1.213502\C,0,2.57217,-1.664134,
 2.018888\H,0,2.845027,0.441753,2.290641\H,0,1.620686,1.032933,0.22427\
 H,0,0.944564,-3.104728,-0.562068\H,0,2.177058,-3.698391,1.501612\C,0,0
 .407119,-0.626463,-1.535913\H,0,0.921866,0.181606,-2.061125\H,0,0.3851
 74,-1.474708,-2.219655\C,0,-1.056475,-0.167274,-1.286488\H,0,-1.73322,
 -0.846447,-1.808745\C,0,-1.434907,-0.3065,0.176821\O,0,3.235575,-2.040
 208,3.147786\H,0,3.542388,-1.253789,3.612975\O,0,-1.72149,-1.415906,0.
 623473\N,0,-1.260594,1.161959,-1.818391\H,0,-0.455392,1.729653,-2.0354
 74\N,0,-1.395811,0.790399,0.934968\H,0,-1.071582,1.648461,0.517049\C,0
 ,-2.493073,1.665411,-2.025479\C,0,-2.560673,3.046298,-2.586964\H,0,-3.
 171595,3.030172,-3.488875\H,0,-3.062607,3.691374,-1.865597\H,0,-1.5836
 99,3.463354,-2.82013\C,0,-1.489975,0.70251,2.374076\H,0,-0.680525,0.09
 1297,2.782224\H,0,-1.425609,1.701241,2.79538\H,0,-2.438502,0.258527,2.
 674281\O,0,-3.506198,1.021296,-1.763417\\Version=EM64L-G09RevD.01\Stat
 e=1-A\HF=-801.8542943\RMSD=5.029e-09\Dipole=1.7623541,2.1440778,-0.172
 8655\Quadrupole=-12.7642557,5.0668924,7.6973633,-0.2882566,0.4539968,2
 .0787614\PG=C01 [X(C12H16N2O3)]\\@


 SCIENCE AND PEACE WILL TRIUMPH OVER IGNORANCE AND WAR

                          -- PASTEUR
 Job cpu time:       3 days 12 hours 44 minutes 28.8 seconds.
 File lengths (MBytes):  RWF=   3656 Int=      0 D2E=      0 Chk=     64 Scr=      8
 Normal termination of Gaussian 09 at Wed Jun 25 07:15:55 2014.
