 Entering Gaussian System, Link 0=g09
 Input=scan_input_7.gjf
 Output=scan_input_7.log
 Initial command:
 /home/ztw1e12/g09/l1.exe "/home/ztw1e12/tyrosine_scan/tyrosine_chi1_scan/Gau-30769.inp" -scrdir="/home/ztw1e12/tyrosine_scan/tyrosine_chi1_scan/"
 Default is to use a total of   8 processors:
                                8 via shared-memory
                                1 via Linda
 Entering Link 1 = /home/ztw1e12/g09/l1.exe PID=     30770.
  
 Copyright (c) 1988,1990,1992,1993,1995,1998,2003,2009,2013,
            Gaussian, Inc.  All Rights Reserved.
  
 This is part of the Gaussian(R) 09 program.  It is based on
 the Gaussian(R) 03 system (copyright 2003, Gaussian, Inc.),
 the Gaussian(R) 98 system (copyright 1998, Gaussian, Inc.),
 the Gaussian(R) 94 system (copyright 1995, Gaussian, Inc.),
 the Gaussian 92(TM) system (copyright 1992, Gaussian, Inc.),
 the Gaussian 90(TM) system (copyright 1990, Gaussian, Inc.),
 the Gaussian 88(TM) system (copyright 1988, Gaussian, Inc.),
 the Gaussian 86(TM) system (copyright 1986, Carnegie Mellon
 University), and the Gaussian 82(TM) system (copyright 1983,
 Carnegie Mellon University). Gaussian is a federally registered
 trademark of Gaussian, Inc.
  
 This software contains proprietary and confidential information,
 including trade secrets, belonging to Gaussian, Inc.
  
 This software is provided under written license and may be
 used, copied, transmitted, or stored only in accord with that
 written license.
  
 The following legend is applicable only to US Government
 contracts under FAR:
  
                    RESTRICTED RIGHTS LEGEND
  
 Use, reproduction and disclosure by the US Government is
 subject to restrictions as set forth in subparagraphs (a)
 and (c) of the Commercial Computer Software - Restricted
 Rights clause in FAR 52.227-19.
  
 Gaussian, Inc.
 340 Quinnipiac St., Bldg. 40, Wallingford CT 06492
  
  
 ---------------------------------------------------------------
 Warning -- This program may not be used in any manner that
 competes with the business of Gaussian, Inc. or will provide
 assistance to any competitor of Gaussian, Inc.  The licensee
 of this program is prohibited from giving any competitor of
 Gaussian, Inc. access to this program.  By using this program,
 the user acknowledges that Gaussian, Inc. is engaged in the
 business of creating and licensing software in the field of
 computational chemistry and represents and warrants to the
 licensee that it is not a competitor of Gaussian, Inc. and that
 it will not use this program in any manner prohibited above.
 ---------------------------------------------------------------
  

 Cite this work as:
 Gaussian 09, Revision D.01,
 M. J. Frisch, G. W. Trucks, H. B. Schlegel, G. E. Scuseria, 
 M. A. Robb, J. R. Cheeseman, G. Scalmani, V. Barone, B. Mennucci, 
 G. A. Petersson, H. Nakatsuji, M. Caricato, X. Li, H. P. Hratchian, 
 A. F. Izmaylov, J. Bloino, G. Zheng, J. L. Sonnenberg, M. Hada, 
 M. Ehara, K. Toyota, R. Fukuda, J. Hasegawa, M. Ishida, T. Nakajima, 
 Y. Honda, O. Kitao, H. Nakai, T. Vreven, J. A. Montgomery, Jr., 
 J. E. Peralta, F. Ogliaro, M. Bearpark, J. J. Heyd, E. Brothers, 
 K. N. Kudin, V. N. Staroverov, T. Keith, R. Kobayashi, J. Normand, 
 K. Raghavachari, A. Rendell, J. C. Burant, S. S. Iyengar, J. Tomasi, 
 M. Cossi, N. Rega, J. M. Millam, M. Klene, J. E. Knox, J. B. Cross, 
 V. Bakken, C. Adamo, J. Jaramillo, R. Gomperts, R. E. Stratmann, 
 O. Yazyev, A. J. Austin, R. Cammi, C. Pomelli, J. W. Ochterski, 
 R. L. Martin, K. Morokuma, V. G. Zakrzewski, G. A. Voth, 
 P. Salvador, J. J. Dannenberg, S. Dapprich, A. D. Daniels, 
 O. Farkas, J. B. Foresman, J. V. Ortiz, J. Cioslowski, 
 and D. J. Fox, Gaussian, Inc., Wallingford CT, 2013.
 
 ******************************************
 Gaussian 09:  EM64L-G09RevD.01 24-Apr-2013
                24-Jun-2014 
 ******************************************
 %Mem=32GB
 %NProcShared=16
 Will use up to   16 processors via shared memory.
 Default route:  MaxDisk=100GB
 ----------------------------------------------------------------------
 #p nmr=(giao,mixed,spinspin) m06/cc-pvtz scf=tight integral=(grid=ultr
 afine)
 ----------------------------------------------------------------------
 1/38=1/1;
 2/12=2,17=6,18=5,40=1/2;
 3/5=16,6=1,10=1100000,11=2,16=1,25=1,30=1,74=-54,75=-5/1,2,8,3;
 4//1;
 5/5=2,32=2,38=5/2;
 8/6=1,10=90,11=11/1;
 10/13=100,45=16,47=3/2;
 6/7=2,8=2,9=2,10=2,28=1/1;
 99/9=1/99;
 Leave Link    1 at Tue Jun 24 04:07:47 2014, MaxMem=  4294967296 cpu:         9.8
 (Enter /home/ztw1e12/g09/l101.exe)
 ------------------
 NMR spin-spin scan
 ------------------
 Symbolic Z-matrix:
 Charge =  0 Multiplicity = 1
 C                     3.42869  -0.05742  -0.72824 
 C                     2.20525  -0.55037  -1.14672 
 C                     1.28753  -1.06682  -0.24114 
 C                     1.63151  -1.07139   1.10736 
 C                     2.84859  -0.58094   1.54305 
 C                     3.75064  -0.07016   0.621 
 H                     4.14042   0.34012  -1.44259 
 H                     1.95769  -0.53364  -2.20232 
 H                     0.92379  -1.46442   1.83005 
 H                     3.11262  -0.58923   2.59293 
 C                    -0.05666  -1.55645  -0.68541 
 H                     0.02059  -1.921    -1.71008 
 H                    -0.35379  -2.40233  -0.06587 
 C                    -1.19617  -0.51839  -0.64336 
 H                    -1.61651  -0.39567  -1.64198 
 C                    -2.32914  -0.95351   0.29009 
 O                     4.93802   0.40339   1.09189 
 H                     5.4671    0.73695   0.35836 
 O                    -2.1588   -1.72819   1.22801 
 N                    -0.75677   0.80158  -0.21707 
 H                     0.07053   0.86707   0.35837 
 N                    -3.51103  -0.39263   0.0202 
 H                    -3.53777   0.32373  -0.69374 
 C                    -1.30978   1.93641  -0.68032 
 C                    -0.66418   3.21058  -0.24615 
 H                    -0.33926   3.75286  -1.1341 
 H                    -1.40549   3.82929   0.25882 
 H                     0.18837   3.05918   0.41252 
 C                    -4.66275  -0.60953   0.86496 
 H                    -4.49465  -0.2406    1.87807 
 H                    -5.51384  -0.08606   0.4401 
 H                    -4.90176  -1.67099   0.92564 
 O                    -2.29216   1.93611  -1.42343 
 
 NAtoms=     33 NQM=       33 NQMF=       0 NMMI=      0 NMMIF=      0
                NMic=       0 NMicF=      0.
                    Isotopes and Nuclear Properties:
 (Nuclear quadrupole moments (NQMom) in fm**2, nuclear magnetic moments (NMagM)
  in nuclear magnetons)

  Atom         1           2           3           4           5           6           7           8           9          10
 IAtWgt=          12          12          12          12          12          12           1           1           1           1
 AtmWgt=  12.0000000  12.0000000  12.0000000  12.0000000  12.0000000  12.0000000   1.0078250   1.0078250   1.0078250   1.0078250
 NucSpn=           0           0           0           0           0           0           1           1           1           1
 AtZEff=   0.0000000   0.0000000   0.0000000   0.0000000   0.0000000   0.0000000   0.0000000   0.0000000   0.0000000   0.0000000
 NQMom=    0.0000000   0.0000000   0.0000000   0.0000000   0.0000000   0.0000000   0.0000000   0.0000000   0.0000000   0.0000000
 NMagM=    0.0000000   0.0000000   0.0000000   0.0000000   0.0000000   0.0000000   2.7928460   2.7928460   2.7928460   2.7928460
 AtZNuc=   6.0000000   6.0000000   6.0000000   6.0000000   6.0000000   6.0000000   1.0000000   1.0000000   1.0000000   1.0000000

  Atom        11          12          13          14          15          16          17          18          19          20
 IAtWgt=          12           1           1          12           1          12          16           1          16          14
 AtmWgt=  12.0000000   1.0078250   1.0078250  12.0000000   1.0078250  12.0000000  15.9949146   1.0078250  15.9949146  14.0030740
 NucSpn=           0           1           1           0           1           0           0           1           0           2
 AtZEff=   0.0000000   0.0000000   0.0000000   0.0000000   0.0000000   0.0000000   0.0000000   0.0000000   0.0000000   0.0000000
 NQMom=    0.0000000   0.0000000   0.0000000   0.0000000   0.0000000   0.0000000   0.0000000   0.0000000   0.0000000   2.0440000
 NMagM=    0.0000000   2.7928460   2.7928460   0.0000000   2.7928460   0.0000000   0.0000000   2.7928460   0.0000000   0.4037610
 AtZNuc=   6.0000000   1.0000000   1.0000000   6.0000000   1.0000000   6.0000000   8.0000000   1.0000000   8.0000000   7.0000000

  Atom        21          22          23          24          25          26          27          28          29          30
 IAtWgt=           1          14           1          12          12           1           1           1          12           1
 AtmWgt=   1.0078250  14.0030740   1.0078250  12.0000000  12.0000000   1.0078250   1.0078250   1.0078250  12.0000000   1.0078250
 NucSpn=           1           2           1           0           0           1           1           1           0           1
 AtZEff=   0.0000000   0.0000000   0.0000000   0.0000000   0.0000000   0.0000000   0.0000000   0.0000000   0.0000000   0.0000000
 NQMom=    0.0000000   2.0440000   0.0000000   0.0000000   0.0000000   0.0000000   0.0000000   0.0000000   0.0000000   0.0000000
 NMagM=    2.7928460   0.4037610   2.7928460   0.0000000   0.0000000   2.7928460   2.7928460   2.7928460   0.0000000   2.7928460
 AtZNuc=   1.0000000   7.0000000   1.0000000   6.0000000   6.0000000   1.0000000   1.0000000   1.0000000   6.0000000   1.0000000

  Atom        31          32          33
 IAtWgt=           1           1          16
 AtmWgt=   1.0078250   1.0078250  15.9949146
 NucSpn=           1           1           0
 AtZEff=   0.0000000   0.0000000   0.0000000
 NQMom=    0.0000000   0.0000000   0.0000000
 NMagM=    2.7928460   2.7928460   0.0000000
 AtZNuc=   1.0000000   1.0000000   8.0000000
 Leave Link  101 at Tue Jun 24 04:07:47 2014, MaxMem=  4294967296 cpu:         1.6
 (Enter /home/ztw1e12/g09/l202.exe)
                          Input orientation:                          
 ---------------------------------------------------------------------
 Center     Atomic      Atomic             Coordinates (Angstroms)
 Number     Number       Type             X           Y           Z
 ---------------------------------------------------------------------
      1          6           0        3.428692   -0.057415   -0.728239
      2          6           0        2.205246   -0.550374   -1.146722
      3          6           0        1.287529   -1.066818   -0.241141
      4          6           0        1.631510   -1.071393    1.107357
      5          6           0        2.848594   -0.580935    1.543047
      6          6           0        3.750644   -0.070159    0.620996
      7          1           0        4.140416    0.340115   -1.442592
      8          1           0        1.957693   -0.533636   -2.202316
      9          1           0        0.923791   -1.464415    1.830045
     10          1           0        3.112620   -0.589226    2.592926
     11          6           0       -0.056663   -1.556448   -0.685414
     12          1           0        0.020585   -1.921004   -1.710078
     13          1           0       -0.353785   -2.402331   -0.065869
     14          6           0       -1.196167   -0.518387   -0.643358
     15          1           0       -1.616512   -0.395670   -1.641981
     16          6           0       -2.329141   -0.953512    0.290091
     17          8           0        4.938015    0.403388    1.091890
     18          1           0        5.467098    0.736947    0.358357
     19          8           0       -2.158798   -1.728188    1.228009
     20          7           0       -0.756769    0.801578   -0.217071
     21          1           0        0.070526    0.867065    0.358366
     22          7           0       -3.511026   -0.392627    0.020195
     23          1           0       -3.537766    0.323727   -0.693742
     24          6           0       -1.309779    1.936410   -0.680322
     25          6           0       -0.664183    3.210583   -0.246150
     26          1           0       -0.339257    3.752855   -1.134101
     27          1           0       -1.405485    3.829291    0.258824
     28          1           0        0.188368    3.059181    0.412517
     29          6           0       -4.662748   -0.609534    0.864964
     30          1           0       -4.494645   -0.240602    1.878072
     31          1           0       -5.513837   -0.086057    0.440102
     32          1           0       -4.901760   -1.670985    0.925640
     33          8           0       -2.292163    1.936107   -1.423431
 ---------------------------------------------------------------------
                    Distance matrix (angstroms):
                    1          2          3          4          5
     1  C    0.000000
     2  C    1.383820   0.000000
     3  C    2.416762   1.388883   0.000000
     4  C    2.761780   2.383591   1.391686   0.000000
     5  C    2.401942   2.765807   2.419986   1.382631   0.000000
     6  C    1.387174   2.396599   2.793483   2.393689   1.387359
     7  H    1.083919   2.150673   3.400281   3.845673   3.381002
     8  H    2.136241   1.084362   2.140002   3.368904   3.850154
     9  H    3.846946   3.367305   2.140140   1.085178   2.137235
    10  H    3.378293   3.848351   3.404554   2.152461   1.082601
    11  C    3.794290   2.518178   1.497988   2.509828   3.789219
    12  H    4.006515   2.639837   2.119565   3.354826   4.514005
    13  H    4.499389   3.338657   2.123259   2.662565   4.020115
    14  C    4.648550   3.438606   2.575131   3.371435   4.598301
    15  H    5.138426   3.856819   3.293364   4.308725   5.487795
    16  C    5.915457   4.773638   3.657232   4.045810   5.340192
    17  O    2.408997   3.659108   4.155060   3.620524   2.353320
    18  H    2.442704   3.816037   4.591488   4.306139   3.161782
    19  O    6.151295   5.106023   3.804337   3.848684   5.146787
    20  N    4.303167   3.386083   2.769592   3.311496   4.243583
    21  H    3.648651   2.971776   2.362289   2.599092   3.349304
    22  N    6.988004   5.836295   4.852727   5.299842   6.542118
    23  H    6.976962   5.826786   5.042017   5.649047   6.826949
    24  C    5.141084   4.330938   3.994780   4.570980   5.345321
    25  C    5.259643   4.815543   4.701634   5.043561   5.469592
    26  H    5.374041   4.999243   5.164597   5.672867   6.009264
    27  H    6.280927   5.847598   5.610185   5.827525   6.260712
    28  H    4.638340   4.419040   4.319640   4.430249   4.648155
    29  C    8.265261   7.156796   6.069462   6.315833   7.541941
    30  H    8.343002   7.357573   6.213472   6.230088   7.358752
    31  H    9.018573   7.894165   6.905401   7.243763   8.449358
    32  H    8.644961   7.487322   6.327219   6.563242   7.850948
    33  O    6.098000   5.146440   4.819706   5.553841   6.446928
                    6          7          8          9         10
     6  C    0.000000
     7  H    2.139776   0.000000
     8  H    3.376474   2.470810   0.000000
     9  H    3.375922   4.930837   4.265588   0.000000
    10  H    2.136589   4.266784   4.932676   2.477684   0.000000
    11  C    4.290845   4.667520   2.721170   2.701350   4.661264
    12  H    4.772093   4.707145   2.432997   3.681946   5.463530
    13  H    4.770445   5.441895   3.660513   2.471108   4.729958
    14  C    5.125470   5.463965   3.518155   3.392184   5.389267
    15  H    5.833814   5.807181   3.620490   4.432868   6.351109
    16  C    6.152528   6.821351   4.976478   3.635113   5.920179
    17  O    1.362291   2.657775   4.540058   4.488603   2.563291
    18  H    1.914840   2.271779   4.526295   5.258659   3.506508
    19  O    6.167579   7.147733   5.489953   3.151885   5.563100
    20  N    4.666803   5.069248   3.618328   3.485641   4.980220
    21  H    3.806656   4.481644   3.475695   2.886122   4.045785
    22  N    7.293614   7.824399   5.904771   4.908349   7.108466
    23  H    7.416509   7.714630   5.762893   5.428853   7.474176
    24  C    5.597109   5.730082   4.369664   4.780836   6.053974
    25  C    5.568295   5.723219   4.971921   5.356104   6.063262
    26  H    5.867120   5.639985   4.979063   6.131995   6.682803
    27  H    6.474762   6.769504   6.033515   5.993128   6.736809
    28  H    4.746161   5.143290   4.782907   4.797203   5.159099
    29  C    8.434193   9.149991   7.296863   5.733378   7.965087
    30  H    8.342307   9.269753   7.639902   5.555130   7.648728
    31  H    9.266260   9.845342   7.937661   6.728660   8.905256
    32  H    8.804519   9.561067   7.624288   5.898954   8.257138
    33  O    6.687324   6.627641   4.976703   5.700089   7.191669
                   11         12         13         14         15
    11  C    0.000000
    12  H    1.090323   0.000000
    13  H    1.089787   1.753640   0.000000
    14  C    1.542014   2.141427   2.142976   0.000000
    15  H    2.166923   2.238608   2.846980   1.090412   0.000000
    16  C    2.545447   3.233872   2.475442   1.531108   2.133525
    17  O    5.652130   6.118410   6.100460   6.441191   7.146633
    18  H    6.071331   6.403720   6.627044   6.854079   7.447262
    19  O    2.847745   3.663229   2.320918   2.427404   3.210377
    20  N    2.503953   3.200906   3.232691   1.455025   2.050105
    21  H    2.641793   3.471928   3.323998   2.127778   2.905509
    22  N    3.712814   4.219248   3.743593   2.411367   2.520322
    23  H    3.956413   4.328235   4.238319   2.488932   2.260068
    24  C    3.710847   4.208314   4.485103   2.457703   2.541155
    25  C    4.825621   5.380072   5.624380   3.787611   3.982504
    26  H    5.335717   5.714360   6.247211   4.383906   4.370307
    27  H    5.631793   6.243088   6.328081   4.445228   4.637660
    28  H    4.750739   5.416254   5.509165   3.978794   4.406194
    29  C    4.951397   5.503127   4.758963   3.781604   3.950957
    30  H    5.291370   6.007152   5.059516   4.161097   4.549557
    31  H    5.762776   6.214510   5.678668   4.472479   4.429455
    32  H    5.107208   5.589186   4.711903   4.185888   4.360271
    33  O    4.211896   4.506470   4.941895   2.798975   2.437509
                   16         17         18         19         20
    16  C    0.000000
    17  O    7.436102   0.000000
    18  H    7.977697   0.963982   0.000000
    19  O    1.228344   7.411268   8.061481   0.000000
    20  N    2.410375   5.856834   6.250745   3.233212   0.000000
    21  H    3.012900   4.944239   5.398140   3.530085   1.009868
    22  N    1.335772   8.553857   9.055220   2.251901   3.011371
    23  H    2.014954   8.662199   9.075530   3.131299   2.861730
    24  C    3.214413   6.672767   6.960146   4.218037   1.344718
    25  C    4.516561   6.407442   6.639044   5.366421   2.410959
    26  H    5.304512   6.635026   6.710953   6.239561   3.118541
    27  H    4.871275   7.257465   7.536902   5.691430   3.132787
    28  H    4.738623   5.483970   5.767209   5.393804   2.527140
    29  C    2.427864   9.656716  10.231493   2.766397   4.291702
    30  H    2.778369   9.487248  10.124300   2.844587   4.409930
    31  H    3.304129  10.483587  11.012037   3.817549   4.883592
    32  H    2.745370  10.057427  10.659886   2.760170   4.959870
    33  O    3.359676   7.807147   8.051018   4.524929   2.258295
                   21         22         23         24         25
    21  H    0.000000
    22  N    3.811653   0.000000
    23  H    3.797620   1.011723   0.000000
    24  C    2.031653   3.280339   2.750428   0.000000
    25  C    2.529291   4.599845   4.097774   1.492922   0.000000
    26  H    3.274624   5.345796   4.709915   2.108862   1.089997
    27  H    3.311087   4.723858   4.212242   2.115219   1.089645
    28  H    2.195949   5.074880   4.752956   2.167800   1.087937
    29  C    4.984061   1.444696   2.136849   4.484656   5.640602
    30  H    4.937329   2.107682   2.801484   4.629053   5.576328
    31  H    5.665707   2.069193   2.314818   4.797898   5.904060
    32  H    5.611339   2.094796   2.908909   5.338046   6.569616
    33  O    3.146419   2.998781   2.164195   1.231783   2.379201
                   26         27         28         29         30
    26  H    0.000000
    27  H    1.755826   0.000000
    28  H    1.775274   1.776811   0.000000
    29  C    6.459046   5.538983   6.098976   0.000000
    30  H    6.502933   5.359935   5.913293   1.091218   0.000000
    31  H    6.632619   5.678148   6.512175   1.085766   1.769292
    32  H    7.380854   6.551459   6.967580   1.089719   1.766031
    33  O    2.682933   2.683342   3.284058   4.163738   4.526468
                   31         32         33
    31  H    0.000000
    32  H    1.767026   0.000000
    33  O    4.235692   5.033810   0.000000
 Stoichiometry    C12H16N2O3
 Framework group  C1[X(C12H16N2O3)]
 Deg. of freedom    93
 Full point group                 C1      NOp   1
 Largest Abelian subgroup         C1      NOp   1
 Largest concise Abelian subgroup C1      NOp   1
                         Standard orientation:                         
 ---------------------------------------------------------------------
 Center     Atomic      Atomic             Coordinates (Angstroms)
 Number     Number       Type             X           Y           Z
 ---------------------------------------------------------------------
      1          6           0       -3.406131    0.342603    0.889275
      2          6           0       -2.172741   -0.016524    1.403798
      3          6           0       -1.312548   -0.849885    0.700539
      4          6           0       -1.724818   -1.313588   -0.545175
      5          6           0       -2.952781   -0.963052   -1.075175
      6          6           0       -3.796601   -0.129799   -0.355161
      7          1           0       -4.072688    0.990318    1.446992
      8          1           0       -1.871445    0.359558    2.375201
      9          1           0       -1.062598   -1.959855   -1.112108
     10          1           0       -3.270071   -1.328634   -2.043525
     11          6           0        0.042787   -1.201222    1.233078
     12          1           0        0.010795   -1.181187    2.322747
     13          1           0        0.291494   -2.220529    0.938468
     14          6           0        1.198584   -0.285271    0.782552
     15          1           0        1.671568    0.163858    1.656375
     16          6           0        2.273871   -1.060016    0.015859
     17          8           0       -4.997017    0.191518   -0.913368
     18          1           0       -5.481467    0.779479   -0.322715
     19          8           0        2.040967   -2.107214   -0.582441
     20          7           0        0.763717    0.817032   -0.061792
     21          1           0       -0.090399    0.706811   -0.589212
     22          7           0        3.478628   -0.483130    0.022985
     23          1           0        3.555599    0.436280    0.438130
     24          6           0        1.361517    2.021504   -0.049641
     25          6           0        0.719468    3.085613   -0.876843
     26          1           0        0.450787    3.915621   -0.223399
     27          1           0        1.445936    3.461390   -1.596817
     28          1           0       -0.168313    2.744151   -1.404912
     29          6           0        4.581386   -1.023250   -0.738160
     30          1           0        4.369065   -1.026304   -1.808519
     31          1           0        5.463010   -0.415240   -0.559407
     32          1           0        4.796366   -2.046717   -0.431916
     33          8           0        2.380299    2.245821    0.605382
 ---------------------------------------------------------------------
 Rotational constants (GHZ):      0.8086961      0.2615829      0.2249798
 Leave Link  202 at Tue Jun 24 04:07:48 2014, MaxMem=  4294967296 cpu:         2.0
 (Enter /home/ztw1e12/g09/l301.exe)
 Standard basis: CC-pVTZ (5D, 7F)
 Converting basis for Fermi contact spin-spin IFCMod=1.
 AO basis functions are being uncontracted.
 Ernie: Thresh=  0.10000D-02 Tol=  0.10000D-05 Strict=F.
 There are  1305 symmetry adapted cartesian basis functions of A   symmetry.
 There are  1204 symmetry adapted basis functions of A   symmetry.
  1204 basis functions,  1305 primitive gaussians,  1305 cartesian basis functions
    63 alpha electrons       63 beta electrons
       nuclear repulsion energy      1216.0357031640 Hartrees.
 IExCor= 4235 DFT=T Ex+Corr=M06 ExCW=0 ScaHFX=  0.270000
 ScaDFX=  1.000000  1.000000  1.000000  1.000000 ScalE2=  1.000000  1.000000
 IRadAn= 199590 IRanWt=     -1 IRanGd=            0 ICorTp=0 IEmpDi=  4
 NAtoms=   33 NActive=   33 NUniq=   33 SFac= 1.00D+00 NAtFMM=   60 NAOKFM=F Big=F
 Integral buffers will be    131072 words long.
 Raffenetti 2 integral format.
 Two-electron integral symmetry is turned on.
 Leave Link  301 at Tue Jun 24 04:07:48 2014, MaxMem=  4294967296 cpu:         4.5
 (Enter /home/ztw1e12/g09/l302.exe)
 NPDir=0 NMtPBC=     1 NCelOv=     1 NCel=       1 NClECP=     1 NCelD=      1
         NCelK=      1 NCelE2=     1 NClLst=     1 CellRange=     0.0.
 One-electron integrals computed using PRISM.
 GSVD:  received Info=                   1 from GESDD.
 NBasis=  1204 RedAO= T EigKep=  2.48D-05  NBF=  1204
 NBsUse=  1068 1.00D-06 EigRej=  5.44D-15 NBFU=  1068
 Precomputing XC quadrature grid using
 IXCGrd= 4 IRadAn=      199590 IRanWt=          -1 IRanGd=           0 AccXCQ= 0.00D+00.
 Generated NRdTot=       0 NPtTot=           0 NUsed=           0 NTot=          32
 NSgBfM=  1037  1037  1037  1037  1037 MxSgAt=    33 MxSgA2=    33.
 Leave Link  302 at Tue Jun 24 04:07:54 2014, MaxMem=  4294967296 cpu:        92.6
 (Enter /home/ztw1e12/g09/l308.exe)
 Leave Link  308 at Tue Jun 24 04:07:55 2014, MaxMem=  4294967296 cpu:         7.9
 (Enter /home/ztw1e12/g09/l303.exe)
 DipDrv:  MaxL=1.
 Leave Link  303 at Tue Jun 24 04:07:55 2014, MaxMem=  4294967296 cpu:         4.7
 (Enter /home/ztw1e12/g09/l401.exe)
 ExpMin= 1.03D-01 ExpMax= 1.38D+05 ExpMxC= 1.38D+05 IAcc=4 IRadAn=    199590 AccDes= 0.00D+00
 Harris functional with IExCor= 1009 and IRadAn=  199590 diagonalized for initial guess.
 HarFok:  IExCor= 1009 AccDes= 0.00D+00 IRadAn=    199590 IDoV= 1 UseB2=F ITyADJ=14
 ICtDFT=  3500011 ScaDFX=  1.000000  1.000000  1.000000  1.000000
 FoFCou: FMM=F IPFlag=           0 FMFlag=      100000 FMFlg1=           0
         NFxFlg=           0 DoJE=T BraDBF=F KetDBF=T FulRan=T
         wScrn=  0.000000 ICntrl=     500 IOpCl=  0 I1Cent=   200000004 NGrid=           0
         NMat0=    1 NMatS0=      1 NMatT0=    0 NMatD0=    1 NMtDS0=    0 NMtDT0=    0
 Petite list used in FoFCou.
 Harris En= -801.777374622194    
 JPrj=0 DoOrth=F DoCkMO=F.
 Leave Link  401 at Tue Jun 24 04:08:16 2014, MaxMem=  4294967296 cpu:       303.1
 (Enter /home/ztw1e12/g09/l502.exe)
 Closed shell SCF:
 Using DIIS extrapolation, IDIIS=  1040.
 Integral symmetry usage will be decided dynamically.
 IVT=     5158273 IEndB=     5158273 NGot=  4294967296 MDV=  4291529994
 LenX=  4291529994 LenY=  4289825664
 Requested convergence on RMS density matrix=1.00D-08 within 128 cycles.
 Requested convergence on MAX density matrix=1.00D-06.
 Requested convergence on             energy=1.00D-06.
 No special actions if energy rises.
 Fock matrices will be formed incrementally for  20 cycles.
 Integral accuracy reduced to 1.0D-05 until final iterations.

 Cycle   1  Pass 0  IDiag  1:
 FoFJK:  IHMeth= 1 ICntrl=       0 DoSepK=F KAlg= 0 I1Cent=   0 FoldK=F
 IRaf= 430000000 NMat=   1 IRICut=       1 DoRegI=T DoRafI=F ISym2E= 0.
 FoFCou: FMM=F IPFlag=           0 FMFlag=      100000 FMFlg1=           0
         NFxFlg=           0 DoJE=F BraDBF=F KetDBF=F FulRan=T
         wScrn=  0.000000 ICntrl=       0 IOpCl=  0 I1Cent=           0 NGrid=           0
         NMat0=    1 NMatS0=      1 NMatT0=    0 NMatD0=    1 NMtDS0=    0 NMtDT0=    0
 Symmetry not used in FoFCou.
 E= -801.488986573610    
 DIIS: error= 1.37D-01 at cycle   1 NSaved=   1.
 NSaved= 1 IEnMin= 1 EnMin= -801.488986573610     IErMin= 1 ErrMin= 1.37D-01
 ErrMax= 1.37D-01  0.00D+00 EMaxC= 1.00D-01 BMatC= 1.69D+01 BMatP= 1.69D+01
 IDIUse=3 WtCom= 0.00D+00 WtEn= 1.00D+00
 Coeff-Com:  0.100D+01
 Coeff-En:   0.100D+01
 Coeff:      0.100D+01
 Gap=     0.240 Goal=   None    Shift=    0.000
 GapD=    0.240 DampG=1.000 DampE=0.250 DampFc=0.2500 IDamp=-1.
 Damping current iteration by 2.50D-01
 RMSDP=1.90D-03 MaxDP=2.49D-01              OVMax= 2.49D-01

 Cycle   2  Pass 0  IDiag  1:
 RMSU=  4.72D-04    CP:  1.02D+00
 E= -801.641374515787     Delta-E=       -0.152387942177 Rises=F Damp=T
 DIIS: error= 1.04D-01 at cycle   2 NSaved=   2.
 NSaved= 2 IEnMin= 2 EnMin= -801.641374515787     IErMin= 2 ErrMin= 1.04D-01
 ErrMax= 1.04D-01  0.00D+00 EMaxC= 1.00D-01 BMatC= 1.00D+01 BMatP= 1.69D+01
 IDIUse=3 WtCom= 0.00D+00 WtEn= 1.00D+00
 Coeff-Com: -0.296D+01 0.396D+01
 Coeff-En:   0.000D+00 0.100D+01
 Coeff:      0.000D+00 0.100D+01
 Gap=     0.231 Goal=   None    Shift=    0.000
 RMSDP=6.63D-04 MaxDP=1.12D-01 DE=-1.52D-01 OVMax= 1.12D-01

 Cycle   3  Pass 0  IDiag  1:
 RMSU=  3.96D-04    CP:  1.06D+00  2.11D+00
 E= -801.831862610036     Delta-E=       -0.190488094249 Rises=F Damp=F
 DIIS: error= 1.59D-02 at cycle   3 NSaved=   3.
 NSaved= 3 IEnMin= 3 EnMin= -801.831862610036     IErMin= 3 ErrMin= 1.59D-02
 ErrMax= 1.59D-02  0.00D+00 EMaxC= 1.00D-01 BMatC= 2.60D-01 BMatP= 1.00D+01
 IDIUse=3 WtCom= 8.41D-01 WtEn= 1.59D-01
 Coeff-Com:  0.134D+01-0.183D+01 0.149D+01
 Coeff-En:   0.112D+00 0.000D+00 0.888D+00
 Coeff:      0.114D+01-0.154D+01 0.139D+01
 Gap=     0.284 Goal=   None    Shift=    0.000
 RMSDP=4.63D-04 MaxDP=7.36D-02 DE=-1.90D-01 OVMax= 6.12D-02

 Cycle   4  Pass 0  IDiag  1:
 RMSU=  2.72D-04    CP:  1.04D+00  1.35D+00  7.58D-01
 E= -801.850019075749     Delta-E=       -0.018156465713 Rises=F Damp=F
 DIIS: error= 7.27D-03 at cycle   4 NSaved=   4.
 NSaved= 4 IEnMin= 4 EnMin= -801.850019075749     IErMin= 4 ErrMin= 7.27D-03
 ErrMax= 7.27D-03  0.00D+00 EMaxC= 1.00D-01 BMatC= 9.32D-02 BMatP= 2.60D-01
 IDIUse=3 WtCom= 9.27D-01 WtEn= 7.27D-02
 Coeff-Com:  0.782D+00-0.107D+01 0.712D+00 0.578D+00
 Coeff-En:   0.000D+00 0.000D+00 0.424D+00 0.576D+00
 Coeff:      0.725D+00-0.994D+00 0.691D+00 0.578D+00
 Gap=     0.262 Goal=   None    Shift=    0.000
 RMSDP=2.66D-04 MaxDP=3.31D-02 DE=-1.82D-02 OVMax= 8.32D-02

 Cycle   5  Pass 0  IDiag  1:
 RMSU=  9.61D-05    CP:  1.05D+00  1.44D+00  9.96D-01  1.71D-01
 E= -801.909576282099     Delta-E=       -0.059557206349 Rises=F Damp=F
 DIIS: error= 2.97D-03 at cycle   5 NSaved=   5.
 NSaved= 5 IEnMin= 5 EnMin= -801.909576282099     IErMin= 5 ErrMin= 2.97D-03
 ErrMax= 2.97D-03  0.00D+00 EMaxC= 1.00D-01 BMatC= 1.72D-02 BMatP= 9.32D-02
 IDIUse=3 WtCom= 9.70D-01 WtEn= 2.97D-02
 Coeff-Com:  0.124D+00-0.177D+00 0.108D+00 0.303D+00 0.641D+00
 Coeff-En:   0.000D+00 0.000D+00 0.000D+00 0.143D+00 0.857D+00
 Coeff:      0.120D+00-0.172D+00 0.105D+00 0.299D+00 0.648D+00
 Gap=     0.224 Goal=   None    Shift=    0.000
 RMSDP=1.31D-04 MaxDP=1.48D-02 DE=-5.96D-02 OVMax= 3.59D-02

 Cycle   6  Pass 0  IDiag  1:
 RMSU=  6.20D-05    CP:  1.05D+00  1.48D+00  1.05D+00  5.35D-01  4.57D-01
 E= -801.919689661285     Delta-E=       -0.010113379187 Rises=F Damp=F
 DIIS: error= 1.22D-03 at cycle   6 NSaved=   6.
 NSaved= 6 IEnMin= 6 EnMin= -801.919689661285     IErMin= 6 ErrMin= 1.22D-03
 ErrMax= 1.22D-03  0.00D+00 EMaxC= 1.00D-01 BMatC= 1.59D-03 BMatP= 1.72D-02
 IDIUse=3 WtCom= 9.88D-01 WtEn= 1.22D-02
 Coeff-Com:  0.557D-01-0.766D-01 0.193D-01 0.805D-01 0.262D+00 0.659D+00
 Coeff-En:   0.000D+00 0.000D+00 0.000D+00 0.000D+00 0.431D-01 0.957D+00
 Coeff:      0.550D-01-0.757D-01 0.191D-01 0.795D-01 0.259D+00 0.663D+00
 Gap=     0.225 Goal=   None    Shift=    0.000
 RMSDP=4.07D-05 MaxDP=3.16D-03 DE=-1.01D-02 OVMax= 1.45D-02

 Cycle   7  Pass 0  IDiag  1:
 RMSU=  3.05D-05    CP:  1.05D+00  1.44D+00  1.06D+00  5.41D-01  6.29D-01
                    CP:  9.21D-01
 E= -801.920478085204     Delta-E=       -0.000788423919 Rises=F Damp=F
 DIIS: error= 1.19D-03 at cycle   7 NSaved=   7.
 NSaved= 7 IEnMin= 7 EnMin= -801.920478085204     IErMin= 7 ErrMin= 1.19D-03
 ErrMax= 1.19D-03  0.00D+00 EMaxC= 1.00D-01 BMatC= 5.01D-04 BMatP= 1.59D-03
 IDIUse=3 WtCom= 9.88D-01 WtEn= 1.19D-02
 Coeff-Com:  0.416D-01-0.560D-01 0.130D-01 0.203D-01 0.846D-01 0.411D+00
 Coeff-Com:  0.486D+00
 Coeff-En:   0.000D+00 0.000D+00 0.000D+00 0.000D+00 0.000D+00 0.272D+00
 Coeff-En:   0.728D+00
 Coeff:      0.411D-01-0.554D-01 0.128D-01 0.201D-01 0.836D-01 0.409D+00
 Coeff:      0.489D+00
 Gap=     0.224 Goal=   None    Shift=    0.000
 RMSDP=1.80D-05 MaxDP=2.68D-03 DE=-7.88D-04 OVMax= 8.25D-03

 Cycle   8  Pass 0  IDiag  1:
 RMSU=  7.81D-06    CP:  1.05D+00  1.45D+00  1.07D+00  5.49D-01  6.23D-01
                    CP:  1.06D+00  5.97D-01
 E= -801.920926282809     Delta-E=       -0.000448197605 Rises=F Damp=F
 DIIS: error= 2.09D-04 at cycle   8 NSaved=   8.
 NSaved= 8 IEnMin= 8 EnMin= -801.920926282809     IErMin= 8 ErrMin= 2.09D-04
 ErrMax= 2.09D-04  0.00D+00 EMaxC= 1.00D-01 BMatC= 2.30D-05 BMatP= 5.01D-04
 IDIUse=3 WtCom= 9.98D-01 WtEn= 2.09D-03
 Coeff-Com:  0.211D-01-0.283D-01 0.816D-02 0.107D-02 0.125D-01 0.152D+00
 Coeff-Com:  0.250D+00 0.584D+00
 Coeff-En:   0.000D+00 0.000D+00 0.000D+00 0.000D+00 0.000D+00 0.000D+00
 Coeff-En:   0.000D+00 0.100D+01
 Coeff:      0.210D-01-0.282D-01 0.814D-02 0.107D-02 0.125D-01 0.151D+00
 Coeff:      0.249D+00 0.585D+00
 Gap=     0.224 Goal=   None    Shift=    0.000
 RMSDP=4.97D-06 MaxDP=5.41D-04 DE=-4.48D-04 OVMax= 1.43D-03

 Initial convergence to 1.0D-05 achieved.  Increase integral accuracy.
 Cycle   9  Pass 1  IDiag  1:
 E= -801.920972228271     Delta-E=       -0.000045945462 Rises=F Damp=F
 DIIS: error= 2.54D-04 at cycle   1 NSaved=   1.
 NSaved= 1 IEnMin= 1 EnMin= -801.920972228271     IErMin= 1 ErrMin= 2.54D-04
 ErrMax= 2.54D-04  0.00D+00 EMaxC= 1.00D-01 BMatC= 2.48D-05 BMatP= 2.48D-05
 IDIUse=3 WtCom= 9.97D-01 WtEn= 2.54D-03
 Coeff-Com:  0.100D+01
 Coeff-En:   0.100D+01
 Coeff:      0.100D+01
 Gap=     0.224 Goal=   None    Shift=    0.000
 RMSDP=4.97D-06 MaxDP=5.41D-04 DE=-4.59D-05 OVMax= 8.27D-04

 Cycle  10  Pass 1  IDiag  1:
 RMSU=  1.25D-04    CP:  9.95D-01
 E= -801.920982413305     Delta-E=       -0.000010185033 Rises=F Damp=F
 DIIS: error= 7.91D-05 at cycle   2 NSaved=   2.
 NSaved= 2 IEnMin= 2 EnMin= -801.920982413305     IErMin= 2 ErrMin= 7.91D-05
 ErrMax= 7.91D-05  0.00D+00 EMaxC= 1.00D-01 BMatC= 6.73D-06 BMatP= 2.48D-05
 IDIUse=1 WtCom= 1.00D+00 WtEn= 0.00D+00
 Coeff-Com:  0.272D+00 0.728D+00
 Coeff:      0.272D+00 0.728D+00
 Gap=     0.224 Goal=   None    Shift=    0.000
 RMSDP=3.75D-06 MaxDP=4.44D-04 DE=-1.02D-05 OVMax= 1.06D-03

 Cycle  11  Pass 1  IDiag  1:
 RMSU=  3.39D-06    CP:  9.95D-01  1.01D+00
 E= -801.920982094687     Delta-E=        0.000000318618 Rises=F Damp=F
 DIIS: error= 8.78D-05 at cycle   3 NSaved=   3.
 NSaved= 3 IEnMin= 2 EnMin= -801.920982413305     IErMin= 2 ErrMin= 7.91D-05
 ErrMax= 8.78D-05  0.00D+00 EMaxC= 1.00D-01 BMatC= 6.90D-06 BMatP= 6.73D-06
 IDIUse=1 WtCom= 1.00D+00 WtEn= 0.00D+00
 Coeff-Com:  0.128D-01 0.500D+00 0.487D+00
 Coeff:      0.128D-01 0.500D+00 0.487D+00
 Gap=     0.224 Goal=   None    Shift=    0.000
 RMSDP=1.96D-06 MaxDP=2.89D-04 DE= 3.19D-07 OVMax= 5.97D-04

 Cycle  12  Pass 1  IDiag  1:
 RMSU=  8.56D-07    CP:  9.95D-01  1.02D+00  5.07D-01
 E= -801.920987487207     Delta-E=       -0.000005392520 Rises=F Damp=F
 DIIS: error= 1.32D-05 at cycle   4 NSaved=   4.
 NSaved= 4 IEnMin= 4 EnMin= -801.920987487207     IErMin= 4 ErrMin= 1.32D-05
 ErrMax= 1.32D-05  0.00D+00 EMaxC= 1.00D-01 BMatC= 1.71D-07 BMatP= 6.73D-06
 IDIUse=1 WtCom= 1.00D+00 WtEn= 0.00D+00
 Coeff-Com: -0.223D-03 0.266D+00 0.279D+00 0.455D+00
 Coeff:     -0.223D-03 0.266D+00 0.279D+00 0.455D+00
 Gap=     0.224 Goal=   None    Shift=    0.000
 RMSDP=2.95D-07 MaxDP=4.06D-05 DE=-5.39D-06 OVMax= 8.80D-05

 Cycle  13  Pass 1  IDiag  1:
 RMSU=  2.69D-07    CP:  9.95D-01  1.02D+00  5.35D-01  9.59D-01
 E= -801.920987603027     Delta-E=       -0.000000115820 Rises=F Damp=F
 DIIS: error= 2.71D-06 at cycle   5 NSaved=   5.
 NSaved= 5 IEnMin= 5 EnMin= -801.920987603027     IErMin= 5 ErrMin= 2.71D-06
 ErrMax= 2.71D-06  0.00D+00 EMaxC= 1.00D-01 BMatC= 9.64D-09 BMatP= 1.71D-07
 IDIUse=1 WtCom= 1.00D+00 WtEn= 0.00D+00
 Coeff-Com: -0.140D-02 0.849D-01 0.927D-01 0.240D+00 0.584D+00
 Coeff:     -0.140D-02 0.849D-01 0.927D-01 0.240D+00 0.584D+00
 Gap=     0.224 Goal=   None    Shift=    0.000
 RMSDP=8.45D-08 MaxDP=7.90D-06 DE=-1.16D-07 OVMax= 2.07D-05

 Cycle  14  Pass 1  IDiag  1:
 RMSU=  5.28D-08    CP:  9.95D-01  1.02D+00  5.38D-01  1.02D+00  8.94D-01
 E= -801.920987608830     Delta-E=       -0.000000005803 Rises=F Damp=F
 DIIS: error= 1.32D-06 at cycle   6 NSaved=   6.
 NSaved= 6 IEnMin= 6 EnMin= -801.920987608830     IErMin= 6 ErrMin= 1.32D-06
 ErrMax= 1.32D-06  0.00D+00 EMaxC= 1.00D-01 BMatC= 7.08D-10 BMatP= 9.64D-09
 IDIUse=1 WtCom= 1.00D+00 WtEn= 0.00D+00
 Coeff-Com: -0.731D-03 0.320D-01 0.356D-01 0.108D+00 0.314D+00 0.512D+00
 Coeff:     -0.731D-03 0.320D-01 0.356D-01 0.108D+00 0.314D+00 0.512D+00
 Gap=     0.224 Goal=   None    Shift=    0.000
 RMSDP=4.09D-08 MaxDP=6.70D-06 DE=-5.80D-09 OVMax= 1.23D-05

 Cycle  15  Pass 1  IDiag  1:
 RMSU=  2.39D-08    CP:  9.95D-01  1.02D+00  5.37D-01  1.05D+00  9.66D-01
                    CP:  8.45D-01
 E= -801.920987609378     Delta-E=       -0.000000000548 Rises=F Damp=F
 DIIS: error= 5.71D-07 at cycle   7 NSaved=   7.
 NSaved= 7 IEnMin= 7 EnMin= -801.920987609378     IErMin= 7 ErrMin= 5.71D-07
 ErrMax= 5.71D-07  0.00D+00 EMaxC= 1.00D-01 BMatC= 1.22D-10 BMatP= 7.08D-10
 IDIUse=1 WtCom= 1.00D+00 WtEn= 0.00D+00
 Coeff-Com: -0.576D-04-0.354D-02-0.357D-02 0.786D-03 0.294D-01 0.300D+00
 Coeff-Com:  0.677D+00
 Coeff:     -0.576D-04-0.354D-02-0.357D-02 0.786D-03 0.294D-01 0.300D+00
 Coeff:      0.677D+00
 Gap=     0.224 Goal=   None    Shift=    0.000
 RMSDP=2.31D-08 MaxDP=3.24D-06 DE=-5.48D-10 OVMax= 4.53D-06

 Cycle  16  Pass 1  IDiag  1:
 RMSU=  9.05D-09    CP:  9.95D-01  1.02D+00  5.38D-01  1.07D+00  9.92D-01
                    CP:  1.03D+00  1.01D+00
 E= -801.920987609568     Delta-E=       -0.000000000190 Rises=F Damp=F
 DIIS: error= 1.30D-07 at cycle   8 NSaved=   8.
 NSaved= 8 IEnMin= 8 EnMin= -801.920987609568     IErMin= 8 ErrMin= 1.30D-07
 ErrMax= 1.30D-07  0.00D+00 EMaxC= 1.00D-01 BMatC= 1.06D-11 BMatP= 1.22D-10
 IDIUse=1 WtCom= 1.00D+00 WtEn= 0.00D+00
 Coeff-Com:  0.502D-04-0.499D-02-0.538D-02-0.114D-01-0.205D-01 0.852D-01
 Coeff-Com:  0.330D+00 0.627D+00
 Coeff:      0.502D-04-0.499D-02-0.538D-02-0.114D-01-0.205D-01 0.852D-01
 Coeff:      0.330D+00 0.627D+00
 Gap=     0.224 Goal=   None    Shift=    0.000
 RMSDP=7.36D-09 MaxDP=9.91D-07 DE=-1.90D-10 OVMax= 9.33D-07

 SCF Done:  E(RM06) =  -801.920987610     A.U. after   16 cycles
            NFock= 16  Conv=0.74D-08     -V/T= 2.0044
 KE= 7.983726846608D+02 PE=-4.304600722530D+03 EE= 1.488271347096D+03
 Leave Link  502 at Tue Jun 24 04:46:44 2014, MaxMem=  4294967296 cpu:     36838.4
 (Enter /home/ztw1e12/g09/l801.exe)
 DoSCS=F DFT=T ScalE2(SS,OS)=  1.000000  1.000000
 Range of M.O.s used for correlation:     1  1068
 NBasis=  1204 NAE=    63 NBE=    63 NFC=     0 NFV=     0
 NROrb=   1068 NOA=    63 NOB=    63 NVA=  1005 NVB=  1005

 **** Warning!!: The largest alpha MO coefficient is  0.26374426D+02

 Leave Link  801 at Tue Jun 24 04:46:44 2014, MaxMem=  4294967296 cpu:         0.5
 (Enter /home/ztw1e12/g09/l1002.exe)
 Minotr:  Closed shell wavefunction.
          IDoAtm=111111111111111111111111111111111
          Direct CPHF calculation.
          Differentiating once with respect to Fermi-contact.
          Electric field/nuclear overlap derivatives assumed to be zero.
          Requested convergence is 1.0D-10 RMS, and 1.0D-09 maximum.
          Secondary convergence is 1.0D-12 RMS, and 1.0D-12 maximum.
          NewPWx=T KeepS1=F KeepF1=F KeepIn=T MapXYZ=F SortEE=F KeepMc=T.
          MDV=    4294965894 using IRadAn=  199590.
 Using stored XC quadrature information.
          Solving linear equations simultaneously, MaxMat=       0.
          There are    33 degrees of freedom in the 1st order CPHF.  IDoFFX=0 NUNeed=    33.
     33 vectors produced by pass  0 Test12= 1.92D-17 3.03D-11 XBig12= 4.29D+01 2.58D+00.
 AX will form    33 AO Fock derivatives at one time.
 FoFJK:  IHMeth= 1 ICntrl=       0 DoSepK=F KAlg= 0 I1Cent=   0 FoldK=F
 IRaf= 450000000 NMat=  33 IRICut=       1 DoRegI=T DoRafI=F ISym2E=-1.
 FoFCou: FMM=F IPFlag=           0 FMFlag=      100000 FMFlg1=           0
         NFxFlg=           0 DoJE=F BraDBF=F KetDBF=F FulRan=T
         wScrn=  0.000000 ICntrl=       0 IOpCl=  0 I1Cent=           0 NGrid=           0
         NMat0=   33 NMatS0=      0 NMatT0=   33 NMatD0=   33 NMtDS0=    0 NMtDT0=    0
 Petite list used in FoFCou.
     33 vectors produced by pass  1 Test12= 1.92D-17 3.03D-11 XBig12= 3.46D-01 1.89D-01.
     33 vectors produced by pass  2 Test12= 1.92D-17 3.03D-11 XBig12= 1.69D-02 4.72D-02.
     33 vectors produced by pass  3 Test12= 1.92D-17 3.03D-11 XBig12= 3.76D-04 5.48D-03.
     33 vectors produced by pass  4 Test12= 1.92D-17 3.03D-11 XBig12= 7.17D-06 1.14D-03.
     33 vectors produced by pass  5 Test12= 1.92D-17 3.03D-11 XBig12= 1.51D-07 1.72D-04.
     33 vectors produced by pass  6 Test12= 1.92D-17 3.03D-11 XBig12= 4.74D-09 2.62D-05.
     33 vectors produced by pass  7 Test12= 1.92D-17 3.03D-11 XBig12= 1.24D-10 4.32D-06.
     33 vectors produced by pass  8 Test12= 1.92D-17 3.03D-11 XBig12= 4.71D-12 3.50D-07.
     33 vectors produced by pass  9 Test12= 1.92D-17 3.03D-11 XBig12= 6.67D-14 9.02D-08.
     33 vectors produced by pass 10 Test12= 1.92D-17 3.03D-11 XBig12= 2.40D-15 7.54D-09.
     33 vectors produced by pass 11 Test12= 1.92D-17 3.03D-11 XBig12= 2.65D-17 7.63D-10.
      6 vectors produced by pass 12 Test12= 1.92D-17 3.03D-11 XBig12= 3.31D-19 6.05D-11.
 InvSVY:  IOpt=1 It=  1 EMax= 9.77D-15
 Solved reduced A of dimension   402 with    33 vectors.
 Max diff in FC couplings:  IJMax=     6     3 Diff= 5.81D-04 IJMaxR=    30     1 DiffR= 1.31D+00
 Fermi Contact (FC) contribution to K (Hz):
                1             2             3             4             5 
      1  0.123400D+11
      2  0.344255D+02  0.123400D+11
      3 -0.120281D+01  0.336482D+02  0.123400D+11
      4  0.300251D+01  0.357274D+00  0.323669D+02  0.123400D+11
      5  0.165307D+01  0.298009D+01 -0.130152D+01  0.339284D+02  0.123400D+11
      6  0.357811D+02 -0.251050D+00  0.426857D+01  0.148295D+00  0.384829D+02
      7  0.217057D+02 -0.305968D+00  0.948179D+00 -0.198970D+00  0.606185D+00
      8 -0.174523D+00  0.223800D+02 -0.223963D+00  0.977309D+00 -0.282076D+00
      9 -0.282338D+00  0.103663D+01 -0.161484D+00  0.229674D+02 -0.119012D+00
     10  0.672329D+00 -0.230280D+00  0.102623D+01 -0.220037D+00  0.230882D+02
     11  0.190026D+01  0.133703D+01  0.236426D+02  0.168208D+01  0.193784D+01
     12 -0.118938D-01  0.866861D+00 -0.106476D+01  0.917926D+00  0.825818D-01
     13  0.338961D-01  0.890805D+00 -0.114724D+01  0.810693D+00 -0.518900D-01
     14 -0.492964D+00  0.650211D+00 -0.167239D+01  0.527432D+00 -0.466698D+00
     15  0.114543D-01 -0.269691D-01  0.248379D+00 -0.755370D-02  0.118599D-01
     16  0.320292D-01  0.360284D-01  0.354287D+00 -0.588111D-01  0.969297D-02
     17 -0.775322D+00 -0.122788D+00  0.260607D+00  0.295457D+01  0.115880D+02
     18  0.421244D+00 -0.953610D-02 -0.465231D-01  0.204481D+00  0.114557D+01
     19  0.213360D-01  0.146394D+00  0.116692D-01  0.315764D+00  0.385679D-01
     20 -0.516790D-01  0.877599D-01  0.303339D+01  0.306383D+00 -0.126754D+00
     21  0.395068D-02 -0.216940D-02 -0.903783D-01 -0.475330D-01  0.100418D-01
     22 -0.316542D-01  0.346251D-01  0.116109D+00  0.513316D-01 -0.320500D-01
     23  0.721763D-03  0.145759D-02  0.455547D-02  0.165731D-02  0.883174D-03
     24  0.804952D-03 -0.674362D-02  0.319893D-01  0.323827D-01  0.354087D-03
     25  0.305819D-02 -0.616820D-02  0.711567D-01 -0.601672D-02  0.391688D-02
     26  0.839872D-04 -0.144882D-03  0.208369D-02 -0.136092D-03  0.400667D-03
     27  0.178303D-03  0.835860D-03 -0.259647D-02  0.321320D-03 -0.173913D-05
     28  0.159490D-03  0.168818D-03 -0.607227D-03 -0.174217D-03  0.703224D-03
     29  0.770097D-03  0.123721D-01  0.324883D-01  0.163280D-02 -0.954297D-03
     30 -0.498843D-05 -0.263108D-03 -0.287964D-02 -0.226485D-03  0.133195D-03
     31  0.967523D-04  0.287941D-03  0.769270D-03  0.227170D-04  0.585287D-04
     32 -0.111026D-03 -0.123011D-04 -0.229793D-02 -0.190641D-03 -0.269686D-04
     33 -0.588329D-02  0.244526D-01  0.413994D-01  0.143857D-01 -0.109277D-01
                6             7             8             9            10 
      6  0.123400D+11
      7 -0.543480D+00  0.123400D+11
      8  0.118519D+01  0.332532D+00  0.123400D+11
      9  0.124865D+01  0.366004D-01  0.404141D-01  0.123400D+11
     10 -0.680923D+00  0.657245D-01  0.398561D-01  0.353783D+00  0.123400D+11
     11 -0.432966D+00  0.912565D-02  0.658944D+00  0.653126D+00  0.219993D-01
     12  0.468098D-01  0.559762D-02 -0.277735D-01 -0.825446D-02  0.101725D-01
     13  0.845477D-01  0.110796D-01 -0.192030D-01 -0.324446D-01  0.919533D-02
     14  0.490527D+00  0.420946D-01 -0.119384D+00 -0.106411D+00  0.389088D-01
     15 -0.895790D-02 -0.994510D-03  0.419530D-02  0.635198D-02 -0.368810D-03
     16 -0.145288D-01  0.655106D-03  0.905581D-02  0.310055D-02 -0.214803D-02
     17 -0.120299D+02  0.562544D+00  0.685581D-01  0.272803D+00  0.704867D+00
     18 -0.652579D+00 -0.128078D-01  0.186334D-02  0.147355D-01  0.746067D-03
     19  0.477600D-01  0.873077D-03  0.622366D-04  0.663398D-01  0.492658D-02
     20  0.853411D-01  0.338365D-02 -0.329203D-01 -0.449851D-01  0.150694D-01
     21 -0.393595D-02  0.360059D-03  0.356970D-02  0.399451D-02 -0.478066D-03
     22  0.419109D-01  0.355295D-02 -0.568270D-02 -0.114519D-01  0.445417D-02
     23 -0.109082D-03  0.126339D-05  0.378829D-04  0.564312D-03 -0.494716D-04
     24 -0.445514D-04 -0.890422D-03 -0.725491D-03  0.554701D-04 -0.872443D-03
     25 -0.179267D-02 -0.867190D-04  0.169436D-03  0.185587D-03 -0.107521D-03
     26 -0.106845D-03 -0.334361D-04  0.227264D-04  0.896674D-04 -0.156437D-04
     27  0.972861D-04 -0.341866D-04  0.369763D-04 -0.552495D-05 -0.372494D-04
     28 -0.418637D-03 -0.121378D-03 -0.810556D-05 -0.122928D-03 -0.157641D-03
     29  0.249815D-02  0.444623D-03  0.371981D-04  0.659013D-03  0.116536D-03
     30 -0.108664D-03 -0.189085D-04  0.227684D-04 -0.287281D-04 -0.207780D-04
     31  0.322406D-04  0.650027D-05  0.237497D-04  0.640229D-04 -0.110243D-04
     32 -0.597720D-04 -0.713136D-05  0.204189D-04 -0.547366D-04 -0.664925D-05
     33  0.100999D-01 -0.658149D-04 -0.315994D-02 -0.232363D-02  0.106229D-02
               11            12            13            14            15 
     11  0.123400D+11
     12  0.173456D+02  0.123400D+11
     13  0.187462D+02 -0.859387D+00  0.123400D+11
     14  0.185162D+02 -0.508084D+00 -0.892873D+00  0.123400D+11
     15 -0.634190D+00  0.440256D+00  0.899116D-01  0.196985D+02  0.123400D+11
     16  0.923793D-02  0.369957D+00  0.994405D+00  0.272336D+02 -0.923121D+00
     17  0.670393D-01  0.162389D-01  0.298455D-01  0.195565D+00 -0.334930D-02
     18  0.110346D-01 -0.149963D-02 -0.324993D-02 -0.210589D-01  0.402232D-03
     19  0.203522D+01  0.192715D-01 -0.582046D-01  0.292475D+01  0.428217D+00
     20  0.429374D+00  0.338737D+00  0.390357D+00  0.150271D+02 -0.947700D+00
     21  0.430038D+00 -0.102649D-01 -0.991737D-02  0.207841D+00  0.247510D+00
     22  0.695413D+00 -0.354251D-01 -0.558795D-01  0.117486D+02  0.191997D+00
     23  0.498590D-01  0.731575D-03  0.139872D-02  0.812487D-01 -0.249834D-01
     24  0.113795D+01 -0.908419D-02  0.165590D-02 -0.297581D+00  0.567718D+00
     25 -0.469730D-01  0.229005D-01  0.994891D-02  0.829280D+00 -0.957888D-01
     26  0.221819D-01  0.240864D-03  0.521548D-03  0.355683D-01  0.103200D-01
     27 -0.461115D-02 -0.414509D-03 -0.139351D-02  0.810868D-02  0.223191D-01
     28 -0.347512D-02 -0.228176D-03  0.920110D-03  0.931529D-01 -0.327745D-02
     29  0.338336D+00  0.271026D-02  0.114690D-01  0.922851D+00  0.228817D-01
     30 -0.766199D-02  0.102421D-02  0.378108D-03 -0.544025D-01  0.881644D-02
     31  0.139413D-01  0.140858D-02  0.297909D-02 -0.271850D-01 -0.328533D-03
     32 -0.666193D-02 -0.627593D-03 -0.949802D-03 -0.900402D-01  0.601516D-02
     33  0.160982D+00  0.200935D-01  0.355251D-01  0.841856D+00  0.154552D+00
               16            17            18            19            20 
     16  0.123400D+11
     17 -0.480233D-02  0.123400D+11
     18  0.356003D-03  0.199238D+02  0.123400D+11
     19 -0.997702D+01  0.158183D-01  0.709510D-03  0.123400D+11
     20  0.327244D+00  0.343066D-01 -0.334047D-02  0.535260D+00  0.123400D+11
     21 -0.217666D-01 -0.164190D-02  0.188505D-03 -0.984068D-02  0.319265D+02
     22  0.282419D+02  0.149789D-01 -0.153508D-02  0.620979D+01  0.362120D+00
     23  0.300613D+00  0.825565D-04  0.153328D-04  0.551806D+00 -0.455896D-01
     24  0.118460D+00  0.546546D-03 -0.110695D-03 -0.113761D-01  0.258431D+02
     25 -0.165682D+00 -0.301784D-03  0.520784D-04  0.116447D-01  0.119982D+02
     26  0.495916D-01 -0.221529D-04  0.616759D-05  0.644575D-03  0.485587D+00
     27  0.993497D-01  0.929328D-04 -0.114410D-04  0.688389D-02  0.382059D+00
     28  0.633972D-03  0.114064D-03 -0.157551D-04  0.157164D-02  0.380552D+00
     29 -0.641931D+00  0.151435D-02 -0.135132D-03  0.664982D+00 -0.114379D+00
     30  0.246615D+00 -0.388227D-04  0.448315D-05  0.251208D+00  0.157860D+00
     31  0.103984D+01  0.185652D-04  0.000000D+00  0.164917D+00  0.482062D-03
     32  0.214645D+00 -0.198332D-04  0.000000D+00  0.251977D+00  0.931197D-01
     33  0.362924D+00  0.465453D-02 -0.463372D-03  0.152043D+00  0.480051D+01
               21            22            23            24            25 
     21  0.123400D+11
     22  0.324700D-01  0.123400D+11
     23  0.106988D-02  0.324480D+02  0.123400D+11
     24  0.458178D+00 -0.227686D+00  0.190617D-01  0.123400D+11
     25  0.132630D+00  0.158302D+00 -0.242695D-01  0.273751D+02  0.123400D+11
     26 -0.176886D-01 -0.321458D-02 -0.315952D-02 -0.119029D+01  0.177933D+02
     27 -0.125203D-01 -0.590899D-02 -0.415799D-03 -0.118980D+01  0.179794D+02
     28 -0.107146D-01  0.266749D-01 -0.197230D-02 -0.754364D+00  0.174697D+02
     29 -0.351621D-02  0.161809D+02  0.358696D+00 -0.110440D-01 -0.113447D-01
     30  0.202882D-02 -0.643890D+00  0.540227D-01 -0.157395D-02  0.185058D-02
     31  0.123853D-04 -0.293912D+00  0.285455D+00  0.240001D-03  0.113660D-02
     32  0.143994D-02 -0.615007D+00  0.179111D+00 -0.114909D-02  0.961633D-02
     33  0.398200D+00  0.483540D+01 -0.718411D+00 -0.919909D+01  0.416114D+01
               26            27            28            29            30 
     26  0.123400D+11
     27 -0.925291D+00  0.123400D+11
     28 -0.745355D+00 -0.726582D+00  0.123400D+11
     29 -0.100044D-02 -0.754717D-03  0.925921D-03  0.123400D+11
     30 -0.135327D-03  0.546344D-03  0.228941D-03  0.196102D+02  0.123400D+11
     31  0.367078D-03  0.559562D-04  0.846161D-04  0.184751D+02 -0.733188D+00
     32  0.279125D-03  0.539439D-03 -0.259006D-03  0.197894D+02 -0.746409D+00
     33  0.419528D+00  0.378920D+00  0.914832D+00  0.915159D-01  0.143895D-02
               31            32            33 
     31  0.123400D+11
     32 -0.757092D+00  0.123400D+11
     33  0.303477D-01  0.639229D-01  0.123400D+11
 Fermi Contact (FC) contribution to J (Hz):
                1             2             3             4             5 
      1  0.243533D+11
      2  0.679395D+02  0.243533D+11
      3 -0.237378D+01  0.664056D+02  0.243533D+11
      4  0.592553D+01  0.705090D+00  0.638768D+02  0.243533D+11
      5  0.326237D+01  0.588127D+01 -0.256858D+01  0.669586D+02  0.243533D+11
      6  0.706150D+02 -0.495453D+00  0.842413D+01  0.292663D+00  0.759470D+02
      7  0.170323D+03 -0.240090D+01  0.744027D+01 -0.156130D+01  0.475668D+01
      8 -0.136947D+01  0.175614D+03 -0.175742D+01  0.766885D+01 -0.221342D+01
      9 -0.221548D+01  0.813435D+01 -0.126715D+01  0.180223D+03 -0.933879D+00
     10  0.527570D+01 -0.180699D+01  0.805273D+01 -0.172661D+01  0.181171D+03
     11  0.375022D+01  0.263866D+01  0.466593D+02  0.331962D+01  0.382437D+01
     12 -0.933292D-01  0.680218D+01 -0.835507D+01  0.720288D+01  0.648011D+00
     13  0.265979D+00  0.699006D+01 -0.900228D+01  0.636143D+01 -0.407176D+00
     14 -0.972876D+00  0.128321D+01 -0.330050D+01  0.104090D+01 -0.921041D+00
     15  0.898805D-01 -0.211624D+00  0.194900D+01 -0.592732D-01  0.930631D-01
     16  0.632104D-01  0.711029D-01  0.699195D+00 -0.116065D+00  0.191293D-01
     17  0.825083D+00  0.130669D+00 -0.277333D+00 -0.314420D+01 -0.123318D+02
     18  0.330546D+01 -0.748288D-01 -0.365063D+00  0.160454D+01  0.898915D+01
     19 -0.227053D-01 -0.155789D+00 -0.124181D-01 -0.336030D+00 -0.410432D-01
     20 -0.293130D-01  0.497785D-01  0.172058D+01  0.173784D+00 -0.718963D-01
     21  0.310006D-01 -0.170231D-01 -0.709190D+00 -0.372987D+00  0.787967D-01
     22 -0.179546D-01  0.196398D-01  0.658582D-01  0.291159D-01 -0.181792D-01
     23  0.566361D-02  0.114375D-01  0.357463D-01  0.130047D-01  0.693018D-02
     24  0.158859D-02 -0.133087D-01  0.631318D-01  0.639080D-01  0.698800D-03
     25  0.603541D-02 -0.121731D-01  0.140430D+00 -0.118741D-01  0.773006D-02
     26  0.659040D-03 -0.113687D-02  0.163505D-01 -0.106790D-02  0.314399D-02
     27  0.139913D-02  0.655891D-02 -0.203742D-01  0.252136D-02 -0.136468D-04
     28  0.125150D-02  0.132469D-02 -0.476485D-02 -0.136707D-02  0.551813D-02
     29  0.151981D-02  0.244165D-01  0.641164D-01  0.322238D-02 -0.188333D-02
     30 -0.391437D-04 -0.206459D-02 -0.225962D-01 -0.177721D-02  0.104517D-02
     31  0.759206D-03  0.225944D-02  0.603639D-02  0.178258D-03  0.459269D-03
     32 -0.871208D-03 -0.965258D-04 -0.180316D-01 -0.149594D-02 -0.211620D-03
     33  0.626088D-02 -0.260220D-01 -0.440564D-01 -0.153090D-01  0.116291D-01
                6             7             8             9            10 
      6  0.243533D+11
      7 -0.426463D+01  0.385007D+12
      8  0.930011D+01  0.103750D+02  0.385007D+12
      9  0.979801D+01  0.114193D+01  0.126092D+01  0.385007D+12
     10 -0.534313D+01  0.205060D+01  0.124351D+01  0.110380D+02  0.385007D+12
     11 -0.854469D+00  0.716081D-01  0.517067D+01  0.512502D+01  0.172626D+00
     12  0.367312D+00  0.174645D+00 -0.866532D+00 -0.257539D+00  0.317382D+00
     13  0.663437D+00  0.345684D+00 -0.599132D+00 -0.101227D+01  0.286894D+00
     14  0.968067D+00  0.330312D+00 -0.936796D+00 -0.834997D+00  0.305313D+00
     15 -0.702917D-01 -0.310287D-01  0.130893D+00  0.198182D+00 -0.115069D-01
     16 -0.286730D-01  0.514055D-02  0.710601D-01  0.243297D-01 -0.168554D-01
     17  0.128020D+02 -0.238028D+01 -0.290088D+00 -0.115430D+01 -0.298249D+01
     18 -0.512073D+01 -0.399603D+00  0.581360D-01  0.459748D+00  0.232773D-01
     19 -0.508253D-01 -0.369423D-02 -0.263340D-03 -0.280702D+00 -0.208457D-01
     20  0.484065D-01  0.763109D-02 -0.742447D-01 -0.101454D+00  0.339858D-01
     21 -0.308850D-01  0.112338D-01  0.111374D+00  0.124629D+00 -0.149156D-01
     22  0.237724D-01  0.801292D-02 -0.128161D-01 -0.258273D-01  0.100454D-01
     23 -0.855956D-03  0.394178D-04  0.118194D-02  0.176065D-01 -0.154351D-02
     24 -0.879233D-04 -0.698705D-02 -0.569286D-02  0.435268D-03 -0.684597D-02
     25 -0.353788D-02 -0.680476D-03  0.132955D-02  0.145628D-02 -0.843705D-03
     26 -0.838403D-03 -0.104321D-02  0.709062D-03  0.279762D-02 -0.488084D-03
     27  0.763395D-03 -0.106662D-02  0.115366D-02 -0.172378D-03 -0.116218D-02
     28 -0.328500D-02 -0.378699D-02 -0.252893D-03 -0.383536D-02 -0.491839D-02
     29  0.493016D-02  0.348891D-02  0.291890D-03  0.517121D-02  0.914449D-03
     30 -0.852673D-03 -0.589943D-03  0.710372D-03 -0.896315D-03 -0.648273D-03
     31  0.252989D-03  0.202808D-03  0.740989D-03  0.199751D-02 -0.343958D-03
     32 -0.469025D-03 -0.222498D-03  0.637069D-03 -0.170778D-02 -0.207456D-03
     33 -0.107481D-01  0.278481D-03  0.133706D-01  0.983193D-02 -0.449486D-02
               11            12            13            14            15 
     11  0.243533D+11
     12  0.136109D+03  0.385007D+12
     13  0.147099D+03 -0.268128D+02  0.385007D+12
     14  0.365423D+02 -0.398689D+01 -0.700629D+01  0.243533D+11
     15 -0.497643D+01  0.137360D+02  0.280524D+01  0.154572D+03  0.385007D+12
     16  0.182313D-01  0.290302D+01  0.780300D+01  0.537462D+02 -0.724364D+01
     17 -0.713419D-01 -0.687114D-01 -0.126285D+00 -0.208116D+00  0.141718D-01
     18  0.865878D-01 -0.467884D-01 -0.101398D+00 -0.165247D+00  0.125496D-01
     19 -0.216585D+01 -0.815430D-01  0.246280D+00 -0.311246D+01 -0.181190D+01
     20  0.243546D+00  0.763949D+00  0.880366D+00  0.852354D+01 -0.213733D+01
     21  0.337447D+01 -0.320264D+00 -0.309422D+00  0.163091D+01  0.772231D+01
     22  0.394447D+00 -0.798936D-01 -0.126024D+00  0.666395D+01  0.433007D+00
     23  0.391239D+00  0.228251D-01  0.436400D-01  0.637551D+00 -0.779481D+00
     24  0.224577D+01 -0.712827D-01  0.129937D-01 -0.587284D+00  0.445483D+01
     25 -0.927023D-01  0.179698D+00  0.780681D-01  0.163660D+01 -0.751645D+00
     26  0.174059D+00  0.751496D-02  0.162723D-01  0.279101D+00  0.321984D+00
     27 -0.361833D-01 -0.129327D-01 -0.434773D-01  0.636280D-01  0.696355D+00
     28 -0.272690D-01 -0.711907D-02  0.287074D-01  0.730962D+00 -0.102256D+00
     29  0.667714D+00  0.212672D-01  0.899960D-01  0.182127D+01  0.179550D+00
     30 -0.601229D-01  0.319554D-01  0.117969D-01 -0.426891D+00  0.275072D+00
     31  0.109396D+00  0.439477D-01  0.929475D-01 -0.213318D+00 -0.102502D-01
     32 -0.522755D-01 -0.195809D-01 -0.296338D-01 -0.706537D+00  0.187673D+00
     33 -0.171314D+00 -0.850213D-01 -0.150316D+00 -0.895887D+00 -0.653952D+00
               16            17            18            19            20 
     16  0.243533D+11
     17  0.511055D-02  0.708114D+10
     18  0.279352D-02 -0.843030D+02  0.385007D+12
     19  0.106173D+02  0.907710D-02 -0.300213D-02  0.708114D+10
     20  0.185617D+00 -0.104929D-01 -0.753370D-02 -0.163713D+00  0.201170D+10
     21 -0.170801D+00  0.694731D-02  0.588134D-02  0.416386D-01  0.720034D+02
     22  0.160192D+02 -0.458141D-02 -0.346204D-02 -0.189931D+01  0.590339D-01
     23  0.235888D+01 -0.349319D-03  0.478383D-03 -0.233484D+01 -0.102817D+00
     24  0.233783D+00 -0.581624D-03 -0.868616D-03  0.121062D-01  0.146585D+02
     25 -0.326978D+00  0.321153D-03  0.408654D-03 -0.123920D-01  0.680551D+01
     26  0.389140D+00  0.937350D-04  0.192429D-03 -0.272737D-02  0.109514D+01
     27  0.779588D+00 -0.393224D-03 -0.356958D-03 -0.291276D-01  0.861651D+00
     28  0.497472D-02 -0.482638D-03 -0.491560D-03 -0.665003D-02  0.858252D+00
     29 -0.126687D+01 -0.161154D-02 -0.106036D-02 -0.707661D+00 -0.648771D-01
     30  0.193516D+01  0.164269D-03  0.139874D-03 -0.106293D+01  0.356019D+00
     31  0.815955D+01 -0.785545D-04 -0.206333D-04 -0.697807D+00  0.108719D-02
     32  0.168430D+01  0.839198D-04  0.302342D-04 -0.106618D+01  0.210011D+00
     33 -0.386216D+00  0.267094D-02  0.196065D-02  0.872477D-01 -0.146827D+01
               21            22            23            24            25 
     21  0.385007D+12
     22  0.732291D-01  0.201170D+10
     23  0.333802D-01  0.731795D+02  0.385007D+12
     24  0.359528D+01 -0.129147D+00  0.149575D+00  0.243533D+11
     25  0.104074D+01  0.897907D-01 -0.190440D+00  0.540255D+02  0.243533D+11
     26 -0.551882D+00 -0.724980D-02 -0.985768D-01 -0.934005D+01  0.139622D+03
     27 -0.390633D+00 -0.133265D-01 -0.129729D-01 -0.933624D+01  0.141082D+03
     28 -0.334294D+00  0.601596D-01 -0.615357D-01 -0.591942D+01  0.137083D+03
     29 -0.275914D-01  0.917803D+01  0.281466D+01 -0.217956D-01 -0.223891D-01
     30  0.632990D-01 -0.145216D+01  0.168551D+01 -0.123507D-01  0.145213D-01
     31  0.386420D-03 -0.662855D+00  0.890617D+01  0.188327D-02  0.891881D-02
     32  0.449260D-01 -0.138702D+01  0.558824D+01 -0.901682D-02  0.754584D-01
     33 -0.168489D+01 -0.147894D+01  0.303979D+01  0.978950D+01 -0.442820D+01
               26            27            28            29            30 
     26  0.385007D+12
     27 -0.288690D+02  0.385007D+12
     28 -0.232551D+02 -0.226693D+02  0.385007D+12
     29 -0.785034D-02 -0.592219D-02  0.726561D-02  0.243533D+11
     30 -0.422220D-02  0.170459D-01  0.714295D-02  0.153879D+03  0.385007D+12
     31  0.114528D-01  0.174583D-02  0.264002D-02  0.144973D+03 -0.228754D+02
     32  0.870868D-02  0.168305D-01 -0.808098D-02  0.155285D+03 -0.232879D+02
     33 -0.177514D+01 -0.160331D+01 -0.387091D+01 -0.973894D-01 -0.608858D-02
               31            32            33 
     31  0.385007D+12
     32 -0.236213D+02  0.385007D+12
     33 -0.128409D+00 -0.270475D+00  0.708114D+10
 End of Minotr F.D. properties file   721 does not exist.
 End of Minotr F.D. properties file   722 does not exist.
 End of Minotr F.D. properties file   788 does not exist.
 Leave Link 1002 at Tue Jun 24 12:54:55 2014, MaxMem=  4294967296 cpu:    467405.7
 (Enter /home/ztw1e12/g09/l601.exe)
 Copying SCF densities to generalized density rwf, IOpCl= 0 IROHF=0.

 **********************************************************************

            Population analysis using the SCF density.

 **********************************************************************

 Orbital symmetries:
       Occupied  (A) (A) (A) (A) (A) (A) (A) (A) (A) (A) (A) (A)
                 (A) (A) (A) (A) (A) (A) (A) (A) (A) (A) (A) (A)
                 (A) (A) (A) (A) (A) (A) (A) (A) (A) (A) (A) (A)
                 (A) (A) (A) (A) (A) (A) (A) (A) (A) (A) (A) (A)
                 (A) (A) (A) (A) (A) (A) (A) (A) (A) (A) (A) (A)
                 (A) (A) (A)
       Virtual   (A) (A) (A) (A) (A) (A) (A) (A) (A) (A) (A) (A)
                 (A) (A) (A) (A) (A) (A) (A) (A) (A) (A) (A) (A)
                 (A) (A) (A) (A) (A) (A) (A) (A) (A) (A) (A) (A)
                 (A) (A) (A) (A) (A) (A) (A) (A) (A) (A) (A) (A)
                 (A) (A) (A) (A) (A) (A) (A) (A) (A) (A) (A) (A)
                 (A) (A) (A) (A) (A) (A) (A) (A) (A) (A) (A) (A)
                 (A) (A) (A) (A) (A) (A) (A) (A) (A) (A) (A) (A)
                 (A) (A) (A) (A) (A) (A) (A) (A) (A) (A) (A) (A)
                 (A) (A) (A) (A) (A) (A) (A) (A) (A) (A) (A) (A)
                 (A) (A) (A) (A) (A) (A) (A) (A) (A) (A) (A) (A)
                 (A) (A) (A) (A) (A) (A) (A) (A) (A) (A) (A) (A)
                 (A) (A) (A) (A) (A) (A) (A) (A) (A) (A) (A) (A)
                 (A) (A) (A) (A) (A) (A) (A) (A) (A) (A) (A) (A)
                 (A) (A) (A) (A) (A) (A) (A) (A) (A) (A) (A) (A)
                 (A) (A) (A) (A) (A) (A) (A) (A) (A) (A) (A) (A)
                 (A) (A) (A) (A) (A) (A) (A) (A) (A) (A) (A) (A)
                 (A) (A) (A) (A) (A) (A) (A) (A) (A) (A) (A) (A)
                 (A) (A) (A) (A) (A) (A) (A) (A) (A) (A) (A) (A)
                 (A) (A) (A) (A) (A) (A) (A) (A) (A) (A) (A) (A)
                 (A) (A) (A) (A) (A) (A) (A) (A) (A) (A) (A) (A)
                 (A) (A) (A) (A) (A) (A) (A) (A) (A) (A) (A) (A)
                 (A) (A) (A) (A) (A) (A) (A) (A) (A) (A) (A) (A)
                 (A) (A) (A) (A) (A) (A) (A) (A) (A) (A) (A) (A)
                 (A) (A) (A) (A) (A) (A) (A) (A) (A) (A) (A) (A)
                 (A) (A) (A) (A) (A) (A) (A) (A) (A) (A) (A) (A)
                 (A) (A) (A) (A) (A) (A) (A) (A) (A) (A) (A) (A)
                 (A) (A) (A) (A) (A) (A) (A) (A) (A) (A) (A) (A)
                 (A) (A) (A) (A) (A) (A) (A) (A) (A) (A) (A) (A)
                 (A) (A) (A) (A) (A) (A) (A) (A) (A) (A) (A) (A)
                 (A) (A) (A) (A) (A) (A) (A) (A) (A) (A) (A) (A)
                 (A) (A) (A) (A) (A) (A) (A) (A) (A) (A) (A) (A)
                 (A) (A) (A) (A) (A) (A) (A) (A) (A) (A) (A) (A)
                 (A) (A) (A) (A) (A) (A) (A) (A) (A) (A) (A) (A)
                 (A) (A) (A) (A) (A) (A) (A) (A) (A) (A) (A) (A)
                 (A) (A) (A) (A) (A) (A) (A) (A) (A) (A) (A) (A)
                 (A) (A) (A) (A) (A) (A) (A) (A) (A) (A) (A) (A)
                 (A) (A) (A) (A) (A) (A) (A) (A) (A) (A) (A) (A)
                 (A) (A) (A) (A) (A) (A) (A) (A) (A) (A) (A) (A)
                 (A) (A) (A) (A) (A) (A) (A) (A) (A) (A) (A) (A)
                 (A) (A) (A) (A) (A) (A) (A) (A) (A) (A) (A) (A)
                 (A) (A) (A) (A) (A) (A) (A) (A) (A) (A) (A) (A)
                 (A) (A) (A) (A) (A) (A) (A) (A) (A) (A) (A) (A)
                 (A) (A) (A) (A) (A) (A) (A) (A) (A) (A) (A) (A)
                 (A) (A) (A) (A) (A) (A) (A) (A) (A) (A) (A) (A)
                 (A) (A) (A) (A) (A) (A) (A) (A) (A) (A) (A) (A)
                 (A) (A) (A) (A) (A) (A) (A) (A) (A) (A) (A) (A)
                 (A) (A) (A) (A) (A) (A) (A) (A) (A) (A) (A) (A)
                 (A) (A) (A) (A) (A) (A) (A) (A) (A) (A) (A) (A)
                 (A) (A) (A) (A) (A) (A) (A) (A) (A) (A) (A) (A)
                 (A) (A) (A) (A) (A) (A) (A) (A) (A) (A) (A) (A)
                 (A) (A) (A) (A) (A) (A) (A) (A) (A) (A) (A) (A)
                 (A) (A) (A) (A) (A) (A) (A) (A) (A) (A) (A) (A)
                 (A) (A) (A) (A) (A) (A) (A) (A) (A) (A) (A) (A)
                 (A) (A) (A) (A) (A) (A) (A) (A) (A) (A) (A) (A)
                 (A) (A) (A) (A) (A) (A) (A) (A) (A) (A) (A) (A)
                 (A) (A) (A) (A) (A) (A) (A) (A) (A) (A) (A) (A)
                 (A) (A) (A) (A) (A) (A) (A) (A) (A) (A) (A) (A)
                 (A) (A) (A) (A) (A) (A) (A) (A) (A) (A) (A) (A)
                 (A) (A) (A) (A) (A) (A) (A) (A) (A) (A) (A) (A)
                 (A) (A) (A) (A) (A) (A) (A) (A) (A) (A) (A) (A)
                 (A) (A) (A) (A) (A) (A) (A) (A) (A) (A) (A) (A)
                 (A) (A) (A) (A) (A) (A) (A) (A) (A) (A) (A) (A)
                 (A) (A) (A) (A) (A) (A) (A) (A) (A) (A) (A) (A)
                 (A) (A) (A) (A) (A) (A) (A) (A) (A) (A) (A) (A)
                 (A) (A) (A) (A) (A) (A) (A) (A) (A) (A) (A) (A)
                 (A) (A) (A) (A) (A) (A) (A) (A) (A) (A) (A) (A)
                 (A) (A) (A) (A) (A) (A) (A) (A) (A) (A) (A) (A)
                 (A) (A) (A) (A) (A) (A) (A) (A) (A) (A) (A) (A)
                 (A) (A) (A) (A) (A) (A) (A) (A) (A) (A) (A) (A)
                 (A) (A) (A) (A) (A) (A) (A) (A) (A) (A) (A) (A)
                 (A) (A) (A) (A) (A) (A) (A) (A) (A) (A) (A) (A)
                 (A) (A) (A) (A) (A) (A) (A) (A) (A) (A) (A) (A)
                 (A) (A) (A) (A) (A) (A) (A) (A) (A) (A) (A) (A)
                 (A) (A) (A) (A) (A) (A) (A) (A) (A) (A) (A) (A)
                 (A) (A) (A) (A) (A) (A) (A) (A) (A) (A) (A) (A)
                 (A) (A) (A) (A) (A) (A) (A) (A) (A) (A) (A) (A)
                 (A) (A) (A) (A) (A) (A) (A) (A) (A) (A) (A) (A)
                 (A) (A) (A) (A) (A) (A) (A) (A) (A) (A) (A) (A)
                 (A) (A) (A) (A) (A) (A) (A) (A) (A) (A) (A) (A)
                 (A) (A) (A) (A) (A) (A) (A) (A) (A) (A) (A) (A)
                 (A) (A) (A) (A) (A) (A) (A) (A) (A) (A) (A) (A)
                 (A) (A) (A) (A) (A) (A) (A) (A) (A) (A) (A) (A)
                 (A) (A) (A) (A) (A) (A) (A) (A) (A) (A) (A) (A)
                 (A) (A) (A) (A) (A) (A) (A) (A) (A)
 The electronic state is 1-A.
 Alpha  occ. eigenvalues --  -19.25228 -19.18270 -19.17436 -14.42532 -14.40818
 Alpha  occ. eigenvalues --  -10.34926 -10.33265 -10.31303 -10.29308 -10.26561
 Alpha  occ. eigenvalues --  -10.25284 -10.25160 -10.25068 -10.24879 -10.24868
 Alpha  occ. eigenvalues --  -10.24684 -10.24507  -1.09548  -1.06322  -1.05011
 Alpha  occ. eigenvalues --   -0.95406  -0.93443  -0.88101  -0.81168  -0.77367
 Alpha  occ. eigenvalues --   -0.77122  -0.74324  -0.71668  -0.66406  -0.64305
 Alpha  occ. eigenvalues --   -0.61531  -0.60447  -0.58654  -0.56769  -0.54851
 Alpha  occ. eigenvalues --   -0.51830  -0.50767  -0.50475  -0.48182  -0.47263
 Alpha  occ. eigenvalues --   -0.46481  -0.45983  -0.45272  -0.44294  -0.43953
 Alpha  occ. eigenvalues --   -0.43304  -0.42467  -0.42389  -0.41526  -0.40883
 Alpha  occ. eigenvalues --   -0.39901  -0.39224  -0.38000  -0.36894  -0.36604
 Alpha  occ. eigenvalues --   -0.35504  -0.35123  -0.30094  -0.28145  -0.27846
 Alpha  occ. eigenvalues --   -0.27138  -0.25993  -0.24302
 Alpha virt. eigenvalues --   -0.01882   0.00032   0.01328   0.01735   0.02739
 Alpha virt. eigenvalues --    0.03853   0.04033   0.05008   0.05945   0.07022
 Alpha virt. eigenvalues --    0.07590   0.08373   0.09886   0.10262   0.10830
 Alpha virt. eigenvalues --    0.11234   0.11959   0.12156   0.12482   0.13993
 Alpha virt. eigenvalues --    0.14878   0.15716   0.17180   0.17759   0.19407
 Alpha virt. eigenvalues --    0.19903   0.20538   0.21881   0.22356   0.22681
 Alpha virt. eigenvalues --    0.23287   0.24418   0.25015   0.25921   0.26447
 Alpha virt. eigenvalues --    0.27225   0.27902   0.28277   0.28885   0.29612
 Alpha virt. eigenvalues --    0.30247   0.31309   0.31553   0.32032   0.32632
 Alpha virt. eigenvalues --    0.32993   0.33694   0.34215   0.34664   0.35236
 Alpha virt. eigenvalues --    0.35467   0.35804   0.36499   0.36919   0.37971
 Alpha virt. eigenvalues --    0.38455   0.38741   0.38914   0.39480   0.40004
 Alpha virt. eigenvalues --    0.40500   0.40783   0.41372   0.41736   0.42234
 Alpha virt. eigenvalues --    0.42571   0.42580   0.43229   0.43572   0.44187
 Alpha virt. eigenvalues --    0.44359   0.45234   0.45991   0.46116   0.46471
 Alpha virt. eigenvalues --    0.47475   0.48019   0.49163   0.49747   0.50042
 Alpha virt. eigenvalues --    0.51145   0.51518   0.52267   0.52982   0.53659
 Alpha virt. eigenvalues --    0.54167   0.54566   0.55847   0.56831   0.57818
 Alpha virt. eigenvalues --    0.58367   0.59343   0.59960   0.60980   0.61251
 Alpha virt. eigenvalues --    0.61933   0.62498   0.63101   0.63817   0.64735
 Alpha virt. eigenvalues --    0.65297   0.65740   0.66453   0.67942   0.68344
 Alpha virt. eigenvalues --    0.69451   0.69950   0.70748   0.71357   0.72781
 Alpha virt. eigenvalues --    0.73378   0.73918   0.74075   0.74749   0.75748
 Alpha virt. eigenvalues --    0.76396   0.77341   0.78949   0.79116   0.79343
 Alpha virt. eigenvalues --    0.81021   0.81621   0.81938   0.82375   0.82867
 Alpha virt. eigenvalues --    0.83148   0.83722   0.85127   0.85652   0.86733
 Alpha virt. eigenvalues --    0.86805   0.88207   0.89087   0.89768   0.91050
 Alpha virt. eigenvalues --    0.91273   0.92715   0.93392   0.93722   0.94408
 Alpha virt. eigenvalues --    0.95401   0.96302   0.96914   0.97305   0.97507
 Alpha virt. eigenvalues --    0.98468   0.98738   0.99489   1.00493   1.01219
 Alpha virt. eigenvalues --    1.02342   1.03026   1.03890   1.04477   1.05167
 Alpha virt. eigenvalues --    1.05563   1.06542   1.06889   1.07969   1.08407
 Alpha virt. eigenvalues --    1.09182   1.10352   1.11869   1.12660   1.13868
 Alpha virt. eigenvalues --    1.15105   1.15591   1.16026   1.16672   1.17038
 Alpha virt. eigenvalues --    1.18456   1.18799   1.19098   1.20034   1.20440
 Alpha virt. eigenvalues --    1.20830   1.21696   1.22064   1.22372   1.22624
 Alpha virt. eigenvalues --    1.23269   1.23494   1.23885   1.24738   1.25396
 Alpha virt. eigenvalues --    1.25819   1.26303   1.26574   1.26802   1.27133
 Alpha virt. eigenvalues --    1.28291   1.28896   1.29506   1.29843   1.30300
 Alpha virt. eigenvalues --    1.31136   1.31910   1.32525   1.33504   1.33965
 Alpha virt. eigenvalues --    1.34607   1.35581   1.36127   1.37259   1.38718
 Alpha virt. eigenvalues --    1.39560   1.41250   1.42884   1.43970   1.45071
 Alpha virt. eigenvalues --    1.46435   1.48007   1.48641   1.48960   1.50436
 Alpha virt. eigenvalues --    1.53234   1.53989   1.55961   1.56945   1.58139
 Alpha virt. eigenvalues --    1.59236   1.61228   1.61433   1.62509   1.63445
 Alpha virt. eigenvalues --    1.63921   1.65253   1.68251   1.69371   1.70419
 Alpha virt. eigenvalues --    1.73634   1.74424   1.75669   1.78709   1.79315
 Alpha virt. eigenvalues --    1.79896   1.81832   1.82149   1.83858   1.84528
 Alpha virt. eigenvalues --    1.84594   1.85978   1.87695   1.89211   1.90105
 Alpha virt. eigenvalues --    1.90954   1.93182   1.93304   1.95244   1.95800
 Alpha virt. eigenvalues --    1.97394   1.99339   2.00626   2.01033   2.02470
 Alpha virt. eigenvalues --    2.03614   2.04028   2.05569   2.07882   2.08694
 Alpha virt. eigenvalues --    2.09330   2.09840   2.11712   2.14241   2.14469
 Alpha virt. eigenvalues --    2.14860   2.16179   2.17117   2.18739   2.19470
 Alpha virt. eigenvalues --    2.21186   2.22670   2.23361   2.24041   2.25231
 Alpha virt. eigenvalues --    2.27462   2.28099   2.30065   2.31792   2.32646
 Alpha virt. eigenvalues --    2.33256   2.35744   2.36949   2.37937   2.38442
 Alpha virt. eigenvalues --    2.39219   2.39700   2.40475   2.41501   2.44425
 Alpha virt. eigenvalues --    2.45274   2.45375   2.46385   2.46550   2.47419
 Alpha virt. eigenvalues --    2.49811   2.50076   2.52065   2.53052   2.54781
 Alpha virt. eigenvalues --    2.55652   2.56174   2.56872   2.57161   2.62129
 Alpha virt. eigenvalues --    2.62761   2.63803   2.64437   2.64689   2.66531
 Alpha virt. eigenvalues --    2.67304   2.67615   2.68494   2.68967   2.69263
 Alpha virt. eigenvalues --    2.70032   2.71164   2.71397   2.71803   2.72050
 Alpha virt. eigenvalues --    2.72814   2.74274   2.75142   2.75641   2.76018
 Alpha virt. eigenvalues --    2.76885   2.77946   2.78857   2.79993   2.81347
 Alpha virt. eigenvalues --    2.81847   2.82683   2.83452   2.85310   2.85641
 Alpha virt. eigenvalues --    2.86698   2.87476   2.87882   2.88648   2.88959
 Alpha virt. eigenvalues --    2.89593   2.90420   2.90490   2.91435   2.91814
 Alpha virt. eigenvalues --    2.93237   2.93826   2.94331   2.94977   2.95713
 Alpha virt. eigenvalues --    2.96062   2.96329   2.97223   2.97598   2.98125
 Alpha virt. eigenvalues --    2.99632   3.00559   3.00984   3.01679   3.01937
 Alpha virt. eigenvalues --    3.02627   3.03276   3.03966   3.04514   3.04745
 Alpha virt. eigenvalues --    3.05133   3.05667   3.06933   3.07563   3.08263
 Alpha virt. eigenvalues --    3.10263   3.11363   3.11654   3.12509   3.13444
 Alpha virt. eigenvalues --    3.14504   3.15269   3.15629   3.15698   3.16595
 Alpha virt. eigenvalues --    3.17485   3.18611   3.19344   3.19498   3.20971
 Alpha virt. eigenvalues --    3.21426   3.21986   3.22605   3.23282   3.24369
 Alpha virt. eigenvalues --    3.25627   3.26094   3.26897   3.27597   3.28144
 Alpha virt. eigenvalues --    3.28838   3.28989   3.29736   3.30115   3.30610
 Alpha virt. eigenvalues --    3.31435   3.33030   3.34018   3.34429   3.34695
 Alpha virt. eigenvalues --    3.36403   3.36724   3.37022   3.37709   3.38813
 Alpha virt. eigenvalues --    3.40079   3.41390   3.41495   3.42084   3.42666
 Alpha virt. eigenvalues --    3.43210   3.43816   3.44925   3.45283   3.46602
 Alpha virt. eigenvalues --    3.47684   3.48521   3.48912   3.49281   3.50667
 Alpha virt. eigenvalues --    3.51726   3.52227   3.53442   3.54062   3.54941
 Alpha virt. eigenvalues --    3.56096   3.57954   3.59123   3.60790   3.61344
 Alpha virt. eigenvalues --    3.61833   3.62788   3.63924   3.64441   3.65925
 Alpha virt. eigenvalues --    3.67381   3.67993   3.69498   3.70561   3.71119
 Alpha virt. eigenvalues --    3.71746   3.72404   3.72962   3.73234   3.73727
 Alpha virt. eigenvalues --    3.74927   3.75911   3.76202   3.77348   3.77381
 Alpha virt. eigenvalues --    3.78747   3.80560   3.80773   3.81660   3.82083
 Alpha virt. eigenvalues --    3.83881   3.84167   3.84402   3.85353   3.85689
 Alpha virt. eigenvalues --    3.86780   3.87736   3.88094   3.88894   3.89584
 Alpha virt. eigenvalues --    3.90572   3.91076   3.92525   3.93660   3.94804
 Alpha virt. eigenvalues --    3.95719   3.96351   3.97848   3.98591   4.00670
 Alpha virt. eigenvalues --    4.01643   4.02669   4.03525   4.04097   4.05160
 Alpha virt. eigenvalues --    4.06148   4.06826   4.07410   4.07926   4.08423
 Alpha virt. eigenvalues --    4.09921   4.11727   4.12067   4.12564   4.14071
 Alpha virt. eigenvalues --    4.14674   4.15911   4.16726   4.17776   4.18623
 Alpha virt. eigenvalues --    4.18971   4.19503   4.20332   4.21243   4.22895
 Alpha virt. eigenvalues --    4.23639   4.23967   4.25334   4.25995   4.26280
 Alpha virt. eigenvalues --    4.27112   4.27643   4.28982   4.29644   4.30896
 Alpha virt. eigenvalues --    4.31788   4.33228   4.35437   4.37280   4.37869
 Alpha virt. eigenvalues --    4.39453   4.40100   4.41618   4.42705   4.44526
 Alpha virt. eigenvalues --    4.44933   4.46110   4.47597   4.48082   4.50406
 Alpha virt. eigenvalues --    4.52461   4.54320   4.55099   4.57186   4.57894
 Alpha virt. eigenvalues --    4.58873   4.60355   4.61612   4.62475   4.64893
 Alpha virt. eigenvalues --    4.65028   4.65187   4.65641   4.66583   4.68089
 Alpha virt. eigenvalues --    4.68541   4.69976   4.71445   4.72452   4.73448
 Alpha virt. eigenvalues --    4.74794   4.75586   4.75916   4.77699   4.79328
 Alpha virt. eigenvalues --    4.80674   4.82632   4.84015   4.84674   4.85593
 Alpha virt. eigenvalues --    4.87629   4.88587   4.88899   4.90466   4.92421
 Alpha virt. eigenvalues --    4.93426   4.93963   4.94908   4.96002   4.96317
 Alpha virt. eigenvalues --    4.97177   4.98896   4.99671   5.01562   5.02592
 Alpha virt. eigenvalues --    5.03837   5.05438   5.06928   5.08068   5.09200
 Alpha virt. eigenvalues --    5.11259   5.12231   5.13111   5.13457   5.14480
 Alpha virt. eigenvalues --    5.16132   5.16845   5.17670   5.19085   5.20458
 Alpha virt. eigenvalues --    5.22909   5.23357   5.25366   5.26475   5.27390
 Alpha virt. eigenvalues --    5.28810   5.32380   5.35300   5.36010   5.36499
 Alpha virt. eigenvalues --    5.39416   5.42771   5.44693   5.45298   5.46091
 Alpha virt. eigenvalues --    5.49918   5.51656   5.52134   5.52656   5.54499
 Alpha virt. eigenvalues --    5.56100   5.57182   5.58798   5.61483   5.62943
 Alpha virt. eigenvalues --    5.63716   5.65418   5.66106   5.66971   5.67306
 Alpha virt. eigenvalues --    5.68290   5.69630   5.71588   5.72718   5.74079
 Alpha virt. eigenvalues --    5.74569   5.75640   5.78094   5.80404   5.81829
 Alpha virt. eigenvalues --    5.87038   5.87457   5.89754   5.91045   5.96037
 Alpha virt. eigenvalues --    5.98322   6.00698   6.04540   6.06154   6.09781
 Alpha virt. eigenvalues --    6.16697   6.17454   6.21169   6.22704   6.24995
 Alpha virt. eigenvalues --    6.45701   6.46370   6.52310   6.55572   6.59084
 Alpha virt. eigenvalues --    6.60356   6.60458   6.61926   6.62717   6.66180
 Alpha virt. eigenvalues --    6.77191   6.79917   6.81732   6.87924   6.88564
 Alpha virt. eigenvalues --    6.90061   6.91292   6.93120   6.93887   7.06428
 Alpha virt. eigenvalues --    7.17203   7.19707   7.22834   7.27168   7.29183
 Alpha virt. eigenvalues --    7.67061   8.00206   8.10585   8.11643   8.12241
 Alpha virt. eigenvalues --    8.16755   8.19341   8.25749   8.36581   8.67125
 Alpha virt. eigenvalues --    8.73366   8.75274   8.77345   8.80381   8.80800
 Alpha virt. eigenvalues --    8.83157   8.83522   8.84577   8.89469   8.90431
 Alpha virt. eigenvalues --    8.93683   8.94566   8.95294   9.01118   9.07929
 Alpha virt. eigenvalues --    9.11424   9.14091   9.15641   9.20640   9.30756
 Alpha virt. eigenvalues --    9.35362   9.39900   9.40707   9.45677   9.48062
 Alpha virt. eigenvalues --    9.57899   9.62364   9.77530   9.82178  10.01677
 Alpha virt. eigenvalues --   10.06659  10.08815  10.11962  10.13884  10.17115
[...]
 Alpha virt. eigenvalues --    6.78237   6.80353   6.85585   6.87325   6.88322
 Alpha virt. eigenvalues --    6.91954   6.93190   7.08106   7.10373   7.10424
 Alpha virt. eigenvalues --    7.15929   7.17934   7.28518   7.43466   8.70209
 Alpha virt. eigenvalues --    9.45165   9.99813  11.94706  12.14325  12.22709
 Alpha virt. eigenvalues --   12.34934  12.56738  12.75840  12.89812  13.15884
 Alpha virt. eigenvalues --   13.45353  13.52555  13.60847  13.75569  14.00202
 Alpha virt. eigenvalues --   15.56292
          Condensed to atoms (all electrons):
               1          2          3          4          5          6
     1  C    5.433640   0.216722   0.012841  -0.048253  -0.017495   0.292607
     2  C    0.216722   5.413691   0.277825  -0.025671  -0.043515   0.034299
     3  C    0.012841   0.277825   5.556971   0.216435  -0.042371  -0.078421
     4  C   -0.048253  -0.025671   0.216435   5.385278   0.395962  -0.017729
     5  C   -0.017495  -0.043515  -0.042371   0.395962   5.125051   0.366094
     6  C    0.292607   0.034299  -0.078421  -0.017729   0.366094   4.900624
     7  H    0.452859  -0.037560   0.009218  -0.001192   0.004537  -0.072505
     8  H   -0.030043   0.438482  -0.074474   0.009343  -0.001890   0.007254
     9  H   -0.003790   0.008595  -0.099284   0.453079  -0.033533   0.012273
    10  H    0.013826  -0.005820   0.014305  -0.056406   0.454114  -0.080317
    11  C    0.005860  -0.054125   0.183826  -0.039568   0.007630  -0.001660
    12  H    0.000191  -0.006028  -0.064181   0.008698  -0.000333   0.000053
    13  H   -0.000496   0.004743  -0.046522  -0.007161   0.000190   0.000078
    14  C    0.000699  -0.009838   0.046790  -0.015750  -0.000757  -0.000098
    15  H   -0.000059  -0.002958   0.003238   0.002129   0.000060  -0.000016
    16  C   -0.000020   0.001960  -0.001446  -0.002065   0.000038   0.000001
    17  O   -0.089854   0.013181  -0.000577   0.002645  -0.049621   0.393149
    18  H   -0.005670   0.004531  -0.000382  -0.000754   0.002651  -0.042677
    19  O   -0.000005  -0.000403  -0.011576   0.003979   0.000351   0.000005
    20  N    0.000006   0.013801  -0.041013  -0.005407   0.000309  -0.000043
    21  H   -0.000637  -0.000954   0.011401   0.003723   0.002762  -0.000594
    22  N   -0.000001  -0.000053  -0.000371   0.000155   0.000001   0.000000
    23  H    0.000001   0.000021  -0.000071  -0.000024   0.000000   0.000000
    24  C    0.000049  -0.000614  -0.002682   0.000375  -0.000114   0.000042
    25  C    0.000108   0.000502   0.000227  -0.000194  -0.000086  -0.000071
    26  H    0.000008  -0.000075   0.000080   0.000013  -0.000004  -0.000008
    27  H   -0.000001   0.000044  -0.000010  -0.000028  -0.000004   0.000002
    28  H    0.000312  -0.000208  -0.000050  -0.000242   0.000399   0.000094
    29  C    0.000000   0.000004   0.000075  -0.000031  -0.000001   0.000000
    30  H    0.000000   0.000000  -0.000012   0.000006   0.000000   0.000000
    31  H    0.000000   0.000000   0.000001  -0.000001   0.000000   0.000000
    32  H    0.000000   0.000000   0.000012  -0.000005   0.000000   0.000000
    33  O    0.000002  -0.000137  -0.000051   0.000011   0.000000   0.000000
               7          8          9         10         11         12
     1  C    0.452859  -0.030043  -0.003790   0.013826   0.005860   0.000191
     2  C   -0.037560   0.438482   0.008595  -0.005820  -0.054125  -0.006028
     3  C    0.009218  -0.074474  -0.099284   0.014305   0.183826  -0.064181
     4  C   -0.001192   0.009343   0.453079  -0.056406  -0.039568   0.008698
     5  C    0.004537  -0.001890  -0.033533   0.454114   0.007630  -0.000333
     6  C   -0.072505   0.007254   0.012273  -0.080317  -0.001660   0.000053
     7  H    0.532195  -0.007103   0.000028  -0.000213  -0.000243  -0.000052
     8  H   -0.007103   0.498220  -0.000098   0.000039   0.002103   0.001847
     9  H    0.000028  -0.000098   0.467648  -0.009054   0.001882   0.000351
    10  H   -0.000213   0.000039  -0.009054   0.533195  -0.000153   0.000015
    11  C   -0.000243   0.002103   0.001882  -0.000153   5.385579   0.460244
    12  H   -0.000052   0.001847   0.000351   0.000015   0.460244   0.477401
    13  H    0.000012   0.000154  -0.000028  -0.000040   0.442264  -0.004393
    14  C    0.000020  -0.001889  -0.002653   0.000024   0.107365  -0.059374
    15  H    0.000000   0.000127   0.000236  -0.000001  -0.004734  -0.005187
    16  C   -0.000001   0.000049   0.000753  -0.000005  -0.056223   0.004276
    17  O   -0.004074  -0.000104  -0.000125   0.006237   0.000002  -0.000001
    18  H    0.004514  -0.000004   0.000037  -0.000932  -0.000006   0.000000
    19  O    0.000000   0.000005   0.011021  -0.000012   0.007988   0.001139
    20  N    0.000003   0.000535   0.000531   0.000017  -0.025995   0.004777
    21  H    0.000005   0.000006  -0.000518   0.000018  -0.006377  -0.000052
    22  N    0.000000   0.000001   0.000196   0.000000   0.004599   0.000250
    23  H    0.000000   0.000000  -0.000018   0.000000   0.000083  -0.000091
    24  C   -0.000002   0.000171   0.000052  -0.000001   0.009969   0.000162
    25  C    0.000006   0.000029   0.000001   0.000002  -0.000169   0.000020
    26  H    0.000000  -0.000012   0.000001   0.000000   0.000100  -0.000004
    27  H    0.000000   0.000002  -0.000003   0.000000  -0.000031   0.000000
    28  H    0.000007  -0.000014  -0.000011   0.000010  -0.000234   0.000005
    29  C    0.000000   0.000000  -0.000025   0.000000  -0.000912   0.000007
    30  H    0.000000   0.000000   0.000026   0.000000  -0.000027   0.000001
    31  H    0.000000   0.000000  -0.000001   0.000000   0.000000  -0.000001
    32  H    0.000000   0.000000  -0.000015   0.000000  -0.000029  -0.000003
    33  O    0.000000   0.000000   0.000002   0.000000   0.001278  -0.000078
              13         14         15         16         17         18
     1  C   -0.000496   0.000699  -0.000059  -0.000020  -0.089854  -0.005670
     2  C    0.004743  -0.009838  -0.002958   0.001960   0.013181   0.004531
     3  C   -0.046522   0.046790   0.003238  -0.001446  -0.000577  -0.000382
     4  C   -0.007161  -0.015750   0.002129  -0.002065   0.002645  -0.000754
     5  C    0.000190  -0.000757   0.000060   0.000038  -0.049621   0.002651
     6  C    0.000078  -0.000098  -0.000016   0.000001   0.393149  -0.042677
     7  H    0.000012   0.000020   0.000000  -0.000001  -0.004074   0.004514
     8  H    0.000154  -0.001889   0.000127   0.000049  -0.000104  -0.000004
     9  H   -0.000028  -0.002653   0.000236   0.000753  -0.000125   0.000037
    10  H   -0.000040   0.000024  -0.000001  -0.000005   0.006237  -0.000932
    11  C    0.442264   0.107365  -0.004734  -0.056223   0.000002  -0.000006
    12  H   -0.004393  -0.059374  -0.005187   0.004276  -0.000001   0.000000
    13  H    0.430262  -0.069597   0.000693   0.004422   0.000000   0.000000
    14  C   -0.069597   5.562879   0.400624   0.194612   0.000000   0.000000
    15  H    0.000693   0.400624   0.477113  -0.046074   0.000000   0.000000
    16  C    0.004422   0.194612  -0.046074   4.560118   0.000000   0.000000
    17  O    0.000000   0.000000   0.000000   0.000000   7.661616   0.359062
    18  H    0.000000   0.000000   0.000000   0.000000   0.359062   0.491012
    19  O    0.020467  -0.100994   0.002455   0.716012   0.000000   0.000000
    20  N    0.003123   0.165749  -0.044567  -0.009871   0.000000   0.000000
    21  H    0.000186  -0.019494   0.004505  -0.002512  -0.000008  -0.000002
    22  N    0.001027  -0.078586   0.003921   0.442703   0.000000   0.000000
    23  H   -0.000232   0.003085  -0.000554  -0.022934   0.000000   0.000000
    24  C    0.000111  -0.051362  -0.012183  -0.004165   0.000000   0.000000
    25  C    0.000042   0.010327   0.001216  -0.001737   0.000001   0.000000
    26  H    0.000000  -0.000507   0.000198  -0.000013   0.000000   0.000000
    27  H   -0.000001  -0.000387  -0.000297   0.000251   0.000000   0.000000
    28  H    0.000003   0.000298  -0.000330   0.000247  -0.000009   0.000000
    29  C   -0.000136   0.012779  -0.000838  -0.060390   0.000000   0.000000
    30  H   -0.000113  -0.000037   0.000237  -0.004222   0.000000   0.000000
    31  H   -0.000003   0.000659  -0.000209   0.006973   0.000000   0.000000
    32  H    0.000164   0.000267  -0.000404  -0.007061   0.000000   0.000000
    33  O   -0.000013   0.017929   0.020889  -0.018009   0.000000   0.000000
              19         20         21         22         23         24
     1  C   -0.000005   0.000006  -0.000637  -0.000001   0.000001   0.000049
     2  C   -0.000403   0.013801  -0.000954  -0.000053   0.000021  -0.000614
     3  C   -0.011576  -0.041013   0.011401  -0.000371  -0.000071  -0.002682
     4  C    0.003979  -0.005407   0.003723   0.000155  -0.000024   0.000375
     5  C    0.000351   0.000309   0.002762   0.000001   0.000000  -0.000114
     6  C    0.000005  -0.000043  -0.000594   0.000000   0.000000   0.000042
     7  H    0.000000   0.000003   0.000005   0.000000   0.000000  -0.000002
     8  H    0.000005   0.000535   0.000006   0.000001   0.000000   0.000171
     9  H    0.011021   0.000531  -0.000518   0.000196  -0.000018   0.000052
    10  H   -0.000012   0.000017   0.000018   0.000000   0.000000  -0.000001
    11  C    0.007988  -0.025995  -0.006377   0.004599   0.000083   0.009969
    12  H    0.001139   0.004777  -0.000052   0.000250  -0.000091   0.000162
    13  H    0.020467   0.003123   0.000186   0.001027  -0.000232   0.000111
    14  C   -0.100994   0.165749  -0.019494  -0.078586   0.003085  -0.051362
    15  H    0.002455  -0.044567   0.004505   0.003921  -0.000554  -0.012183
    16  C    0.716012  -0.009871  -0.002512   0.442703  -0.022934  -0.004165
    17  O    0.000000   0.000000  -0.000008   0.000000   0.000000   0.000000
    18  H    0.000000   0.000000  -0.000002   0.000000   0.000000   0.000000
    19  O    7.847070   0.001757   0.000650  -0.124926   0.004023  -0.000734
    20  N    0.001757   6.602430   0.374793  -0.005800  -0.005032   0.352241
    21  H    0.000650   0.374793   0.458901  -0.000015  -0.000217  -0.018060
    22  N   -0.124926  -0.005800  -0.000015   6.395807   0.378837   0.010691
    23  H    0.004023  -0.005032  -0.000217   0.378837   0.468933  -0.004117
    24  C   -0.000734   0.352241  -0.018060   0.010691  -0.004117   4.547885
    25  C   -0.000012  -0.054999  -0.002798   0.000147   0.001198   0.288578
    26  H    0.000000  -0.001160   0.000376   0.000001  -0.000037  -0.025724
    27  H   -0.000002   0.000057  -0.000112   0.000111  -0.000020  -0.028036
    28  H   -0.000007   0.011171  -0.000745   0.000033  -0.000150  -0.056946
    29  C    0.008436  -0.000909   0.000001   0.290591  -0.028651   0.000058
    30  H    0.004081   0.000413   0.000006  -0.050681   0.003107  -0.000566
    31  H    0.001434  -0.000038  -0.000002  -0.026387  -0.007660   0.000009
    32  H    0.005710  -0.000106  -0.000004  -0.043221   0.002135   0.000157
    33  O    0.000049  -0.138517   0.003725  -0.013322   0.033156   0.680633
              25         26         27         28         29         30
     1  C    0.000108   0.000008  -0.000001   0.000312   0.000000   0.000000
     2  C    0.000502  -0.000075   0.000044  -0.000208   0.000004   0.000000
     3  C    0.000227   0.000080  -0.000010  -0.000050   0.000075  -0.000012
     4  C   -0.000194   0.000013  -0.000028  -0.000242  -0.000031   0.000006
     5  C   -0.000086  -0.000004  -0.000004   0.000399  -0.000001   0.000000
     6  C   -0.000071  -0.000008   0.000002   0.000094   0.000000   0.000000
     7  H    0.000006   0.000000   0.000000   0.000007   0.000000   0.000000
     8  H    0.000029  -0.000012   0.000002  -0.000014   0.000000   0.000000
     9  H    0.000001   0.000001  -0.000003  -0.000011  -0.000025   0.000026
    10  H    0.000002   0.000000   0.000000   0.000010   0.000000   0.000000
    11  C   -0.000169   0.000100  -0.000031  -0.000234  -0.000912  -0.000027
    12  H    0.000020  -0.000004   0.000000   0.000005   0.000007   0.000001
    13  H    0.000042   0.000000  -0.000001   0.000003  -0.000136  -0.000113
    14  C    0.010327  -0.000507  -0.000387   0.000298   0.012779  -0.000037
    15  H    0.001216   0.000198  -0.000297  -0.000330  -0.000838   0.000237
    16  C   -0.001737  -0.000013   0.000251   0.000247  -0.060390  -0.004222
    17  O    0.000001   0.000000   0.000000  -0.000009   0.000000   0.000000
    18  H    0.000000   0.000000   0.000000   0.000000   0.000000   0.000000
    19  O   -0.000012   0.000000  -0.000002  -0.000007   0.008436   0.004081
    20  N   -0.054999  -0.001160   0.000057   0.011171  -0.000909   0.000413
    21  H   -0.002798   0.000376  -0.000112  -0.000745   0.000001   0.000006
    22  N    0.000147   0.000001   0.000111   0.000033   0.290591  -0.050681
    23  H    0.001198  -0.000037  -0.000020  -0.000150  -0.028651   0.003107
    24  C    0.288578  -0.025724  -0.028036  -0.056946   0.000058  -0.000566
    25  C    4.951327   0.387461   0.387898   0.402865  -0.000063  -0.000009
    26  H    0.387461   0.573601  -0.026870  -0.025744  -0.000002   0.000000
    27  H    0.387898  -0.026870   0.574255  -0.024551   0.000020  -0.000017
    28  H    0.402865  -0.025744  -0.024551   0.588082   0.000002  -0.000003
    29  C   -0.000063  -0.000002   0.000020   0.000002   4.761021   0.399040
    30  H   -0.000009   0.000000  -0.000017  -0.000003   0.399040   0.631106
    31  H   -0.000007   0.000000   0.000005   0.000000   0.396277  -0.029191
    32  H    0.000001   0.000000   0.000001   0.000000   0.399402  -0.057954
    33  O   -0.061865   0.001921   0.001735   0.003903   0.000225   0.000020
              31         32         33
     1  C    0.000000   0.000000   0.000002
     2  C    0.000000   0.000000  -0.000137
     3  C    0.000001   0.000012  -0.000051
     4  C   -0.000001  -0.000005   0.000011
     5  C    0.000000   0.000000   0.000000
     6  C    0.000000   0.000000   0.000000
     7  H    0.000000   0.000000   0.000000
     8  H    0.000000   0.000000   0.000000
     9  H   -0.000001  -0.000015   0.000002
    10  H    0.000000   0.000000   0.000000
    11  C    0.000000  -0.000029   0.001278
    12  H   -0.000001  -0.000003  -0.000078
    13  H   -0.000003   0.000164  -0.000013
    14  C    0.000659   0.000267   0.017929
    15  H   -0.000209  -0.000404   0.020889
    16  C    0.006973  -0.007061  -0.018009
    17  O    0.000000   0.000000   0.000000
    18  H    0.000000   0.000000   0.000000
    19  O    0.001434   0.005710   0.000049
    20  N   -0.000038  -0.000106  -0.138517
    21  H   -0.000002  -0.000004   0.003725
    22  N   -0.026387  -0.043221  -0.013322
    23  H   -0.007660   0.002135   0.033156
    24  C    0.000009   0.000157   0.680633
    25  C   -0.000007   0.000001  -0.061865
    26  H    0.000000   0.000000   0.001921
    27  H    0.000005   0.000001   0.001735
    28  H    0.000000   0.000000   0.003903
    29  C    0.396277   0.399402   0.000225
    30  H   -0.029191  -0.057954   0.000020
    31  H    0.592720  -0.025752   0.000081
    32  H   -0.025752   0.612319  -0.000043
    33  O    0.000081  -0.000043   7.897402
 Mulliken charges:
               1
     1  C   -0.233408
     2  C   -0.240441
     3  C    0.130252
     4  C   -0.261350
     5  C   -0.170423
     6  C    0.287563
     7  H    0.119541
     8  H    0.157263
     9  H    0.192445
    10  H    0.131153
    11  C   -0.430284
    12  H    0.180343
    13  H    0.220791
    14  C   -0.112781
    15  H    0.200769
    16  C    0.304332
    17  O   -0.291518
    18  H    0.188620
    19  O   -0.397960
    20  N   -0.198256
    21  H    0.192044
    22  N   -0.185709
    23  H    0.175231
    24  C    0.314126
    25  C   -0.309944
    26  H    0.116397
    27  H    0.115990
    28  H    0.101814
    29  C   -0.175982
    30  H    0.104788
    31  H    0.091092
    32  H    0.114430
    33  O   -0.430927
 Sum of Mulliken charges =   0.00000
 Mulliken charges with hydrogens summed into heavy atoms:
               1
     1  C   -0.113867
     2  C   -0.083179
     3  C    0.130252
     4  C   -0.068905
     5  C   -0.039270
     6  C    0.287563
    11  C   -0.029151
    14  C    0.087987
    16  C    0.304332
    17  O   -0.102898
    19  O   -0.397960
    20  N   -0.006211
    22  N   -0.010478
    24  C    0.314126
    25  C    0.024257
    29  C    0.134328
    33  O   -0.430927
 Electronic spatial extent (au):  <R**2>=           4928.9448
 Charge=              0.0000 electrons
 Dipole moment (field-independent basis, Debye):
    X=             -2.0666    Y=              2.5033    Z=              0.6153  Tot=              3.3039
 Quadrupole moment (field-independent basis, Debye-Ang):
   XX=            -90.0360   YY=           -106.9027   ZZ=            -97.9659
   XY=             -8.3141   XZ=             -6.3633   YZ=             -4.5527
 Traceless Quadrupole moment (field-independent basis, Debye-Ang):
   XX=              8.2655   YY=             -8.6012   ZZ=              0.3357
   XY=             -8.3141   XZ=             -6.3633   YZ=             -4.5527
 Octapole moment (field-independent basis, Debye-Ang**2):
  XXX=              3.7793  YYY=             25.8433  ZZZ=             -1.1538  XYY=            -28.2972
  XXY=             22.6344  XXZ=             14.6954  XZZ=              6.0031  YZZ=              1.5240
  YYZ=             -9.4448  XYZ=            -20.5822
 Hexadecapole moment (field-independent basis, Debye-Ang**3):
 XXXX=          -3907.2755 YYYY=          -1332.4068 ZZZZ=           -519.5496 XXXY=           -285.6881
 XXXZ=           -175.4072 YYYX=            -23.9329 YYYZ=            -32.3145 ZZZX=              9.8956
 ZZZY=             14.0458 XXYY=          -1019.9542 XXZZ=           -872.8151 YYZZ=           -307.4410
 XXYZ=              8.4298 YYXZ=             -1.3989 ZZXY=              0.9155
 N-N= 1.216035703164D+03 E-N=-4.302378516245D+03  KE= 7.961931500220D+02
 Calculating spin-rotation constants.
 Leave Link  601 at Tue Jun 24 17:56:38 2014, MaxMem=  4294967296 cpu:        95.3
 (Enter /home/ztw1e12/g09/l9999.exe)

 Test job not archived.
 1\1\GINC-GREEN0299\SP\RM06\Gen\C12H16N2O3\ZTW1E12\24-Jun-2014\0\\#P Ge
 om=AllCheck Guess=TCheck SCRF=Check GenChk RM06/ChkBas NMR=ReadFC IOp(
 3/6=22)\\NMR spin-spin scan\\0,1\C,0,3.428692,-0.057415,-0.728239\C,0,
 2.205246,-0.550374,-1.146722\C,0,1.287529,-1.066818,-0.241141\C,0,1.63
 151,-1.071393,1.107357\C,0,2.848594,-0.580935,1.543047\C,0,3.750644,-0
 .070159,0.620996\H,0,4.140416,0.340115,-1.442592\H,0,1.957693,-0.53363
 6,-2.202316\H,0,0.923791,-1.464415,1.830045\H,0,3.11262,-0.589226,2.59
 2926\C,0,-0.056663,-1.556448,-0.685414\H,0,0.020585,-1.921004,-1.71007
 8\H,0,-0.353785,-2.402331,-0.065869\C,0,-1.196167,-0.518387,-0.643358\
 H,0,-1.616512,-0.39567,-1.641981\C,0,-2.329141,-0.953512,0.290091\O,0,
 4.938015,0.403388,1.09189\H,0,5.467098,0.736947,0.358357\O,0,-2.158798
 ,-1.728188,1.228009\N,0,-0.756769,0.801578,-0.217071\H,0,0.070526,0.86
 7065,0.358366\N,0,-3.511026,-0.392627,0.020195\H,0,-3.537766,0.323727,
 -0.693742\C,0,-1.309779,1.93641,-0.680322\C,0,-0.664183,3.210583,-0.24
 615\H,0,-0.339257,3.752855,-1.134101\H,0,-1.405485,3.829291,0.258824\H
 ,0,0.188368,3.059181,0.412517\C,0,-4.662748,-0.609534,0.864964\H,0,-4.
 494645,-0.240602,1.878072\H,0,-5.513837,-0.086057,0.440102\H,0,-4.9017
 6,-1.670985,0.92564\O,0,-2.292163,1.936107,-1.423431\\Version=EM64L-G0
 9RevD.01\State=1-A\HF=-801.8666038\RMSD=4.013e-09\Dipole=0.8572285,0.8
 211518,-0.5295871\Quadrupole=6.9404345,-3.5049598,-3.4354747,3.6855287
 ,-6.0107853,5.056253\PG=C01 [X(C12H16N2O3)]\\@


 SIC AS THE CAWSE OF EWERY THING IS, SIC WILBE THE EFFECT.
 -- PROVERBS AND REASONS OF THE YEAR 1585
           AS REPRINTED IN PAISLEY MAGAZINE 1828.
 Job cpu time:       3 days  8 hours  2 minutes  6.5 seconds.
 File lengths (MBytes):  RWF=   3656 Int=      0 D2E=      0 Chk=     64 Scr=      8
 Normal termination of Gaussian 09 at Tue Jun 24 17:56:39 2014.
