 Entering Gaussian System, Link 0=g09
 Input=scan_input_1.gjf
 Output=scan_input_1.log
 Initial command:
 /home/ztw1e12/g09/l1.exe "/home/ztw1e12/tyrosine_scan/tyrosine_chi1_scan/Gau-20985.inp" -scrdir="/home/ztw1e12/tyrosine_scan/tyrosine_chi1_scan/"
 Default is to use a total of   8 processors:
                                8 via shared-memory
                                1 via Linda
 Entering Link 1 = /home/ztw1e12/g09/l1.exe PID=     20986.
  
 Copyright (c) 1988,1990,1992,1993,1995,1998,2003,2009,2013,
            Gaussian, Inc.  All Rights Reserved.
  
 This is part of the Gaussian(R) 09 program.  It is based on
 the Gaussian(R) 03 system (copyright 2003, Gaussian, Inc.),
 the Gaussian(R) 98 system (copyright 1998, Gaussian, Inc.),
 the Gaussian(R) 94 system (copyright 1995, Gaussian, Inc.),
 the Gaussian 92(TM) system (copyright 1992, Gaussian, Inc.),
 the Gaussian 90(TM) system (copyright 1990, Gaussian, Inc.),
 the Gaussian 88(TM) system (copyright 1988, Gaussian, Inc.),
 the Gaussian 86(TM) system (copyright 1986, Carnegie Mellon
 University), and the Gaussian 82(TM) system (copyright 1983,
 Carnegie Mellon University). Gaussian is a federally registered
 trademark of Gaussian, Inc.
  
 This software contains proprietary and confidential information,
 including trade secrets, belonging to Gaussian, Inc.
  
 This software is provided under written license and may be
 used, copied, transmitted, or stored only in accord with that
 written license.
  
 The following legend is applicable only to US Government
 contracts under FAR:
  
                    RESTRICTED RIGHTS LEGEND
  
 Use, reproduction and disclosure by the US Government is
 subject to restrictions as set forth in subparagraphs (a)
 and (c) of the Commercial Computer Software - Restricted
 Rights clause in FAR 52.227-19.
  
 Gaussian, Inc.
 340 Quinnipiac St., Bldg. 40, Wallingford CT 06492
  
  
 ---------------------------------------------------------------
 Warning -- This program may not be used in any manner that
 competes with the business of Gaussian, Inc. or will provide
 assistance to any competitor of Gaussian, Inc.  The licensee
 of this program is prohibited from giving any competitor of
 Gaussian, Inc. access to this program.  By using this program,
 the user acknowledges that Gaussian, Inc. is engaged in the
 business of creating and licensing software in the field of
 computational chemistry and represents and warrants to the
 licensee that it is not a competitor of Gaussian, Inc. and that
 it will not use this program in any manner prohibited above.
 ---------------------------------------------------------------
  

 Cite this work as:
 Gaussian 09, Revision D.01,
 M. J. Frisch, G. W. Trucks, H. B. Schlegel, G. E. Scuseria, 
 M. A. Robb, J. R. Cheeseman, G. Scalmani, V. Barone, B. Mennucci, 
 G. A. Petersson, H. Nakatsuji, M. Caricato, X. Li, H. P. Hratchian, 
 A. F. Izmaylov, J. Bloino, G. Zheng, J. L. Sonnenberg, M. Hada, 
 M. Ehara, K. Toyota, R. Fukuda, J. Hasegawa, M. Ishida, T. Nakajima, 
 Y. Honda, O. Kitao, H. Nakai, T. Vreven, J. A. Montgomery, Jr., 
 J. E. Peralta, F. Ogliaro, M. Bearpark, J. J. Heyd, E. Brothers, 
 K. N. Kudin, V. N. Staroverov, T. Keith, R. Kobayashi, J. Normand, 
 K. Raghavachari, A. Rendell, J. C. Burant, S. S. Iyengar, J. Tomasi, 
 M. Cossi, N. Rega, J. M. Millam, M. Klene, J. E. Knox, J. B. Cross, 
 V. Bakken, C. Adamo, J. Jaramillo, R. Gomperts, R. E. Stratmann, 
 O. Yazyev, A. J. Austin, R. Cammi, C. Pomelli, J. W. Ochterski, 
 R. L. Martin, K. Morokuma, V. G. Zakrzewski, G. A. Voth, 
 P. Salvador, J. J. Dannenberg, S. Dapprich, A. D. Daniels, 
 O. Farkas, J. B. Foresman, J. V. Ortiz, J. Cioslowski, 
 and D. J. Fox, Gaussian, Inc., Wallingford CT, 2013.
 
 ******************************************
 Gaussian 09:  EM64L-G09RevD.01 24-Apr-2013
                24-Jun-2014 
 ******************************************
 %Mem=32GB
 %NProcShared=16
 Will use up to   16 processors via shared memory.
 Default route:  MaxDisk=100GB
 ----------------------------------------------------------------------
 #p nmr=(giao,mixed,spinspin) m06/cc-pvtz scf=tight integral=(grid=ultr
 afine)
 ----------------------------------------------------------------------
 1/38=1/1;
 2/12=2,17=6,18=5,40=1/2;
 3/5=16,6=1,10=1100000,11=2,16=1,25=1,30=1,74=-54,75=-5/1,2,8,3;
 4//1;
 5/5=2,32=2,38=5/2;
 8/6=1,10=90,11=11/1;
 10/13=100,45=16,47=3/2;
 6/7=2,8=2,9=2,10=2,28=1/1;
 99/9=1/99;
 Leave Link    1 at Tue Jun 24 17:04:57 2014, MaxMem=  4294967296 cpu:         5.6
 (Enter /home/ztw1e12/g09/l101.exe)
 ------------------
 NMR spin-spin scan
 ------------------
 Symbolic Z-matrix:
 Charge =  0 Multiplicity = 1
 C                     3.1805   -0.49277  -1.28743 
 C                     1.9016   -0.97392  -1.0759 
 C                     1.34691  -1.0165    0.19846 
 C                     2.11757  -0.56261   1.26128 
 C                     3.39916  -0.07766   1.06797 
 C                     3.93025  -0.0387   -0.21141 
 H                     3.60731  -0.46409  -2.28364 
 H                     1.32003  -1.32749  -1.92086 
 H                     1.70485  -0.59035   2.26396 
 H                     3.99563   0.27472   1.89989 
 C                    -0.05581  -1.50191   0.40402 
 H                    -0.22013  -2.44332  -0.12416 
 H                    -0.23149  -1.6981    1.46537 
 C                    -1.09344  -0.51026  -0.09174 
 H                    -0.93802  -0.33043  -1.16042 
 C                    -2.51661  -1.04074   0.07438 
 O                     5.19336   0.45138  -0.36226 
 H                     5.43456   0.43063  -1.29521 
 O                    -2.77231  -2.068     0.69778 
 N                    -0.93019   0.77156   0.57818 
 H                    -0.48233   0.77292   1.48342 
 N                    -3.45565  -0.29736  -0.51678 
 H                    -3.16137   0.55411  -0.98004 
 C                    -1.19889   1.95139  -0.00497 
 C                    -0.80386   3.17348   0.75456 
 H                    -0.02134   3.68742   0.19539 
 H                    -1.65804   3.84659   0.8141 
 H                    -0.43822   2.9582    1.75622 
 C                    -4.85867  -0.62192  -0.41008 
 H                    -5.18461  -0.6372    0.63084 
 H                    -5.43491   0.12838  -0.94296 
 H                    -5.0708   -1.59854  -0.84619 
 O                    -1.73419   2.02861  -1.11289 
 
 NAtoms=     33 NQM=       33 NQMF=       0 NMMI=      0 NMMIF=      0
                NMic=       0 NMicF=      0.
                    Isotopes and Nuclear Properties:
 (Nuclear quadrupole moments (NQMom) in fm**2, nuclear magnetic moments (NMagM)
  in nuclear magnetons)

  Atom         1           2           3           4           5           6           7           8           9          10
 IAtWgt=          12          12          12          12          12          12           1           1           1           1
 AtmWgt=  12.0000000  12.0000000  12.0000000  12.0000000  12.0000000  12.0000000   1.0078250   1.0078250   1.0078250   1.0078250
 NucSpn=           0           0           0           0           0           0           1           1           1           1
 AtZEff=   0.0000000   0.0000000   0.0000000   0.0000000   0.0000000   0.0000000   0.0000000   0.0000000   0.0000000   0.0000000
 NQMom=    0.0000000   0.0000000   0.0000000   0.0000000   0.0000000   0.0000000   0.0000000   0.0000000   0.0000000   0.0000000
 NMagM=    0.0000000   0.0000000   0.0000000   0.0000000   0.0000000   0.0000000   2.7928460   2.7928460   2.7928460   2.7928460
 AtZNuc=   6.0000000   6.0000000   6.0000000   6.0000000   6.0000000   6.0000000   1.0000000   1.0000000   1.0000000   1.0000000

  Atom        11          12          13          14          15          16          17          18          19          20
 IAtWgt=          12           1           1          12           1          12          16           1          16          14
 AtmWgt=  12.0000000   1.0078250   1.0078250  12.0000000   1.0078250  12.0000000  15.9949146   1.0078250  15.9949146  14.0030740
 NucSpn=           0           1           1           0           1           0           0           1           0           2
 AtZEff=   0.0000000   0.0000000   0.0000000   0.0000000   0.0000000   0.0000000   0.0000000   0.0000000   0.0000000   0.0000000
 NQMom=    0.0000000   0.0000000   0.0000000   0.0000000   0.0000000   0.0000000   0.0000000   0.0000000   0.0000000   2.0440000
 NMagM=    0.0000000   2.7928460   2.7928460   0.0000000   2.7928460   0.0000000   0.0000000   2.7928460   0.0000000   0.4037610
 AtZNuc=   6.0000000   1.0000000   1.0000000   6.0000000   1.0000000   6.0000000   8.0000000   1.0000000   8.0000000   7.0000000

  Atom        21          22          23          24          25          26          27          28          29          30
 IAtWgt=           1          14           1          12          12           1           1           1          12           1
 AtmWgt=   1.0078250  14.0030740   1.0078250  12.0000000  12.0000000   1.0078250   1.0078250   1.0078250  12.0000000   1.0078250
 NucSpn=           1           2           1           0           0           1           1           1           0           1
 AtZEff=   0.0000000   0.0000000   0.0000000   0.0000000   0.0000000   0.0000000   0.0000000   0.0000000   0.0000000   0.0000000
 NQMom=    0.0000000   2.0440000   0.0000000   0.0000000   0.0000000   0.0000000   0.0000000   0.0000000   0.0000000   0.0000000
 NMagM=    2.7928460   0.4037610   2.7928460   0.0000000   0.0000000   2.7928460   2.7928460   2.7928460   0.0000000   2.7928460
 AtZNuc=   1.0000000   7.0000000   1.0000000   6.0000000   6.0000000   1.0000000   1.0000000   1.0000000   6.0000000   1.0000000

  Atom        31          32          33
 IAtWgt=           1           1          16
 AtmWgt=   1.0078250   1.0078250  15.9949146
 NucSpn=           1           1           0
 AtZEff=   0.0000000   0.0000000   0.0000000
 NQMom=    0.0000000   0.0000000   0.0000000
 NMagM=    2.7928460   2.7928460   0.0000000
 AtZNuc=   1.0000000   1.0000000   8.0000000
 Leave Link  101 at Tue Jun 24 17:04:57 2014, MaxMem=  4294967296 cpu:         1.7
 (Enter /home/ztw1e12/g09/l202.exe)
                          Input orientation:                          
 ---------------------------------------------------------------------
 Center     Atomic      Atomic             Coordinates (Angstroms)
 Number     Number       Type             X           Y           Z
 ---------------------------------------------------------------------
      1          6           0        3.180496   -0.492769   -1.287426
      2          6           0        1.901604   -0.973921   -1.075898
      3          6           0        1.346905   -1.016498    0.198461
      4          6           0        2.117570   -0.562608    1.261277
      5          6           0        3.399158   -0.077657    1.067970
      6          6           0        3.930247   -0.038695   -0.211414
      7          1           0        3.607309   -0.464092   -2.283642
      8          1           0        1.320034   -1.327485   -1.920856
      9          1           0        1.704852   -0.590346    2.263959
     10          1           0        3.995630    0.274723    1.899892
     11          6           0       -0.055814   -1.501908    0.404024
     12          1           0       -0.220132   -2.443317   -0.124159
     13          1           0       -0.231492   -1.698103    1.465369
     14          6           0       -1.093437   -0.510264   -0.091744
     15          1           0       -0.938018   -0.330427   -1.160424
     16          6           0       -2.516608   -1.040736    0.074382
     17          8           0        5.193362    0.451378   -0.362263
     18          1           0        5.434559    0.430625   -1.295212
     19          8           0       -2.772308   -2.068000    0.697779
     20          7           0       -0.930193    0.771564    0.578178
     21          1           0       -0.482330    0.772922    1.483424
     22          7           0       -3.455651   -0.297361   -0.516783
     23          1           0       -3.161371    0.554107   -0.980043
     24          6           0       -1.198891    1.951386   -0.004970
     25          6           0       -0.803861    3.173482    0.754558
     26          1           0       -0.021342    3.687420    0.195393
     27          1           0       -1.658042    3.846588    0.814096
     28          1           0       -0.438216    2.958200    1.756222
     29          6           0       -4.858672   -0.621921   -0.410081
     30          1           0       -5.184605   -0.637197    0.630836
     31          1           0       -5.434912    0.128377   -0.942956
     32          1           0       -5.070797   -1.598539   -0.846194
     33          8           0       -1.734191    2.028607   -1.112886
 ---------------------------------------------------------------------
                    Distance matrix (angstroms):
                    1          2          3          4          5
     1  C    0.000000
     2  C    1.382684   0.000000
     3  C    2.417480   1.390502   0.000000
     4  C    2.762350   2.382899   1.389071   0.000000
     5  C    2.401671   2.764440   2.418514   1.383840   0.000000
     6  C    1.387844   2.395281   2.792446   2.393554   1.385784
     7  H    1.084176   2.151279   3.402266   3.846489   3.380231
     8  H    2.135252   1.084982   2.142181   3.368541   3.849404
     9  H    3.846996   3.367564   2.139162   1.084655   2.136332
    10  H    3.378237   3.846997   3.402626   2.153152   1.082610
    11  C    3.788544   2.510065   1.498499   2.518088   3.795543
    12  H    4.089266   2.750763   2.143712   3.304747   4.485173
    13  H    4.546688   3.395965   2.135645   2.617078   3.995671
    14  C    4.438070   3.186504   2.509135   3.484820   4.659989
    15  H    4.123669   2.912848   2.745566   3.905786   4.882697
    16  C    5.883178   4.565984   3.865581   4.807591   6.075444
    17  O    2.408105   3.657379   4.155033   3.622782   2.354700
    18  H    2.435881   3.808230   4.586299   4.304017   3.160037
    19  O    6.469797   5.117460   4.280525   5.147295   6.495037
    20  N    4.687940   3.715072   2.920022   3.396395   4.438959
    21  H    4.764019   3.909569   2.863434   2.931291   3.995252
    22  N    6.683601   5.428676   4.908490   5.855992   7.039042
    23  H    6.435038   5.289402   4.917339   5.842755   6.901741
    24  C    5.176642   4.395154   3.915456   4.349996   5.139092
    25  C    5.786726   5.279305   4.742465   4.769685   5.322922
    26  H    5.470329   5.200193   4.898873   4.875837   5.161106
    27  H    6.830656   6.283348   5.749636   5.822047   6.406202
    28  H    5.853892   5.381193   4.627256   4.378710   4.941210
    29  C    8.087932   6.802099   6.247816   7.173905   8.406701
    30  H    8.583444   7.296621   6.556786   7.329719   8.613081
    31  H    8.644636   7.420054   6.971844   7.897853   9.062398
    32  H    8.336741   7.004091   6.528168   7.562222   8.815738
    33  O    5.526477   4.715458   4.526085   5.214126   5.961858
                    6          7          8          9         10
     6  C    0.000000
     7  H    2.139949   0.000000
     8  H    3.375853   2.471576   0.000000
     9  H    3.374044   4.931121   4.266630   0.000000
    10  H    2.135443   4.265981   4.931937   2.475591   0.000000
    11  C    4.290506   4.660373   2.707111   2.718501   4.669929
    12  H    4.797444   4.819751   2.616355   3.583598   5.408990
    13  H    4.783859   5.505839   3.743142   2.369451   4.685020
    14  C    5.047187   5.186864   3.136613   3.658712   5.520998
    15  H    4.968474   4.683960   2.582863   4.333442   5.837176
    16  C    6.530521   6.587500   4.333938   4.776801   6.890005
    17  O    1.363226   2.654307   4.538308   4.489090   2.565758
    18  H    1.912546   2.261936   4.517931   5.255549   3.507636
    19  O    7.061795   7.222251   4.914557   4.968032   7.262122
    20  N    4.990376   5.505069   3.964177   3.411762   5.124208
    21  H    4.796044   5.696151   4.387408   2.692861   4.524795
    22  N    7.396732   7.282513   5.083281   5.869340   7.854246
    23  H    7.157741   6.967864   4.950607   5.959316   7.719763
    24  C    5.505552   5.841784   4.557038   4.476624   5.781241
    25  C    5.801979   6.474645   5.650440   4.768473   5.722736
    26  H    5.446511   6.045476   5.605985   5.055491   5.539664
    27  H    6.883028   7.476755   6.566577   5.753046   6.775041
    28  H    5.651233   6.663247   5.914342   4.176448   5.184658
    29  C    8.810489   8.672253   6.399740   7.087407   9.194488
    30  H    9.173228   9.264011   7.021250   7.080530   9.312294
    31  H    9.395173   9.160252   6.978905   7.859841   9.850803
    32  H    9.157229   8.869202   6.486223   7.523226   9.656614
    33  O    6.096905   6.009646   4.609171   5.485345   6.706996
                   11         12         13         14         15
    11  C    0.000000
    12  H    1.091892   0.000000
    13  H    1.093530   1.755583   0.000000
    14  C    1.518488   2.121416   2.139746   0.000000
    15  H    2.144330   2.460388   3.043765   1.094794   0.000000
    16  C    2.525243   2.698232   2.754765   1.527879   2.126319
    17  O    5.652997   6.143441   6.114699   6.365672   6.232343
    18  H    6.063521   6.450305   6.652550   6.704352   6.419276
    19  O    2.790357   2.707406   2.679881   2.422498   3.136351
    20  N    2.442037   3.366441   2.715612   1.455516   2.058442
    21  H    2.553796   3.605172   2.483789   2.121597   2.900856
    22  N    3.722595   3.902290   4.035617   2.409573   2.598816
    23  H    3.973326   4.285788   4.431329   2.489641   2.399633
    24  C    3.660484   4.503953   4.051731   2.465435   2.570953
    25  C    4.747812   5.715008   4.956329   3.790787   3.995314
    26  H    5.193635   6.142277   5.537225   4.341933   4.338390
    27  H    5.598366   6.520032   5.762187   4.485698   4.675962
    28  H    4.676241   5.723616   4.669956   3.984286   4.423991
    29  C    4.950211   4.991522   5.107472   3.780317   4.002438
    30  H    5.206118   5.336486   5.133741   4.156427   4.619115
    31  H    5.779868   5.871794   6.017611   4.469992   4.525467
    32  H    5.169375   4.976338   5.363964   4.192008   4.334364
    33  O    4.193149   4.823698   4.774293   2.810545   2.490219
                   16         17         18         19         20
    16  C    0.000000
    17  O    7.865157   0.000000
    18  H    8.201326   0.963847   0.000000
    19  O    1.228527   8.421571   8.807259   0.000000
    20  N    2.460682   6.203618   6.643485   3.386859   0.000000
    21  H    3.068068   5.976908   6.545805   3.732570   1.009977
    22  N    1.335621   8.682736   8.953868   2.253282   2.952876
    23  H    2.017686   8.378172   8.602592   3.137181   2.730109
    24  C    3.270393   6.575605   6.926767   4.373209   1.343220
    25  C    4.599541   6.680107   7.116369   5.599209   2.411696
    26  H    5.347565   6.162474   6.526521   6.398833   3.078108
    27  H    5.016996   7.736473   8.150029   6.019757   3.168784
    28  H    4.810383   6.518190   7.084446   5.641894   2.532036
    29  C    2.428039  10.109285  10.384696   2.769732   4.283854
    30  H    2.755121  10.482053  10.845116   2.805504   4.481897
    31  H    3.304285  10.649025  10.879377   3.821720   4.797919
    32  H    2.771730  10.478039  10.708951   2.808433   4.979039
    33  O    3.382698   7.144374   7.346956   4.597650   2.255275
                   21         22         23         24         25
    21  H    0.000000
    22  N    3.739916   0.000000
    23  H    3.646068   1.013019   0.000000
    24  C    2.029176   3.226729   2.598939   0.000000
    25  C    2.529292   4.549181   3.927826   1.492129   0.000000
    26  H    3.219601   5.308498   4.589018   2.107269   1.090474
    27  H    3.358232   4.709029   4.039723   2.115060   1.089147
    28  H    2.202681   4.986997   4.547789   2.166587   1.087830
    29  C    4.968231   1.444020   2.142132   4.492218   5.674765
    30  H    4.982643   2.102808   2.847387   4.794886   5.807538
    31  H    5.552551   2.068901   2.313355   4.706066   5.796624
    32  H    5.666125   2.100065   2.880574   5.319895   6.598586
    33  O    3.143998   2.954470   2.056366   1.232878   2.379832
                   26         27         28         29         30
    26  H    0.000000
    27  H    1.756962   0.000000
    28  H    1.772493   1.778991   0.000000
    29  C    6.506672   5.631182   6.086918   0.000000
    30  H    6.749163   5.707413   6.059833   1.090859   0.000000
    31  H    6.577945   5.583643   6.345111   1.085797   1.767931
    32  H    7.383987   6.637233   6.999803   1.090401   1.765998
    33  O    2.719762   2.650304   3.282602   4.157116   4.696002
                   31         32         33
    31  H    0.000000
    32  H    1.767535   0.000000
    33  O    4.163543   4.935611   0.000000
 Stoichiometry    C12H16N2O3
 Framework group  C1[X(C12H16N2O3)]
 Deg. of freedom    93
 Full point group                 C1      NOp   1
 Largest Abelian subgroup         C1      NOp   1
 Largest concise Abelian subgroup C1      NOp   1
                         Standard orientation:                         
 ---------------------------------------------------------------------
 Center     Atomic      Atomic             Coordinates (Angstroms)
 Number     Number       Type             X           Y           Z
 ---------------------------------------------------------------------
      1          6           0        3.173648   -0.534559   -1.279229
      2          6           0        1.888840   -0.999308   -1.066879
      3          6           0        1.333318   -1.031827    0.207417
      4          6           0        2.109262   -0.584857    1.269325
      5          6           0        3.396808   -0.116296    1.075187
      6          6           0        3.928679   -0.087113   -0.204133
      7          1           0        3.601048   -0.513660   -2.275387
      8          1           0        1.303161   -1.347757   -1.911124
      9          1           0        1.695966   -0.604975    2.271951
     10          1           0        3.997377    0.230751    1.906403
     11          6           0       -0.075358   -1.499316    0.413776
     12          1           0       -0.251180   -2.439936   -0.112102
     13          1           0       -0.253734   -1.690666    1.475556
     14          6           0       -1.100491   -0.496143   -0.084774
     15          1           0       -0.942573   -0.320918   -1.153854
     16          6           0       -2.530165   -1.008536    0.082254
     17          8           0        5.197805    0.386904   -0.355831
     18          1           0        5.438974    0.360833   -1.288654
     19          8           0       -2.798731   -2.030993    0.708139
     20          7           0       -0.921565    0.785237    0.581992
     21          1           0       -0.473960    0.783313    1.487365
     22          7           0       -3.459775   -0.255072   -0.511044
     23          1           0       -3.154851    0.591525   -0.976342
     24          6           0       -1.175479    1.966833   -0.004180
     25          6           0       -0.765548    3.185840    0.752410
     26          1           0        0.023423    3.688650    0.192195
     27          1           0       -1.611345    3.869617    0.810014
     28          1           0       -0.402863    2.968553    1.754717
     29          6           0       -4.866735   -0.561968   -0.403948
     30          1           0       -5.193109   -0.570604    0.636908
     31          1           0       -5.433499    0.194072   -0.938866
     32          1           0       -5.090821   -1.536972   -0.837683
     33          8           0       -1.709488    2.047905   -1.112444
 ---------------------------------------------------------------------
 Rotational constants (GHZ):      0.8516979      0.2460646      0.2150010
 Leave Link  202 at Tue Jun 24 17:04:58 2014, MaxMem=  4294967296 cpu:         2.3
 (Enter /home/ztw1e12/g09/l301.exe)
 Standard basis: CC-pVTZ (5D, 7F)
 Converting basis for Fermi contact spin-spin IFCMod=1.
 AO basis functions are being uncontracted.
 Ernie: Thresh=  0.10000D-02 Tol=  0.10000D-05 Strict=F.
 There are  1305 symmetry adapted cartesian basis functions of A   symmetry.
 There are  1204 symmetry adapted basis functions of A   symmetry.
  1204 basis functions,  1305 primitive gaussians,  1305 cartesian basis functions
    63 alpha electrons       63 beta electrons
       nuclear repulsion energy      1207.6375654859 Hartrees.
 IExCor= 4235 DFT=T Ex+Corr=M06 ExCW=0 ScaHFX=  0.270000
 ScaDFX=  1.000000  1.000000  1.000000  1.000000 ScalE2=  1.000000  1.000000
 IRadAn= 199590 IRanWt=     -1 IRanGd=            0 ICorTp=0 IEmpDi=  4
 NAtoms=   33 NActive=   33 NUniq=   33 SFac= 1.00D+00 NAtFMM=   60 NAOKFM=F Big=F
 Integral buffers will be    131072 words long.
 Raffenetti 2 integral format.
 Two-electron integral symmetry is turned on.
 Leave Link  301 at Tue Jun 24 17:04:58 2014, MaxMem=  4294967296 cpu:         5.0
 (Enter /home/ztw1e12/g09/l302.exe)
 NPDir=0 NMtPBC=     1 NCelOv=     1 NCel=       1 NClECP=     1 NCelD=      1
         NCelK=      1 NCelE2=     1 NClLst=     1 CellRange=     0.0.
 One-electron integrals computed using PRISM.
 GSVD:  received Info=                   1 from GESDD.
 NBasis=  1204 RedAO= T EigKep=  2.57D-05  NBF=  1204
 NBsUse=  1068 1.00D-06 EigRej=  7.51D-15 NBFU=  1068
 Precomputing XC quadrature grid using
 IXCGrd= 4 IRadAn=      199590 IRanWt=          -1 IRanGd=           0 AccXCQ= 0.00D+00.
 Generated NRdTot=       0 NPtTot=           0 NUsed=           0 NTot=          32
 NSgBfM=   992   992   992   992   992 MxSgAt=    33 MxSgA2=    33.
 Leave Link  302 at Tue Jun 24 17:05:04 2014, MaxMem=  4294967296 cpu:        93.8
 (Enter /home/ztw1e12/g09/l308.exe)
 Leave Link  308 at Tue Jun 24 17:05:05 2014, MaxMem=  4294967296 cpu:         7.0
 (Enter /home/ztw1e12/g09/l303.exe)
 DipDrv:  MaxL=1.
 Leave Link  303 at Tue Jun 24 17:05:05 2014, MaxMem=  4294967296 cpu:         4.2
 (Enter /home/ztw1e12/g09/l401.exe)
 ExpMin= 1.03D-01 ExpMax= 1.38D+05 ExpMxC= 1.38D+05 IAcc=4 IRadAn=    199590 AccDes= 0.00D+00
 Harris functional with IExCor= 1009 and IRadAn=  199590 diagonalized for initial guess.
 HarFok:  IExCor= 1009 AccDes= 0.00D+00 IRadAn=    199590 IDoV= 1 UseB2=F ITyADJ=14
 ICtDFT=  3500011 ScaDFX=  1.000000  1.000000  1.000000  1.000000
 FoFCou: FMM=F IPFlag=           0 FMFlag=      100000 FMFlg1=           0
         NFxFlg=           0 DoJE=T BraDBF=F KetDBF=T FulRan=T
         wScrn=  0.000000 ICntrl=     500 IOpCl=  0 I1Cent=   200000004 NGrid=           0
         NMat0=    1 NMatS0=      1 NMatT0=    0 NMatD0=    1 NMtDS0=    0 NMtDT0=    0
 Petite list used in FoFCou.
 Harris En= -801.782850766864    
 JPrj=0 DoOrth=F DoCkMO=F.
 Leave Link  401 at Tue Jun 24 17:05:25 2014, MaxMem=  4294967296 cpu:       296.7
 (Enter /home/ztw1e12/g09/l502.exe)
 Closed shell SCF:
 Using DIIS extrapolation, IDIIS=  1040.
 Integral symmetry usage will be decided dynamically.
 IVT=     5158273 IEndB=     5158273 NGot=  4294967296 MDV=  4291529994
 LenX=  4291529994 LenY=  4289825664
 Requested convergence on RMS density matrix=1.00D-08 within 128 cycles.
 Requested convergence on MAX density matrix=1.00D-06.
 Requested convergence on             energy=1.00D-06.
 No special actions if energy rises.
 Fock matrices will be formed incrementally for  20 cycles.
 Integral accuracy reduced to 1.0D-05 until final iterations.

 Cycle   1  Pass 0  IDiag  1:
 FoFJK:  IHMeth= 1 ICntrl=       0 DoSepK=F KAlg= 0 I1Cent=   0 FoldK=F
 IRaf= 430000000 NMat=   1 IRICut=       1 DoRegI=T DoRafI=F ISym2E= 0.
 FoFCou: FMM=F IPFlag=           0 FMFlag=      100000 FMFlg1=           0
         NFxFlg=           0 DoJE=F BraDBF=F KetDBF=F FulRan=T
         wScrn=  0.000000 ICntrl=       0 IOpCl=  0 I1Cent=           0 NGrid=           0
         NMat0=    1 NMatS0=      1 NMatT0=    0 NMatD0=    1 NMtDS0=    0 NMtDT0=    0
 Symmetry not used in FoFCou.
 E= -801.486019832851    
 DIIS: error= 1.12D-01 at cycle   1 NSaved=   1.
 NSaved= 1 IEnMin= 1 EnMin= -801.486019832851     IErMin= 1 ErrMin= 1.12D-01
 ErrMax= 1.12D-01  0.00D+00 EMaxC= 1.00D-01 BMatC= 1.69D+01 BMatP= 1.69D+01
 IDIUse=3 WtCom= 0.00D+00 WtEn= 1.00D+00
 Coeff-Com:  0.100D+01
 Coeff-En:   0.100D+01
 Coeff:      0.100D+01
 Gap=     0.237 Goal=   None    Shift=    0.000
 GapD=    0.237 DampG=1.000 DampE=0.250 DampFc=0.2500 IDamp=-1.
 Damping current iteration by 2.50D-01
 RMSDP=1.89D-03 MaxDP=2.81D-01              OVMax= 2.55D-01

 Cycle   2  Pass 0  IDiag  1:
 RMSU=  4.69D-04    CP:  1.02D+00
 E= -801.641182729187     Delta-E=       -0.155162896336 Rises=F Damp=T
 DIIS: error= 8.60D-02 at cycle   2 NSaved=   2.
 NSaved= 2 IEnMin= 2 EnMin= -801.641182729187     IErMin= 2 ErrMin= 8.60D-02
 ErrMax= 8.60D-02  0.00D+00 EMaxC= 1.00D-01 BMatC= 1.00D+01 BMatP= 1.69D+01
 IDIUse=3 WtCom= 1.40D-01 WtEn= 8.60D-01
 Coeff-Com: -0.296D+01 0.396D+01
 Coeff-En:   0.000D+00 0.100D+01
 Coeff:     -0.413D+00 0.141D+01
 Gap=     0.273 Goal=   None    Shift=    0.000
 RMSDP=5.30D-04 MaxDP=8.82D-02 DE=-1.55D-01 OVMax= 1.47D-01

 Cycle   3  Pass 0  IDiag  1:
 RMSU=  4.38D-04    CP:  1.05D+00  1.62D+00
 E= -801.893034943610     Delta-E=       -0.251852214423 Rises=F Damp=F
 DIIS: error= 9.96D-03 at cycle   3 NSaved=   3.
 NSaved= 3 IEnMin= 3 EnMin= -801.893034943610     IErMin= 3 ErrMin= 9.96D-03
 ErrMax= 9.96D-03  0.00D+00 EMaxC= 1.00D-01 BMatC= 1.48D-01 BMatP= 1.00D+01
 IDIUse=3 WtCom= 9.00D-01 WtEn= 9.96D-02
 Coeff-Com:  0.147D+00-0.250D+00 0.110D+01
 Coeff-En:   0.000D+00 0.000D+00 0.100D+01
 Coeff:      0.132D+00-0.225D+00 0.109D+01
 Gap=     0.226 Goal=   None    Shift=    0.000
 RMSDP=3.61D-04 MaxDP=4.45D-02 DE=-2.52D-01 OVMax= 1.13D-01

 Cycle   4  Pass 0  IDiag  1:
 RMSU=  3.34D-04    CP:  1.04D+00  1.46D+00  7.42D-01
 E= -801.830927734147     Delta-E=        0.062107209462 Rises=F Damp=F
 DIIS: error= 1.14D-02 at cycle   4 NSaved=   4.
 NSaved= 4 IEnMin= 3 EnMin= -801.893034943610     IErMin= 3 ErrMin= 9.96D-03
 ErrMax= 1.14D-02  0.00D+00 EMaxC= 1.00D-01 BMatC= 1.23D-01 BMatP= 1.48D-01
 IDIUse=3 WtCom= 8.86D-01 WtEn= 1.14D-01
 Coeff-Com:  0.281D+00-0.403D+00 0.601D+00 0.521D+00
 Coeff-En:   0.000D+00 0.000D+00 0.731D+00 0.269D+00
 Coeff:      0.249D+00-0.357D+00 0.616D+00 0.492D+00
 Gap=     0.257 Goal=   None    Shift=    0.000
 RMSDP=2.89D-04 MaxDP=2.61D-02 DE= 6.21D-02 OVMax= 8.74D-02

 Cycle   5  Pass 0  IDiag  1:
 RMSU=  6.89D-05    CP:  1.05D+00  1.43D+00  9.16D-01  1.93D-01
 E= -801.919138182227     Delta-E=       -0.088210448080 Rises=F Damp=F
 DIIS: error= 2.93D-03 at cycle   5 NSaved=   5.
 NSaved= 5 IEnMin= 5 EnMin= -801.919138182227     IErMin= 5 ErrMin= 2.93D-03
 ErrMax= 2.93D-03  0.00D+00 EMaxC= 1.00D-01 BMatC= 8.84D-03 BMatP= 1.23D-01
 IDIUse=3 WtCom= 9.71D-01 WtEn= 2.93D-02
 Coeff-Com:  0.292D-01-0.422D-01 0.212D-01 0.209D+00 0.783D+00
 Coeff-En:   0.000D+00 0.000D+00 0.000D+00 0.230D-01 0.977D+00
 Coeff:      0.284D-01-0.410D-01 0.206D-01 0.203D+00 0.789D+00
 Gap=     0.222 Goal=   None    Shift=    0.000
 RMSDP=8.76D-05 MaxDP=1.05D-02 DE=-8.82D-02 OVMax= 3.02D-02

 Cycle   6  Pass 0  IDiag  1:
 RMSU=  3.13D-05    CP:  1.05D+00  1.48D+00  9.27D-01  3.92D-01  3.84D-01
 E= -801.923901821314     Delta-E=       -0.004763639086 Rises=F Damp=F
 DIIS: error= 9.35D-04 at cycle   6 NSaved=   6.
 NSaved= 6 IEnMin= 6 EnMin= -801.923901821314     IErMin= 6 ErrMin= 9.35D-04
 ErrMax= 9.35D-04  0.00D+00 EMaxC= 1.00D-01 BMatC= 1.43D-03 BMatP= 8.84D-03
 IDIUse=3 WtCom= 9.91D-01 WtEn= 9.35D-03
 Coeff-Com:  0.120D-01-0.165D-01-0.101D-01 0.872D-01 0.414D+00 0.514D+00
 Coeff-En:   0.000D+00 0.000D+00 0.000D+00 0.000D+00 0.131D+00 0.869D+00
 Coeff:      0.119D-01-0.163D-01-0.997D-02 0.864D-01 0.411D+00 0.517D+00
 Gap=     0.223 Goal=   None    Shift=    0.000
 RMSDP=3.41D-05 MaxDP=3.78D-03 DE=-4.76D-03 OVMax= 1.39D-02

 Cycle   7  Pass 0  IDiag  1:
 RMSU=  1.37D-05    CP:  1.05D+00  1.45D+00  9.24D-01  3.88D-01  6.05D-01
                    CP:  2.62D-01
 E= -801.924987376199     Delta-E=       -0.001085554885 Rises=F Damp=F
 DIIS: error= 4.12D-04 at cycle   7 NSaved=   7.
 NSaved= 7 IEnMin= 7 EnMin= -801.924987376199     IErMin= 7 ErrMin= 4.12D-04
 ErrMax= 4.12D-04  0.00D+00 EMaxC= 1.00D-01 BMatC= 1.83D-04 BMatP= 1.43D-03
 IDIUse=3 WtCom= 9.96D-01 WtEn= 4.12D-03
 Coeff-Com:  0.817D-02-0.107D-01-0.461D-02 0.222D-01 0.114D+00 0.287D+00
 Coeff-Com:  0.584D+00
 Coeff-En:   0.000D+00 0.000D+00 0.000D+00 0.000D+00 0.000D+00 0.112D+00
 Coeff-En:   0.888D+00
 Coeff:      0.813D-02-0.107D-01-0.459D-02 0.221D-01 0.114D+00 0.287D+00
 Coeff:      0.585D+00
 Gap=     0.222 Goal=   None    Shift=    0.000
 RMSDP=1.20D-05 MaxDP=1.71D-03 DE=-1.09D-03 OVMax= 5.52D-03

 Cycle   8  Pass 0  IDiag  1:
 RMSU=  6.22D-06    CP:  1.05D+00  1.45D+00  9.30D-01  3.94D-01  5.79D-01
                    CP:  5.27D-01  6.60D-01
 E= -801.925140835957     Delta-E=       -0.000153459758 Rises=F Damp=F
 DIIS: error= 1.18D-04 at cycle   8 NSaved=   8.
 NSaved= 8 IEnMin= 8 EnMin= -801.925140835957     IErMin= 8 ErrMin= 1.18D-04
 ErrMax= 1.18D-04  0.00D+00 EMaxC= 1.00D-01 BMatC= 1.59D-05 BMatP= 1.83D-04
 IDIUse=3 WtCom= 9.99D-01 WtEn= 1.18D-03
 Coeff-Com:  0.439D-02-0.580D-02-0.149D-02 0.768D-02 0.399D-01 0.131D+00
 Coeff-Com:  0.334D+00 0.490D+00
 Coeff-En:   0.000D+00 0.000D+00 0.000D+00 0.000D+00 0.000D+00 0.000D+00
 Coeff-En:   0.115D-01 0.989D+00
 Coeff:      0.439D-02-0.579D-02-0.148D-02 0.767D-02 0.398D-01 0.131D+00
 Coeff:      0.334D+00 0.491D+00
 Gap=     0.223 Goal=   None    Shift=    0.000
 RMSDP=3.32D-06 MaxDP=4.63D-04 DE=-1.53D-04 OVMax= 1.21D-03

 Initial convergence to 1.0D-05 achieved.  Increase integral accuracy.
 Cycle   9  Pass 1  IDiag  1:
 E= -801.925089464083     Delta-E=        0.000051371874 Rises=F Damp=F
 DIIS: error= 2.59D-04 at cycle   1 NSaved=   1.
 NSaved= 1 IEnMin= 1 EnMin= -801.925089464083     IErMin= 1 ErrMin= 2.59D-04
 ErrMax= 2.59D-04  0.00D+00 EMaxC= 1.00D-01 BMatC= 2.04D-05 BMatP= 2.04D-05
 IDIUse=3 WtCom= 9.97D-01 WtEn= 2.59D-03
 Coeff-Com:  0.100D+01
 Coeff-En:   0.100D+01
 Coeff:      0.100D+01
 Gap=     0.222 Goal=   None    Shift=    0.000
 RMSDP=3.32D-06 MaxDP=4.63D-04 DE= 5.14D-05 OVMax= 6.58D-04

 Cycle  10  Pass 1  IDiag  1:
 RMSU=  1.46D-04    CP:  9.96D-01
 E= -801.925101140014     Delta-E=       -0.000011675930 Rises=F Damp=F
 DIIS: error= 3.51D-05 at cycle   2 NSaved=   2.
 NSaved= 2 IEnMin= 2 EnMin= -801.925101140014     IErMin= 2 ErrMin= 3.51D-05
 ErrMax= 3.51D-05  0.00D+00 EMaxC= 1.00D-01 BMatC= 2.00D-06 BMatP= 2.04D-05
 IDIUse=1 WtCom= 1.00D+00 WtEn= 0.00D+00
 Coeff-Com:  0.125D+00 0.875D+00
 Coeff:      0.125D+00 0.875D+00
 Gap=     0.223 Goal=   None    Shift=    0.000
 RMSDP=3.13D-06 MaxDP=3.67D-04 DE=-1.17D-05 OVMax= 7.18D-04

 Cycle  11  Pass 1  IDiag  1:
 RMSU=  2.33D-06    CP:  9.96D-01  1.01D+00
 E= -801.925099457357     Delta-E=        0.000001682657 Rises=F Damp=F
 DIIS: error= 5.23D-05 at cycle   3 NSaved=   3.
 NSaved= 3 IEnMin= 2 EnMin= -801.925101140014     IErMin= 2 ErrMin= 3.51D-05
 ErrMax= 5.23D-05  0.00D+00 EMaxC= 1.00D-01 BMatC= 4.07D-06 BMatP= 2.00D-06
 IDIUse=1 WtCom= 1.00D+00 WtEn= 0.00D+00
 Coeff-Com: -0.134D-02 0.589D+00 0.412D+00
 Coeff:     -0.134D-02 0.589D+00 0.412D+00
 Gap=     0.222 Goal=   None    Shift=    0.000
 RMSDP=1.47D-06 MaxDP=1.99D-04 DE= 1.68D-06 OVMax= 4.66D-04

 Cycle  12  Pass 1  IDiag  1:
 RMSU=  6.18D-07    CP:  9.96D-01  1.02D+00  4.49D-01
 E= -801.925102654466     Delta-E=       -0.000003197109 Rises=F Damp=F
 DIIS: error= 6.77D-06 at cycle   4 NSaved=   4.
 NSaved= 4 IEnMin= 4 EnMin= -801.925102654466     IErMin= 4 ErrMin= 6.77D-06
 ErrMax= 6.77D-06  0.00D+00 EMaxC= 1.00D-01 BMatC= 5.57D-08 BMatP= 2.00D-06
 IDIUse=1 WtCom= 1.00D+00 WtEn= 0.00D+00
 Coeff-Com: -0.283D-02 0.336D+00 0.246D+00 0.420D+00
 Coeff:     -0.283D-02 0.336D+00 0.246D+00 0.420D+00
 Gap=     0.222 Goal=   None    Shift=    0.000
 RMSDP=1.68D-07 MaxDP=2.13D-05 DE=-3.20D-06 OVMax= 6.05D-05

 Cycle  13  Pass 1  IDiag  1:
 RMSU=  1.47D-07    CP:  9.96D-01  1.02D+00  4.77D-01  9.31D-01
 E= -801.925102695487     Delta-E=       -0.000000041021 Rises=F Damp=F
 DIIS: error= 9.68D-07 at cycle   5 NSaved=   5.
 NSaved= 5 IEnMin= 5 EnMin= -801.925102695487     IErMin= 5 ErrMin= 9.68D-07
 ErrMax= 9.68D-07  0.00D+00 EMaxC= 1.00D-01 BMatC= 1.70D-09 BMatP= 5.57D-08
 IDIUse=1 WtCom= 1.00D+00 WtEn= 0.00D+00
 Coeff-Com: -0.118D-02 0.105D+00 0.782D-01 0.199D+00 0.620D+00
 Coeff:     -0.118D-02 0.105D+00 0.782D-01 0.199D+00 0.620D+00
 Gap=     0.222 Goal=   None    Shift=    0.000
 RMSDP=3.75D-08 MaxDP=3.35D-06 DE=-4.10D-08 OVMax= 1.24D-05

 Cycle  14  Pass 1  IDiag  1:
 RMSU=  2.75D-08    CP:  9.96D-01  1.02D+00  4.80D-01  9.62D-01  9.19D-01
 E= -801.925102696479     Delta-E=       -0.000000000992 Rises=F Damp=F
 DIIS: error= 4.68D-07 at cycle   6 NSaved=   6.
 NSaved= 6 IEnMin= 6 EnMin= -801.925102696479     IErMin= 6 ErrMin= 4.68D-07
 ErrMax= 4.68D-07  0.00D+00 EMaxC= 1.00D-01 BMatC= 1.98D-10 BMatP= 1.70D-09
 IDIUse=1 WtCom= 1.00D+00 WtEn= 0.00D+00
 Coeff-Com: -0.437D-03 0.332D-01 0.250D-01 0.779D-01 0.327D+00 0.538D+00
 Coeff:     -0.437D-03 0.332D-01 0.250D-01 0.779D-01 0.327D+00 0.538D+00
 Gap=     0.222 Goal=   None    Shift=    0.000
 RMSDP=1.85D-08 MaxDP=2.79D-06 DE=-9.92D-10 OVMax= 6.70D-06

 Cycle  15  Pass 1  IDiag  1:
 RMSU=  1.39D-08    CP:  9.96D-01  1.02D+00  4.79D-01  9.74D-01  9.60D-01
                    CP:  7.61D-01
 E= -801.925102696658     Delta-E=       -0.000000000179 Rises=F Damp=F
 DIIS: error= 1.99D-07 at cycle   7 NSaved=   7.
 NSaved= 7 IEnMin= 7 EnMin= -801.925102696658     IErMin= 7 ErrMin= 1.99D-07
 ErrMax= 1.99D-07  0.00D+00 EMaxC= 1.00D-01 BMatC= 4.25D-11 BMatP= 1.98D-10
 IDIUse=1 WtCom= 1.00D+00 WtEn= 0.00D+00
 Coeff-Com:  0.338D-04-0.649D-02-0.481D-02-0.319D-02 0.407D-01 0.333D+00
 Coeff-Com:  0.641D+00
 Coeff:      0.338D-04-0.649D-02-0.481D-02-0.319D-02 0.407D-01 0.333D+00
 Coeff:      0.641D+00
 Gap=     0.222 Goal=   None    Shift=    0.000
 RMSDP=8.30D-09 MaxDP=1.18D-06 DE=-1.79D-10 OVMax= 2.23D-06

 Cycle  16  Pass 1  IDiag  1:
 RMSU=  5.12D-09    CP:  9.96D-01  1.02D+00  4.80D-01  9.80D-01  9.68D-01
                    CP:  9.38D-01  9.92D-01
 E= -801.925102696735     Delta-E=       -0.000000000076 Rises=F Damp=F
 DIIS: error= 2.87D-08 at cycle   8 NSaved=   8.
 NSaved= 8 IEnMin= 8 EnMin= -801.925102696735     IErMin= 8 ErrMin= 2.87D-08
 ErrMax= 2.87D-08  0.00D+00 EMaxC= 1.00D-01 BMatC= 1.70D-12 BMatP= 4.25D-11
 IDIUse=1 WtCom= 1.00D+00 WtEn= 0.00D+00
 Coeff-Com:  0.413D-04-0.486D-02-0.362D-02-0.605D-02-0.742D-03 0.113D+00
 Coeff-Com:  0.281D+00 0.621D+00
 Coeff:      0.413D-04-0.486D-02-0.362D-02-0.605D-02-0.742D-03 0.113D+00
 Coeff:      0.281D+00 0.621D+00
 Gap=     0.222 Goal=   None    Shift=    0.000
 RMSDP=1.82D-09 MaxDP=1.46D-07 DE=-7.64D-11 OVMax= 3.12D-07

 SCF Done:  E(RM06) =  -801.925102697     A.U. after   16 cycles
            NFock= 16  Conv=0.18D-08     -V/T= 2.0044
 KE= 7.983734956409D+02 PE=-4.287737513823D+03 EE= 1.479801350000D+03
 Leave Link  502 at Tue Jun 24 17:41:33 2014, MaxMem=  4294967296 cpu:     34604.0
 (Enter /home/ztw1e12/g09/l801.exe)
 DoSCS=F DFT=T ScalE2(SS,OS)=  1.000000  1.000000
 Range of M.O.s used for correlation:     1  1068
 NBasis=  1204 NAE=    63 NBE=    63 NFC=     0 NFV=     0
 NROrb=   1068 NOA=    63 NOB=    63 NVA=  1005 NVB=  1005

 **** Warning!!: The largest alpha MO coefficient is  0.26227899D+02

 Leave Link  801 at Tue Jun 24 17:41:33 2014, MaxMem=  4294967296 cpu:         0.4
 (Enter /home/ztw1e12/g09/l1002.exe)
 Minotr:  Closed shell wavefunction.
          IDoAtm=111111111111111111111111111111111
          Direct CPHF calculation.
          Differentiating once with respect to Fermi-contact.
          Electric field/nuclear overlap derivatives assumed to be zero.
          Requested convergence is 1.0D-10 RMS, and 1.0D-09 maximum.
          Secondary convergence is 1.0D-12 RMS, and 1.0D-12 maximum.
          NewPWx=T KeepS1=F KeepF1=F KeepIn=T MapXYZ=F SortEE=F KeepMc=T.
          MDV=    4294965894 using IRadAn=  199590.
 Using stored XC quadrature information.
          Solving linear equations simultaneously, MaxMat=       0.
          There are    33 degrees of freedom in the 1st order CPHF.  IDoFFX=0 NUNeed=    33.
     33 vectors produced by pass  0 Test12= 1.92D-17 3.03D-11 XBig12= 4.29D+01 2.58D+00.
 AX will form    33 AO Fock derivatives at one time.
 FoFJK:  IHMeth= 1 ICntrl=       0 DoSepK=F KAlg= 0 I1Cent=   0 FoldK=F
 IRaf= 450000000 NMat=  33 IRICut=       1 DoRegI=T DoRafI=F ISym2E=-1.
 FoFCou: FMM=F IPFlag=           0 FMFlag=      100000 FMFlg1=           0
         NFxFlg=           0 DoJE=F BraDBF=F KetDBF=F FulRan=T
         wScrn=  0.000000 ICntrl=       0 IOpCl=  0 I1Cent=           0 NGrid=           0
         NMat0=   33 NMatS0=      0 NMatT0=   33 NMatD0=   33 NMtDS0=    0 NMtDT0=    0
 Petite list used in FoFCou.
     33 vectors produced by pass  1 Test12= 1.92D-17 3.03D-11 XBig12= 3.46D-01 1.89D-01.
     33 vectors produced by pass  2 Test12= 1.92D-17 3.03D-11 XBig12= 1.69D-02 5.95D-02.
     33 vectors produced by pass  3 Test12= 1.92D-17 3.03D-11 XBig12= 3.85D-04 7.32D-03.
     33 vectors produced by pass  4 Test12= 1.92D-17 3.03D-11 XBig12= 7.14D-06 1.07D-03.
     33 vectors produced by pass  5 Test12= 1.92D-17 3.03D-11 XBig12= 1.50D-07 1.60D-04.
     33 vectors produced by pass  6 Test12= 1.92D-17 3.03D-11 XBig12= 4.58D-09 2.54D-05.
     33 vectors produced by pass  7 Test12= 1.92D-17 3.03D-11 XBig12= 1.20D-10 4.41D-06.
     33 vectors produced by pass  8 Test12= 1.92D-17 3.03D-11 XBig12= 4.13D-12 3.52D-07.
     33 vectors produced by pass  9 Test12= 1.92D-17 3.03D-11 XBig12= 6.25D-14 9.54D-08.
     33 vectors produced by pass 10 Test12= 1.92D-17 3.03D-11 XBig12= 2.66D-15 8.73D-09.
     33 vectors produced by pass 11 Test12= 1.92D-17 3.03D-11 XBig12= 3.21D-17 6.92D-10.
      7 vectors produced by pass 12 Test12= 1.92D-17 3.03D-11 XBig12= 2.89D-19 6.14D-11.
 InvSVY:  IOpt=1 It=  1 EMax= 1.15D-14
 Solved reduced A of dimension   403 with    33 vectors.
 Max diff in FC couplings:  IJMax=    11     5 Diff= 4.73D-04 IJMaxR=    30     3 DiffR= 1.72D+00
 Fermi Contact (FC) contribution to K (Hz):
                1             2             3             4             5 
      1  0.123400D+11
      2  0.349223D+02  0.123400D+11
      3 -0.122901D+01  0.334242D+02  0.123400D+11
      4  0.306838D+01  0.366858D+00  0.337488D+02  0.123400D+11
      5  0.162948D+01  0.304179D+01 -0.127714D+01  0.344333D+02  0.123400D+11
      6  0.357816D+02 -0.208808D+00  0.423235D+01  0.216504D+00  0.390953D+02
      7  0.218001D+02 -0.312479D+00  0.936566D+00 -0.207785D+00  0.609550D+00
      8 -0.238904D+00  0.221670D+02 -0.224073D+00  0.103512D+01 -0.292572D+00
      9 -0.283346D+00  0.991137D+00 -0.163814D+00  0.219817D+02 -0.134752D+00
     10  0.672354D+00 -0.226444D+00  0.101815D+01 -0.269134D+00  0.228706D+02
     11  0.184262D+01  0.138552D+01  0.232321D+02  0.158905D+01  0.194080D+01
     12 -0.140148D+00  0.579001D+00 -0.110168D+01  0.680751D+00 -0.654079D-01
     13  0.120106D+00  0.885643D+00 -0.822460D+00  0.877730D+00  0.204371D-01
     14 -0.524952D+00  0.843258D+00 -0.102895D+01  0.744259D+00 -0.413844D+00
     15  0.929613D-02 -0.267042D-01  0.311742D+00 -0.155399D-01  0.114158D-01
     16 -0.960482D-02 -0.610633D-01  0.205244D+01  0.604429D-01  0.599695D-01
     17 -0.744924D+00 -0.101277D+00  0.255583D+00  0.301574D+01  0.116041D+02
     18  0.421172D+00 -0.113869D-01 -0.455636D-01  0.210906D+00  0.114622D+01
     19  0.194603D-01  0.675229D-01  0.274964D+00  0.876389D-02  0.583632D-02
     20  0.614730D-01 -0.664241D-01  0.666460D+00  0.591725D-01  0.302398D-01
     21 -0.392555D-02  0.742301D-02 -0.500702D-02  0.164876D-01  0.120077D-03
     22 -0.463514D-01  0.501353D-01  0.941396D-01  0.103719D+00 -0.292615D-01
     23  0.703962D-03 -0.541105D-03  0.138104D-01 -0.710589D-03  0.753509D-03
     24 -0.839248D-02  0.938477D-02 -0.393445D-01  0.596520D-02 -0.575195D-02
     25  0.775588D-03 -0.486645D-03  0.265960D-02 -0.594726D-02  0.268495D-02
     26  0.163284D-03 -0.175991D-03 -0.703511D-03 -0.234494D-03 -0.508244D-04
     27  0.103812D-03  0.240984D-03 -0.659309D-03  0.913303D-03  0.376155D-03
     28  0.788001D-03 -0.700568D-03  0.100244D-02  0.891874D-03  0.708485D-03
     29 -0.114598D-02  0.877363D-03  0.832358D-01  0.108823D-01  0.143152D-02
     30  0.895311D-04 -0.315032D-03  0.349745D-05 -0.578820D-03 -0.458294D-04
     31  0.971672D-04 -0.177214D-03  0.825562D-02 -0.604673D-04  0.135854D-03
     32  0.742401D-04  0.302327D-03 -0.274058D-02 -0.278046D-03 -0.682784D-04
     33  0.517626D-02  0.138832D-01  0.170769D-01  0.153446D-01  0.262169D-02
                6             7             8             9            10 
      6  0.123400D+11
      7 -0.537539D+00  0.123400D+11
      8  0.119975D+01  0.336781D+00  0.123400D+11
      9  0.119140D+01  0.380889D-01  0.375074D-01  0.123400D+11
     10 -0.716848D+00  0.634207D-01  0.417760D-01  0.340847D+00  0.123400D+11
     11 -0.426755D+00  0.146219D-01  0.625925D+00  0.674176D+00  0.161426D-01
     12  0.145410D+00  0.130363D-01 -0.428138D-01 -0.341815D-01  0.157488D-01
     13  0.149385D-01  0.845671D-02 -0.355317D-02 -0.285188D-01  0.239057D-02
     14  0.497639D+00  0.470546D-01 -0.832840D-01 -0.112672D+00  0.377744D-01
     15 -0.471090D-02 -0.594054D-03 -0.516217D-02  0.228491D-02 -0.158160D-02
     16  0.144881D-01  0.443404D-02 -0.647777D-02  0.771426D-02  0.313768D-02
     17 -0.119917D+02  0.562768D+00  0.704364D-01  0.252823D+00  0.706466D+00
     18 -0.660552D+00 -0.135098D-01  0.178779D-02  0.132511D-01  0.129617D-02
     19  0.231708D-02  0.140114D-02  0.522212D-02 -0.733919D-03  0.859444D-03
     20 -0.228553D-01 -0.126280D-01  0.420949D-02  0.486218D-01 -0.192046D-02
     21  0.131626D-02  0.830142D-03  0.960646D-03 -0.475429D-02  0.280874D-03
     22  0.483173D-01  0.411890D-02 -0.961831D-02 -0.879587D-02  0.521979D-02
     23 -0.418156D-03 -0.794662D-05  0.113537D-03  0.130540D-03  0.000000D+00
     24  0.685613D-02  0.891489D-03 -0.147415D-02 -0.107764D-02  0.310550D-03
     25 -0.125325D-02 -0.155853D-03  0.405796D-03  0.445061D-03 -0.411043D-03
     26 -0.114371D-03 -0.213310D-04  0.506801D-04 -0.117358D-03 -0.202966D-04
     27 -0.528548D-04 -0.462672D-04 -0.574415D-04  0.162625D-03 -0.479658D-04
     28 -0.562066D-03 -0.151402D-03  0.946310D-04  0.104209D-02 -0.165372D-03
     29  0.299870D-02  0.340173D-03 -0.541940D-04  0.446934D-04  0.715737D-03
     30 -0.930820D-04 -0.101856D-04  0.375844D-04 -0.246121D-05 -0.210717D-04
     31  0.554657D-04  0.147449D-04  0.201281D-04  0.189229D-04  0.264087D-04
     32 -0.491272D-04 -0.112937D-04  0.666070D-04  0.959738D-05 -0.250871D-04
     33 -0.887534D-03 -0.994844D-03  0.173487D-02  0.198139D-02 -0.572292D-03
               11            12            13            14            15 
     11  0.123400D+11
     12  0.183240D+02  0.123400D+11
     13  0.177429D+02 -0.871351D+00  0.123400D+11
     14  0.188565D+02 -0.628519D+00 -0.107205D+01  0.123400D+11
     15 -0.732949D+00  0.153321D+00  0.395887D+00  0.190062D+02  0.123400D+11
     16  0.407393D-01  0.130012D+00  0.308348D+00  0.276663D+02 -0.998413D+00
     17  0.676474D-01  0.515692D-01  0.367196D-02  0.188131D+00 -0.331743D-02
     18  0.111438D-01 -0.529451D-02 -0.548168D-03 -0.203101D-01  0.324468D-03
     19  0.141079D+01  0.128696D+00  0.923332D-01  0.344948D+01  0.372214D+00
     20  0.730246D+00  0.192627D+01  0.660451D+00  0.134344D+02 -0.901143D+00
     21  0.448080D+00 -0.191127D-01 -0.187453D-01  0.266020D+00  0.237703D+00
     22  0.734685D+00 -0.767689D-01 -0.558403D-01  0.111080D+02  0.958540D-01
     23  0.398252D-01  0.215772D-02 -0.915081D-03  0.688691D-01 -0.261152D-01
     24  0.116535D+01  0.118633D+00 -0.350519D-01 -0.528478D+00  0.517399D+00
     25 -0.432745D-01  0.496171D-01  0.205092D-01  0.798896D+00 -0.871622D-01
     26  0.175179D-01  0.425878D-02 -0.753629D-03  0.109145D-01  0.125735D-01
     27 -0.573271D-02 -0.224682D-02 -0.496028D-03  0.281471D-01  0.190443D-01
     28 -0.320372D-02  0.397707D-03 -0.412011D-03  0.854795D-01 -0.311545D-02
     29  0.314111D+00 -0.265001D-02 -0.469924D-02  0.863499D+00 -0.169232D-01
     30 -0.780847D-02 -0.296062D-03  0.619064D-03 -0.636124D-01  0.180656D-01
     31  0.124975D-01  0.766218D-03  0.649874D-03 -0.211483D-01  0.834021D-03
     32 -0.612787D-02 -0.598816D-04 -0.375793D-03 -0.919312D-01  0.166574D-01
     33  0.142311D+00 -0.887389D-04  0.720134D-01  0.689480D+00  0.155208D+00
               16            17            18            19            20 
     16  0.123400D+11
     17  0.814185D-02  0.123400D+11
     18 -0.796015D-03  0.199144D+02  0.123400D+11
     19 -0.101750D+02  0.228146D-02 -0.188726D-03  0.123400D+11
     20  0.576676D+00 -0.188782D-02  0.379888D-03  0.541691D+00  0.123400D+11
     21 -0.146753D-01  0.306183D-03 -0.463279D-04 -0.928323D-02  0.313461D+02
     22  0.282688D+02  0.198662D-01 -0.204661D-02  0.610637D+01 -0.840871D-01
     23  0.281969D+00 -0.906603D-04  0.124176D-04  0.525055D+00 -0.114870D-01
     24  0.359214D-01  0.201362D-02 -0.237723D-03  0.222068D-01  0.262704D+02
     25 -0.132652D+00 -0.320971D-03  0.173528D-04  0.213773D-01  0.116547D+02
     26  0.463098D-01 -0.348901D-04  0.332270D-05  0.131114D-02  0.372405D+00
     27  0.829940D-01  0.260835D-04 -0.639323D-05  0.100065D-01  0.477914D+00
     28 -0.146263D-02 -0.125532D-03  0.765826D-05  0.144252D-02  0.369046D+00
     29 -0.563398D+00  0.177152D-02 -0.157103D-03  0.632588D+00 -0.197322D+00
     30  0.264370D+00 -0.686295D-04  0.622859D-05  0.266325D+00  0.146855D+00
     31  0.104875D+01  0.226122D-04 -0.119146D-05  0.167243D+00  0.183285D-02
     32  0.198437D+00 -0.490710D-04  0.438969D-05  0.264083D+00  0.106001D+00
     33  0.377718D+00  0.487880D-03 -0.567233D-04  0.155167D+00  0.511453D+01
               21            22            23            24            25 
     21  0.123400D+11
     22  0.175072D-01  0.123400D+11
     23  0.223921D-02  0.324286D+02  0.123400D+11
     24  0.425058D+00 -0.249424D+00  0.177145D-01  0.123400D+11
     25  0.131199D+00  0.179943D+00 -0.229351D-01  0.272530D+02  0.123400D+11
     26 -0.199391D-01 -0.202275D-02 -0.464256D-02 -0.120424D+01  0.177688D+02
     27 -0.961611D-02 -0.918342D-02 -0.457550D-03 -0.117643D+01  0.181716D+02
     28 -0.111342D-01  0.299957D-01 -0.277149D-02 -0.753927D+00  0.173669D+02
     29 -0.407611D-02  0.165680D+02  0.374693D+00 -0.135514D-01 -0.278085D-02
     30  0.892711D-03 -0.647018D+00  0.935934D-01 -0.206323D-02  0.480082D-04
     31  0.628578D-04 -0.296920D+00  0.295975D+00  0.567801D-03  0.100113D-02
     32  0.177739D-02 -0.609222D+00  0.128927D+00  0.578432D-03  0.747814D-02
     33  0.411929D+00  0.589683D+01 -0.915471D+00 -0.938262D+01  0.417705D+01
               26            27            28            29            30 
     26  0.123400D+11
     27 -0.922340D+00  0.123400D+11
     28 -0.767694D+00 -0.707312D+00  0.123400D+11
     29 -0.132837D-02 -0.110831D-02  0.329885D-03  0.123400D+11
     30 -0.847072D-04  0.366763D-03  0.365445D-03  0.195976D+02  0.123400D+11
     31  0.595789D-03  0.960946D-04  0.194511D-03  0.184384D+02 -0.743590D+00
     32  0.318806D-03  0.457563D-03 -0.139918D-03  0.197486D+02 -0.746325D+00
     33  0.417470D+00  0.376260D+00  0.913160D+00  0.136069D+00  0.181598D-01
               31            32            33 
     31  0.123400D+11
     32 -0.748747D+00  0.123400D+11
     33  0.416019D-01  0.497213D-01  0.123400D+11
 Fermi Contact (FC) contribution to J (Hz):
                1             2             3             4             5 
      1  0.243533D+11
      2  0.689201D+02  0.243533D+11
      3 -0.242547D+01  0.659636D+02  0.243533D+11
      4  0.605553D+01  0.724003D+00  0.666041D+02  0.243533D+11
      5  0.321582D+01  0.600305D+01 -0.252048D+01  0.679549D+02  0.243533D+11
      6  0.706159D+02 -0.412088D+00  0.835265D+01  0.427276D+00  0.771555D+02
      7  0.171064D+03 -0.245199D+01  0.734914D+01 -0.163047D+01  0.478308D+01
      8 -0.187465D+01  0.173943D+03 -0.175828D+01  0.812249D+01 -0.229578D+01
      9 -0.222339D+01  0.777736D+01 -0.128543D+01  0.172488D+03 -0.105739D+01
     10  0.527590D+01 -0.177689D+01  0.798934D+01 -0.211187D+01  0.179463D+03
     11  0.363645D+01  0.273435D+01  0.458491D+02  0.313603D+01  0.383021D+01
     12 -0.109972D+01  0.454336D+01 -0.864481D+01  0.534179D+01 -0.513250D+00
     13  0.942461D+00  0.694956D+01 -0.645376D+01  0.688746D+01  0.160368D+00
     14 -0.103600D+01  0.166419D+01 -0.203066D+01  0.146881D+01 -0.816731D+00
     15  0.729458D-01 -0.209545D+00  0.244621D+01 -0.121940D+00  0.895787D-01
     16 -0.189554D-01 -0.120510D+00  0.405054D+01  0.119286D+00  0.118351D+00
     17  0.792733D+00  0.107777D+00 -0.271987D+00 -0.320930D+01 -0.123489D+02
     18  0.330489D+01 -0.893517D-01 -0.357534D+00  0.165496D+01  0.899427D+01
     19 -0.207093D-01 -0.718566D-01 -0.292612D+00 -0.932636D-02 -0.621090D-02
     20  0.348683D-01 -0.376766D-01  0.378024D+00  0.335634D-01  0.171524D-01
     21 -0.308034D-01  0.582476D-01 -0.392896D-01  0.129377D+00  0.942235D-03
     22 -0.262911D-01  0.284374D-01  0.533972D-01  0.588310D-01 -0.165975D-01
     23  0.552392D-02 -0.424600D-02  0.108369D+00 -0.557592D-02  0.591271D-02
     24 -0.165628D-01  0.185211D-01 -0.776474D-01  0.117725D-01 -0.113516D-01
     25  0.153064D-02 -0.960406D-03  0.524879D-02 -0.117371D-01  0.529882D-02
     26  0.128127D-02 -0.138098D-02 -0.552038D-02 -0.184006D-02 -0.398815D-03
     27  0.814604D-03  0.189098D-02 -0.517354D-02  0.716660D-02  0.295165D-02
     28  0.618337D-02 -0.549729D-02  0.786609D-02  0.699845D-02  0.555941D-02
     29 -0.226162D-02  0.173150D-02  0.164268D+00  0.214765D-01  0.282513D-02
     30  0.702541D-03 -0.247202D-02  0.274442D-04 -0.454195D-02 -0.359619D-03
     31  0.762461D-03 -0.139058D-02  0.647811D-01 -0.474481D-03  0.106604D-02
     32  0.582555D-03  0.237233D-02 -0.215051D-01 -0.218180D-02 -0.535774D-03
     33 -0.550848D-02 -0.147742D-01 -0.181729D-01 -0.163294D-01 -0.278995D-02
                6             7             8             9            10 
      6  0.243533D+11
      7 -0.421801D+01  0.385007D+12
      8  0.941434D+01  0.105075D+02  0.385007D+12
      9  0.934881D+01  0.118837D+01  0.117023D+01  0.385007D+12
     10 -0.562503D+01  0.197872D+01  0.130341D+01  0.106344D+02  0.385007D+12
     11 -0.842211D+00  0.114737D+00  0.491157D+01  0.529019D+01  0.126669D+00
     12  0.114102D+01  0.406731D+00 -0.133579D+01 -0.106646D+01  0.491362D+00
     13  0.117221D+00  0.263849D+00 -0.110859D+00 -0.889786D+00  0.745856D-01
     14  0.982102D+00  0.369233D+00 -0.653522D+00 -0.884126D+00  0.296412D+00
     15 -0.369660D-01 -0.185345D-01 -0.161060D+00  0.712891D-01 -0.493458D-01
     16  0.285926D-01  0.347935D-01 -0.508305D-01  0.605330D-01  0.246211D-01
     17  0.127613D+02 -0.238122D+01 -0.298036D+00 -0.106977D+01 -0.298925D+01
     18 -0.518328D+01 -0.421505D+00  0.557789D-01  0.413435D+00  0.404405D-01
     19 -0.246580D-02 -0.592859D-02 -0.220962D-01  0.310541D-02 -0.363654D-02
     20 -0.129638D-01 -0.284798D-01  0.949360D-02  0.109656D+00 -0.433119D-02
     21  0.103286D-01  0.259004D-01  0.299721D-01 -0.148334D+00  0.876327D-02
     22  0.274062D-01  0.928929D-02 -0.216920D-01 -0.198372D-01  0.117721D-01
     23 -0.328123D-02 -0.247934D-03  0.354236D-02  0.407285D-02 -0.150421D-04
     24  0.135307D-01  0.699543D-02 -0.115675D-01 -0.845613D-02  0.243686D-02
     25 -0.247332D-02 -0.122296D-02  0.318424D-02  0.349235D-02 -0.322542D-02
     26 -0.897456D-03 -0.665527D-03  0.158122D-02 -0.366158D-02 -0.633253D-03
     27 -0.414747D-03 -0.144354D-02 -0.179217D-02  0.507388D-02 -0.149653D-02
     28 -0.441048D-02 -0.472374D-02  0.295248D-02  0.325133D-01 -0.515960D-02
     29  0.591802D-02  0.266930D-02 -0.425255D-03  0.350705D-03  0.561632D-02
     30 -0.730405D-03 -0.317791D-03  0.117263D-02 -0.767895D-04 -0.657436D-03
     31  0.435234D-03  0.460041D-03  0.627997D-03  0.590392D-03  0.823949D-03
     32 -0.385496D-03 -0.352362D-03  0.207813D-02  0.299438D-03 -0.782716D-03
     33  0.944497D-03  0.420946D-02 -0.734069D-02 -0.838381D-02  0.242152D-02
               11            12            13            14            15 
     11  0.243533D+11
     12  0.143787D+03  0.385007D+12
     13  0.139227D+03 -0.271861D+02  0.385007D+12
     14  0.372138D+02 -0.493193D+01 -0.841228D+01  0.243533D+11
     15 -0.575138D+01  0.478361D+01  0.123517D+02  0.149140D+03  0.385007D+12
     16  0.804000D-01  0.102019D+01  0.241958D+01  0.546001D+02 -0.783445D+01
     17 -0.719891D-01 -0.218203D+00 -0.155371D-01 -0.200205D+00  0.140369D-01
     18  0.874446D-01 -0.165188D+00 -0.171028D-01 -0.159372D+00  0.101234D-01
     19 -0.150134D+01 -0.544549D+00 -0.390687D+00 -0.367087D+01 -0.157494D+01
     20  0.414204D+00  0.434429D+01  0.148951D+01  0.762016D+01 -0.203233D+01
     21  0.351604D+01 -0.596316D+00 -0.584853D+00  0.208743D+01  0.741632D+01
     22  0.416723D+00 -0.173136D+00 -0.125936D+00  0.630062D+01  0.216178D+00
     23  0.312505D+00  0.673207D-01 -0.285505D-01  0.540409D+00 -0.814793D+00
     24  0.229986D+01  0.930903D+00 -0.275048D+00 -0.104296D+01  0.405998D+01
     25 -0.854034D-01  0.389340D+00  0.160934D+00  0.157664D+01 -0.683954D+00
     26  0.137462D+00  0.132874D+00 -0.235132D-01  0.856448D-01  0.392292D+00
     27 -0.449840D-01 -0.701006D-01 -0.154760D-01  0.220867D+00  0.594180D+00
     28 -0.251393D-01  0.124085D-01 -0.128547D-01  0.670750D+00 -0.972020D-01
     29  0.619906D+00 -0.207943D-01 -0.368745D-01  0.170414D+01 -0.132795D+00
     30 -0.612723D-01 -0.923713D-02  0.193148D-01 -0.499160D+00  0.563647D+00
     31  0.980666D-01  0.239060D-01  0.202761D-01 -0.165949D+00  0.260214D-01
     32 -0.480848D-01 -0.186830D-02 -0.117247D-01 -0.721375D+00  0.519710D+00
     33 -0.151444D+00  0.375478D-03 -0.304708D+00 -0.733731D+00 -0.656726D+00
               16            17            18            19            20 
     16  0.243533D+11
     17 -0.866440D-02  0.708114D+10
     18 -0.624625D-02 -0.842631D+02  0.385007D+12
     19  0.108280D+02  0.130919D-02  0.798550D-03  0.708114D+10
     20  0.327097D+00  0.577404D-03  0.856754D-03 -0.165680D+00  0.201170D+10
     21 -0.115155D+00 -0.129554D-02 -0.144543D-02  0.392799D-01  0.706945D+02
     22  0.160344D+02 -0.607623D-02 -0.461569D-02 -0.186768D+01 -0.137081D-01
     23  0.221258D+01  0.383608D-03  0.387427D-03 -0.222165D+01 -0.259065D-01
     24  0.708917D-01 -0.214285D-02 -0.186539D-02 -0.236320D-01  0.149009D+02
     25 -0.261792D+00  0.341571D-03  0.136165D-03 -0.227494D-01  0.661067D+01
     26  0.363388D+00  0.147630D-03  0.103668D-03 -0.554777D-02  0.839878D+00
     27  0.651246D+00 -0.110367D-03 -0.199468D-03 -0.423402D-01  0.107783D+01
     28 -0.114771D-01  0.531160D-03  0.238937D-03 -0.610371D-02  0.832304D+00
     29 -0.111188D+01 -0.188521D-02 -0.123277D-02 -0.673188D+00 -0.111923D+00
     30  0.207449D+01  0.290390D-03  0.194332D-03 -0.112689D+01  0.331199D+00
     31  0.822946D+01 -0.956784D-04 -0.371736D-04 -0.707649D+00  0.413359D-02
     32  0.155712D+01  0.207633D-03  0.136958D-03 -0.111741D+01  0.239062D+00
     33 -0.401960D+00  0.279964D-03  0.240012D-03  0.890404D-01 -0.156432D+01
               21            22            23            24            25 
     21  0.385007D+12
     22  0.394837D-01  0.201170D+10
     23  0.698631D-01  0.731358D+02  0.385007D+12
     24  0.333539D+01 -0.141477D+00  0.139004D+00  0.243533D+11
     25  0.102951D+01  0.102066D+00 -0.179969D+00  0.537844D+02  0.243533D+11
     26 -0.622097D+00 -0.456189D-02 -0.144848D+00 -0.944953D+01  0.139430D+03
     27 -0.300022D+00 -0.207112D-01 -0.142755D-01 -0.923135D+01  0.142590D+03
     28 -0.347388D+00  0.676488D-01 -0.864703D-01 -0.591600D+01  0.136276D+03
     29 -0.319848D-01  0.939755D+01  0.294018D+01 -0.267439D-01 -0.548808D-02
     30  0.278525D-01 -0.145921D+01  0.292011D+01 -0.161899D-01  0.376715D-03
     31  0.196116D-02 -0.669639D+00  0.923441D+01  0.445548D-02  0.785575D-02
     32  0.554545D-01 -0.137397D+01  0.402252D+01  0.453890D-02  0.586802D-01
     33 -0.174299D+01 -0.180359D+01  0.387361D+01  0.998480D+01 -0.444513D+01
               26            27            28            29            30 
     26  0.385007D+12
     27 -0.287770D+02  0.385007D+12
     28 -0.239520D+02 -0.220681D+02  0.385007D+12
     29 -0.104236D-01 -0.869680D-02  0.258858D-02  0.243533D+11
     30 -0.264286D-02  0.114430D-01  0.114019D-01  0.153780D+03  0.385007D+12
     31  0.185886D-01  0.299815D-02  0.606872D-02  0.144684D+03 -0.232000D+02
     32  0.994673D-02  0.142760D-01 -0.436544D-02  0.154965D+03 -0.232853D+02
     33 -0.176643D+01 -0.159206D+01 -0.386383D+01 -0.144802D+00 -0.768392D-01
               31            32            33 
     31  0.385007D+12
     32 -0.233609D+02  0.385007D+12
     33 -0.176029D+00 -0.210385D+00  0.708114D+10
 End of Minotr F.D. properties file   721 does not exist.
 End of Minotr F.D. properties file   722 does not exist.
 End of Minotr F.D. properties file   788 does not exist.
 Leave Link 1002 at Wed Jun 25 01:39:22 2014, MaxMem=  4294967296 cpu:    457567.9
 (Enter /home/ztw1e12/g09/l601.exe)
 Copying SCF densities to generalized density rwf, IOpCl= 0 IROHF=0.

 **********************************************************************

            Population analysis using the SCF density.

 **********************************************************************

 Orbital symmetries:
       Occupied  (A) (A) (A) (A) (A) (A) (A) (A) (A) (A) (A) (A)
                 (A) (A) (A) (A) (A) (A) (A) (A) (A) (A) (A) (A)
                 (A) (A) (A) (A) (A) (A) (A) (A) (A) (A) (A) (A)
                 (A) (A) (A) (A) (A) (A) (A) (A) (A) (A) (A) (A)
                 (A) (A) (A) (A) (A) (A) (A) (A) (A) (A) (A) (A)
                 (A) (A) (A)
       Virtual   (A) (A) (A) (A) (A) (A) (A) (A) (A) (A) (A) (A)
                 (A) (A) (A) (A) (A) (A) (A) (A) (A) (A) (A) (A)
                 (A) (A) (A) (A) (A) (A) (A) (A) (A) (A) (A) (A)
                 (A) (A) (A) (A) (A) (A) (A) (A) (A) (A) (A) (A)
                 (A) (A) (A) (A) (A) (A) (A) (A) (A) (A) (A) (A)
                 (A) (A) (A) (A) (A) (A) (A) (A) (A) (A) (A) (A)
                 (A) (A) (A) (A) (A) (A) (A) (A) (A) (A) (A) (A)
                 (A) (A) (A) (A) (A) (A) (A) (A) (A) (A) (A) (A)
                 (A) (A) (A) (A) (A) (A) (A) (A) (A) (A) (A) (A)
                 (A) (A) (A) (A) (A) (A) (A) (A) (A) (A) (A) (A)
                 (A) (A) (A) (A) (A) (A) (A) (A) (A) (A) (A) (A)
                 (A) (A) (A) (A) (A) (A) (A) (A) (A) (A) (A) (A)
                 (A) (A) (A) (A) (A) (A) (A) (A) (A) (A) (A) (A)
                 (A) (A) (A) (A) (A) (A) (A) (A) (A) (A) (A) (A)
                 (A) (A) (A) (A) (A) (A) (A) (A) (A) (A) (A) (A)
                 (A) (A) (A) (A) (A) (A) (A) (A) (A) (A) (A) (A)
                 (A) (A) (A) (A) (A) (A) (A) (A) (A) (A) (A) (A)
                 (A) (A) (A) (A) (A) (A) (A) (A) (A) (A) (A) (A)
                 (A) (A) (A) (A) (A) (A) (A) (A) (A) (A) (A) (A)
                 (A) (A) (A) (A) (A) (A) (A) (A) (A) (A) (A) (A)
                 (A) (A) (A) (A) (A) (A) (A) (A) (A) (A) (A) (A)
                 (A) (A) (A) (A) (A) (A) (A) (A) (A) (A) (A) (A)
                 (A) (A) (A) (A) (A) (A) (A) (A) (A) (A) (A) (A)
                 (A) (A) (A) (A) (A) (A) (A) (A) (A) (A) (A) (A)
                 (A) (A) (A) (A) (A) (A) (A) (A) (A) (A) (A) (A)
                 (A) (A) (A) (A) (A) (A) (A) (A) (A) (A) (A) (A)
                 (A) (A) (A) (A) (A) (A) (A) (A) (A) (A) (A) (A)
                 (A) (A) (A) (A) (A) (A) (A) (A) (A) (A) (A) (A)
                 (A) (A) (A) (A) (A) (A) (A) (A) (A) (A) (A) (A)
                 (A) (A) (A) (A) (A) (A) (A) (A) (A) (A) (A) (A)
                 (A) (A) (A) (A) (A) (A) (A) (A) (A) (A) (A) (A)
                 (A) (A) (A) (A) (A) (A) (A) (A) (A) (A) (A) (A)
                 (A) (A) (A) (A) (A) (A) (A) (A) (A) (A) (A) (A)
                 (A) (A) (A) (A) (A) (A) (A) (A) (A) (A) (A) (A)
                 (A) (A) (A) (A) (A) (A) (A) (A) (A) (A) (A) (A)
                 (A) (A) (A) (A) (A) (A) (A) (A) (A) (A) (A) (A)
                 (A) (A) (A) (A) (A) (A) (A) (A) (A) (A) (A) (A)
                 (A) (A) (A) (A) (A) (A) (A) (A) (A) (A) (A) (A)
                 (A) (A) (A) (A) (A) (A) (A) (A) (A) (A) (A) (A)
                 (A) (A) (A) (A) (A) (A) (A) (A) (A) (A) (A) (A)
                 (A) (A) (A) (A) (A) (A) (A) (A) (A) (A) (A) (A)
                 (A) (A) (A) (A) (A) (A) (A) (A) (A) (A) (A) (A)
                 (A) (A) (A) (A) (A) (A) (A) (A) (A) (A) (A) (A)
                 (A) (A) (A) (A) (A) (A) (A) (A) (A) (A) (A) (A)
                 (A) (A) (A) (A) (A) (A) (A) (A) (A) (A) (A) (A)
                 (A) (A) (A) (A) (A) (A) (A) (A) (A) (A) (A) (A)
                 (A) (A) (A) (A) (A) (A) (A) (A) (A) (A) (A) (A)
                 (A) (A) (A) (A) (A) (A) (A) (A) (A) (A) (A) (A)
                 (A) (A) (A) (A) (A) (A) (A) (A) (A) (A) (A) (A)
                 (A) (A) (A) (A) (A) (A) (A) (A) (A) (A) (A) (A)
                 (A) (A) (A) (A) (A) (A) (A) (A) (A) (A) (A) (A)
                 (A) (A) (A) (A) (A) (A) (A) (A) (A) (A) (A) (A)
                 (A) (A) (A) (A) (A) (A) (A) (A) (A) (A) (A) (A)
                 (A) (A) (A) (A) (A) (A) (A) (A) (A) (A) (A) (A)
                 (A) (A) (A) (A) (A) (A) (A) (A) (A) (A) (A) (A)
                 (A) (A) (A) (A) (A) (A) (A) (A) (A) (A) (A) (A)
                 (A) (A) (A) (A) (A) (A) (A) (A) (A) (A) (A) (A)
                 (A) (A) (A) (A) (A) (A) (A) (A) (A) (A) (A) (A)
                 (A) (A) (A) (A) (A) (A) (A) (A) (A) (A) (A) (A)
                 (A) (A) (A) (A) (A) (A) (A) (A) (A) (A) (A) (A)
                 (A) (A) (A) (A) (A) (A) (A) (A) (A) (A) (A) (A)
                 (A) (A) (A) (A) (A) (A) (A) (A) (A) (A) (A) (A)
                 (A) (A) (A) (A) (A) (A) (A) (A) (A) (A) (A) (A)
                 (A) (A) (A) (A) (A) (A) (A) (A) (A) (A) (A) (A)
                 (A) (A) (A) (A) (A) (A) (A) (A) (A) (A) (A) (A)
                 (A) (A) (A) (A) (A) (A) (A) (A) (A) (A) (A) (A)
                 (A) (A) (A) (A) (A) (A) (A) (A) (A) (A) (A) (A)
                 (A) (A) (A) (A) (A) (A) (A) (A) (A) (A) (A) (A)
                 (A) (A) (A) (A) (A) (A) (A) (A) (A) (A) (A) (A)
                 (A) (A) (A) (A) (A) (A) (A) (A) (A) (A) (A) (A)
                 (A) (A) (A) (A) (A) (A) (A) (A) (A) (A) (A) (A)
                 (A) (A) (A) (A) (A) (A) (A) (A) (A) (A) (A) (A)
                 (A) (A) (A) (A) (A) (A) (A) (A) (A) (A) (A) (A)
                 (A) (A) (A) (A) (A) (A) (A) (A) (A) (A) (A) (A)
                 (A) (A) (A) (A) (A) (A) (A) (A) (A) (A) (A) (A)
                 (A) (A) (A) (A) (A) (A) (A) (A) (A) (A) (A) (A)
                 (A) (A) (A) (A) (A) (A) (A) (A) (A) (A) (A) (A)
                 (A) (A) (A) (A) (A) (A) (A) (A) (A) (A) (A) (A)
                 (A) (A) (A) (A) (A) (A) (A) (A) (A) (A) (A) (A)
                 (A) (A) (A) (A) (A) (A) (A) (A) (A) (A) (A) (A)
                 (A) (A) (A) (A) (A) (A) (A) (A) (A) (A) (A) (A)
                 (A) (A) (A) (A) (A) (A) (A) (A) (A) (A) (A) (A)
                 (A) (A) (A) (A) (A) (A) (A) (A) (A) (A) (A) (A)
                 (A) (A) (A) (A) (A) (A) (A) (A) (A)
 The electronic state is 1-A.
 Alpha  occ. eigenvalues --  -19.25023 -19.18644 -19.17173 -14.43072 -14.40496
 Alpha  occ. eigenvalues --  -10.35341 -10.33180 -10.31082 -10.29441 -10.26457
 Alpha  occ. eigenvalues --  -10.25179 -10.25151 -10.25111 -10.25060 -10.25008
 Alpha  occ. eigenvalues --  -10.24913 -10.24406  -1.09333  -1.06659  -1.04824
 Alpha  occ. eigenvalues --   -0.95848  -0.93230  -0.88045  -0.81626  -0.77402
 Alpha  occ. eigenvalues --   -0.77078  -0.74421  -0.71720  -0.66279  -0.64486
 Alpha  occ. eigenvalues --   -0.61493  -0.60729  -0.58608  -0.56709  -0.55138
 Alpha  occ. eigenvalues --   -0.52025  -0.51339  -0.50046  -0.48634  -0.46931
 Alpha  occ. eigenvalues --   -0.46720  -0.45817  -0.45600  -0.44313  -0.43848
 Alpha  occ. eigenvalues --   -0.43390  -0.42754  -0.42511  -0.41658  -0.40808
 Alpha  occ. eigenvalues --   -0.39518  -0.38934  -0.38237  -0.37615  -0.36647
 Alpha  occ. eigenvalues --   -0.35574  -0.35368  -0.30421  -0.28389  -0.27713
 Alpha  occ. eigenvalues --   -0.26918  -0.25979  -0.24042
 Alpha virt. eigenvalues --   -0.01793   0.00278   0.00992   0.01934   0.02108
 Alpha virt. eigenvalues --    0.03468   0.04153   0.04654   0.05552   0.06705
 Alpha virt. eigenvalues --    0.07713   0.08712   0.09141   0.10446   0.10741
 Alpha virt. eigenvalues --    0.11312   0.11952   0.12073   0.12988   0.13700
 Alpha virt. eigenvalues --    0.15513   0.16362   0.17710   0.18212   0.18904
 Alpha virt. eigenvalues --    0.19438   0.20421   0.21916   0.22350   0.23509
 Alpha virt. eigenvalues --    0.24355   0.24557   0.25322   0.25867   0.26121
 Alpha virt. eigenvalues --    0.27144   0.27793   0.28339   0.29319   0.29705
 Alpha virt. eigenvalues --    0.29951   0.30752   0.31573   0.32181   0.32509
 Alpha virt. eigenvalues --    0.33004   0.33474   0.34096   0.34471   0.35185
 Alpha virt. eigenvalues --    0.35460   0.36074   0.36353   0.36752   0.37352
 Alpha virt. eigenvalues --    0.38132   0.38401   0.39171   0.39338   0.40140
 Alpha virt. eigenvalues --    0.40287   0.40717   0.41006   0.41277   0.41887
 Alpha virt. eigenvalues --    0.42148   0.42810   0.43082   0.43457   0.43971
 Alpha virt. eigenvalues --    0.44375   0.44580   0.45269   0.45768   0.46261
 Alpha virt. eigenvalues --    0.47021   0.48281   0.48882   0.50159   0.50444
 Alpha virt. eigenvalues --    0.50916   0.51134   0.51909   0.52843   0.53124
 Alpha virt. eigenvalues --    0.53337   0.54739   0.55508   0.56058   0.56718
 Alpha virt. eigenvalues --    0.58204   0.58638   0.59403   0.60529   0.61044
 Alpha virt. eigenvalues --    0.62317   0.62583   0.63913   0.63999   0.65003
 Alpha virt. eigenvalues --    0.65486   0.66121   0.66707   0.66975   0.68253
 Alpha virt. eigenvalues --    0.68824   0.70679   0.71132   0.72486   0.72555
 Alpha virt. eigenvalues --    0.73756   0.74195   0.74677   0.74907   0.75610
 Alpha virt. eigenvalues --    0.76672   0.77451   0.79031   0.79662   0.80088
 Alpha virt. eigenvalues --    0.80390   0.80703   0.81341   0.82331   0.82544
 Alpha virt. eigenvalues --    0.82926   0.84150   0.85017   0.86466   0.86657
 Alpha virt. eigenvalues --    0.87618   0.88520   0.88669   0.90184   0.90337
 Alpha virt. eigenvalues --    0.91430   0.91976   0.92709   0.93911   0.94209
 Alpha virt. eigenvalues --    0.94803   0.95792   0.96274   0.96454   0.97422
 Alpha virt. eigenvalues --    0.97984   0.98948   0.99775   1.00451   1.00824
 Alpha virt. eigenvalues --    1.01570   1.02929   1.03633   1.04973   1.05085
 Alpha virt. eigenvalues --    1.06145   1.06912   1.07482   1.08257   1.08624
 Alpha virt. eigenvalues --    1.10168   1.10490   1.11858   1.12588   1.13284
 Alpha virt. eigenvalues --    1.14091   1.15311   1.16108   1.16160   1.17605
 Alpha virt. eigenvalues --    1.17938   1.18004   1.18603   1.19267   1.20037
 Alpha virt. eigenvalues --    1.21291   1.21523   1.21711   1.21911   1.22831
 Alpha virt. eigenvalues --    1.23054   1.23519   1.24042   1.24118   1.24886
 Alpha virt. eigenvalues --    1.25466   1.25886   1.26327   1.26623   1.27393
 Alpha virt. eigenvalues --    1.27837   1.29108   1.29438   1.30480   1.30686
 Alpha virt. eigenvalues --    1.32135   1.32450   1.32769   1.33428   1.34031
 Alpha virt. eigenvalues --    1.34367   1.35119   1.35557   1.36909   1.37829
 Alpha virt. eigenvalues --    1.38358   1.40066   1.41222   1.43128   1.45766
 Alpha virt. eigenvalues --    1.46357   1.47760   1.48343   1.49395   1.52920
 Alpha virt. eigenvalues --    1.53278   1.54421   1.55650   1.56961   1.57394
 Alpha virt. eigenvalues --    1.58790   1.60203   1.61768   1.62052   1.62862
 Alpha virt. eigenvalues --    1.64069   1.65179   1.67234   1.68941   1.71505
 Alpha virt. eigenvalues --    1.71979   1.73993   1.75681   1.77984   1.79733
 Alpha virt. eigenvalues --    1.80544   1.81366   1.82802   1.83844   1.84979
 Alpha virt. eigenvalues --    1.85502   1.88008   1.88936   1.89806   1.90781
 Alpha virt. eigenvalues --    1.91947   1.92322   1.93363   1.94905   1.96425
 Alpha virt. eigenvalues --    1.97105   1.99574   2.00565   2.01543   2.02740
 Alpha virt. eigenvalues --    2.03909   2.04926   2.07237   2.07721   2.08767
 Alpha virt. eigenvalues --    2.09458   2.11146   2.11558   2.12633   2.13338
 Alpha virt. eigenvalues --    2.14837   2.16160   2.17491   2.18690   2.19349
 Alpha virt. eigenvalues --    2.21377   2.21920   2.22751   2.24677   2.25483
 Alpha virt. eigenvalues --    2.28032   2.28574   2.30367   2.31634   2.32416
 Alpha virt. eigenvalues --    2.33590   2.34517   2.35935   2.37612   2.38667
 Alpha virt. eigenvalues --    2.38904   2.39297   2.41510   2.43036   2.43931
 Alpha virt. eigenvalues --    2.44626   2.45097   2.45771   2.46544   2.47957
 Alpha virt. eigenvalues --    2.50899   2.51271   2.51888   2.53072   2.53652
 Alpha virt. eigenvalues --    2.55886   2.56449   2.57164   2.57834   2.60688
 Alpha virt. eigenvalues --    2.61912   2.63483   2.65115   2.65832   2.66765
 Alpha virt. eigenvalues --    2.67472   2.67921   2.68411   2.69072   2.69895
 Alpha virt. eigenvalues --    2.70512   2.70861   2.71409   2.71800   2.72356
 Alpha virt. eigenvalues --    2.73590   2.74036   2.74554   2.75662   2.76406
 Alpha virt. eigenvalues --    2.76805   2.77933   2.78647   2.79589   2.80772
 Alpha virt. eigenvalues --    2.81127   2.81719   2.82341   2.83525   2.85241
 Alpha virt. eigenvalues --    2.86568   2.87563   2.87809   2.88341   2.88812
 Alpha virt. eigenvalues --    2.90289   2.91368   2.91971   2.92442   2.93186
 Alpha virt. eigenvalues --    2.93697   2.94640   2.94848   2.95268   2.95914
 Alpha virt. eigenvalues --    2.96234   2.96440   2.97299   2.97790   2.98460
 Alpha virt. eigenvalues --    2.99390   3.00477   3.00742   3.00973   3.02002
 Alpha virt. eigenvalues --    3.02664   3.02719   3.03685   3.04399   3.05063
 Alpha virt. eigenvalues --    3.05622   3.06199   3.06727   3.08076   3.08936
 Alpha virt. eigenvalues --    3.10246   3.11007   3.11536   3.12282   3.13437
 Alpha virt. eigenvalues --    3.14080   3.14572   3.14775   3.15784   3.16936
 Alpha virt. eigenvalues --    3.17283   3.18007   3.18730   3.19901   3.20535
 Alpha virt. eigenvalues --    3.21058   3.21868   3.23666   3.24010   3.24922
 Alpha virt. eigenvalues --    3.25465   3.25948   3.26631   3.27928   3.28066
 Alpha virt. eigenvalues --    3.28162   3.28325   3.29397   3.29654   3.30303
 Alpha virt. eigenvalues --    3.30942   3.32191   3.33254   3.34082   3.34334
 Alpha virt. eigenvalues --    3.35117   3.36034   3.36208   3.37346   3.38436
 Alpha virt. eigenvalues --    3.40074   3.41193   3.41349   3.41527   3.42381
 Alpha virt. eigenvalues --    3.42719   3.42954   3.44275   3.44857   3.46504
 Alpha virt. eigenvalues --    3.46934   3.47504   3.48523   3.49812   3.51468
 Alpha virt. eigenvalues --    3.52000   3.52550   3.53520   3.54438   3.55302
 Alpha virt. eigenvalues --    3.56919   3.58843   3.59690   3.60285   3.61364
 Alpha virt. eigenvalues --    3.62506   3.63047   3.63724   3.65615   3.66490
 Alpha virt. eigenvalues --    3.67857   3.67973   3.68877   3.69777   3.70840
 Alpha virt. eigenvalues --    3.71469   3.72458   3.72678   3.73268   3.73469
 Alpha virt. eigenvalues --    3.74375   3.74730   3.75657   3.76916   3.77362
 Alpha virt. eigenvalues --    3.77594   3.78853   3.79756   3.80792   3.81951
 Alpha virt. eigenvalues --    3.82807   3.83528   3.84310   3.84805   3.85703
 Alpha virt. eigenvalues --    3.86236   3.87101   3.87755   3.88499   3.89703
 Alpha virt. eigenvalues --    3.90743   3.91513   3.92846   3.94468   3.94841
 Alpha virt. eigenvalues --    3.95868   3.97105   3.98630   3.99441   3.99964
 Alpha virt. eigenvalues --    4.01889   4.02468   4.04049   4.04328   4.05448
 Alpha virt. eigenvalues --    4.05642   4.06522   4.07689   4.07956   4.08423
 Alpha virt. eigenvalues --    4.08775   4.10315   4.12390   4.13128   4.14028
 Alpha virt. eigenvalues --    4.14454   4.14904   4.16769   4.17300   4.18823
 Alpha virt. eigenvalues --    4.19587   4.20413   4.21109   4.21480   4.21590
 Alpha virt. eigenvalues --    4.22898   4.23654   4.24921   4.26487   4.27021
 Alpha virt. eigenvalues --    4.27252   4.27979   4.28947   4.29951   4.31328
 Alpha virt. eigenvalues --    4.31928   4.33226   4.34621   4.35334   4.37771
 Alpha virt. eigenvalues --    4.38744   4.40564   4.42936   4.43056   4.44421
 Alpha virt. eigenvalues --    4.45573   4.46107   4.49012   4.50545   4.51758
 Alpha virt. eigenvalues --    4.52968   4.54178   4.56532   4.57732   4.58978
 Alpha virt. eigenvalues --    4.59833   4.60923   4.62089   4.62775   4.64022
 Alpha virt. eigenvalues --    4.64462   4.65502   4.65892   4.66809   4.68457
 Alpha virt. eigenvalues --    4.69140   4.69355   4.71423   4.72374   4.73857
 Alpha virt. eigenvalues --    4.74857   4.76229   4.76529   4.79141   4.79964
 Alpha virt. eigenvalues --    4.80637   4.82550   4.84490   4.84574   4.85458
 Alpha virt. eigenvalues --    4.86670   4.88340   4.89648   4.90132   4.90553
 Alpha virt. eigenvalues --    4.92359   4.93263   4.93965   4.95576   4.96703
 Alpha virt. eigenvalues --    4.96979   4.99489   5.00387   5.01814   5.03201
 Alpha virt. eigenvalues --    5.03993   5.05688   5.06884   5.07316   5.10137
 Alpha virt. eigenvalues --    5.10870   5.11596   5.12471   5.13382   5.15498
 Alpha virt. eigenvalues --    5.16155   5.16967   5.18321   5.20185   5.21141
 Alpha virt. eigenvalues --    5.22522   5.23417   5.24829   5.26118   5.27400
 Alpha virt. eigenvalues --    5.30186   5.33811   5.35450   5.35975   5.37887
 Alpha virt. eigenvalues --    5.41150   5.41850   5.43950   5.45625   5.47135
 Alpha virt. eigenvalues --    5.51095   5.51870   5.52385   5.53521   5.55114
 Alpha virt. eigenvalues --    5.56509   5.57696   5.59228   5.61085   5.62235
 Alpha virt. eigenvalues --    5.63058   5.65458   5.65899   5.66086   5.67374
 Alpha virt. eigenvalues --    5.68811   5.69272   5.70875   5.72646   5.74491
 Alpha virt. eigenvalues --    5.75400   5.75998   5.79214   5.80535   5.80907
 Alpha virt. eigenvalues --    5.84947   5.88214   5.89566   5.91831   5.95596
 Alpha virt. eigenvalues --    5.98789   5.99522   6.05455   6.07502   6.09867
 Alpha virt. eigenvalues --    6.16159   6.17697   6.18777   6.24303   6.26266
 Alpha virt. eigenvalues --    6.45830   6.46538   6.50833   6.55554   6.60187
 Alpha virt. eigenvalues --    6.60695   6.61714   6.62142   6.64015   6.68292
 Alpha virt. eigenvalues --    6.79722   6.80070   6.81005   6.88126   6.88588
 Alpha virt. eigenvalues --    6.90241   6.91373   6.92667   6.94062   7.06345
 Alpha virt. eigenvalues --    7.17976   7.18785   7.22515   7.27635   7.28994
 Alpha virt. eigenvalues --    7.67468   7.99054   8.09101   8.11798   8.11911
 Alpha virt. eigenvalues --    8.16647   8.19152   8.26160   8.35974   8.66804
 Alpha virt. eigenvalues --    8.74445   8.75583   8.77302   8.81327   8.81440
 Alpha virt. eigenvalues --    8.83736   8.84250   8.85202   8.90075   8.91964
 Alpha virt. eigenvalues --    8.93288   8.94261   8.98106   9.01767   9.02901
 Alpha virt. eigenvalues --    9.08478   9.14629   9.17101   9.20953   9.30905
 Alpha virt. eigenvalues --    9.35875   9.40150   9.40685   9.45835   9.48346
 Alpha virt. eigenvalues --    9.57856   9.63142   9.78171   9.81585  10.02941
 Alpha virt. eigenvalues --   10.07178  10.11978  10.12878  10.13604  10.17936
[...]
 Alpha virt. eigenvalues --    6.61327   6.62210   6.63828   6.64342   6.72581
 Alpha virt. eigenvalues --    6.78115   6.80496   6.85929   6.86694   6.88365
 Alpha virt. eigenvalues --    6.91600   6.92753   7.08082   7.10347   7.10925
 Alpha virt. eigenvalues --    7.15017   7.19118   7.28652   7.43277   8.60453
 Alpha virt. eigenvalues --    9.54323   9.94154  12.08548  12.10279  12.28739
 Alpha virt. eigenvalues --   12.39774  12.47379  12.77636  12.92607  13.28008
 Alpha virt. eigenvalues --   13.50296  13.55253  13.62923  13.73234  14.01265
 Alpha virt. eigenvalues --   15.53969
          Condensed to atoms (all electrons):
               1          2          3          4          5          6
     1  C    5.404950   0.238581  -0.003538  -0.040800  -0.023997   0.308902
     2  C    0.238581   5.329141   0.309197  -0.007403  -0.027644   0.017905
     3  C   -0.003538   0.309197   5.491086   0.266177  -0.049039  -0.064466
     4  C   -0.040800  -0.007403   0.266177   5.266464   0.430070  -0.024473
     5  C   -0.023997  -0.027644  -0.049039   0.430070   5.056551   0.398967
     6  C    0.308902   0.017905  -0.064466  -0.024473   0.398967   4.862326
     7  H    0.450767  -0.034037   0.008827  -0.000571   0.003757  -0.072796
     8  H   -0.020062   0.436742  -0.077684   0.006885  -0.001424   0.006731
     9  H   -0.003248   0.008433  -0.098379   0.448427  -0.029629   0.010419
    10  H    0.014111  -0.005780   0.013522  -0.055593   0.449878  -0.076551
    11  C    0.004069  -0.052374   0.122718  -0.028114   0.008654  -0.000567
    12  H    0.000183  -0.005580  -0.042282   0.005551  -0.000189   0.000050
    13  H   -0.000227   0.004398  -0.050354  -0.002558   0.000067   0.000013
    14  C    0.001415   0.000644  -0.024419  -0.007744   0.000057  -0.000350
    15  H   -0.000135  -0.002860   0.004137  -0.000656  -0.000099  -0.000025
    16  C   -0.000016   0.001644   0.008291   0.000123  -0.000034   0.000000
    17  O   -0.090496   0.013682  -0.000673   0.002880  -0.049180   0.392555
    18  H   -0.004735   0.004560  -0.000355  -0.000748   0.002304  -0.043466
    19  O    0.000000  -0.000163   0.006513  -0.000301  -0.000002   0.000000
    20  N   -0.000154   0.002277  -0.007914   0.005289  -0.000440   0.000105
    21  H   -0.000233   0.000812  -0.003389   0.003260  -0.000177   0.000039
    22  N    0.000000  -0.000096   0.000774  -0.000030   0.000000   0.000000
    23  H   -0.000002  -0.000030  -0.000247   0.000024   0.000000   0.000000
    24  C    0.000059   0.000015  -0.003696  -0.000404   0.000118  -0.000011
    25  C   -0.000009   0.000025   0.000026   0.000099   0.000059  -0.000012
    26  H    0.000039  -0.000031   0.000053  -0.000106   0.000050   0.000001
    27  H    0.000000   0.000005  -0.000018   0.000020   0.000000   0.000001
    28  H   -0.000003   0.000025   0.000193  -0.000055   0.000058  -0.000010
    29  C    0.000000   0.000007  -0.000044   0.000002   0.000000   0.000000
    30  H    0.000000  -0.000001  -0.000002   0.000000   0.000000   0.000000
    31  H    0.000000   0.000000  -0.000002   0.000000   0.000000   0.000000
    32  H    0.000000   0.000002  -0.000003   0.000000   0.000000   0.000000
    33  O   -0.000026  -0.000249  -0.000037  -0.000026   0.000004  -0.000001
               7          8          9         10         11         12
     1  C    0.450767  -0.020062  -0.003248   0.014111   0.004069   0.000183
     2  C   -0.034037   0.436742   0.008433  -0.005780  -0.052374  -0.005580
     3  C    0.008827  -0.077684  -0.098379   0.013522   0.122718  -0.042282
     4  C   -0.000571   0.006885   0.448427  -0.055593  -0.028114   0.005551
     5  C    0.003757  -0.001424  -0.029629   0.449878   0.008654  -0.000189
     6  C   -0.072796   0.006731   0.010419  -0.076551  -0.000567   0.000050
     7  H    0.534390  -0.006680   0.000053  -0.000231  -0.000276  -0.000017
     8  H   -0.006680   0.498486  -0.000223   0.000046   0.002794   0.000694
     9  H    0.000053  -0.000223   0.497451  -0.008868   0.007575   0.000265
    10  H   -0.000231   0.000046  -0.008868   0.538393  -0.000302   0.000015
    11  C   -0.000276   0.002794   0.007575  -0.000302   5.407378   0.436160
    12  H   -0.000017   0.000694   0.000265   0.000015   0.436160   0.460357
    13  H    0.000018   0.000184   0.002227  -0.000043   0.425527  -0.000852
    14  C    0.000056  -0.000393  -0.000978   0.000029   0.179525  -0.058585
    15  H    0.000029   0.001389  -0.000038   0.000001  -0.002668  -0.002492
    16  C    0.000000   0.000106   0.000030   0.000000  -0.068762   0.004932
    17  O   -0.004131  -0.000110  -0.000134   0.006217  -0.000009  -0.000001
    18  H    0.004576  -0.000006   0.000044  -0.000935  -0.000006   0.000000
    19  O    0.000000   0.000019  -0.000042   0.000000   0.016950   0.004498
    20  N   -0.000006   0.000111  -0.000256  -0.000004  -0.052300   0.003708
    21  H    0.000001   0.000019   0.001550  -0.000043   0.009025   0.000201
    22  N    0.000000  -0.000020   0.000000   0.000000   0.008046   0.000157
    23  H    0.000000  -0.000013   0.000001   0.000000  -0.000182  -0.000037
    24  C   -0.000001  -0.000037   0.000033   0.000001   0.007552   0.000061
    25  C    0.000000  -0.000005   0.000012   0.000004  -0.000182   0.000034
    26  H    0.000001   0.000003  -0.000010   0.000002   0.000056  -0.000003
    27  H    0.000000   0.000000   0.000001   0.000000  -0.000052  -0.000001
    28  H    0.000000   0.000003   0.000022   0.000005  -0.000254   0.000000
    29  C    0.000000  -0.000001   0.000000   0.000000  -0.001082  -0.000008
    30  H    0.000000   0.000000   0.000000   0.000000  -0.000081  -0.000022
    31  H    0.000000   0.000000   0.000000   0.000000  -0.000016  -0.000001
    32  H    0.000000   0.000001   0.000000   0.000000  -0.000003   0.000031
    33  O    0.000000  -0.000084   0.000000   0.000000   0.002698   0.000051
              13         14         15         16         17         18
     1  C   -0.000227   0.001415  -0.000135  -0.000016  -0.090496  -0.004735
     2  C    0.004398   0.000644  -0.002860   0.001644   0.013682   0.004560
     3  C   -0.050354  -0.024419   0.004137   0.008291  -0.000673  -0.000355
     4  C   -0.002558  -0.007744  -0.000656   0.000123   0.002880  -0.000748
     5  C    0.000067   0.000057  -0.000099  -0.000034  -0.049180   0.002304
     6  C    0.000013  -0.000350  -0.000025   0.000000   0.392555  -0.043466
     7  H    0.000018   0.000056   0.000029   0.000000  -0.004131   0.004576
     8  H    0.000184  -0.000393   0.001389   0.000106  -0.000110  -0.000006
     9  H    0.002227  -0.000978  -0.000038   0.000030  -0.000134   0.000044
    10  H   -0.000043   0.000029   0.000001   0.000000   0.006217  -0.000935
    11  C    0.425527   0.179525  -0.002668  -0.068762  -0.000009  -0.000006
    12  H   -0.000852  -0.058585  -0.002492   0.004932  -0.000001   0.000000
    13  H    0.446830  -0.048809   0.005378  -0.002247   0.000000   0.000000
    14  C   -0.048809   5.621644   0.384838   0.151722   0.000002   0.000000
    15  H    0.005378   0.384838   0.451818  -0.032415   0.000000   0.000000
    16  C   -0.002247   0.151722  -0.032415   4.559086   0.000000   0.000000
    17  O    0.000000   0.000002   0.000000   0.000000   7.664069   0.359830
    18  H    0.000000   0.000000   0.000000   0.000000   0.359830   0.489911
    19  O    0.012079  -0.109278   0.002105   0.723872   0.000000   0.000000
    20  N   -0.003668   0.200383  -0.046918  -0.007001   0.000000   0.000000
    21  H    0.003872  -0.031371   0.005228   0.000339   0.000001   0.000000
    22  N    0.000693  -0.094646   0.002882   0.466226   0.000000   0.000000
    23  H   -0.000092   0.006779  -0.000044  -0.028396   0.000000   0.000000
    24  C   -0.000928  -0.059257  -0.014771   0.002022   0.000000   0.000000
    25  C   -0.000113   0.009880   0.000763  -0.001217   0.000000   0.000000
    26  H    0.000015  -0.000439   0.000163   0.000019  -0.000001   0.000000
    27  H   -0.000009  -0.000413  -0.000273   0.000115   0.000000   0.000000
    28  H   -0.000008   0.000154  -0.000298   0.000231   0.000000   0.000000
    29  C   -0.000128   0.013527  -0.000814  -0.061249   0.000000   0.000000
    30  H    0.000031   0.001475   0.000188  -0.008336   0.000000   0.000000
    31  H   -0.000004   0.000975  -0.000159   0.006442   0.000000   0.000000
    32  H   -0.000030  -0.000788  -0.000372  -0.003585   0.000000   0.000000
    33  O   -0.000032   0.023894   0.019329  -0.018889   0.000000   0.000000
              19         20         21         22         23         24
     1  C    0.000000  -0.000154  -0.000233   0.000000  -0.000002   0.000059
     2  C   -0.000163   0.002277   0.000812  -0.000096  -0.000030   0.000015
     3  C    0.006513  -0.007914  -0.003389   0.000774  -0.000247  -0.003696
     4  C   -0.000301   0.005289   0.003260  -0.000030   0.000024  -0.000404
     5  C   -0.000002  -0.000440  -0.000177   0.000000   0.000000   0.000118
     6  C    0.000000   0.000105   0.000039   0.000000   0.000000  -0.000011
     7  H    0.000000  -0.000006   0.000001   0.000000   0.000000  -0.000001
     8  H    0.000019   0.000111   0.000019  -0.000020  -0.000013  -0.000037
     9  H   -0.000042  -0.000256   0.001550   0.000000   0.000001   0.000033
    10  H    0.000000  -0.000004  -0.000043   0.000000   0.000000   0.000001
    11  C    0.016950  -0.052300   0.009025   0.008046  -0.000182   0.007552
    12  H    0.004498   0.003708   0.000201   0.000157  -0.000037   0.000061
    13  H    0.012079  -0.003668   0.003872   0.000693  -0.000092  -0.000928
    14  C   -0.109278   0.200383  -0.031371  -0.094646   0.006779  -0.059257
    15  H    0.002105  -0.046918   0.005228   0.002882  -0.000044  -0.014771
    16  C    0.723872  -0.007001   0.000339   0.466226  -0.028396   0.002022
    17  O    0.000000   0.000000   0.000001   0.000000   0.000000   0.000000
    18  H    0.000000   0.000000   0.000000   0.000000   0.000000   0.000000
    19  O    7.839300   0.000731   0.000483  -0.123597   0.003592  -0.000607
    20  N    0.000731   6.531908   0.368084  -0.004956  -0.006946   0.368029
    21  H    0.000483   0.368084   0.504671  -0.000243  -0.000306  -0.017705
    22  N   -0.123597  -0.004956  -0.000243   6.392931   0.380241   0.009798
    23  H    0.003592  -0.006946  -0.000306   0.380241   0.457944  -0.004342
    24  C   -0.000607   0.368029  -0.017705   0.009798  -0.004342   4.567745
    25  C   -0.000001  -0.050307  -0.002653   0.000081   0.001568   0.285961
    26  H    0.000000  -0.002012   0.000502  -0.000005  -0.000037  -0.022592
    27  H   -0.000002   0.000902  -0.000492   0.000125   0.000019  -0.031517
    28  H   -0.000003   0.010462  -0.000871   0.000059  -0.000231  -0.060110
    29  C    0.009244  -0.000680  -0.000005   0.291393  -0.027779   0.000094
    30  H    0.004964   0.000215   0.000007  -0.048155   0.003940  -0.000549
    31  H    0.001464  -0.000078  -0.000003  -0.026539  -0.007714   0.000063
    32  H    0.004623  -0.000060  -0.000001  -0.046846   0.001172   0.000217
    33  O    0.000029  -0.134775   0.004301  -0.014819   0.037511   0.654892
              25         26         27         28         29         30
     1  C   -0.000009   0.000039   0.000000  -0.000003   0.000000   0.000000
     2  C    0.000025  -0.000031   0.000005   0.000025   0.000007  -0.000001
     3  C    0.000026   0.000053  -0.000018   0.000193  -0.000044  -0.000002
     4  C    0.000099  -0.000106   0.000020  -0.000055   0.000002   0.000000
     5  C    0.000059   0.000050   0.000000   0.000058   0.000000   0.000000
     6  C   -0.000012   0.000001   0.000001  -0.000010   0.000000   0.000000
     7  H    0.000000   0.000001   0.000000   0.000000   0.000000   0.000000
     8  H   -0.000005   0.000003   0.000000   0.000003  -0.000001   0.000000
     9  H    0.000012  -0.000010   0.000001   0.000022   0.000000   0.000000
    10  H    0.000004   0.000002   0.000000   0.000005   0.000000   0.000000
    11  C   -0.000182   0.000056  -0.000052  -0.000254  -0.001082  -0.000081
    12  H    0.000034  -0.000003  -0.000001   0.000000  -0.000008  -0.000022
    13  H   -0.000113   0.000015  -0.000009  -0.000008  -0.000128   0.000031
    14  C    0.009880  -0.000439  -0.000413   0.000154   0.013527   0.001475
    15  H    0.000763   0.000163  -0.000273  -0.000298  -0.000814   0.000188
    16  C   -0.001217   0.000019   0.000115   0.000231  -0.061249  -0.008336
    17  O    0.000000  -0.000001   0.000000   0.000000   0.000000   0.000000
    18  H    0.000000   0.000000   0.000000   0.000000   0.000000   0.000000
    19  O   -0.000001   0.000000  -0.000002  -0.000003   0.009244   0.004964
    20  N   -0.050307  -0.002012   0.000902   0.010462  -0.000680   0.000215
    21  H   -0.002653   0.000502  -0.000492  -0.000871  -0.000005   0.000007
    22  N    0.000081  -0.000005   0.000125   0.000059   0.291393  -0.048155
    23  H    0.001568  -0.000037   0.000019  -0.000231  -0.027779   0.003940
    24  C    0.285961  -0.022592  -0.031517  -0.060110   0.000094  -0.000549
    25  C    4.938510   0.385891   0.390991   0.405554  -0.000038  -0.000008
    26  H    0.385891   0.567296  -0.025520  -0.025265  -0.000001   0.000000
    27  H    0.390991  -0.025520   0.572517  -0.025002   0.000010  -0.000008
    28  H    0.405554  -0.025265  -0.025002   0.591988   0.000000  -0.000001
    29  C   -0.000038  -0.000001   0.000010   0.000000   4.764481   0.399084
    30  H   -0.000008   0.000000  -0.000008  -0.000001   0.399084   0.626256
    31  H   -0.000010   0.000000   0.000008   0.000000   0.395983  -0.028171
    32  H    0.000002   0.000000   0.000001   0.000000   0.399752  -0.058603
    33  O   -0.057562   0.000967   0.002831   0.003804   0.000151  -0.000013
              31         32         33
     1  C    0.000000   0.000000  -0.000026
     2  C    0.000000   0.000002  -0.000249
     3  C   -0.000002  -0.000003  -0.000037
     4  C    0.000000   0.000000  -0.000026
     5  C    0.000000   0.000000   0.000004
     6  C    0.000000   0.000000  -0.000001
     7  H    0.000000   0.000000   0.000000
     8  H    0.000000   0.000001  -0.000084
     9  H    0.000000   0.000000   0.000000
    10  H    0.000000   0.000000   0.000000
    11  C   -0.000016  -0.000003   0.002698
    12  H   -0.000001   0.000031   0.000051
    13  H   -0.000004  -0.000030  -0.000032
    14  C    0.000975  -0.000788   0.023894
    15  H   -0.000159  -0.000372   0.019329
    16  C    0.006442  -0.003585  -0.018889
    17  O    0.000000   0.000000   0.000000
    18  H    0.000000   0.000000   0.000000
    19  O    0.001464   0.004623   0.000029
    20  N   -0.000078  -0.000060  -0.134775
    21  H   -0.000003  -0.000001   0.004301
    22  N   -0.026539  -0.046846  -0.014819
    23  H   -0.007714   0.001172   0.037511
    24  C    0.000063   0.000217   0.654892
    25  C   -0.000010   0.000002  -0.057562
    26  H    0.000000   0.000000   0.000967
    27  H    0.000008   0.000001   0.002831
    28  H    0.000000   0.000000   0.003804
    29  C    0.395983   0.399752   0.000151
    30  H   -0.028171  -0.058603  -0.000013
    31  H    0.593801  -0.027356   0.000173
    32  H   -0.027356   0.620666  -0.000058
    33  O    0.000173  -0.000058   7.905448
 Mulliken charges:
               1
     1  C   -0.235394
     2  C   -0.231849
     3  C    0.195028
     4  C   -0.265690
     5  C   -0.168739
     6  C    0.284713
     7  H    0.116272
     8  H    0.152530
     9  H    0.165261
    10  H    0.126128
    11  C   -0.431495
    12  H    0.193120
    13  H    0.208766
    14  C   -0.159528
    15  H    0.226788
    16  C    0.306946
    17  O   -0.294500
    18  H    0.189025
    19  O   -0.396469
    20  N   -0.173731
    21  H    0.155098
    22  N   -0.193455
    23  H    0.183607
    24  C    0.319868
    25  C   -0.307342
    26  H    0.120965
    27  H    0.115759
    28  H    0.099555
    29  C   -0.181900
    30  H    0.107791
    31  H    0.091147
    32  H    0.111238
    33  O   -0.429512
 Sum of Mulliken charges =   0.00000
 Mulliken charges with hydrogens summed into heavy atoms:
               1
     1  C   -0.119123
     2  C   -0.079319
     3  C    0.195028
     4  C   -0.100429
     5  C   -0.042611
     6  C    0.284713
    11  C   -0.029608
    14  C    0.067260
    16  C    0.306946
    17  O   -0.105475
    19  O   -0.396469
    20  N   -0.018633
    22  N   -0.009848
    24  C    0.319868
    25  C    0.028936
    29  C    0.128276
    33  O   -0.429512
 Electronic spatial extent (au):  <R**2>=           5116.0268
 Charge=              0.0000 electrons
 Dipole moment (field-independent basis, Debye):
    X=              1.7822    Y=              2.1878    Z=             -0.2268  Tot=              2.8309
 Quadrupole moment (field-independent basis, Debye-Ang):
   XX=            -96.6702   YY=           -106.9542   ZZ=            -94.1566
   XY=             -5.0185   XZ=             -5.9397   YZ=              9.7889
 Traceless Quadrupole moment (field-independent basis, Debye-Ang):
   XX=              2.5901   YY=             -7.6939   ZZ=              5.1037
   XY=             -5.0185   XZ=             -5.9397   YZ=              9.7889
 Octapole moment (field-independent basis, Debye-Ang**2):
  XXX=            -34.1387  YYY=             35.9386  ZZZ=              0.0158  XYY=             12.8902
  XXY=             22.6774  XXZ=            -62.6627  XZZ=             27.5790  YZZ=             -0.7185
  YYZ=              3.2411  XYZ=            -18.5371
 Hexadecapole moment (field-independent basis, Debye-Ang**3):
 XXXX=          -4514.1381 YYYY=          -1249.9526 ZZZZ=           -482.7349 XXXY=            -23.5768
 XXXZ=           -203.1993 YYYX=            -16.9396 YYYZ=             41.8883 ZZZX=            -36.4570
 ZZZY=              6.3602 XXYY=          -1117.8225 XXZZ=           -783.4570 YYZZ=           -313.9329
 XXYZ=             24.9521 YYXZ=             -4.5814 ZZXY=             13.1807
 N-N= 1.207637565486D+03 E-N=-4.285521537528D+03  KE= 7.961992597567D+02
 Calculating spin-rotation constants.
 Leave Link  601 at Wed Jun 25 06:36:03 2014, MaxMem=  4294967296 cpu:        92.6
 (Enter /home/ztw1e12/g09/l9999.exe)

 Test job not archived.
 1\1\GINC-GREEN0575\SP\RM06\Gen\C12H16N2O3\ROOT\25-Jun-2014\0\\#P Geom=
 AllCheck Guess=TCheck SCRF=Check GenChk RM06/ChkBas NMR=ReadFC IOp(3/6
 =22)\\NMR spin-spin scan\\0,1\C,0,3.180496,-0.492769,-1.287426\C,0,1.9
 01604,-0.973921,-1.075898\C,0,1.346905,-1.016498,0.198461\C,0,2.11757,
 -0.562608,1.261277\C,0,3.399158,-0.077657,1.06797\C,0,3.930247,-0.0386
 95,-0.211414\H,0,3.607309,-0.464092,-2.283642\H,0,1.320034,-1.327485,-
 1.920856\H,0,1.704852,-0.590346,2.263959\H,0,3.99563,0.274723,1.899892
 \C,0,-0.055814,-1.501908,0.404024\H,0,-0.220132,-2.443317,-0.124159\H,
 0,-0.231492,-1.698103,1.465369\C,0,-1.093437,-0.510264,-0.091744\H,0,-
 0.938018,-0.330427,-1.160424\C,0,-2.516608,-1.040736,0.074382\O,0,5.19
 3362,0.451378,-0.362263\H,0,5.434559,0.430625,-1.295212\O,0,-2.772308,
 -2.068,0.697779\N,0,-0.930193,0.771564,0.578178\H,0,-0.48233,0.772922,
 1.483424\N,0,-3.455651,-0.297361,-0.516783\H,0,-3.161371,0.554107,-0.9
 80043\C,0,-1.198891,1.951386,-0.00497\C,0,-0.803861,3.173482,0.754558\
 H,0,-0.021342,3.68742,0.195393\H,0,-1.658042,3.846588,0.814096\H,0,-0.
 438216,2.9582,1.756222\C,0,-4.858672,-0.621921,-0.410081\H,0,-5.184605
 ,-0.637197,0.630836\H,0,-5.434912,0.128377,-0.942956\H,0,-5.070797,-1.
 598539,-0.846194\O,0,-1.734191,2.028607,-1.112886\\Version=EM64L-G09Re
 vD.01\State=1-A\HF=-801.8708492\RMSD=4.097e-09\Dipole=0.6904157,0.8695
 921,-0.0872437\Quadrupole=2.0142525,-5.8474482,3.8331957,-3.62193,-4.5
 143148,7.1995456\PG=C01 [X(C12H16N2O3)]\\@


 HAPPINESS IS NOT HAVING WHAT YOU WANT --
 HAPPINESS IS WANTING WHAT YOU HAVE!

              -- FROM MRS. SEVERN'S DESK
 Job cpu time:       3 days  6 hours 42 minutes 46.9 seconds.
 File lengths (MBytes):  RWF=   3656 Int=      0 D2E=      0 Chk=     64 Scr=      8
 Normal termination of Gaussian 09 at Wed Jun 25 06:36:04 2014.
