 Entering Gaussian System, Link 0=g09
 Input=scan_input_27.gjf
 Output=scan_input_27.log
 Initial command:
 /home/ztw1e12/g09/l1.exe "/home/ztw1e12/tyrosine_scan/tyrosine_chi1_scan/Gau-27275.inp" -scrdir="/home/ztw1e12/tyrosine_scan/tyrosine_chi1_scan/"
 Default is to use a total of   8 processors:
                                8 via shared-memory
                                1 via Linda
 Entering Link 1 = /home/ztw1e12/g09/l1.exe PID=     27276.
  
 Copyright (c) 1988,1990,1992,1993,1995,1998,2003,2009,2013,
            Gaussian, Inc.  All Rights Reserved.
  
 This is part of the Gaussian(R) 09 program.  It is based on
 the Gaussian(R) 03 system (copyright 2003, Gaussian, Inc.),
 the Gaussian(R) 98 system (copyright 1998, Gaussian, Inc.),
 the Gaussian(R) 94 system (copyright 1995, Gaussian, Inc.),
 the Gaussian 92(TM) system (copyright 1992, Gaussian, Inc.),
 the Gaussian 90(TM) system (copyright 1990, Gaussian, Inc.),
 the Gaussian 88(TM) system (copyright 1988, Gaussian, Inc.),
 the Gaussian 86(TM) system (copyright 1986, Carnegie Mellon
 University), and the Gaussian 82(TM) system (copyright 1983,
 Carnegie Mellon University). Gaussian is a federally registered
 trademark of Gaussian, Inc.
  
 This software contains proprietary and confidential information,
 including trade secrets, belonging to Gaussian, Inc.
  
 This software is provided under written license and may be
 used, copied, transmitted, or stored only in accord with that
 written license.
  
 The following legend is applicable only to US Government
 contracts under FAR:
  
                    RESTRICTED RIGHTS LEGEND
  
 Use, reproduction and disclosure by the US Government is
 subject to restrictions as set forth in subparagraphs (a)
 and (c) of the Commercial Computer Software - Restricted
 Rights clause in FAR 52.227-19.
  
 Gaussian, Inc.
 340 Quinnipiac St., Bldg. 40, Wallingford CT 06492
  
  
 ---------------------------------------------------------------
 Warning -- This program may not be used in any manner that
 competes with the business of Gaussian, Inc. or will provide
 assistance to any competitor of Gaussian, Inc.  The licensee
 of this program is prohibited from giving any competitor of
 Gaussian, Inc. access to this program.  By using this program,
 the user acknowledges that Gaussian, Inc. is engaged in the
 business of creating and licensing software in the field of
 computational chemistry and represents and warrants to the
 licensee that it is not a competitor of Gaussian, Inc. and that
 it will not use this program in any manner prohibited above.
 ---------------------------------------------------------------
  

 Cite this work as:
 Gaussian 09, Revision D.01,
 M. J. Frisch, G. W. Trucks, H. B. Schlegel, G. E. Scuseria, 
 M. A. Robb, J. R. Cheeseman, G. Scalmani, V. Barone, B. Mennucci, 
 G. A. Petersson, H. Nakatsuji, M. Caricato, X. Li, H. P. Hratchian, 
 A. F. Izmaylov, J. Bloino, G. Zheng, J. L. Sonnenberg, M. Hada, 
 M. Ehara, K. Toyota, R. Fukuda, J. Hasegawa, M. Ishida, T. Nakajima, 
 Y. Honda, O. Kitao, H. Nakai, T. Vreven, J. A. Montgomery, Jr., 
 J. E. Peralta, F. Ogliaro, M. Bearpark, J. J. Heyd, E. Brothers, 
 K. N. Kudin, V. N. Staroverov, T. Keith, R. Kobayashi, J. Normand, 
 K. Raghavachari, A. Rendell, J. C. Burant, S. S. Iyengar, J. Tomasi, 
 M. Cossi, N. Rega, J. M. Millam, M. Klene, J. E. Knox, J. B. Cross, 
 V. Bakken, C. Adamo, J. Jaramillo, R. Gomperts, R. E. Stratmann, 
 O. Yazyev, A. J. Austin, R. Cammi, C. Pomelli, J. W. Ochterski, 
 R. L. Martin, K. Morokuma, V. G. Zakrzewski, G. A. Voth, 
 P. Salvador, J. J. Dannenberg, S. Dapprich, A. D. Daniels, 
 O. Farkas, J. B. Foresman, J. V. Ortiz, J. Cioslowski, 
 and D. J. Fox, Gaussian, Inc., Wallingford CT, 2013.
 
 ******************************************
 Gaussian 09:  EM64L-G09RevD.01 24-Apr-2013
                24-Jun-2014 
 ******************************************
 %Mem=32GB
 %NProcShared=16
 Will use up to   16 processors via shared memory.
 Default route:  MaxDisk=100GB
 ----------------------------------------------------------------------
 #p nmr=(giao,mixed,spinspin) m06/cc-pvtz scf=tight integral=(grid=ultr
 afine)
 ----------------------------------------------------------------------
 1/38=1/1;
 2/12=2,17=6,18=5,40=1/2;
 3/5=16,6=1,10=1100000,11=2,16=1,25=1,30=1,74=-54,75=-5/1,2,8,3;
 4//1;
 5/5=2,32=2,38=5/2;
 8/6=1,10=90,11=11/1;
 10/13=100,45=16,47=3/2;
 6/7=2,8=2,9=2,10=2,28=1/1;
 99/9=1/99;
 Leave Link    1 at Tue Jun 24 17:04:57 2014, MaxMem=  4294967296 cpu:         5.9
 (Enter /home/ztw1e12/g09/l101.exe)
 ------------------
 NMR spin-spin scan
 ------------------
 Symbolic Z-matrix:
 Charge =  0 Multiplicity = 1
 C                     2.80028  -1.89989   1.86714 
 C                     2.18231  -0.74341   1.41908 
 C                     1.52888  -0.70371   0.1964 
 C                     1.50742  -1.86238  -0.57447 
 C                     2.116    -3.02374  -0.14251 
 C                     2.76466  -3.04275   1.0852 
 H                     3.30916  -1.92188   2.82395 
 H                     2.20812   0.14756   2.03644 
 H                     1.00124  -1.85109  -1.53444 
 H                     2.0997   -3.92295  -0.7452 
 C                     0.84924   0.53931  -0.2904 
 H                     1.15165   1.39903   0.31198 
 H                     1.17872   0.74486  -1.31243 
 C                    -0.68786   0.43111  -0.31241 
 H                    -0.97162  -0.62495  -0.29445 
 C                    -1.22923   1.0097    0.97871 
 O                     3.34998  -4.2116    1.47213 
 H                     3.76297  -4.09449   2.33513 
 O                    -1.06975   0.38609   2.02811 
 N                    -1.23101   1.01758  -1.51768 
 H                    -0.6202    1.55134  -2.11703 
 N                    -1.8036    2.21076   0.92771 
 H                    -1.93236   2.64684   0.02893 
 C                    -2.486     0.75131  -1.93341 
 C                    -2.89436   1.34645  -3.23993 
 H                    -3.27497   0.55369  -3.88289 
 H                    -3.71286   2.04506  -3.06499 
 H                    -2.08438   1.86655  -3.74671 
 C                    -2.31943   2.85367   2.11478 
 H                    -1.52179   3.05409   2.83053 
 H                    -2.78015   3.79572   1.83428 
 H                    -3.06722   2.22935   2.60447 
 O                    -3.2527    0.06033  -1.26715 
 
 NAtoms=     33 NQM=       33 NQMF=       0 NMMI=      0 NMMIF=      0
                NMic=       0 NMicF=      0.
                    Isotopes and Nuclear Properties:
 (Nuclear quadrupole moments (NQMom) in fm**2, nuclear magnetic moments (NMagM)
  in nuclear magnetons)

  Atom         1           2           3           4           5           6           7           8           9          10
 IAtWgt=          12          12          12          12          12          12           1           1           1           1
 AtmWgt=  12.0000000  12.0000000  12.0000000  12.0000000  12.0000000  12.0000000   1.0078250   1.0078250   1.0078250   1.0078250
 NucSpn=           0           0           0           0           0           0           1           1           1           1
 AtZEff=   0.0000000   0.0000000   0.0000000   0.0000000   0.0000000   0.0000000   0.0000000   0.0000000   0.0000000   0.0000000
 NQMom=    0.0000000   0.0000000   0.0000000   0.0000000   0.0000000   0.0000000   0.0000000   0.0000000   0.0000000   0.0000000
 NMagM=    0.0000000   0.0000000   0.0000000   0.0000000   0.0000000   0.0000000   2.7928460   2.7928460   2.7928460   2.7928460
 AtZNuc=   6.0000000   6.0000000   6.0000000   6.0000000   6.0000000   6.0000000   1.0000000   1.0000000   1.0000000   1.0000000

  Atom        11          12          13          14          15          16          17          18          19          20
 IAtWgt=          12           1           1          12           1          12          16           1          16          14
 AtmWgt=  12.0000000   1.0078250   1.0078250  12.0000000   1.0078250  12.0000000  15.9949146   1.0078250  15.9949146  14.0030740
 NucSpn=           0           1           1           0           1           0           0           1           0           2
 AtZEff=   0.0000000   0.0000000   0.0000000   0.0000000   0.0000000   0.0000000   0.0000000   0.0000000   0.0000000   0.0000000
 NQMom=    0.0000000   0.0000000   0.0000000   0.0000000   0.0000000   0.0000000   0.0000000   0.0000000   0.0000000   2.0440000
 NMagM=    0.0000000   2.7928460   2.7928460   0.0000000   2.7928460   0.0000000   0.0000000   2.7928460   0.0000000   0.4037610
 AtZNuc=   6.0000000   1.0000000   1.0000000   6.0000000   1.0000000   6.0000000   8.0000000   1.0000000   8.0000000   7.0000000

  Atom        21          22          23          24          25          26          27          28          29          30
 IAtWgt=           1          14           1          12          12           1           1           1          12           1
 AtmWgt=   1.0078250  14.0030740   1.0078250  12.0000000  12.0000000   1.0078250   1.0078250   1.0078250  12.0000000   1.0078250
 NucSpn=           1           2           1           0           0           1           1           1           0           1
 AtZEff=   0.0000000   0.0000000   0.0000000   0.0000000   0.0000000   0.0000000   0.0000000   0.0000000   0.0000000   0.0000000
 NQMom=    0.0000000   2.0440000   0.0000000   0.0000000   0.0000000   0.0000000   0.0000000   0.0000000   0.0000000   0.0000000
 NMagM=    2.7928460   0.4037610   2.7928460   0.0000000   0.0000000   2.7928460   2.7928460   2.7928460   0.0000000   2.7928460
 AtZNuc=   1.0000000   7.0000000   1.0000000   6.0000000   6.0000000   1.0000000   1.0000000   1.0000000   6.0000000   1.0000000

  Atom        31          32          33
 IAtWgt=           1           1          16
 AtmWgt=   1.0078250   1.0078250  15.9949146
 NucSpn=           1           1           0
 AtZEff=   0.0000000   0.0000000   0.0000000
 NQMom=    0.0000000   0.0000000   0.0000000
 NMagM=    2.7928460   2.7928460   0.0000000
 AtZNuc=   1.0000000   1.0000000   8.0000000
 Leave Link  101 at Tue Jun 24 17:04:58 2014, MaxMem=  4294967296 cpu:         1.9
 (Enter /home/ztw1e12/g09/l202.exe)
                          Input orientation:                          
 ---------------------------------------------------------------------
 Center     Atomic      Atomic             Coordinates (Angstroms)
 Number     Number       Type             X           Y           Z
 ---------------------------------------------------------------------
      1          6           0        2.800278   -1.899893    1.867138
      2          6           0        2.182310   -0.743414    1.419078
      3          6           0        1.528876   -0.703705    0.196404
      4          6           0        1.507422   -1.862384   -0.574468
      5          6           0        2.115996   -3.023743   -0.142508
      6          6           0        2.764663   -3.042747    1.085196
      7          1           0        3.309163   -1.921880    2.823949
      8          1           0        2.208124    0.147556    2.036444
      9          1           0        1.001241   -1.851089   -1.534438
     10          1           0        2.099702   -3.922952   -0.745200
     11          6           0        0.849237    0.539312   -0.290404
     12          1           0        1.151645    1.399027    0.311977
     13          1           0        1.178715    0.744862   -1.312425
     14          6           0       -0.687864    0.431109   -0.312414
     15          1           0       -0.971617   -0.624945   -0.294454
     16          6           0       -1.229226    1.009695    0.978709
     17          8           0        3.349984   -4.211597    1.472128
     18          1           0        3.762965   -4.094492    2.335125
     19          8           0       -1.069746    0.386089    2.028113
     20          7           0       -1.231014    1.017581   -1.517684
     21          1           0       -0.620197    1.551335   -2.117034
     22          7           0       -1.803600    2.210756    0.927714
     23          1           0       -1.932359    2.646842    0.028931
     24          6           0       -2.486003    0.751307   -1.933406
     25          6           0       -2.894360    1.346451   -3.239933
     26          1           0       -3.274972    0.553690   -3.882890
     27          1           0       -3.712859    2.045061   -3.064990
     28          1           0       -2.084380    1.866546   -3.746711
     29          6           0       -2.319425    2.853672    2.114782
     30          1           0       -1.521786    3.054089    2.830534
     31          1           0       -2.780154    3.795724    1.834282
     32          1           0       -3.067220    2.229347    2.604471
     33          8           0       -3.252695    0.060325   -1.267148
 ---------------------------------------------------------------------
                    Distance matrix (angstroms):
                    1          2          3          4          5
     1  C    0.000000
     2  C    1.385672   0.000000
     3  C    2.416336   1.386897   0.000000
     4  C    2.763028   2.383651   1.391848   0.000000
     5  C    2.402074   2.764570   2.417053   1.380473   0.000000
     6  C    1.385214   2.395317   2.790742   2.393407   1.388664
     7  H    1.083944   2.152264   3.399612   3.846953   3.381955
     8  H    2.138073   1.084267   2.138170   3.368635   3.848825
     9  H    3.848329   3.368252   2.142593   1.085306   2.134307
    10  H    3.377556   3.847127   3.402354   2.150787   1.082626
    11  C    3.796218   2.518888   1.497993   2.506401   3.784430
    12  H    4.002423   2.622593   2.139426   3.398406   4.549442
    13  H    4.442276   3.268528   2.120737   2.729535   4.055809
    14  C    4.727700   3.551826   2.541778   3.185602   4.452696
    15  H    4.530471   3.591306   2.549433   2.784833   3.912886
    16  C    5.048951   3.860815   3.339890   4.260333   5.358755
    17  O    2.408773   3.659859   4.153217   3.619723   2.353885
    18  H    2.441729   3.816718   4.589414   4.305289   3.161910
    19  O    4.497634   3.496079   3.360899   4.297773   5.146601
    20  N    6.018305   4.834920   3.676672   4.084469   5.424563
    21  H    6.283649   5.062016   3.880170   4.308103   5.684791
    22  N    6.243048   4.985583   4.487125   5.459843   6.626356
    23  H    6.815399   5.509705   4.820203   5.703447   6.969512
    24  C    7.029777   5.938559   4.772044   4.962412   6.215844
    25  C    8.309622   7.200451   5.964610   6.064405   7.334596
    26  H    8.717313   7.718502   6.426402   6.297171   7.473354
    27  H    9.072458   7.914258   6.757824   6.980126   8.258888
    28  H    8.340339   7.190404   5.933799   6.071992   7.385686
    29  C    6.990641   5.804192   5.580728   6.642139   7.701450
    30  H    6.644570   5.489405   5.510553   6.703868   7.681958
    31  H    7.973854   6.738117   6.441680   7.496637   8.624680
    32  H    7.212615   6.148173   5.960342   6.911965   7.874425
    33  O    7.092580   6.115643   5.058572   5.180283   6.292784
                    6          7          8          9         10
     6  C    0.000000
     7  H    2.139179   0.000000
     8  H    3.375299   2.472856   0.000000
     9  H    3.375232   4.932246   4.266421   0.000000
    10  H    2.137120   4.266838   4.931362   2.474294   0.000000
    11  C    4.288622   4.669893   2.722915   2.699026   4.656426
    12  H    4.788429   4.689703   2.378259   3.741006   5.508166
    13  H    4.754976   5.362827   3.554065   2.611465   4.791498
    14  C    5.093224   5.599067   3.739556   3.091091   5.188032
    15  H    4.659291   5.452665   4.017536   2.633089   4.529130
    16  C    5.690762   5.709292   3.698305   4.413046   6.195533
    17  O    1.363278   2.659303   4.541422   4.486427   2.561848
    18  H    1.914444   2.272692   4.527882   5.256757   3.504893
    19  O    5.229599   5.013474   3.286548   4.688893   6.025322
    20  N    6.263121   6.935663   5.021597   3.634902   6.008267
    21  H    6.543481   7.205304   5.217411   3.813787   6.264790
    22  N    6.963700   6.842129   4.645428   5.516150   7.460347
    23  H    7.453129   7.493924   5.236424   5.592988   7.747192
    24  C    7.146768   7.960044   6.177301   4.369498   6.655015
    25  C    8.366382   9.270186   7.437261   5.320590   7.676650
    26  H    8.607754   9.719103   8.078849   5.439135   7.666325
    27  H    9.223238   9.986241   8.042586   6.304388   8.647801
    28  H    8.423877   9.306774   7.404418   5.313758   7.748154
    29  C    7.853391   7.415512   5.275216   6.817507   8.580840
    30  H    7.654493   6.935299   4.794866   7.034161   8.635980
    31  H    8.835769   8.411315   6.183277   7.585099   9.489188
    32  H    8.007124   7.611775   5.699628   7.094568   8.704491
    33  O    7.167369   7.982743   6.382936   4.671287   6.692315
                   11         12         13         14         15
    11  C    0.000000
    12  H    1.092439   0.000000
    13  H    1.093313   1.751384   0.000000
    14  C    1.541062   2.170374   2.140696   0.000000
    15  H    2.161254   2.995407   2.745280   1.093658   0.000000
    16  C    2.480306   2.502930   3.334308   1.514871   2.087907
    17  O    5.650787   6.136591   6.085608   6.406522   5.887370
    18  H    6.070861   6.410216   6.588043   6.877529   6.431851
    19  O    3.013552   2.984249   4.042708   2.371904   2.534983
    20  N    2.462194   3.028238   2.433783   1.446249   2.064333
    21  H    2.553430   3.010435   2.129291   2.125121   2.860330
    22  N    3.363790   3.125941   4.007652   2.439247   3.197982
    23  H    3.504416   3.338898   3.885299   2.564129   3.425229
    24  C    3.724006   4.323629   3.716963   2.442017   2.621755
    25  C    4.833809   5.384142   4.546112   3.778471   4.032269
    26  H    5.469485   6.156821   5.145791   4.410947   4.423969
    27  H    5.547822   5.956901   5.356258   4.396830   4.724321
    28  H    4.723740   5.211850   4.222761   3.975567   4.400437
    29  C    4.602347   4.173059   5.331961   3.797642   4.440921
    30  H    4.656834   4.028597   5.457962   4.177747   4.858346
    31  H    5.318927   4.849805   5.906113   4.506286   5.229210
    32  H    5.155110   4.872759   5.964372   4.171716   4.576276
    33  O    4.243737   4.866618   4.484198   2.761767   2.572751
                   16         17         18         19         20
    16  C    0.000000
    17  O    6.962364   0.000000
    18  H    7.267363   0.963862   0.000000
    19  O    1.231084   6.401707   6.597345   0.000000
    20  N    2.496406   7.567617   8.118944   3.605200   0.000000
    21  H    3.201236   7.864846   8.420760   4.329219   1.008569
    22  N    1.332311   8.252420   8.527814   2.253626   2.780556
    23  H    2.019090   8.776340   9.121449   3.138763   2.353379
    24  C    3.182242   8.383724   8.986196   4.222890   1.348601
    25  C    4.547858   9.596210  10.247200   5.657192   2.416820
    26  H    5.294163   9.760851  10.478638   6.311186   3.160247
    27  H    4.857151  10.469716  11.078957   5.973101   3.099907
    28  H    4.878020   9.680517  10.330254   6.047299   2.533286
    29  C    2.424757   9.081477   9.236937   2.767341   4.213155
    30  H    2.773877   8.852661   8.903720   2.822489   4.810292
    31  H    3.301415  10.090933  10.262493   3.819513   4.620994
    32  H    2.740233   9.162340   9.312084   2.778433   4.672493
    33  O    3.168533   8.327564   8.913942   3.966123   2.250845
                   21         22         23         24         25
    21  H    0.000000
    22  N    3.332532   0.000000
    23  H    2.743551   1.007254   0.000000
    24  C    2.038381   3.283546   2.783943   0.000000
    25  C    2.544543   4.393866   3.647182   1.492637   0.000000
    26  H    3.340864   5.296481   4.635325   2.112348   1.089371
    27  H    3.272147   4.428816   3.620037   2.111743   1.090230
    28  H    2.213377   4.695484   3.858425   2.166364   1.087837
    29  C    4.742544   1.445181   2.131519   4.564593   5.592427
    30  H    5.248768   2.100322   2.860664   5.378442   6.453724
    31  H    5.031460   2.070663   2.301734   4.852883   5.635569
    32  H    5.360992   2.099665   2.845280   4.807779   5.913243
    33  O    3.142525   3.397300   3.180122   1.228484   2.382101
                   26         27         28         29         30
    26  H    0.000000
    27  H    1.756386   0.000000
    28  H    1.777539   1.774417   0.000000
    29  C    6.494233   5.424532   5.948678   0.000000
    30  H    7.375345   6.369940   6.707229   1.090273   0.000000
    31  H    6.591031   5.285606   5.945865   1.085548   1.768058
    32  H    6.703495   5.709080   6.437011   1.090309   1.766259
    33  O    2.661956   2.717198   3.282625   4.484555   5.361872
                   31         32         33
    31  H    0.000000
    32  H    1.768936   0.000000
    33  O    4.878050   4.441677   0.000000
 Stoichiometry    C12H16N2O3
 Framework group  C1[X(C12H16N2O3)]
 Deg. of freedom    93
 Full point group                 C1      NOp   1
 Largest Abelian subgroup         C1      NOp   1
 Largest concise Abelian subgroup C1      NOp   1
                         Standard orientation:                         
 ---------------------------------------------------------------------
 Center     Atomic      Atomic             Coordinates (Angstroms)
 Number     Number       Type             X           Y           Z
 ---------------------------------------------------------------------
      1          6           0       -3.626849    0.933765    0.248233
      2          6           0       -2.334629    0.995982    0.744604
      3          6           0       -1.505878   -0.116036    0.736172
      4          6           0       -2.006699   -1.304117    0.211878
      5          6           0       -3.290776   -1.383283   -0.288706
      6          6           0       -4.104475   -0.258122   -0.271473
      7          1           0       -4.267931    1.807738    0.259177
      8          1           0       -1.962872    1.932150    1.145879
      9          1           0       -1.373421   -2.185377    0.196740
     10          1           0       -3.678538   -2.309326   -0.693877
     11          6           0       -0.104197   -0.054389    1.261025
     12          1           0        0.047837    0.863902    1.832909
     13          1           0        0.048890   -0.883036    1.957617
     14          6           0        0.969529   -0.169392    0.161589
     15          1           0        0.518675   -0.607892   -0.733138
     16          6           0        1.388993    1.227164   -0.248916
     17          8           0       -5.364190   -0.381993   -0.777735
     18          1           0       -5.823418    0.462596   -0.708388
     19          8           0        0.608059    1.919917   -0.901451
     20          7           0        2.051732   -1.031364    0.582871
     21          1           0        2.089672   -1.329517    1.545615
     22          7           0        2.572276    1.669348    0.174605
     23          1           0        3.174485    1.034916    0.674004
     24          6           0        2.922523   -1.560720   -0.300435
     25          6           0        3.937197   -2.506443    0.250936
     26          1           0        3.895157   -3.435755   -0.315933
     27          1           0        4.929383   -2.079433    0.103183
     28          1           0        3.795233   -2.720086    1.308099
     29          6           0        3.040187    2.999595   -0.141700
     30          1           0        2.387346    3.758296    0.290582
     31          1           0        4.039090    3.128192    0.263355
     32          1           0        3.076009    3.155769   -1.220171
     33          8           0        2.884479   -1.273306   -1.494218
 ---------------------------------------------------------------------
 Rotational constants (GHZ):      0.7928673      0.2399051      0.2015815
 Leave Link  202 at Tue Jun 24 17:04:58 2014, MaxMem=  4294967296 cpu:         1.5
 (Enter /home/ztw1e12/g09/l301.exe)
 Standard basis: CC-pVTZ (5D, 7F)
 Converting basis for Fermi contact spin-spin IFCMod=1.
 AO basis functions are being uncontracted.
 Ernie: Thresh=  0.10000D-02 Tol=  0.10000D-05 Strict=F.
 There are  1305 symmetry adapted cartesian basis functions of A   symmetry.
 There are  1204 symmetry adapted basis functions of A   symmetry.
  1204 basis functions,  1305 primitive gaussians,  1305 cartesian basis functions
    63 alpha electrons       63 beta electrons
       nuclear repulsion energy      1197.0312130958 Hartrees.
 IExCor= 4235 DFT=T Ex+Corr=M06 ExCW=0 ScaHFX=  0.270000
 ScaDFX=  1.000000  1.000000  1.000000  1.000000 ScalE2=  1.000000  1.000000
 IRadAn= 199590 IRanWt=     -1 IRanGd=            0 ICorTp=0 IEmpDi=  4
 NAtoms=   33 NActive=   33 NUniq=   33 SFac= 1.00D+00 NAtFMM=   60 NAOKFM=F Big=F
 Integral buffers will be    131072 words long.
 Raffenetti 2 integral format.
 Two-electron integral symmetry is turned on.
 Leave Link  301 at Tue Jun 24 17:04:58 2014, MaxMem=  4294967296 cpu:         5.3
 (Enter /home/ztw1e12/g09/l302.exe)
 NPDir=0 NMtPBC=     1 NCelOv=     1 NCel=       1 NClECP=     1 NCelD=      1
         NCelK=      1 NCelE2=     1 NClLst=     1 CellRange=     0.0.
 One-electron integrals computed using PRISM.
 GSVD:  received Info=                   1 from GESDD.
 NBasis=  1204 RedAO= T EigKep=  2.60D-05  NBF=  1204
 NBsUse=  1068 1.00D-06 EigRej=  5.70D-15 NBFU=  1068
 Precomputing XC quadrature grid using
 IXCGrd= 4 IRadAn=      199590 IRanWt=          -1 IRanGd=           0 AccXCQ= 0.00D+00.
 Generated NRdTot=       0 NPtTot=           0 NUsed=           0 NTot=          32
 NSgBfM=   979   979   981   981   984 MxSgAt=    33 MxSgA2=    33.
 Leave Link  302 at Tue Jun 24 17:05:04 2014, MaxMem=  4294967296 cpu:        93.5
 (Enter /home/ztw1e12/g09/l308.exe)
 Leave Link  308 at Tue Jun 24 17:05:05 2014, MaxMem=  4294967296 cpu:         7.0
 (Enter /home/ztw1e12/g09/l303.exe)
 DipDrv:  MaxL=1.
 Leave Link  303 at Tue Jun 24 17:05:05 2014, MaxMem=  4294967296 cpu:         4.6
 (Enter /home/ztw1e12/g09/l401.exe)
 ExpMin= 1.03D-01 ExpMax= 1.38D+05 ExpMxC= 1.38D+05 IAcc=4 IRadAn=    199590 AccDes= 0.00D+00
 Harris functional with IExCor= 1009 and IRadAn=  199590 diagonalized for initial guess.
 HarFok:  IExCor= 1009 AccDes= 0.00D+00 IRadAn=    199590 IDoV= 1 UseB2=F ITyADJ=14
 ICtDFT=  3500011 ScaDFX=  1.000000  1.000000  1.000000  1.000000
 FoFCou: FMM=F IPFlag=           0 FMFlag=      100000 FMFlg1=           0
         NFxFlg=           0 DoJE=T BraDBF=F KetDBF=T FulRan=T
         wScrn=  0.000000 ICntrl=     500 IOpCl=  0 I1Cent=   200000004 NGrid=           0
         NMat0=    1 NMatS0=      1 NMatT0=    0 NMatD0=    1 NMtDS0=    0 NMtDT0=    0
 Petite list used in FoFCou.
 Harris En= -801.780566064988    
 JPrj=0 DoOrth=F DoCkMO=F.
 Leave Link  401 at Tue Jun 24 17:05:24 2014, MaxMem=  4294967296 cpu:       288.7
 (Enter /home/ztw1e12/g09/l502.exe)
 Closed shell SCF:
 Using DIIS extrapolation, IDIIS=  1040.
 Integral symmetry usage will be decided dynamically.
 IVT=     5158273 IEndB=     5158273 NGot=  4294967296 MDV=  4291529994
 LenX=  4291529994 LenY=  4289825664
 Requested convergence on RMS density matrix=1.00D-08 within 128 cycles.
 Requested convergence on MAX density matrix=1.00D-06.
 Requested convergence on             energy=1.00D-06.
 No special actions if energy rises.
 Fock matrices will be formed incrementally for  20 cycles.
 Integral accuracy reduced to 1.0D-05 until final iterations.

 Cycle   1  Pass 0  IDiag  1:
 FoFJK:  IHMeth= 1 ICntrl=       0 DoSepK=F KAlg= 0 I1Cent=   0 FoldK=F
 IRaf= 420000000 NMat=   1 IRICut=       1 DoRegI=T DoRafI=F ISym2E= 0.
 FoFCou: FMM=F IPFlag=           0 FMFlag=      100000 FMFlg1=           0
         NFxFlg=           0 DoJE=F BraDBF=F KetDBF=F FulRan=T
         wScrn=  0.000000 ICntrl=       0 IOpCl=  0 I1Cent=           0 NGrid=           0
         NMat0=    1 NMatS0=      1 NMatT0=    0 NMatD0=    1 NMtDS0=    0 NMtDT0=    0
 Symmetry not used in FoFCou.
 E= -801.449105470440    
 DIIS: error= 1.23D-01 at cycle   1 NSaved=   1.
 NSaved= 1 IEnMin= 1 EnMin= -801.449105470440     IErMin= 1 ErrMin= 1.23D-01
 ErrMax= 1.23D-01  0.00D+00 EMaxC= 1.00D-01 BMatC= 1.69D+01 BMatP= 1.69D+01
 IDIUse=3 WtCom= 0.00D+00 WtEn= 1.00D+00
 Coeff-Com:  0.100D+01
 Coeff-En:   0.100D+01
 Coeff:      0.100D+01
 Gap=     0.248 Goal=   None    Shift=    0.000
 GapD=    0.248 DampG=1.000 DampE=0.250 DampFc=0.2500 IDamp=-1.
 Damping current iteration by 2.50D-01
 RMSDP=2.34D-03 MaxDP=4.75D-01              OVMax= 3.09D-01

 Cycle   2  Pass 0  IDiag  1:
 RMSU=  5.82D-04    CP:  1.02D+00
 E= -801.608919070554     Delta-E=       -0.159813600114 Rises=F Damp=T
 DIIS: error= 9.37D-02 at cycle   2 NSaved=   2.
 NSaved= 2 IEnMin= 2 EnMin= -801.608919070554     IErMin= 2 ErrMin= 9.37D-02
 ErrMax= 9.37D-02  0.00D+00 EMaxC= 1.00D-01 BMatC= 1.00D+01 BMatP= 1.69D+01
 IDIUse=3 WtCom= 6.30D-02 WtEn= 9.37D-01
 Coeff-Com: -0.289D+01 0.389D+01
 Coeff-En:   0.000D+00 0.100D+01
 Coeff:     -0.182D+00 0.118D+01
 Gap=     0.245 Goal=   None    Shift=    0.000
 RMSDP=6.51D-04 MaxDP=9.95D-02 DE=-1.60D-01 OVMax= 1.82D-01

 Cycle   3  Pass 0  IDiag  1:
 RMSU=  5.40D-04    CP:  1.06D+00  1.61D+00
 E= -801.860361138721     Delta-E=       -0.251442068167 Rises=F Damp=F
 DIIS: error= 1.21D-02 at cycle   3 NSaved=   3.
 NSaved= 3 IEnMin= 3 EnMin= -801.860361138721     IErMin= 3 ErrMin= 1.21D-02
 ErrMax= 1.21D-02  0.00D+00 EMaxC= 1.00D-01 BMatC= 1.91D-01 BMatP= 1.00D+01
 IDIUse=3 WtCom= 8.79D-01 WtEn= 1.21D-01
 Coeff-Com:  0.434D+00-0.631D+00 0.120D+01
 Coeff-En:   0.000D+00 0.000D+00 0.100D+01
 Coeff:      0.382D+00-0.555D+00 0.117D+01
 Gap=     0.244 Goal=   None    Shift=    0.000
 RMSDP=4.52D-04 MaxDP=6.66D-02 DE=-2.51D-01 OVMax= 9.95D-02

 Cycle   4  Pass 0  IDiag  1:
 RMSU=  3.63D-04    CP:  1.05D+00  1.27D+00  6.71D-01
 E= -801.801459775933     Delta-E=        0.058901362788 Rises=F Damp=F
 DIIS: error= 8.86D-03 at cycle   4 NSaved=   4.
 NSaved= 4 IEnMin= 3 EnMin= -801.860361138721     IErMin= 4 ErrMin= 8.86D-03
 ErrMax= 8.86D-03  0.00D+00 EMaxC= 1.00D-01 BMatC= 1.42D-01 BMatP= 1.91D-01
 IDIUse=3 WtCom= 9.11D-01 WtEn= 8.86D-02
 Coeff-Com:  0.427D+00-0.600D+00 0.647D+00 0.526D+00
 Coeff-En:   0.000D+00 0.000D+00 0.694D+00 0.306D+00
 Coeff:      0.389D+00-0.547D+00 0.651D+00 0.507D+00
 Gap=     0.258 Goal=   None    Shift=    0.000
 RMSDP=3.19D-04 MaxDP=3.68D-02 DE= 5.89D-02 OVMax= 9.07D-02

 Cycle   5  Pass 0  IDiag  1:
 RMSU=  7.93D-05    CP:  1.06D+00  1.31D+00  8.99D-01  2.24D-01
 E= -801.906573510378     Delta-E=       -0.105113734445 Rises=F Damp=F
 DIIS: error= 2.10D-03 at cycle   5 NSaved=   5.
 NSaved= 5 IEnMin= 5 EnMin= -801.906573510378     IErMin= 5 ErrMin= 2.10D-03
 ErrMax= 2.10D-03  0.00D+00 EMaxC= 1.00D-01 BMatC= 8.82D-03 BMatP= 1.42D-01
 IDIUse=3 WtCom= 9.79D-01 WtEn= 2.10D-02
 Coeff-Com:  0.384D-01-0.567D-01 0.374D-01 0.198D+00 0.783D+00
 Coeff-En:   0.000D+00 0.000D+00 0.000D+00 0.000D+00 0.100D+01
 Coeff:      0.376D-01-0.555D-01 0.367D-01 0.194D+00 0.787D+00
 Gap=     0.224 Goal=   None    Shift=    0.000
 RMSDP=9.52D-05 MaxDP=1.54D-02 DE=-1.05D-01 OVMax= 2.39D-02

 Cycle   6  Pass 0  IDiag  1:
 RMSU=  4.43D-05    CP:  1.06D+00  1.31D+00  9.09D-01  4.24D-01  4.72D-01
 E= -801.911003806506     Delta-E=       -0.004430296128 Rises=F Damp=F
 DIIS: error= 1.24D-03 at cycle   6 NSaved=   6.
 NSaved= 6 IEnMin= 6 EnMin= -801.911003806506     IErMin= 6 ErrMin= 1.24D-03
 ErrMax= 1.24D-03  0.00D+00 EMaxC= 1.00D-01 BMatC= 1.36D-03 BMatP= 8.82D-03
 IDIUse=3 WtCom= 9.88D-01 WtEn= 1.24D-02
 Coeff-Com:  0.142D-01-0.201D-01-0.391D-02 0.758D-01 0.382D+00 0.552D+00
 Coeff-En:   0.000D+00 0.000D+00 0.000D+00 0.000D+00 0.123D+00 0.877D+00
 Coeff:      0.140D-01-0.199D-01-0.386D-02 0.749D-01 0.379D+00 0.556D+00
 Gap=     0.224 Goal=   None    Shift=    0.000
 RMSDP=3.34D-05 MaxDP=2.67D-03 DE=-4.43D-03 OVMax= 1.52D-02

 Cycle   7  Pass 0  IDiag  1:
 RMSU=  2.57D-05    CP:  1.06D+00  1.30D+00  9.08D-01  4.28D-01  6.52D-01
                    CP:  6.70D-01
 E= -801.911923377322     Delta-E=       -0.000919570816 Rises=F Damp=F
 DIIS: error= 6.96D-04 at cycle   7 NSaved=   7.
 NSaved= 7 IEnMin= 7 EnMin= -801.911923377322     IErMin= 7 ErrMin= 6.96D-04
 ErrMax= 6.96D-04  0.00D+00 EMaxC= 1.00D-01 BMatC= 2.94D-04 BMatP= 1.36D-03
 IDIUse=3 WtCom= 9.93D-01 WtEn= 6.96D-03
 Coeff-Com:  0.107D-01-0.143D-01-0.225D-02 0.199D-01 0.107D+00 0.334D+00
 Coeff-Com:  0.546D+00
 Coeff-En:   0.000D+00 0.000D+00 0.000D+00 0.000D+00 0.000D+00 0.204D+00
 Coeff-En:   0.796D+00
 Coeff:      0.106D-01-0.142D-01-0.224D-02 0.197D-01 0.106D+00 0.333D+00
 Coeff:      0.547D+00
 Gap=     0.223 Goal=   None    Shift=    0.000
 RMSDP=1.34D-05 MaxDP=1.25D-03 DE=-9.20D-04 OVMax= 6.32D-03

 Cycle   8  Pass 0  IDiag  1:
 RMSU=  6.79D-06    CP:  1.06D+00  1.30D+00  9.12D-01  4.36D-01  6.34D-01
                    CP:  8.44D-01  7.01D-01
 E= -801.912181559631     Delta-E=       -0.000258182309 Rises=F Damp=F
 DIIS: error= 1.36D-04 at cycle   8 NSaved=   8.
 NSaved= 8 IEnMin= 8 EnMin= -801.912181559631     IErMin= 8 ErrMin= 1.36D-04
 ErrMax= 1.36D-04  0.00D+00 EMaxC= 1.00D-01 BMatC= 1.79D-05 BMatP= 2.94D-04
 IDIUse=3 WtCom= 9.99D-01 WtEn= 1.36D-03
 Coeff-Com:  0.596D-02-0.795D-02-0.250D-03 0.654D-02 0.352D-01 0.152D+00
 Coeff-Com:  0.304D+00 0.504D+00
 Coeff-En:   0.000D+00 0.000D+00 0.000D+00 0.000D+00 0.000D+00 0.000D+00
 Coeff-En:   0.000D+00 0.100D+01
 Coeff:      0.595D-02-0.794D-02-0.250D-03 0.653D-02 0.352D-01 0.151D+00
 Coeff:      0.304D+00 0.505D+00
 Gap=     0.223 Goal=   None    Shift=    0.000
 RMSDP=3.97D-06 MaxDP=3.03D-04 DE=-2.58D-04 OVMax= 8.91D-04

 Initial convergence to 1.0D-05 achieved.  Increase integral accuracy.
 Cycle   9  Pass 1  IDiag  1:
 E= -801.912167261079     Delta-E=        0.000014298552 Rises=F Damp=F
 DIIS: error= 2.79D-04 at cycle   1 NSaved=   1.
 NSaved= 1 IEnMin= 1 EnMin= -801.912167261079     IErMin= 1 ErrMin= 2.79D-04
 ErrMax= 2.79D-04  0.00D+00 EMaxC= 1.00D-01 BMatC= 2.41D-05 BMatP= 2.41D-05
 IDIUse=3 WtCom= 9.97D-01 WtEn= 2.79D-03
 Coeff-Com:  0.100D+01
 Coeff-En:   0.100D+01
 Coeff:      0.100D+01
 Gap=     0.223 Goal=   None    Shift=    0.000
 RMSDP=3.97D-06 MaxDP=3.03D-04 DE= 1.43D-05 OVMax= 7.92D-04

 Cycle  10  Pass 1  IDiag  1:
 RMSU=  1.87D-04    CP:  9.89D-01
 E= -801.912181683369     Delta-E=       -0.000014422291 Rises=F Damp=F
 DIIS: error= 6.02D-05 at cycle   2 NSaved=   2.
 NSaved= 2 IEnMin= 2 EnMin= -801.912181683369     IErMin= 2 ErrMin= 6.02D-05
 ErrMax= 6.02D-05  0.00D+00 EMaxC= 1.00D-01 BMatC= 3.50D-06 BMatP= 2.41D-05
 IDIUse=1 WtCom= 1.00D+00 WtEn= 0.00D+00
 Coeff-Com:  0.170D+00 0.830D+00
 Coeff:      0.170D+00 0.830D+00
 Gap=     0.223 Goal=   None    Shift=    0.000
 RMSDP=4.30D-06 MaxDP=4.75D-04 DE=-1.44D-05 OVMax= 9.40D-04

 Cycle  11  Pass 1  IDiag  1:
 RMSU=  3.06D-06    CP:  9.89D-01  1.02D+00
 E= -801.912179478479     Delta-E=        0.000002204890 Rises=F Damp=F
 DIIS: error= 8.00D-05 at cycle   3 NSaved=   3.
 NSaved= 3 IEnMin= 2 EnMin= -801.912181683369     IErMin= 2 ErrMin= 6.02D-05
 ErrMax= 8.00D-05  0.00D+00 EMaxC= 1.00D-01 BMatC= 6.49D-06 BMatP= 3.50D-06
 IDIUse=1 WtCom= 1.00D+00 WtEn= 0.00D+00
 Coeff-Com:  0.267D-03 0.578D+00 0.422D+00
 Coeff:      0.267D-03 0.578D+00 0.422D+00
 Gap=     0.223 Goal=   None    Shift=    0.000
 RMSDP=1.84D-06 MaxDP=1.65D-04 DE= 2.20D-06 OVMax= 6.20D-04

 Cycle  12  Pass 1  IDiag  1:
 RMSU=  7.69D-07    CP:  9.89D-01  1.02D+00  4.78D-01
 E= -801.912184132442     Delta-E=       -0.000004653962 Rises=F Damp=F
 DIIS: error= 8.66D-06 at cycle   4 NSaved=   4.
 NSaved= 4 IEnMin= 4 EnMin= -801.912184132442     IErMin= 4 ErrMin= 8.66D-06
 ErrMax= 8.66D-06  0.00D+00 EMaxC= 1.00D-01 BMatC= 1.03D-07 BMatP= 3.50D-06
 IDIUse=1 WtCom= 1.00D+00 WtEn= 0.00D+00
 Coeff-Com: -0.309D-02 0.327D+00 0.251D+00 0.424D+00
 Coeff:     -0.309D-02 0.327D+00 0.251D+00 0.424D+00
 Gap=     0.223 Goal=   None    Shift=    0.000
 RMSDP=2.50D-07 MaxDP=3.49D-05 DE=-4.65D-06 OVMax= 6.55D-05

 Cycle  13  Pass 1  IDiag  1:
 RMSU=  2.34D-07    CP:  9.89D-01  1.02D+00  4.87D-01  9.33D-01
 E= -801.912184202994     Delta-E=       -0.000000070552 Rises=F Damp=F
 DIIS: error= 1.24D-06 at cycle   5 NSaved=   5.
 NSaved= 5 IEnMin= 5 EnMin= -801.912184202994     IErMin= 5 ErrMin= 1.24D-06
 ErrMax= 1.24D-06  0.00D+00 EMaxC= 1.00D-01 BMatC= 2.66D-09 BMatP= 1.03D-07
 IDIUse=1 WtCom= 1.00D+00 WtEn= 0.00D+00
 Coeff-Com: -0.128D-02 0.906D-01 0.717D-01 0.188D+00 0.651D+00
 Coeff:     -0.128D-02 0.906D-01 0.717D-01 0.188D+00 0.651D+00
 Gap=     0.223 Goal=   None    Shift=    0.000
 RMSDP=5.29D-08 MaxDP=3.52D-06 DE=-7.06D-08 OVMax= 1.16D-05

 Cycle  14  Pass 1  IDiag  1:
 RMSU=  3.72D-08    CP:  9.89D-01  1.02D+00  4.89D-01  9.66D-01  9.28D-01
 E= -801.912184204560     Delta-E=       -0.000000001566 Rises=F Damp=F
 DIIS: error= 5.61D-07 at cycle   6 NSaved=   6.
 NSaved= 6 IEnMin= 6 EnMin= -801.912184204560     IErMin= 6 ErrMin= 5.61D-07
 ErrMax= 5.61D-07  0.00D+00 EMaxC= 1.00D-01 BMatC= 3.07D-10 BMatP= 2.66D-09
 IDIUse=1 WtCom= 1.00D+00 WtEn= 0.00D+00
 Coeff-Com: -0.486D-03 0.267D-01 0.216D-01 0.687D-01 0.326D+00 0.558D+00
 Coeff:     -0.486D-03 0.267D-01 0.216D-01 0.687D-01 0.326D+00 0.558D+00
 Gap=     0.223 Goal=   None    Shift=    0.000
 RMSDP=2.74D-08 MaxDP=4.34D-06 DE=-1.57D-09 OVMax= 7.60D-06

 Cycle  15  Pass 1  IDiag  1:
 RMSU=  2.05D-08    CP:  9.89D-01  1.02D+00  4.89D-01  9.79D-01  9.81D-01
                    CP:  8.91D-01
 E= -801.912184204751     Delta-E=       -0.000000000191 Rises=F Damp=F
 DIIS: error= 2.94D-07 at cycle   7 NSaved=   7.
 NSaved= 7 IEnMin= 7 EnMin= -801.912184204751     IErMin= 7 ErrMin= 2.94D-07
 ErrMax= 2.94D-07  0.00D+00 EMaxC= 1.00D-01 BMatC= 9.11D-11 BMatP= 3.07D-10
 IDIUse=1 WtCom= 1.00D+00 WtEn= 0.00D+00
 Coeff-Com: -0.622D-05-0.474D-02-0.335D-02-0.910D-03 0.518D-01 0.364D+00
 Coeff-Com:  0.593D+00
 Coeff:     -0.622D-05-0.474D-02-0.335D-02-0.910D-03 0.518D-01 0.364D+00
 Coeff:      0.593D+00
 Gap=     0.223 Goal=   None    Shift=    0.000
 RMSDP=1.18D-08 MaxDP=1.16D-06 DE=-1.91D-10 OVMax= 2.52D-06

 Cycle  16  Pass 1  IDiag  1:
 RMSU=  5.99D-09    CP:  9.89D-01  1.02D+00  4.89D-01  9.84D-01  9.96D-01
                    CP:  1.11D+00  9.88D-01
 E= -801.912184204715     Delta-E=        0.000000000036 Rises=F Damp=F
 DIIS: error= 6.87D-08 at cycle   8 NSaved=   8.
 NSaved= 8 IEnMin= 7 EnMin= -801.912184204751     IErMin= 8 ErrMin= 6.87D-08
 ErrMax= 6.87D-08  0.00D+00 EMaxC= 1.00D-01 BMatC= 5.14D-12 BMatP= 9.11D-11
 IDIUse=1 WtCom= 1.00D+00 WtEn= 0.00D+00
 Coeff-Com:  0.356D-04-0.441D-02-0.332D-02-0.586D-02-0.116D-02 0.125D+00
 Coeff-Com:  0.283D+00 0.607D+00
 Coeff:      0.356D-04-0.441D-02-0.332D-02-0.586D-02-0.116D-02 0.125D+00
 Coeff:      0.283D+00 0.607D+00
 Gap=     0.223 Goal=   None    Shift=    0.000
 RMSDP=3.50D-09 MaxDP=6.56D-07 DE= 3.57D-11 OVMax= 6.55D-07

 SCF Done:  E(RM06) =  -801.912184205     A.U. after   16 cycles
            NFock= 16  Conv=0.35D-08     -V/T= 2.0044
 KE= 7.983684736893D+02 PE=-4.266880334857D+03 EE= 1.469568463867D+03
 Leave Link  502 at Tue Jun 24 17:40:06 2014, MaxMem=  4294967296 cpu:     33214.0
 (Enter /home/ztw1e12/g09/l801.exe)
 DoSCS=F DFT=T ScalE2(SS,OS)=  1.000000  1.000000
 Range of M.O.s used for correlation:     1  1068
 NBasis=  1204 NAE=    63 NBE=    63 NFC=     0 NFV=     0
 NROrb=   1068 NOA=    63 NOB=    63 NVA=  1005 NVB=  1005

 **** Warning!!: The largest alpha MO coefficient is  0.30173285D+02

 Leave Link  801 at Tue Jun 24 17:40:06 2014, MaxMem=  4294967296 cpu:         0.5
 (Enter /home/ztw1e12/g09/l1002.exe)
 Minotr:  Closed shell wavefunction.
          IDoAtm=111111111111111111111111111111111
          Direct CPHF calculation.
          Differentiating once with respect to Fermi-contact.
          Electric field/nuclear overlap derivatives assumed to be zero.
          Requested convergence is 1.0D-10 RMS, and 1.0D-09 maximum.
          Secondary convergence is 1.0D-12 RMS, and 1.0D-12 maximum.
          NewPWx=T KeepS1=F KeepF1=F KeepIn=T MapXYZ=F SortEE=F KeepMc=T.
          MDV=    4294965894 using IRadAn=  199590.
 Using stored XC quadrature information.
          Solving linear equations simultaneously, MaxMat=       0.
          There are    33 degrees of freedom in the 1st order CPHF.  IDoFFX=0 NUNeed=    33.
     33 vectors produced by pass  0 Test12= 1.92D-17 3.03D-11 XBig12= 4.29D+01 2.58D+00.
 AX will form    33 AO Fock derivatives at one time.
 FoFJK:  IHMeth= 1 ICntrl=       0 DoSepK=F KAlg= 0 I1Cent=   0 FoldK=F
 IRaf= 440000000 NMat=  33 IRICut=       1 DoRegI=T DoRafI=F ISym2E=-1.
 FoFCou: FMM=F IPFlag=           0 FMFlag=      100000 FMFlg1=           0
         NFxFlg=           0 DoJE=F BraDBF=F KetDBF=F FulRan=T
         wScrn=  0.000000 ICntrl=       0 IOpCl=  0 I1Cent=           0 NGrid=           0
         NMat0=   33 NMatS0=      0 NMatT0=   33 NMatD0=   33 NMtDS0=    0 NMtDT0=    0
 Petite list used in FoFCou.
     33 vectors produced by pass  1 Test12= 1.92D-17 3.03D-11 XBig12= 3.46D-01 1.89D-01.
     33 vectors produced by pass  2 Test12= 1.92D-17 3.03D-11 XBig12= 1.55D-02 4.29D-02.
     33 vectors produced by pass  3 Test12= 1.92D-17 3.03D-11 XBig12= 3.44D-04 5.71D-03.
     33 vectors produced by pass  4 Test12= 1.92D-17 3.03D-11 XBig12= 6.99D-06 1.14D-03.
     33 vectors produced by pass  5 Test12= 1.92D-17 3.03D-11 XBig12= 1.41D-07 1.67D-04.
     33 vectors produced by pass  6 Test12= 1.92D-17 3.03D-11 XBig12= 4.07D-09 1.76D-05.
     33 vectors produced by pass  7 Test12= 1.92D-17 3.03D-11 XBig12= 1.09D-10 4.01D-06.
     33 vectors produced by pass  8 Test12= 1.92D-17 3.03D-11 XBig12= 4.01D-12 2.83D-07.
     33 vectors produced by pass  9 Test12= 1.92D-17 3.03D-11 XBig12= 5.55D-14 8.04D-08.
     33 vectors produced by pass 10 Test12= 1.92D-17 3.03D-11 XBig12= 1.95D-15 7.30D-09.
     33 vectors produced by pass 11 Test12= 1.92D-17 3.03D-11 XBig12= 2.40D-17 5.54D-10.
      8 vectors produced by pass 12 Test12= 1.92D-17 3.03D-11 XBig12= 2.47D-19 7.06D-11.
 InvSVY:  IOpt=1 It=  1 EMax= 1.07D-14
 Solved reduced A of dimension   404 with    33 vectors.
 Max diff in FC couplings:  IJMax=     4     3 Diff= 3.89D-04 IJMaxR=    29    27 DiffR= 1.00D+00
 Fermi Contact (FC) contribution to K (Hz):
                1             2             3             4             5 
      1  0.123400D+11
      2  0.346436D+02  0.123400D+11
      3 -0.117722D+01  0.349055D+02  0.123400D+11
      4  0.308364D+01  0.297922D+00  0.336423D+02  0.123400D+11
      5  0.162745D+01  0.301257D+01 -0.124609D+01  0.353171D+02  0.123400D+11
      6  0.361506D+02 -0.277309D+00  0.429813D+01  0.247384D+00  0.388484D+02
      7  0.217721D+02 -0.298502D+00  0.972049D+00 -0.214870D+00  0.622684D+00
      8 -0.212868D+00  0.227202D+02 -0.314114D+00  0.997837D+00 -0.279940D+00
      9 -0.291915D+00  0.100144D+01 -0.262802D+00  0.218312D+02 -0.219988D+00
     10  0.666887D+00 -0.216186D+00  0.104262D+01 -0.280269D+00  0.228860D+02
     11  0.216537D+01  0.174498D+01  0.247526D+02  0.140821D+01  0.193841D+01
     12  0.242627D-01  0.817877D+00 -0.867519D+00  0.853964D+00  0.119249D+00
     13 -0.983437D-01  0.634209D+00 -0.121145D+01  0.609525D+00 -0.132799D+00
     14 -0.377950D+00  0.101102D+01 -0.475499D+00  0.103635D+01 -0.533437D+00
     15  0.878346D-02 -0.170568D-01  0.821786D+00 -0.343587D-01  0.317887D-02
     16  0.591721D-02 -0.437128D-01  0.185222D+00 -0.662921D-01  0.156992D-02
     17 -0.746602D+00 -0.783834D-01  0.266670D+00  0.311561D+01  0.117484D+02
     18  0.416163D+00 -0.109450D-01 -0.467032D-01  0.215221D+00  0.115930D+01
     19  0.267054D-01  0.504300D+00  0.420315D+00  0.440658D-01  0.223324D-01
     20  0.138191D+00  0.254635D+00  0.192624D+01 -0.811141D-01  0.291696D-01
     21  0.132582D-02  0.502032D-02 -0.213656D-01 -0.416064D-03  0.129864D-02
     22 -0.177870D-01  0.352914D-01  0.285604D-01  0.548833D-01 -0.146257D-01
     23  0.984796D-03  0.163207D-03 -0.548858D-03 -0.132111D-02  0.216455D-03
     24  0.160559D-01  0.574848D-01  0.983059D-01 -0.597931D-02 -0.685062D-03
     25  0.339655D-02  0.599662D-02  0.786600D-01 -0.233126D-02  0.451493D-03
     26 -0.241238D-03  0.150659D-02  0.457466D-02  0.108181D-02 -0.656171D-03
     27 -0.483409D-04 -0.461700D-03 -0.189000D-02  0.209971D-03  0.749020D-04
     28 -0.105679D-03  0.519129D-04 -0.154438D-02  0.115822D-03 -0.636799D-04
     29  0.227582D-02 -0.125776D-02 -0.136587D-02 -0.318236D-02  0.275035D-04
     30 -0.689932D-03  0.147210D-02  0.194843D-02  0.164297D-02  0.146192D-03
     31  0.126241D-03  0.101637D-03 -0.356796D-03  0.124498D-03  0.184312D-03
     32 -0.443969D-03  0.766664D-04  0.151618D-02  0.156759D-02  0.276300D-03
     33 -0.296119D-02  0.389006D-02  0.537554D-02  0.828233D-02 -0.195083D-02
                6             7             8             9            10 
      6  0.123400D+11
      7 -0.551200D+00  0.123400D+11
      8  0.119950D+01  0.332363D+00  0.123400D+11
      9  0.121260D+01  0.391825D-01  0.404980D-01  0.123400D+11
     10 -0.702268D+00  0.639683D-01  0.395208D-01  0.353793D+00  0.123400D+11
     11 -0.480687D+00  0.110078D-01  0.747786D+00  0.649195D+00  0.299968D-01
     12  0.495114D-02  0.284159D-02 -0.225240D-01 -0.129246D-02  0.613854D-02
     13  0.150773D+00  0.153464D-01 -0.380215D-01 -0.403380D-01  0.137757D-01
     14  0.511067D+00  0.386221D-01 -0.129124D+00 -0.930339D-01  0.491850D-01
     15  0.150573D-02  0.565320D-03 -0.463372D-03 -0.729510D-02  0.121787D-02
     16 -0.460777D-02 -0.150006D-02 -0.112548D-02  0.324717D-02 -0.306589D-03
     17 -0.119652D+02  0.569142D+00  0.698517D-01  0.250438D+00  0.711291D+00
     18 -0.649165D+00 -0.125637D-01  0.179056D-02  0.132838D-01  0.866537D-03
     19  0.247011D-01 -0.178367D-02  0.959486D-01 -0.797156D-02 -0.911805D-02
     20 -0.152331D-01  0.713094D-02  0.192413D-01  0.185892D-01 -0.384508D-03
     21 -0.855953D-03 -0.618791D-04  0.273566D-03  0.123255D-02 -0.187311D-03
     22  0.219117D-01  0.170135D-02 -0.522400D-03  0.178623D-02  0.175603D-02
     23 -0.599682D-03 -0.113311D-03  0.288633D-03  0.164657D-04 -0.564513D-04
     24  0.848782D-03  0.153253D-02  0.218357D-02  0.349452D-03 -0.114765D-03
     25  0.545267D-03  0.304907D-03  0.448446D-03  0.273355D-03  0.747292D-04
     26  0.678964D-03  0.626387D-04 -0.149630D-03 -0.953680D-04  0.606453D-04
     27 -0.800883D-04 -0.201954D-04 -0.643665D-05  0.470892D-04 -0.925757D-05
     28  0.532206D-04  0.412223D-05 -0.178023D-04 -0.204438D-04  0.289279D-05
     29 -0.105884D-02 -0.358418D-03  0.416014D-03  0.545906D-03 -0.133771D-03
     30  0.586311D-03  0.713136D-04 -0.121010D-03 -0.552896D-05 -0.122717D-05
     31 -0.109751D-03 -0.175379D-04  0.360437D-05  0.238928D-04 -0.233683D-04
     32  0.289019D-03  0.532538D-04 -0.170309D-03  0.110488D-03  0.171621D-04
     33  0.342747D-02  0.161366D-03 -0.787701D-03  0.186673D-03  0.193807D-03
               11            12            13            14            15 
     11  0.123400D+11
     12  0.179220D+02  0.123400D+11
     13  0.167177D+02 -0.835168D+00  0.123400D+11
     14  0.164040D+02 -0.631685D+00 -0.958725D+00  0.123400D+11
     15 -0.873635D+00  0.273729D+00  0.115741D-01  0.210345D+02  0.123400D+11
     16 -0.423206D+00  0.749406D+00  0.498809D+00  0.280800D+02 -0.124119D+01
     17  0.606823D-01  0.164903D-02  0.514640D-01  0.200807D+00 -0.151421D-02
     18  0.117222D-01 -0.107194D-03 -0.549417D-02 -0.209170D-01  0.932047D-04
     19  0.880869D+00  0.445732D-01  0.865937D-01  0.482469D+01  0.321853D+00
     20  0.116747D+01  0.121034D-01  0.168484D+01  0.132029D+02 -0.557708D+00
     21  0.572356D+00 -0.568443D-02 -0.344198D-01  0.218799D+00  0.157878D+00
     22  0.482617D-01  0.117831D-01  0.555617D-01  0.989599D+01  0.166137D+00
     23 -0.301904D-01  0.190967D-02  0.265396D-02  0.696012D-01 -0.252274D-02
     24  0.150293D+01 -0.287295D-01  0.437777D-01 -0.160375D+00  0.379703D+00
     25 -0.295701D-01  0.939622D-03  0.337510D-01  0.661532D+00 -0.798866D-01
     26  0.121250D-01 -0.446434D-03  0.210493D-03  0.471312D-01  0.173641D-01
     27 -0.495706D-02 -0.900921D-03 -0.107717D-02  0.389626D-02  0.299748D-01
     28 -0.349357D-02  0.304768D-03 -0.296147D-03  0.913154D-01 -0.199882D-02
     29 -0.770906D-01  0.192046D-01  0.202983D-01  0.693646D+00  0.403570D-01
     30  0.543248D-01 -0.358411D-03 -0.933724D-03 -0.829158D-01  0.238852D-01
     31  0.198000D-02  0.394982D-03  0.489470D-03 -0.233708D-01  0.481334D-02
     32  0.744888D-01  0.348520D-03 -0.922463D-04 -0.852186D-01  0.100642D-01
     33  0.160160D+00  0.260454D-01  0.902931D-02  0.905364D+00  0.249605D+00
               16            17            18            19            20 
     16  0.123400D+11
     17 -0.513399D-02  0.123400D+11
     18  0.467971D-03  0.199094D+02  0.123400D+11
     19 -0.990809D+01  0.122810D-01 -0.174518D-02  0.123400D+11
     20  0.397918D+00  0.338833D-02  0.283064D-03  0.114387D+01  0.123400D+11
     21  0.116002D+00 -0.223228D-03  0.339380D-04  0.703636D-01  0.308911D+02
     22  0.298397D+02  0.666506D-02 -0.622717D-03  0.609672D+01 -0.366011D+00
     23  0.361768D+00 -0.182016D-03  0.179332D-04  0.451796D+00 -0.900710D-01
     24  0.300933D-01  0.154173D-02 -0.143453D-03 -0.195392D-01  0.248006D+02
     25 -0.130826D+00  0.601029D-03 -0.365151D-04  0.560274D-01  0.123658D+02
     26  0.478181D-01  0.278811D-03 -0.280187D-04 -0.201763D-02  0.481408D+00
     27  0.905956D-01 -0.222953D-04  0.254822D-05  0.651152D-02  0.255268D+00
     28 -0.315573D-03  0.166177D-04 -0.252493D-05  0.249763D-02  0.320404D+00
     29 -0.227736D+00 -0.405103D-03  0.416771D-04  0.620060D+00  0.157476D+00
     30  0.139009D+00  0.269426D-03 -0.291329D-04  0.231106D+00  0.179331D-01
     31  0.948220D+00 -0.292565D-04  0.220919D-05  0.179694D+00  0.708992D-02
     32  0.240495D+00  0.173268D-03 -0.150127D-04  0.241605D+00  0.255636D-02
     33  0.470543D+00  0.160720D-02 -0.164563D-03  0.611327D-01  0.590013D+01
               21            22            23            24            25 
     21  0.123400D+11
     22  0.935657D-02  0.123400D+11
     23  0.608402D-02  0.316356D+02  0.123400D+11
     24  0.451812D+00 -0.932561D-02  0.327886D-02  0.123400D+11
     25  0.831493D-01 -0.258909D-01  0.421673D-02  0.268852D+02  0.123400D+11
     26 -0.113984D-01  0.358016D-02  0.469302D-04 -0.118035D+01  0.182869D+02
     27 -0.111949D-01  0.548030D-03  0.123469D-03 -0.120259D+01  0.177211D+02
     28 -0.934675D-02 -0.152765D-02  0.825299D-04 -0.753165D+00  0.170476D+02
     29 -0.369262D-02  0.172343D+02  0.349544D+00 -0.599821D-02 -0.443021D-04
     30 -0.447404D-03 -0.579136D+00  0.115854D+00  0.286207D-02  0.879137D-03
     31 -0.489004D-03 -0.359934D+00  0.293738D+00  0.588745D-03 -0.284213D-03
     32  0.130750D-02 -0.642519D+00  0.101957D+00 -0.939771D-03  0.330677D-03
     33  0.423865D+00  0.310860D+00  0.816703D-02 -0.975232D+01  0.358336D+01
               26            27            28            29            30 
     26  0.123400D+11
     27 -0.928472D+00  0.123400D+11
     28 -0.726457D+00 -0.743103D+00  0.123400D+11
     29 -0.213504D-04  0.123487D-04 -0.370059D-04  0.123400D+11
     30  0.220775D-03  0.967660D-04 -0.166268D-04  0.197822D+02  0.123400D+11
     31  0.269805D-03  0.133006D-03  0.350156D-05  0.182611D+02 -0.740566D+00
     32 -0.788963D-04 -0.181501D-03  0.535020D-05  0.201662D+02 -0.742246D+00
     33  0.453448D+00  0.446373D+00  0.809288D+00 -0.188547D-01  0.133521D-01
               31            32            33 
     31  0.123400D+11
     32 -0.748594D+00  0.123400D+11
     33  0.154667D-02  0.129171D-01  0.123400D+11
 Fermi Contact (FC) contribution to J (Hz):
                1             2             3             4             5 
      1  0.243533D+11
      2  0.683701D+02  0.243533D+11
      3 -0.232328D+01  0.688868D+02  0.243533D+11
      4  0.608565D+01  0.587957D+00  0.663940D+02  0.243533D+11
      5  0.321182D+01  0.594538D+01 -0.245919D+01  0.696991D+02  0.243533D+11
      6  0.713441D+02 -0.547277D+00  0.848246D+01  0.488218D+00  0.766682D+02
      7  0.170844D+03 -0.234232D+01  0.762757D+01 -0.168607D+01  0.488614D+01
      8 -0.167035D+01  0.178283D+03 -0.246483D+01  0.782993D+01 -0.219666D+01
      9 -0.229063D+01  0.785820D+01 -0.206219D+01  0.171307D+03 -0.172623D+01
     10  0.523299D+01 -0.169639D+01  0.818135D+01 -0.219924D+01  0.179584D+03
     11  0.427342D+01  0.344377D+01  0.488499D+02  0.277913D+01  0.382549D+01
     12  0.190387D+00  0.641780D+01 -0.680734D+01  0.670097D+01  0.935734D+00
     13 -0.771693D+00  0.497658D+01 -0.950616D+01  0.478288D+01 -0.104206D+01
     14 -0.745894D+00  0.199527D+01 -0.938409D+00  0.204526D+01 -0.105275D+01
     15  0.689230D-01 -0.133843D+00  0.644847D+01 -0.269610D+00  0.249443D-01
     16  0.116778D-01 -0.862683D-01  0.365540D+00 -0.130829D+00  0.309828D-02
     17  0.794520D+00  0.834142D-01 -0.283785D+00 -0.331558D+01 -0.125024D+02
     18  0.326559D+01 -0.858841D-01 -0.366476D+00  0.168882D+01  0.909695D+01
     19 -0.284193D-01 -0.536667D+00 -0.447291D+00 -0.468939D-01 -0.237657D-01
     20  0.783834D-01  0.144432D+00  0.109258D+01 -0.460089D-01  0.165453D-01
     21  0.104036D-01  0.393940D-01 -0.167654D+00 -0.326481D-02  0.101903D-01
     22 -0.100890D-01  0.200177D-01  0.161998D-01  0.311305D-01 -0.829585D-02
     23  0.772760D-02  0.128067D-02 -0.430684D-02 -0.103666D-01  0.169850D-02
     24  0.316867D-01  0.113448D+00  0.194009D+00 -0.118003D-01 -0.135199D-02
     25  0.670317D-02  0.118345D-01  0.155238D+00 -0.460080D-02  0.891033D-03
     26 -0.189297D-02  0.118221D-01  0.358969D-01  0.848884D-02 -0.514891D-02
     27 -0.379327D-03 -0.362291D-02 -0.148307D-01  0.164762D-02  0.587749D-03
     28 -0.829254D-03  0.407356D-03 -0.121186D-01  0.908840D-03 -0.499690D-03
     29  0.449140D-02 -0.248222D-02 -0.269557D-02 -0.628046D-02  0.542789D-04
     30 -0.541383D-02  0.115514D-01  0.152891D-01  0.128922D-01  0.114715D-02
     31  0.990603D-03  0.797532D-03 -0.279975D-02  0.976927D-03  0.144628D-02
     32 -0.348378D-02  0.601594D-03  0.118973D-01  0.123007D-01  0.216810D-02
     33  0.315124D-02 -0.413973D-02 -0.572055D-02 -0.881390D-02  0.207604D-02
                6             7             8             9            10 
      6  0.243533D+11
      7 -0.432521D+01  0.385007D+12
      8  0.941238D+01  0.103697D+02  0.385007D+12
      9  0.951512D+01  0.122249D+01  0.126354D+01  0.385007D+12
     10 -0.551063D+01  0.199581D+01  0.123305D+01  0.110383D+02  0.385007D+12
     11 -0.948648D+00  0.863770D-01  0.586780D+01  0.509417D+01  0.235382D+00
     12  0.388511D-01  0.886573D-01 -0.702749D+00 -0.403248D-01  0.191522D+00
     13  0.118310D+01  0.478806D+00 -0.118627D+01 -0.125854D+01  0.429801D+00
     14  0.100860D+01  0.303064D+00 -0.101323D+01 -0.730028D+00  0.385950D+00
     15  0.118153D-01  0.176380D-01 -0.144572D-01 -0.227607D+00  0.379976D-01
     16 -0.909355D-02 -0.117708D-01 -0.883152D-02  0.254802D-01 -0.240577D-02
     17  0.127331D+02 -0.240820D+01 -0.295562D+00 -0.105967D+01 -0.300967D+01
     18 -0.509394D+01 -0.391987D+00  0.558655D-01  0.414453D+00  0.270359D-01
     19 -0.262865D-01  0.754719D-02 -0.405985D+00  0.337298D-01  0.385810D-01
     20 -0.864041D-02  0.160823D-01  0.433945D-01  0.419239D-01 -0.867176D-03
     21 -0.671658D-02 -0.193062D-02  0.853525D-02  0.384556D-01 -0.584410D-02
     22  0.124286D-01  0.383702D-02 -0.117816D-02  0.402846D-02  0.396035D-02
     23 -0.470565D-02 -0.353530D-02  0.900534D-02  0.513728D-03 -0.176128D-02
     24  0.167509D-02  0.120256D-01  0.171343D-01  0.274212D-02 -0.900550D-03
     25  0.107610D-02  0.239258D-02  0.351891D-02  0.214499D-02  0.586393D-03
     26  0.532777D-02  0.195432D-02 -0.466845D-02 -0.297548D-02  0.189213D-02
     27 -0.628445D-03 -0.630094D-03 -0.200823D-03  0.146918D-02 -0.288836D-03
     28  0.417617D-03  0.128613D-03 -0.555432D-03 -0.637845D-03  0.902549D-04
     29 -0.208965D-02 -0.281247D-02  0.326442D-02  0.428367D-02 -0.104969D-02
     30  0.460072D-02  0.222498D-02 -0.377551D-02 -0.172503D-03 -0.382876D-04
     31 -0.861205D-03 -0.547182D-03  0.112456D-03  0.745454D-03 -0.729089D-03
     32  0.226790D-02  0.166152D-02 -0.531364D-02  0.344722D-02  0.535457D-03
     33 -0.364745D-02 -0.682785D-03  0.333298D-02 -0.789863D-03 -0.820048D-03
               11            12            13            14            15 
     11  0.243533D+11
     12  0.140632D+03  0.385007D+12
     13  0.131183D+03 -0.260572D+02  0.385007D+12
     14  0.323737D+02 -0.495677D+01 -0.752302D+01  0.243533D+11
     15 -0.685533D+01  0.854033D+01  0.361111D+00  0.165056D+03  0.385007D+12
     16 -0.835207D+00  0.588051D+01  0.391410D+01  0.554166D+02 -0.973946D+01
     17 -0.645769D-01 -0.697748D-02 -0.217758D+00 -0.213695D+00  0.640706D-02
     18  0.919827D-01 -0.334445D-02 -0.171418D+00 -0.164134D+00  0.290798D-02
     19 -0.937404D+00 -0.188602D+00 -0.366401D+00 -0.513434D+01 -0.136185D+01
     20  0.662201D+00  0.272967D-01  0.379980D+01  0.748886D+01 -0.125779D+01
     21  0.449122D+01 -0.177354D+00 -0.107390D+01  0.171690D+01  0.492578D+01
     22  0.273746D-01  0.265743D-01  0.125308D+00  0.561313D+01  0.374686D+00
     23 -0.236901D+00  0.595815D-01  0.828035D-01  0.546154D+00 -0.787094D-01
     24  0.296606D+01 -0.225437D+00  0.343519D+00 -0.316504D+00  0.297949D+01
     25 -0.583574D-01  0.737312D-02  0.264841D+00  0.130555D+01 -0.626862D+00
     26  0.951434D-01 -0.139287D-01  0.656737D-02  0.369834D+00  0.541758D+00
     27 -0.388976D-01 -0.281087D-01 -0.336075D-01  0.305736D-01  0.935213D+00
     28 -0.274137D-01  0.950875D-02 -0.923978D-02  0.716543D+00 -0.623632D-01
     29 -0.152140D+00  0.150697D+00  0.159279D+00  0.136893D+01  0.316678D+00
     30  0.426282D+00 -0.111824D-01 -0.291321D-01 -0.650633D+00  0.745216D+00
     31  0.155369D-01  0.123234D-01  0.152714D-01 -0.183389D+00  0.150176D+00
     32  0.584507D+00  0.108738D-01 -0.287808D-02 -0.668702D+00  0.314002D+00
     33 -0.170439D+00 -0.110205D+00 -0.382055D-01 -0.963471D+00 -0.105614D+01
               16            17            18            19            20 
     16  0.243533D+11
     17  0.546349D-02  0.708114D+10
     18  0.367212D-02 -0.842421D+02  0.385007D+12
     19  0.105440D+02  0.704728D-02  0.738431D-02  0.708114D+10
     20  0.225704D+00 -0.103634D-02  0.638390D-03 -0.349860D+00  0.201170D+10
     21  0.910256D+00  0.944538D-03  0.105886D-02 -0.297728D+00  0.696682D+02
     22  0.169254D+02 -0.203855D-02 -0.140440D-02 -0.186472D+01 -0.596681D-01
     23  0.283875D+01  0.770158D-03  0.559515D-03 -0.191167D+01 -0.203136D+00
     24  0.593899D-01 -0.164068D-02 -0.112566D-02  0.207932D-01  0.140672D+02
     25 -0.258189D+00 -0.639604D-03 -0.286531D-03 -0.596233D-01  0.701404D+01
     26  0.375224D+00 -0.117972D-02 -0.874183D-03  0.853715D-02  0.108571D+01
     27  0.710895D+00  0.943373D-04  0.795044D-04 -0.275520D-01  0.575703D+00
     28 -0.247627D-02 -0.703138D-04 -0.787777D-04 -0.105682D-01  0.722603D+00
     29 -0.449444D+00  0.431103D-03  0.327036D-03 -0.659856D+00  0.893225D-01
     30  0.109079D+01 -0.114001D-02 -0.908946D-03 -0.977874D+00  0.404444D-01
     31  0.744059D+01  0.123792D-03  0.689266D-04 -0.760335D+00  0.159898D-01
     32  0.188714D+01 -0.733143D-03 -0.468397D-03 -0.102230D+01  0.576531D-02
     33 -0.500743D+00  0.922272D-03  0.696313D-03  0.350802D-01 -0.180460D+01
               21            22            23            24            25 
     21  0.385007D+12
     22  0.211017D-01  0.201170D+10
     23  0.189821D+00  0.713473D+02  0.385007D+12
     24  0.354532D+01 -0.528960D-02  0.257289D-01  0.243533D+11
     25  0.652465D+00 -0.146856D-01  0.330883D-01  0.530587D+02  0.243533D+11
     26 -0.355629D+00  0.807427D-02  0.146422D-02 -0.926208D+01  0.143495D+03
     27 -0.349281D+00  0.123596D-02  0.385223D-02 -0.943662D+01  0.139056D+03
     28 -0.291618D+00 -0.344528D-02  0.257493D-02 -0.591002D+01  0.133771D+03
     29 -0.289756D-01  0.977551D+01  0.274284D+01 -0.118376D-01 -0.874314D-04
     30 -0.139590D-01 -0.130612D+01  0.361464D+01  0.224584D-01  0.689850D-02
     31 -0.152569D-01 -0.811755D+00  0.916461D+01  0.461982D-02 -0.223019D-02
     32  0.407939D-01 -0.144906D+01  0.318105D+01 -0.737429D-02  0.259479D-02
     33 -0.179349D+01 -0.950788D-01 -0.345569D-01  0.103782D+02 -0.381334D+01
               26            27            28            29            30 
     26  0.385007D+12
     27 -0.289683D+02  0.385007D+12
     28 -0.226654D+02 -0.231848D+02  0.385007D+12
     29 -0.167534D-03  0.968989D-04 -0.290382D-03  0.243533D+11
     30  0.688816D-02  0.301910D-02 -0.518756D-03  0.155229D+03  0.385007D+12
     31  0.841790D-02  0.414977D-02  0.109248D-03  0.143293D+03 -0.231056D+02
     32 -0.246156D-02 -0.566284D-02  0.166926D-03  0.158242D+03 -0.231581D+02
     33 -0.191866D+01 -0.188873D+01 -0.342432D+01  0.200648D-01 -0.564964D-01
               31            32            33 
     31  0.385007D+12
     32 -0.233561D+02  0.385007D+12
     33 -0.654437D-02 -0.546558D-01  0.708114D+10
 End of Minotr F.D. properties file   721 does not exist.
 End of Minotr F.D. properties file   722 does not exist.
 End of Minotr F.D. properties file   788 does not exist.
 Leave Link 1002 at Wed Jun 25 01:19:57 2014, MaxMem=  4294967296 cpu:    440379.4
 (Enter /home/ztw1e12/g09/l601.exe)
 Copying SCF densities to generalized density rwf, IOpCl= 0 IROHF=0.

 **********************************************************************

            Population analysis using the SCF density.

 **********************************************************************

 Orbital symmetries:
       Occupied  (A) (A) (A) (A) (A) (A) (A) (A) (A) (A) (A) (A)
                 (A) (A) (A) (A) (A) (A) (A) (A) (A) (A) (A) (A)
                 (A) (A) (A) (A) (A) (A) (A) (A) (A) (A) (A) (A)
                 (A) (A) (A) (A) (A) (A) (A) (A) (A) (A) (A) (A)
                 (A) (A) (A) (A) (A) (A) (A) (A) (A) (A) (A) (A)
                 (A) (A) (A)
       Virtual   (A) (A) (A) (A) (A) (A) (A) (A) (A) (A) (A) (A)
                 (A) (A) (A) (A) (A) (A) (A) (A) (A) (A) (A) (A)
                 (A) (A) (A) (A) (A) (A) (A) (A) (A) (A) (A) (A)
                 (A) (A) (A) (A) (A) (A) (A) (A) (A) (A) (A) (A)
                 (A) (A) (A) (A) (A) (A) (A) (A) (A) (A) (A) (A)
                 (A) (A) (A) (A) (A) (A) (A) (A) (A) (A) (A) (A)
                 (A) (A) (A) (A) (A) (A) (A) (A) (A) (A) (A) (A)
                 (A) (A) (A) (A) (A) (A) (A) (A) (A) (A) (A) (A)
                 (A) (A) (A) (A) (A) (A) (A) (A) (A) (A) (A) (A)
                 (A) (A) (A) (A) (A) (A) (A) (A) (A) (A) (A) (A)
                 (A) (A) (A) (A) (A) (A) (A) (A) (A) (A) (A) (A)
                 (A) (A) (A) (A) (A) (A) (A) (A) (A) (A) (A) (A)
                 (A) (A) (A) (A) (A) (A) (A) (A) (A) (A) (A) (A)
                 (A) (A) (A) (A) (A) (A) (A) (A) (A) (A) (A) (A)
                 (A) (A) (A) (A) (A) (A) (A) (A) (A) (A) (A) (A)
                 (A) (A) (A) (A) (A) (A) (A) (A) (A) (A) (A) (A)
                 (A) (A) (A) (A) (A) (A) (A) (A) (A) (A) (A) (A)
                 (A) (A) (A) (A) (A) (A) (A) (A) (A) (A) (A) (A)
                 (A) (A) (A) (A) (A) (A) (A) (A) (A) (A) (A) (A)
                 (A) (A) (A) (A) (A) (A) (A) (A) (A) (A) (A) (A)
                 (A) (A) (A) (A) (A) (A) (A) (A) (A) (A) (A) (A)
                 (A) (A) (A) (A) (A) (A) (A) (A) (A) (A) (A) (A)
                 (A) (A) (A) (A) (A) (A) (A) (A) (A) (A) (A) (A)
                 (A) (A) (A) (A) (A) (A) (A) (A) (A) (A) (A) (A)
                 (A) (A) (A) (A) (A) (A) (A) (A) (A) (A) (A) (A)
                 (A) (A) (A) (A) (A) (A) (A) (A) (A) (A) (A) (A)
                 (A) (A) (A) (A) (A) (A) (A) (A) (A) (A) (A) (A)
                 (A) (A) (A) (A) (A) (A) (A) (A) (A) (A) (A) (A)
                 (A) (A) (A) (A) (A) (A) (A) (A) (A) (A) (A) (A)
                 (A) (A) (A) (A) (A) (A) (A) (A) (A) (A) (A) (A)
                 (A) (A) (A) (A) (A) (A) (A) (A) (A) (A) (A) (A)
                 (A) (A) (A) (A) (A) (A) (A) (A) (A) (A) (A) (A)
                 (A) (A) (A) (A) (A) (A) (A) (A) (A) (A) (A) (A)
                 (A) (A) (A) (A) (A) (A) (A) (A) (A) (A) (A) (A)
                 (A) (A) (A) (A) (A) (A) (A) (A) (A) (A) (A) (A)
                 (A) (A) (A) (A) (A) (A) (A) (A) (A) (A) (A) (A)
                 (A) (A) (A) (A) (A) (A) (A) (A) (A) (A) (A) (A)
                 (A) (A) (A) (A) (A) (A) (A) (A) (A) (A) (A) (A)
                 (A) (A) (A) (A) (A) (A) (A) (A) (A) (A) (A) (A)
                 (A) (A) (A) (A) (A) (A) (A) (A) (A) (A) (A) (A)
                 (A) (A) (A) (A) (A) (A) (A) (A) (A) (A) (A) (A)
                 (A) (A) (A) (A) (A) (A) (A) (A) (A) (A) (A) (A)
                 (A) (A) (A) (A) (A) (A) (A) (A) (A) (A) (A) (A)
                 (A) (A) (A) (A) (A) (A) (A) (A) (A) (A) (A) (A)
                 (A) (A) (A) (A) (A) (A) (A) (A) (A) (A) (A) (A)
                 (A) (A) (A) (A) (A) (A) (A) (A) (A) (A) (A) (A)
                 (A) (A) (A) (A) (A) (A) (A) (A) (A) (A) (A) (A)
                 (A) (A) (A) (A) (A) (A) (A) (A) (A) (A) (A) (A)
                 (A) (A) (A) (A) (A) (A) (A) (A) (A) (A) (A) (A)
                 (A) (A) (A) (A) (A) (A) (A) (A) (A) (A) (A) (A)
                 (A) (A) (A) (A) (A) (A) (A) (A) (A) (A) (A) (A)
                 (A) (A) (A) (A) (A) (A) (A) (A) (A) (A) (A) (A)
                 (A) (A) (A) (A) (A) (A) (A) (A) (A) (A) (A) (A)
                 (A) (A) (A) (A) (A) (A) (A) (A) (A) (A) (A) (A)
                 (A) (A) (A) (A) (A) (A) (A) (A) (A) (A) (A) (A)
                 (A) (A) (A) (A) (A) (A) (A) (A) (A) (A) (A) (A)
                 (A) (A) (A) (A) (A) (A) (A) (A) (A) (A) (A) (A)
                 (A) (A) (A) (A) (A) (A) (A) (A) (A) (A) (A) (A)
                 (A) (A) (A) (A) (A) (A) (A) (A) (A) (A) (A) (A)
                 (A) (A) (A) (A) (A) (A) (A) (A) (A) (A) (A) (A)
                 (A) (A) (A) (A) (A) (A) (A) (A) (A) (A) (A) (A)
                 (A) (A) (A) (A) (A) (A) (A) (A) (A) (A) (A) (A)
                 (A) (A) (A) (A) (A) (A) (A) (A) (A) (A) (A) (A)
                 (A) (A) (A) (A) (A) (A) (A) (A) (A) (A) (A) (A)
                 (A) (A) (A) (A) (A) (A) (A) (A) (A) (A) (A) (A)
                 (A) (A) (A) (A) (A) (A) (A) (A) (A) (A) (A) (A)
                 (A) (A) (A) (A) (A) (A) (A) (A) (A) (A) (A) (A)
                 (A) (A) (A) (A) (A) (A) (A) (A) (A) (A) (A) (A)
                 (A) (A) (A) (A) (A) (A) (A) (A) (A) (A) (A) (A)
                 (A) (A) (A) (A) (A) (A) (A) (A) (A) (A) (A) (A)
                 (A) (A) (A) (A) (A) (A) (A) (A) (A) (A) (A) (A)
                 (A) (A) (A) (A) (A) (A) (A) (A) (A) (A) (A) (A)
                 (A) (A) (A) (A) (A) (A) (A) (A) (A) (A) (A) (A)
                 (A) (A) (A) (A) (A) (A) (A) (A) (A) (A) (A) (A)
                 (A) (A) (A) (A) (A) (A) (A) (A) (A) (A) (A) (A)
                 (A) (A) (A) (A) (A) (A) (A) (A) (A) (A) (A) (A)
                 (A) (A) (A) (A) (A) (A) (A) (A) (A) (A) (A) (A)
                 (A) (A) (A) (A) (A) (A) (A) (A) (A) (A) (A) (A)
                 (A) (A) (A) (A) (A) (A) (A) (A) (A) (A) (A) (A)
                 (A) (A) (A) (A) (A) (A) (A) (A) (A) (A) (A) (A)
                 (A) (A) (A) (A) (A) (A) (A) (A) (A) (A) (A) (A)
                 (A) (A) (A) (A) (A) (A) (A) (A) (A) (A) (A) (A)
                 (A) (A) (A) (A) (A) (A) (A) (A) (A) (A) (A) (A)
                 (A) (A) (A) (A) (A) (A) (A) (A) (A)
 The electronic state is 1-A.
 Alpha  occ. eigenvalues --  -19.24154 -19.17981 -19.16727 -14.43097 -14.41731
 Alpha  occ. eigenvalues --  -10.34883 -10.33255 -10.30137 -10.29154 -10.27090
 Alpha  occ. eigenvalues --  -10.26029 -10.25322 -10.24359 -10.24179 -10.24088
 Alpha  occ. eigenvalues --  -10.23751 -10.23456  -1.08439  -1.06159  -1.04593
 Alpha  occ. eigenvalues --   -0.95996  -0.93758  -0.87197  -0.81440  -0.77226
 Alpha  occ. eigenvalues --   -0.76039  -0.74192  -0.71717  -0.66715  -0.63506
 Alpha  occ. eigenvalues --   -0.61987  -0.59916  -0.59693  -0.55890  -0.55184
 Alpha  occ. eigenvalues --   -0.52211  -0.50713  -0.49434  -0.48539  -0.47243
 Alpha  occ. eigenvalues --   -0.46846  -0.45606  -0.44675  -0.43680  -0.43144
 Alpha  occ. eigenvalues --   -0.42694  -0.42404  -0.42207  -0.41476  -0.41045
 Alpha  occ. eigenvalues --   -0.40040  -0.39203  -0.37987  -0.36824  -0.36135
 Alpha  occ. eigenvalues --   -0.34707  -0.34451  -0.30211  -0.27659  -0.27346
 Alpha  occ. eigenvalues --   -0.26563  -0.25920  -0.22989
 Alpha virt. eigenvalues --   -0.00658   0.00401   0.01323   0.01700   0.02759
 Alpha virt. eigenvalues --    0.03550   0.03577   0.04741   0.05486   0.06353
 Alpha virt. eigenvalues --    0.07028   0.07872   0.09002   0.09559   0.10209
 Alpha virt. eigenvalues --    0.10688   0.11782   0.12375   0.12619   0.13232
 Alpha virt. eigenvalues --    0.15209   0.16096   0.16475   0.17533   0.18806
 Alpha virt. eigenvalues --    0.19859   0.21179   0.22253   0.23013   0.23384
 Alpha virt. eigenvalues --    0.24262   0.25063   0.25492   0.26198   0.26593
 Alpha virt. eigenvalues --    0.27034   0.27944   0.28459   0.29927   0.30256
 Alpha virt. eigenvalues --    0.30859   0.31307   0.32454   0.32475   0.32652
 Alpha virt. eigenvalues --    0.33417   0.33694   0.34417   0.35084   0.35318
 Alpha virt. eigenvalues --    0.35918   0.36412   0.36662   0.36935   0.37343
 Alpha virt. eigenvalues --    0.38358   0.38772   0.39171   0.39756   0.39924
 Alpha virt. eigenvalues --    0.40195   0.40572   0.41423   0.41619   0.41829
 Alpha virt. eigenvalues --    0.41892   0.42818   0.43180   0.43353   0.43805
 Alpha virt. eigenvalues --    0.44561   0.45227   0.45342   0.45720   0.47058
 Alpha virt. eigenvalues --    0.47486   0.47716   0.48748   0.49563   0.50681
 Alpha virt. eigenvalues --    0.50939   0.51269   0.51898   0.52361   0.52672
 Alpha virt. eigenvalues --    0.53894   0.54533   0.55803   0.56130   0.56771
 Alpha virt. eigenvalues --    0.57156   0.59030   0.59550   0.60276   0.60835
 Alpha virt. eigenvalues --    0.61747   0.63044   0.63408   0.64679   0.64726
 Alpha virt. eigenvalues --    0.66023   0.66566   0.67167   0.68064   0.69221
 Alpha virt. eigenvalues --    0.69313   0.70186   0.70535   0.71734   0.72246
 Alpha virt. eigenvalues --    0.72807   0.73066   0.73646   0.75276   0.76222
 Alpha virt. eigenvalues --    0.76758   0.77437   0.78658   0.79394   0.80500
 Alpha virt. eigenvalues --    0.81080   0.81308   0.82004   0.82810   0.83692
 Alpha virt. eigenvalues --    0.83778   0.84608   0.85031   0.85479   0.86946
 Alpha virt. eigenvalues --    0.87566   0.88253   0.88811   0.89732   0.90476
 Alpha virt. eigenvalues --    0.90818   0.92038   0.92992   0.93662   0.94132
 Alpha virt. eigenvalues --    0.94808   0.95885   0.96056   0.96786   0.97809
 Alpha virt. eigenvalues --    0.98345   0.99474   0.99823   1.00690   1.01929
 Alpha virt. eigenvalues --    1.02344   1.02988   1.03479   1.04843   1.05734
 Alpha virt. eigenvalues --    1.06234   1.06885   1.08188   1.08539   1.09770
 Alpha virt. eigenvalues --    1.10822   1.11148   1.11856   1.13356   1.14448
 Alpha virt. eigenvalues --    1.14778   1.15015   1.16081   1.16530   1.17228
 Alpha virt. eigenvalues --    1.17825   1.18025   1.18575   1.19383   1.20545
 Alpha virt. eigenvalues --    1.20725   1.21268   1.21974   1.22291   1.22565
 Alpha virt. eigenvalues --    1.22944   1.23403   1.24493   1.24648   1.25425
 Alpha virt. eigenvalues --    1.25829   1.26076   1.26420   1.27076   1.28027
 Alpha virt. eigenvalues --    1.28224   1.28594   1.29601   1.29947   1.31101
 Alpha virt. eigenvalues --    1.31207   1.32270   1.32666   1.33496   1.34022
 Alpha virt. eigenvalues --    1.34608   1.34981   1.36400   1.36889   1.37701
 Alpha virt. eigenvalues --    1.39016   1.39212   1.41660   1.42321   1.43167
 Alpha virt. eigenvalues --    1.43792   1.44924   1.46581   1.47843   1.49272
 Alpha virt. eigenvalues --    1.51694   1.52200   1.53767   1.55821   1.58501
 Alpha virt. eigenvalues --    1.60042   1.60761   1.61984   1.62204   1.63710
 Alpha virt. eigenvalues --    1.65116   1.66466   1.68384   1.69271   1.71521
 Alpha virt. eigenvalues --    1.73410   1.74065   1.74937   1.75596   1.77909
 Alpha virt. eigenvalues --    1.79559   1.81889   1.83142   1.84182   1.85432
 Alpha virt. eigenvalues --    1.86105   1.87153   1.88246   1.89163   1.89420
 Alpha virt. eigenvalues --    1.90873   1.92188   1.93557   1.95020   1.96686
 Alpha virt. eigenvalues --    1.97324   1.97814   2.00260   2.01359   2.02922
 Alpha virt. eigenvalues --    2.03026   2.04612   2.06157   2.08175   2.09655
 Alpha virt. eigenvalues --    2.10425   2.10775   2.11658   2.12288   2.13756
 Alpha virt. eigenvalues --    2.14824   2.17079   2.17479   2.19627   2.20751
 Alpha virt. eigenvalues --    2.22635   2.22827   2.23125   2.24900   2.26760
 Alpha virt. eigenvalues --    2.27094   2.29357   2.30856   2.31892   2.32602
 Alpha virt. eigenvalues --    2.33158   2.35783   2.36361   2.37427   2.37956
 Alpha virt. eigenvalues --    2.38564   2.39427   2.41036   2.41433   2.42103
 Alpha virt. eigenvalues --    2.43806   2.44885   2.45018   2.45294   2.47792
 Alpha virt. eigenvalues --    2.49849   2.50699   2.52195   2.52511   2.54621
 Alpha virt. eigenvalues --    2.55951   2.57346   2.57450   2.58861   2.59864
 Alpha virt. eigenvalues --    2.62213   2.63109   2.64678   2.66176   2.66682
 Alpha virt. eigenvalues --    2.67742   2.68442   2.69169   2.69522   2.69668
 Alpha virt. eigenvalues --    2.70506   2.70849   2.71146   2.71562   2.72732
 Alpha virt. eigenvalues --    2.73005   2.74010   2.74322   2.74953   2.76747
 Alpha virt. eigenvalues --    2.77015   2.77534   2.78598   2.79646   2.80382
 Alpha virt. eigenvalues --    2.81315   2.83379   2.84533   2.86163   2.86553
 Alpha virt. eigenvalues --    2.86890   2.87476   2.88654   2.88796   2.89939
 Alpha virt. eigenvalues --    2.90271   2.90433   2.91269   2.92000   2.92739
 Alpha virt. eigenvalues --    2.92949   2.93681   2.94585   2.95662   2.96290
 Alpha virt. eigenvalues --    2.96588   2.96834   2.97681   2.98081   2.98814
 Alpha virt. eigenvalues --    2.99618   2.99972   3.00478   3.00966   3.01614
 Alpha virt. eigenvalues --    3.02743   3.03032   3.03541   3.03930   3.04801
 Alpha virt. eigenvalues --    3.05243   3.05801   3.07375   3.08033   3.09155
 Alpha virt. eigenvalues --    3.10419   3.11267   3.11447   3.12731   3.13093
 Alpha virt. eigenvalues --    3.14138   3.14943   3.15336   3.16435   3.16699
 Alpha virt. eigenvalues --    3.17711   3.18194   3.18558   3.19289   3.19651
 Alpha virt. eigenvalues --    3.20557   3.22376   3.23418   3.24094   3.24408
 Alpha virt. eigenvalues --    3.26027   3.26827   3.27115   3.27367   3.27703
 Alpha virt. eigenvalues --    3.28055   3.29007   3.29586   3.30096   3.30930
 Alpha virt. eigenvalues --    3.31821   3.32194   3.33037   3.33812   3.34093
 Alpha virt. eigenvalues --    3.34492   3.36701   3.37291   3.37947   3.39125
 Alpha virt. eigenvalues --    3.40144   3.40967   3.41038   3.42012   3.42711
 Alpha virt. eigenvalues --    3.43289   3.44163   3.45305   3.45616   3.46680
 Alpha virt. eigenvalues --    3.47058   3.48437   3.48731   3.49213   3.49773
 Alpha virt. eigenvalues --    3.51208   3.52263   3.53911   3.54710   3.55175
 Alpha virt. eigenvalues --    3.55711   3.57417   3.59021   3.59973   3.60802
 Alpha virt. eigenvalues --    3.62095   3.62656   3.63549   3.64536   3.65411
 Alpha virt. eigenvalues --    3.67482   3.67880   3.68844   3.68938   3.70351
 Alpha virt. eigenvalues --    3.71612   3.71864   3.72428   3.73297   3.74037
 Alpha virt. eigenvalues --    3.74628   3.75002   3.75929   3.76366   3.77160
 Alpha virt. eigenvalues --    3.78138   3.79332   3.80642   3.80868   3.81770
 Alpha virt. eigenvalues --    3.82709   3.83645   3.85187   3.85540   3.86156
 Alpha virt. eigenvalues --    3.86555   3.87224   3.87955   3.88931   3.89512
 Alpha virt. eigenvalues --    3.91170   3.91832   3.92478   3.93295   3.94905
 Alpha virt. eigenvalues --    3.96866   3.97380   3.98348   3.98582   3.98966
 Alpha virt. eigenvalues --    4.01035   4.01839   4.03662   4.04297   4.04834
 Alpha virt. eigenvalues --    4.05639   4.06826   4.07067   4.07983   4.09367
 Alpha virt. eigenvalues --    4.10420   4.10848   4.11890   4.13098   4.14274
 Alpha virt. eigenvalues --    4.14459   4.15409   4.16141   4.17701   4.18239
 Alpha virt. eigenvalues --    4.18898   4.20554   4.20999   4.21921   4.23240
 Alpha virt. eigenvalues --    4.23476   4.24235   4.25173   4.25902   4.27051
 Alpha virt. eigenvalues --    4.27290   4.28299   4.28563   4.29753   4.30533
 Alpha virt. eigenvalues --    4.31630   4.33329   4.34335   4.35402   4.38152
 Alpha virt. eigenvalues --    4.38794   4.39920   4.40805   4.41752   4.45516
 Alpha virt. eigenvalues --    4.46093   4.46240   4.47622   4.49688   4.49999
 Alpha virt. eigenvalues --    4.53603   4.54473   4.55793   4.56795   4.58483
 Alpha virt. eigenvalues --    4.58875   4.59962   4.61442   4.62209   4.64208
 Alpha virt. eigenvalues --    4.64629   4.64737   4.66459   4.67371   4.68092
 Alpha virt. eigenvalues --    4.69297   4.70260   4.70985   4.72219   4.73126
 Alpha virt. eigenvalues --    4.74725   4.76212   4.76473   4.78035   4.79400
 Alpha virt. eigenvalues --    4.80183   4.82621   4.83978   4.85524   4.85895
 Alpha virt. eigenvalues --    4.86737   4.88502   4.89817   4.90663   4.91008
 Alpha virt. eigenvalues --    4.91794   4.93632   4.95387   4.95670   4.96704
 Alpha virt. eigenvalues --    4.97101   4.99026   5.01592   5.02208   5.02859
 Alpha virt. eigenvalues --    5.03669   5.04570   5.05508   5.07326   5.08625
 Alpha virt. eigenvalues --    5.09719   5.10664   5.12343   5.13354   5.15525
 Alpha virt. eigenvalues --    5.15809   5.16458   5.16852   5.18222   5.20243
 Alpha virt. eigenvalues --    5.21331   5.22154   5.23316   5.24526   5.28582
 Alpha virt. eigenvalues --    5.30237   5.31302   5.33767   5.36309   5.36946
 Alpha virt. eigenvalues --    5.40160   5.44165   5.44627   5.45634   5.47282
 Alpha virt. eigenvalues --    5.51471   5.52260   5.52653   5.53371   5.55651
 Alpha virt. eigenvalues --    5.57538   5.57745   5.58942   5.60846   5.62890
 Alpha virt. eigenvalues --    5.63373   5.64322   5.65604   5.66239   5.67767
 Alpha virt. eigenvalues --    5.68502   5.68856   5.71296   5.72878   5.73420
 Alpha virt. eigenvalues --    5.75083   5.79131   5.79748   5.80099   5.82008
 Alpha virt. eigenvalues --    5.84945   5.86882   5.90562   5.92410   5.97096
 Alpha virt. eigenvalues --    5.97345   5.98521   6.02836   6.06205   6.09629
 Alpha virt. eigenvalues --    6.16737   6.18459   6.19219   6.20434   6.27635
 Alpha virt. eigenvalues --    6.46717   6.47412   6.50208   6.52263   6.56104
 Alpha virt. eigenvalues --    6.60738   6.61509   6.63297   6.64307   6.67309
 Alpha virt. eigenvalues --    6.79384   6.80749   6.80954   6.88694   6.88960
 Alpha virt. eigenvalues --    6.90805   6.91493   6.92167   6.93360   7.07321
 Alpha virt. eigenvalues --    7.17380   7.18673   7.22791   7.27808   7.30187
 Alpha virt. eigenvalues --    7.68289   7.99565   8.10441   8.12908   8.14202
 Alpha virt. eigenvalues --    8.19712   8.22289   8.24505   8.36232   8.65878
 Alpha virt. eigenvalues --    8.73474   8.76778   8.77567   8.81506   8.82447
 Alpha virt. eigenvalues --    8.83584   8.85054   8.86306   8.87791   8.91552
 Alpha virt. eigenvalues --    8.92948   8.94896   8.97134   9.00533   9.07375
 Alpha virt. eigenvalues --    9.09465   9.13015   9.17243   9.20445   9.32301
 Alpha virt. eigenvalues --    9.36244   9.41152   9.41928   9.46760   9.49791
 Alpha virt. eigenvalues --    9.57615   9.61114   9.77480   9.81420  10.02461
 Alpha virt. eigenvalues --   10.08048  10.11119  10.12423  10.13479  10.16777
[...]
 Alpha virt. eigenvalues --    6.45705   6.47748   6.50152   6.52217   6.54267
 Alpha virt. eigenvalues --    6.55880   6.62133   6.62950   6.64813   6.68453
 Alpha virt. eigenvalues --    6.79197   6.81350   6.86595   6.86683   6.89164
 Alpha virt. eigenvalues --    6.90985   6.94196   7.08807   7.09076   7.10292
 Alpha virt. eigenvalues --    7.15285   7.19177   7.29283   7.44402   8.60046
 Alpha virt. eigenvalues --    9.45621   9.85563  11.91801  12.12492  12.30450
 Alpha virt. eigenvalues --   12.41140  12.51274  12.73456  12.94353  13.16793
 Alpha virt. eigenvalues --   13.41476  13.52760  13.59841  13.71981  14.04689
 Alpha virt. eigenvalues --   15.55428
          Condensed to atoms (all electrons):
               1          2          3          4          5          6
     1  C    5.396045   0.237609   0.003072  -0.037338  -0.027489   0.312693
     2  C    0.237609   5.304621   0.293302  -0.014242  -0.032052   0.024905
     3  C    0.003072   0.293302   5.373045   0.303345  -0.036238  -0.072486
     4  C   -0.037338  -0.014242   0.303345   5.203175   0.440455  -0.024888
     5  C   -0.027489  -0.032052  -0.036238   0.440455   5.057932   0.391187
     6  C    0.312693   0.024905  -0.072486  -0.024888   0.391187   4.868531
     7  H    0.451391  -0.034708   0.008872  -0.000817   0.004386  -0.073695
     8  H   -0.022199   0.438184  -0.084900   0.007163  -0.001340   0.007388
     9  H   -0.003294   0.007270  -0.102555   0.459372  -0.031854   0.011934
    10  H    0.013416  -0.005499   0.014650  -0.056591   0.452884  -0.079687
    11  C    0.007844  -0.057957   0.200375  -0.040259   0.002020  -0.000351
    12  H    0.000387  -0.003218  -0.021779   0.004606   0.000104  -0.000087
    13  H   -0.000183   0.003007  -0.044236  -0.005611  -0.000169   0.000127
    14  C   -0.000440   0.004540   0.000399  -0.013284   0.000027  -0.000181
    15  H   -0.000015   0.001364   0.019437  -0.011448   0.000819  -0.000275
    16  C   -0.000025  -0.003381  -0.009579   0.004270  -0.000039   0.000024
    17  O   -0.089830   0.013273  -0.000551   0.002838  -0.048931   0.391778
    18  H   -0.004959   0.004562  -0.000423  -0.000746   0.002351  -0.043425
    19  O    0.000118   0.004432  -0.007960  -0.000680   0.000071  -0.000012
    20  N    0.000003   0.000119  -0.008185   0.002099   0.000045   0.000006
    21  H    0.000000  -0.000041   0.001773   0.000110  -0.000013   0.000000
    22  N   -0.000002  -0.000008   0.002045  -0.000117   0.000001   0.000000
    23  H    0.000001   0.000014   0.000339  -0.000056   0.000000   0.000000
    24  C    0.000000   0.000058  -0.001454   0.000005  -0.000004   0.000000
    25  C    0.000000   0.000001  -0.000028  -0.000013   0.000000   0.000000
    26  H    0.000000   0.000000   0.000011  -0.000001   0.000000   0.000000
    27  H    0.000000   0.000000  -0.000006   0.000001   0.000000   0.000000
    28  H    0.000000   0.000000  -0.000010   0.000007   0.000000   0.000000
    29  C   -0.000002  -0.000054   0.000018   0.000015   0.000000   0.000000
    30  H    0.000002   0.000046  -0.000196   0.000004   0.000000   0.000000
    31  H    0.000000  -0.000001   0.000001   0.000000   0.000000   0.000000
    32  H   -0.000001  -0.000017   0.000066   0.000000   0.000000   0.000000
    33  O    0.000000  -0.000001   0.000149  -0.000119  -0.000001   0.000000
               7          8          9         10         11         12
     1  C    0.451391  -0.022199  -0.003294   0.013416   0.007844   0.000387
     2  C   -0.034708   0.438184   0.007270  -0.005499  -0.057957  -0.003218
     3  C    0.008872  -0.084900  -0.102555   0.014650   0.200375  -0.021779
     4  C   -0.000817   0.007163   0.459372  -0.056591  -0.040259   0.004606
     5  C    0.004386  -0.001340  -0.031854   0.452884   0.002020   0.000104
     6  C   -0.073695   0.007388   0.011934  -0.079687  -0.000351  -0.000087
     7  H    0.539901  -0.007309   0.000046  -0.000234  -0.000424  -0.000027
     8  H   -0.007309   0.517256  -0.000228   0.000042   0.005868   0.000888
     9  H    0.000046  -0.000228   0.514906  -0.009886   0.004858   0.000151
    10  H   -0.000234   0.000042  -0.009886   0.543768  -0.000366   0.000020
    11  C   -0.000424   0.005868   0.004858  -0.000366   5.430804   0.393614
    12  H   -0.000027   0.000888   0.000151   0.000020   0.393614   0.472769
    13  H    0.000016   0.000663   0.000300  -0.000045   0.438572  -0.012768
    14  C    0.000022  -0.000791  -0.003499   0.000062   0.120325  -0.026763
    15  H    0.000012  -0.000164  -0.002827   0.000125  -0.043466   0.004687
    16  C   -0.000006   0.000748   0.000811  -0.000008  -0.007917  -0.012262
    17  O   -0.004155  -0.000106  -0.000143   0.006447   0.000004  -0.000001
    18  H    0.004543   0.000000   0.000047  -0.000960  -0.000005   0.000000
    19  O   -0.000003   0.003177  -0.000025   0.000001   0.008187  -0.003480
    20  N    0.000000   0.000011   0.002547  -0.000008  -0.016810  -0.000566
    21  H    0.000000   0.000009   0.000181   0.000000  -0.002788   0.000974
    22  N    0.000000  -0.000272  -0.000006   0.000000  -0.010437   0.008010
    23  H    0.000000  -0.000008  -0.000016   0.000000   0.001289   0.000513
    24  C    0.000000   0.000007   0.000185   0.000000   0.012935  -0.000863
    25  C    0.000000   0.000000   0.000006   0.000000   0.000261   0.000014
    26  H    0.000000   0.000000  -0.000015   0.000000  -0.000012  -0.000002
    27  H    0.000000   0.000000   0.000003   0.000000  -0.000008  -0.000004
    28  H    0.000000   0.000000   0.000008   0.000000  -0.000296  -0.000010
    29  C    0.000000   0.000014   0.000001   0.000000  -0.000509  -0.000287
    30  H    0.000000   0.000155   0.000000   0.000000   0.000690  -0.000650
    31  H    0.000000   0.000001   0.000000   0.000000  -0.000033  -0.000019
    32  H    0.000000  -0.000020   0.000000   0.000000  -0.000191   0.000146
    33  O    0.000000   0.000000  -0.000121   0.000000   0.001851   0.000050
              13         14         15         16         17         18
     1  C   -0.000183  -0.000440  -0.000015  -0.000025  -0.089830  -0.004959
     2  C    0.003007   0.004540   0.001364  -0.003381   0.013273   0.004562
     3  C   -0.044236   0.000399   0.019437  -0.009579  -0.000551  -0.000423
     4  C   -0.005611  -0.013284  -0.011448   0.004270   0.002838  -0.000746
     5  C   -0.000169   0.000027   0.000819  -0.000039  -0.048931   0.002351
     6  C    0.000127  -0.000181  -0.000275   0.000024   0.391778  -0.043425
     7  H    0.000016   0.000022   0.000012  -0.000006  -0.004155   0.004543
     8  H    0.000663  -0.000791  -0.000164   0.000748  -0.000106   0.000000
     9  H    0.000300  -0.003499  -0.002827   0.000811  -0.000143   0.000047
    10  H   -0.000045   0.000062   0.000125  -0.000008   0.006447  -0.000960
    11  C    0.438572   0.120325  -0.043466  -0.007917   0.000004  -0.000005
    12  H   -0.012768  -0.026763   0.004687  -0.012262  -0.000001   0.000000
    13  H    0.482450  -0.071450  -0.002412   0.007321  -0.000001   0.000000
    14  C   -0.071450   5.597211   0.435214   0.188400   0.000001   0.000000
    15  H   -0.002412   0.435214   0.439784  -0.058036   0.000000   0.000000
    16  C    0.007321   0.188400  -0.058036   4.632411   0.000000   0.000000
    17  O   -0.000001   0.000001   0.000000   0.000000   7.665764   0.359788
    18  H    0.000000   0.000000   0.000000   0.000000   0.359788   0.491011
    19  O   -0.000056  -0.078356   0.009364   0.723552   0.000000   0.000000
    20  N   -0.004148   0.132661  -0.044830  -0.026638   0.000000   0.000000
    21  H    0.007840  -0.019221   0.002122  -0.000996   0.000000   0.000000
    22  N   -0.000633  -0.080945   0.004155   0.362028   0.000000   0.000000
    23  H   -0.000292  -0.001937   0.001366  -0.035576   0.000000   0.000000
    24  C    0.000774  -0.102942  -0.010346   0.012291   0.000000   0.000000
    25  C   -0.000236   0.004169   0.001765  -0.000597   0.000000   0.000000
    26  H   -0.000014   0.000023   0.000143  -0.000157   0.000000   0.000000
    27  H    0.000021  -0.000444  -0.000216   0.000391   0.000000   0.000000
    28  H    0.000000   0.001462  -0.000407  -0.000146   0.000000   0.000000
    29  C    0.000070   0.011656  -0.000750  -0.055745   0.000000   0.000000
    30  H    0.000016  -0.001007  -0.000212  -0.001479   0.000000   0.000000
    31  H    0.000001   0.000745  -0.000016   0.007688   0.000000   0.000000
    32  H   -0.000001   0.001233   0.000227  -0.006921   0.000000   0.000000
    33  O   -0.000084   0.003040   0.019043   0.004737   0.000000   0.000000
              19         20         21         22         23         24
     1  C    0.000118   0.000003   0.000000  -0.000002   0.000001   0.000000
     2  C    0.004432   0.000119  -0.000041  -0.000008   0.000014   0.000058
     3  C   -0.007960  -0.008185   0.001773   0.002045   0.000339  -0.001454
     4  C   -0.000680   0.002099   0.000110  -0.000117  -0.000056   0.000005
     5  C    0.000071   0.000045  -0.000013   0.000001   0.000000  -0.000004
     6  C   -0.000012   0.000006   0.000000   0.000000   0.000000   0.000000
     7  H   -0.000003   0.000000   0.000000   0.000000   0.000000   0.000000
     8  H    0.003177   0.000011   0.000009  -0.000272  -0.000008   0.000007
     9  H   -0.000025   0.002547   0.000181  -0.000006  -0.000016   0.000185
    10  H    0.000001  -0.000008   0.000000   0.000000   0.000000   0.000000
    11  C    0.008187  -0.016810  -0.002788  -0.010437   0.001289   0.012935
    12  H   -0.003480  -0.000566   0.000974   0.008010   0.000513  -0.000863
    13  H   -0.000056  -0.004148   0.007840  -0.000633  -0.000292   0.000774
    14  C   -0.078356   0.132661  -0.019221  -0.080945  -0.001937  -0.102942
    15  H    0.009364  -0.044830   0.002122   0.004155   0.001366  -0.010346
    16  C    0.723552  -0.026638  -0.000996   0.362028  -0.035576   0.012291
    17  O    0.000000   0.000000   0.000000   0.000000   0.000000   0.000000
    18  H    0.000000   0.000000   0.000000   0.000000   0.000000   0.000000
    19  O    7.831822   0.005170  -0.000206  -0.123515   0.005210  -0.000876
    20  N    0.005170   6.672890   0.359914  -0.002969   0.027002   0.312947
    21  H   -0.000206   0.359914   0.510918  -0.000006   0.000062  -0.017810
    22  N   -0.123515  -0.002969  -0.000006   6.428785   0.387825   0.009056
    23  H    0.005210   0.027002   0.000062   0.387825   0.520285  -0.006540
    24  C   -0.000876   0.312947  -0.017810   0.009056  -0.006540   4.639687
    25  C   -0.000006  -0.063719  -0.001284  -0.000458   0.000399   0.277650
    26  H    0.000000   0.001390  -0.000142   0.000002   0.000173  -0.029390
    27  H   -0.000002  -0.002414   0.000097   0.000256  -0.000594  -0.021490
    28  H    0.000000   0.012800  -0.000712   0.000129  -0.000035  -0.059110
    29  C    0.009208  -0.001809   0.000057   0.289381  -0.032292   0.000139
    30  H    0.004392  -0.000041  -0.000007  -0.049207   0.001161   0.000196
    31  H    0.001534  -0.000193   0.000023  -0.027748  -0.007951  -0.000064
    32  H    0.005844  -0.000236   0.000012  -0.046963   0.003368  -0.000451
    33  O   -0.000093  -0.131730   0.005014  -0.005805  -0.003408   0.717866
              25         26         27         28         29         30
     1  C    0.000000   0.000000   0.000000   0.000000  -0.000002   0.000002
     2  C    0.000001   0.000000   0.000000   0.000000  -0.000054   0.000046
     3  C   -0.000028   0.000011  -0.000006  -0.000010   0.000018  -0.000196
     4  C   -0.000013  -0.000001   0.000001   0.000007   0.000015   0.000004
     5  C    0.000000   0.000000   0.000000   0.000000   0.000000   0.000000
     6  C    0.000000   0.000000   0.000000   0.000000   0.000000   0.000000
     7  H    0.000000   0.000000   0.000000   0.000000   0.000000   0.000000
     8  H    0.000000   0.000000   0.000000   0.000000   0.000014   0.000155
     9  H    0.000006  -0.000015   0.000003   0.000008   0.000001   0.000000
    10  H    0.000000   0.000000   0.000000   0.000000   0.000000   0.000000
    11  C    0.000261  -0.000012  -0.000008  -0.000296  -0.000509   0.000690
    12  H    0.000014  -0.000002  -0.000004  -0.000010  -0.000287  -0.000650
    13  H   -0.000236  -0.000014   0.000021   0.000000   0.000070   0.000016
    14  C    0.004169   0.000023  -0.000444   0.001462   0.011656  -0.001007
    15  H    0.001765   0.000143  -0.000216  -0.000407  -0.000750  -0.000212
    16  C   -0.000597  -0.000157   0.000391  -0.000146  -0.055745  -0.001479
    17  O    0.000000   0.000000   0.000000   0.000000   0.000000   0.000000
    18  H    0.000000   0.000000   0.000000   0.000000   0.000000   0.000000
    19  O   -0.000006   0.000000  -0.000002   0.000000   0.009208   0.004392
    20  N   -0.063719   0.001390  -0.002414   0.012800  -0.001809  -0.000041
    21  H   -0.001284  -0.000142   0.000097  -0.000712   0.000057  -0.000007
    22  N   -0.000458   0.000002   0.000256   0.000129   0.289381  -0.049207
    23  H    0.000399   0.000173  -0.000594  -0.000035  -0.032292   0.001161
    24  C    0.277650  -0.029390  -0.021490  -0.059110   0.000139   0.000196
    25  C    4.994885   0.393062   0.379748   0.396034  -0.000057   0.000001
    26  H    0.393062   0.556884  -0.022917  -0.025271  -0.000002   0.000000
    27  H    0.379748  -0.022917   0.574498  -0.026655   0.000021   0.000002
    28  H    0.396034  -0.025271  -0.026655   0.599272   0.000004   0.000000
    29  C   -0.000057  -0.000002   0.000021   0.000004   4.758329   0.396021
    30  H    0.000001   0.000000   0.000002   0.000000   0.396021   0.625021
    31  H   -0.000013   0.000000   0.000014   0.000001   0.394181  -0.029235
    32  H   -0.000011  -0.000001  -0.000002  -0.000001   0.402481  -0.055705
    33  O   -0.068212   0.002341   0.000943   0.004473   0.000216   0.000003
              31         32         33
     1  C    0.000000  -0.000001   0.000000
     2  C   -0.000001  -0.000017  -0.000001
     3  C    0.000001   0.000066   0.000149
     4  C    0.000000   0.000000  -0.000119
     5  C    0.000000   0.000000  -0.000001
     6  C    0.000000   0.000000   0.000000
     7  H    0.000000   0.000000   0.000000
     8  H    0.000001  -0.000020   0.000000
     9  H    0.000000   0.000000  -0.000121
    10  H    0.000000   0.000000   0.000000
    11  C   -0.000033  -0.000191   0.001851
    12  H   -0.000019   0.000146   0.000050
    13  H    0.000001  -0.000001  -0.000084
    14  C    0.000745   0.001233   0.003040
    15  H   -0.000016   0.000227   0.019043
    16  C    0.007688  -0.006921   0.004737
    17  O    0.000000   0.000000   0.000000
    18  H    0.000000   0.000000   0.000000
    19  O    0.001534   0.005844  -0.000093
    20  N   -0.000193  -0.000236  -0.131730
    21  H    0.000023   0.000012   0.005014
    22  N   -0.027748  -0.046963  -0.005805
    23  H   -0.007951   0.003368  -0.003408
    24  C   -0.000064  -0.000451   0.717866
    25  C   -0.000013  -0.000011  -0.068212
    26  H    0.000000  -0.000001   0.002341
    27  H    0.000014  -0.000002   0.000943
    28  H    0.000001  -0.000001   0.004473
    29  C    0.394181   0.402481   0.000216
    30  H   -0.029235  -0.055705   0.000003
    31  H    0.603019  -0.026257   0.000008
    32  H   -0.026257   0.604240   0.000229
    33  O    0.000008   0.000229   7.828599
 Mulliken charges:
               1
     1  C   -0.236803
     2  C   -0.186127
     3  C    0.169684
     4  C   -0.221253
     5  C   -0.174154
     6  C    0.286516
     7  H    0.112190
     8  H    0.135764
     9  H    0.151842
    10  H    0.121868
    11  C   -0.447668
    12  H    0.195849
    13  H    0.201162
    14  C   -0.099928
    15  H    0.235794
    16  C    0.274839
    17  O   -0.296176
    18  H    0.188217
    19  O   -0.396813
    20  N   -0.225307
    21  H    0.154117
    22  N   -0.142583
    23  H    0.139699
    24  C    0.267545
    25  C   -0.313362
    26  H    0.123896
    27  H    0.118753
    28  H    0.098460
    29  C   -0.170305
    30  H    0.110029
    31  H    0.084314
    32  H    0.118931
    33  O   -0.378990
 Sum of Mulliken charges =   0.00000
 Mulliken charges with hydrogens summed into heavy atoms:
               1
     1  C   -0.124613
     2  C   -0.050363
     3  C    0.169684
     4  C   -0.069411
     5  C   -0.052285
     6  C    0.286516
    11  C   -0.050657
    14  C    0.135866
    16  C    0.274839
    17  O   -0.107959
    19  O   -0.396813
    20  N   -0.071191
    22  N   -0.002884
    24  C    0.267545
    25  C    0.027747
    29  C    0.142969
    33  O   -0.378990
 Electronic spatial extent (au):  <R**2>=           5372.8976
 Charge=              0.0000 electrons
 Dipole moment (field-independent basis, Debye):
    X=              2.0194    Y=             -0.3773    Z=              5.4857  Tot=              5.8577
 Quadrupole moment (field-independent basis, Debye-Ang):
   XX=            -82.5525   YY=            -93.3130   ZZ=           -106.3323
   XY=             -6.6118   XZ=             11.6339   YZ=             -0.8595
 Traceless Quadrupole moment (field-independent basis, Debye-Ang):
   XX=             11.5134   YY=              0.7529   ZZ=            -12.2663
   XY=             -6.6118   XZ=             11.6339   YZ=             -0.8595
 Octapole moment (field-independent basis, Debye-Ang**2):
  XXX=             10.1059  YYY=             -5.9956  ZZZ=              3.5205  XYY=             19.9465
  XXY=             61.9823  XXZ=             22.6043  XZZ=              2.1586  YZZ=              2.9288
  YYZ=              7.1280  XYZ=             -9.9056
 Hexadecapole moment (field-independent basis, Debye-Ang**3):
 XXXX=          -4501.6343 YYYY=          -1415.2463 ZZZZ=           -416.9343 XXXY=           -296.2393
 XXXZ=            124.8829 YYYX=              6.1426 YYYZ=             20.6047 ZZZX=             44.1457
 ZZZY=            -19.5251 XXYY=           -953.3378 XXZZ=           -986.6408 YYZZ=           -325.5736
 XXYZ=            -56.1393 YYXZ=             16.9849 ZZXY=              6.3056
 N-N= 1.197031213096D+03 E-N=-4.264660970106D+03  KE= 7.961900179688D+02
 Calculating spin-rotation constants.
 Leave Link  601 at Wed Jun 25 06:06:34 2014, MaxMem=  4294967296 cpu:        91.4
 (Enter /home/ztw1e12/g09/l9999.exe)

 Test job not archived.
 1\1\GINC-GREEN0749\SP\RM06\Gen\C12H16N2O3\ROOT\25-Jun-2014\0\\#P Geom=
 AllCheck Guess=TCheck SCRF=Check GenChk RM06/ChkBas NMR=ReadFC IOp(3/6
 =22)\\NMR spin-spin scan\\0,1\C,0,2.800278,-1.899893,1.867138\C,0,2.18
 231,-0.743414,1.419078\C,0,1.528876,-0.703705,0.196404\C,0,1.507422,-1
 .862384,-0.574468\C,0,2.115996,-3.023743,-0.142508\C,0,2.764663,-3.042
 747,1.085196\H,0,3.309163,-1.92188,2.823949\H,0,2.208124,0.147556,2.03
 6444\H,0,1.001241,-1.851089,-1.534438\H,0,2.099702,-3.922952,-0.7452\C
 ,0,0.849237,0.539312,-0.290404\H,0,1.151645,1.399027,0.311977\H,0,1.17
 8715,0.744862,-1.312425\C,0,-0.687864,0.431109,-0.312414\H,0,-0.971617
 ,-0.624945,-0.294454\C,0,-1.229226,1.009695,0.978709\O,0,3.349984,-4.2
 11597,1.472128\H,0,3.762965,-4.094492,2.335125\O,0,-1.069746,0.386089,
 2.028113\N,0,-1.231014,1.017581,-1.517684\H,0,-0.620197,1.551335,-2.11
 7034\N,0,-1.8036,2.210756,0.927714\H,0,-1.932359,2.646842,0.028931\C,0
 ,-2.486003,0.751307,-1.933406\C,0,-2.89436,1.346451,-3.239933\H,0,-3.2
 74972,0.55369,-3.88289\H,0,-3.712859,2.045061,-3.06499\H,0,-2.08438,1.
 866546,-3.746711\C,0,-2.319425,2.853672,2.114782\H,0,-1.521786,3.05408
 9,2.830534\H,0,-2.780154,3.795724,1.834282\H,0,-3.06722,2.229347,2.604
 471\O,0,-3.252695,0.060325,-1.267148\\Version=EM64L-G09RevD.01\State=1
 -A\HF=-801.8578466\RMSD=4.325e-09\Dipole=0.8620948,1.8564343,-1.059066
 5\Quadrupole=-7.8664811,3.5825843,4.2838968,-7.3391094,7.2488999,-4.98
 21437\PG=C01 [X(C12H16N2O3)]\\@


 A FOOL CAN ASK MORE QUESTIONS THAN
 A WISE MAN CAN ANSWER.
 Job cpu time:       3 days  4 hours  2 minutes 10.5 seconds.
 File lengths (MBytes):  RWF=   3656 Int=      0 D2E=      0 Chk=     64 Scr=      8
 Normal termination of Gaussian 09 at Wed Jun 25 06:06:35 2014.
