 Entering Gaussian System, Link 0=g09
 Input=scan_input_21.gjf
 Output=scan_input_21.log
 Initial command:
 /home/ztw1e12/g09/l1.exe "/home/ztw1e12/tyrosine_scan/tyrosine_chi1_scan/Gau-15560.inp" -scrdir="/home/ztw1e12/tyrosine_scan/tyrosine_chi1_scan/"
 Default is to use a total of   8 processors:
                                8 via shared-memory
                                1 via Linda
 Entering Link 1 = /home/ztw1e12/g09/l1.exe PID=     15561.
  
 Copyright (c) 1988,1990,1992,1993,1995,1998,2003,2009,2013,
            Gaussian, Inc.  All Rights Reserved.
  
 This is part of the Gaussian(R) 09 program.  It is based on
 the Gaussian(R) 03 system (copyright 2003, Gaussian, Inc.),
 the Gaussian(R) 98 system (copyright 1998, Gaussian, Inc.),
 the Gaussian(R) 94 system (copyright 1995, Gaussian, Inc.),
 the Gaussian 92(TM) system (copyright 1992, Gaussian, Inc.),
 the Gaussian 90(TM) system (copyright 1990, Gaussian, Inc.),
 the Gaussian 88(TM) system (copyright 1988, Gaussian, Inc.),
 the Gaussian 86(TM) system (copyright 1986, Carnegie Mellon
 University), and the Gaussian 82(TM) system (copyright 1983,
 Carnegie Mellon University). Gaussian is a federally registered
 trademark of Gaussian, Inc.
  
 This software contains proprietary and confidential information,
 including trade secrets, belonging to Gaussian, Inc.
  
 This software is provided under written license and may be
 used, copied, transmitted, or stored only in accord with that
 written license.
  
 The following legend is applicable only to US Government
 contracts under FAR:
  
                    RESTRICTED RIGHTS LEGEND
  
 Use, reproduction and disclosure by the US Government is
 subject to restrictions as set forth in subparagraphs (a)
 and (c) of the Commercial Computer Software - Restricted
 Rights clause in FAR 52.227-19.
  
 Gaussian, Inc.
 340 Quinnipiac St., Bldg. 40, Wallingford CT 06492
  
  
 ---------------------------------------------------------------
 Warning -- This program may not be used in any manner that
 competes with the business of Gaussian, Inc. or will provide
 assistance to any competitor of Gaussian, Inc.  The licensee
 of this program is prohibited from giving any competitor of
 Gaussian, Inc. access to this program.  By using this program,
 the user acknowledges that Gaussian, Inc. is engaged in the
 business of creating and licensing software in the field of
 computational chemistry and represents and warrants to the
 licensee that it is not a competitor of Gaussian, Inc. and that
 it will not use this program in any manner prohibited above.
 ---------------------------------------------------------------
  

 Cite this work as:
 Gaussian 09, Revision D.01,
 M. J. Frisch, G. W. Trucks, H. B. Schlegel, G. E. Scuseria, 
 M. A. Robb, J. R. Cheeseman, G. Scalmani, V. Barone, B. Mennucci, 
 G. A. Petersson, H. Nakatsuji, M. Caricato, X. Li, H. P. Hratchian, 
 A. F. Izmaylov, J. Bloino, G. Zheng, J. L. Sonnenberg, M. Hada, 
 M. Ehara, K. Toyota, R. Fukuda, J. Hasegawa, M. Ishida, T. Nakajima, 
 Y. Honda, O. Kitao, H. Nakai, T. Vreven, J. A. Montgomery, Jr., 
 J. E. Peralta, F. Ogliaro, M. Bearpark, J. J. Heyd, E. Brothers, 
 K. N. Kudin, V. N. Staroverov, T. Keith, R. Kobayashi, J. Normand, 
 K. Raghavachari, A. Rendell, J. C. Burant, S. S. Iyengar, J. Tomasi, 
 M. Cossi, N. Rega, J. M. Millam, M. Klene, J. E. Knox, J. B. Cross, 
 V. Bakken, C. Adamo, J. Jaramillo, R. Gomperts, R. E. Stratmann, 
 O. Yazyev, A. J. Austin, R. Cammi, C. Pomelli, J. W. Ochterski, 
 R. L. Martin, K. Morokuma, V. G. Zakrzewski, G. A. Voth, 
 P. Salvador, J. J. Dannenberg, S. Dapprich, A. D. Daniels, 
 O. Farkas, J. B. Foresman, J. V. Ortiz, J. Cioslowski, 
 and D. J. Fox, Gaussian, Inc., Wallingford CT, 2013.
 
 ******************************************
 Gaussian 09:  EM64L-G09RevD.01 24-Apr-2013
                24-Jun-2014 
 ******************************************
 %Mem=32GB
 %NProcShared=16
 Will use up to   16 processors via shared memory.
 Default route:  MaxDisk=100GB
 ----------------------------------------------------------------------
 #p nmr=(giao,mixed,spinspin) m06/cc-pvtz scf=tight integral=(grid=ultr
 afine)
 ----------------------------------------------------------------------
 1/38=1/1;
 2/12=2,17=6,18=5,40=1/2;
 3/5=16,6=1,10=1100000,11=2,16=1,25=1,30=1,74=-54,75=-5/1,2,8,3;
 4//1;
 5/5=2,32=2,38=5/2;
 8/6=1,10=90,11=11/1;
 10/13=100,45=16,47=3/2;
 6/7=2,8=2,9=2,10=2,28=1/1;
 99/9=1/99;
 Leave Link    1 at Tue Jun 24 16:38:19 2014, MaxMem=  4294967296 cpu:         5.4
 (Enter /home/ztw1e12/g09/l101.exe)
 ------------------
 NMR spin-spin scan
 ------------------
 Symbolic Z-matrix:
 Charge =  0 Multiplicity = 1
 C                     2.49322  -0.90211   1.9882 
 C                     1.94057  -0.15586   0.96058 
 C                     1.39958  -0.76739  -0.16165 
 C                     1.43838  -2.15631  -0.23522 
 C                     1.98634  -2.91573   0.77963 
 C                     2.51134  -2.28482   1.89925 
 H                     2.91585  -0.4175    2.86094 
 H                     1.93067   0.92566   1.03843 
 H                     1.0193   -2.65124  -1.10489 
 H                     2.01386  -3.99629   0.72012 
 C                     0.71547   0.02908  -1.22851 
 H                     1.0481    1.07041  -1.16356 
 H                     0.97588  -0.33474  -2.22449 
 C                    -0.81617   0.02096  -1.10862 
 H                    -1.21393  -0.92851  -1.47767 
 C                    -1.22821   0.08937   0.35578 
 O                     3.038    -3.06854   2.88093 
 H                     3.35635  -2.50802   3.59746 
 O                    -1.47563  -0.93806   0.98361 
 N                    -1.34762   1.11897  -1.88508 
 H                    -0.70498   1.73029  -2.36556 
 N                    -1.24123   1.29926   0.91914 
 H                    -1.01191   2.10199   0.35532 
 C                    -2.67216   1.28402  -2.06255 
 C                    -3.09245   2.42544  -2.92628 
 H                    -3.70671   2.03993  -3.7397 
 H                    -3.71625   3.09883  -2.33869 
 H                    -2.25463   2.98293  -3.33917 
 C                    -1.44549   1.46609   2.33959 
 H                    -0.67342   0.94484   2.90925 
 H                    -1.40602   2.52429   2.57967 
 H                    -2.41664   1.07542   2.644 
 O                    -3.48862   0.53484  -1.53138 
 
 NAtoms=     33 NQM=       33 NQMF=       0 NMMI=      0 NMMIF=      0
                NMic=       0 NMicF=      0.
                    Isotopes and Nuclear Properties:
 (Nuclear quadrupole moments (NQMom) in fm**2, nuclear magnetic moments (NMagM)
  in nuclear magnetons)

  Atom         1           2           3           4           5           6           7           8           9          10
 IAtWgt=          12          12          12          12          12          12           1           1           1           1
 AtmWgt=  12.0000000  12.0000000  12.0000000  12.0000000  12.0000000  12.0000000   1.0078250   1.0078250   1.0078250   1.0078250
 NucSpn=           0           0           0           0           0           0           1           1           1           1
 AtZEff=   0.0000000   0.0000000   0.0000000   0.0000000   0.0000000   0.0000000   0.0000000   0.0000000   0.0000000   0.0000000
 NQMom=    0.0000000   0.0000000   0.0000000   0.0000000   0.0000000   0.0000000   0.0000000   0.0000000   0.0000000   0.0000000
 NMagM=    0.0000000   0.0000000   0.0000000   0.0000000   0.0000000   0.0000000   2.7928460   2.7928460   2.7928460   2.7928460
 AtZNuc=   6.0000000   6.0000000   6.0000000   6.0000000   6.0000000   6.0000000   1.0000000   1.0000000   1.0000000   1.0000000

  Atom        11          12          13          14          15          16          17          18          19          20
 IAtWgt=          12           1           1          12           1          12          16           1          16          14
 AtmWgt=  12.0000000   1.0078250   1.0078250  12.0000000   1.0078250  12.0000000  15.9949146   1.0078250  15.9949146  14.0030740
 NucSpn=           0           1           1           0           1           0           0           1           0           2
 AtZEff=   0.0000000   0.0000000   0.0000000   0.0000000   0.0000000   0.0000000   0.0000000   0.0000000   0.0000000   0.0000000
 NQMom=    0.0000000   0.0000000   0.0000000   0.0000000   0.0000000   0.0000000   0.0000000   0.0000000   0.0000000   2.0440000
 NMagM=    0.0000000   2.7928460   2.7928460   0.0000000   2.7928460   0.0000000   0.0000000   2.7928460   0.0000000   0.4037610
 AtZNuc=   6.0000000   1.0000000   1.0000000   6.0000000   1.0000000   6.0000000   8.0000000   1.0000000   8.0000000   7.0000000

  Atom        21          22          23          24          25          26          27          28          29          30
 IAtWgt=           1          14           1          12          12           1           1           1          12           1
 AtmWgt=   1.0078250  14.0030740   1.0078250  12.0000000  12.0000000   1.0078250   1.0078250   1.0078250  12.0000000   1.0078250
 NucSpn=           1           2           1           0           0           1           1           1           0           1
 AtZEff=   0.0000000   0.0000000   0.0000000   0.0000000   0.0000000   0.0000000   0.0000000   0.0000000   0.0000000   0.0000000
 NQMom=    0.0000000   2.0440000   0.0000000   0.0000000   0.0000000   0.0000000   0.0000000   0.0000000   0.0000000   0.0000000
 NMagM=    2.7928460   0.4037610   2.7928460   0.0000000   0.0000000   2.7928460   2.7928460   2.7928460   0.0000000   2.7928460
 AtZNuc=   1.0000000   7.0000000   1.0000000   6.0000000   6.0000000   1.0000000   1.0000000   1.0000000   6.0000000   1.0000000

  Atom        31          32          33
 IAtWgt=           1           1          16
 AtmWgt=   1.0078250   1.0078250  15.9949146
 NucSpn=           1           1           0
 AtZEff=   0.0000000   0.0000000   0.0000000
 NQMom=    0.0000000   0.0000000   0.0000000
 NMagM=    2.7928460   2.7928460   0.0000000
 AtZNuc=   1.0000000   1.0000000   8.0000000
 Leave Link  101 at Tue Jun 24 16:38:19 2014, MaxMem=  4294967296 cpu:         1.8
 (Enter /home/ztw1e12/g09/l202.exe)
                          Input orientation:                          
 ---------------------------------------------------------------------
 Center     Atomic      Atomic             Coordinates (Angstroms)
 Number     Number       Type             X           Y           Z
 ---------------------------------------------------------------------
      1          6           0        2.493215   -0.902114    1.988195
      2          6           0        1.940571   -0.155863    0.960580
      3          6           0        1.399581   -0.767386   -0.161649
      4          6           0        1.438382   -2.156308   -0.235217
      5          6           0        1.986339   -2.915725    0.779626
      6          6           0        2.511344   -2.284819    1.899249
      7          1           0        2.915848   -0.417499    2.860939
      8          1           0        1.930668    0.925663    1.038432
      9          1           0        1.019304   -2.651239   -1.104895
     10          1           0        2.013859   -3.996294    0.720118
     11          6           0        0.715467    0.029083   -1.228513
     12          1           0        1.048101    1.070408   -1.163560
     13          1           0        0.975876   -0.334744   -2.224493
     14          6           0       -0.816172    0.020960   -1.108616
     15          1           0       -1.213932   -0.928505   -1.477673
     16          6           0       -1.228209    0.089374    0.355783
     17          8           0        3.038000   -3.068539    2.880926
     18          1           0        3.356351   -2.508023    3.597463
     19          8           0       -1.475629   -0.938060    0.983609
     20          7           0       -1.347621    1.118973   -1.885076
     21          1           0       -0.704982    1.730292   -2.365564
     22          7           0       -1.241229    1.299264    0.919135
     23          1           0       -1.011905    2.101991    0.355323
     24          6           0       -2.672159    1.284019   -2.062551
     25          6           0       -3.092446    2.425443   -2.926276
     26          1           0       -3.706710    2.039934   -3.739698
     27          1           0       -3.716250    3.098834   -2.338685
     28          1           0       -2.254633    2.982934   -3.339170
     29          6           0       -1.445491    1.466086    2.339589
     30          1           0       -0.673416    0.944843    2.909249
     31          1           0       -1.406020    2.524289    2.579673
     32          1           0       -2.416635    1.075420    2.643996
     33          8           0       -3.488623    0.534840   -1.531379
 ---------------------------------------------------------------------
                    Distance matrix (angstroms):
                    1          2          3          4          5
     1  C    0.000000
     2  C    1.385027   0.000000
     3  C    2.415785   1.387814   0.000000
     4  C    2.762107   2.384094   1.391410   0.000000
     5  C    2.402539   2.766167   2.417777   1.380897   0.000000
     6  C    1.385681   2.395691   2.790326   2.392427   1.388246
     7  H    1.084044   2.151972   3.399636   3.846108   3.381861
     8  H    2.135247   1.084370   2.142116   3.370916   3.850499
     9  H    3.846954   3.367762   2.140847   1.084861   2.134603
    10  H    3.378128   3.848650   3.403042   2.151601   1.082556
    11  C    3.791402   2.515395   1.496855   2.507026   3.784129
    12  H    3.989080   2.610022   2.122463   3.380212   4.532716
    13  H    4.513421   3.332765   2.149891   2.736645   4.087448
    14  C    4.625402   3.451445   2.535310   3.253665   4.477013
    15  H    5.075025   4.061150   2.930585   3.175841   4.391603
    16  C    4.182919   3.235288   2.811948   3.535969   4.420812
    17  O    2.405651   3.657289   4.151745   3.619570   2.354741
    18  H    2.431808   3.806605   4.581451   4.300203   3.159645
    19  O    4.094168   3.504680   3.099609   3.385428   3.992241
    20  N    5.817133   4.531575   3.751756   4.605574   5.873220
    21  H    6.009429   4.649706   3.940155   4.923215   6.222612
    22  N    4.464866   3.498995   3.523211   4.522590   5.310630
    23  H    4.896609   3.765814   3.783629   4.948308   5.860629
    24  C    6.918729   5.699988   4.939712   5.663175   6.886031
    25  C    8.150109   6.863093   6.165681   6.983025   8.249596
    26  H    8.938874   7.668502   6.837959   7.507450   8.797366
    27  H    8.560779   7.312853   6.771918   7.655803   8.855411
    28  H    8.125052   6.777878   6.124934   7.048737   8.351317
    29  C    4.609257   3.999725   4.397616   5.297932   5.780243
    30  H    3.779834   3.441191   4.081600   4.895354   5.149134
    31  H    5.224377   4.583050   5.120680   6.158102   6.658980
    32  H    5.333605   4.830651   5.082429   5.796127   6.228266
    33  O    7.087639   6.013574   5.240848   5.761744   6.871852
                    6          7          8          9         10
     6  C    0.000000
     7  H    2.139008   0.000000
     8  H    3.374224   2.469047   0.000000
     9  H    3.374215   4.930955   4.268333   0.000000
    10  H    2.137051   4.266670   4.932941   2.475679   0.000000
    11  C    4.285115   4.665268   2.723896   2.700319   4.656892
    12  H    4.772780   4.679630   2.376688   3.722221   5.491120
    13  H    4.813076   5.443524   3.625870   2.573234   4.811974
    14  C    5.043434   5.466039   3.601865   3.241856   5.243250
    15  H    5.207770   6.011636   4.433648   2.845017   4.965909
    16  C    4.690771   4.868874   3.338247   3.833517   5.228425
    17  O    1.362084   2.653928   4.535925   4.487320   2.564895
    18  H    1.909918   2.259823   4.513470   5.253044   3.506615
    19  O    4.306752   4.804209   3.883211   3.677162   4.647445
    20  N    6.387372   6.562208   4.396754   4.519460   6.652258
    21  H    6.682402   6.711166   4.379642   4.874450   7.050342
    22  N    5.280916   4.898894   3.196051   4.981283   6.219175
    23  H    5.834475   5.296526   3.241777   5.371335   6.817434
    24  C    7.436475   7.639486   5.561522   5.479987   7.588394
    25  C    8.767823   8.813273   6.572665   6.782081   8.978265
    26  H    9.442744   9.667764   7.473430   7.161320   9.436679
    27  H    9.258873   9.131561   6.929305   7.550566   9.619317
    28  H    8.826369   8.760033   6.396289   6.888727   9.132769
    29  C    5.469893   4.779223   3.658349   5.906949   6.665387
    30  H    4.646882   3.839417   3.206490   5.648934   6.035609
    31  H    6.239891   5.235625   4.008056   6.800318   7.594177
    32  H    6.010893   5.541773   4.636734   6.304589   7.003775
    33  O    7.464535   7.824107   6.010440   5.536641   7.475140
                   11         12         13         14         15
    11  C    0.000000
    12  H    1.095090   0.000000
    13  H    1.091860   1.762171   0.000000
    14  C    1.536346   2.140064   2.140828   0.000000
    15  H    2.168326   3.034982   2.388630   1.093572   0.000000
    16  C    2.508287   2.907304   3.419896   1.522800   2.097103
    17  O    5.645964   6.119514   6.147462   6.349495   6.454150
    18  H    6.058153   6.387529   6.654696   6.778856   7.009948
    19  O    3.260330   3.874725   4.082375   2.394161   2.475174
    20  N    2.423895   2.502484   2.761727   1.446015   2.091893
    21  H    2.490918   2.225660   2.666376   2.124641   2.848962
    22  N    3.170869   3.103389   4.179466   2.434442   3.272367
    23  H    3.128785   2.759492   4.067481   2.551885   3.547477
    24  C    3.707626   3.833295   3.994343   2.439262   2.713627
    25  C    4.808861   4.699725   4.966123   3.777148   4.108069
    26  H    5.468567   5.494060   5.464573   4.399325   4.488021
    27  H    5.504177   5.309847   5.815371   4.404183   4.818962
    28  H    4.690587   4.393073   4.762949   3.977164   4.455063
    29  C    4.412037   4.318173   5.471458   3.791378   4.512114
    30  H    4.459673   4.423478   5.541914   4.125188   4.800695
    31  H    5.022852   4.706195   6.076801   4.496449   5.331111
    32  H    5.089323   5.148000   6.099170   4.213723   4.738182
    33  O    4.245220   4.583011   4.600906   2.754051   2.705269
                   16         17         18         19         20
    16  C    0.000000
    17  O    5.877865   0.000000
    18  H    6.186530   0.963821   0.000000
    19  O    1.229229   5.339625   5.713584   0.000000
    20  N    2.468964   7.712568   8.083359   3.532297   0.000000
    21  H    3.220576   8.035194   8.367522   4.350972   1.008744
    22  N    1.334679   6.421692   6.542677   2.250493   2.812014
    23  H    2.024207   7.036674   7.130593   3.138741   2.469497
    24  C    3.059495   8.717146   9.097157   3.955807   1.346528
    25  C    4.438976  10.074215  10.415625   5.405039   2.415652
    26  H    5.169199  10.743383  11.153684   6.012969   3.138964
    27  H    4.744192  10.530941  10.802610   5.688105   3.120259
    28  H    4.804052  10.164737  10.476193   5.887908   2.532076
    29  C    2.424466   6.399809   6.358732   2.760346   4.240031
    30  H    2.749511   5.466502   5.351163   2.810153   4.844629
    31  H    3.302441   7.149811   7.002874   3.813152   4.681058
    32  H    2.760537   6.854311   6.861307   2.774253   4.653728
    33  O    2.978136   8.663116   9.078420   3.542138   2.247266
                   21         22         23         24         25
    21  H    0.000000
    22  N    3.355979   0.000000
    23  H    2.763257   1.007395   0.000000
    24  C    2.039795   3.307302   3.044936   0.000000
    25  C    2.549042   4.413895   3.898995   1.491815   0.000000
    26  H    3.315795   5.322773   4.902553   2.110575   1.089767
    27  H    3.307773   4.469628   3.945232   2.111855   1.089885
    28  H    2.217755   4.689871   3.996212   2.165732   1.087754
    29  C    4.770390   1.444729   2.128305   4.573478   5.600193
    30  H    5.333065   2.099662   2.824200   5.369247   6.488238
    31  H    5.057396   2.070079   2.298129   4.969066   5.759278
    32  H    5.334258   2.099245   2.874915   4.718092   5.771240
    33  O    3.142233   3.411765   3.485648   1.228831   2.382661
                   26         27         28         29         30
    26  H    0.000000
    27  H    1.756188   0.000000
    28  H    1.777132   1.775029   0.000000
    29  C    6.511539   5.450547   5.933283   0.000000
    30  H    7.389763   6.437339   6.759941   1.091928   0.000000
    31  H    6.742568   5.464203   5.996933   1.085814   1.771998
    32  H    6.583778   5.532659   6.281969   1.090140   1.768113
    33  O    2.681332   2.697707   3.283901   4.475042   5.273772
                   31         32         33
    31  H    0.000000
    32  H    1.767683   0.000000
    33  O    5.019551   4.344553   0.000000
 Stoichiometry    C12H16N2O3
 Framework group  C1[X(C12H16N2O3)]
 Deg. of freedom    93
 Full point group                 C1      NOp   1
 Largest Abelian subgroup         C1      NOp   1
 Largest concise Abelian subgroup C1      NOp   1
                         Standard orientation:                         
 ---------------------------------------------------------------------
 Center     Atomic      Atomic             Coordinates (Angstroms)
 Number     Number       Type             X           Y           Z
 ---------------------------------------------------------------------
      1          6           0        3.134899    0.498408   -0.928577
      2          6           0        1.856652    0.085940   -1.266593
      3          6           0        1.232313   -0.950547   -0.586944
      4          6           0        1.931622   -1.577457    0.439688
      5          6           0        3.206962   -1.179717    0.789240
      6          6           0        3.808883   -0.132690    0.104658
      7          1           0        3.617173    1.307451   -1.465246
      8          1           0        1.336583    0.585339   -2.076523
      9          1           0        1.458628   -2.389087    0.982326
     10          1           0        3.748017   -1.668555    1.589381
     11          6           0       -0.183440   -1.335003   -0.884287
     12          1           0       -0.448518   -0.971749   -1.882787
     13          1           0       -0.308046   -2.419722   -0.888358
     14          6           0       -1.196967   -0.747240    0.109522
     15          1           0       -1.175163   -1.315087    1.043852
     16          6           0       -0.796294    0.671769    0.490042
     17          8           0        5.065214    0.233637    0.482428
     18          1           0        5.358072    0.971541   -0.064090
     19          8           0       -0.135246    0.883274    1.504578
     20          7           0       -2.515339   -0.810645   -0.481101
     21          1           0       -2.613240   -1.186320   -1.412148
     22          7           0       -1.143564    1.641050   -0.359233
     23          1           0       -1.671013    1.401235   -1.183326
     24          6           0       -3.618850   -0.476105    0.214230
     25          6           0       -4.924418   -0.632805   -0.490361
     26          1           0       -5.562618   -1.290420    0.099415
     27          1           0       -5.415531    0.338935   -0.539149
     28          1           0       -4.824136   -1.033810   -1.496515
     29          6           0       -0.668745    2.995114   -0.191010
     30          1           0        0.422210    3.032765   -0.217598
     31          1           0       -1.061844    3.609191   -0.995606
     32          1           0       -1.001614    3.411396    0.759943
     33          8           0       -3.547761   -0.056153    1.366885
 ---------------------------------------------------------------------
 Rotational constants (GHZ):      1.0362203      0.2486139      0.2291113
 Leave Link  202 at Tue Jun 24 16:38:19 2014, MaxMem=  4294967296 cpu:         1.4
 (Enter /home/ztw1e12/g09/l301.exe)
 Standard basis: CC-pVTZ (5D, 7F)
 Converting basis for Fermi contact spin-spin IFCMod=1.
 AO basis functions are being uncontracted.
 Ernie: Thresh=  0.10000D-02 Tol=  0.10000D-05 Strict=F.
 There are  1305 symmetry adapted cartesian basis functions of A   symmetry.
 There are  1204 symmetry adapted basis functions of A   symmetry.
  1204 basis functions,  1305 primitive gaussians,  1305 cartesian basis functions
    63 alpha electrons       63 beta electrons
       nuclear repulsion energy      1229.6535762222 Hartrees.
 IExCor= 4235 DFT=T Ex+Corr=M06 ExCW=0 ScaHFX=  0.270000
 ScaDFX=  1.000000  1.000000  1.000000  1.000000 ScalE2=  1.000000  1.000000
 IRadAn= 199590 IRanWt=     -1 IRanGd=            0 ICorTp=0 IEmpDi=  4
 NAtoms=   33 NActive=   33 NUniq=   33 SFac= 1.00D+00 NAtFMM=   60 NAOKFM=F Big=F
 Integral buffers will be    131072 words long.
 Raffenetti 2 integral format.
 Two-electron integral symmetry is turned on.
 Leave Link  301 at Tue Jun 24 16:38:19 2014, MaxMem=  4294967296 cpu:         6.8
 (Enter /home/ztw1e12/g09/l302.exe)
 NPDir=0 NMtPBC=     1 NCelOv=     1 NCel=       1 NClECP=     1 NCelD=      1
         NCelK=      1 NCelE2=     1 NClLst=     1 CellRange=     0.0.
 One-electron integrals computed using PRISM.
 GSVD:  received Info=                   1 from GESDD.
 NBasis=  1204 RedAO= T EigKep=  2.49D-05  NBF=  1204
 NBsUse=  1068 1.00D-06 EigRej=  6.13D-15 NBFU=  1068
 Precomputing XC quadrature grid using
 IXCGrd= 4 IRadAn=      199590 IRanWt=          -1 IRanGd=           0 AccXCQ= 0.00D+00.
 Generated NRdTot=       0 NPtTot=           0 NUsed=           0 NTot=          32
 NSgBfM=   987   987   987   987   987 MxSgAt=    33 MxSgA2=    33.
 Leave Link  302 at Tue Jun 24 16:38:25 2014, MaxMem=  4294967296 cpu:        92.1
 (Enter /home/ztw1e12/g09/l308.exe)
 Leave Link  308 at Tue Jun 24 16:38:26 2014, MaxMem=  4294967296 cpu:         7.2
 (Enter /home/ztw1e12/g09/l303.exe)
 DipDrv:  MaxL=1.
 Leave Link  303 at Tue Jun 24 16:38:26 2014, MaxMem=  4294967296 cpu:         4.2
 (Enter /home/ztw1e12/g09/l401.exe)
 ExpMin= 1.03D-01 ExpMax= 1.38D+05 ExpMxC= 1.38D+05 IAcc=4 IRadAn=    199590 AccDes= 0.00D+00
 Harris functional with IExCor= 1009 and IRadAn=  199590 diagonalized for initial guess.
 HarFok:  IExCor= 1009 AccDes= 0.00D+00 IRadAn=    199590 IDoV= 1 UseB2=F ITyADJ=14
 ICtDFT=  3500011 ScaDFX=  1.000000  1.000000  1.000000  1.000000
 FoFCou: FMM=F IPFlag=           0 FMFlag=      100000 FMFlg1=           0
         NFxFlg=           0 DoJE=T BraDBF=F KetDBF=T FulRan=T
         wScrn=  0.000000 ICntrl=     500 IOpCl=  0 I1Cent=   200000004 NGrid=           0
         NMat0=    1 NMatS0=      1 NMatT0=    0 NMatD0=    1 NMtDS0=    0 NMtDT0=    0
 Petite list used in FoFCou.
 Harris En= -801.780174829853    
 JPrj=0 DoOrth=F DoCkMO=F.
 Leave Link  401 at Tue Jun 24 16:38:45 2014, MaxMem=  4294967296 cpu:       300.9
 (Enter /home/ztw1e12/g09/l502.exe)
 Closed shell SCF:
 Using DIIS extrapolation, IDIIS=  1040.
 Integral symmetry usage will be decided dynamically.
 IVT=     5158273 IEndB=     5158273 NGot=  4294967296 MDV=  4291529994
 LenX=  4291529994 LenY=  4289825664
 Requested convergence on RMS density matrix=1.00D-08 within 128 cycles.
 Requested convergence on MAX density matrix=1.00D-06.
 Requested convergence on             energy=1.00D-06.
 No special actions if energy rises.
 Fock matrices will be formed incrementally for  20 cycles.
 Integral accuracy reduced to 1.0D-05 until final iterations.

 Cycle   1  Pass 0  IDiag  1:
 FoFJK:  IHMeth= 1 ICntrl=       0 DoSepK=F KAlg= 0 I1Cent=   0 FoldK=F
 IRaf= 430000000 NMat=   1 IRICut=       1 DoRegI=T DoRafI=F ISym2E= 0.
 FoFCou: FMM=F IPFlag=           0 FMFlag=      100000 FMFlg1=           0
         NFxFlg=           0 DoJE=F BraDBF=F KetDBF=F FulRan=T
         wScrn=  0.000000 ICntrl=       0 IOpCl=  0 I1Cent=           0 NGrid=           0
         NMat0=    1 NMatS0=      1 NMatT0=    0 NMatD0=    1 NMtDS0=    0 NMtDT0=    0
 Symmetry not used in FoFCou.
 E= -801.445645401468    
 DIIS: error= 1.26D-01 at cycle   1 NSaved=   1.
 NSaved= 1 IEnMin= 1 EnMin= -801.445645401468     IErMin= 1 ErrMin= 1.26D-01
 ErrMax= 1.26D-01  0.00D+00 EMaxC= 1.00D-01 BMatC= 1.69D+01 BMatP= 1.69D+01
 IDIUse=3 WtCom= 0.00D+00 WtEn= 1.00D+00
 Coeff-Com:  0.100D+01
 Coeff-En:   0.100D+01
 Coeff:      0.100D+01
 Gap=     0.242 Goal=   None    Shift=    0.000
 GapD=    0.242 DampG=1.000 DampE=0.250 DampFc=0.2500 IDamp=-1.
 Damping current iteration by 2.50D-01
 RMSDP=2.70D-03 MaxDP=4.00D-01              OVMax= 3.19D-01

 Cycle   2  Pass 0  IDiag  1:
 RMSU=  6.72D-04    CP:  1.03D+00
 E= -801.604039670389     Delta-E=       -0.158394268921 Rises=F Damp=T
 DIIS: error= 9.52D-02 at cycle   2 NSaved=   2.
 NSaved= 2 IEnMin= 2 EnMin= -801.604039670389     IErMin= 2 ErrMin= 9.52D-02
 ErrMax= 9.52D-02  0.00D+00 EMaxC= 1.00D-01 BMatC= 1.00D+01 BMatP= 1.69D+01
 IDIUse=3 WtCom= 4.84D-02 WtEn= 9.52D-01
 Coeff-Com: -0.287D+01 0.387D+01
 Coeff-En:   0.000D+00 0.100D+01
 Coeff:     -0.139D+00 0.114D+01
 Gap=     0.236 Goal=   None    Shift=    0.000
 RMSDP=7.07D-04 MaxDP=1.22D-01 DE=-1.58D-01 OVMax= 2.00D-01

 Cycle   3  Pass 0  IDiag  1:
 RMSU=  6.64D-04    CP:  1.07D+00  1.33D+00
 E= -801.855278525573     Delta-E=       -0.251238855184 Rises=F Damp=F
 DIIS: error= 1.40D-02 at cycle   3 NSaved=   3.
 NSaved= 3 IEnMin= 3 EnMin= -801.855278525573     IErMin= 3 ErrMin= 1.40D-02
 ErrMax= 1.40D-02  0.00D+00 EMaxC= 1.00D-01 BMatC= 2.02D-01 BMatP= 1.00D+01
 IDIUse=3 WtCom= 8.60D-01 WtEn= 1.40D-01
 Coeff-Com:  0.453D+00-0.656D+00 0.120D+01
 Coeff-En:   0.000D+00 0.000D+00 0.100D+01
 Coeff:      0.389D+00-0.564D+00 0.117D+01
 Gap=     0.245 Goal=   None    Shift=    0.000
 RMSDP=5.02D-04 MaxDP=7.15D-02 DE=-2.51D-01 OVMax= 9.98D-02

 Cycle   4  Pass 0  IDiag  1:
 RMSU=  3.92D-04    CP:  1.05D+00  1.00D+00  6.75D-01
 E= -801.789335109897     Delta-E=        0.065943415676 Rises=F Damp=F
 DIIS: error= 9.25D-03 at cycle   4 NSaved=   4.
 NSaved= 4 IEnMin= 3 EnMin= -801.855278525573     IErMin= 4 ErrMin= 9.25D-03
 ErrMax= 9.25D-03  0.00D+00 EMaxC= 1.00D-01 BMatC= 1.57D-01 BMatP= 2.02D-01
 IDIUse=3 WtCom= 9.08D-01 WtEn= 9.25D-02
 Coeff-Com:  0.438D+00-0.617D+00 0.660D+00 0.518D+00
 Coeff-En:   0.000D+00 0.000D+00 0.694D+00 0.306D+00
 Coeff:      0.398D+00-0.560D+00 0.664D+00 0.499D+00
 Gap=     0.259 Goal=   None    Shift=    0.000
 RMSDP=3.44D-04 MaxDP=3.30D-02 DE= 6.59D-02 OVMax= 8.35D-02

 Cycle   5  Pass 0  IDiag  1:
 RMSU=  1.10D-04    CP:  1.06D+00  1.06D+00  8.35D-01  2.24D-01
 E= -801.906571032341     Delta-E=       -0.117235922444 Rises=F Damp=F
 DIIS: error= 2.40D-03 at cycle   5 NSaved=   5.
 NSaved= 5 IEnMin= 5 EnMin= -801.906571032341     IErMin= 5 ErrMin= 2.40D-03
 ErrMax= 2.40D-03  0.00D+00 EMaxC= 1.00D-01 BMatC= 9.65D-03 BMatP= 1.57D-01
 IDIUse=3 WtCom= 9.76D-01 WtEn= 2.40D-02
 Coeff-Com:  0.530D-01-0.771D-01 0.561D-01 0.199D+00 0.769D+00
 Coeff-En:   0.000D+00 0.000D+00 0.000D+00 0.000D+00 0.100D+01
 Coeff:      0.518D-01-0.752D-01 0.548D-01 0.194D+00 0.775D+00
 Gap=     0.228 Goal=   None    Shift=    0.000
 RMSDP=1.22D-04 MaxDP=1.05D-02 DE=-1.17D-01 OVMax= 2.73D-02

 Cycle   6  Pass 0  IDiag  1:
 RMSU=  6.49D-05    CP:  1.06D+00  1.05D+00  8.69D-01  4.00D-01  3.37D-01
 E= -801.910536945161     Delta-E=       -0.003965912820 Rises=F Damp=F
 DIIS: error= 1.97D-03 at cycle   6 NSaved=   6.
 NSaved= 6 IEnMin= 6 EnMin= -801.910536945161     IErMin= 6 ErrMin= 1.97D-03
 ErrMax= 1.97D-03  0.00D+00 EMaxC= 1.00D-01 BMatC= 2.73D-03 BMatP= 9.65D-03
 IDIUse=3 WtCom= 9.80D-01 WtEn= 1.97D-02
 Coeff-Com:  0.165D-01-0.236D-01-0.167D-02 0.834D-01 0.437D+00 0.489D+00
 Coeff-En:   0.000D+00 0.000D+00 0.000D+00 0.000D+00 0.265D+00 0.735D+00
 Coeff:      0.161D-01-0.231D-01-0.164D-02 0.818D-01 0.433D+00 0.494D+00
 Gap=     0.226 Goal=   None    Shift=    0.000
 RMSDP=4.82D-05 MaxDP=5.78D-03 DE=-3.97D-03 OVMax= 1.83D-02

 Cycle   7  Pass 0  IDiag  1:
 RMSU=  3.54D-05    CP:  1.06D+00  1.04D+00  8.54D-01  4.00D-01  5.05D-01
                    CP:  6.41D-01
 E= -801.912578217824     Delta-E=       -0.002041272663 Rises=F Damp=F
 DIIS: error= 7.35D-04 at cycle   7 NSaved=   7.
 NSaved= 7 IEnMin= 7 EnMin= -801.912578217824     IErMin= 7 ErrMin= 7.35D-04
 ErrMax= 7.35D-04  0.00D+00 EMaxC= 1.00D-01 BMatC= 3.78D-04 BMatP= 2.73D-03
 IDIUse=3 WtCom= 9.93D-01 WtEn= 7.35D-03
 Coeff-Com:  0.117D-01-0.157D-01-0.225D-02 0.206D-01 0.118D+00 0.289D+00
 Coeff-Com:  0.578D+00
 Coeff-En:   0.000D+00 0.000D+00 0.000D+00 0.000D+00 0.000D+00 0.122D+00
 Coeff-En:   0.878D+00
 Coeff:      0.116D-01-0.155D-01-0.224D-02 0.204D-01 0.118D+00 0.288D+00
 Coeff:      0.581D+00
 Gap=     0.226 Goal=   None    Shift=    0.000
 RMSDP=1.72D-05 MaxDP=2.15D-03 DE=-2.04D-03 OVMax= 5.37D-03

 Cycle   8  Pass 0  IDiag  1:
 RMSU=  9.98D-06    CP:  1.06D+00  1.04D+00  8.58D-01  4.11D-01  4.92D-01
                    CP:  7.73D-01  7.28D-01
 E= -801.912869370487     Delta-E=       -0.000291152664 Rises=F Damp=F
 DIIS: error= 1.29D-04 at cycle   8 NSaved=   8.
 NSaved= 8 IEnMin= 8 EnMin= -801.912869370487     IErMin= 8 ErrMin= 1.29D-04
 ErrMax= 1.29D-04  0.00D+00 EMaxC= 1.00D-01 BMatC= 2.82D-05 BMatP= 3.78D-04
 IDIUse=3 WtCom= 9.99D-01 WtEn= 1.29D-03
 Coeff-Com:  0.660D-02-0.882D-02-0.157D-03 0.624D-02 0.363D-01 0.128D+00
 Coeff-Com:  0.324D+00 0.508D+00
 Coeff-En:   0.000D+00 0.000D+00 0.000D+00 0.000D+00 0.000D+00 0.000D+00
 Coeff-En:   0.000D+00 0.100D+01
 Coeff:      0.660D-02-0.880D-02-0.157D-03 0.623D-02 0.363D-01 0.128D+00
 Coeff:      0.323D+00 0.509D+00
 Gap=     0.226 Goal=   None    Shift=    0.000
 RMSDP=5.05D-06 MaxDP=4.86D-04 DE=-2.91D-04 OVMax= 1.07D-03

 Initial convergence to 1.0D-05 achieved.  Increase integral accuracy.
 Cycle   9  Pass 1  IDiag  1:
 E= -801.912811480132     Delta-E=        0.000057890356 Rises=F Damp=F
 DIIS: error= 2.33D-04 at cycle   1 NSaved=   1.
 NSaved= 1 IEnMin= 1 EnMin= -801.912811480132     IErMin= 1 ErrMin= 2.33D-04
 ErrMax= 2.33D-04  0.00D+00 EMaxC= 1.00D-01 BMatC= 2.93D-05 BMatP= 2.93D-05
 IDIUse=3 WtCom= 9.98D-01 WtEn= 2.33D-03
 Coeff-Com:  0.100D+01
 Coeff-En:   0.100D+01
 Coeff:      0.100D+01
 Gap=     0.226 Goal=   None    Shift=    0.000
 RMSDP=5.05D-06 MaxDP=4.86D-04 DE= 5.79D-05 OVMax= 1.28D-03

 Cycle  10  Pass 1  IDiag  1:
 RMSU=  1.70D-04    CP:  9.92D-01
 E= -801.912829386244     Delta-E=       -0.000017906113 Rises=F Damp=F
 DIIS: error= 5.32D-05 at cycle   2 NSaved=   2.
 NSaved= 2 IEnMin= 2 EnMin= -801.912829386244     IErMin= 2 ErrMin= 5.32D-05
 ErrMax= 5.32D-05  0.00D+00 EMaxC= 1.00D-01 BMatC= 4.07D-06 BMatP= 2.93D-05
 IDIUse=1 WtCom= 1.00D+00 WtEn= 0.00D+00
 Coeff-Com:  0.162D+00 0.838D+00
 Coeff:      0.162D+00 0.838D+00
 Gap=     0.226 Goal=   None    Shift=    0.000
 RMSDP=4.30D-06 MaxDP=3.59D-04 DE=-1.79D-05 OVMax= 1.26D-03

 Cycle  11  Pass 1  IDiag  1:
 RMSU=  3.43D-06    CP:  9.92D-01  1.02D+00
 E= -801.912825811190     Delta-E=        0.000003575055 Rises=F Damp=F
 DIIS: error= 8.54D-05 at cycle   3 NSaved=   3.
 NSaved= 3 IEnMin= 2 EnMin= -801.912829386244     IErMin= 2 ErrMin= 5.32D-05
 ErrMax= 8.54D-05  0.00D+00 EMaxC= 1.00D-01 BMatC= 8.66D-06 BMatP= 4.07D-06
 IDIUse=1 WtCom= 1.00D+00 WtEn= 0.00D+00
 Coeff-Com:  0.138D-02 0.594D+00 0.405D+00
 Coeff:      0.138D-02 0.594D+00 0.405D+00
 Gap=     0.226 Goal=   None    Shift=    0.000
 RMSDP=2.07D-06 MaxDP=2.50D-04 DE= 3.58D-06 OVMax= 8.20D-04

 Cycle  12  Pass 1  IDiag  1:
 RMSU=  8.43D-07    CP:  9.91D-01  1.02D+00  4.71D-01
 E= -801.912832478604     Delta-E=       -0.000006667414 Rises=F Damp=F
 DIIS: error= 7.97D-06 at cycle   4 NSaved=   4.
 NSaved= 4 IEnMin= 4 EnMin= -801.912832478604     IErMin= 4 ErrMin= 7.97D-06
 ErrMax= 7.97D-06  0.00D+00 EMaxC= 1.00D-01 BMatC= 1.20D-07 BMatP= 4.07D-06
 IDIUse=1 WtCom= 1.00D+00 WtEn= 0.00D+00
 Coeff-Com: -0.277D-02 0.328D+00 0.234D+00 0.440D+00
 Coeff:     -0.277D-02 0.328D+00 0.234D+00 0.440D+00
 Gap=     0.226 Goal=   None    Shift=    0.000
 RMSDP=2.85D-07 MaxDP=3.54D-05 DE=-6.67D-06 OVMax= 6.52D-05

 Cycle  13  Pass 1  IDiag  1:
 RMSU=  2.59D-07    CP:  9.92D-01  1.02D+00  4.83D-01  9.17D-01
 E= -801.912832557400     Delta-E=       -0.000000078796 Rises=F Damp=F
 DIIS: error= 1.79D-06 at cycle   5 NSaved=   5.
 NSaved= 5 IEnMin= 5 EnMin= -801.912832557400     IErMin= 5 ErrMin= 1.79D-06
 ErrMax= 1.79D-06  0.00D+00 EMaxC= 1.00D-01 BMatC= 4.49D-09 BMatP= 1.20D-07
 IDIUse=1 WtCom= 1.00D+00 WtEn= 0.00D+00
 Coeff-Com: -0.138D-02 0.112D+00 0.810D-01 0.218D+00 0.590D+00
 Coeff:     -0.138D-02 0.112D+00 0.810D-01 0.218D+00 0.590D+00
 Gap=     0.226 Goal=   None    Shift=    0.000
 RMSDP=6.13D-08 MaxDP=5.62D-06 DE=-7.88D-08 OVMax= 1.21D-05

 Cycle  14  Pass 1  IDiag  1:
 RMSU=  5.15D-08    CP:  9.92D-01  1.02D+00  4.84D-01  9.43D-01  9.26D-01
 E= -801.912832560063     Delta-E=       -0.000000002663 Rises=F Damp=F
 DIIS: error= 6.86D-07 at cycle   6 NSaved=   6.
 NSaved= 6 IEnMin= 6 EnMin= -801.912832560063     IErMin= 6 ErrMin= 6.86D-07
 ErrMax= 6.86D-07  0.00D+00 EMaxC= 1.00D-01 BMatC= 5.75D-10 BMatP= 4.49D-09
 IDIUse=1 WtCom= 1.00D+00 WtEn= 0.00D+00
 Coeff-Com: -0.587D-03 0.388D-01 0.284D-01 0.890D-01 0.328D+00 0.516D+00
 Coeff:     -0.587D-03 0.388D-01 0.284D-01 0.890D-01 0.328D+00 0.516D+00
 Gap=     0.226 Goal=   None    Shift=    0.000
 RMSDP=2.96D-08 MaxDP=4.53D-06 DE=-2.66D-09 OVMax= 6.54D-06

 Cycle  15  Pass 1  IDiag  1:
 RMSU=  2.22D-08    CP:  9.92D-01  1.02D+00  4.84D-01  9.54D-01  9.54D-01
                    CP:  7.34D-01
 E= -801.912832560330     Delta-E=       -0.000000000267 Rises=F Damp=F
 DIIS: error= 2.74D-07 at cycle   7 NSaved=   7.
 NSaved= 7 IEnMin= 7 EnMin= -801.912832560330     IErMin= 7 ErrMin= 2.74D-07
 ErrMax= 2.74D-07  0.00D+00 EMaxC= 1.00D-01 BMatC= 1.06D-10 BMatP= 5.75D-10
 IDIUse=1 WtCom= 1.00D+00 WtEn= 0.00D+00
 Coeff-Com: -0.241D-04-0.342D-02-0.223D-02 0.154D-02 0.567D-01 0.314D+00
 Coeff-Com:  0.634D+00
 Coeff:     -0.241D-04-0.342D-02-0.223D-02 0.154D-02 0.567D-01 0.314D+00
 Coeff:      0.634D+00
 Gap=     0.226 Goal=   None    Shift=    0.000
 RMSDP=1.23D-08 MaxDP=1.84D-06 DE=-2.67D-10 OVMax= 2.80D-06

 Cycle  16  Pass 1  IDiag  1:
 RMSU=  8.70D-09    CP:  9.92D-01  1.02D+00  4.85D-01  9.60D-01  9.66D-01
                    CP:  8.40D-01  9.82D-01
 E= -801.912832560503     Delta-E=       -0.000000000173 Rises=F Damp=F
 DIIS: error= 5.67D-08 at cycle   8 NSaved=   8.
 NSaved= 8 IEnMin= 8 EnMin= -801.912832560503     IErMin= 8 ErrMin= 5.67D-08
 ErrMax= 5.67D-08  0.00D+00 EMaxC= 1.00D-01 BMatC= 7.25D-12 BMatP= 1.06D-10
 IDIUse=1 WtCom= 1.00D+00 WtEn= 0.00D+00
 Coeff-Com:  0.427D-04-0.521D-02-0.369D-02-0.753D-02-0.417D-02 0.952D-01
 Coeff-Com:  0.296D+00 0.629D+00
 Coeff:      0.427D-04-0.521D-02-0.369D-02-0.753D-02-0.417D-02 0.952D-01
 Coeff:      0.296D+00 0.629D+00
 Gap=     0.226 Goal=   None    Shift=    0.000
 RMSDP=4.07D-09 MaxDP=6.09D-07 DE=-1.73D-10 OVMax= 7.80D-07

 SCF Done:  E(RM06) =  -801.912832561     A.U. after   16 cycles
            NFock= 16  Conv=0.41D-08     -V/T= 2.0044
 KE= 7.983616273810D+02 PE=-4.332168378577D+03 EE= 1.502240342413D+03
 Leave Link  502 at Tue Jun 24 17:16:38 2014, MaxMem=  4294967296 cpu:     36271.5
 (Enter /home/ztw1e12/g09/l801.exe)
 DoSCS=F DFT=T ScalE2(SS,OS)=  1.000000  1.000000
 Range of M.O.s used for correlation:     1  1068
 NBasis=  1204 NAE=    63 NBE=    63 NFC=     0 NFV=     0
 NROrb=   1068 NOA=    63 NOB=    63 NVA=  1005 NVB=  1005

 **** Warning!!: The largest alpha MO coefficient is  0.28423661D+02

 Leave Link  801 at Tue Jun 24 17:16:38 2014, MaxMem=  4294967296 cpu:         0.4
 (Enter /home/ztw1e12/g09/l1002.exe)
 Minotr:  Closed shell wavefunction.
          IDoAtm=111111111111111111111111111111111
          Direct CPHF calculation.
          Differentiating once with respect to Fermi-contact.
          Electric field/nuclear overlap derivatives assumed to be zero.
          Requested convergence is 1.0D-10 RMS, and 1.0D-09 maximum.
          Secondary convergence is 1.0D-12 RMS, and 1.0D-12 maximum.
          NewPWx=T KeepS1=F KeepF1=F KeepIn=T MapXYZ=F SortEE=F KeepMc=T.
          MDV=    4294965894 using IRadAn=  199590.
 Using stored XC quadrature information.
          Solving linear equations simultaneously, MaxMat=       0.
          There are    33 degrees of freedom in the 1st order CPHF.  IDoFFX=0 NUNeed=    33.
     33 vectors produced by pass  0 Test12= 1.92D-17 3.03D-11 XBig12= 4.29D+01 2.58D+00.
 AX will form    33 AO Fock derivatives at one time.
 FoFJK:  IHMeth= 1 ICntrl=       0 DoSepK=F KAlg= 0 I1Cent=   0 FoldK=F
 IRaf= 460000000 NMat=  33 IRICut=       1 DoRegI=T DoRafI=F ISym2E=-1.
 FoFCou: FMM=F IPFlag=           0 FMFlag=      100000 FMFlg1=           0
         NFxFlg=           0 DoJE=F BraDBF=F KetDBF=F FulRan=T
         wScrn=  0.000000 ICntrl=       0 IOpCl=  0 I1Cent=           0 NGrid=           0
         NMat0=   33 NMatS0=      0 NMatT0=   33 NMatD0=   33 NMtDS0=    0 NMtDT0=    0
 Petite list used in FoFCou.
     33 vectors produced by pass  1 Test12= 1.92D-17 3.03D-11 XBig12= 3.46D-01 1.89D-01.
     33 vectors produced by pass  2 Test12= 1.92D-17 3.03D-11 XBig12= 1.58D-02 3.67D-02.
     33 vectors produced by pass  3 Test12= 1.92D-17 3.03D-11 XBig12= 3.51D-04 6.01D-03.
     33 vectors produced by pass  4 Test12= 1.92D-17 3.03D-11 XBig12= 7.34D-06 1.19D-03.
     33 vectors produced by pass  5 Test12= 1.92D-17 3.03D-11 XBig12= 1.58D-07 1.81D-04.
     33 vectors produced by pass  6 Test12= 1.92D-17 3.03D-11 XBig12= 5.44D-09 1.97D-05.
     33 vectors produced by pass  7 Test12= 1.92D-17 3.03D-11 XBig12= 1.46D-10 4.26D-06.
     33 vectors produced by pass  8 Test12= 1.92D-17 3.03D-11 XBig12= 5.72D-12 3.98D-07.
     33 vectors produced by pass  9 Test12= 1.92D-17 3.03D-11 XBig12= 7.36D-14 1.01D-07.
     33 vectors produced by pass 10 Test12= 1.92D-17 3.03D-11 XBig12= 2.31D-15 1.08D-08.
     32 vectors produced by pass 11 Test12= 1.92D-17 3.03D-11 XBig12= 2.49D-17 5.91D-10.
      7 vectors produced by pass 12 Test12= 1.92D-17 3.03D-11 XBig12= 2.78D-19 6.10D-11.
 InvSVY:  IOpt=1 It=  1 EMax= 7.11D-15
 Solved reduced A of dimension   402 with    33 vectors.
 Max diff in FC couplings:  IJMax=     4     3 Diff= 4.94D-04 IJMaxR=    24     5 DiffR= 1.74D+00
 Fermi Contact (FC) contribution to K (Hz):
                1             2             3             4             5 
      1  0.123400D+11
      2  0.348668D+02  0.123400D+11
      3 -0.116657D+01  0.348890D+02  0.123400D+11
      4  0.312881D+01  0.212143D+00  0.335268D+02  0.123400D+11
      5  0.161392D+01  0.300380D+01 -0.136279D+01  0.353128D+02  0.123400D+11
      6  0.362611D+02 -0.228329D+00  0.437080D+01  0.220464D+00  0.388525D+02
      7  0.216106D+02 -0.287689D+00  0.968034D+00 -0.202157D+00  0.608858D+00
      8 -0.236230D+00  0.218329D+02 -0.280154D+00  0.996378D+00 -0.294239D+00
      9 -0.289223D+00  0.103362D+01 -0.211615D+00  0.223955D+02 -0.212856D+00
     10  0.679291D+00 -0.218387D+00  0.105977D+01 -0.288784D+00  0.231187D+02
     11  0.211694D+01  0.155619D+01  0.245319D+02  0.140601D+01  0.198050D+01
     12  0.127716D-01  0.823889D+00 -0.101840D+01  0.849976D+00  0.802690D-01
     13 -0.174893D-01  0.724652D+00 -0.100723D+01  0.567966D+00 -0.993435D-01
     14 -0.529941D+00  0.837223D+00 -0.289078D+00  0.731481D+00 -0.593286D+00
     15  0.154340D-01 -0.222333D-01  0.583234D-01 -0.158563D-01  0.179242D-01
     16  0.338159D-01 -0.185547D-01  0.657583D+00 -0.264582D-01  0.249941D-01
     17 -0.737783D+00 -0.102519D+00  0.272387D+00  0.305535D+01  0.116085D+02
     18  0.425040D+00 -0.103325D-01 -0.471913D-01  0.208855D+00  0.114752D+01
     19 -0.505973D-01  0.223510D+00  0.369599D+00  0.365282D+00 -0.384558D-01
     20  0.628074D-01 -0.732529D-01  0.300141D+01 -0.116584D-01  0.536377D-01
     21 -0.861904D-03  0.120911D-02 -0.244475D-01  0.228821D-02  0.444020D-03
     22  0.646036D-01  0.348853D+00  0.108091D+00  0.187108D-01  0.383664D-01
     23 -0.152376D-02 -0.398593D-02  0.720424D-03  0.661123D-03 -0.102995D-02
     24 -0.663459D-02  0.871466D-02  0.243395D+00  0.217160D-01 -0.114834D-04
     25  0.167780D-02  0.318369D-03  0.103268D+00 -0.306131D-02 -0.769826D-03
     26  0.831087D-04  0.235854D-03  0.127149D-02  0.299620D-03 -0.171997D-03
     27 -0.327250D-03 -0.165370D-03 -0.226892D-02  0.723850D-03  0.988724D-04
     28 -0.126874D-03  0.228674D-03 -0.892913D-03  0.216816D-03 -0.186824D-03
     29  0.204171D-01  0.474087D-01  0.262730D-01 -0.192830D-01  0.215188D-01
     30  0.945603D-02  0.178587D-01  0.623752D-02 -0.203233D-02  0.413955D-02
     31  0.729670D-03  0.220079D-02  0.513549D-03 -0.974713D-04  0.207722D-03
     32  0.369143D-02  0.572389D-02  0.119593D-02 -0.591598D-03  0.122269D-02
     33 -0.625241D-02  0.191666D-01 -0.276902D-01  0.158668D-01 -0.508999D-02
                6             7             8             9            10 
      6  0.123400D+11
      7 -0.559815D+00  0.123400D+11
      8  0.116770D+01  0.330931D+00  0.123400D+11
      9  0.122759D+01  0.383553D-01  0.377115D-01  0.123400D+11
     10 -0.698040D+00  0.628298D-01  0.427262D-01  0.353003D+00  0.123400D+11
     11 -0.475662D+00  0.141279D-01  0.717320D+00  0.679333D+00  0.197538D-01
     12  0.239723D-01  0.394453D-02 -0.329141D-01 -0.479740D-02  0.804143D-02
     13  0.108114D+00  0.117454D-01 -0.278370D-01 -0.340144D-01  0.108398D-01
     14  0.586438D+00  0.478723D-01 -0.145093D+00 -0.121791D+00  0.555132D-01
     15 -0.105469D-01 -0.205498D-02  0.563281D-02  0.622683D-02 -0.200753D-02
     16 -0.201527D-01 -0.247573D-02  0.225259D-01  0.592154D-02 -0.290802D-02
     17 -0.119813D+02  0.562453D+00  0.695631D-01  0.257493D+00  0.702338D+00
     18 -0.669301D+00 -0.133838D-01  0.176443D-02  0.135749D-01  0.458326D-03
     19  0.470922D-01  0.195311D-02 -0.262963D-01  0.408906D-02  0.309149D-02
     20  0.836070D-03  0.323433D-02  0.707509D-02  0.224728D-02  0.116094D-01
     21  0.396323D-03  0.919955D-04  0.458872D-04  0.553887D-03 -0.147082D-03
     22 -0.701500D-02 -0.424182D-02  0.100705D+00  0.104887D-01 -0.667784D-02
     23  0.912764D-03  0.144748D-03 -0.873536D-04 -0.126684D-03  0.234001D-03
     24  0.115651D-01  0.181238D-02 -0.195710D-02 -0.156757D-03  0.202466D-02
     25  0.156674D-02  0.128444D-03  0.800573D-04 -0.214725D-03  0.424587D-03
     26  0.827344D-04  0.170698D-04 -0.480184D-04  0.975857D-05  0.533574D-05
     27  0.136531D-03  0.577640D-05 -0.393851D-04  0.496103D-04 -0.609069D-05
     28  0.132468D-03  0.139285D-04 -0.422957D-04 -0.463369D-04  0.143571D-04
     29 -0.197924D-01 -0.620841D-02  0.353710D-01  0.235983D-02 -0.389392D-02
     30 -0.248111D-02 -0.626811D-04  0.104307D-01  0.354791D-03 -0.770651D-03
     31 -0.983103D-04 -0.594080D-04  0.100736D-02  0.192335D-04 -0.505838D-04
     32 -0.378846D-03  0.592421D-04  0.361146D-02  0.191543D-03 -0.183482D-03
     33  0.645731D-02  0.656132D-03 -0.730763D-03 -0.175294D-02  0.318953D-03
               11            12            13            14            15 
     11  0.123400D+11
     12  0.166392D+02  0.123400D+11
     13  0.181100D+02 -0.785954D+00  0.123400D+11
     14  0.153825D+02 -0.923864D+00 -0.849838D+00  0.123400D+11
     15 -0.686064D+00  0.332095D+00  0.303499D+00  0.216240D+02  0.123400D+11
     16 -0.612159D+00  0.137463D+00  0.958691D+00  0.283906D+02 -0.111550D+01
     17  0.580805D-01  0.795384D-02  0.380352D-01  0.233790D+00 -0.415083D-02
     18  0.120290D-01 -0.763995D-03 -0.411301D-02 -0.246170D-01  0.481262D-03
     19  0.648953D+00 -0.204805D-02 -0.819673D-02  0.429699D+01  0.298898D+00
     20  0.110133D+01  0.122948D+01  0.319547D-01  0.131223D+02 -0.392658D+00
     21  0.614202D+00 -0.293058D-01 -0.103163D-01  0.227825D+00  0.104226D+00
     22 -0.635550D-01  0.674833D-02  0.508059D-01  0.101198D+02  0.304152D+00
     23 -0.245781D-01 -0.288871D-02 -0.452063D-02  0.534061D-01  0.963133D-02
     24  0.167174D+01  0.138712D-01 -0.481983D-01 -0.119835D+00  0.236621D+00
     25 -0.353169D-01  0.276115D-01  0.101484D-02  0.708404D+00 -0.747504D-01
     26  0.208544D-02 -0.459412D-03 -0.879088D-03  0.387448D-01  0.224785D-01
     27 -0.227708D-03 -0.789130D-03 -0.480718D-03  0.113921D-01  0.277267D-01
     28 -0.260686D-02 -0.599074D-03 -0.694864D-04  0.873860D-01 -0.170303D-02
     29 -0.108714D+00  0.167514D-02  0.213642D-02  0.711342D+00  0.812838D-01
     30  0.629568D-01 -0.131100D-02  0.523259D-02 -0.817143D-01  0.138015D-01
     31  0.563333D-03  0.452306D-03  0.456966D-03 -0.227537D-01  0.665649D-02
     32  0.702774D-01 -0.142932D-02  0.638670D-02 -0.645297D-01  0.377191D-02
     33  0.113867D+00  0.279166D-01  0.283730D-02  0.729444D+00  0.229966D+00
               16            17            18            19            20 
     16  0.123400D+11
     17 -0.603880D-02  0.123400D+11
     18  0.654035D-03  0.198092D+02  0.123400D+11
     19 -0.951727D+01  0.172952D-01 -0.198518D-02  0.123400D+11
     20  0.193932D+00  0.662544D-02 -0.281175D-03  0.969092D+00  0.123400D+11
     21  0.230646D+00  0.268962D-03 -0.191339D-04  0.966615D-01  0.308444D+02
     22  0.295915D+02 -0.148159D-02  0.890764D-04  0.630525D+01 -0.358852D+00
     23  0.394107D+00  0.149685D-03 -0.856287D-05  0.452854D+00 -0.547954D-01
     24  0.120998D+00  0.623114D-02 -0.553059D-03 -0.175336D-01  0.252672D+02
     25 -0.149871D+00  0.766849D-03 -0.761538D-04  0.539847D-01  0.125495D+02
     26  0.516571D-01  0.224346D-05  0.000000D+00 -0.151403D-02  0.419177D+00
     27  0.672915D-01  0.810321D-04 -0.566719D-05  0.369575D-02  0.292851D+00
     28 -0.187412D-02  0.627840D-04 -0.677043D-05  0.399766D-02  0.318461D+00
     29 -0.242127D+00 -0.399368D-02  0.314971D-03  0.634559D+00  0.651136D-01
     30  0.163346D+00 -0.361302D-03  0.217975D-04  0.246874D+00  0.513461D-01
     31  0.947112D+00 -0.215536D-04  0.134250D-05  0.183585D+00  0.529111D-02
     32  0.194267D+00 -0.777291D-04  0.645634D-05  0.253347D+00  0.200270D-01
     33  0.467536D+00  0.272997D-02 -0.299048D-03  0.364239D+00  0.607300D+01
               21            22            23            24            25 
     21  0.123400D+11
     22  0.428844D-01  0.123400D+11
     23  0.440151D-02  0.311648D+02  0.123400D+11
     24  0.465396D+00 -0.395549D-01  0.823367D-02  0.123400D+11
     25  0.760881D-01  0.425746D-02  0.857381D-03  0.268729D+02  0.123400D+11
     26 -0.123962D-01  0.228041D-02  0.133817D-03 -0.119289D+01  0.181099D+02
     27 -0.893222D-02  0.155497D-03 -0.141091D-03 -0.119524D+01  0.178866D+02
     28 -0.906460D-02 -0.176442D-02  0.132490D-03 -0.750370D+00  0.169929D+02
     29 -0.121431D-02  0.174788D+02  0.332896D+00 -0.444098D-02 -0.412663D-02
     30 -0.931117D-03 -0.625824D+00  0.755603D-01  0.138917D-02  0.274178D-02
     31 -0.497586D-03 -0.363886D+00  0.290179D+00  0.147476D-04 -0.291498D-03
     32  0.170407D-02 -0.572703D+00  0.140473D+00 -0.107767D-02  0.219030D-02
     33  0.448035D+00  0.294187D+00 -0.178000D-01 -0.978805D+01  0.349375D+01
               26            27            28            29            30 
     26  0.123400D+11
     27 -0.929888D+00  0.123400D+11
     28 -0.731383D+00 -0.735037D+00  0.123400D+11
     29 -0.184635D-03 -0.385647D-03  0.446454D-04  0.123400D+11
     30  0.332589D-03  0.396307D-03 -0.338833D-04  0.197717D+02  0.123400D+11
     31  0.228279D-03  0.132522D-03  0.492528D-05  0.181096D+02 -0.723559D+00
     32 -0.997683D-04 -0.896127D-04 -0.211163D-04  0.202741D+02 -0.737180D+00
     33  0.455667D+00  0.457109D+00  0.799332D+00 -0.221103D-01  0.159943D-01
               31            32            33 
     31  0.123400D+11
     32 -0.756737D+00  0.123400D+11
     33  0.283421D-02  0.186734D-01  0.123400D+11
 Fermi Contact (FC) contribution to J (Hz):
                1             2             3             4             5 
      1  0.243533D+11
      2  0.688105D+02  0.243533D+11
      3 -0.230226D+01  0.688542D+02  0.243533D+11
      4  0.617478D+01  0.418670D+00  0.661659D+02  0.243533D+11
      5  0.318511D+01  0.592808D+01 -0.268950D+01  0.696907D+02  0.243533D+11
      6  0.715622D+02 -0.450614D+00  0.862589D+01  0.435091D+00  0.766763D+02
      7  0.169576D+03 -0.225747D+01  0.759607D+01 -0.158631D+01  0.477765D+01
      8 -0.185368D+01  0.171321D+03 -0.219834D+01  0.781848D+01 -0.230886D+01
      9 -0.226951D+01  0.811069D+01 -0.166052D+01  0.175735D+03 -0.167026D+01
     10  0.533033D+01 -0.171366D+01  0.831591D+01 -0.226606D+01  0.181410D+03
     11  0.417783D+01  0.307118D+01  0.484143D+02  0.277480D+01  0.390856D+01
     12  0.100218D+00  0.646498D+01 -0.799127D+01  0.666968D+01  0.629863D+00
     13 -0.137237D+00  0.568627D+01 -0.790364D+01  0.445678D+01 -0.779539D+00
     14 -0.104585D+01  0.165228D+01 -0.570503D+00  0.144360D+01 -0.117086D+01
     15  0.121109D+00 -0.174462D+00  0.457658D+00 -0.124423D+00  0.140650D+00
     16  0.667365D-01 -0.366181D-01  0.129776D+01 -0.522160D-01  0.493264D-01
     17  0.785134D+00  0.109099D+00 -0.289869D+00 -0.325145D+01 -0.123535D+02
     18  0.333525D+01 -0.810778D-01 -0.370305D+00  0.163886D+01  0.900450D+01
     19  0.538447D-01 -0.237855D+00 -0.393320D+00 -0.388726D+00  0.409239D-01
     20  0.356251D-01 -0.415499D-01  0.170244D+01 -0.661280D-02  0.304240D-01
     21 -0.676328D-02  0.948775D-02 -0.191837D+00  0.179553D-01  0.348419D-02
     22  0.366440D-01  0.197874D+00  0.613103D-01  0.106130D-01  0.217619D-01
     23 -0.119568D-01 -0.312772D-01  0.565310D-02  0.518776D-02 -0.808191D-02
     24 -0.130935D-01  0.171986D-01  0.480346D+00  0.428571D-01 -0.226627D-04
     25  0.331118D-02  0.628310D-03  0.203802D+00 -0.604157D-02 -0.151927D-02
     26  0.652146D-03  0.185072D-02  0.997729D-02  0.235109D-02 -0.134964D-02
     27 -0.256790D-02 -0.129764D-02 -0.178040D-01  0.567998D-02  0.775842D-03
     28 -0.995567D-03  0.179438D-02 -0.700660D-02  0.170133D-02 -0.146599D-02
     29  0.402937D-01  0.935623D-01  0.518505D-01 -0.380555D-01  0.424680D-01
     30  0.742005D-01  0.140135D+00  0.489452D-01 -0.159475D-01  0.324826D-01
     31  0.572565D-02  0.172694D-01  0.402977D-02 -0.764848D-03  0.162998D-02
     32  0.289663D-01  0.449148D-01  0.938436D-02 -0.464222D-02  0.959432D-02
     33  0.665369D-02 -0.203968D-01  0.294674D-01 -0.168852D-01  0.541667D-02
                6             7             8             9            10 
      6  0.243533D+11
      7 -0.439282D+01  0.385007D+12
      8  0.916285D+01  0.103250D+02  0.385007D+12
      9  0.963275D+01  0.119668D+01  0.117660D+01  0.385007D+12
     10 -0.547745D+01  0.196029D+01  0.133305D+01  0.110137D+02  0.385007D+12
     11 -0.938731D+00  0.110860D+00  0.562874D+01  0.533066D+01  0.155006D+00
     12  0.188109D+00  0.123069D+00 -0.102692D+01 -0.149679D+00  0.250892D+00
     13  0.848364D+00  0.366456D+00 -0.868514D+00 -0.106125D+01  0.338200D+00
     14  0.115735D+01  0.375650D+00 -0.113853D+01 -0.955686D+00  0.435606D+00
     15 -0.827609D-01 -0.641153D-01  0.175743D+00  0.194277D+00 -0.626348D-01
     16 -0.397718D-01 -0.194268D-01  0.176759D+00  0.464657D-01 -0.228189D-01
     17  0.127502D+02 -0.237989D+01 -0.294340D+00 -0.108952D+01 -0.297178D+01
     18 -0.525194D+01 -0.417573D+00  0.550501D-01  0.423536D+00  0.142998D-01
     19 -0.501146D-01 -0.826415D-02  0.111267D+00 -0.173019D-01 -0.130809D-01
     20  0.474229D-03  0.729433D-02  0.159563D-01  0.506825D-02  0.261826D-01
     21  0.310991D-02  0.287026D-02  0.143168D-02  0.172812D-01 -0.458895D-02
     22 -0.397900D-02 -0.956652D-02  0.227118D+00  0.236551D-01 -0.150604D-01
     23  0.716237D-02  0.451615D-02 -0.272543D-02 -0.395254D-02  0.730082D-02
     24  0.228240D-01  0.142216D-01 -0.153572D-01 -0.123006D-02  0.158873D-01
     25  0.309200D-02  0.100789D-02  0.628202D-03 -0.168493D-02  0.333170D-02
     26  0.649209D-03  0.532576D-03 -0.149817D-02  0.304467D-03  0.166475D-03
     27  0.107135D-02  0.180223D-03 -0.122881D-02  0.154784D-02 -0.190029D-03
     28  0.103946D-02  0.434567D-03 -0.131962D-02 -0.144571D-02  0.447942D-03
     29 -0.390607D-01 -0.487168D-01  0.277553D+00  0.185173D-01 -0.305552D-01
     30 -0.194690D-01 -0.195565D-02  0.325437D+00  0.110695D-01 -0.240443D-01
     31 -0.771431D-03 -0.185353D-02  0.314296D-01  0.600084D-03 -0.157821D-02
     32 -0.297277D-02  0.184835D-02  0.112677D+00  0.597613D-02 -0.572464D-02
     33 -0.687175D-02 -0.277628D-02  0.309206D-02  0.741716D-02 -0.134958D-02
               11            12            13            14            15 
     11  0.243533D+11
     12  0.130566D+03  0.385007D+12
     13  0.142107D+03 -0.245217D+02  0.385007D+12
     14  0.303578D+02 -0.724947D+01 -0.666860D+01  0.243533D+11
     15 -0.538348D+01  0.103613D+02  0.946916D+01  0.169682D+03  0.385007D+12
     16 -0.120811D+01  0.107866D+01  0.752275D+01  0.560295D+02 -0.875325D+01
     17 -0.618081D-01 -0.336549D-01 -0.160937D+00 -0.248795D+00  0.175633D-01
     18  0.943902D-01 -0.238366D-01 -0.128326D+00 -0.193167D+00  0.150153D-01
     19 -0.690604D+00  0.866585D-02  0.346826D-01 -0.457278D+01 -0.126472D+01
     20  0.624689D+00  0.277282D+01  0.720669D-01  0.744313D+01 -0.885555D+00
     21  0.481958D+01 -0.914341D+00 -0.321867D+00  0.178772D+01  0.325186D+01
     22 -0.360492D-01  0.152194D-01  0.114582D+00  0.574009D+01  0.685950D+00
     23 -0.192862D+00 -0.901276D-01 -0.141043D+00  0.419072D+00  0.300497D+00
     24  0.329921D+01  0.108846D+00 -0.378208D+00 -0.236498D+00  0.185674D+01
     25 -0.696987D-01  0.216665D+00  0.796337D-02  0.139805D+01 -0.586560D+00
     26  0.163643D-01 -0.143336D-01 -0.274275D-01  0.304027D+00  0.701329D+00
     27 -0.178680D-02 -0.246208D-01 -0.149984D-01  0.893928D-01  0.865073D+00
     28 -0.204558D-01 -0.186911D-01 -0.216797D-02  0.685710D+00 -0.531343D-01
     29 -0.214549D+00  0.131447D-01  0.167643D-01  0.140385D+01  0.637826D+00
     30  0.494016D+00 -0.409032D-01  0.163256D+00 -0.641204D+00  0.430607D+00
     31  0.442042D-02  0.141119D-01  0.142573D-01 -0.178546D+00  0.207682D+00
     32  0.551460D+00 -0.445949D-01  0.199265D+00 -0.506359D+00  0.117683D+00
     33 -0.121175D+00 -0.118123D+00 -0.120054D-01 -0.776260D+00 -0.973048D+00
               16            17            18            19            20 
     16  0.243533D+11
     17  0.642638D-02  0.708114D+10
     18  0.513215D-02 -0.838182D+02  0.385007D+12
     19  0.101281D+02  0.992462D-02  0.839982D-02  0.708114D+10
     20  0.110001D+00 -0.202644D-02 -0.634130D-03 -0.296404D+00  0.201170D+10
     21  0.180986D+01 -0.113805D-02 -0.596977D-03 -0.409001D+00  0.695628D+02
     22  0.167847D+02  0.453153D-03  0.200893D-03 -0.192850D+01 -0.585011D-01
     23  0.309252D+01 -0.633358D-03 -0.267161D-03 -0.191615D+01 -0.123579D+00
     24  0.238792D+00 -0.663106D-02 -0.433980D-02  0.186590D-01  0.143319D+02
     25 -0.295775D+00 -0.816066D-03 -0.597572D-03 -0.574495D-01  0.711822D+01
     26  0.405348D+00 -0.949269D-05 -0.120085D-04  0.640628D-02  0.945364D+00
     27  0.528030D+00 -0.342869D-03 -0.176816D-03 -0.156377D-01  0.660463D+00
     28 -0.147061D-01 -0.265656D-03 -0.211237D-03 -0.169152D-01  0.718220D+00
     29 -0.477844D+00  0.425000D-02  0.247155D-02 -0.675285D+00  0.369332D-01
     30  0.128176D+01  0.152877D-02  0.680081D-03 -0.104459D+01  0.115800D+00
     31  0.743190D+01  0.911993D-04  0.418861D-04 -0.776799D+00  0.119330D-01
     32  0.152439D+01  0.328893D-03  0.201437D-03 -0.107198D+01  0.451665D-01
     33 -0.497543D+00  0.156655D-02  0.126535D-02  0.209014D+00 -0.185747D+01
               21            22            23            24            25 
     21  0.385007D+12
     22  0.967166D-01  0.201170D+10
     23  0.137327D+00  0.702856D+02  0.385007D+12
     24  0.365191D+01 -0.224360D-01  0.646088D-01  0.243533D+11
     25  0.597056D+00  0.241488D-02  0.672779D-02  0.530344D+02  0.243533D+11
     26 -0.386760D+00  0.514297D-02  0.417508D-02 -0.936046D+01  0.142106D+03
     27 -0.278685D+00  0.350690D-03 -0.440202D-02 -0.937893D+01  0.140355D+03
     28 -0.282815D+00 -0.397928D-02  0.413367D-02 -0.588808D+01  0.133342D+03
     29 -0.952860D-02  0.991422D+01  0.261220D+01 -0.876438D-02 -0.814401D-02
     30 -0.290508D-01 -0.141141D+01  0.235748D+01  0.109007D-01  0.215145D-01
     31 -0.155247D-01 -0.820666D+00  0.905358D+01  0.115723D-03 -0.228735D-02
     32  0.531669D-01 -0.129161D+01  0.438277D+01 -0.845633D-02  0.171871D-01
     33 -0.189576D+01 -0.899792D-01  0.753166D-01  0.104163D+02 -0.371799D+01
               26            27            28            29            30 
     26  0.385007D+12
     27 -0.290125D+02  0.385007D+12
     28 -0.228191D+02 -0.229331D+02  0.385007D+12
     29 -0.144881D-02 -0.302613D-02  0.350328D-03  0.243533D+11
     30  0.103768D-01  0.123648D-01 -0.105716D-02  0.155147D+03  0.385007D+12
     31  0.712230D-02  0.413467D-02  0.153669D-03  0.142105D+03 -0.225750D+02
     32 -0.311277D-02 -0.279591D-02 -0.658828D-03  0.159089D+03 -0.230000D+02
     33 -0.192805D+01 -0.193415D+01 -0.338219D+01  0.235293D-01 -0.676762D-01
               31            32            33 
     31  0.385007D+12
     32 -0.236102D+02  0.385007D+12
     33 -0.119923D-01 -0.790121D-01  0.708114D+10
 End of Minotr F.D. properties file   721 does not exist.
 End of Minotr F.D. properties file   722 does not exist.
 End of Minotr F.D. properties file   788 does not exist.
 Leave Link 1002 at Wed Jun 25 01:37:30 2014, MaxMem=  4294967296 cpu:    479649.0
 (Enter /home/ztw1e12/g09/l601.exe)
 Copying SCF densities to generalized density rwf, IOpCl= 0 IROHF=0.

 **********************************************************************

            Population analysis using the SCF density.

 **********************************************************************

 Orbital symmetries:
       Occupied  (A) (A) (A) (A) (A) (A) (A) (A) (A) (A) (A) (A)
                 (A) (A) (A) (A) (A) (A) (A) (A) (A) (A) (A) (A)
                 (A) (A) (A) (A) (A) (A) (A) (A) (A) (A) (A) (A)
                 (A) (A) (A) (A) (A) (A) (A) (A) (A) (A) (A) (A)
                 (A) (A) (A) (A) (A) (A) (A) (A) (A) (A) (A) (A)
                 (A) (A) (A)
       Virtual   (A) (A) (A) (A) (A) (A) (A) (A) (A) (A) (A) (A)
                 (A) (A) (A) (A) (A) (A) (A) (A) (A) (A) (A) (A)
                 (A) (A) (A) (A) (A) (A) (A) (A) (A) (A) (A) (A)
                 (A) (A) (A) (A) (A) (A) (A) (A) (A) (A) (A) (A)
                 (A) (A) (A) (A) (A) (A) (A) (A) (A) (A) (A) (A)
                 (A) (A) (A) (A) (A) (A) (A) (A) (A) (A) (A) (A)
                 (A) (A) (A) (A) (A) (A) (A) (A) (A) (A) (A) (A)
                 (A) (A) (A) (A) (A) (A) (A) (A) (A) (A) (A) (A)
                 (A) (A) (A) (A) (A) (A) (A) (A) (A) (A) (A) (A)
                 (A) (A) (A) (A) (A) (A) (A) (A) (A) (A) (A) (A)
                 (A) (A) (A) (A) (A) (A) (A) (A) (A) (A) (A) (A)
                 (A) (A) (A) (A) (A) (A) (A) (A) (A) (A) (A) (A)
                 (A) (A) (A) (A) (A) (A) (A) (A) (A) (A) (A) (A)
                 (A) (A) (A) (A) (A) (A) (A) (A) (A) (A) (A) (A)
                 (A) (A) (A) (A) (A) (A) (A) (A) (A) (A) (A) (A)
                 (A) (A) (A) (A) (A) (A) (A) (A) (A) (A) (A) (A)
                 (A) (A) (A) (A) (A) (A) (A) (A) (A) (A) (A) (A)
                 (A) (A) (A) (A) (A) (A) (A) (A) (A) (A) (A) (A)
                 (A) (A) (A) (A) (A) (A) (A) (A) (A) (A) (A) (A)
                 (A) (A) (A) (A) (A) (A) (A) (A) (A) (A) (A) (A)
                 (A) (A) (A) (A) (A) (A) (A) (A) (A) (A) (A) (A)
                 (A) (A) (A) (A) (A) (A) (A) (A) (A) (A) (A) (A)
                 (A) (A) (A) (A) (A) (A) (A) (A) (A) (A) (A) (A)
                 (A) (A) (A) (A) (A) (A) (A) (A) (A) (A) (A) (A)
                 (A) (A) (A) (A) (A) (A) (A) (A) (A) (A) (A) (A)
                 (A) (A) (A) (A) (A) (A) (A) (A) (A) (A) (A) (A)
                 (A) (A) (A) (A) (A) (A) (A) (A) (A) (A) (A) (A)
                 (A) (A) (A) (A) (A) (A) (A) (A) (A) (A) (A) (A)
                 (A) (A) (A) (A) (A) (A) (A) (A) (A) (A) (A) (A)
                 (A) (A) (A) (A) (A) (A) (A) (A) (A) (A) (A) (A)
                 (A) (A) (A) (A) (A) (A) (A) (A) (A) (A) (A) (A)
                 (A) (A) (A) (A) (A) (A) (A) (A) (A) (A) (A) (A)
                 (A) (A) (A) (A) (A) (A) (A) (A) (A) (A) (A) (A)
                 (A) (A) (A) (A) (A) (A) (A) (A) (A) (A) (A) (A)
                 (A) (A) (A) (A) (A) (A) (A) (A) (A) (A) (A) (A)
                 (A) (A) (A) (A) (A) (A) (A) (A) (A) (A) (A) (A)
                 (A) (A) (A) (A) (A) (A) (A) (A) (A) (A) (A) (A)
                 (A) (A) (A) (A) (A) (A) (A) (A) (A) (A) (A) (A)
                 (A) (A) (A) (A) (A) (A) (A) (A) (A) (A) (A) (A)
                 (A) (A) (A) (A) (A) (A) (A) (A) (A) (A) (A) (A)
                 (A) (A) (A) (A) (A) (A) (A) (A) (A) (A) (A) (A)
                 (A) (A) (A) (A) (A) (A) (A) (A) (A) (A) (A) (A)
                 (A) (A) (A) (A) (A) (A) (A) (A) (A) (A) (A) (A)
                 (A) (A) (A) (A) (A) (A) (A) (A) (A) (A) (A) (A)
                 (A) (A) (A) (A) (A) (A) (A) (A) (A) (A) (A) (A)
                 (A) (A) (A) (A) (A) (A) (A) (A) (A) (A) (A) (A)
                 (A) (A) (A) (A) (A) (A) (A) (A) (A) (A) (A) (A)
                 (A) (A) (A) (A) (A) (A) (A) (A) (A) (A) (A) (A)
                 (A) (A) (A) (A) (A) (A) (A) (A) (A) (A) (A) (A)
                 (A) (A) (A) (A) (A) (A) (A) (A) (A) (A) (A) (A)
                 (A) (A) (A) (A) (A) (A) (A) (A) (A) (A) (A) (A)
                 (A) (A) (A) (A) (A) (A) (A) (A) (A) (A) (A) (A)
                 (A) (A) (A) (A) (A) (A) (A) (A) (A) (A) (A) (A)
                 (A) (A) (A) (A) (A) (A) (A) (A) (A) (A) (A) (A)
                 (A) (A) (A) (A) (A) (A) (A) (A) (A) (A) (A) (A)
                 (A) (A) (A) (A) (A) (A) (A) (A) (A) (A) (A) (A)
                 (A) (A) (A) (A) (A) (A) (A) (A) (A) (A) (A) (A)
                 (A) (A) (A) (A) (A) (A) (A) (A) (A) (A) (A) (A)
                 (A) (A) (A) (A) (A) (A) (A) (A) (A) (A) (A) (A)
                 (A) (A) (A) (A) (A) (A) (A) (A) (A) (A) (A) (A)
                 (A) (A) (A) (A) (A) (A) (A) (A) (A) (A) (A) (A)
                 (A) (A) (A) (A) (A) (A) (A) (A) (A) (A) (A) (A)
                 (A) (A) (A) (A) (A) (A) (A) (A) (A) (A) (A) (A)
                 (A) (A) (A) (A) (A) (A) (A) (A) (A) (A) (A) (A)
                 (A) (A) (A) (A) (A) (A) (A) (A) (A) (A) (A) (A)
                 (A) (A) (A) (A) (A) (A) (A) (A) (A) (A) (A) (A)
                 (A) (A) (A) (A) (A) (A) (A) (A) (A) (A) (A) (A)
                 (A) (A) (A) (A) (A) (A) (A) (A) (A) (A) (A) (A)
                 (A) (A) (A) (A) (A) (A) (A) (A) (A) (A) (A) (A)
                 (A) (A) (A) (A) (A) (A) (A) (A) (A) (A) (A) (A)
                 (A) (A) (A) (A) (A) (A) (A) (A) (A) (A) (A) (A)
                 (A) (A) (A) (A) (A) (A) (A) (A) (A) (A) (A) (A)
                 (A) (A) (A) (A) (A) (A) (A) (A) (A) (A) (A) (A)
                 (A) (A) (A) (A) (A) (A) (A) (A) (A) (A) (A) (A)
                 (A) (A) (A) (A) (A) (A) (A) (A) (A) (A) (A) (A)
                 (A) (A) (A) (A) (A) (A) (A) (A) (A) (A) (A) (A)
                 (A) (A) (A) (A) (A) (A) (A) (A) (A) (A) (A) (A)
                 (A) (A) (A) (A) (A) (A) (A) (A) (A) (A) (A) (A)
                 (A) (A) (A) (A) (A) (A) (A) (A) (A) (A) (A) (A)
                 (A) (A) (A) (A) (A) (A) (A) (A) (A) (A) (A) (A)
                 (A) (A) (A) (A) (A) (A) (A) (A) (A) (A) (A) (A)
                 (A) (A) (A) (A) (A) (A) (A) (A) (A) (A) (A) (A)
                 (A) (A) (A) (A) (A) (A) (A) (A) (A) (A) (A) (A)
                 (A) (A) (A) (A) (A) (A) (A) (A) (A)
 The electronic state is 1-A.
 Alpha  occ. eigenvalues --  -19.24353 -19.17617 -19.16358 -14.42856 -14.41437
 Alpha  occ. eigenvalues --  -10.34522 -10.32872 -10.30379 -10.29209 -10.26858
 Alpha  occ. eigenvalues --  -10.26345 -10.25038 -10.24656 -10.24570 -10.24256
 Alpha  occ. eigenvalues --  -10.24148 -10.23529  -1.08685  -1.05839  -1.04124
 Alpha  occ. eigenvalues --   -0.95786  -0.93451  -0.87460  -0.81614  -0.77137
 Alpha  occ. eigenvalues --   -0.76301  -0.73896  -0.71653  -0.66711  -0.63750
 Alpha  occ. eigenvalues --   -0.62270  -0.59636  -0.59440  -0.55996  -0.54858
 Alpha  occ. eigenvalues --   -0.52557  -0.50286  -0.49859  -0.47692  -0.47050
 Alpha  occ. eigenvalues --   -0.46989  -0.45624  -0.44939  -0.44278  -0.43524
 Alpha  occ. eigenvalues --   -0.42818  -0.42176  -0.41878  -0.41175  -0.40991
 Alpha  occ. eigenvalues --   -0.39737  -0.39050  -0.37692  -0.37404  -0.35778
 Alpha  occ. eigenvalues --   -0.34975  -0.34794  -0.29677  -0.27315  -0.27094
 Alpha  occ. eigenvalues --   -0.26693  -0.25363  -0.23351
 Alpha virt. eigenvalues --   -0.00793   0.00080   0.01066   0.02023   0.02354
 Alpha virt. eigenvalues --    0.02904   0.03634   0.04918   0.05334   0.06244
 Alpha virt. eigenvalues --    0.06788   0.07828   0.09303   0.09848   0.10549
 Alpha virt. eigenvalues --    0.10801   0.11629   0.12420   0.12847   0.13300
 Alpha virt. eigenvalues --    0.15239   0.16210   0.16566   0.17466   0.19551
 Alpha virt. eigenvalues --    0.20272   0.21478   0.21781   0.22188   0.23330
 Alpha virt. eigenvalues --    0.24086   0.24416   0.25214   0.25786   0.26849
 Alpha virt. eigenvalues --    0.27254   0.27567   0.28487   0.29066   0.30229
 Alpha virt. eigenvalues --    0.30717   0.31482   0.31611   0.32238   0.32489
 Alpha virt. eigenvalues --    0.33005   0.33667   0.33836   0.34516   0.35399
 Alpha virt. eigenvalues --    0.35647   0.36404   0.36493   0.37196   0.37491
 Alpha virt. eigenvalues --    0.38044   0.38409   0.38780   0.39616   0.40062
 Alpha virt. eigenvalues --    0.40473   0.40822   0.41298   0.41704   0.41929
 Alpha virt. eigenvalues --    0.42411   0.42845   0.43055   0.43414   0.44439
 Alpha virt. eigenvalues --    0.44944   0.45450   0.45722   0.46425   0.46880
 Alpha virt. eigenvalues --    0.48315   0.48786   0.49114   0.49983   0.50796
 Alpha virt. eigenvalues --    0.50920   0.51582   0.52245   0.52696   0.53357
 Alpha virt. eigenvalues --    0.54357   0.55211   0.56054   0.56413   0.58350
 Alpha virt. eigenvalues --    0.59143   0.59781   0.60259   0.60850   0.61442
 Alpha virt. eigenvalues --    0.62455   0.62798   0.63403   0.64457   0.65322
 Alpha virt. eigenvalues --    0.65599   0.67311   0.68050   0.68635   0.69167
 Alpha virt. eigenvalues --    0.70031   0.71032   0.71539   0.72034   0.72830
 Alpha virt. eigenvalues --    0.73147   0.73782   0.74524   0.75919   0.76257
 Alpha virt. eigenvalues --    0.77209   0.77816   0.78493   0.79120   0.79894
 Alpha virt. eigenvalues --    0.81387   0.81981   0.82199   0.82604   0.82938
 Alpha virt. eigenvalues --    0.84179   0.85421   0.85529   0.86158   0.86396
 Alpha virt. eigenvalues --    0.88589   0.89087   0.90015   0.90461   0.91218
 Alpha virt. eigenvalues --    0.92093   0.92628   0.93107   0.93945   0.95350
 Alpha virt. eigenvalues --    0.95927   0.96147   0.96554   0.96909   0.97499
 Alpha virt. eigenvalues --    0.99232   0.99777   1.00114   1.00332   1.01303
 Alpha virt. eigenvalues --    1.02443   1.03956   1.04342   1.04859   1.06054
 Alpha virt. eigenvalues --    1.06397   1.06926   1.08149   1.08810   1.09741
 Alpha virt. eigenvalues --    1.10577   1.11080   1.12679   1.13896   1.14175
 Alpha virt. eigenvalues --    1.14673   1.15644   1.16344   1.16667   1.16903
 Alpha virt. eigenvalues --    1.17696   1.18406   1.19037   1.19487   1.21079
 Alpha virt. eigenvalues --    1.21115   1.21941   1.22199   1.22447   1.23040
 Alpha virt. eigenvalues --    1.23911   1.24273   1.24719   1.25062   1.25590
 Alpha virt. eigenvalues --    1.26091   1.26533   1.26714   1.27088   1.27588
 Alpha virt. eigenvalues --    1.28508   1.29069   1.29839   1.30263   1.31139
 Alpha virt. eigenvalues --    1.31792   1.32947   1.33185   1.33479   1.34980
 Alpha virt. eigenvalues --    1.35425   1.36024   1.36381   1.36948   1.39417
 Alpha virt. eigenvalues --    1.40353   1.41111   1.41592   1.42742   1.43739
 Alpha virt. eigenvalues --    1.45853   1.47119   1.47832   1.48622   1.50317
 Alpha virt. eigenvalues --    1.53311   1.53517   1.54599   1.57419   1.58560
 Alpha virt. eigenvalues --    1.59517   1.60898   1.61676   1.62303   1.63467
 Alpha virt. eigenvalues --    1.64898   1.66173   1.68251   1.70301   1.72556
 Alpha virt. eigenvalues --    1.73667   1.75147   1.76727   1.77636   1.80708
 Alpha virt. eigenvalues --    1.81069   1.81220   1.83426   1.84409   1.86143
 Alpha virt. eigenvalues --    1.86743   1.87940   1.89444   1.90012   1.90118
 Alpha virt. eigenvalues --    1.92366   1.93688   1.94413   1.96480   1.96968
 Alpha virt. eigenvalues --    1.97920   1.99082   2.01984   2.02668   2.02760
 Alpha virt. eigenvalues --    2.03845   2.05173   2.06345   2.07538   2.09646
 Alpha virt. eigenvalues --    2.10721   2.12435   2.13631   2.14323   2.15329
 Alpha virt. eigenvalues --    2.15907   2.18077   2.18354   2.20745   2.21442
 Alpha virt. eigenvalues --    2.22030   2.22967   2.24973   2.26309   2.26862
 Alpha virt. eigenvalues --    2.28028   2.29472   2.31638   2.32092   2.34119
 Alpha virt. eigenvalues --    2.35425   2.36047   2.36689   2.37330   2.38584
 Alpha virt. eigenvalues --    2.39315   2.40877   2.42198   2.42673   2.42883
 Alpha virt. eigenvalues --    2.44498   2.45390   2.47692   2.48828   2.49337
 Alpha virt. eigenvalues --    2.51275   2.51304   2.51872   2.53047   2.54612
 Alpha virt. eigenvalues --    2.56649   2.56892   2.57836   2.58189   2.61079
 Alpha virt. eigenvalues --    2.63275   2.63956   2.65002   2.66682   2.67326
 Alpha virt. eigenvalues --    2.67992   2.69000   2.69535   2.70053   2.70459
 Alpha virt. eigenvalues --    2.71221   2.71428   2.72154   2.72367   2.73330
 Alpha virt. eigenvalues --    2.74024   2.74106   2.74573   2.75446   2.76831
 Alpha virt. eigenvalues --    2.77409   2.78214   2.79512   2.80411   2.81307
 Alpha virt. eigenvalues --    2.83022   2.83552   2.84368   2.84676   2.85976
 Alpha virt. eigenvalues --    2.87123   2.87874   2.88397   2.89247   2.89529
 Alpha virt. eigenvalues --    2.90048   2.91058   2.91592   2.92616   2.92788
 Alpha virt. eigenvalues --    2.93563   2.94031   2.95276   2.95708   2.95923
 Alpha virt. eigenvalues --    2.97169   2.97382   2.97499   2.98267   2.98997
 Alpha virt. eigenvalues --    2.99768   3.00252   3.00987   3.01601   3.02444
 Alpha virt. eigenvalues --    3.03354   3.03537   3.03813   3.04498   3.05412
 Alpha virt. eigenvalues --    3.06149   3.07009   3.07174   3.08909   3.09340
 Alpha virt. eigenvalues --    3.09875   3.11176   3.12148   3.12485   3.13861
 Alpha virt. eigenvalues --    3.14447   3.14929   3.15485   3.17093   3.17786
 Alpha virt. eigenvalues --    3.18683   3.18956   3.19542   3.19919   3.21541
 Alpha virt. eigenvalues --    3.22196   3.22834   3.23462   3.24375   3.25062
 Alpha virt. eigenvalues --    3.26294   3.26952   3.27649   3.27965   3.28908
 Alpha virt. eigenvalues --    3.29049   3.29792   3.30256   3.31065   3.31723
 Alpha virt. eigenvalues --    3.32076   3.32832   3.33357   3.33876   3.34037
 Alpha virt. eigenvalues --    3.35241   3.35833   3.36105   3.37945   3.38840
 Alpha virt. eigenvalues --    3.40530   3.40886   3.41776   3.42443   3.43173
 Alpha virt. eigenvalues --    3.43475   3.43989   3.45201   3.45735   3.46743
 Alpha virt. eigenvalues --    3.47029   3.48098   3.50290   3.50714   3.52119
 Alpha virt. eigenvalues --    3.52623   3.53840   3.54784   3.56022   3.56675
 Alpha virt. eigenvalues --    3.57805   3.59157   3.59563   3.60766   3.61083
 Alpha virt. eigenvalues --    3.61686   3.63359   3.64229   3.65872   3.65967
 Alpha virt. eigenvalues --    3.67676   3.68646   3.69428   3.70523   3.70896
 Alpha virt. eigenvalues --    3.72211   3.72722   3.73392   3.73871   3.74178
 Alpha virt. eigenvalues --    3.75236   3.75823   3.76506   3.77408   3.77821
 Alpha virt. eigenvalues --    3.78917   3.79286   3.80190   3.80608   3.82445
 Alpha virt. eigenvalues --    3.82751   3.82925   3.84356   3.85655   3.85841
 Alpha virt. eigenvalues --    3.86324   3.87114   3.88181   3.88789   3.89863
 Alpha virt. eigenvalues --    3.91176   3.91632   3.93190   3.93858   3.94207
 Alpha virt. eigenvalues --    3.95098   3.96222   3.98209   3.99075   4.00134
 Alpha virt. eigenvalues --    4.01673   4.02983   4.03608   4.05084   4.06218
 Alpha virt. eigenvalues --    4.06415   4.06926   4.07050   4.07737   4.09147
 Alpha virt. eigenvalues --    4.09875   4.10775   4.11787   4.13064   4.14385
 Alpha virt. eigenvalues --    4.15557   4.15700   4.16777   4.17905   4.18958
 Alpha virt. eigenvalues --    4.19236   4.20519   4.21254   4.22082   4.22992
 Alpha virt. eigenvalues --    4.23944   4.24973   4.25181   4.25658   4.26588
 Alpha virt. eigenvalues --    4.27701   4.28166   4.28996   4.29885   4.30686
 Alpha virt. eigenvalues --    4.31442   4.33309   4.35141   4.35485   4.38564
 Alpha virt. eigenvalues --    4.39676   4.40854   4.41361   4.42739   4.44674
 Alpha virt. eigenvalues --    4.45474   4.47065   4.47639   4.50645   4.50751
 Alpha virt. eigenvalues --    4.52219   4.54768   4.56397   4.57979   4.59217
 Alpha virt. eigenvalues --    4.59618   4.60539   4.61399   4.62920   4.63972
 Alpha virt. eigenvalues --    4.65095   4.66238   4.67178   4.67814   4.68402
 Alpha virt. eigenvalues --    4.69352   4.69435   4.69822   4.71356   4.72297
 Alpha virt. eigenvalues --    4.73536   4.74908   4.75660   4.78059   4.79939
 Alpha virt. eigenvalues --    4.81048   4.81619   4.83385   4.85824   4.86926
 Alpha virt. eigenvalues --    4.87160   4.88545   4.89236   4.91098   4.91517
 Alpha virt. eigenvalues --    4.92309   4.93373   4.94443   4.95343   4.96949
 Alpha virt. eigenvalues --    4.98638   4.98904   4.99720   5.01757   5.02867
 Alpha virt. eigenvalues --    5.03918   5.04778   5.06711   5.07246   5.09172
 Alpha virt. eigenvalues --    5.10867   5.11386   5.12781   5.13858   5.14898
 Alpha virt. eigenvalues --    5.15745   5.16222   5.16908   5.17743   5.18909
 Alpha virt. eigenvalues --    5.20132   5.23173   5.24538   5.26197   5.28502
 Alpha virt. eigenvalues --    5.29102   5.33397   5.35297   5.36262   5.38233
 Alpha virt. eigenvalues --    5.42186   5.43143   5.45223   5.46869   5.49641
 Alpha virt. eigenvalues --    5.52333   5.52735   5.52925   5.54941   5.55804
 Alpha virt. eigenvalues --    5.56839   5.58278   5.59601   5.61118   5.61986
 Alpha virt. eigenvalues --    5.64103   5.65010   5.66192   5.66514   5.67523
 Alpha virt. eigenvalues --    5.68648   5.69487   5.72787   5.73466   5.74823
 Alpha virt. eigenvalues --    5.75719   5.77817   5.79148   5.81630   5.83277
 Alpha virt. eigenvalues --    5.85836   5.86153   5.90459   5.92899   5.97676
 Alpha virt. eigenvalues --    5.98033   5.99525   6.04217   6.07907   6.11041
 Alpha virt. eigenvalues --    6.18048   6.19182   6.20517   6.23112   6.26368
 Alpha virt. eigenvalues --    6.46548   6.47222   6.52347   6.53254   6.56940
 Alpha virt. eigenvalues --    6.61462   6.63117   6.63257   6.64631   6.66821
 Alpha virt. eigenvalues --    6.78925   6.80731   6.80858   6.88871   6.89481
 Alpha virt. eigenvalues --    6.91348   6.92168   6.92760   6.94724   7.07170
 Alpha virt. eigenvalues --    7.18004   7.19752   7.22674   7.28476   7.29740
 Alpha virt. eigenvalues --    7.68237   8.01274   8.11581   8.13102   8.13741
 Alpha virt. eigenvalues --    8.19222   8.26186   8.31120   8.37983   8.67233
 Alpha virt. eigenvalues --    8.74566   8.75808   8.77740   8.81286   8.82453
 Alpha virt. eigenvalues --    8.84055   8.84889   8.86735   8.87947   8.90651
 Alpha virt. eigenvalues --    8.93654   8.95667   8.98586   9.01262   9.03316
 Alpha virt. eigenvalues --    9.08880   9.14181   9.18553   9.21892   9.32075
 Alpha virt. eigenvalues --    9.36336   9.40903   9.41787   9.46038   9.48727
 Alpha virt. eigenvalues --    9.59131   9.62496   9.78405   9.82109  10.04196
 Alpha virt. eigenvalues --   10.08720  10.12650  10.13559  10.14052  10.16938
[...]
 Alpha virt. eigenvalues --    6.78813   6.81273   6.86490   6.86699   6.88645
 Alpha virt. eigenvalues --    6.91499   6.96109   7.09022   7.09647   7.12612
 Alpha virt. eigenvalues --    7.15790   7.17920   7.29749   7.44024   8.74754
 Alpha virt. eigenvalues --    9.60313   9.88765  11.95786  12.14147  12.32720
 Alpha virt. eigenvalues --   12.40483  12.71754  12.80378  12.93339  13.23096
 Alpha virt. eigenvalues --   13.52425  13.54012  13.64486  13.74987  13.98116
 Alpha virt. eigenvalues --   15.59181
          Condensed to atoms (all electrons):
               1          2          3          4          5          6
     1  C    5.441868   0.188788   0.022541  -0.042785  -0.013136   0.295373
     2  C    0.188788   5.530494   0.195919   0.004110  -0.048227   0.045078
     3  C    0.022541   0.195919   5.338930   0.343775  -0.034228  -0.078206
     4  C   -0.042785   0.004110   0.343775   5.099937   0.450119  -0.021392
     5  C   -0.013136  -0.048227  -0.034228   0.450119   5.032988   0.385977
     6  C    0.295373   0.045078  -0.078206  -0.021392   0.385977   4.861448
     7  H    0.451314  -0.040002   0.009791  -0.000750   0.004411  -0.071207
     8  H   -0.020299   0.440799  -0.087589   0.004391  -0.001155   0.006983
     9  H   -0.003833   0.009699  -0.091242   0.454706  -0.034084   0.011758
    10  H    0.014118  -0.005836   0.014337  -0.056179   0.452864  -0.080224
    11  C    0.005676  -0.031075   0.263021  -0.052832   0.004050  -0.001268
    12  H    0.000127  -0.006318  -0.054490   0.006702   0.000131  -0.000048
    13  H   -0.000321   0.007774  -0.024533  -0.010282   0.000004   0.000061
    14  C    0.001115  -0.027026  -0.033522   0.000267   0.001778  -0.000258
    15  H   -0.000152   0.001512  -0.009329   0.001277   0.000015   0.000037
    16  C    0.001994   0.000808   0.039953  -0.003357   0.000524  -0.000888
    17  O   -0.090149   0.013671  -0.000573   0.002643  -0.048167   0.392678
    18  H   -0.005397   0.004890  -0.000487  -0.000622   0.002005  -0.043514
    19  O    0.002024  -0.009146  -0.000968   0.000771   0.001054  -0.000785
    20  N   -0.000038   0.000476   0.004845  -0.000152  -0.000027   0.000002
    21  H    0.000001  -0.000082   0.001274   0.000018   0.000005  -0.000002
    22  N   -0.000987   0.011979  -0.026195  -0.000108  -0.000135   0.000317
    23  H   -0.000106   0.000844  -0.001243   0.000002  -0.000004   0.000005
    24  C    0.000003  -0.000091  -0.000038   0.000013   0.000001   0.000000
    25  C    0.000000   0.000002   0.000013  -0.000002   0.000000   0.000000
    26  H    0.000000   0.000000  -0.000003   0.000000   0.000000   0.000000
    27  H    0.000000   0.000000   0.000002   0.000000   0.000000   0.000000
    28  H    0.000000  -0.000001  -0.000007   0.000001   0.000000   0.000000
    29  C   -0.000295  -0.002291   0.001526  -0.000042   0.000029  -0.000064
    30  H    0.001848  -0.002383   0.002486  -0.000183   0.000059  -0.000287
    31  H    0.000008  -0.000202   0.000141   0.000009   0.000000  -0.000004
    32  H   -0.000035   0.000412  -0.000222  -0.000012  -0.000008   0.000010
    33  O    0.000000   0.000006   0.000069  -0.000020   0.000000   0.000000
               7          8          9         10         11         12
     1  C    0.451314  -0.020299  -0.003833   0.014118   0.005676   0.000127
     2  C   -0.040002   0.440799   0.009699  -0.005836  -0.031075  -0.006318
     3  C    0.009791  -0.087589  -0.091242   0.014337   0.263021  -0.054490
     4  C   -0.000750   0.004391   0.454706  -0.056179  -0.052832   0.006702
     5  C    0.004411  -0.001155  -0.034084   0.452864   0.004050   0.000131
     6  C   -0.071207   0.006983   0.011758  -0.080224  -0.001268  -0.000048
     7  H    0.535149  -0.007010   0.000042  -0.000234  -0.000365  -0.000059
     8  H   -0.007010   0.487101  -0.000240   0.000054   0.003782   0.000678
     9  H    0.000042  -0.000240   0.510840  -0.009545   0.003800   0.000335
    10  H   -0.000234   0.000054  -0.009545   0.547098  -0.000215   0.000019
    11  C   -0.000365   0.003782   0.003800  -0.000215   5.333380   0.424023
    12  H   -0.000059   0.000678   0.000335   0.000019   0.424023   0.489311
    13  H    0.000012   0.000721   0.000719  -0.000019   0.426254  -0.015398
    14  C    0.000032  -0.001663  -0.001486   0.000020   0.187847  -0.032714
    15  H   -0.000003  -0.000030   0.001210  -0.000002  -0.002591   0.004371
    16  C    0.000129  -0.000080  -0.000465   0.000033  -0.072551  -0.008906
    17  O   -0.004199  -0.000122  -0.000137   0.006340   0.000002  -0.000001
    18  H    0.004651  -0.000005   0.000047  -0.000975  -0.000007   0.000000
    19  O    0.000084  -0.000704  -0.000315   0.000072  -0.002367   0.000224
    20  N    0.000000  -0.000297  -0.000087   0.000000  -0.043731  -0.006050
    21  H    0.000000   0.000035   0.000013   0.000000  -0.001128   0.005069
    22  N   -0.000193   0.005436  -0.000002  -0.000001   0.025991  -0.002223
    23  H   -0.000010   0.000553   0.000006   0.000000   0.003784   0.003667
    24  C    0.000000  -0.000048  -0.000018   0.000000   0.006785  -0.000267
    25  C    0.000000  -0.000002  -0.000002   0.000000  -0.000013  -0.000088
    26  H    0.000000   0.000000   0.000000   0.000000  -0.000015   0.000021
    27  H    0.000000   0.000000   0.000000   0.000000  -0.000002  -0.000024
    28  H    0.000000   0.000000   0.000000   0.000000  -0.000283  -0.000022
    29  C    0.000067   0.000180  -0.000004   0.000000  -0.001478  -0.000231
    30  H    0.000497  -0.001849  -0.000002   0.000002  -0.001064  -0.000013
    31  H    0.000002   0.000030   0.000000   0.000000  -0.000112   0.000034
    32  H   -0.000015   0.000197   0.000000   0.000000   0.000257  -0.000016
    33  O    0.000000   0.000002  -0.000007   0.000000   0.001883  -0.000025
              13         14         15         16         17         18
     1  C   -0.000321   0.001115  -0.000152   0.001994  -0.090149  -0.005397
     2  C    0.007774  -0.027026   0.001512   0.000808   0.013671   0.004890
     3  C   -0.024533  -0.033522  -0.009329   0.039953  -0.000573  -0.000487
     4  C   -0.010282   0.000267   0.001277  -0.003357   0.002643  -0.000622
     5  C    0.000004   0.001778   0.000015   0.000524  -0.048167   0.002005
     6  C    0.000061  -0.000258   0.000037  -0.000888   0.392678  -0.043514
     7  H    0.000012   0.000032  -0.000003   0.000129  -0.004199   0.004651
     8  H    0.000721  -0.001663  -0.000030  -0.000080  -0.000122  -0.000005
     9  H    0.000719  -0.001486   0.001210  -0.000465  -0.000137   0.000047
    10  H   -0.000019   0.000020  -0.000002   0.000033   0.006340  -0.000975
    11  C    0.426254   0.187847  -0.002591  -0.072551   0.000002  -0.000007
    12  H   -0.015398  -0.032714   0.004371  -0.008906  -0.000001   0.000000
    13  H    0.478693  -0.065091  -0.007117   0.010000   0.000000   0.000000
    14  C   -0.065091   5.483018   0.431020   0.195493   0.000000   0.000000
    15  H   -0.007117   0.431020   0.445095  -0.074359   0.000000   0.000000
    16  C    0.010000   0.195493  -0.074359   4.842651   0.000001  -0.000001
    17  O    0.000000   0.000000   0.000000   0.000001   7.662229   0.359618
    18  H    0.000000   0.000000   0.000000  -0.000001   0.359618   0.492345
    19  O   -0.000555  -0.065788   0.007905   0.732078  -0.000001  -0.000001
    20  N    0.001562   0.161934  -0.031982  -0.046376   0.000000   0.000000
    21  H    0.002410  -0.028370   0.000963   0.003970   0.000000   0.000000
    22  N   -0.000133  -0.109747   0.008564   0.226736   0.000000   0.000000
    23  H   -0.000081  -0.005419   0.000701  -0.027227   0.000000   0.000000
    24  C   -0.001049  -0.077499  -0.001282  -0.003752   0.000000   0.000000
    25  C   -0.000045   0.010964   0.001358  -0.003130   0.000000   0.000000
    26  H   -0.000013  -0.000241   0.000126  -0.000194   0.000000   0.000000
    27  H    0.000004  -0.000565  -0.000150   0.000626   0.000000   0.000000
    28  H   -0.000010   0.000787  -0.000215   0.000109   0.000000   0.000000
    29  C    0.000050   0.010169  -0.000594  -0.049848   0.000001   0.000000
    30  H   -0.000026   0.000206  -0.000157   0.005233  -0.000006  -0.000002
    31  H    0.000001   0.000554  -0.000007   0.010361   0.000000   0.000000
    32  H    0.000011   0.000554   0.000044  -0.009297   0.000000   0.000000
    33  O   -0.000024   0.016152   0.010826   0.000372   0.000000   0.000000
              19         20         21         22         23         24
     1  C    0.002024  -0.000038   0.000001  -0.000987  -0.000106   0.000003
     2  C   -0.009146   0.000476  -0.000082   0.011979   0.000844  -0.000091
     3  C   -0.000968   0.004845   0.001274  -0.026195  -0.001243  -0.000038
     4  C    0.000771  -0.000152   0.000018  -0.000108   0.000002   0.000013
     5  C    0.001054  -0.000027   0.000005  -0.000135  -0.000004   0.000001
     6  C   -0.000785   0.000002  -0.000002   0.000317   0.000005   0.000000
     7  H    0.000084   0.000000   0.000000  -0.000193  -0.000010   0.000000
     8  H   -0.000704  -0.000297   0.000035   0.005436   0.000553  -0.000048
     9  H   -0.000315  -0.000087   0.000013  -0.000002   0.000006  -0.000018
    10  H    0.000072   0.000000   0.000000  -0.000001   0.000000   0.000000
    11  C   -0.002367  -0.043731  -0.001128   0.025991   0.003784   0.006785
    12  H    0.000224  -0.006050   0.005069  -0.002223   0.003667  -0.000267
    13  H   -0.000555   0.001562   0.002410  -0.000133  -0.000081  -0.001049
    14  C   -0.065788   0.161934  -0.028370  -0.109747  -0.005419  -0.077499
    15  H    0.007905  -0.031982   0.000963   0.008564   0.000701  -0.001282
    16  C    0.732078  -0.046376   0.003970   0.226736  -0.027227  -0.003752
    17  O   -0.000001   0.000000   0.000000   0.000000   0.000000   0.000000
    18  H   -0.000001   0.000000   0.000000   0.000000   0.000000   0.000000
    19  O    7.806275   0.004965  -0.000335  -0.128984   0.005626  -0.001639
    20  N    0.004965   6.683517   0.355937   0.004503   0.024242   0.315583
    21  H   -0.000335   0.355937   0.519992  -0.001673  -0.000283  -0.016427
    22  N   -0.128984   0.004503  -0.001673   6.572402   0.376760   0.013751
    23  H    0.005626   0.024242  -0.000283   0.376760   0.529357  -0.003963
    24  C   -0.001639   0.315583  -0.016427   0.013751  -0.003963   4.601179
    25  C   -0.000013  -0.067591  -0.000703  -0.000152   0.000542   0.272038
    26  H    0.000001   0.000147  -0.000425   0.000009   0.000100  -0.026996
    27  H   -0.000005  -0.001405   0.000404   0.000252  -0.000414  -0.022507
    28  H    0.000001   0.013666  -0.000692   0.000046   0.000035  -0.058178
    29  C    0.008182  -0.001661   0.000101   0.285007  -0.034333  -0.000066
    30  H    0.003758  -0.000141   0.000005  -0.061663   0.000685   0.000198
    31  H    0.001612  -0.000161   0.000035  -0.030771  -0.008114  -0.000067
    32  H    0.006070  -0.000137   0.000009  -0.040351   0.003643  -0.000457
    33  O   -0.000956  -0.135683   0.004930  -0.004411  -0.001989   0.725825
              25         26         27         28         29         30
     1  C    0.000000   0.000000   0.000000   0.000000  -0.000295   0.001848
     2  C    0.000002   0.000000   0.000000  -0.000001  -0.002291  -0.002383
     3  C    0.000013  -0.000003   0.000002  -0.000007   0.001526   0.002486
     4  C   -0.000002   0.000000   0.000000   0.000001  -0.000042  -0.000183
     5  C    0.000000   0.000000   0.000000   0.000000   0.000029   0.000059
     6  C    0.000000   0.000000   0.000000   0.000000  -0.000064  -0.000287
     7  H    0.000000   0.000000   0.000000   0.000000   0.000067   0.000497
     8  H   -0.000002   0.000000   0.000000   0.000000   0.000180  -0.001849
     9  H   -0.000002   0.000000   0.000000   0.000000  -0.000004  -0.000002
    10  H    0.000000   0.000000   0.000000   0.000000   0.000000   0.000002
    11  C   -0.000013  -0.000015  -0.000002  -0.000283  -0.001478  -0.001064
    12  H   -0.000088   0.000021  -0.000024  -0.000022  -0.000231  -0.000013
    13  H   -0.000045  -0.000013   0.000004  -0.000010   0.000050  -0.000026
    14  C    0.010964  -0.000241  -0.000565   0.000787   0.010169   0.000206
    15  H    0.001358   0.000126  -0.000150  -0.000215  -0.000594  -0.000157
    16  C   -0.003130  -0.000194   0.000626   0.000109  -0.049848   0.005233
    17  O    0.000000   0.000000   0.000000   0.000000   0.000001  -0.000006
    18  H    0.000000   0.000000   0.000000   0.000000   0.000000  -0.000002
    19  O   -0.000013   0.000001  -0.000005   0.000001   0.008182   0.003758
    20  N   -0.067591   0.000147  -0.001405   0.013666  -0.001661  -0.000141
    21  H   -0.000703  -0.000425   0.000404  -0.000692   0.000101   0.000005
    22  N   -0.000152   0.000009   0.000252   0.000046   0.285007  -0.061663
    23  H    0.000542   0.000100  -0.000414   0.000035  -0.034333   0.000685
    24  C    0.272038  -0.026996  -0.022507  -0.058178  -0.000066   0.000198
    25  C    5.005582   0.390639   0.382125   0.394297  -0.000047  -0.000001
    26  H    0.390639   0.560627  -0.022803  -0.025089  -0.000002   0.000000
    27  H    0.382125  -0.022803   0.570768  -0.027257   0.000021   0.000003
    28  H    0.394297  -0.025089  -0.027257   0.601904   0.000000   0.000000
    29  C   -0.000047  -0.000002   0.000021   0.000000   4.793126   0.389583
    30  H   -0.000001   0.000000   0.000003   0.000000   0.389583   0.626819
    31  H   -0.000009   0.000000   0.000008   0.000001   0.391588  -0.030131
    32  H   -0.000007  -0.000001  -0.000005  -0.000001   0.406504  -0.053132
    33  O   -0.068583   0.001691   0.001437   0.004528   0.000160   0.000005
              31         32         33
     1  C    0.000008  -0.000035   0.000000
     2  C   -0.000202   0.000412   0.000006
     3  C    0.000141  -0.000222   0.000069
     4  C    0.000009  -0.000012  -0.000020
     5  C    0.000000  -0.000008   0.000000
     6  C   -0.000004   0.000010   0.000000
     7  H    0.000002  -0.000015   0.000000
     8  H    0.000030   0.000197   0.000002
     9  H    0.000000   0.000000  -0.000007
    10  H    0.000000   0.000000   0.000000
    11  C   -0.000112   0.000257   0.001883
    12  H    0.000034  -0.000016  -0.000025
    13  H    0.000001   0.000011  -0.000024
    14  C    0.000554   0.000554   0.016152
    15  H   -0.000007   0.000044   0.010826
    16  C    0.010361  -0.009297   0.000372
    17  O    0.000000   0.000000   0.000000
    18  H    0.000000   0.000000   0.000000
    19  O    0.001612   0.006070  -0.000956
    20  N   -0.000161  -0.000137  -0.135683
    21  H    0.000035   0.000009   0.004930
    22  N   -0.030771  -0.040351  -0.004411
    23  H   -0.008114   0.003643  -0.001989
    24  C   -0.000067  -0.000457   0.725825
    25  C   -0.000009  -0.000007  -0.068583
    26  H    0.000000  -0.000001   0.001691
    27  H    0.000008  -0.000005   0.001437
    28  H    0.000001  -0.000001   0.004528
    29  C    0.391588   0.406504   0.000160
    30  H   -0.030131  -0.053132   0.000005
    31  H    0.605103  -0.025726   0.000005
    32  H   -0.025726   0.583457   0.000290
    33  O    0.000005   0.000290   7.820382
 Mulliken charges:
               1
     1  C   -0.249263
     2  C   -0.284581
     3  C    0.204252
     4  C   -0.180022
     5  C   -0.156846
     6  C    0.298420
     7  H    0.117865
     8  H    0.170152
     9  H    0.148291
    10  H    0.118275
    11  C   -0.479438
    12  H    0.192183
    13  H    0.196422
    14  C   -0.052517
    15  H    0.212946
    16  C    0.229357
    17  O   -0.293827
    18  H    0.187456
    19  O   -0.368136
    20  N   -0.235861
    21  H    0.154950
    22  N   -0.124027
    23  H    0.132636
    24  C    0.278967
    25  C   -0.317174
    26  H    0.122421
    27  H    0.119488
    28  H    0.096380
    29  C   -0.195340
    30  H    0.119655
    31  H    0.085814
    32  H    0.127966
    33  O   -0.376864
 Sum of Mulliken charges =   0.00000
 Mulliken charges with hydrogens summed into heavy atoms:
               1
     1  C   -0.131397
     2  C   -0.114429
     3  C    0.204252
     4  C   -0.031731
     5  C   -0.038571
     6  C    0.298420
    11  C   -0.090833
    14  C    0.160429
    16  C    0.229357
    17  O   -0.106371
    19  O   -0.368136
    20  N   -0.080911
    22  N    0.008609
    24  C    0.278967
    25  C    0.021115
    29  C    0.138095
    33  O   -0.376864
 Electronic spatial extent (au):  <R**2>=           4860.1069
 Charge=              0.0000 electrons
 Dipole moment (field-independent basis, Debye):
    X=             -0.9423    Y=             -0.0716    Z=             -6.9087  Tot=              6.9731
 Quadrupole moment (field-independent basis, Debye-Ang):
   XX=            -92.6461   YY=            -90.0802   ZZ=           -105.4368
   XY=              9.2082   XZ=              9.5592   YZ=             -6.5287
 Traceless Quadrupole moment (field-independent basis, Debye-Ang):
   XX=              3.4082   YY=              5.9742   ZZ=             -9.3824
   XY=              9.2082   XZ=              9.5592   YZ=             -6.5287
 Octapole moment (field-independent basis, Debye-Ang**2):
  XXX=            -15.3812  YYY=             22.8803  ZZZ=             -9.2464  XYY=             -4.0169
  XXY=             27.9254  XXZ=            -58.9836  XZZ=              3.2449  YZZ=             -1.7934
  YYZ=              2.1744  XYZ=            -11.7566
 Hexadecapole moment (field-independent basis, Debye-Ang**3):
 XXXX=          -4465.4422 YYYY=           -961.4320 ZZZZ=           -525.4872 XXXY=            288.9560
 XXXZ=             16.1757 YYYX=             13.9522 YYYZ=            -13.9706 ZZZX=             43.4871
 ZZZY=            -12.4592 XXYY=           -889.4230 XXZZ=           -933.3284 YYZZ=           -243.6379
 XXYZ=            -48.3764 YYXZ=             12.9041 ZZXY=              5.7265
 N-N= 1.229653576222D+03 E-N=-4.329953287256D+03  KE= 7.961868059800D+02
 Calculating spin-rotation constants.
 Leave Link  601 at Wed Jun 25 06:44:36 2014, MaxMem=  4294967296 cpu:        93.7
 (Enter /home/ztw1e12/g09/l9999.exe)

 Test job not archived.
 1\1\GINC-GREEN0705\SP\RM06\Gen\C12H16N2O3\ROOT\25-Jun-2014\0\\#P Geom=
 AllCheck Guess=TCheck SCRF=Check GenChk RM06/ChkBas NMR=ReadFC IOp(3/6
 =22)\\NMR spin-spin scan\\0,1\C,0,2.493215,-0.902114,1.988195\C,0,1.94
 0571,-0.155863,0.96058\C,0,1.399581,-0.767386,-0.161649\C,0,1.438382,-
 2.156308,-0.235217\C,0,1.986339,-2.915725,0.779626\C,0,2.511344,-2.284
 819,1.899249\H,0,2.915848,-0.417499,2.860939\H,0,1.930668,0.925663,1.0
 38432\H,0,1.019304,-2.651239,-1.104895\H,0,2.013859,-3.996294,0.720118
 \C,0,0.715467,0.029083,-1.228513\H,0,1.048101,1.070408,-1.16356\H,0,0.
 975876,-0.334744,-2.224493\C,0,-0.816172,0.02096,-1.108616\H,0,-1.2139
 32,-0.928505,-1.477673\C,0,-1.228209,0.089374,0.355783\O,0,3.038,-3.06
 8539,2.880926\H,0,3.356351,-2.508023,3.597463\O,0,-1.475629,-0.93806,0
 .983609\N,0,-1.347621,1.118973,-1.885076\H,0,-0.704982,1.730292,-2.365
 564\N,0,-1.241229,1.299264,0.919135\H,0,-1.011905,2.101991,0.355323\C,
 0,-2.672159,1.284019,-2.062551\C,0,-3.092446,2.425443,-2.926276\H,0,-3
 .70671,2.039934,-3.739698\H,0,-3.71625,3.098834,-2.338685\H,0,-2.25463
 3,2.982934,-3.33917\C,0,-1.445491,1.466086,2.339589\H,0,-0.673416,0.94
 4843,2.909249\H,0,-1.40602,2.524289,2.579673\H,0,-2.416635,1.07542,2.6
 43996\O,0,-3.488623,0.53484,-1.531379\\Version=EM64L-G09RevD.01\State=
 1-A\HF=-801.8585539\RMSD=4.922e-09\Dipole=1.4760958,2.2520873,-0.52492
 03\Quadrupole=-12.5006093,2.9978262,9.502783,-3.2956539,4.4282976,-0.3
 073142\PG=C01 [X(C12H16N2O3)]\\@


 THERE ARE TWO THINGS THAT EVERYBODY THINKS THEY CAN DO BETTER THAN
 ANYONE ELSE - PUNCH THE FIRE, AND EDIT A DAILY PAPER.
 -- UNCLE ESEK, "CENTURY MAGAZINE", 1885
 Job cpu time:       3 days  9 hours 28 minutes 54.8 seconds.
 File lengths (MBytes):  RWF=   3656 Int=      0 D2E=      0 Chk=     64 Scr=      8
 Normal termination of Gaussian 09 at Wed Jun 25 06:44:37 2014.
