 Entering Gaussian System, Link 0=g09
 Input=scan_input_32.gjf
 Output=scan_input_32.log
 Initial command:
 /home/ztw1e12/g09/l1.exe "/home/ztw1e12/tyrosine_scan/tyrosine_chi1_scan/Gau-3918.inp" -scrdir="/home/ztw1e12/tyrosine_scan/tyrosine_chi1_scan/"
 Default is to use a total of   8 processors:
                                8 via shared-memory
                                1 via Linda
 Entering Link 1 = /home/ztw1e12/g09/l1.exe PID=      3919.
  
 Copyright (c) 1988,1990,1992,1993,1995,1998,2003,2009,2013,
            Gaussian, Inc.  All Rights Reserved.
  
 This is part of the Gaussian(R) 09 program.  It is based on
 the Gaussian(R) 03 system (copyright 2003, Gaussian, Inc.),
 the Gaussian(R) 98 system (copyright 1998, Gaussian, Inc.),
 the Gaussian(R) 94 system (copyright 1995, Gaussian, Inc.),
 the Gaussian 92(TM) system (copyright 1992, Gaussian, Inc.),
 the Gaussian 90(TM) system (copyright 1990, Gaussian, Inc.),
 the Gaussian 88(TM) system (copyright 1988, Gaussian, Inc.),
 the Gaussian 86(TM) system (copyright 1986, Carnegie Mellon
 University), and the Gaussian 82(TM) system (copyright 1983,
 Carnegie Mellon University). Gaussian is a federally registered
 trademark of Gaussian, Inc.
  
 This software contains proprietary and confidential information,
 including trade secrets, belonging to Gaussian, Inc.
  
 This software is provided under written license and may be
 used, copied, transmitted, or stored only in accord with that
 written license.
  
 The following legend is applicable only to US Government
 contracts under FAR:
  
                    RESTRICTED RIGHTS LEGEND
  
 Use, reproduction and disclosure by the US Government is
 subject to restrictions as set forth in subparagraphs (a)
 and (c) of the Commercial Computer Software - Restricted
 Rights clause in FAR 52.227-19.
  
 Gaussian, Inc.
 340 Quinnipiac St., Bldg. 40, Wallingford CT 06492
  
  
 ---------------------------------------------------------------
 Warning -- This program may not be used in any manner that
 competes with the business of Gaussian, Inc. or will provide
 assistance to any competitor of Gaussian, Inc.  The licensee
 of this program is prohibited from giving any competitor of
 Gaussian, Inc. access to this program.  By using this program,
 the user acknowledges that Gaussian, Inc. is engaged in the
 business of creating and licensing software in the field of
 computational chemistry and represents and warrants to the
 licensee that it is not a competitor of Gaussian, Inc. and that
 it will not use this program in any manner prohibited above.
 ---------------------------------------------------------------
  

 Cite this work as:
 Gaussian 09, Revision D.01,
 M. J. Frisch, G. W. Trucks, H. B. Schlegel, G. E. Scuseria, 
 M. A. Robb, J. R. Cheeseman, G. Scalmani, V. Barone, B. Mennucci, 
 G. A. Petersson, H. Nakatsuji, M. Caricato, X. Li, H. P. Hratchian, 
 A. F. Izmaylov, J. Bloino, G. Zheng, J. L. Sonnenberg, M. Hada, 
 M. Ehara, K. Toyota, R. Fukuda, J. Hasegawa, M. Ishida, T. Nakajima, 
 Y. Honda, O. Kitao, H. Nakai, T. Vreven, J. A. Montgomery, Jr., 
 J. E. Peralta, F. Ogliaro, M. Bearpark, J. J. Heyd, E. Brothers, 
 K. N. Kudin, V. N. Staroverov, T. Keith, R. Kobayashi, J. Normand, 
 K. Raghavachari, A. Rendell, J. C. Burant, S. S. Iyengar, J. Tomasi, 
 M. Cossi, N. Rega, J. M. Millam, M. Klene, J. E. Knox, J. B. Cross, 
 V. Bakken, C. Adamo, J. Jaramillo, R. Gomperts, R. E. Stratmann, 
 O. Yazyev, A. J. Austin, R. Cammi, C. Pomelli, J. W. Ochterski, 
 R. L. Martin, K. Morokuma, V. G. Zakrzewski, G. A. Voth, 
 P. Salvador, J. J. Dannenberg, S. Dapprich, A. D. Daniels, 
 O. Farkas, J. B. Foresman, J. V. Ortiz, J. Cioslowski, 
 and D. J. Fox, Gaussian, Inc., Wallingford CT, 2013.
 
 ******************************************
 Gaussian 09:  EM64L-G09RevD.01 24-Apr-2013
                25-Jun-2014 
 ******************************************
 %Mem=32GB
 %NProcShared=16
 Will use up to   16 processors via shared memory.
 Default route:  MaxDisk=100GB
 ----------------------------------------------------------------------
 #p nmr=(giao,mixed,spinspin) m06/cc-pvtz scf=tight integral=(grid=ultr
 afine)
 ----------------------------------------------------------------------
 1/38=1/1;
 2/12=2,17=6,18=5,40=1/2;
 3/5=16,6=1,10=1100000,11=2,16=1,25=1,30=1,74=-54,75=-5/1,2,8,3;
 4//1;
 5/5=2,32=2,38=5/2;
 8/6=1,10=90,11=11/1;
 10/13=100,45=16,47=3/2;
 6/7=2,8=2,9=2,10=2,28=1/1;
 99/9=1/99;
 Leave Link    1 at Wed Jun 25 02:01:32 2014, MaxMem=  4294967296 cpu:         6.0
 (Enter /home/ztw1e12/g09/l101.exe)
 ------------------
 NMR spin-spin scan
 ------------------
 Symbolic Z-matrix:
 Charge =  0 Multiplicity = 1
 C                     2.20175  -2.69385   1.40325 
 C                     1.57012  -1.46698   1.47787 
 C                     1.51691  -0.6162    0.37995 
 C                     2.10962  -1.03381  -0.80444 
 C                     2.74488  -2.26009  -0.89694 
 C                     2.79257  -3.09071   0.21131 
 H                     2.24653  -3.35022   2.2648 
 H                     1.10749  -1.15763   2.40989 
 H                     2.07769  -0.38255  -1.67127 
 H                     3.20946  -2.58239  -1.82018 
 C                     0.80539   0.69782   0.47957 
 H                     1.06081   1.1669    1.43301 
 H                     1.12833   1.38343  -0.30789 
 C                    -0.71989   0.55413   0.42328 
 H                    -1.01532  -0.39014   0.88972 
 C                    -1.34891   1.63216   1.28928 
 O                     3.43358  -4.28667   0.08322 
 H                     3.40251  -4.75685   0.92394 
 O                    -1.40658   1.46555   2.50694 
 N                    -1.16717   0.58089  -0.95205 
 H                    -0.48084   0.70915  -1.6812 
 N                    -1.74657   2.75462   0.68987 
 H                    -1.74674   2.7872   -0.31697 
 C                    -2.42505   0.22783  -1.28874 
 C                    -2.74067   0.18955  -2.74667 
 H                    -3.07088  -0.81633  -3.00558 
 H                    -3.57278   0.86525  -2.94291 
 H                    -1.89689   0.46423  -3.37619 
 C                    -2.36325   3.83072   1.43194 
 H                    -1.69402   4.19544   2.21063 
 H                    -2.58363   4.64745   0.75152 
 H                    -3.29168   3.50589   1.90323 
 O                    -3.26594  -0.03622  -0.43331 
 
 NAtoms=     33 NQM=       33 NQMF=       0 NMMI=      0 NMMIF=      0
                NMic=       0 NMicF=      0.
                    Isotopes and Nuclear Properties:
 (Nuclear quadrupole moments (NQMom) in fm**2, nuclear magnetic moments (NMagM)
  in nuclear magnetons)

  Atom         1           2           3           4           5           6           7           8           9          10
 IAtWgt=          12          12          12          12          12          12           1           1           1           1
 AtmWgt=  12.0000000  12.0000000  12.0000000  12.0000000  12.0000000  12.0000000   1.0078250   1.0078250   1.0078250   1.0078250
 NucSpn=           0           0           0           0           0           0           1           1           1           1
 AtZEff=   0.0000000   0.0000000   0.0000000   0.0000000   0.0000000   0.0000000   0.0000000   0.0000000   0.0000000   0.0000000
 NQMom=    0.0000000   0.0000000   0.0000000   0.0000000   0.0000000   0.0000000   0.0000000   0.0000000   0.0000000   0.0000000
 NMagM=    0.0000000   0.0000000   0.0000000   0.0000000   0.0000000   0.0000000   2.7928460   2.7928460   2.7928460   2.7928460
 AtZNuc=   6.0000000   6.0000000   6.0000000   6.0000000   6.0000000   6.0000000   1.0000000   1.0000000   1.0000000   1.0000000

  Atom        11          12          13          14          15          16          17          18          19          20
 IAtWgt=          12           1           1          12           1          12          16           1          16          14
 AtmWgt=  12.0000000   1.0078250   1.0078250  12.0000000   1.0078250  12.0000000  15.9949146   1.0078250  15.9949146  14.0030740
 NucSpn=           0           1           1           0           1           0           0           1           0           2
 AtZEff=   0.0000000   0.0000000   0.0000000   0.0000000   0.0000000   0.0000000   0.0000000   0.0000000   0.0000000   0.0000000
 NQMom=    0.0000000   0.0000000   0.0000000   0.0000000   0.0000000   0.0000000   0.0000000   0.0000000   0.0000000   2.0440000
 NMagM=    0.0000000   2.7928460   2.7928460   0.0000000   2.7928460   0.0000000   0.0000000   2.7928460   0.0000000   0.4037610
 AtZNuc=   6.0000000   1.0000000   1.0000000   6.0000000   1.0000000   6.0000000   8.0000000   1.0000000   8.0000000   7.0000000

  Atom        21          22          23          24          25          26          27          28          29          30
 IAtWgt=           1          14           1          12          12           1           1           1          12           1
 AtmWgt=   1.0078250  14.0030740   1.0078250  12.0000000  12.0000000   1.0078250   1.0078250   1.0078250  12.0000000   1.0078250
 NucSpn=           1           2           1           0           0           1           1           1           0           1
 AtZEff=   0.0000000   0.0000000   0.0000000   0.0000000   0.0000000   0.0000000   0.0000000   0.0000000   0.0000000   0.0000000
 NQMom=    0.0000000   2.0440000   0.0000000   0.0000000   0.0000000   0.0000000   0.0000000   0.0000000   0.0000000   0.0000000
 NMagM=    2.7928460   0.4037610   2.7928460   0.0000000   0.0000000   2.7928460   2.7928460   2.7928460   0.0000000   2.7928460
 AtZNuc=   1.0000000   7.0000000   1.0000000   6.0000000   6.0000000   1.0000000   1.0000000   1.0000000   6.0000000   1.0000000

  Atom        31          32          33
 IAtWgt=           1           1          16
 AtmWgt=   1.0078250   1.0078250  15.9949146
 NucSpn=           1           1           0
 AtZEff=   0.0000000   0.0000000   0.0000000
 NQMom=    0.0000000   0.0000000   0.0000000
 NMagM=    2.7928460   2.7928460   0.0000000
 AtZNuc=   1.0000000   1.0000000   8.0000000
 Leave Link  101 at Wed Jun 25 02:01:33 2014, MaxMem=  4294967296 cpu:         1.8
 (Enter /home/ztw1e12/g09/l202.exe)
                          Input orientation:                          
 ---------------------------------------------------------------------
 Center     Atomic      Atomic             Coordinates (Angstroms)
 Number     Number       Type             X           Y           Z
 ---------------------------------------------------------------------
      1          6           0        2.201753   -2.693854    1.403248
      2          6           0        1.570120   -1.466983    1.477871
      3          6           0        1.516913   -0.616196    0.379946
      4          6           0        2.109620   -1.033811   -0.804439
      5          6           0        2.744881   -2.260094   -0.896936
      6          6           0        2.792567   -3.090711    0.211311
      7          1           0        2.246529   -3.350222    2.264797
      8          1           0        1.107485   -1.157634    2.409890
      9          1           0        2.077690   -0.382549   -1.671272
     10          1           0        3.209457   -2.582389   -1.820181
     11          6           0        0.805394    0.697817    0.479572
     12          1           0        1.060811    1.166896    1.433011
     13          1           0        1.128333    1.383428   -0.307890
     14          6           0       -0.719888    0.554127    0.423281
     15          1           0       -1.015320   -0.390137    0.889720
     16          6           0       -1.348912    1.632163    1.289283
     17          8           0        3.433581   -4.286675    0.083221
     18          1           0        3.402511   -4.756846    0.923939
     19          8           0       -1.406580    1.465545    2.506938
     20          7           0       -1.167171    0.580886   -0.952054
     21          1           0       -0.480835    0.709149   -1.681203
     22          7           0       -1.746574    2.754622    0.689871
     23          1           0       -1.746738    2.787195   -0.316969
     24          6           0       -2.425047    0.227833   -1.288741
     25          6           0       -2.740673    0.189548   -2.746666
     26          1           0       -3.070882   -0.816334   -3.005584
     27          1           0       -3.572777    0.865253   -2.942909
     28          1           0       -1.896891    0.464231   -3.376191
     29          6           0       -2.363245    3.830715    1.431936
     30          1           0       -1.694019    4.195444    2.210633
     31          1           0       -2.583627    4.647454    0.751521
     32          1           0       -3.291682    3.505887    1.903229
     33          8           0       -3.265940   -0.036223   -0.433312
 ---------------------------------------------------------------------
                    Distance matrix (angstroms):
                    1          2          3          4          5
     1  C    0.000000
     2  C    1.381934   0.000000
     3  C    2.415122   1.390003   0.000000
     4  C    2.763714   2.384877   1.388694   0.000000
     5  C    2.402911   2.765646   2.416761   1.384154   0.000000
     6  C    1.388262   2.394795   2.789078   2.393533   1.385789
     7  H    1.084016   2.150203   3.399985   3.847689   3.381315
     8  H    2.137925   1.085536   2.140434   3.369201   3.851179
     9  H    3.848402   3.369084   2.139289   1.084694   2.137736
    10  H    3.379110   3.848208   3.401644   2.153942   1.082629
    11  C    3.782384   2.503551   1.497603   2.519568   3.795474
    12  H    4.025919   2.683044   2.120470   3.308972   4.473143
    13  H    4.550215   3.392486   2.150025   2.655660   4.029324
    14  C    4.477243   3.231282   2.524839   3.469144   4.654829
    15  H    3.990035   2.861821   2.592909   3.612443   4.563769
    16  C    5.597735   4.261575   3.754326   4.842782   6.057092
    17  O    2.407686   3.656255   4.151395   3.622421   2.354155
    18  H    2.434644   3.806271   4.582182   4.303469   3.159404
    19  O    5.615941   4.303422   4.171876   5.438351   6.534629
    20  N    5.255570   4.194170   3.226691   3.656008   4.835117
    21  H    5.318886   4.349910   3.161625   3.243005   4.453844
    22  N    6.766394   5.426173   4.702001   5.608513   6.916538
    23  H    6.970769   5.685159   4.766569   5.450616   6.781307
    24  C    6.098388   5.146640   4.363021   4.731754   5.750778
    25  C    7.068477   6.258893   5.343404   5.366022   6.285980
    26  H    7.124855   6.485647   5.705237   5.632933   6.352475
    27  H    8.056148   7.171611   6.256277   6.361535   7.339387
    28  H    7.043821   6.269902   5.189407   4.991009   5.925766
    29  C    7.963042   6.598415   5.994775   6.976497   8.283390
    30  H    7.955585   6.576825   6.067403   7.134664   8.428214
    31  H    8.787458   7.427485   6.682702   7.531557   8.878323
    32  H    8.298470   6.967602   6.514180   7.557406   8.804973
    33  O    6.350718   5.393252   4.886045   5.479924   6.425770
                    6          7          8          9         10
     6  C    0.000000
     7  H    2.140633   0.000000
     8  H    3.377875   2.475059   0.000000
     9  H    3.374805   4.932365   4.265904   0.000000
    10  H    2.135216   4.266596   4.933732   2.478380   0.000000
    11  C    4.286463   4.653012   2.694454   2.722509   4.672059
    12  H    4.755917   4.743643   2.521886   3.615439   5.408981
    13  H    4.801788   5.502411   3.720720   2.424616   4.727135
    14  C    5.066272   5.237819   3.196253   3.618143   5.505507
    15  H    4.717345   4.614390   2.721446   4.015650   5.477068
    16  C    6.373336   6.221172   3.882346   4.956365   6.943338
    17  O    1.362951   2.654300   4.540375   4.489865   2.564715
    18  H    1.912035   2.261147   4.519903   5.255925   3.506526
    19  O    6.607738   6.049417   3.634695   5.745696   7.511160
    20  N    5.523909   6.120056   4.415787   3.460434   5.469445
    21  H    5.360570   6.283942   4.769138   2.781718   4.946897
    22  N    7.416248   7.462867   5.139053   5.481043   7.703654
    23  H    7.445411   7.763993   5.580683   5.148559   7.460291
    24  C    6.362891   6.874135   5.298884   4.559993   6.318814
    25  C    7.080005   7.906764   6.573682   4.969949   6.629182
    26  H    7.064081   7.903946   6.848547   5.336324   6.630746
    27  H    8.131197   8.874388   7.392522   5.924681   7.690608
    28  H    6.891937   7.971118   6.718293   4.406935   6.146369
    29  C    8.716562   8.573770   6.155159   6.863191   9.097207
    30  H    8.787195   8.512810   6.045128   7.088935   9.286041
    31  H    9.437928   9.464842   7.076266   7.273151   9.614786
    32  H    9.132129   8.820926   6.431003   7.531743   9.653792
    33  O    6.815493   6.974933   5.335561   5.496078   7.094867
                   11         12         13         14         15
    11  C    0.000000
    12  H    1.092849   0.000000
    13  H    1.092908   1.755614   0.000000
    14  C    1.533069   2.136804   2.153665   0.000000
    15  H    2.160293   2.651384   3.029035   1.093837   0.000000
    16  C    2.483882   2.458434   2.957968   1.519142   2.088213
    17  O    5.648860   6.098640   6.133287   6.387512   5.968766
    18  H    6.057708   6.390104   6.662751   6.741755   6.211807
    19  O    3.097168   2.707495   3.788903   2.375680   2.492395
    20  N    2.440131   3.315999   2.515623   1.446487   2.087601
    21  H    2.514649   3.504930   2.220374   2.123683   2.846708
    22  N    3.284389   3.309765   3.337782   2.442812   3.234839
    23  H    3.393134   3.683766   3.199481   2.566902   3.476566
    24  C    3.712622   4.521170   3.863156   2.438248   2.667379
    25  C    4.820948   5.733776   4.726752   3.776911   4.066470
    26  H    5.428119   6.380064   5.454348   4.377494   4.424971
    27  H    5.559658   6.380423   5.414080   4.423461   4.775525
    28  H    4.714214   5.689478   4.405834   3.978618   4.439044
    29  C    4.556569   4.338213   4.605141   3.801846   4.463910
    30  H    4.634332   4.167240   4.713392   4.171660   4.820062
    31  H    5.211435   5.085336   5.055182   4.509611   5.277879
    32  H    5.167019   4.963485   5.378700   4.185362   4.624719
    33  O    4.236500   4.863274   4.619608   2.750390   2.634570
                   16         17         18         19         20
    16  C    0.000000
    17  O    7.704510   0.000000
    18  H    7.970504   0.963760   0.000000
    19  O    1.230354   7.898709   8.021932   0.000000
    20  N    2.482298   6.777305   7.272739   3.578347   0.000000
    21  H    3.229443   6.587420   7.193347   4.355418   1.009538
    22  N    1.333171   8.762528   9.109886   2.253674   2.785095
    23  H    2.018021   8.776987   9.217764   3.136386   2.367917
    24  C    3.126726   7.522405   7.981442   4.120241   1.349169
    25  C    4.506331   8.134264   8.699360   5.568512   2.418612
    26  H    5.235093   7.993249   8.536604   6.193930   3.129429
    27  H    4.842022   9.208088   9.757825   5.895218   3.135492
    28  H    4.840557   7.934266   8.592696   5.987841   2.534273
    29  C    2.425459  10.065498  10.356071   2.768550   4.204211
    30  H    2.745614  10.137283  10.381411   2.760936   4.831686
    31  H    3.302376  10.792223  11.149190   3.819879   4.630928
    32  H    2.768055  10.453019  10.679138   2.842722   4.606715
    33  O    3.070153   7.950895   8.282189   3.789142   2.248277
                   21         22         23         24         25
    21  H    0.000000
    22  N    3.377580   0.000000
    23  H    2.789609   1.007367   0.000000
    24  C    2.040993   3.280228   2.820422   0.000000
    25  C    2.551875   4.402002   3.693116   1.492190   0.000000
    26  H    3.284726   5.306779   4.686942   2.110672   1.089897
    27  H    3.343109   4.483506   3.731466   2.111838   1.089718
    28  H    2.222202   4.669191   3.844158   2.166167   1.087989
    29  C    4.793670   1.445310   2.127835   4.515159   5.555292
    30  H    5.363996   2.095578   2.893910   5.340595   6.458909
    31  H    5.084302   2.070573   2.302741   4.870407   5.668765
    32  H    5.345162   2.103330   2.798687   4.656755   5.737878
    33  O    3.141595   3.370286   3.208302   1.228245   2.382957
                   26         27         28         29         30
    26  H    0.000000
    27  H    1.756007   0.000000
    28  H    1.776359   1.776836   0.000000
    29  C    6.464317   5.421826   5.888021   0.000000
    30  H    7.363599   6.417079   6.721288   1.089614   0.000000
    31  H    6.648777   5.378873   5.916838   1.085631   1.767689
    32  H    6.544218   5.526031   6.250551   1.090700   1.767063
    33  O    2.695033   2.684192   3.284096   4.387165   5.231480
                   31         32         33
    31  H    0.000000
    32  H    1.769449   0.000000
    33  O    4.879161   4.243422   0.000000
 Stoichiometry    C12H16N2O3
 Framework group  C1[X(C12H16N2O3)]
 Deg. of freedom    93
 Full point group                 C1      NOp   1
 Largest Abelian subgroup         C1      NOp   1
 Largest concise Abelian subgroup C1      NOp   1
                         Standard orientation:                         
 ---------------------------------------------------------------------
 Center     Atomic      Atomic             Coordinates (Angstroms)
 Number     Number       Type             X           Y           Z
 ---------------------------------------------------------------------
      1          6           0       -3.406781   -0.988721    0.834675
      2          6           0       -2.098941   -1.257594    0.478298
      3          6           0       -1.480449   -0.573297   -0.561564
      4          6           0       -2.209063    0.399558   -1.233239
      5          6           0       -3.519286    0.682580   -0.888137
      6          6           0       -4.119677   -0.015759    0.147365
      7          1           0       -3.886465   -1.530608    1.641739
      8          1           0       -1.541704   -2.017828    1.016738
      9          1           0       -1.742215    0.943375   -2.047411
     10          1           0       -4.086831    1.438936   -1.415303
     11          6           0       -0.054348   -0.866365   -0.912509
     12          1           0        0.098288   -1.948403   -0.897817
     13          1           0        0.182246   -0.526302   -1.923858
     14          6           0        0.941030   -0.240657    0.071367
     15          1           0        0.501448   -0.220982    1.072796
     16          6           0        2.151722   -1.150160    0.193106
     17          8           0       -5.413319    0.285921    0.452516
     18          1           0       -5.709232   -0.275615    1.177737
     19          8           0        2.089952   -2.136009    0.926630
     20          7           0        1.266694    1.105476   -0.346001
     21          1           0        0.855184    1.460753   -1.196650
     22          7           0        3.211827   -0.875502   -0.567213
     23          1           0        3.224120   -0.007614   -1.078492
     24          6           0        1.921422    1.955588    0.471860
     25          6           0        2.106396    3.350700   -0.024204
     26          1           0        1.641399    4.036872    0.683484
     27          1           0        3.172137    3.577181   -0.043900
     28          1           0        1.684630    3.514221   -1.013696
     29          6           0        4.411003   -1.680402   -0.512124
     30          1           0        4.191932   -2.716997   -0.766562
     31          1           0        5.130274   -1.291131   -1.226064
     32          1           0        4.857072   -1.659270    0.482965
     33          8           0        2.350854    1.590185    1.563031
 ---------------------------------------------------------------------
 Rotational constants (GHZ):      0.7908787      0.2372092      0.2037585
 Leave Link  202 at Wed Jun 25 02:01:33 2014, MaxMem=  4294967296 cpu:         1.6
 (Enter /home/ztw1e12/g09/l301.exe)
 Standard basis: CC-pVTZ (5D, 7F)
 Converting basis for Fermi contact spin-spin IFCMod=1.
 AO basis functions are being uncontracted.
 Ernie: Thresh=  0.10000D-02 Tol=  0.10000D-05 Strict=F.
 There are  1305 symmetry adapted cartesian basis functions of A   symmetry.
 There are  1204 symmetry adapted basis functions of A   symmetry.
  1204 basis functions,  1305 primitive gaussians,  1305 cartesian basis functions
    63 alpha electrons       63 beta electrons
       nuclear repulsion energy      1196.0941693190 Hartrees.
 IExCor= 4235 DFT=T Ex+Corr=M06 ExCW=0 ScaHFX=  0.270000
 ScaDFX=  1.000000  1.000000  1.000000  1.000000 ScalE2=  1.000000  1.000000
 IRadAn= 199590 IRanWt=     -1 IRanGd=            0 ICorTp=0 IEmpDi=  4
 NAtoms=   33 NActive=   33 NUniq=   33 SFac= 1.00D+00 NAtFMM=   60 NAOKFM=F Big=F
 Integral buffers will be    131072 words long.
 Raffenetti 2 integral format.
 Two-electron integral symmetry is turned on.
 Leave Link  301 at Wed Jun 25 02:01:33 2014, MaxMem=  4294967296 cpu:         5.7
 (Enter /home/ztw1e12/g09/l302.exe)
 NPDir=0 NMtPBC=     1 NCelOv=     1 NCel=       1 NClECP=     1 NCelD=      1
         NCelK=      1 NCelE2=     1 NClLst=     1 CellRange=     0.0.
 One-electron integrals computed using PRISM.
 GSVD:  received Info=                   1 from GESDD.
 NBasis=  1204 RedAO= T EigKep=  2.61D-05  NBF=  1204
 NBsUse=  1068 1.00D-06 EigRej=  7.08D-15 NBFU=  1068
 Precomputing XC quadrature grid using
 IXCGrd= 4 IRadAn=      199590 IRanWt=          -1 IRanGd=           0 AccXCQ= 0.00D+00.
 Generated NRdTot=       0 NPtTot=           0 NUsed=           0 NTot=          32
 NSgBfM=   982   982   982   982   982 MxSgAt=    33 MxSgA2=    33.
 Leave Link  302 at Wed Jun 25 02:01:40 2014, MaxMem=  4294967296 cpu:        94.0
 (Enter /home/ztw1e12/g09/l308.exe)
 Leave Link  308 at Wed Jun 25 02:01:40 2014, MaxMem=  4294967296 cpu:         7.2
 (Enter /home/ztw1e12/g09/l303.exe)
 DipDrv:  MaxL=1.
 Leave Link  303 at Wed Jun 25 02:01:41 2014, MaxMem=  4294967296 cpu:         4.2
 (Enter /home/ztw1e12/g09/l401.exe)
 ExpMin= 1.03D-01 ExpMax= 1.38D+05 ExpMxC= 1.38D+05 IAcc=4 IRadAn=    199590 AccDes= 0.00D+00
 Harris functional with IExCor= 1009 and IRadAn=  199590 diagonalized for initial guess.
 HarFok:  IExCor= 1009 AccDes= 0.00D+00 IRadAn=    199590 IDoV= 1 UseB2=F ITyADJ=14
 ICtDFT=  3500011 ScaDFX=  1.000000  1.000000  1.000000  1.000000
 FoFCou: FMM=F IPFlag=           0 FMFlag=      100000 FMFlg1=           0
         NFxFlg=           0 DoJE=T BraDBF=F KetDBF=T FulRan=T
         wScrn=  0.000000 ICntrl=     500 IOpCl=  0 I1Cent=   200000004 NGrid=           0
         NMat0=    1 NMatS0=      1 NMatT0=    0 NMatD0=    1 NMtDS0=    0 NMtDT0=    0
 Petite list used in FoFCou.
 Harris En= -801.782085058593    
 JPrj=0 DoOrth=F DoCkMO=F.
 Leave Link  401 at Wed Jun 25 02:02:01 2014, MaxMem=  4294967296 cpu:       293.7
 (Enter /home/ztw1e12/g09/l502.exe)
 Closed shell SCF:
 Using DIIS extrapolation, IDIIS=  1040.
 Integral symmetry usage will be decided dynamically.
 IVT=     5158273 IEndB=     5158273 NGot=  4294967296 MDV=  4291529994
 LenX=  4291529994 LenY=  4289825664
 Requested convergence on RMS density matrix=1.00D-08 within 128 cycles.
 Requested convergence on MAX density matrix=1.00D-06.
 Requested convergence on             energy=1.00D-06.
 No special actions if energy rises.
 Fock matrices will be formed incrementally for  20 cycles.
 Integral accuracy reduced to 1.0D-05 until final iterations.

 Cycle   1  Pass 0  IDiag  1:
 FoFJK:  IHMeth= 1 ICntrl=       0 DoSepK=F KAlg= 0 I1Cent=   0 FoldK=F
 IRaf= 420000000 NMat=   1 IRICut=       1 DoRegI=T DoRafI=F ISym2E= 0.
 FoFCou: FMM=F IPFlag=           0 FMFlag=      100000 FMFlg1=           0
         NFxFlg=           0 DoJE=F BraDBF=F KetDBF=F FulRan=T
         wScrn=  0.000000 ICntrl=       0 IOpCl=  0 I1Cent=           0 NGrid=           0
         NMat0=    1 NMatS0=      1 NMatT0=    0 NMatD0=    1 NMtDS0=    0 NMtDT0=    0
 Symmetry not used in FoFCou.
 E= -801.459403697661    
 DIIS: error= 1.16D-01 at cycle   1 NSaved=   1.
 NSaved= 1 IEnMin= 1 EnMin= -801.459403697661     IErMin= 1 ErrMin= 1.16D-01
 ErrMax= 1.16D-01  0.00D+00 EMaxC= 1.00D-01 BMatC= 1.69D+01 BMatP= 1.69D+01
 IDIUse=3 WtCom= 0.00D+00 WtEn= 1.00D+00
 Coeff-Com:  0.100D+01
 Coeff-En:   0.100D+01
 Coeff:      0.100D+01
 Gap=     0.240 Goal=   None    Shift=    0.000
 GapD=    0.240 DampG=1.000 DampE=0.250 DampFc=0.2500 IDamp=-1.
 Damping current iteration by 2.50D-01
 RMSDP=2.40D-03 MaxDP=3.98D-01              OVMax= 3.09D-01

 Cycle   2  Pass 0  IDiag  1:
 RMSU=  5.96D-04    CP:  1.03D+00
 E= -801.618259461717     Delta-E=       -0.158855764057 Rises=F Damp=T
 DIIS: error= 8.91D-02 at cycle   2 NSaved=   2.
 NSaved= 2 IEnMin= 2 EnMin= -801.618259461717     IErMin= 2 ErrMin= 8.91D-02
 ErrMax= 8.91D-02  0.00D+00 EMaxC= 1.00D-01 BMatC= 1.00D+01 BMatP= 1.69D+01
 IDIUse=3 WtCom= 1.09D-01 WtEn= 8.91D-01
 Coeff-Com: -0.291D+01 0.391D+01
 Coeff-En:   0.000D+00 0.100D+01
 Coeff:     -0.316D+00 0.132D+01
 Gap=     0.262 Goal=   None    Shift=    0.000
 RMSDP=5.86D-04 MaxDP=8.92D-02 DE=-1.59D-01 OVMax= 1.80D-01

 Cycle   3  Pass 0  IDiag  1:
 RMSU=  5.20D-04    CP:  1.07D+00  1.43D+00
 E= -801.875169150530     Delta-E=       -0.256909688813 Rises=F Damp=F
 DIIS: error= 1.14D-02 at cycle   3 NSaved=   3.
 NSaved= 3 IEnMin= 3 EnMin= -801.875169150530     IErMin= 3 ErrMin= 1.14D-02
 ErrMax= 1.14D-02  0.00D+00 EMaxC= 1.00D-01 BMatC= 1.66D-01 BMatP= 1.00D+01
 IDIUse=3 WtCom= 8.86D-01 WtEn= 1.14D-01
 Coeff-Com:  0.171D+00-0.282D+00 0.111D+01
 Coeff-En:   0.000D+00 0.000D+00 0.100D+01
 Coeff:      0.151D+00-0.249D+00 0.110D+01
 Gap=     0.234 Goal=   None    Shift=    0.000
 RMSDP=4.16D-04 MaxDP=5.43D-02 DE=-2.57D-01 OVMax= 1.09D-01

 Cycle   4  Pass 0  IDiag  1:
 RMSU=  3.76D-04    CP:  1.06D+00  1.28D+00  7.05D-01
 E= -801.802904092973     Delta-E=        0.072265057557 Rises=F Damp=F
 DIIS: error= 9.47D-03 at cycle   4 NSaved=   4.
 NSaved= 4 IEnMin= 3 EnMin= -801.875169150530     IErMin= 4 ErrMin= 9.47D-03
 ErrMax= 9.47D-03  0.00D+00 EMaxC= 1.00D-01 BMatC= 1.45D-01 BMatP= 1.66D-01
 IDIUse=3 WtCom= 9.05D-01 WtEn= 9.47D-02
 Coeff-Com:  0.304D+00-0.436D+00 0.616D+00 0.516D+00
 Coeff-En:   0.000D+00 0.000D+00 0.724D+00 0.276D+00
 Coeff:      0.275D+00-0.395D+00 0.627D+00 0.493D+00
 Gap=     0.255 Goal=   None    Shift=    0.000
 RMSDP=3.17D-04 MaxDP=3.71D-02 DE= 7.23D-02 OVMax= 8.71D-02

 Cycle   5  Pass 0  IDiag  1:
 RMSU=  7.70D-05    CP:  1.06D+00  1.26D+00  8.91D-01  2.24D-01
 E= -801.910818193366     Delta-E=       -0.107914100394 Rises=F Damp=F
 DIIS: error= 1.77D-03 at cycle   5 NSaved=   5.
 NSaved= 5 IEnMin= 5 EnMin= -801.910818193366     IErMin= 5 ErrMin= 1.77D-03
 ErrMax= 1.77D-03  0.00D+00 EMaxC= 1.00D-01 BMatC= 7.90D-03 BMatP= 1.45D-01
 IDIUse=3 WtCom= 9.82D-01 WtEn= 1.77D-02
 Coeff-Com:  0.355D-01-0.509D-01 0.264D-01 0.187D+00 0.802D+00
 Coeff-En:   0.000D+00 0.000D+00 0.000D+00 0.000D+00 0.100D+01
 Coeff:      0.349D-01-0.500D-01 0.259D-01 0.184D+00 0.806D+00
 Gap=     0.223 Goal=   None    Shift=    0.000
 RMSDP=8.72D-05 MaxDP=1.23D-02 DE=-1.08D-01 OVMax= 2.36D-02

 Cycle   6  Pass 0  IDiag  1:
 RMSU=  3.46D-05    CP:  1.06D+00  1.28D+00  9.05D-01  3.97D-01  4.14D-01
 E= -801.914703686392     Delta-E=       -0.003885493026 Rises=F Damp=F
 DIIS: error= 1.71D-03 at cycle   6 NSaved=   6.
 NSaved= 6 IEnMin= 6 EnMin= -801.914703686392     IErMin= 6 ErrMin= 1.71D-03
 ErrMax= 1.71D-03  0.00D+00 EMaxC= 1.00D-01 BMatC= 1.56D-03 BMatP= 7.90D-03
 IDIUse=3 WtCom= 9.83D-01 WtEn= 1.71D-02
 Coeff-Com:  0.144D-01-0.197D-01-0.796D-02 0.791D-01 0.426D+00 0.508D+00
 Coeff-En:   0.000D+00 0.000D+00 0.000D+00 0.000D+00 0.183D+00 0.817D+00
 Coeff:      0.141D-01-0.194D-01-0.782D-02 0.777D-01 0.422D+00 0.513D+00
 Gap=     0.223 Goal=   None    Shift=    0.000
 RMSDP=3.49D-05 MaxDP=3.42D-03 DE=-3.89D-03 OVMax= 1.73D-02

 Cycle   7  Pass 0  IDiag  1:
 RMSU=  1.88D-05    CP:  1.06D+00  1.26D+00  9.00D-01  4.00D-01  6.06D-01
                    CP:  3.46D-01
 E= -801.915953837451     Delta-E=       -0.001250151058 Rises=F Damp=F
 DIIS: error= 7.72D-04 at cycle   7 NSaved=   7.
 NSaved= 7 IEnMin= 7 EnMin= -801.915953837451     IErMin= 7 ErrMin= 7.72D-04
 ErrMax= 7.72D-04  0.00D+00 EMaxC= 1.00D-01 BMatC= 1.99D-04 BMatP= 1.56D-03
 IDIUse=3 WtCom= 9.92D-01 WtEn= 7.72D-03
 Coeff-Com:  0.886D-02-0.117D-01-0.372D-02 0.193D-01 0.109D+00 0.283D+00
 Coeff-Com:  0.595D+00
 Coeff-En:   0.000D+00 0.000D+00 0.000D+00 0.000D+00 0.000D+00 0.118D+00
 Coeff-En:   0.882D+00
 Coeff:      0.879D-02-0.116D-01-0.369D-02 0.191D-01 0.109D+00 0.282D+00
 Coeff:      0.597D+00
 Gap=     0.223 Goal=   None    Shift=    0.000
 RMSDP=1.24D-05 MaxDP=1.65D-03 DE=-1.25D-03 OVMax= 6.38D-03

 Cycle   8  Pass 0  IDiag  1:
 RMSU=  6.89D-06    CP:  1.06D+00  1.26D+00  9.06D-01  4.06D-01  5.75D-01
                    CP:  5.90D-01  7.98D-01
 E= -801.916133552160     Delta-E=       -0.000179714709 Rises=F Damp=F
 DIIS: error= 1.88D-04 at cycle   8 NSaved=   8.
 NSaved= 8 IEnMin= 8 EnMin= -801.916133552160     IErMin= 8 ErrMin= 1.88D-04
 ErrMax= 1.88D-04  0.00D+00 EMaxC= 1.00D-01 BMatC= 1.62D-05 BMatP= 1.99D-04
 IDIUse=3 WtCom= 9.98D-01 WtEn= 1.88D-03
 EnCoef did     1 forward-backward iterations
 Coeff-Com:  0.478D-02-0.634D-02-0.103D-02 0.662D-02 0.371D-01 0.129D+00
 Coeff-Com:  0.337D+00 0.493D+00
 Coeff-En:   0.000D+00 0.000D+00 0.000D+00 0.000D+00 0.000D+00 0.000D+00
 Coeff-En:   0.129D-03 0.100D+01
 Coeff:      0.477D-02-0.633D-02-0.103D-02 0.661D-02 0.371D-01 0.129D+00
 Coeff:      0.336D+00 0.494D+00
 Gap=     0.223 Goal=   None    Shift=    0.000
 RMSDP=3.72D-06 MaxDP=5.38D-04 DE=-1.80D-04 OVMax= 1.33D-03

 Initial convergence to 1.0D-05 achieved.  Increase integral accuracy.
 Cycle   9  Pass 1  IDiag  1:
 E= -801.916122582820     Delta-E=        0.000010969340 Rises=F Damp=F
 DIIS: error= 2.61D-04 at cycle   1 NSaved=   1.
 NSaved= 1 IEnMin= 1 EnMin= -801.916122582820     IErMin= 1 ErrMin= 2.61D-04
 ErrMax= 2.61D-04  0.00D+00 EMaxC= 1.00D-01 BMatC= 2.15D-05 BMatP= 2.15D-05
 IDIUse=3 WtCom= 9.97D-01 WtEn= 2.61D-03
 Coeff-Com:  0.100D+01
 Coeff-En:   0.100D+01
 Coeff:      0.100D+01
 Gap=     0.223 Goal=   None    Shift=    0.000
 RMSDP=3.72D-06 MaxDP=5.38D-04 DE= 1.10D-05 OVMax= 6.69D-04

 Cycle  10  Pass 1  IDiag  1:
 RMSU=  1.33D-04    CP:  9.94D-01
 E= -801.916134135516     Delta-E=       -0.000011552696 Rises=F Damp=F
 DIIS: error= 4.87D-05 at cycle   2 NSaved=   2.
 NSaved= 2 IEnMin= 2 EnMin= -801.916134135516     IErMin= 2 ErrMin= 4.87D-05
 ErrMax= 4.87D-05  0.00D+00 EMaxC= 1.00D-01 BMatC= 2.01D-06 BMatP= 2.15D-05
 IDIUse=1 WtCom= 1.00D+00 WtEn= 0.00D+00
 Coeff-Com:  0.120D+00 0.880D+00
 Coeff:      0.120D+00 0.880D+00
 Gap=     0.223 Goal=   None    Shift=    0.000
 RMSDP=3.47D-06 MaxDP=4.92D-04 DE=-1.16D-05 OVMax= 1.00D-03

 Cycle  11  Pass 1  IDiag  1:
 RMSU=  2.76D-06    CP:  9.94D-01  1.01D+00
 E= -801.916132240785     Delta-E=        0.000001894731 Rises=F Damp=F
 DIIS: error= 7.79D-05 at cycle   3 NSaved=   3.
 NSaved= 3 IEnMin= 2 EnMin= -801.916134135516     IErMin= 2 ErrMin= 4.87D-05
 ErrMax= 7.79D-05  0.00D+00 EMaxC= 1.00D-01 BMatC= 3.96D-06 BMatP= 2.01D-06
 IDIUse=1 WtCom= 1.00D+00 WtEn= 0.00D+00
 Coeff-Com: -0.108D-02 0.586D+00 0.416D+00
 Coeff:     -0.108D-02 0.586D+00 0.416D+00
 Gap=     0.223 Goal=   None    Shift=    0.000
 RMSDP=1.67D-06 MaxDP=3.03D-04 DE= 1.89D-06 OVMax= 6.78D-04

 Cycle  12  Pass 1  IDiag  1:
 RMSU=  6.07D-07    CP:  9.94D-01  1.02D+00  4.51D-01
 E= -801.916135836665     Delta-E=       -0.000003595880 Rises=F Damp=F
 DIIS: error= 8.07D-06 at cycle   4 NSaved=   4.
 NSaved= 4 IEnMin= 4 EnMin= -801.916135836665     IErMin= 4 ErrMin= 8.07D-06
 ErrMax= 8.07D-06  0.00D+00 EMaxC= 1.00D-01 BMatC= 4.77D-08 BMatP= 2.01D-06
 IDIUse=1 WtCom= 1.00D+00 WtEn= 0.00D+00
 Coeff-Com: -0.253D-02 0.323D+00 0.239D+00 0.440D+00
 Coeff:     -0.253D-02 0.323D+00 0.239D+00 0.440D+00
 Gap=     0.223 Goal=   None    Shift=    0.000
 RMSDP=1.79D-07 MaxDP=2.05D-05 DE=-3.60D-06 OVMax= 6.53D-05

 Cycle  13  Pass 1  IDiag  1:
 RMSU=  1.60D-07    CP:  9.94D-01  1.02D+00  4.74D-01  9.28D-01
 E= -801.916135874466     Delta-E=       -0.000000037801 Rises=F Damp=F
 DIIS: error= 1.26D-06 at cycle   5 NSaved=   5.
 NSaved= 5 IEnMin= 5 EnMin= -801.916135874466     IErMin= 5 ErrMin= 1.26D-06
 ErrMax= 1.26D-06  0.00D+00 EMaxC= 1.00D-01 BMatC= 2.06D-09 BMatP= 4.77D-08
 IDIUse=1 WtCom= 1.00D+00 WtEn= 0.00D+00
 Coeff-Com: -0.107D-02 0.969D-01 0.737D-01 0.217D+00 0.614D+00
 Coeff:     -0.107D-02 0.969D-01 0.737D-01 0.217D+00 0.614D+00
 Gap=     0.223 Goal=   None    Shift=    0.000
 RMSDP=4.47D-08 MaxDP=4.97D-06 DE=-3.78D-08 OVMax= 7.55D-06

 Cycle  14  Pass 1  IDiag  1:
 RMSU=  2.95D-08    CP:  9.94D-01  1.02D+00  4.77D-01  9.65D-01  8.78D-01
 E= -801.916135875682     Delta-E=       -0.000000001215 Rises=F Damp=F
 DIIS: error= 3.98D-07 at cycle   6 NSaved=   6.
 NSaved= 6 IEnMin= 6 EnMin= -801.916135875682     IErMin= 6 ErrMin= 3.98D-07
 ErrMax= 3.98D-07  0.00D+00 EMaxC= 1.00D-01 BMatC= 1.93D-10 BMatP= 2.06D-09
 IDIUse=1 WtCom= 1.00D+00 WtEn= 0.00D+00
 Coeff-Com: -0.422D-03 0.325D-01 0.250D-01 0.857D-01 0.313D+00 0.544D+00
 Coeff:     -0.422D-03 0.325D-01 0.250D-01 0.857D-01 0.313D+00 0.544D+00
 Gap=     0.223 Goal=   None    Shift=    0.000
 RMSDP=2.04D-08 MaxDP=3.95D-06 DE=-1.22D-09 OVMax= 4.15D-06

 Cycle  15  Pass 1  IDiag  1:
 RMSU=  1.55D-08    CP:  9.94D-01  1.02D+00  4.77D-01  9.76D-01  9.28D-01
                    CP:  8.05D-01
 E= -801.916135875860     Delta-E=       -0.000000000178 Rises=F Damp=F
 DIIS: error= 2.51D-07 at cycle   7 NSaved=   7.
 NSaved= 7 IEnMin= 7 EnMin= -801.916135875860     IErMin= 7 ErrMin= 2.51D-07
 ErrMax= 2.51D-07  0.00D+00 EMaxC= 1.00D-01 BMatC= 6.14D-11 BMatP= 1.93D-10
 IDIUse=1 WtCom= 1.00D+00 WtEn= 0.00D+00
 Coeff-Com: -0.126D-04-0.312D-02-0.220D-02 0.213D-02 0.528D-01 0.370D+00
 Coeff-Com:  0.580D+00
 Coeff:     -0.126D-04-0.312D-02-0.220D-02 0.213D-02 0.528D-01 0.370D+00
 Coeff:      0.580D+00
 Gap=     0.223 Goal=   None    Shift=    0.000
 RMSDP=8.05D-09 MaxDP=6.76D-07 DE=-1.78D-10 OVMax= 1.70D-06

 SCF Done:  E(RM06) =  -801.916135876     A.U. after   15 cycles
            NFock= 15  Conv=0.81D-08     -V/T= 2.0044
 KE= 7.983746025072D+02 PE=-4.264655440959D+03 EE= 1.468270533257D+03
 Leave Link  502 at Wed Jun 25 02:35:03 2014, MaxMem=  4294967296 cpu:     31628.2
 (Enter /home/ztw1e12/g09/l801.exe)
 DoSCS=F DFT=T ScalE2(SS,OS)=  1.000000  1.000000
 Range of M.O.s used for correlation:     1  1068
 NBasis=  1204 NAE=    63 NBE=    63 NFC=     0 NFV=     0
 NROrb=   1068 NOA=    63 NOB=    63 NVA=  1005 NVB=  1005

 **** Warning!!: The largest alpha MO coefficient is  0.26128112D+02

 Leave Link  801 at Wed Jun 25 02:35:03 2014, MaxMem=  4294967296 cpu:         0.5
 (Enter /home/ztw1e12/g09/l1002.exe)
 Minotr:  Closed shell wavefunction.
          IDoAtm=111111111111111111111111111111111
          Direct CPHF calculation.
          Differentiating once with respect to Fermi-contact.
          Electric field/nuclear overlap derivatives assumed to be zero.
          Requested convergence is 1.0D-10 RMS, and 1.0D-09 maximum.
          Secondary convergence is 1.0D-12 RMS, and 1.0D-12 maximum.
          NewPWx=T KeepS1=F KeepF1=F KeepIn=T MapXYZ=F SortEE=F KeepMc=T.
          MDV=    4294965894 using IRadAn=  199590.
 Using stored XC quadrature information.
          Solving linear equations simultaneously, MaxMat=       0.
          There are    33 degrees of freedom in the 1st order CPHF.  IDoFFX=0 NUNeed=    33.
     33 vectors produced by pass  0 Test12= 1.92D-17 3.03D-11 XBig12= 4.29D+01 2.58D+00.
 AX will form    33 AO Fock derivatives at one time.
 FoFJK:  IHMeth= 1 ICntrl=       0 DoSepK=F KAlg= 0 I1Cent=   0 FoldK=F
 IRaf= 440000000 NMat=  33 IRICut=       1 DoRegI=T DoRafI=F ISym2E=-1.
 FoFCou: FMM=F IPFlag=           0 FMFlag=      100000 FMFlg1=           0
         NFxFlg=           0 DoJE=F BraDBF=F KetDBF=F FulRan=T
         wScrn=  0.000000 ICntrl=       0 IOpCl=  0 I1Cent=           0 NGrid=           0
         NMat0=   33 NMatS0=      0 NMatT0=   33 NMatD0=   33 NMtDS0=    0 NMtDT0=    0
 Petite list used in FoFCou.
     33 vectors produced by pass  1 Test12= 1.92D-17 3.03D-11 XBig12= 3.46D-01 1.89D-01.
     33 vectors produced by pass  2 Test12= 1.92D-17 3.03D-11 XBig12= 1.52D-02 3.96D-02.
     33 vectors produced by pass  3 Test12= 1.92D-17 3.03D-11 XBig12= 3.42D-04 5.60D-03.
     33 vectors produced by pass  4 Test12= 1.92D-17 3.03D-11 XBig12= 6.99D-06 9.32D-04.
     33 vectors produced by pass  5 Test12= 1.92D-17 3.03D-11 XBig12= 1.42D-07 1.43D-04.
     33 vectors produced by pass  6 Test12= 1.92D-17 3.03D-11 XBig12= 4.09D-09 1.66D-05.
     33 vectors produced by pass  7 Test12= 1.92D-17 3.03D-11 XBig12= 1.10D-10 4.03D-06.
     33 vectors produced by pass  8 Test12= 1.92D-17 3.03D-11 XBig12= 3.95D-12 2.84D-07.
     33 vectors produced by pass  9 Test12= 1.92D-17 3.03D-11 XBig12= 5.47D-14 8.82D-08.
     33 vectors produced by pass 10 Test12= 1.92D-17 3.03D-11 XBig12= 1.83D-15 7.67D-09.
     33 vectors produced by pass 11 Test12= 1.92D-17 3.03D-11 XBig12= 1.92D-17 5.44D-10.
      8 vectors produced by pass 12 Test12= 1.92D-17 3.03D-11 XBig12= 2.21D-19 7.02D-11.
 InvSVY:  IOpt=1 It=  1 EMax= 5.33D-15
 Solved reduced A of dimension   404 with    33 vectors.
 Max diff in FC couplings:  IJMax=    14     5 Diff= 3.76D-04 IJMaxR=    28     1 DiffR= 1.57D+00
 Fermi Contact (FC) contribution to K (Hz):
                1             2             3             4             5 
      1  0.123400D+11
      2  0.349322D+02  0.123400D+11
      3 -0.116813D+01  0.340687D+02  0.123400D+11
      4  0.306880D+01  0.366248D+00  0.333784D+02  0.123400D+11
      5  0.162859D+01  0.298068D+01 -0.131682D+01  0.345759D+02  0.123400D+11
      6  0.356460D+02 -0.245827D+00  0.429199D+01  0.264126D+00  0.392336D+02
      7  0.219078D+02 -0.293753D+00  0.966223D+00 -0.208647D+00  0.608530D+00
      8 -0.235182D+00  0.226755D+02 -0.284227D+00  0.103523D+01 -0.291676D+00
      9 -0.278310D+00  0.956075D+00 -0.153166D+00  0.218199D+02 -0.141975D+00
     10  0.671708D+00 -0.222202D+00  0.101852D+01 -0.278359D+00  0.228483D+02
     11  0.198956D+01  0.166448D+01  0.237552D+02  0.153289D+01  0.195585D+01
     12 -0.991346D-01  0.700478D+00 -0.115685D+01  0.773903D+00 -0.362805D-01
     13  0.111635D+00  0.813212D+00 -0.739106D+00  0.795175D+00  0.942771D-02
     14 -0.596407D+00  0.834164D+00 -0.107686D+01  0.777672D+00 -0.474084D+00
     15  0.878136D-02 -0.268058D-01  0.738774D+00 -0.220777D-01  0.122896D-01
     16 -0.103734D-01 -0.236826D-01  0.179827D+01  0.591707D-01  0.487069D-01
     17 -0.729607D+00 -0.794933D-01  0.261197D+00  0.305413D+01  0.116582D+02
     18  0.420298D+00 -0.123943D-01 -0.462384D-01  0.213442D+00  0.114992D+01
     19 -0.105228D-02  0.209647D-01  0.128603D-02  0.580424D-01  0.844388D-02
     20  0.512638D-01 -0.338095D-01 -0.586509D-01 -0.626147D-01  0.466859D-01
     21 -0.167963D-02  0.309554D-02 -0.775386D-02  0.149716D-01  0.138644D-02
     22 -0.222495D-01  0.654407D-01  0.109411D+00  0.192671D-01 -0.199985D-01
     23 -0.136181D-03 -0.141247D-03 -0.312636D-02  0.923442D-03  0.108601D-03
     24 -0.853609D-02  0.223330D-01 -0.644953D-01  0.556231D-02 -0.728361D-02
     25  0.338909D-03 -0.231240D-02  0.466138D-03 -0.490827D-02  0.798268D-03
     26 -0.776106D-04  0.276150D-03 -0.105086D-02  0.222455D-03  0.224579D-03
     27  0.525945D-04  0.825469D-03 -0.620203D-03  0.298708D-03  0.126823D-03
     28  0.115257D-05  0.560034D-05 -0.204867D-03 -0.615911D-04 -0.729430D-05
     29 -0.160085D-02  0.847192D-03  0.258011D-01  0.331378D-02  0.236145D-03
     30  0.134877D-03  0.848019D-04  0.638957D-02 -0.130328D-03 -0.759072D-04
     31 -0.953086D-05  0.645674D-04  0.252908D-02  0.284627D-03  0.794311D-04
     32  0.461247D-03  0.231911D-03  0.101942D-01  0.936300D-04  0.187317D-03
     33  0.219627D-02  0.106006D-01 -0.489550D-02  0.181394D-01 -0.460221D-03
                6             7             8             9            10 
      6  0.123400D+11
      7 -0.527483D+00  0.123400D+11
      8  0.122639D+01  0.342414D+00  0.123400D+11
      9  0.117063D+01  0.373506D-01  0.397021D-01  0.123400D+11
     10 -0.722394D+00  0.635610D-01  0.413348D-01  0.338010D+00  0.123400D+11
     11 -0.449683D+00  0.184891D-01  0.672295D+00  0.694826D+00  0.234927D-01
     12  0.121763D+00  0.111638D-01 -0.402801D-01 -0.265656D-01  0.147369D-01
     13  0.180004D-01  0.703047D-02 -0.358274D-02 -0.233092D-01  0.257441D-02
     14  0.547237D+00  0.526535D-01 -0.116562D+00 -0.131319D+00  0.392199D-01
     15 -0.164715D-02  0.138779D-03 -0.268593D-02  0.312298D-03  0.144054D-03
     16  0.181988D-01  0.335460D-02 -0.794202D-02  0.814518D-02  0.341526D-02
     17 -0.119527D+02  0.566493D+00  0.703541D-01  0.247443D+00  0.709250D+00
     18 -0.659438D+00 -0.135102D-01  0.192026D-02  0.131555D-01  0.154020D-02
     19  0.896282D-02  0.110842D-02  0.268479D-01  0.453775D-03  0.129484D-02
     20 -0.327384D-01 -0.740598D-02  0.815250D-02  0.403343D-01 -0.694625D-02
     21  0.119820D-02  0.297531D-03  0.478820D-03 -0.998935D-03  0.638844D-04
     22  0.261806D-01  0.236829D-02 -0.163635D-02 -0.622396D-02  0.195610D-02
     23 -0.810610D-04 -0.907562D-05  0.720835D-04 -0.348222D-04 -0.899099D-05
     24  0.902053D-02  0.100796D-02 -0.111365D-02 -0.202350D-03  0.532825D-03
     25 -0.684648D-03 -0.594649D-04  0.228488D-03  0.308266D-04 -0.229482D-03
     26 -0.300548D-05 -0.598233D-05  0.425726D-04 -0.228203D-04 -0.354180D-04
     27  0.302560D-05 -0.994964D-05 -0.171463D-05  0.484527D-04  0.126799D-04
     28  0.328510D-04 -0.763123D-05 -0.840081D-05  0.227612D-03  0.000000D+00
     29  0.978594D-03  0.508669D-04 -0.346683D-03 -0.268342D-03  0.115069D-03
     30  0.223333D-03  0.234881D-04  0.443859D-04 -0.180345D-04  0.523112D-04
     31  0.747208D-04  0.645023D-05 -0.177947D-05  0.236558D-05  0.982898D-05
     32  0.862807D-04  0.307445D-04  0.134592D-03  0.419522D-04  0.701238D-04
     33  0.198853D-02 -0.512028D-03 -0.197981D-03  0.845472D-03  0.829778D-05
               11            12            13            14            15 
     11  0.123400D+11
     12  0.181438D+02  0.123400D+11
     13  0.172109D+02 -0.863169D+00  0.123400D+11
     14  0.161092D+02 -0.491136D+00 -0.842087D+00  0.123400D+11
     15 -0.768822D+00  0.223794D-01  0.273110D+00  0.215605D+02  0.123400D+11
     16 -0.608098D+00  0.528285D+00  0.208713D-01  0.277286D+02 -0.118325D+01
     17  0.678611D-01  0.434551D-01  0.524745D-02  0.212087D+00 -0.193047D-02
     18  0.114454D-01 -0.451938D-02 -0.629855D-03 -0.229198D-01  0.148945D-03
     19  0.893367D+00  0.729035D-01  0.141117D-01  0.503841D+01  0.364109D+00
     20  0.103755D+01  0.164979D+01  0.150459D+01  0.132550D+02 -0.448061D+00
     21  0.554214D+00 -0.166106D-01 -0.333975D-01  0.220907D+00  0.109731D+00
     22 -0.234586D-01  0.700359D-02  0.401014D-02  0.985666D+01  0.269392D+00
     23 -0.270891D-01  0.170531D-02  0.175268D-02  0.582414D-01 -0.973460D-03
     24  0.156949D+01  0.137876D+00  0.248213D-01 -0.213406D+00  0.308922D+00
     25 -0.297997D-01  0.448441D-01  0.354933D-01  0.661747D+00 -0.746100D-01
     26  0.417015D-02  0.547949D-03 -0.129859D-04  0.329051D-01  0.212750D-01
     27 -0.139437D-02 -0.177249D-02 -0.873983D-03  0.157454D-01  0.270098D-01
     28 -0.247176D-02  0.261549D-03 -0.706615D-03  0.916534D-01 -0.192397D-02
     29 -0.826769D-01  0.136846D-01 -0.633333D-03  0.658261D+00  0.668401D-01
     30  0.404245D-01 -0.697658D-03 -0.817352D-03 -0.787847D-01  0.193951D-01
     31  0.377422D-02  0.638408D-03 -0.691136D-04 -0.234072D-01  0.316518D-02
     32  0.734103D-01 -0.488130D-03 -0.428552D-04 -0.854978D-01  0.959125D-02
     33  0.131249D+00 -0.118239D-01  0.353412D-01  0.887177D+00  0.251955D+00
               16            17            18            19            20 
     16  0.123400D+11
     17  0.116177D-01  0.123400D+11
     18 -0.794955D-03  0.199374D+02  0.123400D+11
     19 -0.968477D+01  0.212493D-02 -0.149734D-03  0.123400D+11
     20  0.599110D+00 -0.912220D-02  0.101639D-02  0.967938D+00  0.123400D+11
     21  0.233608D+00  0.668659D-03 -0.447192D-04  0.878153D-01  0.308835D+02
     22  0.296673D+02  0.931875D-02 -0.101767D-02  0.629592D+01 -0.214600D+00
     23  0.340765D+00 -0.583426D-05  0.000000D+00  0.477255D+00 -0.100221D+00
     24  0.398795D-01  0.340007D-02 -0.335982D-03 -0.207104D-01  0.244412D+02
     25 -0.134164D+00 -0.267970D-03  0.144079D-04  0.462209D-01  0.123284D+02
     26  0.562017D-01 -0.257136D-05 -0.201931D-05 -0.150476D-02  0.425012D+00
     27  0.771986D-01 -0.125807D-05  0.000000D+00  0.461339D-02  0.292437D+00
     28 -0.173792D-02  0.114409D-04  0.000000D+00  0.313461D-02  0.320065D+00
     29 -0.297641D+00  0.432172D-03 -0.411551D-04  0.643950D+00  0.123216D+00
     30  0.147674D+00  0.863869D-04 -0.869909D-05  0.237415D+00  0.373302D-01
     31  0.964162D+00  0.384815D-04 -0.311454D-05  0.171918D+00  0.625030D-02
     32  0.234565D+00  0.978899D-04 -0.740416D-05  0.231631D+00  0.739729D-02
     33  0.507411D+00  0.165047D-02 -0.163313D-03  0.127875D+00  0.603082D+01
               21            22            23            24            25 
     21  0.123400D+11
     22  0.173927D-01  0.123400D+11
     23  0.669275D-02  0.314759D+02  0.123400D+11
     24  0.434002D+00 -0.413920D-01  0.592618D-02  0.123400D+11
     25  0.747279D-01 -0.195408D-01  0.313749D-02  0.268572D+02  0.123400D+11
     26 -0.160678D-01  0.306782D-02 -0.309648D-04 -0.119398D+01  0.180763D+02
     27 -0.502442D-02 -0.275875D-03 -0.161503D-04 -0.119712D+01  0.179182D+02
     28 -0.888451D-02 -0.125836D-02  0.966095D-04 -0.752154D+00  0.170851D+02
     29 -0.234985D-02  0.169628D+02  0.321472D+00 -0.579954D-02 -0.310286D-02
     30 -0.830179D-03 -0.582952D+00  0.173322D+00  0.195487D-02  0.145215D-02
     31 -0.623691D-03 -0.348871D+00  0.285958D+00  0.395343D-04 -0.152084D-03
     32  0.127889D-02 -0.648848D+00  0.553017D-01 -0.128842D-02  0.140029D-02
     33  0.459031D+00  0.301702D+00  0.339806D-03 -0.964997D+01  0.353404D+01
               26            27            28            29            30 
     26  0.123400D+11
     27 -0.931272D+00  0.123400D+11
     28 -0.740607D+00 -0.726135D+00  0.123400D+11
     29 -0.398369D-04 -0.152391D-03  0.845180D-04  0.123400D+11
     30  0.306646D-03  0.184730D-03 -0.168320D-04  0.199104D+02  0.123400D+11
     31  0.234127D-03  0.892919D-04  0.509980D-05  0.182485D+02 -0.751124D+00
     32 -0.114751D-03 -0.172795D-03 -0.943180D-05  0.200745D+02 -0.740541D+00
     33  0.460755D+00  0.451708D+00  0.811485D+00 -0.217828D-01  0.135406D-01
               31            32            33 
     31  0.123400D+11
     32 -0.736359D+00  0.123400D+11
     33  0.339620D-02  0.202645D-01  0.123400D+11
 Fermi Contact (FC) contribution to J (Hz):
                1             2             3             4             5 
      1  0.243533D+11
      2  0.689395D+02  0.243533D+11
      3 -0.230534D+01  0.672354D+02  0.243533D+11
      4  0.605635D+01  0.722799D+00  0.658732D+02  0.243533D+11
      5  0.321406D+01  0.588245D+01 -0.259878D+01  0.682364D+02  0.243533D+11
      6  0.703483D+02 -0.485145D+00  0.847035D+01  0.521259D+00  0.774285D+02
      7  0.171909D+03 -0.230505D+01  0.758186D+01 -0.163723D+01  0.477507D+01
      8 -0.184545D+01  0.177932D+03 -0.223030D+01  0.812331D+01 -0.228875D+01
      9 -0.218387D+01  0.750223D+01 -0.120188D+01  0.171219D+03 -0.111406D+01
     10  0.527083D+01 -0.174359D+01  0.799226D+01 -0.218425D+01  0.179288D+03
     11  0.392645D+01  0.328489D+01  0.468815D+02  0.302519D+01  0.385992D+01
     12 -0.777899D+00  0.549659D+01 -0.907770D+01  0.607274D+01 -0.284690D+00
     13  0.875993D+00  0.638120D+01 -0.579969D+01  0.623966D+01  0.739783D-01
     14 -0.117702D+01  0.164624D+01 -0.212520D+01  0.153476D+01 -0.935616D+00
     15  0.689065D-01 -0.210342D+00  0.579709D+01 -0.173241D+00  0.964355D-01
     16 -0.204721D-01 -0.467383D-01  0.354894D+01  0.116775D+00  0.961242D-01
     17  0.776433D+00  0.845952D-01 -0.277961D+00 -0.325015D+01 -0.124064D+02
     18  0.329804D+01 -0.972571D-01 -0.362828D+00  0.167486D+01  0.902335D+01
     19  0.111982D-02 -0.223102D-01 -0.136857D-02 -0.617676D-01 -0.898581D-02
     20  0.290775D-01 -0.191772D-01 -0.332675D-01 -0.355158D-01  0.264808D-01
     21 -0.131799D-01  0.242904D-01 -0.608438D-01  0.117481D+00  0.108792D-01
     22 -0.126202D-01  0.371188D-01  0.620594D-01  0.109286D-01 -0.113434D-01
     23 -0.106860D-02 -0.110835D-02 -0.245322D-01  0.724616D-02  0.852181D-03
     24 -0.168462D-01  0.440746D-01 -0.127283D+00  0.109774D-01 -0.143744D-01
     25  0.668845D-03 -0.456358D-02  0.919936D-03 -0.968659D-02  0.157540D-02
     26 -0.609003D-03  0.216692D-02 -0.824597D-02  0.174558D-02  0.176225D-02
     27  0.412704D-03  0.647737D-02 -0.486667D-02  0.234393D-02  0.995167D-03
     28  0.904410D-05  0.439453D-04 -0.160757D-02 -0.483299D-03 -0.572377D-04
     29 -0.315932D-02  0.167195D-02  0.509191D-01  0.653982D-02  0.466038D-03
     30  0.105837D-02  0.665433D-03  0.501383D-01 -0.102267D-02 -0.595636D-03
     31 -0.747877D-04  0.506654D-03  0.198454D-01  0.223344D-02  0.623288D-03
     32  0.361936D-02  0.181978D-02  0.799928D-01  0.734705D-03  0.146986D-02
     33 -0.233723D-02 -0.112809D-01  0.520970D-02 -0.193036D-01  0.489758D-03
                6             7             8             9            10 
      6  0.243533D+11
      7 -0.413911D+01  0.385007D+12
      8  0.962334D+01  0.106833D+02  0.385007D+12
      9  0.918584D+01  0.116534D+01  0.123870D+01  0.385007D+12
     10 -0.566855D+01  0.198310D+01  0.128965D+01  0.105459D+02  0.385007D+12
     11 -0.887460D+00  0.145082D+00  0.527543D+01  0.545223D+01  0.184345D+00
     12  0.955460D+00  0.348309D+00 -0.125674D+01 -0.828846D+00  0.459789D+00
     13  0.141247D+00  0.219350D+00 -0.111781D+00 -0.727247D+00  0.803216D-01
     14  0.107999D+01  0.413167D+00 -0.914649D+00 -0.103045D+01  0.307754D+00
     15 -0.129251D-01  0.432990D-02 -0.838009D-01  0.974369D-02  0.449447D-02
     16  0.359158D-01  0.263232D-01 -0.623203D-01  0.639145D-01  0.267992D-01
     17  0.127198D+02 -0.239699D+01 -0.297687D+00 -0.104700D+01 -0.300103D+01
     18 -0.517454D+01 -0.421518D+00  0.599120D-01  0.410452D+00  0.480542D-01
     19 -0.953806D-02 -0.469002D-02 -0.113601D+00 -0.192004D-02 -0.547883D-02
     20 -0.185697D-01 -0.167026D-01  0.183862D-01  0.909654D-01 -0.156658D-01
     21  0.940215D-02  0.928295D-02  0.149392D-01 -0.311667D-01  0.199319D-02
     22  0.148500D-01  0.534118D-02 -0.369043D-02 -0.140368D-01  0.441155D-02
     23 -0.636078D-03 -0.283159D-03  0.224900D-02 -0.108645D-02 -0.280518D-03
     24  0.178022D-01  0.790937D-02 -0.873870D-02 -0.158782D-02  0.418102D-02
     25 -0.135117D-02 -0.466615D-03  0.179293D-02  0.241893D-03 -0.180072D-02
     26 -0.235837D-04 -0.186648D-03  0.132826D-02 -0.711991D-03 -0.110504D-02
     27  0.237416D-04 -0.310428D-03 -0.534965D-04  0.151172D-02  0.395611D-03
     28  0.257779D-03 -0.238094D-03 -0.262105D-03  0.710149D-02  0.842066D-05
     29  0.193128D-02  0.399148D-03 -0.272038D-02 -0.210565D-02  0.902935D-03
     30  0.175247D-02  0.732828D-03  0.138484D-02 -0.562676D-03  0.163211D-02
     31  0.586327D-03  0.201247D-03 -0.555195D-04  0.738059D-04  0.306664D-03
     32  0.677036D-03  0.959227D-03  0.419927D-02  0.130891D-02  0.218786D-02
     33 -0.211616D-02  0.216653D-02  0.837710D-03 -0.357742D-02 -0.351102D-04
               11            12            13            14            15 
     11  0.243533D+11
     12  0.142372D+03  0.385007D+12
     13  0.135052D+03 -0.269308D+02  0.385007D+12
     14  0.317918D+02 -0.385390D+01 -0.660777D+01  0.243533D+11
     15 -0.603287D+01  0.698235D+00  0.852101D+01  0.169183D+03  0.385007D+12
     16 -0.120010D+01  0.414540D+01  0.163775D+00  0.547232D+02 -0.928484D+01
     17 -0.722165D-01 -0.183871D+00 -0.222034D-01 -0.225699D+00  0.816836D-02
     18  0.898109D-01 -0.141004D+00 -0.196515D-01 -0.179850D+00  0.464709D-02
     19 -0.950704D+00 -0.308475D+00 -0.597104D-01 -0.536178D+01 -0.154064D+01
     20  0.588510D+00  0.372073D+01  0.339329D+01  0.751838D+01 -0.101050D+01
     21  0.434886D+01 -0.518251D+00 -0.104200D+01  0.173344D+01  0.342359D+01
     22 -0.133060D-01  0.157951D-01  0.904401D-02  0.559082D+01  0.607555D+00
     23 -0.212565D+00  0.532057D-01  0.546835D-01  0.457014D+00 -0.303719D-01
     24  0.309743D+01  0.108190D+01  0.194770D+00 -0.421162D+00  0.242408D+01
     25 -0.588104D-01  0.351887D+00  0.278513D+00  0.130597D+01 -0.585458D+00
     26  0.327228D-01  0.170960D-01 -0.405160D-03  0.258203D+00  0.663778D+00
     27 -0.109415D-01 -0.553015D-01 -0.272682D-01  0.123553D+00  0.842706D+00
     28 -0.193957D-01  0.816032D-02 -0.220464D-01  0.719195D+00 -0.600277D-01
     29 -0.163165D+00  0.107382D+00 -0.496970D-02  0.129909D+01  0.524488D+00
     30  0.317207D+00 -0.217669D-01 -0.255013D-01 -0.618216D+00  0.605125D+00
     31  0.296159D-01  0.199183D-01 -0.215634D-02 -0.183674D+00  0.987534D-01
     32  0.576044D+00 -0.152296D-01 -0.133708D-02 -0.670893D+00  0.299247D+00
     33 -0.139673D+00  0.500301D-01 -0.149538D+00 -0.944117D+00 -0.106609D+01
               16            17            18            19            20 
     16  0.243533D+11
     17 -0.123633D-01  0.708114D+10
     18 -0.623794D-02 -0.843606D+02  0.385007D+12
     19  0.103063D+02  0.121936D-02  0.633564D-03  0.708114D+10
     20  0.339822D+00  0.279009D-02  0.229225D-02 -0.296051D+00  0.201170D+10
     21  0.183310D+01 -0.282928D-02 -0.139524D-02 -0.371570D+00  0.696512D+02
     22  0.168277D+02 -0.285021D-02 -0.229513D-02 -0.192565D+01 -0.349847D-01
     23  0.267395D+01  0.246863D-04 -0.327496D-05 -0.201939D+01 -0.226028D+00
     24  0.787033D-01 -0.361829D-02 -0.263642D-02  0.220396D-01  0.138634D+02
     25 -0.264777D+00  0.285168D-03  0.113057D-03 -0.491874D-01  0.699281D+01
     26  0.441009D+00  0.108801D-04 -0.630024D-04  0.636706D-02  0.958524D+00
     27  0.605770D+00  0.532325D-05  0.273153D-04 -0.195205D-01  0.659528D+00
     28 -0.136373D-01 -0.484094D-04 -0.231014D-04 -0.132634D-01  0.721838D+00
     29 -0.587403D+00 -0.459909D-03 -0.322940D-03 -0.685280D+00  0.698899D-01
     30  0.115878D+01 -0.365527D-03 -0.271411D-03 -0.100457D+01  0.841903D-01
     31  0.756568D+01 -0.162826D-03 -0.971736D-04 -0.727431D+00  0.140962D-01
     32  0.184061D+01 -0.414199D-03 -0.231009D-03 -0.980096D+00  0.166830D-01
     33 -0.539977D+00  0.947100D-03  0.691023D-03  0.733792D-01 -0.184457D+01
               21            22            23            24            25 
     21  0.385007D+12
     22  0.392256D-01  0.201170D+10
     23  0.208813D+00  0.709871D+02  0.385007D+12
     24  0.340557D+01 -0.234781D-01  0.465022D-01  0.243533D+11
     25  0.586383D+00 -0.110838D-01  0.246195D-01  0.530034D+02  0.243533D+11
     26 -0.501315D+00  0.691880D-02 -0.966101D-03 -0.936905D+01  0.141843D+03
     27 -0.156762D+00 -0.622177D-03 -0.503887D-03 -0.939370D+01  0.140602D+03
     28 -0.277196D+00 -0.283796D-02  0.301421D-02 -0.590208D+01  0.134065D+03
     29 -0.184391D-01  0.962149D+01  0.252256D+01 -0.114455D-01 -0.612358D-02
     30 -0.259016D-01 -0.131472D+01  0.540764D+01  0.153397D-01  0.113949D-01
     31 -0.194591D-01 -0.786803D+00  0.892187D+01  0.310222D-03 -0.119339D-02
     32  0.399014D-01 -0.146334D+01  0.172541D+01 -0.101101D-01  0.109879D-01
     33 -0.194228D+01 -0.922776D-01 -0.143781D-02  0.102693D+02 -0.376085D+01
               26            27            28            29            30 
     26  0.385007D+12
     27 -0.290556D+02  0.385007D+12
     28 -0.231069D+02 -0.226554D+02  0.385007D+12
     29 -0.312597D-03 -0.119579D-02  0.663205D-03  0.243533D+11
     30  0.956734D-02  0.576357D-02 -0.525159D-03  0.156235D+03  0.385007D+12
     31  0.730476D-02  0.278590D-02  0.159114D-03  0.143194D+03 -0.234350D+02
     32 -0.358023D-02 -0.539121D-02 -0.294272D-03  0.157523D+03 -0.231048D+02
     33 -0.194958D+01 -0.191130D+01 -0.343362D+01  0.231808D-01 -0.572939D-01
               31            32            33 
     31  0.385007D+12
     32 -0.229744D+02  0.385007D+12
     33 -0.143703D-01 -0.857445D-01  0.708114D+10
 End of Minotr F.D. properties file   721 does not exist.
 End of Minotr F.D. properties file   722 does not exist.
 End of Minotr F.D. properties file   788 does not exist.
 Leave Link 1002 at Wed Jun 25 10:23:38 2014, MaxMem=  4294967296 cpu:    448738.3
 (Enter /home/ztw1e12/g09/l601.exe)
 Copying SCF densities to generalized density rwf, IOpCl= 0 IROHF=0.

 **********************************************************************

            Population analysis using the SCF density.

 **********************************************************************

 Orbital symmetries:
       Occupied  (A) (A) (A) (A) (A) (A) (A) (A) (A) (A) (A) (A)
                 (A) (A) (A) (A) (A) (A) (A) (A) (A) (A) (A) (A)
                 (A) (A) (A) (A) (A) (A) (A) (A) (A) (A) (A) (A)
                 (A) (A) (A) (A) (A) (A) (A) (A) (A) (A) (A) (A)
                 (A) (A) (A) (A) (A) (A) (A) (A) (A) (A) (A) (A)
                 (A) (A) (A)
       Virtual   (A) (A) (A) (A) (A) (A) (A) (A) (A) (A) (A) (A)
                 (A) (A) (A) (A) (A) (A) (A) (A) (A) (A) (A) (A)
                 (A) (A) (A) (A) (A) (A) (A) (A) (A) (A) (A) (A)
                 (A) (A) (A) (A) (A) (A) (A) (A) (A) (A) (A) (A)
                 (A) (A) (A) (A) (A) (A) (A) (A) (A) (A) (A) (A)
                 (A) (A) (A) (A) (A) (A) (A) (A) (A) (A) (A) (A)
                 (A) (A) (A) (A) (A) (A) (A) (A) (A) (A) (A) (A)
                 (A) (A) (A) (A) (A) (A) (A) (A) (A) (A) (A) (A)
                 (A) (A) (A) (A) (A) (A) (A) (A) (A) (A) (A) (A)
                 (A) (A) (A) (A) (A) (A) (A) (A) (A) (A) (A) (A)
                 (A) (A) (A) (A) (A) (A) (A) (A) (A) (A) (A) (A)
                 (A) (A) (A) (A) (A) (A) (A) (A) (A) (A) (A) (A)
                 (A) (A) (A) (A) (A) (A) (A) (A) (A) (A) (A) (A)
                 (A) (A) (A) (A) (A) (A) (A) (A) (A) (A) (A) (A)
                 (A) (A) (A) (A) (A) (A) (A) (A) (A) (A) (A) (A)
                 (A) (A) (A) (A) (A) (A) (A) (A) (A) (A) (A) (A)
                 (A) (A) (A) (A) (A) (A) (A) (A) (A) (A) (A) (A)
                 (A) (A) (A) (A) (A) (A) (A) (A) (A) (A) (A) (A)
                 (A) (A) (A) (A) (A) (A) (A) (A) (A) (A) (A) (A)
                 (A) (A) (A) (A) (A) (A) (A) (A) (A) (A) (A) (A)
                 (A) (A) (A) (A) (A) (A) (A) (A) (A) (A) (A) (A)
                 (A) (A) (A) (A) (A) (A) (A) (A) (A) (A) (A) (A)
                 (A) (A) (A) (A) (A) (A) (A) (A) (A) (A) (A) (A)
                 (A) (A) (A) (A) (A) (A) (A) (A) (A) (A) (A) (A)
                 (A) (A) (A) (A) (A) (A) (A) (A) (A) (A) (A) (A)
                 (A) (A) (A) (A) (A) (A) (A) (A) (A) (A) (A) (A)
                 (A) (A) (A) (A) (A) (A) (A) (A) (A) (A) (A) (A)
                 (A) (A) (A) (A) (A) (A) (A) (A) (A) (A) (A) (A)
                 (A) (A) (A) (A) (A) (A) (A) (A) (A) (A) (A) (A)
                 (A) (A) (A) (A) (A) (A) (A) (A) (A) (A) (A) (A)
                 (A) (A) (A) (A) (A) (A) (A) (A) (A) (A) (A) (A)
                 (A) (A) (A) (A) (A) (A) (A) (A) (A) (A) (A) (A)
                 (A) (A) (A) (A) (A) (A) (A) (A) (A) (A) (A) (A)
                 (A) (A) (A) (A) (A) (A) (A) (A) (A) (A) (A) (A)
                 (A) (A) (A) (A) (A) (A) (A) (A) (A) (A) (A) (A)
                 (A) (A) (A) (A) (A) (A) (A) (A) (A) (A) (A) (A)
                 (A) (A) (A) (A) (A) (A) (A) (A) (A) (A) (A) (A)
                 (A) (A) (A) (A) (A) (A) (A) (A) (A) (A) (A) (A)
                 (A) (A) (A) (A) (A) (A) (A) (A) (A) (A) (A) (A)
                 (A) (A) (A) (A) (A) (A) (A) (A) (A) (A) (A) (A)
                 (A) (A) (A) (A) (A) (A) (A) (A) (A) (A) (A) (A)
                 (A) (A) (A) (A) (A) (A) (A) (A) (A) (A) (A) (A)
                 (A) (A) (A) (A) (A) (A) (A) (A) (A) (A) (A) (A)
                 (A) (A) (A) (A) (A) (A) (A) (A) (A) (A) (A) (A)
                 (A) (A) (A) (A) (A) (A) (A) (A) (A) (A) (A) (A)
                 (A) (A) (A) (A) (A) (A) (A) (A) (A) (A) (A) (A)
                 (A) (A) (A) (A) (A) (A) (A) (A) (A) (A) (A) (A)
                 (A) (A) (A) (A) (A) (A) (A) (A) (A) (A) (A) (A)
                 (A) (A) (A) (A) (A) (A) (A) (A) (A) (A) (A) (A)
                 (A) (A) (A) (A) (A) (A) (A) (A) (A) (A) (A) (A)
                 (A) (A) (A) (A) (A) (A) (A) (A) (A) (A) (A) (A)
                 (A) (A) (A) (A) (A) (A) (A) (A) (A) (A) (A) (A)
                 (A) (A) (A) (A) (A) (A) (A) (A) (A) (A) (A) (A)
                 (A) (A) (A) (A) (A) (A) (A) (A) (A) (A) (A) (A)
                 (A) (A) (A) (A) (A) (A) (A) (A) (A) (A) (A) (A)
                 (A) (A) (A) (A) (A) (A) (A) (A) (A) (A) (A) (A)
                 (A) (A) (A) (A) (A) (A) (A) (A) (A) (A) (A) (A)
                 (A) (A) (A) (A) (A) (A) (A) (A) (A) (A) (A) (A)
                 (A) (A) (A) (A) (A) (A) (A) (A) (A) (A) (A) (A)
                 (A) (A) (A) (A) (A) (A) (A) (A) (A) (A) (A) (A)
                 (A) (A) (A) (A) (A) (A) (A) (A) (A) (A) (A) (A)
                 (A) (A) (A) (A) (A) (A) (A) (A) (A) (A) (A) (A)
                 (A) (A) (A) (A) (A) (A) (A) (A) (A) (A) (A) (A)
                 (A) (A) (A) (A) (A) (A) (A) (A) (A) (A) (A) (A)
                 (A) (A) (A) (A) (A) (A) (A) (A) (A) (A) (A) (A)
                 (A) (A) (A) (A) (A) (A) (A) (A) (A) (A) (A) (A)
                 (A) (A) (A) (A) (A) (A) (A) (A) (A) (A) (A) (A)
                 (A) (A) (A) (A) (A) (A) (A) (A) (A) (A) (A) (A)
                 (A) (A) (A) (A) (A) (A) (A) (A) (A) (A) (A) (A)
                 (A) (A) (A) (A) (A) (A) (A) (A) (A) (A) (A) (A)
                 (A) (A) (A) (A) (A) (A) (A) (A) (A) (A) (A) (A)
                 (A) (A) (A) (A) (A) (A) (A) (A) (A) (A) (A) (A)
                 (A) (A) (A) (A) (A) (A) (A) (A) (A) (A) (A) (A)
                 (A) (A) (A) (A) (A) (A) (A) (A) (A) (A) (A) (A)
                 (A) (A) (A) (A) (A) (A) (A) (A) (A) (A) (A) (A)
                 (A) (A) (A) (A) (A) (A) (A) (A) (A) (A) (A) (A)
                 (A) (A) (A) (A) (A) (A) (A) (A) (A) (A) (A) (A)
                 (A) (A) (A) (A) (A) (A) (A) (A) (A) (A) (A) (A)
                 (A) (A) (A) (A) (A) (A) (A) (A) (A) (A) (A) (A)
                 (A) (A) (A) (A) (A) (A) (A) (A) (A) (A) (A) (A)
                 (A) (A) (A) (A) (A) (A) (A) (A) (A) (A) (A) (A)
                 (A) (A) (A) (A) (A) (A) (A) (A) (A) (A) (A) (A)
                 (A) (A) (A) (A) (A) (A) (A) (A) (A) (A) (A) (A)
                 (A) (A) (A) (A) (A) (A) (A) (A) (A)
 The electronic state is 1-A.
 Alpha  occ. eigenvalues --  -19.24878 -19.17934 -19.16797 -14.42991 -14.41677
 Alpha  occ. eigenvalues --  -10.34776 -10.33214 -10.30957 -10.29162 -10.26984
 Alpha  occ. eigenvalues --  -10.25947 -10.25185 -10.25141 -10.25069 -10.24856
 Alpha  occ. eigenvalues --  -10.24704 -10.24263  -1.09196  -1.06125  -1.04598
 Alpha  occ. eigenvalues --   -0.95907  -0.93704  -0.87996  -0.81705  -0.77383
 Alpha  occ. eigenvalues --   -0.76925  -0.74407  -0.71821  -0.66748  -0.64438
 Alpha  occ. eigenvalues --   -0.61683  -0.60672  -0.59658  -0.56570  -0.54906
 Alpha  occ. eigenvalues --   -0.52572  -0.51163  -0.49672  -0.48818  -0.47089
 Alpha  occ. eigenvalues --   -0.46667  -0.45783  -0.45478  -0.44118  -0.43545
 Alpha  occ. eigenvalues --   -0.43419  -0.42485  -0.42123  -0.41447  -0.41248
 Alpha  occ. eigenvalues --   -0.40321  -0.39598  -0.38657  -0.36796  -0.36292
 Alpha  occ. eigenvalues --   -0.35402  -0.35136  -0.30087  -0.27670  -0.27495
 Alpha  occ. eigenvalues --   -0.27294  -0.25934  -0.23937
 Alpha virt. eigenvalues --   -0.01659   0.00076   0.00700   0.01786   0.02195
 Alpha virt. eigenvalues --    0.02905   0.03948   0.04774   0.05801   0.06690
 Alpha virt. eigenvalues --    0.06893   0.07791   0.09377   0.09889   0.10115
 Alpha virt. eigenvalues --    0.10593   0.11579   0.12117   0.12512   0.12728
 Alpha virt. eigenvalues --    0.15074   0.15654   0.16501   0.17259   0.17536
 Alpha virt. eigenvalues --    0.19087   0.21205   0.22059   0.22818   0.24194
 Alpha virt. eigenvalues --    0.24463   0.25096   0.25386   0.26163   0.26214
 Alpha virt. eigenvalues --    0.26339   0.27424   0.28476   0.28594   0.29297
 Alpha virt. eigenvalues --    0.30107   0.30440   0.31122   0.31985   0.32639
 Alpha virt. eigenvalues --    0.33132   0.33646   0.34058   0.34721   0.35121
 Alpha virt. eigenvalues --    0.35246   0.36344   0.36864   0.37313   0.37394
 Alpha virt. eigenvalues --    0.37974   0.38138   0.39180   0.39433   0.39815
 Alpha virt. eigenvalues --    0.39990   0.40350   0.40963   0.41493   0.41668
 Alpha virt. eigenvalues --    0.41860   0.42116   0.42937   0.43024   0.43769
 Alpha virt. eigenvalues --    0.44413   0.44662   0.45475   0.45796   0.46561
 Alpha virt. eigenvalues --    0.47066   0.48406   0.48868   0.49047   0.50323
 Alpha virt. eigenvalues --    0.50428   0.51427   0.51850   0.52666   0.52995
 Alpha virt. eigenvalues --    0.54298   0.55002   0.55429   0.55914   0.56079
 Alpha virt. eigenvalues --    0.57717   0.58470   0.59979   0.60638   0.61010
 Alpha virt. eigenvalues --    0.61579   0.62629   0.63220   0.63906   0.64305
 Alpha virt. eigenvalues --    0.65214   0.65887   0.66488   0.67985   0.68146
 Alpha virt. eigenvalues --    0.68735   0.69281   0.70326   0.70504   0.71968
 Alpha virt. eigenvalues --    0.72171   0.73079   0.73746   0.74566   0.75114
 Alpha virt. eigenvalues --    0.76397   0.76913   0.78279   0.79208   0.79760
 Alpha virt. eigenvalues --    0.80180   0.80543   0.81202   0.81625   0.82172
 Alpha virt. eigenvalues --    0.83606   0.83966   0.84380   0.85462   0.86015
 Alpha virt. eigenvalues --    0.86842   0.87173   0.88633   0.89734   0.90063
 Alpha virt. eigenvalues --    0.90558   0.90959   0.92826   0.93371   0.94280
 Alpha virt. eigenvalues --    0.95380   0.95420   0.96583   0.96891   0.97793
 Alpha virt. eigenvalues --    0.98052   0.98947   0.99105   0.99839   1.01064
 Alpha virt. eigenvalues --    1.02328   1.03255   1.04181   1.04757   1.05119
 Alpha virt. eigenvalues --    1.05550   1.07009   1.07348   1.08911   1.09122
 Alpha virt. eigenvalues --    1.10482   1.11108   1.11852   1.13098   1.13253
 Alpha virt. eigenvalues --    1.15195   1.15578   1.15952   1.16316   1.16935
 Alpha virt. eigenvalues --    1.17758   1.18022   1.18669   1.19324   1.19541
 Alpha virt. eigenvalues --    1.19948   1.21364   1.21890   1.22089   1.22604
 Alpha virt. eigenvalues --    1.22770   1.23164   1.23475   1.24676   1.25100
 Alpha virt. eigenvalues --    1.25667   1.26277   1.26674   1.27122   1.27430
 Alpha virt. eigenvalues --    1.27780   1.28370   1.28969   1.30385   1.31087
 Alpha virt. eigenvalues --    1.31479   1.32384   1.32967   1.33213   1.33517
 Alpha virt. eigenvalues --    1.34064   1.34759   1.35658   1.36219   1.37524
 Alpha virt. eigenvalues --    1.38648   1.40006   1.40406   1.42061   1.43177
 Alpha virt. eigenvalues --    1.44282   1.46755   1.47936   1.48292   1.52202
 Alpha virt. eigenvalues --    1.53038   1.53764   1.54485   1.56269   1.57457
 Alpha virt. eigenvalues --    1.58440   1.59558   1.60904   1.63450   1.64333
 Alpha virt. eigenvalues --    1.65422   1.65634   1.67756   1.69172   1.71003
 Alpha virt. eigenvalues --    1.72613   1.72906   1.74098   1.76076   1.78673
 Alpha virt. eigenvalues --    1.80118   1.80676   1.82463   1.83004   1.84804
 Alpha virt. eigenvalues --    1.85844   1.86438   1.88339   1.89186   1.89924
 Alpha virt. eigenvalues --    1.91330   1.91852   1.93200   1.94196   1.96219
 Alpha virt. eigenvalues --    1.96630   1.98154   1.99239   2.02052   2.02289
 Alpha virt. eigenvalues --    2.03360   2.04155   2.05625   2.07446   2.08761
 Alpha virt. eigenvalues --    2.09131   2.10814   2.10991   2.12384   2.13609
 Alpha virt. eigenvalues --    2.16280   2.17158   2.17822   2.18351   2.20860
 Alpha virt. eigenvalues --    2.21356   2.22697   2.23297   2.23915   2.25773
 Alpha virt. eigenvalues --    2.26143   2.26849   2.29062   2.30160   2.32129
 Alpha virt. eigenvalues --    2.33819   2.35242   2.36141   2.36639   2.37560
 Alpha virt. eigenvalues --    2.38052   2.38478   2.40383   2.41750   2.42190
 Alpha virt. eigenvalues --    2.43166   2.44302   2.45650   2.46089   2.47636
 Alpha virt. eigenvalues --    2.49376   2.51676   2.52045   2.53059   2.54189
 Alpha virt. eigenvalues --    2.55360   2.56585   2.57129   2.57867   2.60255
 Alpha virt. eigenvalues --    2.61530   2.63214   2.64055   2.65613   2.66260
 Alpha virt. eigenvalues --    2.67268   2.67463   2.68104   2.69102   2.69534
 Alpha virt. eigenvalues --    2.70116   2.70884   2.71032   2.71155   2.72439
 Alpha virt. eigenvalues --    2.72877   2.73274   2.74294   2.74886   2.75851
 Alpha virt. eigenvalues --    2.76012   2.76845   2.78785   2.79350   2.80838
 Alpha virt. eigenvalues --    2.82986   2.83980   2.84177   2.85372   2.85629
 Alpha virt. eigenvalues --    2.86743   2.87171   2.87593   2.87913   2.88798
 Alpha virt. eigenvalues --    2.89396   2.90093   2.91078   2.91431   2.92379
 Alpha virt. eigenvalues --    2.93451   2.93623   2.94693   2.95262   2.95641
 Alpha virt. eigenvalues --    2.95929   2.96510   2.97116   2.97283   2.97676
 Alpha virt. eigenvalues --    2.99378   2.99746   3.00146   3.00491   3.01369
 Alpha virt. eigenvalues --    3.02105   3.02980   3.03577   3.03828   3.04035
 Alpha virt. eigenvalues --    3.05383   3.06125   3.06605   3.07764   3.09173
 Alpha virt. eigenvalues --    3.09698   3.10744   3.11859   3.12007   3.13096
 Alpha virt. eigenvalues --    3.13454   3.13741   3.14996   3.15867   3.16196
 Alpha virt. eigenvalues --    3.16810   3.17544   3.18214   3.19032   3.19588
 Alpha virt. eigenvalues --    3.20348   3.21548   3.23533   3.24329   3.24714
 Alpha virt. eigenvalues --    3.25130   3.26183   3.26858   3.27605   3.27950
 Alpha virt. eigenvalues --    3.28359   3.28857   3.28988   3.29591   3.30688
 Alpha virt. eigenvalues --    3.31767   3.32182   3.32722   3.33064   3.34163
 Alpha virt. eigenvalues --    3.34247   3.35443   3.36481   3.37092   3.38395
 Alpha virt. eigenvalues --    3.39182   3.39714   3.40815   3.41192   3.42606
 Alpha virt. eigenvalues --    3.43005   3.44048   3.44744   3.45885   3.46295
 Alpha virt. eigenvalues --    3.46963   3.48037   3.49006   3.49620   3.50164
 Alpha virt. eigenvalues --    3.50673   3.52778   3.54097   3.54596   3.55577
 Alpha virt. eigenvalues --    3.55606   3.57665   3.58130   3.59803   3.60748
 Alpha virt. eigenvalues --    3.61491   3.62510   3.63078   3.64674   3.66589
 Alpha virt. eigenvalues --    3.67390   3.67781   3.68908   3.69193   3.69617
 Alpha virt. eigenvalues --    3.69902   3.71423   3.72178   3.72584   3.73460
 Alpha virt. eigenvalues --    3.74155   3.75273   3.76741   3.76873   3.77292
 Alpha virt. eigenvalues --    3.78037   3.79195   3.80226   3.80696   3.81561
 Alpha virt. eigenvalues --    3.82272   3.83435   3.83984   3.84639   3.85565
 Alpha virt. eigenvalues --    3.86012   3.87179   3.88077   3.89490   3.89891
 Alpha virt. eigenvalues --    3.91517   3.91557   3.92973   3.94312   3.94714
 Alpha virt. eigenvalues --    3.96846   3.97157   3.97958   3.98247   3.99382
 Alpha virt. eigenvalues --    4.00640   4.01735   4.02596   4.04133   4.04617
 Alpha virt. eigenvalues --    4.05369   4.06761   4.07043   4.07682   4.08065
 Alpha virt. eigenvalues --    4.08820   4.10567   4.11279   4.13069   4.13683
 Alpha virt. eigenvalues --    4.14431   4.15874   4.16592   4.17282   4.18327
 Alpha virt. eigenvalues --    4.19612   4.20044   4.20145   4.22163   4.22668
 Alpha virt. eigenvalues --    4.23639   4.23844   4.25466   4.26214   4.26519
 Alpha virt. eigenvalues --    4.26984   4.28060   4.28269   4.29731   4.30961
 Alpha virt. eigenvalues --    4.31475   4.32288   4.34463   4.35572   4.38087
 Alpha virt. eigenvalues --    4.38991   4.39963   4.40971   4.42090   4.44388
 Alpha virt. eigenvalues --    4.45463   4.45778   4.48115   4.49729   4.50743
 Alpha virt. eigenvalues --    4.51749   4.53966   4.55163   4.56383   4.57868
 Alpha virt. eigenvalues --    4.58977   4.60107   4.61188   4.62391   4.62751
 Alpha virt. eigenvalues --    4.64114   4.64275   4.65499   4.66113   4.67114
 Alpha virt. eigenvalues --    4.67635   4.69168   4.70257   4.71783   4.72949
 Alpha virt. eigenvalues --    4.73331   4.75433   4.76907   4.78619   4.79424
 Alpha virt. eigenvalues --    4.81836   4.82280   4.83654   4.84480   4.85175
 Alpha virt. eigenvalues --    4.86605   4.88106   4.90078   4.90547   4.90990
 Alpha virt. eigenvalues --    4.92220   4.93094   4.94386   4.95194   4.95478
 Alpha virt. eigenvalues --    4.97587   4.99539   4.99923   5.01567   5.03089
 Alpha virt. eigenvalues --    5.03787   5.05699   5.06517   5.07163   5.08809
 Alpha virt. eigenvalues --    5.10512   5.11583   5.12040   5.14073   5.14682
 Alpha virt. eigenvalues --    5.15572   5.16203   5.17535   5.18374   5.20548
 Alpha virt. eigenvalues --    5.22416   5.23348   5.24441   5.25197   5.27425
 Alpha virt. eigenvalues --    5.29221   5.32583   5.34176   5.35710   5.37723
 Alpha virt. eigenvalues --    5.41009   5.42174   5.44055   5.45281   5.48600
 Alpha virt. eigenvalues --    5.49415   5.51744   5.52124   5.52741   5.55586
 Alpha virt. eigenvalues --    5.56274   5.57552   5.59270   5.60882   5.62771
 Alpha virt. eigenvalues --    5.63109   5.64696   5.65154   5.66172   5.67444
 Alpha virt. eigenvalues --    5.68465   5.69114   5.70931   5.71569   5.73208
 Alpha virt. eigenvalues --    5.74559   5.76197   5.79070   5.80811   5.82261
 Alpha virt. eigenvalues --    5.86117   5.88023   5.89535   5.90114   5.95972
 Alpha virt. eigenvalues --    5.98319   5.98858   6.03255   6.06680   6.10806
 Alpha virt. eigenvalues --    6.16976   6.17737   6.18883   6.20787   6.27230
 Alpha virt. eigenvalues --    6.46102   6.46722   6.51162   6.51901   6.56187
 Alpha virt. eigenvalues --    6.60785   6.60883   6.62438   6.64475   6.66261
 Alpha virt. eigenvalues --    6.78500   6.79311   6.80230   6.88194   6.88665
 Alpha virt. eigenvalues --    6.90671   6.91142   6.91603   6.93021   7.06503
 Alpha virt. eigenvalues --    7.16876   7.19246   7.22462   7.26899   7.29154
 Alpha virt. eigenvalues --    7.67677   7.98749   8.09833   8.11942   8.14012
 Alpha virt. eigenvalues --    8.18635   8.22004   8.24651   8.35549   8.66370
 Alpha virt. eigenvalues --    8.73563   8.75796   8.77289   8.80377   8.81705
 Alpha virt. eigenvalues --    8.83399   8.84202   8.85351   8.87268   8.88911
 Alpha virt. eigenvalues --    8.91950   8.93062   8.96153   9.01921   9.07467
 Alpha virt. eigenvalues --    9.08765   9.12885   9.18859   9.20645   9.31039
 Alpha virt. eigenvalues --    9.35825   9.40076   9.41075   9.45847   9.48807
 Alpha virt. eigenvalues --    9.57979   9.61319   9.77438   9.81745  10.01430
 Alpha virt. eigenvalues --   10.06930  10.11128  10.11833  10.13579  10.16940
 Alpha virt. eigenvalues --   10.17803  10.19185  10.20148  10.24368  10.27643
 Alpha virt. eigenvalues --   10.29764  10.34157  10.82718  11.69648  11.76207
 Alpha virt. eigenvalues --   11.81651  11.92015  11.95661  12.02031  12.11476
 Alpha virt. eigenvalues --   12.15689  12.21005  12.23823  12.29580  12.33420
 Alpha virt. eigenvalues --   12.37802  12.54920  12.58341  12.82516  12.86727
 Alpha virt. eigenvalues --   12.91314  14.84676  14.95229  14.99620  15.23683
 Alpha virt. eigenvalues --   15.25569  15.42464  15.98321  15.98779  16.01332
 Alpha virt. eigenvalues --   16.80001  16.92785  21.89533  21.99768  22.06139
 Alpha virt. eigenvalues --   40.11263  40.17131  40.19353  40.20946  40.22016
[...]
 Alpha virt. eigenvalues --    6.91058   6.93376   7.08341   7.09342   7.10588
 Alpha virt. eigenvalues --    7.15349   7.18004   7.28855   7.43433   8.63503
 Alpha virt. eigenvalues --    9.51040   9.86115  11.90722  12.09335  12.28362
 Alpha virt. eigenvalues --   12.41562  12.63532  12.74167  12.95343  13.16379
 Alpha virt. eigenvalues --   13.46369  13.56320  13.60413  13.72956  13.96722
 Alpha virt. eigenvalues --   15.53425
          Condensed to atoms (all electrons):
               1          2          3          4          5          6
     1  C    5.418374   0.220212   0.008275  -0.045028  -0.021958   0.300927
     2  C    0.220212   5.402054   0.276671  -0.002332  -0.039305   0.024754
     3  C    0.008275   0.276671   5.494851   0.289242  -0.042737  -0.072233
     4  C   -0.045028  -0.002332   0.289242   5.208267   0.447029  -0.028391
     5  C   -0.021958  -0.039305  -0.042737   0.447029   5.041224   0.406339
     6  C    0.300927   0.024754  -0.072233  -0.028391   0.406339   4.864849
     7  H    0.452151  -0.033781   0.010282  -0.000555   0.003627  -0.075094
     8  H   -0.015251   0.436197  -0.098594   0.005355  -0.001657   0.008919
     9  H   -0.003358   0.008450  -0.104808   0.455638  -0.029834   0.010833
    10  H    0.014168  -0.005975   0.013817  -0.056234   0.450531  -0.076568
    11  C    0.006094  -0.083674   0.143447  -0.041434   0.008303  -0.001488
    12  H    0.000444  -0.004994  -0.047170   0.004175  -0.000282   0.000101
    13  H   -0.000187   0.007696  -0.035055  -0.007269  -0.000097   0.000001
    14  C    0.000143  -0.002211  -0.014160   0.000103  -0.000068  -0.000097
    15  H    0.000314   0.001409   0.009040  -0.000780  -0.000233  -0.000005
    16  C   -0.000010   0.000632  -0.017468   0.001784   0.000011   0.000000
    17  O   -0.090748   0.014097  -0.000781   0.003080  -0.049521   0.392890
    18  H   -0.004634   0.004719  -0.000450  -0.000683   0.002254  -0.043514
    19  O    0.000042  -0.000846  -0.001568  -0.000133  -0.000002   0.000002
    20  N   -0.000072   0.001233   0.001777  -0.000769  -0.000070   0.000027
    21  H   -0.000038  -0.000183  -0.005220   0.005072   0.000044   0.000014
    22  N    0.000001   0.000095   0.003742  -0.000134  -0.000001   0.000000
    23  H    0.000001  -0.000019   0.000227  -0.000036   0.000001   0.000000
    24  C   -0.000008   0.000037  -0.002151  -0.000103  -0.000003   0.000006
    25  C    0.000000  -0.000001   0.000063  -0.000035  -0.000008   0.000000
    26  H    0.000000   0.000002   0.000022  -0.000025   0.000001   0.000000
    27  H    0.000000   0.000000  -0.000018   0.000009   0.000000   0.000000
    28  H    0.000000   0.000012  -0.000017  -0.000034  -0.000009   0.000000
    29  C    0.000000  -0.000001  -0.000058   0.000005   0.000000   0.000000
    30  H    0.000000   0.000002  -0.000087   0.000001   0.000000   0.000000
    31  H    0.000000   0.000000  -0.000006   0.000000   0.000000   0.000000
    32  H    0.000000  -0.000001   0.000027   0.000000   0.000000   0.000000
    33  O   -0.000001  -0.000079   0.000183  -0.000017   0.000000   0.000000
               7          8          9         10         11         12
     1  C    0.452151  -0.015251  -0.003358   0.014168   0.006094   0.000444
     2  C   -0.033781   0.436197   0.008450  -0.005975  -0.083674  -0.004994
     3  C    0.010282  -0.098594  -0.104808   0.013817   0.143447  -0.047170
     4  C   -0.000555   0.005355   0.455638  -0.056234  -0.041434   0.004175
     5  C    0.003627  -0.001657  -0.029834   0.450531   0.008303  -0.000282
     6  C   -0.075094   0.008919   0.010833  -0.076568  -0.001488   0.000101
     7  H    0.533965  -0.007496   0.000051  -0.000221  -0.000276  -0.000042
     8  H   -0.007496   0.502487  -0.000158   0.000038  -0.004115   0.001739
     9  H    0.000051  -0.000158   0.515442  -0.009291   0.005969   0.000327
    10  H   -0.000221   0.000038  -0.009291   0.541013  -0.000311   0.000012
    11  C   -0.000276  -0.004115   0.005969  -0.000311   5.537355   0.430172
    12  H   -0.000042   0.001739   0.000327   0.000012   0.430172   0.437193
    13  H    0.000018   0.000635   0.001545  -0.000040   0.400540   0.000738
    14  C    0.000013  -0.001100  -0.000914   0.000025   0.161353  -0.065917
    15  H    0.000029   0.002534   0.000101   0.000010  -0.027652   0.002019
    16  C   -0.000007  -0.000386   0.000035  -0.000001  -0.034760   0.008600
    17  O   -0.004144  -0.000089  -0.000138   0.006222  -0.000008  -0.000001
    18  H    0.004485   0.000014   0.000047  -0.000933  -0.000010   0.000000
    19  O   -0.000004   0.006166   0.000001   0.000000  -0.000488   0.006824
    20  N   -0.000003   0.000529  -0.000037  -0.000004  -0.045763   0.004506
    21  H    0.000001  -0.000077   0.001729  -0.000020   0.004315   0.000655
    22  N    0.000000   0.000279   0.000007   0.000000   0.012257  -0.001189
    23  H    0.000000  -0.000017  -0.000015   0.000000   0.000865  -0.000197
    24  C   -0.000001   0.000077   0.000052  -0.000001   0.011888   0.000192
    25  C    0.000000   0.000001   0.000047   0.000000   0.000312   0.000039
    26  H    0.000000   0.000000  -0.000007   0.000000   0.000003  -0.000001
    27  H    0.000000   0.000000   0.000000   0.000000  -0.000014  -0.000001
    28  H    0.000000   0.000000   0.000015  -0.000001  -0.000184  -0.000005
    29  C    0.000000  -0.000018   0.000000   0.000000  -0.000725  -0.000085
    30  H    0.000000  -0.000002   0.000000   0.000000  -0.000755   0.000389
    31  H    0.000000  -0.000001   0.000000   0.000000  -0.000071  -0.000013
    32  H    0.000000  -0.000002   0.000000   0.000000   0.000217  -0.000084
    33  O    0.000000  -0.000004   0.000001   0.000000   0.002163   0.000071
              13         14         15         16         17         18
     1  C   -0.000187   0.000143   0.000314  -0.000010  -0.090748  -0.004634
     2  C    0.007696  -0.002211   0.001409   0.000632   0.014097   0.004719
     3  C   -0.035055  -0.014160   0.009040  -0.017468  -0.000781  -0.000450
     4  C   -0.007269   0.000103  -0.000780   0.001784   0.003080  -0.000683
     5  C   -0.000097  -0.000068  -0.000233   0.000011  -0.049521   0.002254
     6  C    0.000001  -0.000097  -0.000005   0.000000   0.392890  -0.043514
     7  H    0.000018   0.000013   0.000029  -0.000007  -0.004144   0.004485
     8  H    0.000635  -0.001100   0.002534  -0.000386  -0.000089   0.000014
     9  H    0.001545  -0.000914   0.000101   0.000035  -0.000138   0.000047
    10  H   -0.000040   0.000025   0.000010  -0.000001   0.006222  -0.000933
    11  C    0.400540   0.161353  -0.027652  -0.034760  -0.000008  -0.000010
    12  H    0.000738  -0.065917   0.002019   0.008600  -0.000001   0.000000
    13  H    0.467121  -0.033836   0.004501  -0.011475   0.000000   0.000000
    14  C   -0.033836   5.501063   0.436472   0.176471   0.000001   0.000000
    15  H    0.004501   0.436472   0.418567  -0.076845   0.000000   0.000000
    16  C   -0.011475   0.176471  -0.076845   4.833926   0.000000   0.000000
    17  O    0.000000   0.000001   0.000000   0.000000   7.663548   0.360059
    18  H    0.000000   0.000000   0.000000   0.000000   0.360059   0.489361
    19  O    0.000867  -0.067536   0.005353   0.710805   0.000000   0.000000
    20  N   -0.005099   0.188192  -0.035086  -0.064378   0.000000   0.000000
    21  H    0.002250  -0.025739   0.001315   0.003596   0.000000   0.000000
    22  N    0.003610  -0.087132   0.005429   0.268554   0.000000   0.000000
    23  H    0.001679   0.001643   0.001078  -0.035481   0.000000   0.000000
    24  C   -0.000291  -0.091442  -0.004617   0.007695   0.000000   0.000000
    25  C   -0.000057   0.006675   0.001555  -0.001268   0.000000   0.000000
    26  H    0.000022  -0.000161   0.000124  -0.000223   0.000000   0.000000
    27  H   -0.000026  -0.000551  -0.000178   0.000562   0.000000   0.000000
    28  H   -0.000029   0.001397  -0.000287  -0.000142   0.000000   0.000000
    29  C   -0.000241   0.008106  -0.000666  -0.049335   0.000000   0.000000
    30  H   -0.000074  -0.000653  -0.000168  -0.002416   0.000000   0.000000
    31  H   -0.000024   0.000562  -0.000010   0.008604   0.000000   0.000000
    32  H    0.000009   0.001074   0.000153  -0.004605   0.000000   0.000000
    33  O   -0.000024   0.005092   0.015286   0.007076   0.000000   0.000000
              19         20         21         22         23         24
     1  C    0.000042  -0.000072  -0.000038   0.000001   0.000001  -0.000008
     2  C   -0.000846   0.001233  -0.000183   0.000095  -0.000019   0.000037
     3  C   -0.001568   0.001777  -0.005220   0.003742   0.000227  -0.002151
     4  C   -0.000133  -0.000769   0.005072  -0.000134  -0.000036  -0.000103
     5  C   -0.000002  -0.000070   0.000044  -0.000001   0.000001  -0.000003
     6  C    0.000002   0.000027   0.000014   0.000000   0.000000   0.000006
     7  H   -0.000004  -0.000003   0.000001   0.000000   0.000000  -0.000001
     8  H    0.006166   0.000529  -0.000077   0.000279  -0.000017   0.000077
     9  H    0.000001  -0.000037   0.001729   0.000007  -0.000015   0.000052
    10  H    0.000000  -0.000004  -0.000020   0.000000   0.000000  -0.000001
    11  C   -0.000488  -0.045763   0.004315   0.012257   0.000865   0.011888
    12  H    0.006824   0.004506   0.000655  -0.001189  -0.000197   0.000192
    13  H    0.000867  -0.005099   0.002250   0.003610   0.001679  -0.000291
    14  C   -0.067536   0.188192  -0.025739  -0.087132   0.001643  -0.091442
    15  H    0.005353  -0.035086   0.001315   0.005429   0.001078  -0.004617
    16  C    0.710805  -0.064378   0.003596   0.268554  -0.035481   0.007695
    17  O    0.000000   0.000000   0.000000   0.000000   0.000000   0.000000
    18  H    0.000000   0.000000   0.000000   0.000000   0.000000   0.000000
    19  O    7.840496   0.005387  -0.000237  -0.128489   0.005374  -0.001313
    20  N    0.005387   6.665507   0.360524   0.005201   0.025596   0.310853
    21  H   -0.000237   0.360524   0.501902  -0.000531  -0.000208  -0.016599
    22  N   -0.128489   0.005201  -0.000531   6.514096   0.382999   0.010289
    23  H    0.005374   0.025596  -0.000208   0.382999   0.521379  -0.004531
    24  C   -0.001313   0.310853  -0.016599   0.010289  -0.004531   4.618088
    25  C   -0.000012  -0.063490  -0.001471  -0.000315   0.000395   0.277560
    26  H    0.000001   0.000354  -0.000184   0.000005   0.000149  -0.027987
    27  H   -0.000003  -0.001210   0.000295   0.000203  -0.000555  -0.022404
    28  H    0.000000   0.012976  -0.000941   0.000101   0.000100  -0.058616
    29  C    0.007282  -0.001886   0.000085   0.288554  -0.033064   0.000170
    30  H    0.005749  -0.000148   0.000002  -0.047490   0.002410   0.000187
    31  H    0.001497  -0.000177   0.000026  -0.028315  -0.007967  -0.000053
    32  H    0.004623  -0.000184   0.000006  -0.049317   0.002085  -0.000502
    33  O   -0.000339  -0.133349   0.004795  -0.006175  -0.003343   0.719592
              25         26         27         28         29         30
     1  C    0.000000   0.000000   0.000000   0.000000   0.000000   0.000000
     2  C   -0.000001   0.000002   0.000000   0.000012  -0.000001   0.000002
     3  C    0.000063   0.000022  -0.000018  -0.000017  -0.000058  -0.000087
     4  C   -0.000035  -0.000025   0.000009  -0.000034   0.000005   0.000001
     5  C   -0.000008   0.000001   0.000000  -0.000009   0.000000   0.000000
     6  C    0.000000   0.000000   0.000000   0.000000   0.000000   0.000000
     7  H    0.000000   0.000000   0.000000   0.000000   0.000000   0.000000
     8  H    0.000001   0.000000   0.000000   0.000000  -0.000018  -0.000002
     9  H    0.000047  -0.000007   0.000000   0.000015   0.000000   0.000000
    10  H    0.000000   0.000000   0.000000  -0.000001   0.000000   0.000000
    11  C    0.000312   0.000003  -0.000014  -0.000184  -0.000725  -0.000755
    12  H    0.000039  -0.000001  -0.000001  -0.000005  -0.000085   0.000389
    13  H   -0.000057   0.000022  -0.000026  -0.000029  -0.000241  -0.000074
    14  C    0.006675  -0.000161  -0.000551   0.001397   0.008106  -0.000653
    15  H    0.001555   0.000124  -0.000178  -0.000287  -0.000666  -0.000168
    16  C   -0.001268  -0.000223   0.000562  -0.000142  -0.049335  -0.002416
    17  O    0.000000   0.000000   0.000000   0.000000   0.000000   0.000000
    18  H    0.000000   0.000000   0.000000   0.000000   0.000000   0.000000
    19  O   -0.000012   0.000001  -0.000003   0.000000   0.007282   0.005749
    20  N   -0.063490   0.000354  -0.001210   0.012976  -0.001886  -0.000148
    21  H   -0.001471  -0.000184   0.000295  -0.000941   0.000085   0.000002
    22  N   -0.000315   0.000005   0.000203   0.000101   0.288554  -0.047490
    23  H    0.000395   0.000149  -0.000555   0.000100  -0.033064   0.002410
    24  C    0.277560  -0.027987  -0.022404  -0.058616   0.000170   0.000187
    25  C    4.990787   0.392062   0.381355   0.396840  -0.000062   0.000001
    26  H    0.392062   0.558924  -0.023348  -0.024644  -0.000003   0.000000
    27  H    0.381355  -0.023348   0.573647  -0.027401   0.000027   0.000002
    28  H    0.396840  -0.024644  -0.027401   0.598880   0.000000   0.000000
    29  C   -0.000062  -0.000003   0.000027   0.000000   4.759819   0.396864
    30  H    0.000001   0.000000   0.000002   0.000000   0.396864   0.612785
    31  H   -0.000011   0.000000   0.000011   0.000001   0.393711  -0.026439
    32  H   -0.000012  -0.000001  -0.000005  -0.000002   0.400902  -0.054693
    33  O   -0.067909   0.001412   0.001651   0.004444   0.000299   0.000011
              31         32         33
     1  C    0.000000   0.000000  -0.000001
     2  C    0.000000  -0.000001  -0.000079
     3  C   -0.000006   0.000027   0.000183
     4  C    0.000000   0.000000  -0.000017
     5  C    0.000000   0.000000   0.000000
     6  C    0.000000   0.000000   0.000000
     7  H    0.000000   0.000000   0.000000
     8  H   -0.000001  -0.000002  -0.000004
     9  H    0.000000   0.000000   0.000001
    10  H    0.000000   0.000000   0.000000
    11  C   -0.000071   0.000217   0.002163
    12  H   -0.000013  -0.000084   0.000071
    13  H   -0.000024   0.000009  -0.000024
    14  C    0.000562   0.001074   0.005092
    15  H   -0.000010   0.000153   0.015286
    16  C    0.008604  -0.004605   0.007076
    17  O    0.000000   0.000000   0.000000
    18  H    0.000000   0.000000   0.000000
    19  O    0.001497   0.004623  -0.000339
    20  N   -0.000177  -0.000184  -0.133349
    21  H    0.000026   0.000006   0.004795
    22  N   -0.028315  -0.049317  -0.006175
    23  H   -0.007967   0.002085  -0.003343
    24  C   -0.000053  -0.000502   0.719592
    25  C   -0.000011  -0.000012  -0.067909
    26  H    0.000000  -0.000001   0.001412
    27  H    0.000011  -0.000005   0.001651
    28  H    0.000001  -0.000002   0.004444
    29  C    0.393711   0.400902   0.000299
    30  H   -0.026439  -0.054693   0.000011
    31  H    0.603981  -0.029266   0.000001
    32  H   -0.029266   0.614259   0.000423
    33  O    0.000001   0.000423   7.827894
 Mulliken charges:
               1
     1  C   -0.239852
     2  C   -0.224870
     3  C    0.190915
     4  C   -0.235770
     5  C   -0.173579
     6  C    0.287728
     7  H    0.117002
     8  H    0.163996
     9  H    0.148270
    10  H    0.123764
    11  C   -0.483525
    12  H    0.221780
    13  H    0.202592
    14  C   -0.096870
    15  H    0.241235
    16  C    0.270447
    17  O   -0.294468
    18  H    0.189285
    19  O   -0.399500
    20  N   -0.230940
    21  H    0.164822
    22  N   -0.146334
    23  H    0.139450
    24  C    0.273933
    25  C   -0.313041
    26  H    0.123503
    27  H    0.117950
    28  H    0.097542
    29  C   -0.169684
    30  H    0.114522
    31  H    0.083958
    32  H    0.114894
    33  O   -0.379157
 Sum of Mulliken charges =   0.00000
 Mulliken charges with hydrogens summed into heavy atoms:
               1
     1  C   -0.122850
     2  C   -0.060874
     3  C    0.190915
     4  C   -0.087499
     5  C   -0.049814
     6  C    0.287728
    11  C   -0.059153
    14  C    0.144365
    16  C    0.270447
    17  O   -0.105183
    19  O   -0.399500
    20  N   -0.066118
    22  N   -0.006883
    24  C    0.273933
    25  C    0.025955
    29  C    0.143690
    33  O   -0.379157
 Electronic spatial extent (au):  <R**2>=           5360.1553
 Charge=              0.0000 electrons
 Dipole moment (field-independent basis, Debye):
    X=             -0.7247    Y=              2.0990    Z=             -4.2700  Tot=              4.8129
 Quadrupole moment (field-independent basis, Debye-Ang):
   XX=            -91.1444   YY=            -99.7300   ZZ=           -101.5723
   XY=              8.2835   XZ=            -20.5819   YZ=             -4.5632
 Traceless Quadrupole moment (field-independent basis, Debye-Ang):
   XX=              6.3379   YY=             -2.2478   ZZ=             -4.0901
   XY=              8.2835   XZ=            -20.5819   YZ=             -4.5632
 Octapole moment (field-independent basis, Debye-Ang**2):
  XXX=             31.9090  YYY=             38.4421  ZZZ=             -2.0309  XYY=              1.9293
  XXY=            -32.9695  XXZ=             12.6734  XZZ=            -23.5034  YZZ=             -0.0597
  YYZ=            -11.9122  XYZ=             13.6831
 Hexadecapole moment (field-independent basis, Debye-Ang**3):
 XXXX=          -4630.7992 YYYY=          -1373.8790 ZZZZ=           -492.4510 XXXY=            103.2567
 XXXZ=           -365.9064 YYYX=             52.1629 YYYZ=             22.5743 ZZZX=            -56.0417
 ZZZY=            -25.6005 XXYY=          -1062.0641 XXZZ=           -869.7382 YYZZ=           -327.4976
 XXYZ=            -72.9489 YYXZ=            -42.2899 ZZXY=             -9.4360
 N-N= 1.196094169319D+03 E-N=-4.262438762606D+03  KE= 7.961984887843D+02
 Calculating spin-rotation constants.
 Leave Link  601 at Wed Jun 25 15:16:10 2014, MaxMem=  4294967296 cpu:        91.1
 (Enter /home/ztw1e12/g09/l9999.exe)

 Test job not archived.
 1\1\GINC-GREEN0237\SP\RM06\Gen\C12H16N2O3\ROOT\25-Jun-2014\0\\#P Geom=
 AllCheck Guess=TCheck SCRF=Check GenChk RM06/ChkBas NMR=ReadFC IOp(3/6
 =22)\\NMR spin-spin scan\\0,1\C,0,2.201753,-2.693854,1.403248\C,0,1.57
 012,-1.466983,1.477871\C,0,1.516913,-0.616196,0.379946\C,0,2.10962,-1.
 033811,-0.804439\C,0,2.744881,-2.260094,-0.896936\C,0,2.792567,-3.0907
 11,0.211311\H,0,2.246529,-3.350222,2.264797\H,0,1.107485,-1.157634,2.4
 0989\H,0,2.07769,-0.382549,-1.671272\H,0,3.209457,-2.582389,-1.820181\
 C,0,0.805394,0.697817,0.479572\H,0,1.060811,1.166896,1.433011\H,0,1.12
 8333,1.383428,-0.30789\C,0,-0.719888,0.554127,0.423281\H,0,-1.01532,-0
 .390137,0.88972\C,0,-1.348912,1.632163,1.289283\O,0,3.433581,-4.286675
 ,0.083221\H,0,3.402511,-4.756846,0.923939\O,0,-1.40658,1.465545,2.5069
 38\N,0,-1.167171,0.580886,-0.952054\H,0,-0.480835,0.709149,-1.681203\N
 ,0,-1.746574,2.754622,0.689871\H,0,-1.746738,2.787195,-0.316969\C,0,-2
 .425047,0.227833,-1.288741\C,0,-2.740673,0.189548,-2.746666\H,0,-3.070
 882,-0.816334,-3.005584\H,0,-3.572777,0.865253,-2.942909\H,0,-1.896891
 ,0.464231,-3.376191\C,0,-2.363245,3.830715,1.431936\H,0,-1.694019,4.19
 5444,2.210633\H,0,-2.583627,4.647454,0.751521\H,0,-3.291682,3.505887,1
 .903229\O,0,-3.26594,-0.036223,-0.433312\\Version=EM64L-G09RevD.01\Sta
 te=1-A\HF=-801.8618353\RMSD=4.233e-09\Dipole=0.9334733,0.5774786,-1.54
 29151\Quadrupole=-10.5045287,9.8798036,0.6247251,-5.6260177,8.4358751,
 -9.6812007\PG=C01 [X(C12H16N2O3)]\\@


 ... UNTIL SCIENCE IS MIXED WITH EMOTION AND APPEALS TO THE HEART AND
 IMAGINATION , IT IS LIKE DEAD INORGANIC MATTER; AND WHEN IT IS SO MIXED
 AND SO TRANSFORMED IT IS LITERATURE.

                                  -- JOHN BURROUGHS
 Job cpu time:       3 days  5 hours 36 minutes 20.2 seconds.
 File lengths (MBytes):  RWF=   3656 Int=      0 D2E=      0 Chk=     64 Scr=      8
 Normal termination of Gaussian 09 at Wed Jun 25 15:16:10 2014.
