 Entering Gaussian System, Link 0=g09
 Input=scan_input_24.gjf
 Output=scan_input_24.log
 Initial command:
 /home/ztw1e12/g09/l1.exe "/home/ztw1e12/tyrosine_scan/tyrosine_chi1_scan/Gau-24506.inp" -scrdir="/home/ztw1e12/tyrosine_scan/tyrosine_chi1_scan/"
 Default is to use a total of   8 processors:
                                8 via shared-memory
                                1 via Linda
 Entering Link 1 = /home/ztw1e12/g09/l1.exe PID=     24507.
  
 Copyright (c) 1988,1990,1992,1993,1995,1998,2003,2009,2013,
            Gaussian, Inc.  All Rights Reserved.
  
 This is part of the Gaussian(R) 09 program.  It is based on
 the Gaussian(R) 03 system (copyright 2003, Gaussian, Inc.),
 the Gaussian(R) 98 system (copyright 1998, Gaussian, Inc.),
 the Gaussian(R) 94 system (copyright 1995, Gaussian, Inc.),
 the Gaussian 92(TM) system (copyright 1992, Gaussian, Inc.),
 the Gaussian 90(TM) system (copyright 1990, Gaussian, Inc.),
 the Gaussian 88(TM) system (copyright 1988, Gaussian, Inc.),
 the Gaussian 86(TM) system (copyright 1986, Carnegie Mellon
 University), and the Gaussian 82(TM) system (copyright 1983,
 Carnegie Mellon University). Gaussian is a federally registered
 trademark of Gaussian, Inc.
  
 This software contains proprietary and confidential information,
 including trade secrets, belonging to Gaussian, Inc.
  
 This software is provided under written license and may be
 used, copied, transmitted, or stored only in accord with that
 written license.
  
 The following legend is applicable only to US Government
 contracts under FAR:
  
                    RESTRICTED RIGHTS LEGEND
  
 Use, reproduction and disclosure by the US Government is
 subject to restrictions as set forth in subparagraphs (a)
 and (c) of the Commercial Computer Software - Restricted
 Rights clause in FAR 52.227-19.
  
 Gaussian, Inc.
 340 Quinnipiac St., Bldg. 40, Wallingford CT 06492
  
  
 ---------------------------------------------------------------
 Warning -- This program may not be used in any manner that
 competes with the business of Gaussian, Inc. or will provide
 assistance to any competitor of Gaussian, Inc.  The licensee
 of this program is prohibited from giving any competitor of
 Gaussian, Inc. access to this program.  By using this program,
 the user acknowledges that Gaussian, Inc. is engaged in the
 business of creating and licensing software in the field of
 computational chemistry and represents and warrants to the
 licensee that it is not a competitor of Gaussian, Inc. and that
 it will not use this program in any manner prohibited above.
 ---------------------------------------------------------------
  

 Cite this work as:
 Gaussian 09, Revision D.01,
 M. J. Frisch, G. W. Trucks, H. B. Schlegel, G. E. Scuseria, 
 M. A. Robb, J. R. Cheeseman, G. Scalmani, V. Barone, B. Mennucci, 
 G. A. Petersson, H. Nakatsuji, M. Caricato, X. Li, H. P. Hratchian, 
 A. F. Izmaylov, J. Bloino, G. Zheng, J. L. Sonnenberg, M. Hada, 
 M. Ehara, K. Toyota, R. Fukuda, J. Hasegawa, M. Ishida, T. Nakajima, 
 Y. Honda, O. Kitao, H. Nakai, T. Vreven, J. A. Montgomery, Jr., 
 J. E. Peralta, F. Ogliaro, M. Bearpark, J. J. Heyd, E. Brothers, 
 K. N. Kudin, V. N. Staroverov, T. Keith, R. Kobayashi, J. Normand, 
 K. Raghavachari, A. Rendell, J. C. Burant, S. S. Iyengar, J. Tomasi, 
 M. Cossi, N. Rega, J. M. Millam, M. Klene, J. E. Knox, J. B. Cross, 
 V. Bakken, C. Adamo, J. Jaramillo, R. Gomperts, R. E. Stratmann, 
 O. Yazyev, A. J. Austin, R. Cammi, C. Pomelli, J. W. Ochterski, 
 R. L. Martin, K. Morokuma, V. G. Zakrzewski, G. A. Voth, 
 P. Salvador, J. J. Dannenberg, S. Dapprich, A. D. Daniels, 
 O. Farkas, J. B. Foresman, J. V. Ortiz, J. Cioslowski, 
 and D. J. Fox, Gaussian, Inc., Wallingford CT, 2013.
 
 ******************************************
 Gaussian 09:  EM64L-G09RevD.01 24-Apr-2013
                24-Jun-2014 
 ******************************************
 %Mem=32GB
 %NProcShared=16
 Will use up to   16 processors via shared memory.
 Default route:  MaxDisk=100GB
 ----------------------------------------------------------------------
 #p nmr=(giao,mixed,spinspin) m06/cc-pvtz scf=tight integral=(grid=ultr
 afine)
 ----------------------------------------------------------------------
 1/38=1/1;
 2/12=2,17=6,18=5,40=1/2;
 3/5=16,6=1,10=1100000,11=2,16=1,25=1,30=1,74=-54,75=-5/1,2,8,3;
 4//1;
 5/5=2,32=2,38=5/2;
 8/6=1,10=90,11=11/1;
 10/13=100,45=16,47=3/2;
 6/7=2,8=2,9=2,10=2,28=1/1;
 99/9=1/99;
 Leave Link    1 at Tue Jun 24 16:43:33 2014, MaxMem=  4294967296 cpu:         5.5
 (Enter /home/ztw1e12/g09/l101.exe)
 ------------------
 NMR spin-spin scan
 ------------------
 Symbolic Z-matrix:
 Charge =  0 Multiplicity = 1
 C                     2.55232  -1.40543   2.0412 
 C                     1.94665  -0.42915   1.26878 
 C                     1.45695  -0.71402   0.00135 
 C                     1.58726  -2.01345  -0.47679 
 C                     2.18928  -2.99966   0.28041 
 C                     2.67271  -2.69387   1.54507 
 H                     2.93385  -1.17615   3.02947 
 H                     1.84887   0.57788   1.66132 
 H                     1.20933  -2.25522  -1.46452 
 H                     2.29374  -4.00948  -0.09557 
 C                     0.7645    0.33273  -0.81391 
 H                     1.05567   1.33524  -0.4889 
 H                     1.05702   0.23499  -1.8635 
 C                    -0.75938   0.21079  -0.76189 
 H                    -1.03978  -0.82953  -0.95558 
 C                    -1.26025   0.50495   0.64266 
 O                     3.26003  -3.69505   2.25907 
 H                     3.54517  -3.35159   3.11333 
 O                    -1.48037  -0.41542   1.42779 
 N                    -1.34045   1.05537  -1.781 
 H                    -0.7275    1.58272  -2.38445 
 N                    -1.37357   1.78932   0.9863 
 H                    -1.16521   2.49727   0.30052 
 C                    -2.66386   1.04582  -2.02675 
 C                    -3.13888   1.87792  -3.17058 
 H                    -3.64198   1.22911  -3.88741 
 H                    -3.87574   2.59259  -2.80483 
 H                    -2.33723   2.41329  -3.67441 
 C                    -1.74297   2.18448   2.32589 
 H                    -1.01386   1.82817   3.05532 
 H                    -1.78467   3.26828   2.37437 
 H                    -2.7204    1.78464   2.59642 
 O                    -3.4364    0.37998  -1.34028 
 
 NAtoms=     33 NQM=       33 NQMF=       0 NMMI=      0 NMMIF=      0
                NMic=       0 NMicF=      0.
                    Isotopes and Nuclear Properties:
 (Nuclear quadrupole moments (NQMom) in fm**2, nuclear magnetic moments (NMagM)
  in nuclear magnetons)

  Atom         1           2           3           4           5           6           7           8           9          10
 IAtWgt=          12          12          12          12          12          12           1           1           1           1
 AtmWgt=  12.0000000  12.0000000  12.0000000  12.0000000  12.0000000  12.0000000   1.0078250   1.0078250   1.0078250   1.0078250
 NucSpn=           0           0           0           0           0           0           1           1           1           1
 AtZEff=   0.0000000   0.0000000   0.0000000   0.0000000   0.0000000   0.0000000   0.0000000   0.0000000   0.0000000   0.0000000
 NQMom=    0.0000000   0.0000000   0.0000000   0.0000000   0.0000000   0.0000000   0.0000000   0.0000000   0.0000000   0.0000000
 NMagM=    0.0000000   0.0000000   0.0000000   0.0000000   0.0000000   0.0000000   2.7928460   2.7928460   2.7928460   2.7928460
 AtZNuc=   6.0000000   6.0000000   6.0000000   6.0000000   6.0000000   6.0000000   1.0000000   1.0000000   1.0000000   1.0000000

  Atom        11          12          13          14          15          16          17          18          19          20
 IAtWgt=          12           1           1          12           1          12          16           1          16          14
 AtmWgt=  12.0000000   1.0078250   1.0078250  12.0000000   1.0078250  12.0000000  15.9949146   1.0078250  15.9949146  14.0030740
 NucSpn=           0           1           1           0           1           0           0           1           0           2
 AtZEff=   0.0000000   0.0000000   0.0000000   0.0000000   0.0000000   0.0000000   0.0000000   0.0000000   0.0000000   0.0000000
 NQMom=    0.0000000   0.0000000   0.0000000   0.0000000   0.0000000   0.0000000   0.0000000   0.0000000   0.0000000   2.0440000
 NMagM=    0.0000000   2.7928460   2.7928460   0.0000000   2.7928460   0.0000000   0.0000000   2.7928460   0.0000000   0.4037610
 AtZNuc=   6.0000000   1.0000000   1.0000000   6.0000000   1.0000000   6.0000000   8.0000000   1.0000000   8.0000000   7.0000000

  Atom        21          22          23          24          25          26          27          28          29          30
 IAtWgt=           1          14           1          12          12           1           1           1          12           1
 AtmWgt=   1.0078250  14.0030740   1.0078250  12.0000000  12.0000000   1.0078250   1.0078250   1.0078250  12.0000000   1.0078250
 NucSpn=           1           2           1           0           0           1           1           1           0           1
 AtZEff=   0.0000000   0.0000000   0.0000000   0.0000000   0.0000000   0.0000000   0.0000000   0.0000000   0.0000000   0.0000000
 NQMom=    0.0000000   2.0440000   0.0000000   0.0000000   0.0000000   0.0000000   0.0000000   0.0000000   0.0000000   0.0000000
 NMagM=    2.7928460   0.4037610   2.7928460   0.0000000   0.0000000   2.7928460   2.7928460   2.7928460   0.0000000   2.7928460
 AtZNuc=   1.0000000   7.0000000   1.0000000   6.0000000   6.0000000   1.0000000   1.0000000   1.0000000   6.0000000   1.0000000

  Atom        31          32          33
 IAtWgt=           1           1          16
 AtmWgt=   1.0078250   1.0078250  15.9949146
 NucSpn=           1           1           0
 AtZEff=   0.0000000   0.0000000   0.0000000
 NQMom=    0.0000000   0.0000000   0.0000000
 NMagM=    2.7928460   2.7928460   0.0000000
 AtZNuc=   1.0000000   1.0000000   8.0000000
 Leave Link  101 at Tue Jun 24 16:43:33 2014, MaxMem=  4294967296 cpu:         1.8
 (Enter /home/ztw1e12/g09/l202.exe)
                          Input orientation:                          
 ---------------------------------------------------------------------
 Center     Atomic      Atomic             Coordinates (Angstroms)
 Number     Number       Type             X           Y           Z
 ---------------------------------------------------------------------
      1          6           0        2.552320   -1.405433    2.041197
      2          6           0        1.946650   -0.429149    1.268782
      3          6           0        1.456952   -0.714020    0.001345
      4          6           0        1.587258   -2.013450   -0.476794
      5          6           0        2.189276   -2.999661    0.280408
      6          6           0        2.672711   -2.693874    1.545067
      7          1           0        2.933852   -1.176153    3.029467
      8          1           0        1.848866    0.577879    1.661317
      9          1           0        1.209327   -2.255217   -1.464521
     10          1           0        2.293742   -4.009480   -0.095574
     11          6           0        0.764497    0.332730   -0.813914
     12          1           0        1.055672    1.335242   -0.488896
     13          1           0        1.057023    0.234990   -1.863497
     14          6           0       -0.759382    0.210790   -0.761890
     15          1           0       -1.039780   -0.829528   -0.955578
     16          6           0       -1.260252    0.504949    0.642655
     17          8           0        3.260026   -3.695046    2.259069
     18          1           0        3.545167   -3.351589    3.113328
     19          8           0       -1.480369   -0.415424    1.427792
     20          7           0       -1.340452    1.055366   -1.781004
     21          1           0       -0.727499    1.582721   -2.384455
     22          7           0       -1.373566    1.789324    0.986298
     23          1           0       -1.165214    2.497271    0.300522
     24          6           0       -2.663861    1.045818   -2.026753
     25          6           0       -3.138875    1.877924   -3.170579
     26          1           0       -3.641984    1.229107   -3.887406
     27          1           0       -3.875742    2.592593   -2.804828
     28          1           0       -2.337225    2.413288   -3.674410
     29          6           0       -1.742965    2.184482    2.325889
     30          1           0       -1.013862    1.828171    3.055322
     31          1           0       -1.784670    3.268284    2.374367
     32          1           0       -2.720395    1.784644    2.596420
     33          8           0       -3.436401    0.379982   -1.340277
 ---------------------------------------------------------------------
                    Distance matrix (angstroms):
                    1          2          3          4          5
     1  C    0.000000
     2  C    1.384410   0.000000
     3  C    2.416377   1.388291   0.000000
     4  C    2.764292   2.384577   1.390725   0.000000
     5  C    2.402861   2.764649   2.416264   1.381446   0.000000
     6  C    1.385900   2.394259   2.789439   2.393555   1.388012
     7  H    1.083888   2.152346   3.400636   3.848149   3.381849
     8  H    2.138383   1.085242   2.139651   3.369710   3.849881
     9  H    3.849133   3.368845   2.141348   1.084845   2.135246
    10  H    3.378419   3.847169   3.401421   2.151414   1.082594
    11  C    3.790670   2.513079   1.496605   2.509013   3.785811
    12  H    4.019033   2.645061   2.144956   3.390644   4.546237
    13  H    4.491496   3.323205   2.130305   2.694360   4.042436
    14  C    4.629994   3.443219   2.519908   3.245804   4.481960
    15  H    4.713333   3.745243   2.676325   2.920999   4.082149
    16  C    4.487893   3.398352   3.046369   3.962804   4.930797
    17  O    2.406376   3.656735   4.151495   3.620893   2.354817
    18  H    2.433667   3.807658   4.582778   4.302674   3.160337
    19  O    4.197495   3.430733   3.278988   3.948604   4.632609
    20  N    5.984850   4.723348   3.759383   4.437351   5.757746
    21  H    6.266791   4.954274   3.967227   4.682918   6.050396
    22  N    5.170287   4.003155   3.904958   5.036686   6.010533
    23  H    5.664019   4.380087   4.156639   5.341060   6.439664
    24  C    7.054459   5.856013   4.918466   5.462006   6.726205
    25  C    8.386462   7.133938   6.156371   6.688468   8.005582
    26  H    8.969868   7.782604   6.700543   7.035014   8.322064
    27  H    8.988223   7.721753   6.873567   7.515301   8.807748
    28  H    8.435546   7.132053   6.138975   6.724755   8.088870
    29  C    5.605177   4.643469   4.903497   6.047152   6.820693
    30  H    4.919583   4.129389   4.679149   5.830928   6.424033
    31  H    6.384678   5.368061   5.656686   6.884456   7.711293
    32  H    6.187599   5.333368   5.516155   6.513527   7.235907
    33  O    7.105410   6.036482   5.190539   5.631276   6.759944
                    6          7          8          9         10
     6  C    0.000000
     7  H    2.138952   0.000000
     8  H    3.375885   2.475007   0.000000
     9  H    3.375134   4.932980   4.266885   0.000000
    10  H    2.136853   4.266540   4.932387   2.475361   0.000000
    11  C    4.285604   4.664162   2.713434   2.705297   4.659334
    12  H    4.794330   4.713125   2.413746   3.723822   5.500325
    13  H    4.775668   5.427238   3.628898   2.526561   4.761360
    14  C    5.053552   5.471561   3.579056   3.232754   5.251307
    15  H    4.848876   5.638305   4.144057   2.711106   4.686584
    16  C    5.149273   5.110135   3.272553   4.261165   5.792748
    17  O    1.362748   2.654190   4.539446   4.488162   2.564550
    18  H    1.911338   2.261252   4.519568   5.254986   3.506556
    19  O    4.738477   4.757039   3.482096   4.357152   5.429714
    20  N    6.420672   6.811019   4.716918   4.190644   6.457608
    21  H    6.729921   7.094183   4.900575   4.396287   6.755708
    22  N    6.064952   5.614485   3.508179   5.388521   6.945914
    23  H    6.574690   6.143576   3.823677   5.598211   7.379639
    24  C    7.431164   7.863645   5.846840   5.120012   7.339163
    25  C    8.770016   9.200324   7.065048   6.237014   8.580822
    26  H    9.207438   9.842257   7.833381   6.445627   8.778020
    27  H    9.473677   9.726922   7.535029   7.152315   9.433449
    28  H    8.855817   9.252584   7.025814   6.265507   8.689411
    29  C    6.626178   5.801854   3.990499   6.541725   7.779695
    30  H    6.026656   4.960955   3.420774   6.484258   7.412595
    31  H    7.490214   6.515108   4.577041   7.362754   8.700569
    32  H    7.088587   6.397215   4.817556   6.946541   8.121593
    33  O    7.422604   7.880123   6.081347   5.342518   7.324698
                   11         12         13         14         15
    11  C    0.000000
    12  H    1.093366   0.000000
    13  H    1.093960   1.760706   0.000000
    14  C    1.529635   2.152519   2.124488   0.000000
    15  H    2.150890   3.048760   2.520734   1.094714   0.000000
    16  C    2.500172   2.708006   3.423951   1.519917   2.093749
    17  O    5.647466   6.141196   6.106878   6.366898   6.085514
    18  H    6.060492   6.414046   6.619909   6.799779   6.628614
    19  O    3.259510   3.629053   4.206421   2.388864   2.458872
    20  N    2.426577   2.736656   2.535293   1.445526   2.079557
    21  H    2.501026   2.614209   2.296148   2.125071   2.821020
    22  N    3.151784   2.878122   4.055250   2.434164   3.277298
    23  H    3.106604   2.627894   3.839171   2.553706   3.558246
    24  C    3.705821   4.035306   3.811702   2.433966   2.702217
    25  C    4.814334   5.008009   4.691829   3.774004   4.079550
    26  H    5.446735   5.799061   5.212019   4.372095   4.427760
    27  H    5.531956   5.591361   5.547663   4.422475   4.813867
    28  H    4.704449   4.777178   4.421008   3.977859   4.426202
    29  C    4.424332   4.059137   5.402907   3.794374   4.510737
    30  H    4.513302   4.133695   5.569701   4.153527   4.811585
    31  H    5.028008   4.472412   5.935957   4.498399   5.332491
    32  H    5.087524   4.896919   6.046584   4.195335   4.719645
    33  O    4.234009   4.670770   4.526107   2.744010   2.711955
                   16         17         18         19         20
    16  C    0.000000
    17  O    6.378532   0.000000
    18  H    6.638461   0.963860   0.000000
    19  O    1.229625   5.823941   6.059547   0.000000
    20  N    2.486667   7.749387   8.200306   3.532587   0.000000
    21  H    3.257117   8.081924   8.533974   4.369511   1.008944
    22  N    1.334372   7.291669   7.426115   2.251053   2.863172
    23  H    2.023718   7.858972   8.019272   3.139085   2.538218
    24  C    3.064049   8.714155   9.182029   3.933162   1.346067
    25  C    4.467106  10.073977  10.559911   5.399547   2.416991
    26  H    5.168995  10.472067  11.029424   5.968952   3.124766
    27  H    4.804600  10.774815  11.199454   5.718483   3.136714
    28  H    4.841351  10.190541  10.672850   5.896463   2.534264
    29  C    2.426339   7.720313   7.696264   2.763159   4.278258
    30  H    2.762714   7.028945   6.900581   2.810730   4.908558
    31  H    3.303008   8.599431   8.530882   3.815535   4.728789
    32  H    2.754421   8.118266   8.118211   2.782742   4.647357
    33  O    2.946737   8.625734   9.083034   3.481514   2.245748
                   21         22         23         24         25
    21  H    0.000000
    22  N    3.438323   0.000000
    23  H    2.870034   1.007417   0.000000
    24  C    2.041008   3.360973   3.125519   0.000000
    25  C    2.553404   4.517056   4.040726   1.492105   0.000000
    26  H    3.298201   5.404864   5.028058   2.110059   1.089919
    27  H    3.332865   4.612891   4.123014   2.113426   1.089724
    28  H    2.223745   4.800018   4.144967   2.165973   1.087705
    29  C    4.855989   1.444683   2.129259   4.592396   5.679234
    30  H    5.452836   2.100418   2.838930   5.400191   6.578754
    31  H    5.158015   2.069557   2.297612   5.008212   5.874810
    32  H    5.368568   2.099158   2.863140   4.682178   5.782915
    33  O    3.142457   3.413866   3.511898   1.229392   2.383770
                   26         27         28         29         30
    26  H    0.000000
    27  H    1.756619   0.000000
    28  H    1.774837   1.776333   0.000000
    29  C    6.566890   5.571315   6.033994   0.000000
    30  H    7.447642   6.566282   6.883527   1.091156   0.000000
    31  H    6.842343   5.626118   6.133844   1.085687   1.769681
    32  H    6.572515   5.582212   6.313899   1.090150   1.767694
    33  O    2.692795   2.689531   3.284920   4.423202   5.223719
                   31         32         33
    31  H    0.000000
    32  H    1.768071   0.000000
    33  O    4.986891   4.240675   0.000000
 Stoichiometry    C12H16N2O3
 Framework group  C1[X(C12H16N2O3)]
 Deg. of freedom    93
 Full point group                 C1      NOp   1
 Largest Abelian subgroup         C1      NOp   1
 Largest concise Abelian subgroup C1      NOp   1
                         Standard orientation:                         
 ---------------------------------------------------------------------
 Center     Atomic      Atomic             Coordinates (Angstroms)
 Number     Number       Type             X           Y           Z
 ---------------------------------------------------------------------
      1          6           0        3.374304    0.750300   -0.497737
      2          6           0        2.081460    0.583378   -0.963873
      3          6           0        1.373766   -0.586262   -0.722079
      4          6           0        1.997363   -1.592822    0.007358
      5          6           0        3.286944   -1.443106    0.479545
      6          6           0        3.977360   -0.265894    0.226412
      7          1           0        3.921931    1.665454   -0.691160
      8          1           0        1.609344    1.382443   -1.526325
      9          1           0        1.459503   -2.513463    0.207390
     10          1           0        3.772122   -2.229754    1.043280
     11          6           0       -0.038613   -0.746884   -1.190280
     12          1           0       -0.251740   -0.071939   -2.023632
     13          1           0       -0.192339   -1.767499   -1.552856
     14          6           0       -1.061147   -0.509529   -0.077684
     15          1           0       -0.766500   -1.085965    0.805098
     16          6           0       -1.025780    0.944330    0.364120
     17          8           0        5.247180   -0.158632    0.709252
     18          1           0        5.607448    0.702323    0.468442
     19          8           0       -0.360891    1.278841    1.342896
     20          7           0       -2.362029   -0.956247   -0.522312
     21          1           0       -2.449694   -1.362135   -1.441843
     22          7           0       -1.682614    1.822292   -0.396341
     23          1           0       -2.198428    1.486091   -1.193707
     24          6           0       -3.420216   -0.966716    0.309569
     25          6           0       -4.686907   -1.546483   -0.224977
     26          1           0       -4.981633   -2.382486    0.409183
     27          1           0       -5.473612   -0.795216   -0.160239
     28          1           0       -4.601462   -1.890688   -1.253241
     29          6           0       -1.633459    3.241090   -0.128563
     30          1           0       -0.611615    3.617925   -0.195292
     31          1           0       -2.245325    3.758970   -0.860777
     32          1           0       -2.015825    3.464897    0.867496
     33          8           0       -3.338804   -0.521420    1.452586
 ---------------------------------------------------------------------
 Rotational constants (GHZ):      0.9002386      0.2427308      0.2136428
 Leave Link  202 at Tue Jun 24 16:43:33 2014, MaxMem=  4294967296 cpu:         1.9
 (Enter /home/ztw1e12/g09/l301.exe)
 Standard basis: CC-pVTZ (5D, 7F)
 Converting basis for Fermi contact spin-spin IFCMod=1.
 AO basis functions are being uncontracted.
 Ernie: Thresh=  0.10000D-02 Tol=  0.10000D-05 Strict=F.
 There are  1305 symmetry adapted cartesian basis functions of A   symmetry.
 There are  1204 symmetry adapted basis functions of A   symmetry.
  1204 basis functions,  1305 primitive gaussians,  1305 cartesian basis functions
    63 alpha electrons       63 beta electrons
       nuclear repulsion energy      1211.8057100952 Hartrees.
 IExCor= 4235 DFT=T Ex+Corr=M06 ExCW=0 ScaHFX=  0.270000
 ScaDFX=  1.000000  1.000000  1.000000  1.000000 ScalE2=  1.000000  1.000000
 IRadAn= 199590 IRanWt=     -1 IRanGd=            0 ICorTp=0 IEmpDi=  4
 NAtoms=   33 NActive=   33 NUniq=   33 SFac= 1.00D+00 NAtFMM=   60 NAOKFM=F Big=F
 Integral buffers will be    131072 words long.
 Raffenetti 2 integral format.
 Two-electron integral symmetry is turned on.
 Leave Link  301 at Tue Jun 24 16:43:34 2014, MaxMem=  4294967296 cpu:         4.8
 (Enter /home/ztw1e12/g09/l302.exe)
 NPDir=0 NMtPBC=     1 NCelOv=     1 NCel=       1 NClECP=     1 NCelD=      1
         NCelK=      1 NCelE2=     1 NClLst=     1 CellRange=     0.0.
 One-electron integrals computed using PRISM.
 GSVD:  received Info=                   1 from GESDD.
 NBasis=  1204 RedAO= T EigKep=  2.58D-05  NBF=  1204
 NBsUse=  1068 1.00D-06 EigRej=  4.56D-15 NBFU=  1068
 Precomputing XC quadrature grid using
 IXCGrd= 4 IRadAn=      199590 IRanWt=          -1 IRanGd=           0 AccXCQ= 0.00D+00.
 Generated NRdTot=       0 NPtTot=           0 NUsed=           0 NTot=          32
 NSgBfM=   991   991   991   991   991 MxSgAt=    33 MxSgA2=    33.
 Leave Link  302 at Tue Jun 24 16:43:40 2014, MaxMem=  4294967296 cpu:        92.3
 (Enter /home/ztw1e12/g09/l308.exe)
 Leave Link  308 at Tue Jun 24 16:43:40 2014, MaxMem=  4294967296 cpu:         7.0
 (Enter /home/ztw1e12/g09/l303.exe)
 DipDrv:  MaxL=1.
 Leave Link  303 at Tue Jun 24 16:43:40 2014, MaxMem=  4294967296 cpu:         4.2
 (Enter /home/ztw1e12/g09/l401.exe)
 ExpMin= 1.03D-01 ExpMax= 1.38D+05 ExpMxC= 1.38D+05 IAcc=4 IRadAn=    199590 AccDes= 0.00D+00
 Harris functional with IExCor= 1009 and IRadAn=  199590 diagonalized for initial guess.
 HarFok:  IExCor= 1009 AccDes= 0.00D+00 IRadAn=    199590 IDoV= 1 UseB2=F ITyADJ=14
 ICtDFT=  3500011 ScaDFX=  1.000000  1.000000  1.000000  1.000000
 FoFCou: FMM=F IPFlag=           0 FMFlag=      100000 FMFlg1=           0
         NFxFlg=           0 DoJE=T BraDBF=F KetDBF=T FulRan=T
         wScrn=  0.000000 ICntrl=     500 IOpCl=  0 I1Cent=   200000004 NGrid=           0
         NMat0=    1 NMatS0=      1 NMatT0=    0 NMatD0=    1 NMtDS0=    0 NMtDT0=    0
 Petite list used in FoFCou.
 Harris En= -801.782304900303    
 JPrj=0 DoOrth=F DoCkMO=F.
 Leave Link  401 at Tue Jun 24 16:43:59 2014, MaxMem=  4294967296 cpu:       292.8
 (Enter /home/ztw1e12/g09/l502.exe)
 Closed shell SCF:
 Using DIIS extrapolation, IDIIS=  1040.
 Integral symmetry usage will be decided dynamically.
 IVT=     5158273 IEndB=     5158273 NGot=  4294967296 MDV=  4291529994
 LenX=  4291529994 LenY=  4289825664
 Requested convergence on RMS density matrix=1.00D-08 within 128 cycles.
 Requested convergence on MAX density matrix=1.00D-06.
 Requested convergence on             energy=1.00D-06.
 No special actions if energy rises.
 Fock matrices will be formed incrementally for  20 cycles.
 Integral accuracy reduced to 1.0D-05 until final iterations.

 Cycle   1  Pass 0  IDiag  1:
 FoFJK:  IHMeth= 1 ICntrl=       0 DoSepK=F KAlg= 0 I1Cent=   0 FoldK=F
 IRaf= 430000000 NMat=   1 IRICut=       1 DoRegI=T DoRafI=F ISym2E= 0.
 FoFCou: FMM=F IPFlag=           0 FMFlag=      100000 FMFlg1=           0
         NFxFlg=           0 DoJE=F BraDBF=F KetDBF=F FulRan=T
         wScrn=  0.000000 ICntrl=       0 IOpCl=  0 I1Cent=           0 NGrid=           0
         NMat0=    1 NMatS0=      1 NMatT0=    0 NMatD0=    1 NMtDS0=    0 NMtDT0=    0
 Symmetry not used in FoFCou.
 E= -801.446561229590    
 DIIS: error= 1.11D-01 at cycle   1 NSaved=   1.
 NSaved= 1 IEnMin= 1 EnMin= -801.446561229590     IErMin= 1 ErrMin= 1.11D-01
 ErrMax= 1.11D-01  0.00D+00 EMaxC= 1.00D-01 BMatC= 1.69D+01 BMatP= 1.69D+01
 IDIUse=3 WtCom= 0.00D+00 WtEn= 1.00D+00
 Coeff-Com:  0.100D+01
 Coeff-En:   0.100D+01
 Coeff:      0.100D+01
 Gap=     0.243 Goal=   None    Shift=    0.000
 GapD=    0.243 DampG=1.000 DampE=0.250 DampFc=0.2500 IDamp=-1.
 Damping current iteration by 2.50D-01
 RMSDP=2.44D-03 MaxDP=4.01D-01              OVMax= 3.20D-01

 Cycle   2  Pass 0  IDiag  1:
 RMSU=  6.07D-04    CP:  1.02D+00
 E= -801.605660918900     Delta-E=       -0.159099689310 Rises=F Damp=T
 DIIS: error= 8.46D-02 at cycle   2 NSaved=   2.
 NSaved= 2 IEnMin= 2 EnMin= -801.605660918900     IErMin= 2 ErrMin= 8.46D-02
 ErrMax= 8.46D-02  0.00D+00 EMaxC= 1.00D-01 BMatC= 1.00D+01 BMatP= 1.69D+01
 IDIUse=3 WtCom= 1.54D-01 WtEn= 8.46D-01
 Coeff-Com: -0.288D+01 0.388D+01
 Coeff-En:   0.000D+00 0.100D+01
 Coeff:     -0.443D+00 0.144D+01
 Gap=     0.287 Goal=   None    Shift=    0.000
 RMSDP=6.04D-04 MaxDP=8.48D-02 DE=-1.59D-01 OVMax= 2.33D-01

 Cycle   3  Pass 0  IDiag  1:
 RMSU=  5.98D-04    CP:  1.05D+00  1.09D+00
 E= -801.861563359141     Delta-E=       -0.255902440241 Rises=F Damp=F
 DIIS: error= 1.04D-02 at cycle   3 NSaved=   3.
 NSaved= 3 IEnMin= 3 EnMin= -801.861563359141     IErMin= 3 ErrMin= 1.04D-02
 ErrMax= 1.04D-02  0.00D+00 EMaxC= 1.00D-01 BMatC= 1.72D-01 BMatP= 1.00D+01
 IDIUse=3 WtCom= 8.96D-01 WtEn= 1.04D-01
 Coeff-Com: -0.204D+00 0.214D+00 0.990D+00
 Coeff-En:   0.000D+00 0.000D+00 0.100D+01
 Coeff:     -0.183D+00 0.191D+00 0.991D+00
 Gap=     0.229 Goal=   None    Shift=    0.000
 RMSDP=4.60D-04 MaxDP=4.89D-02 DE=-2.56D-01 OVMax= 1.51D-01

 Cycle   4  Pass 0  IDiag  1:
 RMSU=  4.24D-04    CP:  1.05D+00  1.08D+00  7.03D-01
 E= -801.784652308273     Delta-E=        0.076911050868 Rises=F Damp=F
 DIIS: error= 8.59D-03 at cycle   4 NSaved=   4.
 NSaved= 4 IEnMin= 3 EnMin= -801.861563359141     IErMin= 4 ErrMin= 8.59D-03
 ErrMax= 8.59D-03  0.00D+00 EMaxC= 1.00D-01 BMatC= 1.69D-01 BMatP= 1.72D-01
 IDIUse=3 WtCom= 9.14D-01 WtEn= 8.59D-02
 Coeff-Com:  0.111D+00-0.180D+00 0.567D+00 0.503D+00
 Coeff-En:   0.000D+00 0.000D+00 0.679D+00 0.321D+00
 Coeff:      0.101D+00-0.165D+00 0.576D+00 0.487D+00
 Gap=     0.256 Goal=   None    Shift=    0.000
 RMSDP=3.36D-04 MaxDP=3.16D-02 DE= 7.69D-02 OVMax= 8.23D-02

 Cycle   5  Pass 0  IDiag  1:
 RMSU=  9.09D-05    CP:  1.05D+00  1.11D+00  8.64D-01  2.71D-01
 E= -801.909052872828     Delta-E=       -0.124400564555 Rises=F Damp=F
 DIIS: error= 1.79D-03 at cycle   5 NSaved=   5.
 NSaved= 5 IEnMin= 5 EnMin= -801.909052872828     IErMin= 5 ErrMin= 1.79D-03
 ErrMax= 1.79D-03  0.00D+00 EMaxC= 1.00D-01 BMatC= 6.41D-03 BMatP= 1.69D-01
 IDIUse=3 WtCom= 9.82D-01 WtEn= 1.79D-02
 Coeff-Com:  0.444D-01-0.597D-01 0.157D-01 0.160D+00 0.839D+00
 Coeff-En:   0.000D+00 0.000D+00 0.000D+00 0.000D+00 0.100D+01
 Coeff:      0.436D-01-0.587D-01 0.154D-01 0.157D+00 0.842D+00
 Gap=     0.225 Goal=   None    Shift=    0.000
 RMSDP=7.64D-05 MaxDP=6.31D-03 DE=-1.24D-01 OVMax= 2.42D-02

 Cycle   6  Pass 0  IDiag  1:
 RMSU=  3.88D-05    CP:  1.05D+00  1.09D+00  8.75D-01  3.86D-01  5.25D-01
 E= -801.911665745379     Delta-E=       -0.002612872551 Rises=F Damp=F
 DIIS: error= 1.14D-03 at cycle   6 NSaved=   6.
 NSaved= 6 IEnMin= 6 EnMin= -801.911665745379     IErMin= 6 ErrMin= 1.14D-03
 ErrMax= 1.14D-03  0.00D+00 EMaxC= 1.00D-01 BMatC= 1.97D-03 BMatP= 6.41D-03
 IDIUse=3 WtCom= 9.89D-01 WtEn= 1.14D-02
 Coeff-Com:  0.243D-01-0.316D-01-0.106D-01 0.741D-01 0.486D+00 0.458D+00
 Coeff-En:   0.000D+00 0.000D+00 0.000D+00 0.000D+00 0.271D+00 0.729D+00
 Coeff:      0.240D-01-0.312D-01-0.105D-01 0.732D-01 0.483D+00 0.461D+00
 Gap=     0.226 Goal=   None    Shift=    0.000
 RMSDP=3.64D-05 MaxDP=4.03D-03 DE=-2.61D-03 OVMax= 1.63D-02

 Cycle   7  Pass 0  IDiag  1:
 RMSU=  1.27D-05    CP:  1.05D+00  1.08D+00  8.63D-01  3.85D-01  6.62D-01
                    CP:  2.17D-01
 E= -801.913288293258     Delta-E=       -0.001622547879 Rises=F Damp=F
 DIIS: error= 3.29D-04 at cycle   7 NSaved=   7.
 NSaved= 7 IEnMin= 7 EnMin= -801.913288293258     IErMin= 7 ErrMin= 3.29D-04
 ErrMax= 3.29D-04  0.00D+00 EMaxC= 1.00D-01 BMatC= 1.67D-04 BMatP= 1.97D-03
 IDIUse=3 WtCom= 9.97D-01 WtEn= 3.29D-03
 Coeff-Com:  0.101D-01-0.132D-01-0.433D-02 0.187D-01 0.129D+00 0.246D+00
 Coeff-Com:  0.614D+00
 Coeff-En:   0.000D+00 0.000D+00 0.000D+00 0.000D+00 0.000D+00 0.471D-01
 Coeff-En:   0.953D+00
 Coeff:      0.100D-01-0.131D-01-0.432D-02 0.187D-01 0.128D+00 0.245D+00
 Coeff:      0.615D+00
 Gap=     0.225 Goal=   None    Shift=    0.000
 RMSDP=1.26D-05 MaxDP=1.46D-03 DE=-1.62D-03 OVMax= 4.17D-03

 Cycle   8  Pass 0  IDiag  1:
 RMSU=  7.96D-06    CP:  1.05D+00  1.08D+00  8.67D-01  3.93D-01  6.41D-01
                    CP:  3.81D-01  5.44D-01
 E= -801.913413319294     Delta-E=       -0.000125026036 Rises=F Damp=F
 DIIS: error= 1.13D-04 at cycle   8 NSaved=   8.
 NSaved= 8 IEnMin= 8 EnMin= -801.913413319294     IErMin= 8 ErrMin= 1.13D-04
 ErrMax= 1.13D-04  0.00D+00 EMaxC= 1.00D-01 BMatC= 2.35D-05 BMatP= 1.67D-04
 IDIUse=3 WtCom= 9.99D-01 WtEn= 1.13D-03
 Coeff-Com:  0.484D-02-0.641D-02-0.105D-02 0.596D-02 0.387D-01 0.108D+00
 Coeff-Com:  0.362D+00 0.488D+00
 Coeff-En:   0.000D+00 0.000D+00 0.000D+00 0.000D+00 0.000D+00 0.000D+00
 Coeff-En:   0.630D-01 0.937D+00
 Coeff:      0.483D-02-0.640D-02-0.104D-02 0.596D-02 0.387D-01 0.108D+00
 Coeff:      0.362D+00 0.488D+00
 Gap=     0.225 Goal=   None    Shift=    0.000
 RMSDP=4.05D-06 MaxDP=4.14D-04 DE=-1.25D-04 OVMax= 9.18D-04

 Initial convergence to 1.0D-05 achieved.  Increase integral accuracy.
 Cycle   9  Pass 1  IDiag  1:
 E= -801.913396960657     Delta-E=        0.000016358637 Rises=F Damp=F
 DIIS: error= 2.88D-04 at cycle   1 NSaved=   1.
 NSaved= 1 IEnMin= 1 EnMin= -801.913396960657     IErMin= 1 ErrMin= 2.88D-04
 ErrMax= 2.88D-04  0.00D+00 EMaxC= 1.00D-01 BMatC= 2.55D-05 BMatP= 2.55D-05
 IDIUse=3 WtCom= 9.97D-01 WtEn= 2.88D-03
 Coeff-Com:  0.100D+01
 Coeff-En:   0.100D+01
 Coeff:      0.100D+01
 Gap=     0.225 Goal=   None    Shift=    0.000
 RMSDP=4.05D-06 MaxDP=4.14D-04 DE= 1.64D-05 OVMax= 8.71D-04

 Cycle  10  Pass 1  IDiag  1:
 RMSU=  1.42D-04    CP:  9.92D-01
 E= -801.913413066046     Delta-E=       -0.000016105389 Rises=F Damp=F
 DIIS: error= 3.99D-05 at cycle   2 NSaved=   2.
 NSaved= 2 IEnMin= 2 EnMin= -801.913413066046     IErMin= 2 ErrMin= 3.99D-05
 ErrMax= 3.99D-05  0.00D+00 EMaxC= 1.00D-01 BMatC= 2.28D-06 BMatP= 2.55D-05
 IDIUse=1 WtCom= 1.00D+00 WtEn= 0.00D+00
 Coeff-Com:  0.111D+00 0.889D+00
 Coeff:      0.111D+00 0.889D+00
 Gap=     0.225 Goal=   None    Shift=    0.000
 RMSDP=3.28D-06 MaxDP=2.71D-04 DE=-1.61D-05 OVMax= 9.81D-04

 Cycle  11  Pass 1  IDiag  1:
 RMSU=  2.55D-06    CP:  9.92D-01  1.01D+00
 E= -801.913410355785     Delta-E=        0.000002710261 Rises=F Damp=F
 DIIS: error= 7.30D-05 at cycle   3 NSaved=   3.
 NSaved= 3 IEnMin= 2 EnMin= -801.913413066046     IErMin= 2 ErrMin= 3.99D-05
 ErrMax= 7.30D-05  0.00D+00 EMaxC= 1.00D-01 BMatC= 5.85D-06 BMatP= 2.28D-06
 IDIUse=1 WtCom= 1.00D+00 WtEn= 0.00D+00
 Coeff-Com: -0.154D-02 0.618D+00 0.384D+00
 Coeff:     -0.154D-02 0.618D+00 0.384D+00
 Gap=     0.225 Goal=   None    Shift=    0.000
 RMSDP=1.59D-06 MaxDP=1.92D-04 DE= 2.71D-06 OVMax= 6.67D-04

 Cycle  12  Pass 1  IDiag  1:
 RMSU=  5.99D-07    CP:  9.92D-01  1.02D+00  4.38D-01
 E= -801.913414759408     Delta-E=       -0.000004403623 Rises=F Damp=F
 DIIS: error= 6.71D-06 at cycle   4 NSaved=   4.
 NSaved= 4 IEnMin= 4 EnMin= -801.913414759408     IErMin= 4 ErrMin= 6.71D-06
 ErrMax= 6.71D-06  0.00D+00 EMaxC= 1.00D-01 BMatC= 6.35D-08 BMatP= 2.28D-06
 IDIUse=1 WtCom= 1.00D+00 WtEn= 0.00D+00
 Coeff-Com: -0.322D-02 0.328D+00 0.215D+00 0.460D+00
 Coeff:     -0.322D-02 0.328D+00 0.215D+00 0.460D+00
 Gap=     0.225 Goal=   None    Shift=    0.000
 RMSDP=1.88D-07 MaxDP=2.32D-05 DE=-4.40D-06 OVMax= 5.24D-05

 Cycle  13  Pass 1  IDiag  1:
 RMSU=  1.63D-07    CP:  9.92D-01  1.02D+00  4.53D-01  8.64D-01
 E= -801.913414801596     Delta-E=       -0.000000042189 Rises=F Damp=F
 DIIS: error= 1.29D-06 at cycle   5 NSaved=   5.
 NSaved= 5 IEnMin= 5 EnMin= -801.913414801596     IErMin= 5 ErrMin= 1.29D-06
 ErrMax= 1.29D-06  0.00D+00 EMaxC= 1.00D-01 BMatC= 3.09D-09 BMatP= 6.35D-08
 IDIUse=1 WtCom= 1.00D+00 WtEn= 0.00D+00
 Coeff-Com: -0.146D-02 0.117D+00 0.784D-01 0.237D+00 0.569D+00
 Coeff:     -0.146D-02 0.117D+00 0.784D-01 0.237D+00 0.569D+00
 Gap=     0.225 Goal=   None    Shift=    0.000
 RMSDP=4.81D-08 MaxDP=6.12D-06 DE=-4.22D-08 OVMax= 1.10D-05

 Cycle  14  Pass 1  IDiag  1:
 RMSU=  4.11D-08    CP:  9.92D-01  1.02D+00  4.53D-01  8.89D-01  9.25D-01
 E= -801.913414803677     Delta-E=       -0.000000002080 Rises=F Damp=F
 DIIS: error= 3.83D-07 at cycle   6 NSaved=   6.
 NSaved= 6 IEnMin= 6 EnMin= -801.913414803677     IErMin= 6 ErrMin= 3.83D-07
 ErrMax= 3.83D-07  0.00D+00 EMaxC= 1.00D-01 BMatC= 2.71D-10 BMatP= 3.09D-09
 IDIUse=1 WtCom= 1.00D+00 WtEn= 0.00D+00
 Coeff-Com: -0.448D-03 0.291D-01 0.200D-01 0.754D-01 0.278D+00 0.598D+00
 Coeff:     -0.448D-03 0.291D-01 0.200D-01 0.754D-01 0.278D+00 0.598D+00
 Gap=     0.225 Goal=   None    Shift=    0.000
 RMSDP=2.29D-08 MaxDP=3.91D-06 DE=-2.08D-09 OVMax= 5.20D-06

 Cycle  15  Pass 1  IDiag  1:
 RMSU=  1.59D-08    CP:  9.92D-01  1.02D+00  4.54D-01  9.04D-01  9.49D-01
                    CP:  7.13D-01
 E= -801.913414803796     Delta-E=       -0.000000000119 Rises=F Damp=F
 DIIS: error= 2.52D-07 at cycle   7 NSaved=   7.
 NSaved= 7 IEnMin= 7 EnMin= -801.913414803796     IErMin= 7 ErrMin= 2.52D-07
 ErrMax= 2.52D-07  0.00D+00 EMaxC= 1.00D-01 BMatC= 9.23D-11 BMatP= 2.71D-10
 IDIUse=1 WtCom= 1.00D+00 WtEn= 0.00D+00
 Coeff-Com:  0.488D-05-0.487D-02-0.283D-02 0.131D-02 0.651D-01 0.393D+00
 Coeff-Com:  0.548D+00
 Coeff:      0.488D-05-0.487D-02-0.283D-02 0.131D-02 0.651D-01 0.393D+00
 Coeff:      0.548D+00
 Gap=     0.225 Goal=   None    Shift=    0.000
 RMSDP=9.21D-09 MaxDP=1.08D-06 DE=-1.19D-10 OVMax= 3.02D-06

 Cycle  16  Pass 1  IDiag  1:
 RMSU=  6.79D-09    CP:  9.92D-01  1.02D+00  4.55D-01  9.07D-01  9.60D-01
                    CP:  8.30D-01  8.66D-01
 E= -801.913414803796     Delta-E=       -0.000000000001 Rises=F Damp=F
 DIIS: error= 6.45D-08 at cycle   8 NSaved=   8.
 NSaved= 8 IEnMin= 8 EnMin= -801.913414803796     IErMin= 8 ErrMin= 6.45D-08
 ErrMax= 6.45D-08  0.00D+00 EMaxC= 1.00D-01 BMatC= 5.88D-12 BMatP= 9.23D-11
 IDIUse=1 WtCom= 1.00D+00 WtEn= 0.00D+00
 Coeff-Com:  0.446D-04-0.536D-02-0.342D-02-0.678D-02 0.659D-02 0.144D+00
 Coeff-Com:  0.283D+00 0.582D+00
 Coeff:      0.446D-04-0.536D-02-0.342D-02-0.678D-02 0.659D-02 0.144D+00
 Coeff:      0.283D+00 0.582D+00
 Gap=     0.225 Goal=   None    Shift=    0.000
 RMSDP=2.91D-09 MaxDP=3.98D-07 DE=-6.82D-13 OVMax= 5.81D-07

 SCF Done:  E(RM06) =  -801.913414804     A.U. after   16 cycles
            NFock= 16  Conv=0.29D-08     -V/T= 2.0044
 KE= 7.983660812458D+02 PE=-4.296490229516D+03 EE= 1.484405023371D+03
 Leave Link  502 at Tue Jun 24 17:20:13 2014, MaxMem=  4294967296 cpu:     34692.2
 (Enter /home/ztw1e12/g09/l801.exe)
 DoSCS=F DFT=T ScalE2(SS,OS)=  1.000000  1.000000
 Range of M.O.s used for correlation:     1  1068
 NBasis=  1204 NAE=    63 NBE=    63 NFC=     0 NFV=     0
 NROrb=   1068 NOA=    63 NOB=    63 NVA=  1005 NVB=  1005

 **** Warning!!: The largest alpha MO coefficient is  0.24985965D+02

 Leave Link  801 at Tue Jun 24 17:20:13 2014, MaxMem=  4294967296 cpu:         0.4
 (Enter /home/ztw1e12/g09/l1002.exe)
 Minotr:  Closed shell wavefunction.
          IDoAtm=111111111111111111111111111111111
          Direct CPHF calculation.
          Differentiating once with respect to Fermi-contact.
          Electric field/nuclear overlap derivatives assumed to be zero.
          Requested convergence is 1.0D-10 RMS, and 1.0D-09 maximum.
          Secondary convergence is 1.0D-12 RMS, and 1.0D-12 maximum.
          NewPWx=T KeepS1=F KeepF1=F KeepIn=T MapXYZ=F SortEE=F KeepMc=T.
          MDV=    4294965894 using IRadAn=  199590.
 Using stored XC quadrature information.
          Solving linear equations simultaneously, MaxMat=       0.
          There are    33 degrees of freedom in the 1st order CPHF.  IDoFFX=0 NUNeed=    33.
     33 vectors produced by pass  0 Test12= 1.92D-17 3.03D-11 XBig12= 4.29D+01 2.58D+00.
 AX will form    33 AO Fock derivatives at one time.
 FoFJK:  IHMeth= 1 ICntrl=       0 DoSepK=F KAlg= 0 I1Cent=   0 FoldK=F
 IRaf= 450000000 NMat=  33 IRICut=       1 DoRegI=T DoRafI=F ISym2E=-1.
 FoFCou: FMM=F IPFlag=           0 FMFlag=      100000 FMFlg1=           0
         NFxFlg=           0 DoJE=F BraDBF=F KetDBF=F FulRan=T
         wScrn=  0.000000 ICntrl=       0 IOpCl=  0 I1Cent=           0 NGrid=           0
         NMat0=   33 NMatS0=      0 NMatT0=   33 NMatD0=   33 NMtDS0=    0 NMtDT0=    0
 Petite list used in FoFCou.
     33 vectors produced by pass  1 Test12= 1.92D-17 3.03D-11 XBig12= 3.46D-01 1.89D-01.
     33 vectors produced by pass  2 Test12= 1.92D-17 3.03D-11 XBig12= 1.59D-02 4.19D-02.
     33 vectors produced by pass  3 Test12= 1.92D-17 3.03D-11 XBig12= 3.54D-04 6.00D-03.
     33 vectors produced by pass  4 Test12= 1.92D-17 3.03D-11 XBig12= 7.05D-06 1.16D-03.
     33 vectors produced by pass  5 Test12= 1.92D-17 3.03D-11 XBig12= 1.42D-07 1.69D-04.
     33 vectors produced by pass  6 Test12= 1.92D-17 3.03D-11 XBig12= 4.07D-09 1.61D-05.
     33 vectors produced by pass  7 Test12= 1.92D-17 3.03D-11 XBig12= 1.14D-10 4.29D-06.
     33 vectors produced by pass  8 Test12= 1.92D-17 3.03D-11 XBig12= 4.43D-12 3.00D-07.
     33 vectors produced by pass  9 Test12= 1.92D-17 3.03D-11 XBig12= 6.34D-14 8.30D-08.
     33 vectors produced by pass 10 Test12= 1.92D-17 3.03D-11 XBig12= 1.93D-15 8.27D-09.
     32 vectors produced by pass 11 Test12= 1.92D-17 3.03D-11 XBig12= 2.12D-17 5.94D-10.
     10 vectors produced by pass 12 Test12= 1.92D-17 3.03D-11 XBig12= 2.36D-19 7.06D-11.
 InvSVY:  IOpt=1 It=  1 EMax= 7.99D-15
 Solved reduced A of dimension   405 with    33 vectors.
 Max diff in FC couplings:  IJMax=    24    20 Diff= 4.20D-04 IJMaxR=    25    23 DiffR= 1.98D+00
 Fermi Contact (FC) contribution to K (Hz):
                1             2             3             4             5 
      1  0.123400D+11
      2  0.350390D+02  0.123400D+11
      3 -0.119508D+01  0.344774D+02  0.123400D+11
      4  0.307674D+01  0.233905D+00  0.339458D+02  0.123400D+11
      5  0.161487D+01  0.304191D+01 -0.125782D+01  0.352411D+02  0.123400D+11
      6  0.361702D+02 -0.223993D+00  0.433772D+01  0.214336D+00  0.389609D+02
      7  0.217557D+02 -0.316574D+00  0.966029D+00 -0.211308D+00  0.613256D+00
      8 -0.226873D+00  0.221629D+02 -0.273261D+00  0.990885D+00 -0.285279D+00
      9 -0.290434D+00  0.101858D+01 -0.238377D+00  0.220832D+02 -0.208853D+00
     10  0.671748D+00 -0.219965D+00  0.105540D+01 -0.278914D+00  0.229829D+02
     11  0.209691D+01  0.156772D+01  0.245563D+02  0.150860D+01  0.197628D+01
     12  0.367882D-02  0.768144D+00 -0.871167D+00  0.784105D+00  0.810423D-01
     13 -0.237195D-01  0.745278D+00 -0.112790D+01  0.631409D+00 -0.901035D-01
     14 -0.503664D+00  0.815652D+00 -0.149741D+00  0.806624D+00 -0.589190D+00
     15  0.145456D-01 -0.193188D-01  0.355095D+00 -0.275194D-01  0.123369D-01
     16  0.213819D-01 -0.161400D-01  0.112557D+00 -0.464218D-01  0.238827D-01
     17 -0.724815D+00 -0.907645D-01  0.266380D+00  0.307348D+01  0.116575D+02
     18  0.420474D+00 -0.107346D-01 -0.465797D-01  0.211387D+00  0.115189D+01
     19 -0.123760D-01  0.383375D+00  0.265958D+00  0.518215D-01  0.275957D-02
     20  0.104875D+00  0.656847D-01  0.323554D+01 -0.893291D-01  0.326766D-01
     21  0.248973D-03  0.263491D-02 -0.290081D-01 -0.192933D-05  0.642331D-03
     22  0.335653D-02  0.451923D-01 -0.130259D-01  0.662914D-01  0.268582D-02
     23 -0.493924D-03 -0.139851D-02  0.351480D-02 -0.167011D-03  0.284367D-03
     24  0.478880D-02  0.291011D-01  0.226037D+00  0.827815D-03 -0.845165D-03
     25  0.171117D-02  0.244007D-02  0.117162D+00 -0.234582D-02 -0.714463D-03
     26  0.265705D-04  0.746894D-03  0.180491D-02  0.802636D-03 -0.426579D-03
     27 -0.133616D-03 -0.581898D-03 -0.233437D-02  0.608865D-03  0.328012D-03
     28 -0.164729D-03  0.183159D-03 -0.118689D-02  0.177564D-03 -0.157970D-03
     29  0.469070D-03 -0.152323D-01  0.420960D-02 -0.326241D-02  0.304524D-02
     30  0.777122D-03  0.238691D-02 -0.260703D-02  0.441834D-04  0.328324D-03
     31  0.126837D-03  0.558453D-03 -0.675740D-04 -0.157922D-03  0.140018D-03
     32  0.423697D-03  0.140500D-02 -0.264893D-02  0.377271D-03  0.887187D-04
     33 -0.518427D-02  0.154560D-01 -0.257709D-01  0.150478D-01 -0.297299D-02
                6             7             8             9            10 
      6  0.123400D+11
      7 -0.556621D+00  0.123400D+11
      8  0.117786D+01  0.329470D+00  0.123400D+11
      9  0.121141D+01  0.385129D-01  0.388566D-01  0.123400D+11
     10 -0.703249D+00  0.629552D-01  0.407606D-01  0.351714D+00  0.123400D+11
     11 -0.471299D+00  0.112202D-01  0.723075D+00  0.675067D+00  0.252148D-01
     12  0.251382D-01  0.396813D-02 -0.259827D-01 -0.704911D-02  0.742767D-02
     13  0.107899D+00  0.118550D-01 -0.255048D-01 -0.355639D-01  0.109231D-01
     14  0.576457D+00  0.455809D-01 -0.135022D+00 -0.114286D+00  0.546035D-01
     15 -0.861240D-02 -0.161004D-02  0.245608D-02 -0.787453D-03 -0.101113D-02
     16 -0.200127D-01 -0.288852D-02  0.804085D-02  0.599247D-02 -0.328258D-02
     17 -0.119686D+02  0.566263D+00  0.687217D-01  0.251380D+00  0.703075D+00
     18 -0.662625D+00 -0.133066D-01  0.186681D-02  0.132565D-01  0.652957D-03
     19  0.209857D-01 -0.187021D-05  0.373622D-01 -0.915422D-02 -0.614351D-02
     20  0.799357D-03  0.852725D-02  0.112717D-01  0.700525D-03  0.702747D-02
     21 -0.354411D-03  0.294957D-05  0.196213D-03  0.758522D-03 -0.137248D-03
     22  0.124217D-01  0.810726D-03  0.161109D-01  0.485665D-02  0.115037D-02
     23 -0.208703D-03 -0.608446D-05 -0.322645D-04  0.156168D-04 -0.325498D-04
     24  0.727786D-02  0.215101D-02  0.161385D-03  0.595346D-03  0.101083D-02
     25  0.198825D-02  0.333906D-03  0.151633D-03 -0.354883D-03  0.411400D-03
     26  0.288685D-03  0.209703D-04 -0.867005D-04 -0.722418D-04  0.239232D-04
     27 -0.819472D-04 -0.137934D-04  0.203919D-04  0.782584D-04 -0.211787D-04
     28  0.144835D-03  0.147062D-04 -0.426301D-04 -0.407121D-04  0.121016D-04
     29 -0.258228D-02 -0.339102D-03  0.125087D-02  0.111842D-02 -0.496247D-03
     30  0.274057D-03 -0.281532D-04  0.465308D-02  0.105893D-03 -0.842519D-04
     31 -0.455067D-04 -0.163205D-04  0.293987D-03  0.160357D-04 -0.270932D-04
     32  0.300266D-03  0.345393D-04  0.849911D-03  0.102299D-03  0.120208D-04
     33  0.517232D-02  0.421561D-03 -0.933409D-03 -0.111371D-02  0.120684D-03
               11            12            13            14            15 
     11  0.123400D+11
     12  0.173783D+02  0.123400D+11
     13  0.171496D+02 -0.782038D+00  0.123400D+11
     14  0.154041D+02 -0.823797D+00 -0.940918D+00  0.123400D+11
     15 -0.728273D+00  0.389182D+00  0.130038D+00  0.213396D+02  0.123400D+11
     16 -0.561824D+00  0.493000D+00  0.974513D+00  0.285152D+02 -0.113645D+01
     17  0.603506D-01  0.828664D-02  0.376552D-01  0.224132D+00 -0.379844D-02
     18  0.118778D-01 -0.845147D-03 -0.405819D-02 -0.235817D-01  0.365983D-03
     19  0.591419D+00 -0.145280D-01  0.735275D-02  0.462328D+01  0.325628D+00
     20  0.100760D+01  0.203818D+00  0.855055D+00  0.130491D+02 -0.494505D+00
     21  0.599457D+00 -0.119504D-01 -0.241290D-01  0.235875D+00  0.923327D-01
     22  0.318111D-01 -0.431822D-02  0.440413D-01  0.105719D+02  0.313844D+00
     23 -0.294876D-01 -0.702917D-02 -0.432626D-02  0.455268D-01  0.969299D-02
     24  0.164410D+01 -0.483842D-01  0.210270D-02 -0.866921D-01  0.253782D+00
     25 -0.338464D-01  0.657075D-02  0.159080D-01  0.703337D+00 -0.783510D-01
     26  0.172955D-02 -0.672919D-03 -0.487099D-03  0.277988D-01  0.260675D-01
     27 -0.195446D-04 -0.813342D-03 -0.487875D-03  0.204166D-01  0.296338D-01
     28 -0.231054D-02 -0.245737D-03 -0.286784D-03  0.871909D-01 -0.173235D-02
     29 -0.118874D+00  0.213889D-02  0.373048D-02  0.696597D+00  0.986232D-01
     30  0.653660D-01 -0.277084D-03  0.467253D-02 -0.826122D-01  0.920432D-02
     31  0.100535D-02  0.100243D-02  0.309937D-03 -0.234205D-01  0.569742D-02
     32  0.855893D-01  0.909881D-04  0.556793D-02 -0.677980D-01  0.185141D-02
     33  0.119822D+00  0.199555D-01  0.736670D-02  0.772170D+00  0.232233D+00
               16            17            18            19            20 
     16  0.123400D+11
     17 -0.639493D-02  0.123400D+11
     18  0.664545D-03  0.198630D+02  0.123400D+11
     19 -0.960137D+01  0.117443D-01 -0.163480D-02  0.123400D+11
     20  0.275639D+00  0.823854D-02 -0.409705D-03  0.104033D+01  0.123400D+11
     21  0.267264D+00 -0.249187D-04  0.128563D-04  0.977734D-01  0.308372D+02
     22  0.295037D+02  0.321490D-02 -0.211046D-03  0.618974D+01 -0.623593D+00
     23  0.382467D+00 -0.445960D-04  0.142929D-05  0.440303D+00 -0.453762D-01
     24  0.119790D+00  0.436497D-02 -0.379308D-03 -0.192256D-01  0.254058D+02
     25 -0.137541D+00  0.101555D-02 -0.909088D-04  0.659444D-01  0.125018D+02
     26  0.476816D-01  0.945167D-04 -0.968066D-05 -0.189483D-02  0.375851D+00
     27  0.577928D-01 -0.123900D-04  0.257299D-05  0.287360D-02  0.331480D+00
     28 -0.204444D-02  0.635340D-04 -0.692181D-05  0.447331D-02  0.314596D+00
     29 -0.251003D+00 -0.415760D-03  0.479109D-04  0.596993D+00  0.247120D-01
     30  0.149914D+00 -0.251952D-04 -0.160891D-05  0.250529D+00  0.517942D-01
     31  0.954842D+00 -0.739696D-05  0.000000D+00  0.180207D+00  0.502181D-02
     32  0.212356D+00  0.505516D-04 -0.121475D-05  0.253783D+00  0.233461D-01
     33  0.487276D+00  0.244793D-02 -0.268801D-03  0.449802D+00  0.610347D+01
               21            22            23            24            25 
     21  0.123400D+11
     22  0.452821D-01  0.123400D+11
     23  0.461755D-02  0.311512D+02  0.123400D+11
     24  0.462885D+00 -0.345029D-01  0.688114D-02  0.123400D+11
     25  0.746440D-01  0.386743D-02  0.000000D+00  0.268811D+02  0.123400D+11
     26 -0.136492D-01  0.136422D-02 -0.852051D-04 -0.119451D+01  0.180168D+02
     27 -0.740809D-02  0.795182D-04 -0.409280D-03 -0.119318D+01  0.179858D+02
     28 -0.898368D-02 -0.117694D-02  0.939665D-04 -0.751141D+00  0.169949D+02
     29 -0.261631D-03  0.175512D+02  0.335999D+00 -0.294054D-02 -0.463845D-02
     30 -0.106837D-02 -0.594382D+00  0.900667D-01  0.649973D-03  0.261484D-02
     31 -0.577340D-03 -0.384050D+00  0.292377D+00 -0.122947D-03 -0.281936D-03
     32  0.130727D-02 -0.598017D+00  0.122503D+00 -0.116774D-02  0.245412D-02
     33  0.447902D+00  0.265090D+00 -0.159889D-01 -0.987995D+01  0.346821D+01
               26            27            28            29            30 
     26  0.123400D+11
     27 -0.928545D+00  0.123400D+11
     28 -0.740669D+00 -0.728039D+00  0.123400D+11
     29 -0.108950D-03 -0.515792D-03  0.133825D-03  0.123400D+11
     30  0.307778D-03  0.412432D-03 -0.403375D-04  0.197614D+02  0.123400D+11
     31  0.224393D-03  0.135880D-03  0.238838D-05  0.181399D+02 -0.732521D+00
     32 -0.705643D-04 -0.376727D-04 -0.184121D-04  0.202940D+02 -0.732830D+00
     33  0.459515D+00  0.447586D+00  0.798552D+00 -0.177378D-01  0.146035D-01
               31            32            33 
     31  0.123400D+11
     32 -0.753740D+00  0.123400D+11
     33  0.289006D-02  0.191444D-01  0.123400D+11
 Fermi Contact (FC) contribution to J (Hz):
                1             2             3             4             5 
      1  0.243533D+11
      2  0.691503D+02  0.243533D+11
      3 -0.235851D+01  0.680419D+02  0.243533D+11
      4  0.607201D+01  0.461617D+00  0.669930D+02  0.243533D+11
      5  0.318700D+01  0.600328D+01 -0.248235D+01  0.695491D+02  0.243533D+11
      6  0.713828D+02 -0.442056D+00  0.856059D+01  0.422997D+00  0.768904D+02
      7  0.170715D+03 -0.248413D+01  0.758034D+01 -0.165811D+01  0.481216D+01
      8 -0.178025D+01  0.173910D+03 -0.214426D+01  0.777538D+01 -0.223856D+01
      9 -0.227900D+01  0.799273D+01 -0.187052D+01  0.173285D+03 -0.163885D+01
     10  0.527114D+01 -0.172605D+01  0.828159D+01 -0.218861D+01  0.180345D+03
     11  0.413830D+01  0.309393D+01  0.484624D+02  0.297726D+01  0.390024D+01
     12  0.288673D-01  0.602755D+01 -0.683596D+01  0.615279D+01  0.635931D+00
     13 -0.186125D+00  0.584812D+01 -0.885052D+01  0.495461D+01 -0.707034D+00
     14 -0.993994D+00  0.160971D+01 -0.295517D+00  0.159189D+01 -0.116278D+01
     15  0.114138D+00 -0.151593D+00  0.278639D+01 -0.215942D+00  0.968068D-01
     16  0.421978D-01 -0.318527D-01  0.222133D+00 -0.916145D-01  0.471331D-01
     17  0.771334D+00  0.965898D-01 -0.283476D+00 -0.327074D+01 -0.124057D+02
     18  0.329942D+01 -0.842333D-01 -0.365506D+00  0.165873D+01  0.903878D+01
     19  0.131703D-01 -0.407981D+00 -0.283028D+00 -0.551474D-01 -0.293669D-02
     20  0.594862D-01  0.372572D-01  0.183524D+01 -0.506686D-01  0.185346D-01
     21  0.195367D-02  0.206759D-01 -0.227624D+00 -0.151393D-04  0.504031D-02
     22  0.190387D-02  0.256336D-01 -0.738847D-02  0.376013D-01  0.152343D-02
     23 -0.387577D-02 -0.109740D-01  0.275803D-01 -0.131052D-02  0.223140D-02
     24  0.945081D-02  0.574317D-01  0.446091D+00  0.163371D-02 -0.166795D-02
     25  0.337704D-02  0.481554D-02  0.231222D+00 -0.462953D-02 -0.141001D-02
     26  0.208496D-03  0.586081D-02  0.141630D-01  0.629821D-02 -0.334733D-02
     27 -0.104847D-02 -0.456610D-02 -0.183175D-01  0.477771D-02  0.257388D-02
     28 -0.129261D-02  0.143723D-02 -0.931338D-02  0.139333D-02 -0.123957D-02
     29  0.925722D-03 -0.300614D-01  0.830774D-02 -0.643844D-02  0.600985D-02
     30  0.609800D-02  0.187299D-01 -0.204571D-01  0.346703D-03  0.257633D-02
     31  0.995276D-03  0.438212D-02 -0.530247D-03 -0.123920D-02  0.109871D-02
     32  0.332471D-02  0.110249D-01 -0.207859D-01  0.296041D-02  0.696167D-03
     33  0.551700D-02 -0.164480D-01  0.274249D-01 -0.160135D-01  0.316380D-02
                6             7             8             9            10 
      6  0.243533D+11
      7 -0.436775D+01  0.385007D+12
      8  0.924256D+01  0.102794D+02  0.385007D+12
      9  0.950582D+01  0.120160D+01  0.121232D+01  0.385007D+12
     10 -0.551832D+01  0.196420D+01  0.127173D+01  0.109735D+02  0.385007D+12
     11 -0.930121D+00  0.880438D-01  0.567390D+01  0.529719D+01  0.197858D+00
     12  0.197257D+00  0.123806D+00 -0.810659D+00 -0.219932D+00  0.231743D+00
     13  0.846674D+00  0.369875D+00 -0.795748D+00 -0.110959D+01  0.340799D+00
     14  0.113765D+01  0.357669D+00 -0.105950D+01 -0.896794D+00  0.428468D+00
     15 -0.675807D-01 -0.502331D-01  0.766296D-01 -0.245685D-01 -0.315473D-01
     16 -0.394955D-01 -0.226659D-01  0.630958D-01  0.470223D-01 -0.257581D-01
     17  0.127367D+02 -0.239601D+01 -0.290780D+00 -0.106366D+01 -0.297490D+01
     18 -0.519955D+01 -0.415164D+00  0.582445D-01  0.413603D+00  0.203722D-01
     19 -0.223326D-01  0.791336D-05 -0.158090D+00  0.387340D-01  0.259949D-01
     20  0.453405D-03  0.192314D-01  0.254210D-01  0.157988D-02  0.158489D-01
     21 -0.278103D-02  0.920266D-04  0.612183D-02  0.236658D-01 -0.428213D-02
     22  0.704575D-02  0.182842D-02  0.363348D-01  0.109531D-01  0.259441D-02
     23 -0.163767D-02 -0.189835D-03 -0.100665D-02  0.487242D-03 -0.101555D-02
     24  0.143630D-01  0.168787D-01  0.126637D-02  0.467162D-02  0.793189D-02
     25  0.392387D-02  0.262013D-02  0.118985D-02 -0.278473D-02  0.322822D-02
     26  0.226528D-02  0.654273D-03 -0.270505D-02 -0.225394D-02  0.746403D-03
     27 -0.643031D-03 -0.430353D-03  0.636227D-03  0.244166D-02 -0.660774D-03
     28  0.113651D-02  0.458834D-03 -0.133006D-02 -0.127021D-02  0.377569D-03
     29 -0.509619D-02 -0.266090D-02  0.981548D-02  0.877612D-02 -0.389400D-02
     30  0.215050D-02 -0.878378D-03  0.145176D+00  0.330387D-02 -0.262866D-02
     31 -0.357087D-03 -0.509198D-03  0.917237D-02  0.500314D-03 -0.845306D-03
     32  0.235616D-02  0.107762D-02  0.265172D-01  0.319173D-02  0.375050D-03
     33 -0.550428D-02 -0.178374D-02  0.394951D-02  0.471242D-02 -0.510648D-03
               11            12            13            14            15 
     11  0.243533D+11
     12  0.136366D+03  0.385007D+12
     13  0.134571D+03 -0.243996D+02  0.385007D+12
     14  0.304003D+02 -0.646425D+01 -0.738329D+01  0.243533D+11
     15 -0.571469D+01  0.121425D+02  0.405719D+01  0.167449D+03  0.385007D+12
     16 -0.110877D+01  0.386853D+01  0.764691D+01  0.562754D+02 -0.891763D+01
     17 -0.642239D-01 -0.350631D-01 -0.159329D+00 -0.238517D+00  0.160722D-01
     18  0.932041D-01 -0.263686D-01 -0.126615D+00 -0.185043D+00  0.114187D-01
     19 -0.629377D+00  0.614720D-01 -0.311115D-01 -0.492001D+01 -0.137782D+01
     20  0.571523D+00  0.459667D+00  0.192839D+01  0.740163D+01 -0.111525D+01
     21  0.470388D+01 -0.372853D+00 -0.752824D+00  0.185089D+01  0.288078D+01
     22  0.180436D-01 -0.973882D-02  0.993257D-01  0.599652D+01  0.707809D+00
     23 -0.231386D+00 -0.219310D+00 -0.134979D+00  0.357244D+00  0.302421D+00
     24  0.324467D+01 -0.379667D+00  0.164997D-01 -0.171089D+00  0.199140D+01
     25 -0.667967D-01  0.515600D-01  0.124829D+00  0.138805D+01 -0.614813D+00
     26  0.135716D-01 -0.209950D-01 -0.151975D-01  0.218135D+00  0.813306D+00
     27 -0.153364D-03 -0.253762D-01 -0.152217D-01  0.160207D+00  0.924573D+00
     28 -0.181306D-01 -0.766697D-02 -0.894765D-02  0.684178D+00 -0.540492D-01
     29 -0.234600D+00  0.167837D-01  0.292727D-01  0.137475D+01  0.773886D+00
     30  0.512921D+00 -0.864501D-02  0.145783D+00 -0.648250D+00  0.287174D+00
     31  0.788887D-02  0.312757D-01  0.967001D-02 -0.183778D+00  0.177759D+00
     32  0.671611D+00  0.283883D-02  0.173719D+00 -0.532004D+00  0.577640D-01
     33 -0.127512D+00 -0.844372D-01 -0.311705D-01 -0.821728D+00 -0.982643D+00
               16            17            18            19            20 
     16  0.243533D+11
     17  0.680537D-02  0.708114D+10
     18  0.521462D-02 -0.840456D+02  0.385007D+12
     19  0.102176D+02  0.673928D-02  0.691728D-02  0.708114D+10
     20  0.156346D+00 -0.251982D-02 -0.924001D-03 -0.318192D+00  0.201170D+10
     21  0.209719D+01  0.105438D-03  0.401115D-03 -0.413706D+00  0.695466D+02
     22  0.167348D+02 -0.983300D-03 -0.475970D-03 -0.189318D+01 -0.101660D+00
     23  0.300118D+01  0.188698D-03  0.445939D-04 -0.186304D+01 -0.102336D+00
     24  0.236408D+00 -0.464512D-02 -0.297639D-02  0.204595D-01  0.144105D+02
     25 -0.271441D+00 -0.108073D-02 -0.713353D-03 -0.701767D-01  0.709119D+01
     26  0.374153D+00 -0.399926D-03 -0.302036D-03  0.801756D-02  0.847651D+00
     27  0.453494D+00  0.524254D-04  0.802771D-04 -0.121590D-01  0.747581D+00
     28 -0.160425D-01 -0.268830D-03 -0.215960D-03 -0.189278D-01  0.709503D+00
     29 -0.495361D+00  0.442443D-03  0.375952D-03 -0.635308D+00  0.140169D-01
     30  0.117636D+01  0.106608D-03 -0.501979D-04 -0.106005D+01  0.116811D+00
     31  0.749256D+01  0.312986D-04  0.180860D-04 -0.762506D+00  0.113256D-01
     32  0.166634D+01 -0.213898D-03 -0.379003D-04 -0.107382D+01  0.526520D-01
     33 -0.518550D+00  0.140471D-02  0.113737D-02  0.258113D+00 -0.186679D+01
               21            22            23            24            25 
     21  0.385007D+12
     22  0.102124D+00  0.201170D+10
     23  0.144067D+00  0.702549D+02  0.385007D+12
     24  0.363221D+01 -0.195705D-01  0.539957D-01  0.243533D+11
     25  0.585724D+00  0.219365D-02 -0.236106D-05  0.530505D+02  0.243533D+11
     26 -0.425853D+00  0.307671D-02 -0.265839D-02 -0.937321D+01  0.141376D+03
     27 -0.231132D+00  0.179336D-03 -0.127695D-01 -0.936277D+01  0.141133D+03
     28 -0.280290D+00 -0.265433D-02  0.293175D-02 -0.589413D+01  0.133357D+03
     29 -0.205299D-02  0.995527D+01  0.263655D+01 -0.580323D-02 -0.915410D-02
     30 -0.333331D-01 -0.134050D+01  0.281008D+01  0.510028D-02  0.205184D-01
     31 -0.180130D-01 -0.866141D+00  0.912214D+01 -0.964751D-03 -0.221232D-02
     32  0.407866D-01 -0.134870D+01  0.382208D+01 -0.916316D-02  0.192572D-01
     33 -0.189520D+01 -0.810796D-01  0.676533D-01  0.105141D+02 -0.369081D+01
               26            27            28            29            30 
     26  0.385007D+12
     27 -0.289706D+02  0.385007D+12
     28 -0.231088D+02 -0.227148D+02  0.385007D+12
     29 -0.854918D-03 -0.404737D-02  0.105011D-02  0.243533D+11
     30  0.960265D-02  0.128679D-01 -0.125853D-02  0.155066D+03  0.385007D+12
     31  0.700106D-02  0.423945D-02  0.745173D-04  0.142342D+03 -0.228546D+02
     32 -0.220160D-02 -0.117539D-02 -0.574458D-03  0.159245D+03 -0.228643D+02
     33 -0.194434D+01 -0.189386D+01 -0.337889D+01  0.188763D-01 -0.617916D-01
               31            32            33 
     31  0.385007D+12
     32 -0.235167D+02  0.385007D+12
     33 -0.122286D-01 -0.810050D-01  0.708114D+10
 End of Minotr F.D. properties file   721 does not exist.
 End of Minotr F.D. properties file   722 does not exist.
 End of Minotr F.D. properties file   788 does not exist.
 Leave Link 1002 at Wed Jun 25 01:20:06 2014, MaxMem=  4294967296 cpu:    459551.7
 (Enter /home/ztw1e12/g09/l601.exe)
 Copying SCF densities to generalized density rwf, IOpCl= 0 IROHF=0.

 **********************************************************************

            Population analysis using the SCF density.

 **********************************************************************

 Orbital symmetries:
       Occupied  (A) (A) (A) (A) (A) (A) (A) (A) (A) (A) (A) (A)
                 (A) (A) (A) (A) (A) (A) (A) (A) (A) (A) (A) (A)
                 (A) (A) (A) (A) (A) (A) (A) (A) (A) (A) (A) (A)
                 (A) (A) (A) (A) (A) (A) (A) (A) (A) (A) (A) (A)
                 (A) (A) (A) (A) (A) (A) (A) (A) (A) (A) (A) (A)
                 (A) (A) (A)
       Virtual   (A) (A) (A) (A) (A) (A) (A) (A) (A) (A) (A) (A)
                 (A) (A) (A) (A) (A) (A) (A) (A) (A) (A) (A) (A)
                 (A) (A) (A) (A) (A) (A) (A) (A) (A) (A) (A) (A)
                 (A) (A) (A) (A) (A) (A) (A) (A) (A) (A) (A) (A)
                 (A) (A) (A) (A) (A) (A) (A) (A) (A) (A) (A) (A)
                 (A) (A) (A) (A) (A) (A) (A) (A) (A) (A) (A) (A)
                 (A) (A) (A) (A) (A) (A) (A) (A) (A) (A) (A) (A)
                 (A) (A) (A) (A) (A) (A) (A) (A) (A) (A) (A) (A)
                 (A) (A) (A) (A) (A) (A) (A) (A) (A) (A) (A) (A)
                 (A) (A) (A) (A) (A) (A) (A) (A) (A) (A) (A) (A)
                 (A) (A) (A) (A) (A) (A) (A) (A) (A) (A) (A) (A)
                 (A) (A) (A) (A) (A) (A) (A) (A) (A) (A) (A) (A)
                 (A) (A) (A) (A) (A) (A) (A) (A) (A) (A) (A) (A)
                 (A) (A) (A) (A) (A) (A) (A) (A) (A) (A) (A) (A)
                 (A) (A) (A) (A) (A) (A) (A) (A) (A) (A) (A) (A)
                 (A) (A) (A) (A) (A) (A) (A) (A) (A) (A) (A) (A)
                 (A) (A) (A) (A) (A) (A) (A) (A) (A) (A) (A) (A)
                 (A) (A) (A) (A) (A) (A) (A) (A) (A) (A) (A) (A)
                 (A) (A) (A) (A) (A) (A) (A) (A) (A) (A) (A) (A)
                 (A) (A) (A) (A) (A) (A) (A) (A) (A) (A) (A) (A)
                 (A) (A) (A) (A) (A) (A) (A) (A) (A) (A) (A) (A)
                 (A) (A) (A) (A) (A) (A) (A) (A) (A) (A) (A) (A)
                 (A) (A) (A) (A) (A) (A) (A) (A) (A) (A) (A) (A)
                 (A) (A) (A) (A) (A) (A) (A) (A) (A) (A) (A) (A)
                 (A) (A) (A) (A) (A) (A) (A) (A) (A) (A) (A) (A)
                 (A) (A) (A) (A) (A) (A) (A) (A) (A) (A) (A) (A)
                 (A) (A) (A) (A) (A) (A) (A) (A) (A) (A) (A) (A)
                 (A) (A) (A) (A) (A) (A) (A) (A) (A) (A) (A) (A)
                 (A) (A) (A) (A) (A) (A) (A) (A) (A) (A) (A) (A)
                 (A) (A) (A) (A) (A) (A) (A) (A) (A) (A) (A) (A)
                 (A) (A) (A) (A) (A) (A) (A) (A) (A) (A) (A) (A)
                 (A) (A) (A) (A) (A) (A) (A) (A) (A) (A) (A) (A)
                 (A) (A) (A) (A) (A) (A) (A) (A) (A) (A) (A) (A)
                 (A) (A) (A) (A) (A) (A) (A) (A) (A) (A) (A) (A)
                 (A) (A) (A) (A) (A) (A) (A) (A) (A) (A) (A) (A)
                 (A) (A) (A) (A) (A) (A) (A) (A) (A) (A) (A) (A)
                 (A) (A) (A) (A) (A) (A) (A) (A) (A) (A) (A) (A)
                 (A) (A) (A) (A) (A) (A) (A) (A) (A) (A) (A) (A)
                 (A) (A) (A) (A) (A) (A) (A) (A) (A) (A) (A) (A)
                 (A) (A) (A) (A) (A) (A) (A) (A) (A) (A) (A) (A)
                 (A) (A) (A) (A) (A) (A) (A) (A) (A) (A) (A) (A)
                 (A) (A) (A) (A) (A) (A) (A) (A) (A) (A) (A) (A)
                 (A) (A) (A) (A) (A) (A) (A) (A) (A) (A) (A) (A)
                 (A) (A) (A) (A) (A) (A) (A) (A) (A) (A) (A) (A)
                 (A) (A) (A) (A) (A) (A) (A) (A) (A) (A) (A) (A)
                 (A) (A) (A) (A) (A) (A) (A) (A) (A) (A) (A) (A)
                 (A) (A) (A) (A) (A) (A) (A) (A) (A) (A) (A) (A)
                 (A) (A) (A) (A) (A) (A) (A) (A) (A) (A) (A) (A)
                 (A) (A) (A) (A) (A) (A) (A) (A) (A) (A) (A) (A)
                 (A) (A) (A) (A) (A) (A) (A) (A) (A) (A) (A) (A)
                 (A) (A) (A) (A) (A) (A) (A) (A) (A) (A) (A) (A)
                 (A) (A) (A) (A) (A) (A) (A) (A) (A) (A) (A) (A)
                 (A) (A) (A) (A) (A) (A) (A) (A) (A) (A) (A) (A)
                 (A) (A) (A) (A) (A) (A) (A) (A) (A) (A) (A) (A)
                 (A) (A) (A) (A) (A) (A) (A) (A) (A) (A) (A) (A)
                 (A) (A) (A) (A) (A) (A) (A) (A) (A) (A) (A) (A)
                 (A) (A) (A) (A) (A) (A) (A) (A) (A) (A) (A) (A)
                 (A) (A) (A) (A) (A) (A) (A) (A) (A) (A) (A) (A)
                 (A) (A) (A) (A) (A) (A) (A) (A) (A) (A) (A) (A)
                 (A) (A) (A) (A) (A) (A) (A) (A) (A) (A) (A) (A)
                 (A) (A) (A) (A) (A) (A) (A) (A) (A) (A) (A) (A)
                 (A) (A) (A) (A) (A) (A) (A) (A) (A) (A) (A) (A)
                 (A) (A) (A) (A) (A) (A) (A) (A) (A) (A) (A) (A)
                 (A) (A) (A) (A) (A) (A) (A) (A) (A) (A) (A) (A)
                 (A) (A) (A) (A) (A) (A) (A) (A) (A) (A) (A) (A)
                 (A) (A) (A) (A) (A) (A) (A) (A) (A) (A) (A) (A)
                 (A) (A) (A) (A) (A) (A) (A) (A) (A) (A) (A) (A)
                 (A) (A) (A) (A) (A) (A) (A) (A) (A) (A) (A) (A)
                 (A) (A) (A) (A) (A) (A) (A) (A) (A) (A) (A) (A)
                 (A) (A) (A) (A) (A) (A) (A) (A) (A) (A) (A) (A)
                 (A) (A) (A) (A) (A) (A) (A) (A) (A) (A) (A) (A)
                 (A) (A) (A) (A) (A) (A) (A) (A) (A) (A) (A) (A)
                 (A) (A) (A) (A) (A) (A) (A) (A) (A) (A) (A) (A)
                 (A) (A) (A) (A) (A) (A) (A) (A) (A) (A) (A) (A)
                 (A) (A) (A) (A) (A) (A) (A) (A) (A) (A) (A) (A)
                 (A) (A) (A) (A) (A) (A) (A) (A) (A) (A) (A) (A)
                 (A) (A) (A) (A) (A) (A) (A) (A) (A) (A) (A) (A)
                 (A) (A) (A) (A) (A) (A) (A) (A) (A) (A) (A) (A)
                 (A) (A) (A) (A) (A) (A) (A) (A) (A) (A) (A) (A)
                 (A) (A) (A) (A) (A) (A) (A) (A) (A) (A) (A) (A)
                 (A) (A) (A) (A) (A) (A) (A) (A) (A) (A) (A) (A)
                 (A) (A) (A) (A) (A) (A) (A) (A) (A) (A) (A) (A)
                 (A) (A) (A) (A) (A) (A) (A) (A) (A) (A) (A) (A)
                 (A) (A) (A) (A) (A) (A) (A) (A) (A)
 The electronic state is 1-A.
 Alpha  occ. eigenvalues --  -19.24287 -19.17576 -19.16430 -14.42806 -14.41524
 Alpha  occ. eigenvalues --  -10.34488 -10.32980 -10.30314 -10.29081 -10.26979
 Alpha  occ. eigenvalues --  -10.26264 -10.25000 -10.24595 -10.24479 -10.24347
 Alpha  occ. eigenvalues --  -10.24005 -10.23574  -1.08599  -1.05803  -1.04174
 Alpha  occ. eigenvalues --   -0.95698  -0.93571  -0.87431  -0.81646  -0.77094
 Alpha  occ. eigenvalues --   -0.76260  -0.74016  -0.71640  -0.66671  -0.63763
 Alpha  occ. eigenvalues --   -0.62098  -0.59763  -0.59478  -0.55988  -0.54796
 Alpha  occ. eigenvalues --   -0.52449  -0.50603  -0.49648  -0.47901  -0.47116
 Alpha  occ. eigenvalues --   -0.46750  -0.45651  -0.44940  -0.44036  -0.43420
 Alpha  occ. eigenvalues --   -0.42779  -0.42191  -0.41969  -0.41158  -0.40996
 Alpha  occ. eigenvalues --   -0.39731  -0.39267  -0.37745  -0.37174  -0.36010
 Alpha  occ. eigenvalues --   -0.34966  -0.34751  -0.29472  -0.27194  -0.27120
 Alpha  occ. eigenvalues --   -0.26713  -0.25598  -0.23269
 Alpha virt. eigenvalues --   -0.00754   0.00158   0.01381   0.02035   0.02513
 Alpha virt. eigenvalues --    0.02900   0.03474   0.04735   0.05517   0.05958
 Alpha virt. eigenvalues --    0.06591   0.07846   0.09141   0.09812   0.10448
 Alpha virt. eigenvalues --    0.10812   0.11542   0.12710   0.13094   0.13976
 Alpha virt. eigenvalues --    0.15530   0.15734   0.16763   0.17236   0.19168
 Alpha virt. eigenvalues --    0.20254   0.21273   0.21864   0.22871   0.23290
 Alpha virt. eigenvalues --    0.24272   0.24422   0.25415   0.25918   0.26339
 Alpha virt. eigenvalues --    0.26736   0.27822   0.28639   0.29276   0.30395
 Alpha virt. eigenvalues --    0.30735   0.31124   0.32086   0.32462   0.32496
 Alpha virt. eigenvalues --    0.33264   0.33849   0.34722   0.35013   0.35210
 Alpha virt. eigenvalues --    0.36070   0.36388   0.36591   0.37511   0.37573
 Alpha virt. eigenvalues --    0.38080   0.38438   0.39151   0.39598   0.39833
 Alpha virt. eigenvalues --    0.40171   0.40563   0.41297   0.41710   0.41813
 Alpha virt. eigenvalues --    0.42390   0.42761   0.42855   0.43407   0.44502
 Alpha virt. eigenvalues --    0.44565   0.44805   0.45409   0.46767   0.47144
 Alpha virt. eigenvalues --    0.47982   0.48271   0.48781   0.50183   0.50598
 Alpha virt. eigenvalues --    0.50915   0.51624   0.52211   0.52645   0.53589
 Alpha virt. eigenvalues --    0.53751   0.54720   0.55434   0.55940   0.56553
 Alpha virt. eigenvalues --    0.57515   0.58224   0.60338   0.60783   0.60964
 Alpha virt. eigenvalues --    0.62140   0.63405   0.63847   0.64382   0.65228
 Alpha virt. eigenvalues --    0.65589   0.66888   0.67114   0.68416   0.68502
 Alpha virt. eigenvalues --    0.70066   0.70699   0.71241   0.71909   0.72948
 Alpha virt. eigenvalues --    0.73155   0.74068   0.74463   0.76467   0.76612
 Alpha virt. eigenvalues --    0.76980   0.77426   0.77863   0.79360   0.80239
 Alpha virt. eigenvalues --    0.80605   0.81196   0.82124   0.82774   0.83449
 Alpha virt. eigenvalues --    0.84253   0.84680   0.84779   0.85334   0.86713
 Alpha virt. eigenvalues --    0.87461   0.88099   0.89335   0.90218   0.90444
 Alpha virt. eigenvalues --    0.91674   0.92789   0.93171   0.93881   0.94886
 Alpha virt. eigenvalues --    0.95615   0.95876   0.95967   0.97081   0.97787
 Alpha virt. eigenvalues --    0.98569   0.98808   0.99232   1.00021   1.01137
 Alpha virt. eigenvalues --    1.02331   1.03365   1.04016   1.04898   1.05872
 Alpha virt. eigenvalues --    1.06654   1.07034   1.07762   1.08582   1.09180
 Alpha virt. eigenvalues --    1.10340   1.11425   1.12165   1.12855   1.13858
 Alpha virt. eigenvalues --    1.14668   1.15907   1.16443   1.16758   1.16908
 Alpha virt. eigenvalues --    1.17904   1.18456   1.18928   1.19387   1.20197
 Alpha virt. eigenvalues --    1.20958   1.21252   1.22368   1.22869   1.23320
 Alpha virt. eigenvalues --    1.23635   1.24462   1.24889   1.24972   1.25635
 Alpha virt. eigenvalues --    1.25838   1.26350   1.26947   1.27371   1.27597
 Alpha virt. eigenvalues --    1.27926   1.29184   1.29676   1.30355   1.31021
 Alpha virt. eigenvalues --    1.31456   1.32401   1.33200   1.33417   1.34308
 Alpha virt. eigenvalues --    1.35224   1.35644   1.36153   1.37302   1.38153
 Alpha virt. eigenvalues --    1.39871   1.40352   1.42039   1.42933   1.43455
 Alpha virt. eigenvalues --    1.44306   1.45761   1.47558   1.49141   1.50436
 Alpha virt. eigenvalues --    1.51735   1.53727   1.56303   1.56652   1.57496
 Alpha virt. eigenvalues --    1.58863   1.59758   1.61097   1.61701   1.63282
 Alpha virt. eigenvalues --    1.64952   1.65793   1.67992   1.69712   1.72880
 Alpha virt. eigenvalues --    1.73003   1.74342   1.75764   1.77517   1.79093
 Alpha virt. eigenvalues --    1.80366   1.82402   1.82678   1.83637   1.85678
 Alpha virt. eigenvalues --    1.85943   1.88262   1.89234   1.89334   1.91341
 Alpha virt. eigenvalues --    1.91634   1.91901   1.93940   1.95618   1.96817
 Alpha virt. eigenvalues --    1.97170   1.98854   2.00815   2.01640   2.02335
 Alpha virt. eigenvalues --    2.03518   2.04574   2.07396   2.07637   2.09814
 Alpha virt. eigenvalues --    2.11302   2.12062   2.12513   2.14026   2.14893
 Alpha virt. eigenvalues --    2.15404   2.17043   2.18567   2.18718   2.21374
 Alpha virt. eigenvalues --    2.21515   2.23212   2.25058   2.25934   2.27196
 Alpha virt. eigenvalues --    2.28331   2.29108   2.30381   2.32465   2.32866
 Alpha virt. eigenvalues --    2.34348   2.35954   2.36157   2.37935   2.39041
 Alpha virt. eigenvalues --    2.39579   2.40387   2.41858   2.42767   2.43288
 Alpha virt. eigenvalues --    2.44904   2.45081   2.47035   2.47865   2.48863
 Alpha virt. eigenvalues --    2.49568   2.50192   2.51896   2.53535   2.54469
 Alpha virt. eigenvalues --    2.56186   2.56558   2.56951   2.57973   2.60588
 Alpha virt. eigenvalues --    2.62862   2.63279   2.64595   2.65601   2.66844
 Alpha virt. eigenvalues --    2.67986   2.68443   2.69013   2.69241   2.70447
 Alpha virt. eigenvalues --    2.70708   2.70888   2.71218   2.72020   2.73119
 Alpha virt. eigenvalues --    2.73643   2.74572   2.75172   2.75854   2.76583
 Alpha virt. eigenvalues --    2.76772   2.77376   2.78662   2.79534   2.80418
 Alpha virt. eigenvalues --    2.82715   2.83724   2.84046   2.85335   2.86863
 Alpha virt. eigenvalues --    2.87091   2.88405   2.88657   2.89048   2.89904
 Alpha virt. eigenvalues --    2.90085   2.90869   2.91259   2.91905   2.92039
 Alpha virt. eigenvalues --    2.92597   2.93498   2.94884   2.95362   2.96095
 Alpha virt. eigenvalues --    2.96562   2.97369   2.97892   2.98080   2.98779
 Alpha virt. eigenvalues --    2.99625   2.99994   3.00967   3.01536   3.02007
 Alpha virt. eigenvalues --    3.02579   3.03379   3.04026   3.04650   3.04887
 Alpha virt. eigenvalues --    3.05379   3.06158   3.07195   3.08202   3.09737
 Alpha virt. eigenvalues --    3.10986   3.11365   3.12445   3.12877   3.12972
 Alpha virt. eigenvalues --    3.14552   3.14995   3.15579   3.16404   3.17076
 Alpha virt. eigenvalues --    3.17708   3.18399   3.19114   3.19478   3.20162
 Alpha virt. eigenvalues --    3.21397   3.22259   3.23155   3.23812   3.24966
 Alpha virt. eigenvalues --    3.26398   3.26863   3.27246   3.27708   3.27836
 Alpha virt. eigenvalues --    3.28463   3.29182   3.29861   3.30528   3.30870
 Alpha virt. eigenvalues --    3.31823   3.32726   3.33148   3.34075   3.34886
 Alpha virt. eigenvalues --    3.35474   3.36335   3.37793   3.38255   3.38834
 Alpha virt. eigenvalues --    3.39503   3.41030   3.41209   3.42342   3.42907
 Alpha virt. eigenvalues --    3.43865   3.44292   3.44919   3.46170   3.46584
 Alpha virt. eigenvalues --    3.47445   3.47566   3.48208   3.48635   3.51576
 Alpha virt. eigenvalues --    3.52442   3.53464   3.54299   3.55157   3.56913
 Alpha virt. eigenvalues --    3.57638   3.58715   3.59039   3.59787   3.62038
 Alpha virt. eigenvalues --    3.62331   3.63136   3.64069   3.64690   3.66031
 Alpha virt. eigenvalues --    3.66983   3.68478   3.69392   3.69686   3.70820
 Alpha virt. eigenvalues --    3.71640   3.72007   3.73137   3.73409   3.73806
 Alpha virt. eigenvalues --    3.75110   3.75544   3.75847   3.76065   3.77212
 Alpha virt. eigenvalues --    3.78151   3.79057   3.79763   3.80890   3.81692
 Alpha virt. eigenvalues --    3.82435   3.83609   3.85034   3.85941   3.86192
 Alpha virt. eigenvalues --    3.86820   3.87109   3.88215   3.88474   3.89826
 Alpha virt. eigenvalues --    3.90514   3.91026   3.92168   3.93892   3.94860
 Alpha virt. eigenvalues --    3.95972   3.96410   3.97858   3.98216   3.99744
 Alpha virt. eigenvalues --    4.00272   4.02560   4.02817   4.04377   4.05252
 Alpha virt. eigenvalues --    4.05367   4.06380   4.06729   4.07991   4.08984
 Alpha virt. eigenvalues --    4.09733   4.11125   4.11293   4.12505   4.14394
 Alpha virt. eigenvalues --    4.15437   4.15708   4.16494   4.17341   4.18302
 Alpha virt. eigenvalues --    4.19249   4.20667   4.21492   4.22237   4.23211
 Alpha virt. eigenvalues --    4.23842   4.24516   4.25009   4.25766   4.26663
 Alpha virt. eigenvalues --    4.27599   4.28484   4.29199   4.29792   4.30630
 Alpha virt. eigenvalues --    4.33099   4.33630   4.35239   4.36818   4.37404
 Alpha virt. eigenvalues --    4.38713   4.40176   4.41691   4.43589   4.45028
 Alpha virt. eigenvalues --    4.46128   4.46741   4.47653   4.49271   4.50543
 Alpha virt. eigenvalues --    4.52704   4.54377   4.55685   4.58517   4.58642
 Alpha virt. eigenvalues --    4.58965   4.59795   4.61351   4.62361   4.64494
 Alpha virt. eigenvalues --    4.65245   4.65944   4.66185   4.66405   4.67952
 Alpha virt. eigenvalues --    4.69354   4.69918   4.70569   4.71339   4.73034
 Alpha virt. eigenvalues --    4.74034   4.75631   4.75922   4.77093   4.79403
 Alpha virt. eigenvalues --    4.80801   4.82310   4.83227   4.84906   4.86487
 Alpha virt. eigenvalues --    4.87510   4.88656   4.89437   4.90319   4.90978
 Alpha virt. eigenvalues --    4.91804   4.93270   4.94261   4.94917   4.96312
 Alpha virt. eigenvalues --    4.97084   4.98459   5.00062   5.01784   5.02535
 Alpha virt. eigenvalues --    5.03705   5.05614   5.06217   5.07853   5.08281
 Alpha virt. eigenvalues --    5.10555   5.10977   5.12495   5.13169   5.14408
 Alpha virt. eigenvalues --    5.15467   5.17236   5.17912   5.18653   5.20287
 Alpha virt. eigenvalues --    5.22494   5.23265   5.24708   5.25038   5.28365
 Alpha virt. eigenvalues --    5.30967   5.33930   5.36673   5.37004   5.38748
 Alpha virt. eigenvalues --    5.42074   5.43081   5.45496   5.45760   5.48935
 Alpha virt. eigenvalues --    5.51286   5.52537   5.52755   5.54305   5.56021
 Alpha virt. eigenvalues --    5.56677   5.58704   5.59562   5.60768   5.61607
 Alpha virt. eigenvalues --    5.63734   5.64883   5.65717   5.66030   5.67580
 Alpha virt. eigenvalues --    5.68506   5.69567   5.71448   5.72441   5.74138
 Alpha virt. eigenvalues --    5.74744   5.76117   5.80137   5.81247   5.82241
 Alpha virt. eigenvalues --    5.86035   5.89518   5.90607   5.93224   5.97141
 Alpha virt. eigenvalues --    5.98048   5.99459   6.04172   6.07416   6.11618
 Alpha virt. eigenvalues --    6.17943   6.18844   6.20649   6.22739   6.25121
 Alpha virt. eigenvalues --    6.46640   6.47255   6.51814   6.53587   6.56825
 Alpha virt. eigenvalues --    6.61469   6.61916   6.63004   6.65088   6.66636
 Alpha virt. eigenvalues --    6.78805   6.79539   6.80852   6.88675   6.89449
 Alpha virt. eigenvalues --    6.91086   6.92067   6.92513   6.93627   7.07183
 Alpha virt. eigenvalues --    7.18391   7.20054   7.22530   7.27903   7.29780
 Alpha virt. eigenvalues --    7.68231   7.99832   8.10681   8.12666   8.12887
 Alpha virt. eigenvalues --    8.20220   8.23896   8.29235   8.37707   8.66400
 Alpha virt. eigenvalues --    8.74323   8.76255   8.77465   8.81444   8.82470
 Alpha virt. eigenvalues --    8.83683   8.84963   8.87316   8.89971   8.91493
 Alpha virt. eigenvalues --    8.92857   8.95061   8.96112   9.01192   9.05795
 Alpha virt. eigenvalues --    9.07847   9.11735   9.18638   9.22601   9.32005
 Alpha virt. eigenvalues --    9.36340   9.40885   9.41719   9.46166   9.49067
 Alpha virt. eigenvalues --    9.58794   9.61751   9.78049   9.82072  10.03409
 Alpha virt. eigenvalues --   10.08358  10.11790  10.13419  10.13945  10.18147
[...]
 Alpha virt. eigenvalues --    6.58184   6.62107   6.62947   6.65044   6.67632
 Alpha virt. eigenvalues --    6.78948   6.81270   6.86467   6.86721   6.88166
 Alpha virt. eigenvalues --    6.91402   6.94855   7.09016   7.09781   7.12640
 Alpha virt. eigenvalues --    7.15929   7.17857   7.29480   7.44049   8.63690
 Alpha virt. eigenvalues --    9.56927   9.89566  11.93185  12.14624  12.30189
 Alpha virt. eigenvalues --   12.38851  12.66965  12.76729  12.92969  13.27017
 Alpha virt. eigenvalues --   13.44634  13.58588  13.62044  13.73930  13.97311
 Alpha virt. eigenvalues --   15.55546
          Condensed to atoms (all electrons):
               1          2          3          4          5          6
     1  C    5.387808   0.226096  -0.000380  -0.037025  -0.021040   0.312089
     2  C    0.226096   5.414376   0.251543  -0.011330  -0.038853   0.031736
     3  C   -0.000380   0.251543   5.281967   0.363104  -0.041458  -0.070824
     4  C   -0.037025  -0.011330   0.363104   5.139345   0.443173  -0.024672
     5  C   -0.021040  -0.038853  -0.041458   0.443173   5.049880   0.391564
     6  C    0.312089   0.031736  -0.070824  -0.024672   0.391564   4.858017
     7  H    0.449377  -0.034143   0.009186  -0.000479   0.004010  -0.072067
     8  H   -0.013892   0.442413  -0.096112   0.003263  -0.000798   0.007145
     9  H   -0.003521   0.008823  -0.091554   0.456141  -0.032306   0.011279
    10  H    0.013822  -0.005653   0.013959  -0.057159   0.453501  -0.079009
    11  C    0.007951  -0.046420   0.279517  -0.065885   0.001686  -0.001079
    12  H    0.000532   0.001548  -0.033106   0.004063   0.000026   0.000038
    13  H   -0.000421   0.003227  -0.031817  -0.006931  -0.000139   0.000092
    14  C    0.000260  -0.013053  -0.042855   0.003194   0.001600  -0.000329
    15  H   -0.000041   0.003412  -0.003170  -0.001184   0.000332  -0.000009
    16  C   -0.000006  -0.008454   0.025898   0.002085  -0.000239  -0.000186
    17  O   -0.090088   0.013676  -0.000522   0.002754  -0.048687   0.392397
    18  H   -0.004978   0.004761  -0.000441  -0.000655   0.002097  -0.043662
    19  O    0.000880  -0.003167   0.001552   0.000332  -0.000222  -0.000191
    20  N   -0.000003   0.000630   0.004071  -0.000910  -0.000067   0.000004
    21  H   -0.000001  -0.000167   0.001727   0.000197   0.000009  -0.000001
    22  N    0.000117   0.002343  -0.010735  -0.000456  -0.000015   0.000029
    23  H   -0.000014   0.000124   0.000871  -0.000008   0.000006   0.000000
    24  C    0.000002  -0.000043  -0.000367   0.000031   0.000001   0.000000
    25  C    0.000000   0.000001  -0.000004  -0.000003   0.000000   0.000000
    26  H    0.000000   0.000000   0.000001   0.000000   0.000000   0.000000
    27  H    0.000000   0.000000  -0.000002   0.000000   0.000000   0.000000
    28  H    0.000000   0.000000  -0.000002   0.000002   0.000000   0.000000
    29  C   -0.000089  -0.000440   0.000427   0.000026   0.000002  -0.000003
    30  H   -0.000023   0.000431   0.001014   0.000035   0.000000  -0.000022
    31  H   -0.000004  -0.000001   0.000013   0.000001   0.000000   0.000000
    32  H   -0.000002   0.000032  -0.000085  -0.000006   0.000000   0.000001
    33  O    0.000000   0.000002   0.000041  -0.000024   0.000000   0.000000
               7          8          9         10         11         12
     1  C    0.449377  -0.013892  -0.003521   0.013822   0.007951   0.000532
     2  C   -0.034143   0.442413   0.008823  -0.005653  -0.046420   0.001548
     3  C    0.009186  -0.096112  -0.091554   0.013959   0.279517  -0.033106
     4  C   -0.000479   0.003263   0.456141  -0.057159  -0.065885   0.004063
     5  C    0.004010  -0.000798  -0.032306   0.453501   0.001686   0.000026
     6  C   -0.072067   0.007145   0.011279  -0.079009  -0.001079   0.000038
     7  H    0.541529  -0.007029   0.000050  -0.000240  -0.000353  -0.000064
     8  H   -0.007029   0.500544  -0.000262   0.000057   0.006119   0.002027
     9  H    0.000050  -0.000262   0.512450  -0.009385   0.000977   0.000229
    10  H   -0.000240   0.000057  -0.009385   0.544876  -0.000268   0.000018
    11  C   -0.000353   0.006119   0.000977  -0.000268   5.384658   0.409319
    12  H   -0.000064   0.002027   0.000229   0.000018   0.409319   0.443063
    13  H    0.000016   0.000514   0.000538  -0.000038   0.426126  -0.009304
    14  C    0.000034  -0.003101  -0.001394   0.000036   0.173453  -0.030969
    15  H   -0.000002   0.000158   0.000987   0.000032  -0.017882   0.003638
    16  C    0.000058  -0.002122   0.000151  -0.000007  -0.055861  -0.012162
    17  O   -0.004264  -0.000121  -0.000137   0.006342   0.000000  -0.000001
    18  H    0.004628  -0.000006   0.000046  -0.000963  -0.000006   0.000000
    19  O    0.000082  -0.001819   0.000041   0.000000  -0.003501  -0.000106
    20  N    0.000000   0.000064  -0.000123  -0.000001  -0.036864  -0.003629
    21  H    0.000000  -0.000009   0.000042   0.000000  -0.002815   0.001366
    22  N   -0.000027   0.004507   0.000002   0.000000   0.017799   0.006315
    23  H    0.000000   0.000239   0.000001   0.000000   0.002025   0.003159
    24  C    0.000000  -0.000024   0.000012   0.000000   0.007022  -0.000782
    25  C    0.000000   0.000000  -0.000003   0.000000   0.000175  -0.000003
    26  H    0.000000   0.000000   0.000000   0.000000   0.000021   0.000002
    27  H    0.000000   0.000000   0.000000   0.000000  -0.000044  -0.000008
    28  H    0.000000   0.000000   0.000001   0.000000  -0.000291  -0.000022
    29  C    0.000002   0.000185   0.000000   0.000000  -0.000808  -0.000270
    30  H    0.000044  -0.000925   0.000000   0.000000  -0.001017  -0.000329
    31  H    0.000000  -0.000061   0.000000   0.000000  -0.000052  -0.000002
    32  H   -0.000002   0.000123   0.000000   0.000000   0.000321   0.000071
    33  O    0.000000   0.000000  -0.000005   0.000000   0.002413   0.000052
              13         14         15         16         17         18
     1  C   -0.000421   0.000260  -0.000041  -0.000006  -0.090088  -0.004978
     2  C    0.003227  -0.013053   0.003412  -0.008454   0.013676   0.004761
     3  C   -0.031817  -0.042855  -0.003170   0.025898  -0.000522  -0.000441
     4  C   -0.006931   0.003194  -0.001184   0.002085   0.002754  -0.000655
     5  C   -0.000139   0.001600   0.000332  -0.000239  -0.048687   0.002097
     6  C    0.000092  -0.000329  -0.000009  -0.000186   0.392397  -0.043662
     7  H    0.000016   0.000034  -0.000002   0.000058  -0.004264   0.004628
     8  H    0.000514  -0.003101   0.000158  -0.002122  -0.000121  -0.000006
     9  H    0.000538  -0.001394   0.000987   0.000151  -0.000137   0.000046
    10  H   -0.000038   0.000036   0.000032  -0.000007   0.006342  -0.000963
    11  C    0.426126   0.173453  -0.017882  -0.055861   0.000000  -0.000006
    12  H   -0.009304  -0.030969   0.003638  -0.012162  -0.000001   0.000000
    13  H    0.488391  -0.071438  -0.007000   0.011426  -0.000001   0.000000
    14  C   -0.071438   5.490102   0.435544   0.220027   0.000001   0.000000
    15  H   -0.007000   0.435544   0.436671  -0.068487   0.000000   0.000000
    16  C    0.011426   0.220027  -0.068487   4.793609   0.000000   0.000000
    17  O   -0.000001   0.000001   0.000000   0.000000   7.663989   0.360021
    18  H    0.000000   0.000000   0.000000   0.000000   0.360021   0.490870
    19  O   -0.000567  -0.067548   0.009520   0.727458   0.000000   0.000000
    20  N    0.001038   0.164761  -0.036083  -0.046596   0.000000   0.000000
    21  H    0.004661  -0.022081   0.000841   0.003450   0.000000   0.000000
    22  N   -0.000319  -0.118437   0.008919   0.249918   0.000000   0.000000
    23  H   -0.000492  -0.001712   0.000548  -0.026363   0.000000   0.000000
    24  C   -0.001047  -0.081331  -0.000652  -0.007525   0.000000   0.000000
    25  C   -0.000140   0.007732   0.001207  -0.002566   0.000000   0.000000
    26  H   -0.000031  -0.000143   0.000145  -0.000193   0.000000   0.000000
    27  H    0.000016  -0.000459  -0.000140   0.000525   0.000000   0.000000
    28  H   -0.000035   0.001285  -0.000194   0.000042   0.000000   0.000000
    29  C    0.000073   0.009578  -0.000568  -0.053449   0.000000   0.000000
    30  H   -0.000022   0.000843  -0.000119  -0.000275   0.000000   0.000000
    31  H    0.000003   0.000547  -0.000008   0.009449   0.000000   0.000000
    32  H    0.000013   0.000283   0.000010  -0.005331   0.000000   0.000000
    33  O   -0.000078   0.014161   0.009987   0.001492   0.000000   0.000000
              19         20         21         22         23         24
     1  C    0.000880  -0.000003  -0.000001   0.000117  -0.000014   0.000002
     2  C   -0.003167   0.000630  -0.000167   0.002343   0.000124  -0.000043
     3  C    0.001552   0.004071   0.001727  -0.010735   0.000871  -0.000367
     4  C    0.000332  -0.000910   0.000197  -0.000456  -0.000008   0.000031
     5  C   -0.000222  -0.000067   0.000009  -0.000015   0.000006   0.000001
     6  C   -0.000191   0.000004  -0.000001   0.000029   0.000000   0.000000
     7  H    0.000082   0.000000   0.000000  -0.000027   0.000000   0.000000
     8  H   -0.001819   0.000064  -0.000009   0.004507   0.000239  -0.000024
     9  H    0.000041  -0.000123   0.000042   0.000002   0.000001   0.000012
    10  H    0.000000  -0.000001   0.000000   0.000000   0.000000   0.000000
    11  C   -0.003501  -0.036864  -0.002815   0.017799   0.002025   0.007022
    12  H   -0.000106  -0.003629   0.001366   0.006315   0.003159  -0.000782
    13  H   -0.000567   0.001038   0.004661  -0.000319  -0.000492  -0.001047
    14  C   -0.067548   0.164761  -0.022081  -0.118437  -0.001712  -0.081331
    15  H    0.009520  -0.036083   0.000841   0.008919   0.000548  -0.000652
    16  C    0.727458  -0.046596   0.003450   0.249918  -0.026363  -0.007525
    17  O    0.000000   0.000000   0.000000   0.000000   0.000000   0.000000
    18  H    0.000000   0.000000   0.000000   0.000000   0.000000   0.000000
    19  O    7.810900   0.004955  -0.000345  -0.131094   0.005568  -0.001784
    20  N    0.004955   6.661794   0.351431   0.005292   0.020411   0.325378
    21  H   -0.000345   0.351431   0.524884  -0.001434   0.000006  -0.016994
    22  N   -0.131094   0.005292  -0.001434   6.552765   0.373295   0.014428
    23  H    0.005568   0.020411   0.000006   0.373295   0.536655  -0.002438
    24  C   -0.001784   0.325378  -0.016994   0.014428  -0.002438   4.595951
    25  C   -0.000022  -0.065549  -0.000896  -0.000060   0.000382   0.273830
    26  H    0.000001  -0.000528  -0.000266   0.000007   0.000078  -0.026444
    27  H   -0.000004  -0.000578   0.000275   0.000173  -0.000312  -0.023306
    28  H    0.000001   0.013311  -0.000900   0.000038   0.000061  -0.059172
    29  C    0.008254  -0.001536   0.000087   0.291993  -0.035151  -0.000069
    30  H    0.004833  -0.000149   0.000009  -0.055649   0.002004   0.000187
    31  H    0.001626  -0.000157   0.000032  -0.029599  -0.007949  -0.000070
    32  H    0.005258  -0.000080   0.000001  -0.045533   0.002668  -0.000509
    33  O   -0.001139  -0.133780   0.005027  -0.004665  -0.001978   0.723337
              25         26         27         28         29         30
     1  C    0.000000   0.000000   0.000000   0.000000  -0.000089  -0.000023
     2  C    0.000001   0.000000   0.000000   0.000000  -0.000440   0.000431
     3  C   -0.000004   0.000001  -0.000002  -0.000002   0.000427   0.001014
     4  C   -0.000003   0.000000   0.000000   0.000002   0.000026   0.000035
     5  C    0.000000   0.000000   0.000000   0.000000   0.000002   0.000000
     6  C    0.000000   0.000000   0.000000   0.000000  -0.000003  -0.000022
     7  H    0.000000   0.000000   0.000000   0.000000   0.000002   0.000044
     8  H    0.000000   0.000000   0.000000   0.000000   0.000185  -0.000925
     9  H   -0.000003   0.000000   0.000000   0.000001   0.000000   0.000000
    10  H    0.000000   0.000000   0.000000   0.000000   0.000000   0.000000
    11  C    0.000175   0.000021  -0.000044  -0.000291  -0.000808  -0.001017
    12  H   -0.000003   0.000002  -0.000008  -0.000022  -0.000270  -0.000329
    13  H   -0.000140  -0.000031   0.000016  -0.000035   0.000073  -0.000022
    14  C    0.007732  -0.000143  -0.000459   0.001285   0.009578   0.000843
    15  H    0.001207   0.000145  -0.000140  -0.000194  -0.000568  -0.000119
    16  C   -0.002566  -0.000193   0.000525   0.000042  -0.053449  -0.000275
    17  O    0.000000   0.000000   0.000000   0.000000   0.000000   0.000000
    18  H    0.000000   0.000000   0.000000   0.000000   0.000000   0.000000
    19  O   -0.000022   0.000001  -0.000004   0.000001   0.008254   0.004833
    20  N   -0.065549  -0.000528  -0.000578   0.013311  -0.001536  -0.000149
    21  H   -0.000896  -0.000266   0.000275  -0.000900   0.000087   0.000009
    22  N   -0.000060   0.000007   0.000173   0.000038   0.291993  -0.055649
    23  H    0.000382   0.000078  -0.000312   0.000061  -0.035151   0.002004
    24  C    0.273830  -0.026444  -0.023306  -0.059172  -0.000069   0.000187
    25  C    5.002053   0.389597   0.382964   0.394902  -0.000044   0.000000
    26  H    0.389597   0.562634  -0.022946  -0.025434  -0.000002   0.000000
    27  H    0.382964  -0.022946   0.570094  -0.026993   0.000017   0.000002
    28  H    0.394902  -0.025434  -0.026993   0.603177  -0.000001   0.000000
    29  C   -0.000044  -0.000002   0.000017  -0.000001   4.770899   0.392494
    30  H    0.000000   0.000000   0.000002   0.000000   0.392494   0.632509
    31  H   -0.000009   0.000000   0.000005   0.000001   0.392082  -0.029397
    32  H   -0.000010  -0.000001  -0.000004  -0.000001   0.402888  -0.056174
    33  O   -0.067579   0.001395   0.001902   0.004499   0.000198   0.000009
              31         32         33
     1  C   -0.000004  -0.000002   0.000000
     2  C   -0.000001   0.000032   0.000002
     3  C    0.000013  -0.000085   0.000041
     4  C    0.000001  -0.000006  -0.000024
     5  C    0.000000   0.000000   0.000000
     6  C    0.000000   0.000001   0.000000
     7  H    0.000000  -0.000002   0.000000
     8  H   -0.000061   0.000123   0.000000
     9  H    0.000000   0.000000  -0.000005
    10  H    0.000000   0.000000   0.000000
    11  C   -0.000052   0.000321   0.002413
    12  H   -0.000002   0.000071   0.000052
    13  H    0.000003   0.000013  -0.000078
    14  C    0.000547   0.000283   0.014161
    15  H   -0.000008   0.000010   0.009987
    16  C    0.009449  -0.005331   0.001492
    17  O    0.000000   0.000000   0.000000
    18  H    0.000000   0.000000   0.000000
    19  O    0.001626   0.005258  -0.001139
    20  N   -0.000157  -0.000080  -0.133780
    21  H    0.000032   0.000001   0.005027
    22  N   -0.029599  -0.045533  -0.004665
    23  H   -0.007949   0.002668  -0.001978
    24  C   -0.000070  -0.000509   0.723337
    25  C   -0.000009  -0.000010  -0.067579
    26  H    0.000000  -0.000001   0.001395
    27  H    0.000005  -0.000004   0.001902
    28  H    0.000001  -0.000001   0.004499
    29  C    0.392082   0.402888   0.000198
    30  H   -0.029397  -0.056174   0.000009
    31  H    0.605665  -0.026314   0.000005
    32  H   -0.026314   0.598366   0.000394
    33  O    0.000005   0.000394   7.822704
 Mulliken charges:
               1
     1  C   -0.227405
     2  C   -0.243450
     3  C    0.188542
     4  C   -0.211019
     5  C   -0.164063
     6  C    0.287667
     7  H    0.109654
     8  H    0.158923
     9  H    0.146919
    10  H    0.120080
    11  C   -0.486438
    12  H    0.215289
    13  H    0.193682
    14  C   -0.068588
    15  H    0.223589
    16  C    0.244235
    17  O   -0.295360
    18  H    0.188287
    19  O   -0.369751
    20  N   -0.226505
    21  H    0.151865
    22  N   -0.129913
    23  H    0.128319
    24  C    0.282380
    25  C   -0.315956
    26  H    0.122108
    27  H    0.118823
    28  H    0.095725
    29  C   -0.176773
    30  H    0.109687
    31  H    0.084194
    32  H    0.123622
    33  O   -0.378369
 Sum of Mulliken charges =   0.00000
 Mulliken charges with hydrogens summed into heavy atoms:
               1
     1  C   -0.117751
     2  C   -0.084528
     3  C    0.188542
     4  C   -0.064100
     5  C   -0.043982
     6  C    0.287667
    11  C   -0.077467
    14  C    0.155002
    16  C    0.244235
    17  O   -0.107073
    19  O   -0.369751
    20  N   -0.074640
    22  N   -0.001594
    24  C    0.282380
    25  C    0.020700
    29  C    0.140730
    33  O   -0.378369
 Electronic spatial extent (au):  <R**2>=           5136.3639
 Charge=              0.0000 electrons
 Dipole moment (field-independent basis, Debye):
    X=             -1.2610    Y=              0.0309    Z=             -6.5071  Tot=              6.6283
 Quadrupole moment (field-independent basis, Debye-Ang):
   XX=            -89.2547   YY=            -88.2494   ZZ=           -107.3166
   XY=              8.9738   XZ=             11.8273   YZ=             -3.6377
 Traceless Quadrupole moment (field-independent basis, Debye-Ang):
   XX=              5.6856   YY=              6.6908   ZZ=            -12.3764
   XY=              8.9738   XZ=             11.8273   YZ=             -3.6377
 Octapole moment (field-independent basis, Debye-Ang**2):
  XXX=             -7.6504  YYY=             16.1710  ZZZ=             -7.4185  XYY=            -13.0275
  XXY=             40.3757  XXZ=            -39.5908  XZZ=             -3.1409  YZZ=             -0.4218
  YYZ=             -1.0864  XYZ=             -5.9916
 Hexadecapole moment (field-independent basis, Debye-Ang**3):
 XXXX=          -4559.4900 YYYY=          -1175.2638 ZZZZ=           -473.5170 XXXY=            351.6779
 XXXZ=             80.2817 YYYX=            -14.4946 YYYZ=            -18.9316 ZZZX=             49.5159
 ZZZY=              0.3348 XXYY=           -911.5800 XXZZ=           -976.8883 YYZZ=           -281.3382
 XXYZ=              4.7175 YYXZ=             19.2705 ZZXY=              0.3443
 N-N= 1.211805710095D+03 E-N=-4.294273927746D+03  KE= 7.961907813351D+02
 Calculating spin-rotation constants.
 Leave Link  601 at Wed Jun 25 06:16:33 2014, MaxMem=  4294967296 cpu:        91.2
 (Enter /home/ztw1e12/g09/l9999.exe)

 Test job not archived.
 1\1\GINC-GREEN0323\SP\RM06\Gen\C12H16N2O3\ROOT\25-Jun-2014\0\\#P Geom=
 AllCheck Guess=TCheck SCRF=Check GenChk RM06/ChkBas NMR=ReadFC IOp(3/6
 =22)\\NMR spin-spin scan\\0,1\C,0,2.55232,-1.405433,2.041197\C,0,1.946
 65,-0.429149,1.268782\C,0,1.456952,-0.71402,0.001345\C,0,1.587258,-2.0
 1345,-0.476794\C,0,2.189276,-2.999661,0.280408\C,0,2.672711,-2.693874,
 1.545067\H,0,2.933852,-1.176153,3.029467\H,0,1.848866,0.577879,1.66131
 7\H,0,1.209327,-2.255217,-1.464521\H,0,2.293742,-4.00948,-0.095574\C,0
 ,0.764497,0.33273,-0.813914\H,0,1.055672,1.335242,-0.488896\H,0,1.0570
 23,0.23499,-1.863497\C,0,-0.759382,0.21079,-0.76189\H,0,-1.03978,-0.82
 9528,-0.955578\C,0,-1.260252,0.504949,0.642655\O,0,3.260026,-3.695046,
 2.259069\H,0,3.545167,-3.351589,3.113328\O,0,-1.480369,-0.415424,1.427
 792\N,0,-1.340452,1.055366,-1.781004\H,0,-0.727499,1.582721,-2.384455\
 N,0,-1.373566,1.789324,0.986298\H,0,-1.165214,2.497271,0.300522\C,0,-2
 .663861,1.045818,-2.026753\C,0,-3.138875,1.877924,-3.170579\H,0,-3.641
 984,1.229107,-3.887406\H,0,-3.875742,2.592593,-2.804828\H,0,-2.337225,
 2.413288,-3.67441\C,0,-1.742965,2.184482,2.325889\H,0,-1.013862,1.8281
 71,3.055322\H,0,-1.78467,3.268284,2.374367\H,0,-2.720395,1.784644,2.59
 642\O,0,-3.436401,0.379982,-1.340277\\Version=EM64L-G09RevD.01\State=1
 -A\HF=-801.8591291\RMSD=4.785e-09\Dipole=1.3400188,2.1013758,-0.767444
 4\Quadrupole=-12.3658961,2.9741126,9.3917834,-4.5613008,6.6017316,-1.8
 490672\PG=C01 [X(C12H16N2O3)]\\@


 IN THE UNIVERSE THE DIFFICULT THINGS ARE DONE AS IF THEY WERE EASY.

                                                          -- LAO-TSU
 Job cpu time:       3 days  6 hours 39 minutes  0.1 seconds.
 File lengths (MBytes):  RWF=   3656 Int=      0 D2E=      0 Chk=     64 Scr=      8
 Normal termination of Gaussian 09 at Wed Jun 25 06:16:33 2014.
