 Entering Gaussian System, Link 0=g09
 Input=scan_input_28.gjf
 Output=scan_input_28.log
 Initial command:
 /home/ztw1e12/g09/l1.exe "/home/ztw1e12/tyrosine_scan/tyrosine_chi1_scan/Gau-29702.inp" -scrdir="/home/ztw1e12/tyrosine_scan/tyrosine_chi1_scan/"
 Default is to use a total of   8 processors:
                                8 via shared-memory
                                1 via Linda
 Entering Link 1 = /home/ztw1e12/g09/l1.exe PID=     29703.
  
 Copyright (c) 1988,1990,1992,1993,1995,1998,2003,2009,2013,
            Gaussian, Inc.  All Rights Reserved.
  
 This is part of the Gaussian(R) 09 program.  It is based on
 the Gaussian(R) 03 system (copyright 2003, Gaussian, Inc.),
 the Gaussian(R) 98 system (copyright 1998, Gaussian, Inc.),
 the Gaussian(R) 94 system (copyright 1995, Gaussian, Inc.),
 the Gaussian 92(TM) system (copyright 1992, Gaussian, Inc.),
 the Gaussian 90(TM) system (copyright 1990, Gaussian, Inc.),
 the Gaussian 88(TM) system (copyright 1988, Gaussian, Inc.),
 the Gaussian 86(TM) system (copyright 1986, Carnegie Mellon
 University), and the Gaussian 82(TM) system (copyright 1983,
 Carnegie Mellon University). Gaussian is a federally registered
 trademark of Gaussian, Inc.
  
 This software contains proprietary and confidential information,
 including trade secrets, belonging to Gaussian, Inc.
  
 This software is provided under written license and may be
 used, copied, transmitted, or stored only in accord with that
 written license.
  
 The following legend is applicable only to US Government
 contracts under FAR:
  
                    RESTRICTED RIGHTS LEGEND
  
 Use, reproduction and disclosure by the US Government is
 subject to restrictions as set forth in subparagraphs (a)
 and (c) of the Commercial Computer Software - Restricted
 Rights clause in FAR 52.227-19.
  
 Gaussian, Inc.
 340 Quinnipiac St., Bldg. 40, Wallingford CT 06492
  
  
 ---------------------------------------------------------------
 Warning -- This program may not be used in any manner that
 competes with the business of Gaussian, Inc. or will provide
 assistance to any competitor of Gaussian, Inc.  The licensee
 of this program is prohibited from giving any competitor of
 Gaussian, Inc. access to this program.  By using this program,
 the user acknowledges that Gaussian, Inc. is engaged in the
 business of creating and licensing software in the field of
 computational chemistry and represents and warrants to the
 licensee that it is not a competitor of Gaussian, Inc. and that
 it will not use this program in any manner prohibited above.
 ---------------------------------------------------------------
  

 Cite this work as:
 Gaussian 09, Revision D.01,
 M. J. Frisch, G. W. Trucks, H. B. Schlegel, G. E. Scuseria, 
 M. A. Robb, J. R. Cheeseman, G. Scalmani, V. Barone, B. Mennucci, 
 G. A. Petersson, H. Nakatsuji, M. Caricato, X. Li, H. P. Hratchian, 
 A. F. Izmaylov, J. Bloino, G. Zheng, J. L. Sonnenberg, M. Hada, 
 M. Ehara, K. Toyota, R. Fukuda, J. Hasegawa, M. Ishida, T. Nakajima, 
 Y. Honda, O. Kitao, H. Nakai, T. Vreven, J. A. Montgomery, Jr., 
 J. E. Peralta, F. Ogliaro, M. Bearpark, J. J. Heyd, E. Brothers, 
 K. N. Kudin, V. N. Staroverov, T. Keith, R. Kobayashi, J. Normand, 
 K. Raghavachari, A. Rendell, J. C. Burant, S. S. Iyengar, J. Tomasi, 
 M. Cossi, N. Rega, J. M. Millam, M. Klene, J. E. Knox, J. B. Cross, 
 V. Bakken, C. Adamo, J. Jaramillo, R. Gomperts, R. E. Stratmann, 
 O. Yazyev, A. J. Austin, R. Cammi, C. Pomelli, J. W. Ochterski, 
 R. L. Martin, K. Morokuma, V. G. Zakrzewski, G. A. Voth, 
 P. Salvador, J. J. Dannenberg, S. Dapprich, A. D. Daniels, 
 O. Farkas, J. B. Foresman, J. V. Ortiz, J. Cioslowski, 
 and D. J. Fox, Gaussian, Inc., Wallingford CT, 2013.
 
 ******************************************
 Gaussian 09:  EM64L-G09RevD.01 24-Apr-2013
                24-Jun-2014 
 ******************************************
 %Mem=32GB
 %NProcShared=16
 Will use up to   16 processors via shared memory.
 Default route:  MaxDisk=100GB
 ----------------------------------------------------------------------
 #p nmr=(giao,mixed,spinspin) m06/cc-pvtz scf=tight integral=(grid=ultr
 afine)
 ----------------------------------------------------------------------
 1/38=1/1;
 2/12=2,17=6,18=5,40=1/2;
 3/5=16,6=1,10=1100000,11=2,16=1,25=1,30=1,74=-54,75=-5/1,2,8,3;
 4//1;
 5/5=2,32=2,38=5/2;
 8/6=1,10=90,11=11/1;
 10/13=100,45=16,47=3/2;
 6/7=2,8=2,9=2,10=2,28=1/1;
 99/9=1/99;
 Leave Link    1 at Tue Jun 24 17:06:41 2014, MaxMem=  4294967296 cpu:         5.3
 (Enter /home/ztw1e12/g09/l101.exe)
 ------------------
 NMR spin-spin scan
 ------------------
 Symbolic Z-matrix:
 Charge =  0 Multiplicity = 1
 C                     2.77498  -2.03942   1.81329 
 C                     2.17236  -0.84099   1.46577 
 C                     1.54697  -0.68002   0.23857 
 C                     1.53757  -1.75871  -0.64116 
 C                     2.13237  -2.95981  -0.31073 
 C                     2.75282  -3.10097   0.92392 
 H                     3.26183  -2.15793   2.7745 
 H                     2.1864   -0.0141    2.16699 
 H                     1.05008  -1.65128  -1.60504 
 H                     2.12548  -3.79703  -0.99713 
 C                     0.8704    0.60339  -0.13422 
 H                     1.16548   1.39609   0.55625 
 H                     1.21173   0.91472  -1.12494 
 C                    -0.66842   0.48925  -0.17634 
 H                    -0.95009  -0.56292  -0.08077 
 C                    -1.23699   1.15748   1.05882 
 O                     3.32531  -4.30458   1.21025 
 H                     3.71473  -4.27246   2.09144 
 O                    -1.05956   0.62824   2.15638 
 N                    -1.20039   0.97351  -1.43024 
 H                    -0.60292   1.51151  -2.03928 
 N                    -1.85612   2.32657   0.90611 
 H                    -1.99547   2.68039  -0.0267 
 C                    -2.43145   0.62856  -1.86027 
 C                    -2.83138   1.13258  -3.20704 
 H                    -3.07417   0.27965  -3.84056 
 H                    -3.73739   1.7292   -3.103 
 H                    -2.06113   1.73023  -3.68965 
 C                    -2.40748   3.04578   2.03224 
 H                    -1.62369   3.34479   2.72844 
 H                    -2.90957   3.93644   1.66752 
 H                    -3.12825   2.43187   2.57274 
 O                    -3.18321  -0.06251  -1.17729 
 
 NAtoms=     33 NQM=       33 NQMF=       0 NMMI=      0 NMMIF=      0
                NMic=       0 NMicF=      0.
                    Isotopes and Nuclear Properties:
 (Nuclear quadrupole moments (NQMom) in fm**2, nuclear magnetic moments (NMagM)
  in nuclear magnetons)

  Atom         1           2           3           4           5           6           7           8           9          10
 IAtWgt=          12          12          12          12          12          12           1           1           1           1
 AtmWgt=  12.0000000  12.0000000  12.0000000  12.0000000  12.0000000  12.0000000   1.0078250   1.0078250   1.0078250   1.0078250
 NucSpn=           0           0           0           0           0           0           1           1           1           1
 AtZEff=   0.0000000   0.0000000   0.0000000   0.0000000   0.0000000   0.0000000   0.0000000   0.0000000   0.0000000   0.0000000
 NQMom=    0.0000000   0.0000000   0.0000000   0.0000000   0.0000000   0.0000000   0.0000000   0.0000000   0.0000000   0.0000000
 NMagM=    0.0000000   0.0000000   0.0000000   0.0000000   0.0000000   0.0000000   2.7928460   2.7928460   2.7928460   2.7928460
 AtZNuc=   6.0000000   6.0000000   6.0000000   6.0000000   6.0000000   6.0000000   1.0000000   1.0000000   1.0000000   1.0000000

  Atom        11          12          13          14          15          16          17          18          19          20
 IAtWgt=          12           1           1          12           1          12          16           1          16          14
 AtmWgt=  12.0000000   1.0078250   1.0078250  12.0000000   1.0078250  12.0000000  15.9949146   1.0078250  15.9949146  14.0030740
 NucSpn=           0           1           1           0           1           0           0           1           0           2
 AtZEff=   0.0000000   0.0000000   0.0000000   0.0000000   0.0000000   0.0000000   0.0000000   0.0000000   0.0000000   0.0000000
 NQMom=    0.0000000   0.0000000   0.0000000   0.0000000   0.0000000   0.0000000   0.0000000   0.0000000   0.0000000   2.0440000
 NMagM=    0.0000000   2.7928460   2.7928460   0.0000000   2.7928460   0.0000000   0.0000000   2.7928460   0.0000000   0.4037610
 AtZNuc=   6.0000000   1.0000000   1.0000000   6.0000000   1.0000000   6.0000000   8.0000000   1.0000000   8.0000000   7.0000000

  Atom        21          22          23          24          25          26          27          28          29          30
 IAtWgt=           1          14           1          12          12           1           1           1          12           1
 AtmWgt=   1.0078250  14.0030740   1.0078250  12.0000000  12.0000000   1.0078250   1.0078250   1.0078250  12.0000000   1.0078250
 NucSpn=           1           2           1           0           0           1           1           1           0           1
 AtZEff=   0.0000000   0.0000000   0.0000000   0.0000000   0.0000000   0.0000000   0.0000000   0.0000000   0.0000000   0.0000000
 NQMom=    0.0000000   2.0440000   0.0000000   0.0000000   0.0000000   0.0000000   0.0000000   0.0000000   0.0000000   0.0000000
 NMagM=    2.7928460   0.4037610   2.7928460   0.0000000   0.0000000   2.7928460   2.7928460   2.7928460   0.0000000   2.7928460
 AtZNuc=   1.0000000   7.0000000   1.0000000   6.0000000   6.0000000   1.0000000   1.0000000   1.0000000   6.0000000   1.0000000

  Atom        31          32          33
 IAtWgt=           1           1          16
 AtmWgt=   1.0078250   1.0078250  15.9949146
 NucSpn=           1           1           0
 AtZEff=   0.0000000   0.0000000   0.0000000
 NQMom=    0.0000000   0.0000000   0.0000000
 NMagM=    2.7928460   2.7928460   0.0000000
 AtZNuc=   1.0000000   1.0000000   8.0000000
 Leave Link  101 at Tue Jun 24 17:06:41 2014, MaxMem=  4294967296 cpu:         2.6
 (Enter /home/ztw1e12/g09/l202.exe)
                          Input orientation:                          
 ---------------------------------------------------------------------
 Center     Atomic      Atomic             Coordinates (Angstroms)
 Number     Number       Type             X           Y           Z
 ---------------------------------------------------------------------
      1          6           0        2.774981   -2.039416    1.813289
      2          6           0        2.172360   -0.840989    1.465771
      3          6           0        1.546966   -0.680022    0.238571
      4          6           0        1.537569   -1.758710   -0.641158
      5          6           0        2.132371   -2.959812   -0.310725
      6          6           0        2.752820   -3.100971    0.923921
      7          1           0        3.261833   -2.157932    2.774503
      8          1           0        2.186396   -0.014102    2.166994
      9          1           0        1.050081   -1.651284   -1.605042
     10          1           0        2.125482   -3.797031   -0.997133
     11          6           0        0.870397    0.603386   -0.134215
     12          1           0        1.165481    1.396092    0.556252
     13          1           0        1.211730    0.914723   -1.124941
     14          6           0       -0.668418    0.489253   -0.176335
     15          1           0       -0.950089   -0.562915   -0.080767
     16          6           0       -1.236986    1.157481    1.058817
     17          8           0        3.325309   -4.304582    1.210246
     18          1           0        3.714733   -4.272458    2.091442
     19          8           0       -1.059558    0.628243    2.156376
     20          7           0       -1.200385    0.973508   -1.430237
     21          1           0       -0.602916    1.511509   -2.039281
     22          7           0       -1.856117    2.326571    0.906107
     23          1           0       -1.995469    2.680392   -0.026703
     24          6           0       -2.431453    0.628559   -1.860274
     25          6           0       -2.831383    1.132575   -3.207036
     26          1           0       -3.074169    0.279650   -3.840564
     27          1           0       -3.737385    1.729203   -3.103001
     28          1           0       -2.061133    1.730234   -3.689654
     29          6           0       -2.407481    3.045779    2.032235
     30          1           0       -1.623689    3.344793    2.728439
     31          1           0       -2.909574    3.936440    1.667523
     32          1           0       -3.128250    2.431873    2.572737
     33          8           0       -3.183210   -0.062507   -1.177285
 ---------------------------------------------------------------------
                    Distance matrix (angstroms):
                    1          2          3          4          5
     1  C    0.000000
     2  C    1.385694   0.000000
     3  C    2.415721   1.386740   0.000000
     4  C    2.763023   2.384181   1.391970   0.000000
     5  C    2.402397   2.765312   2.416996   1.380442   0.000000
     6  C    1.385051   2.395424   2.790122   2.393318   1.388969
     7  H    1.083976   2.152689   3.399403   3.846973   3.381912
     8  H    2.138559   1.084275   2.138021   3.369028   3.849574
     9  H    3.848495   3.368380   2.142231   1.085476   2.135147
    10  H    3.377800   3.847893   3.402556   2.151072   1.082654
    11  C    3.795341   2.518190   1.497949   2.506313   3.784193
    12  H    3.996667   2.616402   2.134643   3.394851   4.545374
    13  H    4.450156   3.273702   2.124796   2.736323   4.064794
    14  C    4.712724   3.540632   2.539149   3.183673   4.445057
    15  H    4.432116   3.495539   2.520114   2.816453   3.911465
    16  C    5.185100   3.972799   3.435056   4.369467   5.493661
    17  O    2.407800   3.659380   4.152601   3.620107   2.354753
    18  H    2.438643   3.813838   4.586714   4.304193   3.161853
    19  O    4.683781   3.616749   3.490487   4.502089   5.398994
    20  N    5.949933   4.801528   3.614833   3.947664   5.275564
    21  H    6.233903   5.051910   3.822749   4.150995   5.519276
    22  N    6.428988   5.155122   4.589791   5.531786   6.733095
    23  H    6.958401   5.656713   4.889949   5.706622   6.995115
    24  C    6.907974   5.866621   4.684587   4.789408   6.008827
    25  C    8.166793   7.125133   5.858981   5.833610   7.055147
    26  H    8.459118   7.545799   6.238205   5.971536   7.075446
    27  H    8.987953   7.899661   6.700361   6.786114   8.014843
    28  H    8.238971   7.149270   5.853090   5.866576   7.141370
    29  C    7.263956   6.033473   5.721580   6.767094   7.884595
    30  H    7.012525   5.790085   5.696633   6.884292   7.943082
    31  H    8.249016   6.977864   6.573764   7.585633   8.768863
    32  H    7.444281   6.327200   6.081929   7.046983   8.065901
    33  O    6.953542   6.022783   4.975996   5.044828   6.115611
                    6          7          8          9         10
     6  C    0.000000
     7  H    2.138474   0.000000
     8  H    3.375622   2.474195   0.000000
     9  H    3.375880   4.932439   4.266126   0.000000
    10  H    2.137405   4.266518   4.932136   2.475938   0.000000
    11  C    4.287823   4.669527   2.721894   2.697991   4.656558
    12  H    4.783137   4.684700   2.371793   3.737781   5.504828
    13  H    4.764304   5.371200   3.556617   2.615534   4.801240
    14  C    5.079876   5.582285   3.727535   3.094566   5.181874
    15  H    4.600289   5.332629   3.897584   2.740190   4.556135
    16  C    5.837051   5.845931   3.784205   4.496219   6.330901
    17  O    1.363233   2.656885   4.541003   4.488040   2.563146
    18  H    1.913312   2.267799   4.524944   5.256892   3.505859
    19  O    5.473592   5.178733   3.308918   4.878021   6.298583
    20  N    6.145833   6.884558   5.038425   3.461891   5.831553
    21  H    6.427791   7.181476   5.272618   3.595027   6.058946
    22  N    7.120452   7.056563   4.838440   5.529483   7.548109
    23  H    7.541491   7.674331   5.436966   5.525391   7.738280
    24  C    6.966909   7.852337   6.160879   4.169401   6.410656
    25  C    8.134558   9.150603   7.441315   5.038057   7.331794
    26  H    8.251225   9.478704   7.990656   5.073017   7.193108
    27  H    9.037115   9.931965   8.118075   6.049083   8.327494
    28  H    8.234061   9.232396   7.442079   5.045783   7.438284
    29  C    8.101827   7.731151   5.521299   6.873639   8.749221
    30  H    7.997374   7.358698   5.110200   7.133645   8.884921
    31  H    9.063156   8.743743   6.467238   7.590205   9.605142
    32  H    8.241234   7.870208   5.864545   7.182232   8.896343
    33  O    6.991694   7.845127   6.326074   4.541799   6.493176
                   11         12         13         14         15
    11  C    0.000000
    12  H    1.091880   0.000000
    13  H    1.093150   1.749361   0.000000
    14  C    1.543617   2.173068   2.148449   0.000000
    15  H    2.162703   2.952819   2.819073   1.093403   0.000000
    16  C    2.484232   2.466040   3.289976   1.515057   2.083440
    17  O    5.649984   6.131089   6.096020   6.391660   5.826304
    18  H    6.067755   6.402183   6.596741   6.857749   6.343482
    19  O    2.995355   2.846188   4.000983   2.369356   2.536858
    20  N    2.470790   3.118018   2.432069   1.445601   2.060173
    21  H    2.573833   3.142824   2.117808   2.125998   2.873942
    22  N    3.389029   3.180919   3.940832   2.440911   3.184955
    23  H    3.541003   3.461339   3.822282   2.566037   3.408047
    24  C    3.725873   4.400754   3.727652   2.441997   2.603977
    25  C    4.839984   5.496062   4.552949   3.778549   4.023371
    26  H    5.422308   6.209112   5.113400   4.388410   4.399739
    27  H    5.595785   6.126923   5.391645   4.418304   4.707093
    28  H    4.743923   5.343258   4.237268   3.977826   4.417807
    29  C    4.626367   4.203100   5.254317   3.799730   4.428481
    30  H    4.683008   4.036744   5.365946   4.183822   4.859584
    31  H    5.351980   4.928931   5.823554   4.506184   5.209635
    32  H    5.163345   4.855428   5.899999   4.169166   4.555680
    33  O    4.238294   4.903445   4.502579   2.762339   2.537635
                   16         17         18         19         20
    16  C    0.000000
    17  O    7.118399   0.000000
    18  H    7.420921   0.963945   0.000000
    19  O    1.231345   6.667457   6.842144   0.000000
    20  N    2.496112   7.437223   8.005046   3.605944   0.000000
    21  H    3.182074   7.734164   8.316203   4.311869   1.008637
    22  N    1.331696   8.420918   8.717028   2.254328   2.778357
    23  H    2.018145   8.867389   9.243109   3.138961   2.348514
    24  C    3.198062   8.179504   8.798388   4.244476   1.348870
    25  C    4.554144   9.326302  10.006992   5.670970   2.417120
    26  H    5.305635   9.353031  10.099484   6.335887   3.130844
    27  H    4.888721  10.241695  10.887435   6.003659   3.131387
    28  H    4.853374   9.457367  10.139724   6.032711   2.533473
    29  C    2.425545   9.357796   9.541572   2.770702   4.211900
    30  H    2.778761   9.236364   9.323466   2.832868   4.805909
    31  H    3.300104  10.343950  10.556854   3.821741   4.614803
    32  H    2.737318   9.427865   9.591982   2.775955   4.676248
    33  O    3.205669   8.127504   8.717218   4.012522   2.251423
                   21         22         23         24         25
    21  H    0.000000
    22  N    3.303052   0.000000
    23  H    2.712188   1.007344   0.000000
    24  C    2.038429   3.296532   2.786052   0.000000
    25  C    2.544270   4.392575   3.634420   1.492563   0.000000
    26  H    3.296845   5.310784   4.633864   2.111012   1.089855
    27  H    3.317196   4.468665   3.660962   2.112166   1.089783
    28  H    2.213135   4.638822   3.784749   2.167362   1.087843
    29  C    4.710380   1.445485   2.131311   4.582047   5.593747
    30  H    5.209037   2.100403   2.858401   5.393208   6.448434
    31  H    4.994132   2.069107   2.298618   4.859633   5.623975
    32  H    5.338079   2.099301   2.846409   4.836223   5.931448
    33  O    3.143005   3.436480   3.202821   1.228489   2.381574
                   26         27         28         29         30
    26  H    0.000000
    27  H    1.756433   0.000000
    28  H    1.775728   1.775946   0.000000
    29  C    6.525773   5.465589   5.881380   0.000000
    30  H    7.392618   6.409644   6.632501   1.090156   0.000000
    31  H    6.613488   5.321190   5.855471   1.085536   1.768923
    32  H    6.765014   5.751417   6.391289   1.090198   1.766740
    33  O    2.687381   2.688069   3.284049   4.534778   5.412622
                   31         32         33
    31  H    0.000000
    32  H    1.769450   0.000000
    33  O    4.915220   4.504178   0.000000
 Stoichiometry    C12H16N2O3
 Framework group  C1[X(C12H16N2O3)]
 Deg. of freedom    93
 Full point group                 C1      NOp   1
 Largest Abelian subgroup         C1      NOp   1
 Largest concise Abelian subgroup C1      NOp   1
                         Standard orientation:                         
 ---------------------------------------------------------------------
 Center     Atomic      Atomic             Coordinates (Angstroms)
 Number     Number       Type             X           Y           Z
 ---------------------------------------------------------------------
      1          6           0        3.629777    1.025191   -0.105237
      2          6           0        2.343102    1.143988   -0.605741
      3          6           0        1.518349    0.037126   -0.738726
      4          6           0        2.016564   -1.204211   -0.353441
      5          6           0        3.295564   -1.340350    0.147805
      6          6           0        4.105547   -0.219081    0.273966
      7          1           0        4.268715    1.894966   -0.003978
      8          1           0        1.971923    2.120562   -0.895881
      9          1           0        1.383703   -2.081019   -0.448058
     10          1           0        3.681783   -2.307043    0.445257
     11          6           0        0.117287    0.160784   -1.254075
     12          1           0       -0.027029    1.140545   -1.713904
     13          1           0       -0.040935   -0.577164   -2.044882
     14          6           0       -0.953062   -0.071900   -0.166434
     15          1           0       -0.465663   -0.444015    0.738830
     16          6           0       -1.538763    1.267869    0.230268
     17          8           0        5.360345   -0.398390    0.775699
     18          1           0        5.813855    0.451285    0.815314
     19          8           0       -0.835626    2.063061    0.854349
     20          7           0       -1.921934   -1.061353   -0.581201
     21          1           0       -1.955681   -1.335578   -1.551258
     22          7           0       -2.777459    1.549708   -0.169247
     23          1           0       -3.305061    0.835592   -0.645081
     24          6           0       -2.699652   -1.711012    0.309051
     25          6           0       -3.603547   -2.763898   -0.240629
     26          1           0       -3.369967   -3.711716    0.244000
     27          1           0       -4.632137   -2.511660    0.016289
     28          1           0       -3.521333   -2.882413   -1.318867
     29          6           0       -3.406304    2.813177    0.143205
     30          1           0       -2.872438    3.642448   -0.321269
     31          1           0       -4.425121    2.799736   -0.231257
     32          1           0       -3.429332    2.982266    1.219964
     33          8           0       -2.665807   -1.447343    1.508433
 ---------------------------------------------------------------------
 Rotational constants (GHZ):      0.7676820      0.2423315      0.2009133
 Leave Link  202 at Tue Jun 24 17:06:41 2014, MaxMem=  4294967296 cpu:         1.6
 (Enter /home/ztw1e12/g09/l301.exe)
 Standard basis: CC-pVTZ (5D, 7F)
 Converting basis for Fermi contact spin-spin IFCMod=1.
 AO basis functions are being uncontracted.
 Ernie: Thresh=  0.10000D-02 Tol=  0.10000D-05 Strict=F.
 There are  1305 symmetry adapted cartesian basis functions of A   symmetry.
 There are  1204 symmetry adapted basis functions of A   symmetry.
  1204 basis functions,  1305 primitive gaussians,  1305 cartesian basis functions
    63 alpha electrons       63 beta electrons
       nuclear repulsion energy      1195.2618923871 Hartrees.
 IExCor= 4235 DFT=T Ex+Corr=M06 ExCW=0 ScaHFX=  0.270000
 ScaDFX=  1.000000  1.000000  1.000000  1.000000 ScalE2=  1.000000  1.000000
 IRadAn= 199590 IRanWt=     -1 IRanGd=            0 ICorTp=0 IEmpDi=  4
 NAtoms=   33 NActive=   33 NUniq=   33 SFac= 1.00D+00 NAtFMM=   60 NAOKFM=F Big=F
 Integral buffers will be    131072 words long.
 Raffenetti 2 integral format.
 Two-electron integral symmetry is turned on.
 Leave Link  301 at Tue Jun 24 17:06:41 2014, MaxMem=  4294967296 cpu:         4.4
 (Enter /home/ztw1e12/g09/l302.exe)
 NPDir=0 NMtPBC=     1 NCelOv=     1 NCel=       1 NClECP=     1 NCelD=      1
         NCelK=      1 NCelE2=     1 NClLst=     1 CellRange=     0.0.
 One-electron integrals computed using PRISM.
 GSVD:  received Info=                   1 from GESDD.
 NBasis=  1204 RedAO= T EigKep=  2.61D-05  NBF=  1204
 NBsUse=  1068 1.00D-06 EigRej=  1.02D-14 NBFU=  1068
 Precomputing XC quadrature grid using
 IXCGrd= 4 IRadAn=      199590 IRanWt=          -1 IRanGd=           0 AccXCQ= 0.00D+00.
 Generated NRdTot=       0 NPtTot=           0 NUsed=           0 NTot=          32
 NSgBfM=   997   997   997   998   998 MxSgAt=    33 MxSgA2=    33.
 Leave Link  302 at Tue Jun 24 17:06:48 2014, MaxMem=  4294967296 cpu:        92.4
 (Enter /home/ztw1e12/g09/l308.exe)
 Leave Link  308 at Tue Jun 24 17:06:48 2014, MaxMem=  4294967296 cpu:         7.5
 (Enter /home/ztw1e12/g09/l303.exe)
 DipDrv:  MaxL=1.
 Leave Link  303 at Tue Jun 24 17:06:49 2014, MaxMem=  4294967296 cpu:         4.4
 (Enter /home/ztw1e12/g09/l401.exe)
 ExpMin= 1.03D-01 ExpMax= 1.38D+05 ExpMxC= 1.38D+05 IAcc=4 IRadAn=    199590 AccDes= 0.00D+00
 Harris functional with IExCor= 1009 and IRadAn=  199590 diagonalized for initial guess.
 HarFok:  IExCor= 1009 AccDes= 0.00D+00 IRadAn=    199590 IDoV= 1 UseB2=F ITyADJ=14
 ICtDFT=  3500011 ScaDFX=  1.000000  1.000000  1.000000  1.000000
 FoFCou: FMM=F IPFlag=           0 FMFlag=      100000 FMFlg1=           0
         NFxFlg=           0 DoJE=T BraDBF=F KetDBF=T FulRan=T
         wScrn=  0.000000 ICntrl=     500 IOpCl=  0 I1Cent=   200000004 NGrid=           0
         NMat0=    1 NMatS0=      1 NMatT0=    0 NMatD0=    1 NMtDS0=    0 NMtDT0=    0
 Petite list used in FoFCou.
 Harris En= -801.780076852038    
 JPrj=0 DoOrth=F DoCkMO=F.
 Leave Link  401 at Tue Jun 24 17:07:08 2014, MaxMem=  4294967296 cpu:       290.5
 (Enter /home/ztw1e12/g09/l502.exe)
 Closed shell SCF:
 Using DIIS extrapolation, IDIIS=  1040.
 Integral symmetry usage will be decided dynamically.
 IVT=     5158273 IEndB=     5158273 NGot=  4294967296 MDV=  4291529994
 LenX=  4291529994 LenY=  4289825664
 Requested convergence on RMS density matrix=1.00D-08 within 128 cycles.
 Requested convergence on MAX density matrix=1.00D-06.
 Requested convergence on             energy=1.00D-06.
 No special actions if energy rises.
 Fock matrices will be formed incrementally for  20 cycles.
 Integral accuracy reduced to 1.0D-05 until final iterations.

 Cycle   1  Pass 0  IDiag  1:
 FoFJK:  IHMeth= 1 ICntrl=       0 DoSepK=F KAlg= 0 I1Cent=   0 FoldK=F
 IRaf= 420000000 NMat=   1 IRICut=       1 DoRegI=T DoRafI=F ISym2E= 0.
 FoFCou: FMM=F IPFlag=           0 FMFlag=      100000 FMFlg1=           0
         NFxFlg=           0 DoJE=F BraDBF=F KetDBF=F FulRan=T
         wScrn=  0.000000 ICntrl=       0 IOpCl=  0 I1Cent=           0 NGrid=           0
         NMat0=    1 NMatS0=      1 NMatT0=    0 NMatD0=    1 NMtDS0=    0 NMtDT0=    0
 Symmetry not used in FoFCou.
 E= -801.449427025563    
 DIIS: error= 1.21D-01 at cycle   1 NSaved=   1.
 NSaved= 1 IEnMin= 1 EnMin= -801.449427025563     IErMin= 1 ErrMin= 1.21D-01
 ErrMax= 1.21D-01  0.00D+00 EMaxC= 1.00D-01 BMatC= 1.69D+01 BMatP= 1.69D+01
 IDIUse=3 WtCom= 0.00D+00 WtEn= 1.00D+00
 Coeff-Com:  0.100D+01
 Coeff-En:   0.100D+01
 Coeff:      0.100D+01
 Gap=     0.249 Goal=   None    Shift=    0.000
 GapD=    0.249 DampG=1.000 DampE=0.250 DampFc=0.2500 IDamp=-1.
 Damping current iteration by 2.50D-01
 RMSDP=2.31D-03 MaxDP=4.84D-01              OVMax= 3.08D-01

 Cycle   2  Pass 0  IDiag  1:
 RMSU=  5.73D-04    CP:  1.03D+00
 E= -801.609245154222     Delta-E=       -0.159818128660 Rises=F Damp=T
 DIIS: error= 9.27D-02 at cycle   2 NSaved=   2.
 NSaved= 2 IEnMin= 2 EnMin= -801.609245154222     IErMin= 2 ErrMin= 9.27D-02
 ErrMax= 9.27D-02  0.00D+00 EMaxC= 1.00D-01 BMatC= 1.00D+01 BMatP= 1.69D+01
 IDIUse=3 WtCom= 7.26D-02 WtEn= 9.27D-01
 Coeff-Com: -0.289D+01 0.389D+01
 Coeff-En:   0.000D+00 0.100D+01
 Coeff:     -0.210D+00 0.121D+01
 Gap=     0.249 Goal=   None    Shift=    0.000
 RMSDP=6.47D-04 MaxDP=9.80D-02 DE=-1.60D-01 OVMax= 1.84D-01

 Cycle   3  Pass 0  IDiag  1:
 RMSU=  5.35D-04    CP:  1.07D+00  1.61D+00
 E= -801.863057424198     Delta-E=       -0.253812269975 Rises=F Damp=F
 DIIS: error= 1.16D-02 at cycle   3 NSaved=   3.
 NSaved= 3 IEnMin= 3 EnMin= -801.863057424198     IErMin= 3 ErrMin= 1.16D-02
 ErrMax= 1.16D-02  0.00D+00 EMaxC= 1.00D-01 BMatC= 1.84D-01 BMatP= 1.00D+01
 IDIUse=3 WtCom= 8.84D-01 WtEn= 1.16D-01
 Coeff-Com:  0.371D+00-0.548D+00 0.118D+01
 Coeff-En:   0.000D+00 0.000D+00 0.100D+01
 Coeff:      0.328D+00-0.484D+00 0.116D+01
 Gap=     0.246 Goal=   None    Shift=    0.000
 RMSDP=4.48D-04 MaxDP=6.33D-02 DE=-2.54D-01 OVMax= 1.02D-01

 Cycle   4  Pass 0  IDiag  1:
 RMSU=  3.66D-04    CP:  1.05D+00  1.29D+00  6.63D-01
 E= -801.800341555903     Delta-E=        0.062715868294 Rises=F Damp=F
 DIIS: error= 1.00D-02 at cycle   4 NSaved=   4.
 NSaved= 4 IEnMin= 3 EnMin= -801.863057424198     IErMin= 4 ErrMin= 1.00D-02
 ErrMax= 1.00D-02  0.00D+00 EMaxC= 1.00D-01 BMatC= 1.43D-01 BMatP= 1.84D-01
 IDIUse=3 WtCom= 9.00D-01 WtEn= 1.00D-01
 Coeff-Com:  0.399D+00-0.563D+00 0.640D+00 0.524D+00
 Coeff-En:   0.000D+00 0.000D+00 0.704D+00 0.296D+00
 Coeff:      0.359D+00-0.507D+00 0.646D+00 0.501D+00
 Gap=     0.258 Goal=   None    Shift=    0.000
 RMSDP=3.23D-04 MaxDP=3.69D-02 DE= 6.27D-02 OVMax= 9.05D-02

 Cycle   5  Pass 0  IDiag  1:
 RMSU=  7.65D-05    CP:  1.06D+00  1.33D+00  9.00D-01  2.20D-01
 E= -801.906347396635     Delta-E=       -0.106005840732 Rises=F Damp=F
 DIIS: error= 2.13D-03 at cycle   5 NSaved=   5.
 NSaved= 5 IEnMin= 5 EnMin= -801.906347396635     IErMin= 5 ErrMin= 2.13D-03
 ErrMax= 2.13D-03  0.00D+00 EMaxC= 1.00D-01 BMatC= 8.39D-03 BMatP= 1.43D-01
 IDIUse=3 WtCom= 9.79D-01 WtEn= 2.13D-02
 Coeff-Com:  0.315D-01-0.471D-01 0.316D-01 0.192D+00 0.792D+00
 Coeff-En:   0.000D+00 0.000D+00 0.000D+00 0.000D+00 0.100D+01
 Coeff:      0.308D-01-0.461D-01 0.310D-01 0.188D+00 0.797D+00
 Gap=     0.223 Goal=   None    Shift=    0.000
 RMSDP=9.28D-05 MaxDP=1.58D-02 DE=-1.06D-01 OVMax= 2.40D-02

 Cycle   6  Pass 0  IDiag  1:
 RMSU=  4.12D-05    CP:  1.06D+00  1.34D+00  9.08D-01  4.16D-01  4.53D-01
 E= -801.910532099339     Delta-E=       -0.004184702704 Rises=F Damp=F
 DIIS: error= 1.47D-03 at cycle   6 NSaved=   6.
 NSaved= 6 IEnMin= 6 EnMin= -801.910532099339     IErMin= 6 ErrMin= 1.47D-03
 ErrMax= 1.47D-03  0.00D+00 EMaxC= 1.00D-01 BMatC= 1.36D-03 BMatP= 8.39D-03
 IDIUse=3 WtCom= 9.85D-01 WtEn= 1.47D-02
 Coeff-Com:  0.109D-01-0.155D-01-0.654D-02 0.744D-01 0.392D+00 0.545D+00
 Coeff-En:   0.000D+00 0.000D+00 0.000D+00 0.000D+00 0.137D+00 0.863D+00
 Coeff:      0.107D-01-0.153D-01-0.645D-02 0.733D-01 0.388D+00 0.550D+00
 Gap=     0.224 Goal=   None    Shift=    0.000
 RMSDP=3.32D-05 MaxDP=2.83D-03 DE=-4.18D-03 OVMax= 1.57D-02

 Cycle   7  Pass 0  IDiag  1:
 RMSU=  2.41D-05    CP:  1.06D+00  1.33D+00  9.06D-01  4.19D-01  6.45D-01
                    CP:  6.13D-01
 E= -801.911486070587     Delta-E=       -0.000953971248 Rises=F Damp=F
 DIIS: error= 7.88D-04 at cycle   7 NSaved=   7.
 NSaved= 7 IEnMin= 7 EnMin= -801.911486070587     IErMin= 7 ErrMin= 7.88D-04
 ErrMax= 7.88D-04  0.00D+00 EMaxC= 1.00D-01 BMatC= 2.69D-04 BMatP= 1.36D-03
 IDIUse=3 WtCom= 9.92D-01 WtEn= 7.88D-03
 Coeff-Com:  0.887D-02-0.118D-01-0.345D-02 0.195D-01 0.110D+00 0.326D+00
 Coeff-Com:  0.551D+00
 Coeff-En:   0.000D+00 0.000D+00 0.000D+00 0.000D+00 0.000D+00 0.190D+00
 Coeff-En:   0.810D+00
 Coeff:      0.880D-02-0.117D-01-0.343D-02 0.194D-01 0.109D+00 0.325D+00
 Coeff:      0.553D+00
 Gap=     0.223 Goal=   None    Shift=    0.000
 RMSDP=1.29D-05 MaxDP=1.18D-03 DE=-9.54D-04 OVMax= 6.47D-03

 Cycle   8  Pass 0  IDiag  1:
 RMSU=  6.59D-06    CP:  1.06D+00  1.33D+00  9.10D-01  4.26D-01  6.23D-01
                    CP:  8.02D-01  7.10D-01
 E= -801.911727694295     Delta-E=       -0.000241623708 Rises=F Damp=F
 DIIS: error= 1.31D-04 at cycle   8 NSaved=   8.
 NSaved= 8 IEnMin= 8 EnMin= -801.911727694295     IErMin= 8 ErrMin= 1.31D-04
 ErrMax= 1.31D-04  0.00D+00 EMaxC= 1.00D-01 BMatC= 1.63D-05 BMatP= 2.69D-04
 IDIUse=3 WtCom= 9.99D-01 WtEn= 1.31D-03
 Coeff-Com:  0.490D-02-0.652D-02-0.903D-03 0.655D-02 0.371D-01 0.147D+00
 Coeff-Com:  0.306D+00 0.506D+00
 Coeff-En:   0.000D+00 0.000D+00 0.000D+00 0.000D+00 0.000D+00 0.000D+00
 Coeff-En:   0.000D+00 0.100D+01
 Coeff:      0.490D-02-0.651D-02-0.902D-03 0.654D-02 0.370D-01 0.147D+00
 Coeff:      0.305D+00 0.507D+00
 Gap=     0.223 Goal=   None    Shift=    0.000
 RMSDP=3.80D-06 MaxDP=3.50D-04 DE=-2.42D-04 OVMax= 1.03D-03

 Initial convergence to 1.0D-05 achieved.  Increase integral accuracy.
 Cycle   9  Pass 1  IDiag  1:
 E= -801.911636089062     Delta-E=        0.000091605233 Rises=F Damp=F
 DIIS: error= 2.30D-04 at cycle   1 NSaved=   1.
 NSaved= 1 IEnMin= 1 EnMin= -801.911636089062     IErMin= 1 ErrMin= 2.30D-04
 ErrMax= 2.30D-04  0.00D+00 EMaxC= 1.00D-01 BMatC= 2.39D-05 BMatP= 2.39D-05
 IDIUse=3 WtCom= 9.98D-01 WtEn= 2.30D-03
 Coeff-Com:  0.100D+01
 Coeff-En:   0.100D+01
 Coeff:      0.100D+01
 Gap=     0.223 Goal=   None    Shift=    0.000
 RMSDP=3.80D-06 MaxDP=3.50D-04 DE= 9.16D-05 OVMax= 7.21D-04

 Cycle  10  Pass 1  IDiag  1:
 RMSU=  1.51D-04    CP:  9.93D-01
 E= -801.911650216910     Delta-E=       -0.000014127848 Rises=F Damp=F
 DIIS: error= 5.83D-05 at cycle   2 NSaved=   2.
 NSaved= 2 IEnMin= 2 EnMin= -801.911650216910     IErMin= 2 ErrMin= 5.83D-05
 ErrMax= 5.83D-05  0.00D+00 EMaxC= 1.00D-01 BMatC= 3.11D-06 BMatP= 2.39D-05
 IDIUse=1 WtCom= 1.00D+00 WtEn= 0.00D+00
 Coeff-Com:  0.157D+00 0.843D+00
 Coeff:      0.157D+00 0.843D+00
 Gap=     0.223 Goal=   None    Shift=    0.000
 RMSDP=3.76D-06 MaxDP=4.91D-04 DE=-1.41D-05 OVMax= 7.84D-04

 Cycle  11  Pass 1  IDiag  1:
 RMSU=  3.00D-06    CP:  9.93D-01  1.01D+00
 E= -801.911648152279     Delta-E=        0.000002064631 Rises=F Damp=F
 DIIS: error= 7.66D-05 at cycle   3 NSaved=   3.
 NSaved= 3 IEnMin= 2 EnMin= -801.911650216910     IErMin= 2 ErrMin= 5.83D-05
 ErrMax= 7.66D-05  0.00D+00 EMaxC= 1.00D-01 BMatC= 5.80D-06 BMatP= 3.11D-06
 IDIUse=1 WtCom= 1.00D+00 WtEn= 0.00D+00
 Coeff-Com: -0.257D-03 0.578D+00 0.422D+00
 Coeff:     -0.257D-03 0.578D+00 0.422D+00
 Gap=     0.223 Goal=   None    Shift=    0.000
 RMSDP=1.83D-06 MaxDP=2.09D-04 DE= 2.06D-06 OVMax= 5.22D-04

 Cycle  12  Pass 1  IDiag  1:
 RMSU=  6.69D-07    CP:  9.93D-01  1.02D+00  4.54D-01
 E= -801.911652484484     Delta-E=       -0.000004332205 Rises=F Damp=F
 DIIS: error= 9.59D-06 at cycle   4 NSaved=   4.
 NSaved= 4 IEnMin= 4 EnMin= -801.911652484484     IErMin= 4 ErrMin= 9.59D-06
 ErrMax= 9.59D-06  0.00D+00 EMaxC= 1.00D-01 BMatC= 8.92D-08 BMatP= 3.11D-06
 IDIUse=1 WtCom= 1.00D+00 WtEn= 0.00D+00
 Coeff-Com: -0.288D-02 0.334D+00 0.254D+00 0.414D+00
 Coeff:     -0.288D-02 0.334D+00 0.254D+00 0.414D+00
 Gap=     0.223 Goal=   None    Shift=    0.000
 RMSDP=2.32D-07 MaxDP=3.33D-05 DE=-4.33D-06 OVMax= 6.21D-05

 Cycle  13  Pass 1  IDiag  1:
 RMSU=  2.15D-07    CP:  9.93D-01  1.02D+00  4.60D-01  9.06D-01
 E= -801.911652547313     Delta-E=       -0.000000062829 Rises=F Damp=F
 DIIS: error= 1.19D-06 at cycle   5 NSaved=   5.
 NSaved= 5 IEnMin= 5 EnMin= -801.911652547313     IErMin= 5 ErrMin= 1.19D-06
 ErrMax= 1.19D-06  0.00D+00 EMaxC= 1.00D-01 BMatC= 2.10D-09 BMatP= 8.92D-08
 IDIUse=1 WtCom= 1.00D+00 WtEn= 0.00D+00
 Coeff-Com: -0.121D-02 0.992D-01 0.766D-01 0.185D+00 0.640D+00
 Coeff:     -0.121D-02 0.992D-01 0.766D-01 0.185D+00 0.640D+00
 Gap=     0.223 Goal=   None    Shift=    0.000
 RMSDP=4.83D-08 MaxDP=4.71D-06 DE=-6.28D-08 OVMax= 1.14D-05

 Cycle  14  Pass 1  IDiag  1:
 RMSU=  3.55D-08    CP:  9.93D-01  1.02D+00  4.63D-01  9.44D-01  9.42D-01
 E= -801.911652548423     Delta-E=       -0.000000001110 Rises=F Damp=F
 DIIS: error= 6.17D-07 at cycle   6 NSaved=   6.
 NSaved= 6 IEnMin= 6 EnMin= -801.911652548423     IErMin= 6 ErrMin= 6.17D-07
 ErrMax= 6.17D-07  0.00D+00 EMaxC= 1.00D-01 BMatC= 2.72D-10 BMatP= 2.10D-09
 IDIUse=1 WtCom= 1.00D+00 WtEn= 0.00D+00
 Coeff-Com: -0.480D-03 0.334D-01 0.260D-01 0.736D-01 0.338D+00 0.529D+00
 Coeff:     -0.480D-03 0.334D-01 0.260D-01 0.736D-01 0.338D+00 0.529D+00
 Gap=     0.223 Goal=   None    Shift=    0.000
 RMSDP=2.48D-08 MaxDP=3.89D-06 DE=-1.11D-09 OVMax= 7.67D-06

 Cycle  15  Pass 1  IDiag  1:
 RMSU=  1.68D-08    CP:  9.93D-01  1.02D+00  4.62D-01  9.60D-01  9.92D-01
                    CP:  8.05D-01
 E= -801.911652548634     Delta-E=       -0.000000000211 Rises=F Damp=F
 DIIS: error= 3.04D-07 at cycle   7 NSaved=   7.
 NSaved= 7 IEnMin= 7 EnMin= -801.911652548634     IErMin= 7 ErrMin= 3.04D-07
 ErrMax= 3.04D-07  0.00D+00 EMaxC= 1.00D-01 BMatC= 6.26D-11 BMatP= 2.72D-10
 IDIUse=1 WtCom= 1.00D+00 WtEn= 0.00D+00
 Coeff-Com:  0.197D-04-0.554D-02-0.410D-02-0.280D-02 0.411D-01 0.335D+00
 Coeff-Com:  0.636D+00
 Coeff:      0.197D-04-0.554D-02-0.410D-02-0.280D-02 0.411D-01 0.335D+00
 Coeff:      0.636D+00
 Gap=     0.223 Goal=   None    Shift=    0.000
 RMSDP=1.18D-08 MaxDP=1.32D-06 DE=-2.11D-10 OVMax= 2.23D-06

 Cycle  16  Pass 1  IDiag  1:
 RMSU=  5.58D-09    CP:  9.93D-01  1.02D+00  4.63D-01  9.68D-01  1.01D+00
                    CP:  1.01D+00  1.05D+00
 E= -801.911652548625     Delta-E=        0.000000000009 Rises=F Damp=F
 DIIS: error= 5.03D-08 at cycle   8 NSaved=   8.
 NSaved= 8 IEnMin= 7 EnMin= -801.911652548634     IErMin= 8 ErrMin= 5.03D-08
 ErrMax= 5.03D-08  0.00D+00 EMaxC= 1.00D-01 BMatC= 3.61D-12 BMatP= 6.26D-11
 IDIUse=1 WtCom= 1.00D+00 WtEn= 0.00D+00
 Coeff-Com:  0.402D-04-0.489D-02-0.370D-02-0.618D-02-0.228D-02 0.129D+00
 Coeff-Com:  0.310D+00 0.577D+00
 Coeff:      0.402D-04-0.489D-02-0.370D-02-0.618D-02-0.228D-02 0.129D+00
 Coeff:      0.310D+00 0.577D+00
 Gap=     0.223 Goal=   None    Shift=    0.000
 RMSDP=2.95D-09 MaxDP=5.80D-07 DE= 9.32D-12 OVMax= 4.85D-07

 SCF Done:  E(RM06) =  -801.911652549     A.U. after   16 cycles
            NFock= 16  Conv=0.29D-08     -V/T= 2.0044
 KE= 7.983713671953D+02 PE=-4.263296547712D+03 EE= 1.467751635581D+03
 Leave Link  502 at Tue Jun 24 17:41:13 2014, MaxMem=  4294967296 cpu:     32619.2
 (Enter /home/ztw1e12/g09/l801.exe)
 DoSCS=F DFT=T ScalE2(SS,OS)=  1.000000  1.000000
 Range of M.O.s used for correlation:     1  1068
 NBasis=  1204 NAE=    63 NBE=    63 NFC=     0 NFV=     0
 NROrb=   1068 NOA=    63 NOB=    63 NVA=  1005 NVB=  1005

 **** Warning!!: The largest alpha MO coefficient is  0.29283347D+02

 Leave Link  801 at Tue Jun 24 17:41:13 2014, MaxMem=  4294967296 cpu:         0.4
 (Enter /home/ztw1e12/g09/l1002.exe)
 Minotr:  Closed shell wavefunction.
          IDoAtm=111111111111111111111111111111111
          Direct CPHF calculation.
          Differentiating once with respect to Fermi-contact.
          Electric field/nuclear overlap derivatives assumed to be zero.
          Requested convergence is 1.0D-10 RMS, and 1.0D-09 maximum.
          Secondary convergence is 1.0D-12 RMS, and 1.0D-12 maximum.
          NewPWx=T KeepS1=F KeepF1=F KeepIn=T MapXYZ=F SortEE=F KeepMc=T.
          MDV=    4294965894 using IRadAn=  199590.
 Using stored XC quadrature information.
          Solving linear equations simultaneously, MaxMat=       0.
          There are    33 degrees of freedom in the 1st order CPHF.  IDoFFX=0 NUNeed=    33.
     33 vectors produced by pass  0 Test12= 1.92D-17 3.03D-11 XBig12= 4.29D+01 2.58D+00.
 AX will form    33 AO Fock derivatives at one time.
 FoFJK:  IHMeth= 1 ICntrl=       0 DoSepK=F KAlg= 0 I1Cent=   0 FoldK=F
 IRaf= 440000000 NMat=  33 IRICut=       1 DoRegI=T DoRafI=F ISym2E=-1.
 FoFCou: FMM=F IPFlag=           0 FMFlag=      100000 FMFlg1=           0
         NFxFlg=           0 DoJE=F BraDBF=F KetDBF=F FulRan=T
         wScrn=  0.000000 ICntrl=       0 IOpCl=  0 I1Cent=           0 NGrid=           0
         NMat0=   33 NMatS0=      0 NMatT0=   33 NMatD0=   33 NMtDS0=    0 NMtDT0=    0
 Petite list used in FoFCou.
     33 vectors produced by pass  1 Test12= 1.92D-17 3.03D-11 XBig12= 3.46D-01 1.89D-01.
     33 vectors produced by pass  2 Test12= 1.92D-17 3.03D-11 XBig12= 1.54D-02 4.30D-02.
     33 vectors produced by pass  3 Test12= 1.92D-17 3.03D-11 XBig12= 3.44D-04 5.65D-03.
     33 vectors produced by pass  4 Test12= 1.92D-17 3.03D-11 XBig12= 6.99D-06 1.13D-03.
     33 vectors produced by pass  5 Test12= 1.92D-17 3.03D-11 XBig12= 1.41D-07 1.66D-04.
     33 vectors produced by pass  6 Test12= 1.92D-17 3.03D-11 XBig12= 4.13D-09 1.80D-05.
     33 vectors produced by pass  7 Test12= 1.92D-17 3.03D-11 XBig12= 1.12D-10 3.96D-06.
     33 vectors produced by pass  8 Test12= 1.92D-17 3.03D-11 XBig12= 4.09D-12 2.85D-07.
     33 vectors produced by pass  9 Test12= 1.92D-17 3.03D-11 XBig12= 5.62D-14 8.20D-08.
     33 vectors produced by pass 10 Test12= 1.92D-17 3.03D-11 XBig12= 2.03D-15 7.77D-09.
     32 vectors produced by pass 11 Test12= 1.92D-17 3.03D-11 XBig12= 2.49D-17 5.71D-10.
      7 vectors produced by pass 12 Test12= 1.92D-17 3.03D-11 XBig12= 2.56D-19 7.12D-11.
 InvSVY:  IOpt=1 It=  1 EMax= 1.51D-14
 Solved reduced A of dimension   402 with    33 vectors.
 Max diff in FC couplings:  IJMax=    20     6 Diff= 4.44D-04 IJMaxR=    29    26 DiffR= 1.84D+00
 Fermi Contact (FC) contribution to K (Hz):
                1             2             3             4             5 
      1  0.123400D+11
      2  0.345384D+02  0.123400D+11
      3 -0.117611D+01  0.348030D+02  0.123400D+11
      4  0.309077D+01  0.317632D+00  0.334230D+02  0.123400D+11
      5  0.163024D+01  0.299787D+01 -0.126932D+01  0.352800D+02  0.123400D+11
      6  0.361020D+02 -0.282029D+00  0.432240D+01  0.261578D+00  0.388072D+02
      7  0.217762D+02 -0.289037D+00  0.972656D+00 -0.214753D+00  0.621157D+00
      8 -0.207606D+00  0.228077D+02 -0.306109D+00  0.100310D+01 -0.278776D+00
      9 -0.290513D+00  0.995503D+00 -0.246397D+00  0.218314D+02 -0.207103D+00
     10  0.665896D+00 -0.215122D+00  0.104023D+01 -0.282339D+00  0.228837D+02
     11  0.217234D+01  0.182310D+01  0.246329D+02  0.135412D+01  0.191369D+01
     12  0.240342D-01  0.833051D+00 -0.897683D+00  0.896664D+00  0.126253D+00
     13 -0.904317D-01  0.636653D+00 -0.116895D+01  0.617921D+00 -0.124980D+00
     14 -0.417665D+00  0.103543D+01 -0.638528D+00  0.103595D+01 -0.567194D+00
     15  0.103816D-01 -0.171764D-01  0.927204D+00 -0.318757D-01  0.616099D-02
     16  0.235978D-02 -0.419298D-01  0.426688D+00 -0.675896D-01 -0.685730D-02
     17 -0.740993D+00 -0.793960D-01  0.266630D+00  0.309912D+01  0.117133D+02
     18  0.416323D+00 -0.111070D-01 -0.467773D-01  0.214302D+00  0.115729D+01
     19  0.359303D-01  0.386854D+00  0.283825D+00  0.318523D-01  0.244341D-01
     20  0.123363D+00  0.258318D+00  0.137802D+01 -0.698635D-01  0.285544D-01
     21  0.134918D-02  0.584231D-02 -0.193206D-01 -0.664945D-03  0.107433D-02
     22 -0.188587D-01  0.365852D-01  0.713247D-01  0.453543D-01 -0.206023D-01
     23  0.982098D-03  0.494674D-03 -0.789853D-03 -0.111663D-02  0.122955D-03
     24  0.150853D-01  0.591271D-01  0.526410D-01 -0.370232D-02 -0.189222D-02
     25  0.312668D-02  0.621274D-02  0.611101D-01 -0.216166D-02  0.716325D-03
     26 -0.431809D-03  0.139491D-02  0.328838D-02  0.102093D-02 -0.630167D-03
     27 -0.610663D-04 -0.327475D-03 -0.124688D-02  0.563115D-04  0.341814D-04
     28 -0.106359D-03  0.840853D-04 -0.120363D-02  0.142326D-03 -0.818151D-04
     29  0.198946D-02 -0.241533D-03  0.460839D-02 -0.232859D-02 -0.897906D-03
     30 -0.479729D-03  0.971641D-03  0.305678D-02  0.110114D-02  0.212374D-03
     31  0.127713D-03  0.175618D-03 -0.602717D-03  0.788398D-04  0.144855D-03
     32 -0.353555D-03 -0.462738D-04  0.224995D-02  0.124062D-02  0.283683D-03
     33 -0.260715D-02  0.188599D-02  0.136708D-01  0.680598D-02 -0.161872D-02
                6             7             8             9            10 
      6  0.123400D+11
      7 -0.552489D+00  0.123400D+11
      8  0.120352D+01  0.332998D+00  0.123400D+11
      9  0.121306D+01  0.391671D-01  0.405924D-01  0.123400D+11
     10 -0.702120D+00  0.640316D-01  0.393723D-01  0.352837D+00  0.123400D+11
     11 -0.475317D+00  0.125973D-01  0.750681D+00  0.644889D+00  0.302280D-01
     12  0.519108D-02  0.309063D-02 -0.227552D-01  0.259795D-03  0.617031D-02
     13  0.144959D+00  0.153276D-01 -0.357662D-01 -0.388382D-01  0.128105D-01
     14  0.538423D+00  0.414312D-01 -0.138427D+00 -0.111670D+00  0.523115D-01
     15  0.189689D-02  0.881405D-03 -0.300659D-03 -0.282600D-02  0.125282D-02
     16  0.370288D-02 -0.563152D-03 -0.545981D-02  0.191102D-02  0.986158D-03
     17 -0.119575D+02  0.572186D+00  0.697499D-01  0.251929D+00  0.704378D+00
     18 -0.652062D+00 -0.127382D-01  0.187006D-02  0.133502D-01  0.558614D-03
     19  0.194897D-01 -0.151247D-02  0.935335D-01 -0.362728D-02 -0.700186D-02
     20 -0.124627D-01  0.530638D-02  0.174708D-01  0.274667D-01 -0.154250D-02
     21 -0.862487D-03 -0.657508D-04  0.252813D-03  0.148133D-02 -0.154282D-03
     22  0.253210D-01  0.209247D-02 -0.113087D-02 -0.395753D-03  0.221000D-02
     23 -0.557092D-03 -0.124599D-03  0.332869D-03 -0.113078D-04 -0.600484D-04
     24  0.608688D-03  0.129043D-02  0.209550D-02 -0.188670D-03 -0.153122D-03
     25  0.370950D-03  0.254916D-03  0.413814D-03  0.628624D-03 -0.171502D-04
     26  0.778212D-03  0.717539D-04 -0.166740D-03 -0.102141D-03  0.597162D-04
     27 -0.630025D-04 -0.144296D-04 -0.113679D-04  0.746274D-05 -0.778172D-05
     28  0.742704D-04  0.556367D-05 -0.227134D-04 -0.215768D-04  0.499992D-05
     29 -0.426283D-03 -0.344624D-03  0.338509D-03  0.220690D-03 -0.245551D-04
     30  0.461228D-03  0.689401D-04 -0.782369D-04  0.238122D-04  0.105488D-04
     31 -0.809436D-04 -0.177311D-04  0.972174D-05  0.237585D-04 -0.194557D-04
     32  0.199289D-03  0.589181D-04 -0.142512D-03  0.130263D-03  0.243009D-04
     33  0.340953D-02  0.123376D-03 -0.756145D-03  0.789693D-03  0.234456D-03
               11            12            13            14            15 
     11  0.123400D+11
     12  0.180718D+02  0.123400D+11
     13  0.166952D+02 -0.854657D+00  0.123400D+11
     14  0.166260D+02 -0.580752D+00 -0.944939D+00  0.123400D+11
     15 -0.889626D+00  0.202609D+00  0.207112D-01  0.210429D+02  0.123400D+11
     16 -0.340732D+00  0.782014D+00  0.319345D+00  0.278671D+02 -0.129006D+01
     17  0.605421D-01  0.203270D-02  0.494315D-01  0.212164D+00 -0.717973D-03
     18  0.114510D-01 -0.884668D-04 -0.529140D-02 -0.220906D-01  0.593390D-04
     19  0.945017D+00  0.786344D-01  0.104610D+00  0.492637D+01  0.341424D+00
     20  0.114565D+01  0.198834D+00  0.181822D+01  0.131952D+02 -0.561114D+00
     21  0.555404D+00 -0.619893D-02 -0.351975D-01  0.218165D+00  0.181584D+00
     22  0.352653D-01  0.196807D-01  0.418620D-01  0.983322D+01  0.164161D+00
     23 -0.252726D-01  0.225427D-02  0.313704D-02  0.710092D-01 -0.401676D-02
     24  0.147762D+01 -0.201754D-02  0.435507D-01 -0.174740D+00  0.398853D+00
     25 -0.290716D-01  0.427644D-02  0.385455D-01  0.650614D+00 -0.792660D-01
     26  0.146000D-01 -0.262274D-03  0.184454D-03  0.243540D-01  0.181592D-01
     27 -0.584281D-02 -0.104369D-02 -0.108421D-02  0.264178D-01  0.254925D-01
     28 -0.314985D-02  0.513287D-03 -0.404709D-03  0.932340D-01 -0.242593D-02
     29 -0.638249D-01  0.230407D-01  0.171865D-01  0.684480D+00  0.352777D-01
     30  0.495472D-01 -0.476116D-03 -0.142793D-02 -0.824274D-01  0.265056D-01
     31  0.197188D-02  0.475540D-03  0.441692D-03 -0.234672D-01  0.502943D-02
     32  0.689263D-01  0.127073D-03 -0.542533D-03 -0.864104D-01  0.116049D-01
     33  0.164256D+00  0.215320D-01  0.165550D-01  0.976586D+00  0.241999D+00
               16            17            18            19            20 
     16  0.123400D+11
     17 -0.242359D-02  0.123400D+11
     18  0.216350D-03  0.198941D+02  0.123400D+11
     19 -0.989869D+01  0.711852D-02 -0.104862D-02  0.123400D+11
     20  0.385047D+00  0.396753D-02  0.307673D-03  0.113399D+01  0.123400D+11
     21  0.727400D-01 -0.268910D-03  0.385006D-04  0.656208D-01  0.308998D+02
     22  0.298590D+02  0.714921D-02 -0.706533D-03  0.615903D+01 -0.388381D+00
     23  0.367513D+00 -0.142581D-03  0.131582D-04  0.454939D+00 -0.909084D-01
     24  0.308638D-01  0.112636D-02 -0.126746D-03 -0.213486D-01  0.247551D+02
     25 -0.138645D+00  0.544356D-03 -0.307627D-04  0.551741D-01  0.123466D+02
     26  0.599192D-01  0.326600D-03 -0.335037D-04 -0.208359D-02  0.387358D+00
     27  0.904597D-01 -0.202350D-04  0.111393D-05  0.755226D-02  0.340945D+00
     28 -0.140426D-02  0.236222D-04 -0.321615D-05  0.205423D-02  0.323988D+00
     29 -0.240656D+00 -0.151301D-03  0.124822D-04  0.605765D+00  0.153865D+00
     30  0.135516D+00  0.186313D-03 -0.208738D-04  0.228970D+00  0.162458D-01
     31  0.943090D+00 -0.208692D-04  0.169702D-05  0.175277D+00  0.728537D-02
     32  0.248732D+00  0.149842D-03 -0.123538D-04  0.237847D+00  0.259058D-02
     33  0.452923D+00  0.155480D-02 -0.136151D-03  0.539559D-01  0.581758D+01
               21            22            23            24            25 
     21  0.123400D+11
     22  0.907582D-02  0.123400D+11
     23  0.568935D-02  0.316488D+02  0.123400D+11
     24  0.458517D+00 -0.700126D-02  0.314645D-02  0.123400D+11
     25  0.839308D-01 -0.302801D-01  0.446228D-02  0.269110D+02  0.123400D+11
     26 -0.135978D-01  0.413703D-02  0.654903D-04 -0.119586D+01  0.180970D+02
     27 -0.916994D-02  0.702180D-04  0.104474D-03 -0.119149D+01  0.179183D+02
     28 -0.978626D-02 -0.141027D-02  0.117321D-03 -0.746278D+00  0.170366D+02
     29 -0.372839D-02  0.170550D+02  0.349619D+00 -0.577394D-02  0.477402D-03
     30 -0.406475D-03 -0.572734D+00  0.113336D+00  0.278226D-02  0.657842D-03
     31 -0.387874D-03 -0.370355D+00  0.294653D+00  0.582650D-03 -0.301170D-03
     32  0.128544D-02 -0.650197D+00  0.104915D+00 -0.918111D-03  0.166985D-03
     33  0.408383D+00  0.255975D+00  0.799450D-02 -0.976774D+01  0.359061D+01
               26            27            28            29            30 
     26  0.123400D+11
     27 -0.929665D+00  0.123400D+11
     28 -0.739765D+00 -0.729147D+00  0.123400D+11
     29  0.172923D-05  0.855219D-05 -0.218285D-04  0.123400D+11
     30  0.199094D-03  0.443269D-04 -0.372498D-05  0.198183D+02  0.123400D+11
     31  0.286557D-03  0.110287D-03  0.948997D-05  0.182735D+02 -0.738250D+00
     32 -0.977933D-04 -0.175393D-03  0.126971D-04  0.201798D+02 -0.741393D+00
     33  0.454529D+00  0.443385D+00  0.813207D+00 -0.151800D-01  0.106734D-01
               31            32            33 
     31  0.123400D+11
     32 -0.748214D+00  0.123400D+11
     33  0.135952D-02  0.103372D-01  0.123400D+11
 Fermi Contact (FC) contribution to J (Hz):
                1             2             3             4             5 
      1  0.243533D+11
      2  0.681624D+02  0.243533D+11
      3 -0.232107D+01  0.686845D+02  0.243533D+11
      4  0.609972D+01  0.626854D+00  0.659612D+02  0.243533D+11
      5  0.321732D+01  0.591636D+01 -0.250503D+01  0.696260D+02  0.243533D+11
      6  0.712482D+02 -0.556592D+00  0.853036D+01  0.516232D+00  0.765870D+02
      7  0.170876D+03 -0.226805D+01  0.763234D+01 -0.168515D+01  0.487416D+01
      8 -0.162907D+01  0.178970D+03 -0.240201D+01  0.787120D+01 -0.218753D+01
      9 -0.227962D+01  0.781161D+01 -0.193346D+01  0.171309D+03 -0.162512D+01
     10  0.522522D+01 -0.168804D+01  0.816262D+01 -0.221549D+01  0.179566D+03
     11  0.428716D+01  0.359793D+01  0.486137D+02  0.267239D+01  0.377671D+01
     12  0.188594D+00  0.653687D+01 -0.704403D+01  0.703604D+01  0.990694D+00
     13 -0.709609D+00  0.499575D+01 -0.917266D+01  0.484877D+01 -0.980703D+00
     14 -0.824272D+00  0.204344D+01 -0.126015D+01  0.204447D+01 -0.111937D+01
     15  0.814635D-01 -0.134781D+00  0.727568D+01 -0.250125D+00  0.483447D-01
     16  0.465709D-02 -0.827495D-01  0.842079D+00 -0.133390D+00 -0.135330D-01
     17  0.788551D+00  0.844917D-01 -0.283743D+00 -0.329803D+01 -0.124651D+02
     18  0.326685D+01 -0.871552D-01 -0.367057D+00  0.168160D+01  0.908117D+01
     19 -0.382363D-01 -0.411683D+00 -0.302042D+00 -0.338966D-01 -0.260023D-01
     20  0.699732D-01  0.146521D+00  0.781631D+00 -0.396274D-01  0.161964D-01
     21  0.105869D-01  0.458440D-01 -0.151607D+00 -0.521776D-02  0.843015D-02
     22 -0.106969D-01  0.207516D-01  0.404563D-01  0.257255D-01 -0.116859D-01
     23  0.770643D-02  0.388166D-02 -0.619790D-02 -0.876208D-02  0.964818D-03
     24  0.297712D-01  0.116689D+00  0.103888D+00 -0.730662D-02 -0.373434D-02
     25  0.617058D-02  0.122610D-01  0.120602D+00 -0.426610D-02  0.141369D-02
     26 -0.338836D-02  0.109457D-01  0.258036D-01  0.801111D-02 -0.494486D-02
     27 -0.479181D-03 -0.256966D-02 -0.978416D-02  0.441871D-03  0.268218D-03
     28 -0.834590D-03  0.659809D-03 -0.944476D-02  0.111682D-02 -0.641995D-03
     29  0.392624D-02 -0.476672D-03  0.909477D-02 -0.459553D-02 -0.177204D-02
     30 -0.376439D-02  0.762437D-02  0.239863D-01  0.864057D-02  0.166648D-02
     31  0.100215D-02  0.137806D-02 -0.472946D-02  0.618648D-03  0.113666D-02
     32 -0.277431D-02 -0.363106D-03  0.176551D-01  0.973501D-02  0.222603D-02
     33  0.277448D-02 -0.200703D-02 -0.145482D-01 -0.724279D-02  0.172261D-02
                6             7             8             9            10 
      6  0.243533D+11
      7 -0.433533D+01  0.385007D+12
      8  0.944388D+01  0.103895D+02  0.385007D+12
      9  0.951877D+01  0.122201D+01  0.126648D+01  0.385007D+12
     10 -0.550947D+01  0.199778D+01  0.122841D+01  0.110085D+02  0.385007D+12
     11 -0.938049D+00  0.988495D-01  0.589052D+01  0.506038D+01  0.237196D+00
     12  0.407339D-01  0.964276D-01 -0.709962D+00  0.810558D-02  0.192513D+00
     13  0.113748D+01  0.478222D+00 -0.111590D+01 -0.121175D+01  0.399688D+00
     14  0.106259D+01  0.325106D+00 -0.108623D+01 -0.876264D+00  0.410483D+00
     15  0.148847D-01  0.274998D-01 -0.938054D-02 -0.881711D-01  0.390879D-01
     16  0.730773D-02 -0.441900D-02 -0.428426D-01  0.149956D-01  0.773829D-02
     17  0.127250D+02 -0.242108D+01 -0.295131D+00 -0.106598D+01 -0.298042D+01
     18 -0.511666D+01 -0.397432D+00  0.583459D-01  0.416525D+00  0.174287D-01
     19 -0.207406D-01  0.639968D-02 -0.395766D+00  0.153480D-01  0.296268D-01
     20 -0.706900D-02  0.119674D-01  0.394016D-01  0.619452D-01 -0.347879D-02
     21 -0.676785D-02 -0.205142D-02  0.788776D-02  0.462174D-01 -0.481359D-02
     22  0.143624D-01  0.471912D-02 -0.255043D-02 -0.892536D-03  0.498417D-02
     23 -0.437145D-02 -0.388748D-02  0.103855D-01 -0.352804D-03 -0.187351D-02
     24  0.120126D-02  0.101259D-01  0.164432D-01 -0.148048D-02 -0.120154D-02
     25  0.732080D-03  0.200030D-02  0.324716D-02  0.493275D-02 -0.134576D-03
     26  0.610655D-02  0.223872D-02 -0.520227D-02 -0.318681D-02  0.186314D-02
     27 -0.494375D-03 -0.450203D-03 -0.354678D-03  0.232837D-03 -0.242789D-03
     28  0.582793D-03  0.173586D-03 -0.708656D-03 -0.673196D-03  0.155997D-03
     29 -0.841281D-03 -0.270423D-02  0.265624D-02  0.173173D-02 -0.192681D-03
     30  0.361921D-02  0.215093D-02 -0.244099D-02  0.742940D-03  0.329123D-03
     31 -0.635156D-03 -0.553208D-03  0.303318D-03  0.741265D-03 -0.607017D-03
     32  0.156380D-02  0.183824D-02 -0.444637D-02  0.406421D-02  0.758187D-03
     33 -0.362836D-02 -0.522037D-03  0.319945D-02 -0.334141D-02 -0.992048D-03
               11            12            13            14            15 
     11  0.243533D+11
     12  0.141808D+03  0.385007D+12
     13  0.131005D+03 -0.266653D+02  0.385007D+12
     14  0.328119D+02 -0.455711D+01 -0.741484D+01  0.243533D+11
     15 -0.698081D+01  0.632140D+01  0.646189D+00  0.165122D+03  0.385007D+12
     16 -0.672443D+00  0.613639D+01  0.250587D+01  0.549964D+02 -0.101230D+02
     17 -0.644277D-01 -0.860092D-02 -0.209158D+00 -0.225780D+00  0.303794D-02
     18  0.898546D-01 -0.276016D-02 -0.165091D+00 -0.173342D+00  0.185137D-02
     19 -0.100567D+01 -0.332724D+00 -0.442633D+00 -0.524254D+01 -0.144466D+01
     20  0.649827D+00  0.448427D+00  0.410061D+01  0.748449D+01 -0.126547D+01
     21  0.435820D+01 -0.193406D+00 -0.109816D+01  0.171192D+01  0.566542D+01
     22  0.200029D-01  0.443855D-01  0.944108D-01  0.557753D+01  0.370229D+00
     23 -0.198311D+00  0.703331D-01  0.978755D-01  0.557202D+00 -0.125323D+00
     24  0.291613D+01 -0.158314D-01  0.341738D+00 -0.344854D+00  0.312976D+01
     25 -0.573735D-01  0.335568D-01  0.302463D+00  0.128400D+01 -0.621992D+00
     26  0.114565D+00 -0.818294D-02  0.575496D-02  0.191104D+00  0.566567D+00
     27 -0.458480D-01 -0.325631D-01 -0.338274D-01  0.207298D+00  0.795364D+00
     28 -0.247166D-01  0.160145D-01 -0.126269D-01  0.731598D+00 -0.756888D-01
     29 -0.125960D+00  0.180798D+00  0.134861D+00  0.135084D+01  0.276820D+00
     30  0.388792D+00 -0.148548D-01 -0.445513D-01 -0.646800D+00  0.826973D+00
     31  0.154732D-01  0.148368D-01  0.137808D-01 -0.184145D+00  0.156918D+00
     32  0.540858D+00  0.396467D-02 -0.169270D-01 -0.678054D+00  0.362073D+00
     33 -0.174798D+00 -0.911077D-01 -0.700487D-01 -0.103926D+01 -0.102397D+01
               16            17            18            19            20 
     16  0.243533D+11
     17  0.257913D-02  0.708114D+10
     18  0.169767D-02 -0.841775D+02  0.385007D+12
     19  0.105340D+02  0.408487D-02  0.443701D-02  0.708114D+10
     20  0.218404D+00 -0.121350D-02  0.693889D-03 -0.346839D+00  0.201170D+10
     21  0.570784D+00  0.113783D-02  0.120122D-02 -0.277659D+00  0.696880D+02
     22  0.169364D+02 -0.218664D-02 -0.159343D-02 -0.188378D+01 -0.633150D-01
     23  0.288384D+01  0.603301D-03  0.410535D-03 -0.192497D+01 -0.205024D+00
     24  0.609105D-01 -0.119865D-02 -0.994564D-03  0.227187D-01  0.140414D+02
     25 -0.273620D+00 -0.579293D-03 -0.241392D-03 -0.587152D-01  0.700314D+01
     26  0.470180D+00 -0.138194D-02 -0.104531D-02  0.881625D-02  0.873603D+00
     27  0.709828D+00  0.856199D-04  0.347544D-04 -0.319557D-01  0.768928D+00
     28 -0.110191D-01 -0.999522D-04 -0.100344D-03 -0.869200D-02  0.730685D+00
     29 -0.474941D+00  0.161012D-03  0.979466D-04 -0.644643D+00  0.872743D-01
     30  0.106338D+01 -0.788341D-03 -0.651261D-03 -0.968835D+00  0.366389D-01
     31  0.740033D+01  0.883034D-04  0.529470D-04 -0.741644D+00  0.164306D-01
     32  0.195178D+01 -0.634021D-03 -0.385439D-03 -0.100640D+01  0.584249D-02
     33 -0.481992D+00  0.892199D-03  0.576094D-03  0.309619D-01 -0.177935D+01
               21            22            23            24            25 
     21  0.385007D+12
     22  0.204686D-01  0.201170D+10
     23  0.177507D+00  0.713769D+02  0.385007D+12
     24  0.359794D+01 -0.397120D-02  0.246899D-01  0.243533D+11
     25  0.658597D+00 -0.171752D-01  0.350151D-01  0.531096D+02  0.243533D+11
     26 -0.424250D+00  0.933019D-02  0.204330D-02 -0.938380D+01  0.142005D+03
     27 -0.286102D+00  0.158361D-03  0.325957D-02 -0.934948D+01  0.140603D+03
     28 -0.305331D+00 -0.318055D-02  0.366040D-02 -0.585597D+01  0.133685D+03
     29 -0.292563D-01  0.967381D+01  0.274343D+01 -0.113950D-01  0.942164D-03
     30 -0.126820D-01 -0.129168D+01  0.353608D+01  0.218321D-01  0.516202D-02
     31 -0.121016D-01 -0.835257D+00  0.919316D+01  0.457200D-02 -0.236325D-02
     32  0.401058D-01 -0.146638D+01  0.327335D+01 -0.720433D-02  0.131032D-02
     33 -0.172798D+01 -0.782918D-01 -0.338269D-01  0.103946D+02 -0.382106D+01
               26            27            28            29            30 
     26  0.385007D+12
     27 -0.290055D+02  0.385007D+12
     28 -0.230806D+02 -0.227494D+02  0.385007D+12
     29  0.135691D-04  0.671082D-04 -0.171286D-03  0.243533D+11
     30  0.621173D-02  0.138300D-02 -0.116219D-03  0.155512D+03  0.385007D+12
     31  0.894057D-02  0.344093D-02  0.296087D-03  0.143390D+03 -0.230334D+02
     32 -0.305115D-02 -0.547226D-02  0.396150D-03  0.158349D+03 -0.231314D+02
     33 -0.192324D+01 -0.187608D+01 -0.344090D+01  0.161543D-01 -0.451621D-01
               31            32            33 
     31  0.385007D+12
     32 -0.233442D+02  0.385007D+12
     33 -0.575251D-02 -0.437395D-01  0.708114D+10
 End of Minotr F.D. properties file   721 does not exist.
 End of Minotr F.D. properties file   722 does not exist.
 End of Minotr F.D. properties file   788 does not exist.
 Leave Link 1002 at Wed Jun 25 01:21:46 2014, MaxMem=  4294967296 cpu:    441057.0
 (Enter /home/ztw1e12/g09/l601.exe)
 Copying SCF densities to generalized density rwf, IOpCl= 0 IROHF=0.

 **********************************************************************

            Population analysis using the SCF density.

 **********************************************************************

 Orbital symmetries:
       Occupied  (A) (A) (A) (A) (A) (A) (A) (A) (A) (A) (A) (A)
                 (A) (A) (A) (A) (A) (A) (A) (A) (A) (A) (A) (A)
                 (A) (A) (A) (A) (A) (A) (A) (A) (A) (A) (A) (A)
                 (A) (A) (A) (A) (A) (A) (A) (A) (A) (A) (A) (A)
                 (A) (A) (A) (A) (A) (A) (A) (A) (A) (A) (A) (A)
                 (A) (A) (A)
       Virtual   (A) (A) (A) (A) (A) (A) (A) (A) (A) (A) (A) (A)
                 (A) (A) (A) (A) (A) (A) (A) (A) (A) (A) (A) (A)
                 (A) (A) (A) (A) (A) (A) (A) (A) (A) (A) (A) (A)
                 (A) (A) (A) (A) (A) (A) (A) (A) (A) (A) (A) (A)
                 (A) (A) (A) (A) (A) (A) (A) (A) (A) (A) (A) (A)
                 (A) (A) (A) (A) (A) (A) (A) (A) (A) (A) (A) (A)
                 (A) (A) (A) (A) (A) (A) (A) (A) (A) (A) (A) (A)
                 (A) (A) (A) (A) (A) (A) (A) (A) (A) (A) (A) (A)
                 (A) (A) (A) (A) (A) (A) (A) (A) (A) (A) (A) (A)
                 (A) (A) (A) (A) (A) (A) (A) (A) (A) (A) (A) (A)
                 (A) (A) (A) (A) (A) (A) (A) (A) (A) (A) (A) (A)
                 (A) (A) (A) (A) (A) (A) (A) (A) (A) (A) (A) (A)
                 (A) (A) (A) (A) (A) (A) (A) (A) (A) (A) (A) (A)
                 (A) (A) (A) (A) (A) (A) (A) (A) (A) (A) (A) (A)
                 (A) (A) (A) (A) (A) (A) (A) (A) (A) (A) (A) (A)
                 (A) (A) (A) (A) (A) (A) (A) (A) (A) (A) (A) (A)
                 (A) (A) (A) (A) (A) (A) (A) (A) (A) (A) (A) (A)
                 (A) (A) (A) (A) (A) (A) (A) (A) (A) (A) (A) (A)
                 (A) (A) (A) (A) (A) (A) (A) (A) (A) (A) (A) (A)
                 (A) (A) (A) (A) (A) (A) (A) (A) (A) (A) (A) (A)
                 (A) (A) (A) (A) (A) (A) (A) (A) (A) (A) (A) (A)
                 (A) (A) (A) (A) (A) (A) (A) (A) (A) (A) (A) (A)
                 (A) (A) (A) (A) (A) (A) (A) (A) (A) (A) (A) (A)
                 (A) (A) (A) (A) (A) (A) (A) (A) (A) (A) (A) (A)
                 (A) (A) (A) (A) (A) (A) (A) (A) (A) (A) (A) (A)
                 (A) (A) (A) (A) (A) (A) (A) (A) (A) (A) (A) (A)
                 (A) (A) (A) (A) (A) (A) (A) (A) (A) (A) (A) (A)
                 (A) (A) (A) (A) (A) (A) (A) (A) (A) (A) (A) (A)
                 (A) (A) (A) (A) (A) (A) (A) (A) (A) (A) (A) (A)
                 (A) (A) (A) (A) (A) (A) (A) (A) (A) (A) (A) (A)
                 (A) (A) (A) (A) (A) (A) (A) (A) (A) (A) (A) (A)
                 (A) (A) (A) (A) (A) (A) (A) (A) (A) (A) (A) (A)
                 (A) (A) (A) (A) (A) (A) (A) (A) (A) (A) (A) (A)
                 (A) (A) (A) (A) (A) (A) (A) (A) (A) (A) (A) (A)
                 (A) (A) (A) (A) (A) (A) (A) (A) (A) (A) (A) (A)
                 (A) (A) (A) (A) (A) (A) (A) (A) (A) (A) (A) (A)
                 (A) (A) (A) (A) (A) (A) (A) (A) (A) (A) (A) (A)
                 (A) (A) (A) (A) (A) (A) (A) (A) (A) (A) (A) (A)
                 (A) (A) (A) (A) (A) (A) (A) (A) (A) (A) (A) (A)
                 (A) (A) (A) (A) (A) (A) (A) (A) (A) (A) (A) (A)
                 (A) (A) (A) (A) (A) (A) (A) (A) (A) (A) (A) (A)
                 (A) (A) (A) (A) (A) (A) (A) (A) (A) (A) (A) (A)
                 (A) (A) (A) (A) (A) (A) (A) (A) (A) (A) (A) (A)
                 (A) (A) (A) (A) (A) (A) (A) (A) (A) (A) (A) (A)
                 (A) (A) (A) (A) (A) (A) (A) (A) (A) (A) (A) (A)
                 (A) (A) (A) (A) (A) (A) (A) (A) (A) (A) (A) (A)
                 (A) (A) (A) (A) (A) (A) (A) (A) (A) (A) (A) (A)
                 (A) (A) (A) (A) (A) (A) (A) (A) (A) (A) (A) (A)
                 (A) (A) (A) (A) (A) (A) (A) (A) (A) (A) (A) (A)
                 (A) (A) (A) (A) (A) (A) (A) (A) (A) (A) (A) (A)
                 (A) (A) (A) (A) (A) (A) (A) (A) (A) (A) (A) (A)
                 (A) (A) (A) (A) (A) (A) (A) (A) (A) (A) (A) (A)
                 (A) (A) (A) (A) (A) (A) (A) (A) (A) (A) (A) (A)
                 (A) (A) (A) (A) (A) (A) (A) (A) (A) (A) (A) (A)
                 (A) (A) (A) (A) (A) (A) (A) (A) (A) (A) (A) (A)
                 (A) (A) (A) (A) (A) (A) (A) (A) (A) (A) (A) (A)
                 (A) (A) (A) (A) (A) (A) (A) (A) (A) (A) (A) (A)
                 (A) (A) (A) (A) (A) (A) (A) (A) (A) (A) (A) (A)
                 (A) (A) (A) (A) (A) (A) (A) (A) (A) (A) (A) (A)
                 (A) (A) (A) (A) (A) (A) (A) (A) (A) (A) (A) (A)
                 (A) (A) (A) (A) (A) (A) (A) (A) (A) (A) (A) (A)
                 (A) (A) (A) (A) (A) (A) (A) (A) (A) (A) (A) (A)
                 (A) (A) (A) (A) (A) (A) (A) (A) (A) (A) (A) (A)
                 (A) (A) (A) (A) (A) (A) (A) (A) (A) (A) (A) (A)
                 (A) (A) (A) (A) (A) (A) (A) (A) (A) (A) (A) (A)
                 (A) (A) (A) (A) (A) (A) (A) (A) (A) (A) (A) (A)
                 (A) (A) (A) (A) (A) (A) (A) (A) (A) (A) (A) (A)
                 (A) (A) (A) (A) (A) (A) (A) (A) (A) (A) (A) (A)
                 (A) (A) (A) (A) (A) (A) (A) (A) (A) (A) (A) (A)
                 (A) (A) (A) (A) (A) (A) (A) (A) (A) (A) (A) (A)
                 (A) (A) (A) (A) (A) (A) (A) (A) (A) (A) (A) (A)
                 (A) (A) (A) (A) (A) (A) (A) (A) (A) (A) (A) (A)
                 (A) (A) (A) (A) (A) (A) (A) (A) (A) (A) (A) (A)
                 (A) (A) (A) (A) (A) (A) (A) (A) (A) (A) (A) (A)
                 (A) (A) (A) (A) (A) (A) (A) (A) (A) (A) (A) (A)
                 (A) (A) (A) (A) (A) (A) (A) (A) (A) (A) (A) (A)
                 (A) (A) (A) (A) (A) (A) (A) (A) (A) (A) (A) (A)
                 (A) (A) (A) (A) (A) (A) (A) (A) (A) (A) (A) (A)
                 (A) (A) (A) (A) (A) (A) (A) (A) (A) (A) (A) (A)
                 (A) (A) (A) (A) (A) (A) (A) (A) (A) (A) (A) (A)
                 (A) (A) (A) (A) (A) (A) (A) (A) (A) (A) (A) (A)
                 (A) (A) (A) (A) (A) (A) (A) (A) (A) (A) (A) (A)
                 (A) (A) (A) (A) (A) (A) (A) (A) (A) (A) (A) (A)
                 (A) (A) (A) (A) (A) (A) (A) (A) (A)
 The electronic state is 1-A.
 Alpha  occ. eigenvalues --  -19.24214 -19.17982 -19.16778 -14.43133 -14.41841
 Alpha  occ. eigenvalues --  -10.34897 -10.33303 -10.30203 -10.29119 -10.27170
 Alpha  occ. eigenvalues --  -10.25938 -10.25333 -10.24385 -10.24246 -10.24114
 Alpha  occ. eigenvalues --  -10.23817 -10.23545  -1.08505  -1.06164  -1.04656
 Alpha  occ. eigenvalues --   -0.96018  -0.93842  -0.87252  -0.81399  -0.77249
 Alpha  occ. eigenvalues --   -0.76104  -0.74242  -0.71761  -0.66734  -0.63566
 Alpha  occ. eigenvalues --   -0.61954  -0.60008  -0.59795  -0.55944  -0.55254
 Alpha  occ. eigenvalues --   -0.52113  -0.50781  -0.49438  -0.48672  -0.47257
 Alpha  occ. eigenvalues --   -0.46874  -0.45617  -0.44710  -0.43588  -0.43178
 Alpha  occ. eigenvalues --   -0.42716  -0.42502  -0.42244  -0.41546  -0.41111
 Alpha  occ. eigenvalues --   -0.40124  -0.39225  -0.38007  -0.36768  -0.36128
 Alpha  occ. eigenvalues --   -0.34751  -0.34478  -0.30290  -0.27674  -0.27409
 Alpha  occ. eigenvalues --   -0.26667  -0.25938  -0.23078
 Alpha virt. eigenvalues --   -0.00759   0.00345   0.01214   0.01737   0.02724
 Alpha virt. eigenvalues --    0.03554   0.03615   0.04830   0.05335   0.06431
 Alpha virt. eigenvalues --    0.07036   0.07865   0.08892   0.09620   0.10162
 Alpha virt. eigenvalues --    0.10757   0.11420   0.12316   0.12656   0.13052
 Alpha virt. eigenvalues --    0.15240   0.16205   0.16408   0.17499   0.18642
 Alpha virt. eigenvalues --    0.19737   0.20930   0.22641   0.23119   0.23394
 Alpha virt. eigenvalues --    0.24188   0.25248   0.25288   0.26142   0.26607
 Alpha virt. eigenvalues --    0.27113   0.27776   0.28289   0.29821   0.30165
 Alpha virt. eigenvalues --    0.30791   0.31260   0.31657   0.32386   0.33122
 Alpha virt. eigenvalues --    0.33333   0.33609   0.34460   0.34805   0.35358
 Alpha virt. eigenvalues --    0.35737   0.36228   0.36750   0.36985   0.37330
 Alpha virt. eigenvalues --    0.38255   0.39018   0.39163   0.39875   0.39937
 Alpha virt. eigenvalues --    0.40287   0.40760   0.41304   0.41462   0.41908
 Alpha virt. eigenvalues --    0.41968   0.42823   0.43074   0.43370   0.44031
 Alpha virt. eigenvalues --    0.44281   0.45098   0.45609   0.45758   0.46788
 Alpha virt. eigenvalues --    0.47307   0.47999   0.48487   0.49542   0.50555
 Alpha virt. eigenvalues --    0.50881   0.51093   0.51885   0.52434   0.52706
 Alpha virt. eigenvalues --    0.53713   0.54472   0.55959   0.56351   0.56879
 Alpha virt. eigenvalues --    0.57179   0.58475   0.59340   0.60199   0.60565
 Alpha virt. eigenvalues --    0.61635   0.63050   0.63541   0.64282   0.64940
 Alpha virt. eigenvalues --    0.65875   0.66450   0.66994   0.67915   0.68663
 Alpha virt. eigenvalues --    0.68967   0.70206   0.70409   0.71376   0.72046
 Alpha virt. eigenvalues --    0.72313   0.72939   0.73690   0.74958   0.76149
 Alpha virt. eigenvalues --    0.76915   0.77589   0.78440   0.79909   0.80123
 Alpha virt. eigenvalues --    0.80704   0.81396   0.82205   0.82611   0.83460
 Alpha virt. eigenvalues --    0.83635   0.84495   0.84947   0.85511   0.86363
 Alpha virt. eigenvalues --    0.87838   0.88381   0.89024   0.89824   0.90481
 Alpha virt. eigenvalues --    0.90994   0.91815   0.92714   0.93337   0.94344
 Alpha virt. eigenvalues --    0.94975   0.95317   0.95921   0.96890   0.97865
 Alpha virt. eigenvalues --    0.98224   0.99388   0.99946   1.00404   1.01258
 Alpha virt. eigenvalues --    1.02125   1.02854   1.03425   1.04432   1.05643
 Alpha virt. eigenvalues --    1.06362   1.06863   1.08142   1.08205   1.08664
 Alpha virt. eigenvalues --    1.10264   1.10822   1.11859   1.13267   1.14441
 Alpha virt. eigenvalues --    1.14956   1.15170   1.16456   1.16924   1.17410
 Alpha virt. eigenvalues --    1.17872   1.18098   1.18824   1.19439   1.20005
 Alpha virt. eigenvalues --    1.20810   1.21456   1.22128   1.22300   1.22506
 Alpha virt. eigenvalues --    1.22994   1.23845   1.24392   1.24607   1.25598
 Alpha virt. eigenvalues --    1.25809   1.26064   1.26615   1.27274   1.27923
 Alpha virt. eigenvalues --    1.28096   1.28842   1.29159   1.29227   1.30854
 Alpha virt. eigenvalues --    1.31362   1.31800   1.32551   1.33342   1.33960
 Alpha virt. eigenvalues --    1.34488   1.35478   1.36314   1.36800   1.37641
 Alpha virt. eigenvalues --    1.39006   1.39554   1.40813   1.41840   1.43200
 Alpha virt. eigenvalues --    1.44466   1.45729   1.46738   1.47672   1.49818
 Alpha virt. eigenvalues --    1.52388   1.52637   1.53486   1.55611   1.58629
 Alpha virt. eigenvalues --    1.59267   1.61227   1.61631   1.62196   1.63622
 Alpha virt. eigenvalues --    1.65053   1.66107   1.68375   1.68663   1.71285
 Alpha virt. eigenvalues --    1.73156   1.73738   1.74675   1.75909   1.77731
 Alpha virt. eigenvalues --    1.79876   1.81425   1.82968   1.83602   1.84619
 Alpha virt. eigenvalues --    1.85722   1.86188   1.87643   1.88916   1.89847
 Alpha virt. eigenvalues --    1.90604   1.92019   1.92897   1.94481   1.96731
 Alpha virt. eigenvalues --    1.97661   1.98870   2.00105   2.01659   2.02985
 Alpha virt. eigenvalues --    2.03269   2.04717   2.06120   2.08277   2.08914
 Alpha virt. eigenvalues --    2.10319   2.10690   2.11579   2.11610   2.14072
 Alpha virt. eigenvalues --    2.15097   2.17123   2.17768   2.19465   2.20617
 Alpha virt. eigenvalues --    2.21850   2.22231   2.23048   2.24773   2.26759
 Alpha virt. eigenvalues --    2.27121   2.29937   2.30301   2.31933   2.32185
 Alpha virt. eigenvalues --    2.33933   2.35539   2.36263   2.36421   2.37783
 Alpha virt. eigenvalues --    2.38012   2.39192   2.40600   2.41349   2.42194
 Alpha virt. eigenvalues --    2.43614   2.43797   2.44768   2.45217   2.47707
 Alpha virt. eigenvalues --    2.49753   2.50176   2.51674   2.52802   2.54842
 Alpha virt. eigenvalues --    2.56204   2.57383   2.57406   2.58834   2.60158
 Alpha virt. eigenvalues --    2.62256   2.63199   2.65103   2.66207   2.66972
 Alpha virt. eigenvalues --    2.67872   2.68552   2.69067   2.69280   2.69701
 Alpha virt. eigenvalues --    2.70443   2.70630   2.71043   2.72075   2.72502
 Alpha virt. eigenvalues --    2.73110   2.73998   2.74355   2.75001   2.76176
 Alpha virt. eigenvalues --    2.76983   2.77329   2.78783   2.79134   2.80138
 Alpha virt. eigenvalues --    2.81970   2.83534   2.84528   2.86216   2.86300
 Alpha virt. eigenvalues --    2.86518   2.87245   2.88181   2.88889   2.89440
 Alpha virt. eigenvalues --    2.90013   2.90673   2.91352   2.91404   2.92437
 Alpha virt. eigenvalues --    2.93205   2.93390   2.94820   2.95708   2.96146
 Alpha virt. eigenvalues --    2.96506   2.96661   2.97820   2.98326   2.99099
 Alpha virt. eigenvalues --    2.99561   3.00098   3.00770   3.01062   3.01735
 Alpha virt. eigenvalues --    3.02511   3.03085   3.03610   3.04151   3.04804
 Alpha virt. eigenvalues --    3.05157   3.06194   3.07152   3.07882   3.09271
 Alpha virt. eigenvalues --    3.10197   3.10760   3.11842   3.12245   3.13773
 Alpha virt. eigenvalues --    3.13850   3.14793   3.15838   3.16137   3.16866
 Alpha virt. eigenvalues --    3.17304   3.18340   3.18736   3.19106   3.19754
 Alpha virt. eigenvalues --    3.20593   3.21862   3.22925   3.23486   3.24667
 Alpha virt. eigenvalues --    3.26011   3.26611   3.27005   3.27204   3.27622
 Alpha virt. eigenvalues --    3.27905   3.28779   3.29411   3.30189   3.30652
 Alpha virt. eigenvalues --    3.31971   3.32128   3.33147   3.33556   3.33773
 Alpha virt. eigenvalues --    3.34390   3.36687   3.37322   3.37712   3.38901
 Alpha virt. eigenvalues --    3.39771   3.41086   3.41308   3.41890   3.43076
 Alpha virt. eigenvalues --    3.43356   3.44350   3.45017   3.45574   3.46345
 Alpha virt. eigenvalues --    3.47221   3.47744   3.48512   3.49733   3.50300
 Alpha virt. eigenvalues --    3.51123   3.52771   3.53900   3.54452   3.55037
 Alpha virt. eigenvalues --    3.55461   3.57679   3.58543   3.59721   3.60489
 Alpha virt. eigenvalues --    3.62119   3.62279   3.63584   3.64478   3.65407
 Alpha virt. eigenvalues --    3.67719   3.67901   3.68897   3.69001   3.70168
 Alpha virt. eigenvalues --    3.71873   3.71956   3.72387   3.73167   3.73791
 Alpha virt. eigenvalues --    3.74389   3.75136   3.75607   3.76424   3.77147
 Alpha virt. eigenvalues --    3.79133   3.79504   3.80528   3.80814   3.82177
 Alpha virt. eigenvalues --    3.82567   3.83682   3.84986   3.85457   3.85850
 Alpha virt. eigenvalues --    3.86871   3.87093   3.88105   3.88404   3.89327
 Alpha virt. eigenvalues --    3.91109   3.91751   3.92509   3.93616   3.95036
 Alpha virt. eigenvalues --    3.96920   3.97153   3.98186   3.99111   3.99554
 Alpha virt. eigenvalues --    3.99960   4.01632   4.03165   4.04009   4.04740
 Alpha virt. eigenvalues --    4.05690   4.06759   4.07134   4.08022   4.08897
 Alpha virt. eigenvalues --    4.09886   4.11242   4.12036   4.13466   4.13660
 Alpha virt. eigenvalues --    4.14637   4.15841   4.16007   4.17547   4.18262
 Alpha virt. eigenvalues --    4.19050   4.20383   4.21022   4.22024   4.22800
 Alpha virt. eigenvalues --    4.24020   4.24388   4.24909   4.26328   4.26880
 Alpha virt. eigenvalues --    4.27547   4.28731   4.29066   4.29548   4.29949
 Alpha virt. eigenvalues --    4.31595   4.33083   4.34014   4.36064   4.37762
 Alpha virt. eigenvalues --    4.39048   4.39340   4.40553   4.41484   4.45647
 Alpha virt. eigenvalues --    4.45731   4.46178   4.47656   4.49619   4.50355
 Alpha virt. eigenvalues --    4.53553   4.54545   4.55394   4.55901   4.58483
 Alpha virt. eigenvalues --    4.58515   4.60588   4.61155   4.61642   4.64302
 Alpha virt. eigenvalues --    4.64846   4.65464   4.66363   4.67258   4.67416
 Alpha virt. eigenvalues --    4.70053   4.70397   4.71180   4.71845   4.72439
 Alpha virt. eigenvalues --    4.74949   4.76273   4.76709   4.78390   4.79181
 Alpha virt. eigenvalues --    4.80577   4.82831   4.84654   4.85822   4.86237
 Alpha virt. eigenvalues --    4.86630   4.88681   4.89809   4.90529   4.90841
 Alpha virt. eigenvalues --    4.91908   4.94028   4.95279   4.95474   4.96992
 Alpha virt. eigenvalues --    4.97581   4.98813   5.01143   5.01758   5.02766
 Alpha virt. eigenvalues --    5.03592   5.04708   5.05479   5.07193   5.08670
 Alpha virt. eigenvalues --    5.10096   5.10734   5.11957   5.13613   5.15123
 Alpha virt. eigenvalues --    5.16148   5.16844   5.17279   5.18431   5.19100
 Alpha virt. eigenvalues --    5.20766   5.21976   5.23099   5.24471   5.27581
 Alpha virt. eigenvalues --    5.30353   5.31330   5.33654   5.35813   5.36635
 Alpha virt. eigenvalues --    5.40203   5.43994   5.45043   5.45165   5.46742
 Alpha virt. eigenvalues --    5.50902   5.52173   5.52690   5.53059   5.55542
 Alpha virt. eigenvalues --    5.57402   5.57743   5.58967   5.60777   5.62881
 Alpha virt. eigenvalues --    5.63489   5.64467   5.65882   5.66211   5.67848
 Alpha virt. eigenvalues --    5.68669   5.69154   5.71261   5.72734   5.74002
 Alpha virt. eigenvalues --    5.75067   5.78602   5.79424   5.79778   5.80829
 Alpha virt. eigenvalues --    5.84430   5.86924   5.90441   5.92130   5.96583
 Alpha virt. eigenvalues --    5.97817   5.98394   6.02384   6.06206   6.09937
 Alpha virt. eigenvalues --    6.16825   6.18273   6.18946   6.20200   6.27875
 Alpha virt. eigenvalues --    6.46538   6.47310   6.49901   6.52894   6.55997
 Alpha virt. eigenvalues --    6.60535   6.61477   6.63246   6.64309   6.67245
 Alpha virt. eigenvalues --    6.79499   6.80870   6.81415   6.88621   6.88927
 Alpha virt. eigenvalues --    6.90947   6.91332   6.92161   6.92914   7.07212
 Alpha virt. eigenvalues --    7.17181   7.18653   7.22927   7.27133   7.30029
 Alpha virt. eigenvalues --    7.68212   7.99431   8.10393   8.12860   8.14304
 Alpha virt. eigenvalues --    8.19475   8.21387   8.24080   8.36131   8.65752
 Alpha virt. eigenvalues --    8.73391   8.76649   8.77154   8.81307   8.82213
 Alpha virt. eigenvalues --    8.83383   8.84713   8.85642   8.87559   8.91736
 Alpha virt. eigenvalues --    8.93319   8.96285   8.97378   9.00138   9.08498
 Alpha virt. eigenvalues --    9.09848   9.12841   9.17260   9.20630   9.32207
 Alpha virt. eigenvalues --    9.36190   9.41024   9.41867   9.46685   9.49561
 Alpha virt. eigenvalues --    9.57534   9.61086   9.77322   9.81497  10.02405
 Alpha virt. eigenvalues --   10.07915  10.11006  10.11509  10.13402  10.16743
[...]
 Alpha virt. eigenvalues --    6.55547   6.62100   6.62868   6.64723   6.68906
 Alpha virt. eigenvalues --    6.79035   6.81295   6.86574   6.86625   6.89300
 Alpha virt. eigenvalues --    6.90929   6.93949   7.08623   7.09051   7.09911
 Alpha virt. eigenvalues --    7.15259   7.18718   7.29303   7.44231   8.59377
 Alpha virt. eigenvalues --    9.45275   9.84906  11.89350  12.11759  12.29677
 Alpha virt. eigenvalues --   12.40259  12.51956  12.74660  12.93824  13.18337
 Alpha virt. eigenvalues --   13.41358  13.52740  13.58653  13.73630  14.04578
 Alpha virt. eigenvalues --   15.54908
          Condensed to atoms (all electrons):
               1          2          3          4          5          6
     1  C    5.405896   0.233070   0.007294  -0.041731  -0.025068   0.308758
     2  C    0.233070   5.302717   0.291849  -0.016573  -0.033136   0.026212
     3  C    0.007294   0.291849   5.438982   0.281620  -0.035845  -0.076312
     4  C   -0.041731  -0.016573   0.281620   5.226124   0.436438  -0.021948
     5  C   -0.025068  -0.033136  -0.035845   0.436438   5.063478   0.387308
     6  C    0.308758   0.026212  -0.076312  -0.021948   0.387308   4.875407
     7  H    0.452188  -0.035360   0.009055  -0.000982   0.004615  -0.074379
     8  H   -0.024990   0.438593  -0.082602   0.007315  -0.001609   0.007770
     9  H   -0.003320   0.006624  -0.109571   0.459565  -0.028888   0.012306
    10  H    0.013466  -0.005582   0.015102  -0.055722   0.452001  -0.080078
    11  C    0.006817  -0.055277   0.169361  -0.034106   0.001996   0.000107
    12  H    0.000447  -0.003513  -0.026715   0.005934   0.000028  -0.000070
    13  H   -0.000250   0.004001  -0.045979  -0.007447  -0.000203   0.000123
    14  C   -0.000192   0.003884   0.013154  -0.017432  -0.000115  -0.000207
    15  H    0.000072   0.002139   0.020004  -0.012594   0.000783  -0.000339
    16  C   -0.000134  -0.003084  -0.008933   0.004604  -0.000009   0.000029
    17  O   -0.090114   0.013261  -0.000562   0.002821  -0.048625   0.391664
    18  H   -0.004746   0.004564  -0.000418  -0.000761   0.002365  -0.043677
    19  O   -0.000083   0.004915  -0.009228  -0.000419   0.000054   0.000010
    20  N   -0.000011   0.000176  -0.011979   0.003521   0.000138   0.000012
    21  H    0.000000  -0.000071   0.001533   0.000274  -0.000023   0.000001
    22  N    0.000000   0.000105   0.001798  -0.000092   0.000001   0.000000
    23  H    0.000001   0.000011   0.000288  -0.000065   0.000000   0.000000
    24  C   -0.000002   0.000085  -0.001580  -0.000006  -0.000014   0.000000
    25  C    0.000000   0.000001  -0.000048  -0.000020   0.000001   0.000000
    26  H    0.000000   0.000000   0.000019  -0.000001  -0.000001   0.000000
    27  H    0.000000   0.000000  -0.000008   0.000002   0.000000   0.000000
    28  H    0.000000   0.000000  -0.000006   0.000003   0.000000   0.000000
    29  C   -0.000001  -0.000043   0.000039   0.000011   0.000000   0.000000
    30  H    0.000001   0.000020  -0.000151   0.000002   0.000000   0.000000
    31  H    0.000000   0.000000   0.000001   0.000000   0.000000   0.000000
    32  H    0.000000  -0.000011   0.000057   0.000000   0.000000   0.000000
    33  O    0.000000   0.000000   0.000212  -0.000148  -0.000003   0.000000
               7          8          9         10         11         12
     1  C    0.452188  -0.024990  -0.003320   0.013466   0.006817   0.000447
     2  C   -0.035360   0.438593   0.006624  -0.005582  -0.055277  -0.003513
     3  C    0.009055  -0.082602  -0.109571   0.015102   0.169361  -0.026715
     4  C   -0.000982   0.007315   0.459565  -0.055722  -0.034106   0.005934
     5  C    0.004615  -0.001609  -0.028888   0.452001   0.001996   0.000028
     6  C   -0.074379   0.007770   0.012306  -0.080078   0.000107  -0.000070
     7  H    0.539040  -0.007380   0.000044  -0.000225  -0.000468  -0.000030
     8  H   -0.007380   0.516178  -0.000235   0.000038   0.005387   0.001788
     9  H    0.000044  -0.000235   0.517279  -0.010109   0.006334   0.000297
    10  H   -0.000225   0.000038  -0.010109   0.543824  -0.000407   0.000019
    11  C   -0.000468   0.005387   0.006334  -0.000407   5.453842   0.400880
    12  H   -0.000030   0.001788   0.000297   0.000019   0.400880   0.468509
    13  H    0.000015   0.000650  -0.000598  -0.000040   0.439011  -0.011048
    14  C    0.000027  -0.000912  -0.003668   0.000077   0.100816  -0.030985
    15  H    0.000018  -0.000055  -0.003049   0.000134  -0.045668   0.003702
    16  C   -0.000008   0.000631   0.000877  -0.000006  -0.012212  -0.005949
    17  O   -0.004162  -0.000104  -0.000144   0.006402   0.000003  -0.000001
    18  H    0.004594   0.000000   0.000047  -0.000953  -0.000005   0.000000
    19  O   -0.000010   0.004088  -0.000031   0.000001   0.012308  -0.003748
    20  N    0.000000   0.000030   0.004729  -0.000015  -0.012263   0.000462
    21  H    0.000000   0.000004   0.000337   0.000000  -0.002470   0.001056
    22  N    0.000000  -0.000102  -0.000006   0.000000  -0.005394   0.004158
    23  H    0.000000  -0.000012  -0.000024   0.000000   0.000814   0.000276
    24  C    0.000000   0.000011   0.000034  -0.000001   0.013683  -0.000666
    25  C    0.000000   0.000000   0.000039   0.000000   0.000247   0.000018
    26  H    0.000000   0.000000  -0.000036   0.000000  -0.000021  -0.000002
    27  H    0.000000   0.000000   0.000008   0.000000   0.000004  -0.000001
    28  H    0.000000   0.000000   0.000010   0.000000  -0.000267  -0.000006
    29  C    0.000000  -0.000004   0.000002   0.000000  -0.000752  -0.000159
    30  H    0.000000   0.000083   0.000000   0.000000   0.000537  -0.000383
    31  H    0.000000   0.000000   0.000000   0.000000  -0.000042  -0.000008
    32  H    0.000000  -0.000015   0.000000   0.000000  -0.000196   0.000103
    33  O    0.000000  -0.000001  -0.000246   0.000001   0.001718   0.000038
              13         14         15         16         17         18
     1  C   -0.000250  -0.000192   0.000072  -0.000134  -0.090114  -0.004746
     2  C    0.004001   0.003884   0.002139  -0.003084   0.013261   0.004564
     3  C   -0.045979   0.013154   0.020004  -0.008933  -0.000562  -0.000418
     4  C   -0.007447  -0.017432  -0.012594   0.004604   0.002821  -0.000761
     5  C   -0.000203  -0.000115   0.000783  -0.000009  -0.048625   0.002365
     6  C    0.000123  -0.000207  -0.000339   0.000029   0.391664  -0.043677
     7  H    0.000015   0.000027   0.000018  -0.000008  -0.004162   0.004594
     8  H    0.000650  -0.000912  -0.000055   0.000631  -0.000104   0.000000
     9  H   -0.000598  -0.003668  -0.003049   0.000877  -0.000144   0.000047
    10  H   -0.000040   0.000077   0.000134  -0.000006   0.006402  -0.000953
    11  C    0.439011   0.100816  -0.045668  -0.012212   0.000003  -0.000005
    12  H   -0.011048  -0.030985   0.003702  -0.005949  -0.000001   0.000000
    13  H    0.481338  -0.068035  -0.000294   0.004973  -0.000001   0.000000
    14  C   -0.068035   5.631061   0.436780   0.195195   0.000001   0.000000
    15  H   -0.000294   0.436780   0.437090  -0.054240   0.000000   0.000000
    16  C    0.004973   0.195195  -0.054240   4.619298   0.000000   0.000000
    17  O   -0.000001   0.000001   0.000000   0.000000   7.665981   0.359808
    18  H    0.000000   0.000000   0.000000   0.000000   0.359808   0.490660
    19  O    0.000270  -0.080624   0.007498   0.724032   0.000000   0.000000
    20  N   -0.006226   0.110343  -0.045412  -0.025636   0.000000   0.000000
    21  H    0.008020  -0.017740   0.002599  -0.001034   0.000000   0.000000
    22  N   -0.000485  -0.088660   0.003283   0.362624   0.000000   0.000000
    23  H   -0.000243  -0.001930   0.001422  -0.034527   0.000000   0.000000
    24  C    0.000986  -0.099880  -0.010316   0.010164   0.000000   0.000000
    25  C   -0.000151   0.004727   0.001713  -0.000485   0.000000   0.000000
    26  H   -0.000003  -0.000002   0.000132  -0.000150   0.000000   0.000000
    27  H    0.000012  -0.000437  -0.000226   0.000372   0.000000   0.000000
    28  H   -0.000038   0.001480  -0.000367  -0.000239   0.000000   0.000000
    29  C    0.000053   0.012060  -0.000690  -0.055477   0.000000   0.000000
    30  H    0.000025  -0.000706  -0.000194  -0.002332   0.000000   0.000000
    31  H   -0.000001   0.000782  -0.000013   0.007618   0.000000   0.000000
    32  H   -0.000004   0.000912   0.000219  -0.006080   0.000000   0.000000
    33  O   -0.000045   0.001415   0.019956   0.005558   0.000000   0.000000
              19         20         21         22         23         24
     1  C   -0.000083  -0.000011   0.000000   0.000000   0.000001  -0.000002
     2  C    0.004915   0.000176  -0.000071   0.000105   0.000011   0.000085
     3  C   -0.009228  -0.011979   0.001533   0.001798   0.000288  -0.001580
     4  C   -0.000419   0.003521   0.000274  -0.000092  -0.000065  -0.000006
     5  C    0.000054   0.000138  -0.000023   0.000001   0.000000  -0.000014
     6  C    0.000010   0.000012   0.000001   0.000000   0.000000   0.000000
     7  H   -0.000010   0.000000   0.000000   0.000000   0.000000   0.000000
     8  H    0.004088   0.000030   0.000004  -0.000102  -0.000012   0.000011
     9  H   -0.000031   0.004729   0.000337  -0.000006  -0.000024   0.000034
    10  H    0.000001  -0.000015   0.000000   0.000000   0.000000  -0.000001
    11  C    0.012308  -0.012263  -0.002470  -0.005394   0.000814   0.013683
    12  H   -0.003748   0.000462   0.001056   0.004158   0.000276  -0.000666
    13  H    0.000270  -0.006226   0.008020  -0.000485  -0.000243   0.000986
    14  C   -0.080624   0.110343  -0.017740  -0.088660  -0.001930  -0.099880
    15  H    0.007498  -0.045412   0.002599   0.003283   0.001422  -0.010316
    16  C    0.724032  -0.025636  -0.001034   0.362624  -0.034527   0.010164
    17  O    0.000000   0.000000   0.000000   0.000000   0.000000   0.000000
    18  H    0.000000   0.000000   0.000000   0.000000   0.000000   0.000000
    19  O    7.837474   0.005377  -0.000190  -0.124800   0.005206  -0.000820
    20  N    0.005377   6.694563   0.358800  -0.001357   0.026769   0.309411
    21  H   -0.000190   0.358800   0.509243   0.000141   0.000153  -0.018377
    22  N   -0.124800  -0.001357   0.000141   6.435940   0.386710   0.009016
    23  H    0.005206   0.026769   0.000153   0.386710   0.520591  -0.006341
    24  C   -0.000820   0.309411  -0.018377   0.009016  -0.006341   4.642184
    25  C   -0.000005  -0.063680  -0.001305  -0.000374   0.000256   0.277863
    26  H    0.000000   0.000566  -0.000082   0.000001   0.000167  -0.027763
    27  H   -0.000002  -0.001542   0.000045   0.000231  -0.000622  -0.022739
    28  H    0.000000   0.013051  -0.000869   0.000140   0.000044  -0.060027
    29  C    0.008440  -0.001797   0.000051   0.288624  -0.032327   0.000113
    30  H    0.004360  -0.000052  -0.000013  -0.048145   0.001041   0.000189
    31  H    0.001501  -0.000199   0.000022  -0.027802  -0.007934  -0.000065
    32  H    0.006018  -0.000220   0.000017  -0.047760   0.003508  -0.000431
    33  O   -0.000045  -0.132316   0.005006  -0.005406  -0.003236   0.717382
              25         26         27         28         29         30
     1  C    0.000000   0.000000   0.000000   0.000000  -0.000001   0.000001
     2  C    0.000001   0.000000   0.000000   0.000000  -0.000043   0.000020
     3  C   -0.000048   0.000019  -0.000008  -0.000006   0.000039  -0.000151
     4  C   -0.000020  -0.000001   0.000002   0.000003   0.000011   0.000002
     5  C    0.000001  -0.000001   0.000000   0.000000   0.000000   0.000000
     6  C    0.000000   0.000000   0.000000   0.000000   0.000000   0.000000
     7  H    0.000000   0.000000   0.000000   0.000000   0.000000   0.000000
     8  H    0.000000   0.000000   0.000000   0.000000  -0.000004   0.000083
     9  H    0.000039  -0.000036   0.000008   0.000010   0.000002   0.000000
    10  H    0.000000   0.000000   0.000000   0.000000   0.000000   0.000000
    11  C    0.000247  -0.000021   0.000004  -0.000267  -0.000752   0.000537
    12  H    0.000018  -0.000002  -0.000001  -0.000006  -0.000159  -0.000383
    13  H   -0.000151  -0.000003   0.000012  -0.000038   0.000053   0.000025
    14  C    0.004727  -0.000002  -0.000437   0.001480   0.012060  -0.000706
    15  H    0.001713   0.000132  -0.000226  -0.000367  -0.000690  -0.000194
    16  C   -0.000485  -0.000150   0.000372  -0.000239  -0.055477  -0.002332
    17  O    0.000000   0.000000   0.000000   0.000000   0.000000   0.000000
    18  H    0.000000   0.000000   0.000000   0.000000   0.000000   0.000000
    19  O   -0.000005   0.000000  -0.000002   0.000000   0.008440   0.004360
    20  N   -0.063680   0.000566  -0.001542   0.013051  -0.001797  -0.000052
    21  H   -0.001305  -0.000082   0.000045  -0.000869   0.000051  -0.000013
    22  N   -0.000374   0.000001   0.000231   0.000140   0.288624  -0.048145
    23  H    0.000256   0.000167  -0.000622   0.000044  -0.032327   0.001041
    24  C    0.277863  -0.027763  -0.022739  -0.060027   0.000113   0.000189
    25  C    4.991894   0.391325   0.381618   0.397228  -0.000050   0.000001
    26  H    0.391325   0.558111  -0.022930  -0.025069  -0.000002   0.000000
    27  H    0.381618  -0.022930   0.572937  -0.027075   0.000020   0.000002
    28  H    0.397228  -0.025069  -0.027075   0.599385   0.000003   0.000000
    29  C   -0.000050  -0.000002   0.000020   0.000003   4.756608   0.396019
    30  H    0.000001   0.000000   0.000002   0.000000   0.396019   0.624958
    31  H   -0.000011   0.000000   0.000013   0.000001   0.394399  -0.029547
    32  H   -0.000012   0.000000   0.000000  -0.000001   0.402608  -0.055449
    33  O   -0.067874   0.001731   0.001405   0.004518   0.000187   0.000002
              31         32         33
     1  C    0.000000   0.000000   0.000000
     2  C    0.000000  -0.000011   0.000000
     3  C    0.000001   0.000057   0.000212
     4  C    0.000000   0.000000  -0.000148
     5  C    0.000000   0.000000  -0.000003
     6  C    0.000000   0.000000   0.000000
     7  H    0.000000   0.000000   0.000000
     8  H    0.000000  -0.000015  -0.000001
     9  H    0.000000   0.000000  -0.000246
    10  H    0.000000   0.000000   0.000001
    11  C   -0.000042  -0.000196   0.001718
    12  H   -0.000008   0.000103   0.000038
    13  H   -0.000001  -0.000004  -0.000045
    14  C    0.000782   0.000912   0.001415
    15  H   -0.000013   0.000219   0.019956
    16  C    0.007618  -0.006080   0.005558
    17  O    0.000000   0.000000   0.000000
    18  H    0.000000   0.000000   0.000000
    19  O    0.001501   0.006018  -0.000045
    20  N   -0.000199  -0.000220  -0.132316
    21  H    0.000022   0.000017   0.005006
    22  N   -0.027802  -0.047760  -0.005406
    23  H   -0.007934   0.003508  -0.003236
    24  C   -0.000065  -0.000431   0.717382
    25  C   -0.000011  -0.000012  -0.067874
    26  H    0.000000   0.000000   0.001731
    27  H    0.000013   0.000000   0.001405
    28  H    0.000001  -0.000001   0.004518
    29  C    0.394399   0.402608   0.000187
    30  H   -0.029547  -0.055449   0.000002
    31  H    0.602767  -0.025818   0.000009
    32  H   -0.025818   0.603407   0.000194
    33  O    0.000009   0.000194   7.829644
 Mulliken charges:
               1
     1  C   -0.237367
     2  C   -0.179576
     3  C    0.159568
     4  C   -0.218184
     5  C   -0.175669
     6  C    0.287305
     7  H    0.113409
     8  H    0.135456
     9  H    0.151392
    10  H    0.122074
    11  C   -0.444315
    12  H    0.195570
    13  H    0.201616
    14  C   -0.101187
    15  H    0.235912
    16  C    0.274559
    17  O   -0.296227
    18  H    0.188524
    19  O   -0.401548
    20  N   -0.225244
    21  H    0.154873
    22  N   -0.142388
    23  H    0.140005
    24  C    0.267907
    25  C   -0.312917
    26  H    0.124012
    27  H    0.118914
    28  H    0.098103
    29  C   -0.167937
    30  H    0.109733
    31  H    0.084328
    32  H    0.118956
    33  O   -0.379655
 Sum of Mulliken charges =   0.00000
 Mulliken charges with hydrogens summed into heavy atoms:
               1
     1  C   -0.123958
     2  C   -0.044120
     3  C    0.159568
     4  C   -0.066792
     5  C   -0.053595
     6  C    0.287305
    11  C   -0.047130
    14  C    0.134725
    16  C    0.274559
    17  O   -0.107703
    19  O   -0.401548
    20  N   -0.070370
    22  N   -0.002383
    24  C    0.267907
    25  C    0.028111
    29  C    0.145079
    33  O   -0.379655
 Electronic spatial extent (au):  <R**2>=           5380.7825
 Charge=              0.0000 electrons
 Dipole moment (field-independent basis, Debye):
    X=             -1.9627    Y=             -0.5825    Z=             -5.2646  Tot=              5.6487
 Quadrupole moment (field-independent basis, Debye-Ang):
   XX=            -81.5108   YY=            -94.7470   ZZ=           -106.1927
   XY=              7.1084   XZ=             12.3593   YZ=              2.1051
 Traceless Quadrupole moment (field-independent basis, Debye-Ang):
   XX=             12.6394   YY=             -0.5968   ZZ=            -12.0426
   XY=              7.1084   XZ=             12.3593   YZ=              2.1051
 Octapole moment (field-independent basis, Debye-Ang**2):
  XXX=            -17.4724  YYY=            -14.8280  ZZZ=             -3.2947  XYY=            -16.2058
  XXY=             64.0401  XXZ=            -11.7368  XZZ=             -1.5727  YZZ=              3.7219
  YYZ=            -10.0715  XYZ=             -7.2769
 Hexadecapole moment (field-independent basis, Debye-Ang**3):
 XXXX=          -4450.0918 YYYY=          -1479.8218 ZZZZ=           -403.5662 XXXY=            271.3217
 XXXZ=            148.5563 YYYX=              5.0457 YYYZ=            -20.0706 ZZZX=             45.0081
 ZZZY=             22.1514 XXYY=           -958.6926 XXZZ=           -965.4018 YYZZ=           -339.8084
 XXYZ=             69.9226 YYXZ=             21.5101 ZZXY=             -7.7081
 N-N= 1.195261892387D+03 E-N=-4.261076658038D+03  KE= 7.961926160429D+02
 Calculating spin-rotation constants.
 Leave Link  601 at Wed Jun 25 06:07:13 2014, MaxMem=  4294967296 cpu:        92.1
 (Enter /home/ztw1e12/g09/l9999.exe)

 Test job not archived.
 1\1\GINC-GREEN0501\SP\RM06\Gen\C12H16N2O3\ROOT\25-Jun-2014\0\\#P Geom=
 AllCheck Guess=TCheck SCRF=Check GenChk RM06/ChkBas NMR=ReadFC IOp(3/6
 =22)\\NMR spin-spin scan\\0,1\C,0,2.774981,-2.039416,1.813289\C,0,2.17
 236,-0.840989,1.465771\C,0,1.546966,-0.680022,0.238571\C,0,1.537569,-1
 .75871,-0.641158\C,0,2.132371,-2.959812,-0.310725\C,0,2.75282,-3.10097
 1,0.923921\H,0,3.261833,-2.157932,2.774503\H,0,2.186396,-0.014102,2.16
 6994\H,0,1.050081,-1.651284,-1.605042\H,0,2.125482,-3.797031,-0.997133
 \C,0,0.870397,0.603386,-0.134215\H,0,1.165481,1.396092,0.556252\H,0,1.
 21173,0.914723,-1.124941\C,0,-0.668418,0.489253,-0.176335\H,0,-0.95008
 9,-0.562915,-0.080767\C,0,-1.236986,1.157481,1.058817\O,0,3.325309,-4.
 304582,1.210246\H,0,3.714733,-4.272458,2.091442\O,0,-1.059558,0.628243
 ,2.156376\N,0,-1.200385,0.973508,-1.430237\H,0,-0.602916,1.511509,-2.0
 39281\N,0,-1.856117,2.326571,0.906107\H,0,-1.995469,2.680392,-0.026703
 \C,0,-2.431453,0.628559,-1.860274\C,0,-2.831383,1.132575,-3.207036\H,0
 ,-3.074169,0.27965,-3.840564\H,0,-3.737385,1.729203,-3.103001\H,0,-2.0
 61133,1.730234,-3.689654\C,0,-2.407481,3.045779,2.032235\H,0,-1.623689
 ,3.344793,2.728439\H,0,-2.909574,3.93644,1.667523\H,0,-3.12825,2.43187
 3,2.572737\O,0,-3.18321,-0.062507,-1.177285\\Version=EM64L-G09RevD.01\
 State=1-A\HF=-801.8573155\RMSD=4.332e-09\Dipole=0.7936553,1.7439767,-1
 .1258342\Quadrupole=-7.4127873,4.0542411,3.3585462,-8.0471571,7.521514
 2,-6.0402256\PG=C01 [X(C12H16N2O3)]\\@


 THE ONLY DIFFERENCE BETWEEN ECCENTRICS AND JOGGERS
 IS THAT JOGGERS WEAR SWEATBANDS WHEN THEY RUN IN THE RAIN.
 Job cpu time:       3 days  3 hours 43 minutes 34.0 seconds.
 File lengths (MBytes):  RWF=   3656 Int=      0 D2E=      0 Chk=     64 Scr=      8
 Normal termination of Gaussian 09 at Wed Jun 25 06:07:14 2014.
