 Entering Gaussian System, Link 0=g09
 Input=scan_input_9.gjf
 Output=scan_input_9.log
 Initial command:
 /home/ztw1e12/g09/l1.exe "/home/ztw1e12/tyrosine_scan/tyrosine_chi1_scan/Gau-20447.inp" -scrdir="/home/ztw1e12/tyrosine_scan/tyrosine_chi1_scan/"
 Default is to use a total of   8 processors:
                                8 via shared-memory
                                1 via Linda
 Entering Link 1 = /home/ztw1e12/g09/l1.exe PID=     20448.
  
 Copyright (c) 1988,1990,1992,1993,1995,1998,2003,2009,2013,
            Gaussian, Inc.  All Rights Reserved.
  
 This is part of the Gaussian(R) 09 program.  It is based on
 the Gaussian(R) 03 system (copyright 2003, Gaussian, Inc.),
 the Gaussian(R) 98 system (copyright 1998, Gaussian, Inc.),
 the Gaussian(R) 94 system (copyright 1995, Gaussian, Inc.),
 the Gaussian 92(TM) system (copyright 1992, Gaussian, Inc.),
 the Gaussian 90(TM) system (copyright 1990, Gaussian, Inc.),
 the Gaussian 88(TM) system (copyright 1988, Gaussian, Inc.),
 the Gaussian 86(TM) system (copyright 1986, Carnegie Mellon
 University), and the Gaussian 82(TM) system (copyright 1983,
 Carnegie Mellon University). Gaussian is a federally registered
 trademark of Gaussian, Inc.
  
 This software contains proprietary and confidential information,
 including trade secrets, belonging to Gaussian, Inc.
  
 This software is provided under written license and may be
 used, copied, transmitted, or stored only in accord with that
 written license.
  
 The following legend is applicable only to US Government
 contracts under FAR:
  
                    RESTRICTED RIGHTS LEGEND
  
 Use, reproduction and disclosure by the US Government is
 subject to restrictions as set forth in subparagraphs (a)
 and (c) of the Commercial Computer Software - Restricted
 Rights clause in FAR 52.227-19.
  
 Gaussian, Inc.
 340 Quinnipiac St., Bldg. 40, Wallingford CT 06492
  
  
 ---------------------------------------------------------------
 Warning -- This program may not be used in any manner that
 competes with the business of Gaussian, Inc. or will provide
 assistance to any competitor of Gaussian, Inc.  The licensee
 of this program is prohibited from giving any competitor of
 Gaussian, Inc. access to this program.  By using this program,
 the user acknowledges that Gaussian, Inc. is engaged in the
 business of creating and licensing software in the field of
 computational chemistry and represents and warrants to the
 licensee that it is not a competitor of Gaussian, Inc. and that
 it will not use this program in any manner prohibited above.
 ---------------------------------------------------------------
  

 Cite this work as:
 Gaussian 09, Revision D.01,
 M. J. Frisch, G. W. Trucks, H. B. Schlegel, G. E. Scuseria, 
 M. A. Robb, J. R. Cheeseman, G. Scalmani, V. Barone, B. Mennucci, 
 G. A. Petersson, H. Nakatsuji, M. Caricato, X. Li, H. P. Hratchian, 
 A. F. Izmaylov, J. Bloino, G. Zheng, J. L. Sonnenberg, M. Hada, 
 M. Ehara, K. Toyota, R. Fukuda, J. Hasegawa, M. Ishida, T. Nakajima, 
 Y. Honda, O. Kitao, H. Nakai, T. Vreven, J. A. Montgomery, Jr., 
 J. E. Peralta, F. Ogliaro, M. Bearpark, J. J. Heyd, E. Brothers, 
 K. N. Kudin, V. N. Staroverov, T. Keith, R. Kobayashi, J. Normand, 
 K. Raghavachari, A. Rendell, J. C. Burant, S. S. Iyengar, J. Tomasi, 
 M. Cossi, N. Rega, J. M. Millam, M. Klene, J. E. Knox, J. B. Cross, 
 V. Bakken, C. Adamo, J. Jaramillo, R. Gomperts, R. E. Stratmann, 
 O. Yazyev, A. J. Austin, R. Cammi, C. Pomelli, J. W. Ochterski, 
 R. L. Martin, K. Morokuma, V. G. Zakrzewski, G. A. Voth, 
 P. Salvador, J. J. Dannenberg, S. Dapprich, A. D. Daniels, 
 O. Farkas, J. B. Foresman, J. V. Ortiz, J. Cioslowski, 
 and D. J. Fox, Gaussian, Inc., Wallingford CT, 2013.
 
 ******************************************
 Gaussian 09:  EM64L-G09RevD.01 24-Apr-2013
                24-Jun-2014 
 ******************************************
 %Mem=32GB
 %NProcShared=16
 Will use up to   16 processors via shared memory.
 Default route:  MaxDisk=100GB
 ----------------------------------------------------------------------
 #p nmr=(giao,mixed,spinspin) m06/cc-pvtz scf=tight integral=(grid=ultr
 afine)
 ----------------------------------------------------------------------
 1/38=1/1;
 2/12=2,17=6,18=5,40=1/2;
 3/5=16,6=1,10=1100000,11=2,16=1,25=1,30=1,74=-54,75=-5/1,2,8,3;
 4//1;
 5/5=2,32=2,38=5/2;
 8/6=1,10=90,11=11/1;
 10/13=100,45=16,47=3/2;
 6/7=2,8=2,9=2,10=2,28=1/1;
 99/9=1/99;
 Leave Link    1 at Tue Jun 24 04:07:48 2014, MaxMem=  4294967296 cpu:         8.5
 (Enter /home/ztw1e12/g09/l101.exe)
 ------------------
 NMR spin-spin scan
 ------------------
 Symbolic Z-matrix:
 Charge =  0 Multiplicity = 1
 C                     3.43345   0.00609  -0.3335 
 C                     2.28312  -0.36841  -1.00716 
 C                     1.24298  -1.02485  -0.36027 
 C                     1.38815  -1.29104   0.99932 
 C                     2.5291   -0.9241    1.68667 
 C                     3.55627  -0.27276   1.0184 
 H                     4.23965   0.51436  -0.84986 
 H                     2.19143  -0.14664  -2.06481 
 H                     0.59003  -1.79929   1.52734 
 H                     2.63873  -1.13743   2.74248 
 C                    -0.00488  -1.3973   -1.10804 
 H                     0.2211   -1.38038  -2.1755 
 H                    -0.31202  -2.41382  -0.86251 
 C                    -1.21059  -0.48097  -0.87972 
 H                    -1.82524  -0.47572  -1.78308 
 C                    -2.12223  -0.97873   0.24868 
 O                     4.6623    0.06868   1.73591 
 H                     5.29469   0.51189   1.15916 
 O                    -1.86338  -1.96392   0.93473 
 N                    -0.79756   0.892    -0.63877 
 H                     0.11064   1.04016  -0.22208 
 N                    -3.23977  -0.26479   0.41102 
 H                    -3.3995    0.52115  -0.20712 
 C                    -1.50574   1.96678  -1.0218 
 C                    -0.86219   3.29481  -0.80086 
 H                    -0.74001   3.78593  -1.76638 
 H                    -1.52981   3.91409  -0.20277 
 H                     0.10586   3.22591  -0.30974 
 C                    -4.20103  -0.581     1.44173 
 H                    -3.7527   -0.51766   2.434 
 H                    -5.02045   0.12925   1.38516 
 H                    -4.60307  -1.58693   1.31545 
 O                    -2.62648   1.87216  -1.52722 
 
 NAtoms=     33 NQM=       33 NQMF=       0 NMMI=      0 NMMIF=      0
                NMic=       0 NMicF=      0.
                    Isotopes and Nuclear Properties:
 (Nuclear quadrupole moments (NQMom) in fm**2, nuclear magnetic moments (NMagM)
  in nuclear magnetons)

  Atom         1           2           3           4           5           6           7           8           9          10
 IAtWgt=          12          12          12          12          12          12           1           1           1           1
 AtmWgt=  12.0000000  12.0000000  12.0000000  12.0000000  12.0000000  12.0000000   1.0078250   1.0078250   1.0078250   1.0078250
 NucSpn=           0           0           0           0           0           0           1           1           1           1
 AtZEff=   0.0000000   0.0000000   0.0000000   0.0000000   0.0000000   0.0000000   0.0000000   0.0000000   0.0000000   0.0000000
 NQMom=    0.0000000   0.0000000   0.0000000   0.0000000   0.0000000   0.0000000   0.0000000   0.0000000   0.0000000   0.0000000
 NMagM=    0.0000000   0.0000000   0.0000000   0.0000000   0.0000000   0.0000000   2.7928460   2.7928460   2.7928460   2.7928460
 AtZNuc=   6.0000000   6.0000000   6.0000000   6.0000000   6.0000000   6.0000000   1.0000000   1.0000000   1.0000000   1.0000000

  Atom        11          12          13          14          15          16          17          18          19          20
 IAtWgt=          12           1           1          12           1          12          16           1          16          14
 AtmWgt=  12.0000000   1.0078250   1.0078250  12.0000000   1.0078250  12.0000000  15.9949146   1.0078250  15.9949146  14.0030740
 NucSpn=           0           1           1           0           1           0           0           1           0           2
 AtZEff=   0.0000000   0.0000000   0.0000000   0.0000000   0.0000000   0.0000000   0.0000000   0.0000000   0.0000000   0.0000000
 NQMom=    0.0000000   0.0000000   0.0000000   0.0000000   0.0000000   0.0000000   0.0000000   0.0000000   0.0000000   2.0440000
 NMagM=    0.0000000   2.7928460   2.7928460   0.0000000   2.7928460   0.0000000   0.0000000   2.7928460   0.0000000   0.4037610
 AtZNuc=   6.0000000   1.0000000   1.0000000   6.0000000   1.0000000   6.0000000   8.0000000   1.0000000   8.0000000   7.0000000

  Atom        21          22          23          24          25          26          27          28          29          30
 IAtWgt=           1          14           1          12          12           1           1           1          12           1
 AtmWgt=   1.0078250  14.0030740   1.0078250  12.0000000  12.0000000   1.0078250   1.0078250   1.0078250  12.0000000   1.0078250
 NucSpn=           1           2           1           0           0           1           1           1           0           1
 AtZEff=   0.0000000   0.0000000   0.0000000   0.0000000   0.0000000   0.0000000   0.0000000   0.0000000   0.0000000   0.0000000
 NQMom=    0.0000000   2.0440000   0.0000000   0.0000000   0.0000000   0.0000000   0.0000000   0.0000000   0.0000000   0.0000000
 NMagM=    2.7928460   0.4037610   2.7928460   0.0000000   0.0000000   2.7928460   2.7928460   2.7928460   0.0000000   2.7928460
 AtZNuc=   1.0000000   7.0000000   1.0000000   6.0000000   6.0000000   1.0000000   1.0000000   1.0000000   6.0000000   1.0000000

  Atom        31          32          33
 IAtWgt=           1           1          16
 AtmWgt=   1.0078250   1.0078250  15.9949146
 NucSpn=           1           1           0
 AtZEff=   0.0000000   0.0000000   0.0000000
 NQMom=    0.0000000   0.0000000   0.0000000
 NMagM=    2.7928460   2.7928460   0.0000000
 AtZNuc=   1.0000000   1.0000000   8.0000000
 Leave Link  101 at Tue Jun 24 04:07:48 2014, MaxMem=  4294967296 cpu:         1.7
 (Enter /home/ztw1e12/g09/l202.exe)
                          Input orientation:                          
 ---------------------------------------------------------------------
 Center     Atomic      Atomic             Coordinates (Angstroms)
 Number     Number       Type             X           Y           Z
 ---------------------------------------------------------------------
      1          6           0        3.433451    0.006092   -0.333502
      2          6           0        2.283122   -0.368410   -1.007161
      3          6           0        1.242982   -1.024846   -0.360266
      4          6           0        1.388145   -1.291042    0.999319
      5          6           0        2.529101   -0.924096    1.686668
      6          6           0        3.556266   -0.272763    1.018401
      7          1           0        4.239648    0.514362   -0.849861
      8          1           0        2.191427   -0.146639   -2.064810
      9          1           0        0.590032   -1.799285    1.527336
     10          1           0        2.638734   -1.137435    2.742478
     11          6           0       -0.004882   -1.397298   -1.108037
     12          1           0        0.221102   -1.380382   -2.175499
     13          1           0       -0.312019   -2.413816   -0.862510
     14          6           0       -1.210592   -0.480973   -0.879718
     15          1           0       -1.825240   -0.475721   -1.783076
     16          6           0       -2.122227   -0.978729    0.248682
     17          8           0        4.662297    0.068677    1.735913
     18          1           0        5.294687    0.511888    1.159155
     19          8           0       -1.863380   -1.963918    0.934725
     20          7           0       -0.797562    0.891997   -0.638771
     21          1           0        0.110636    1.040158   -0.222075
     22          7           0       -3.239773   -0.264785    0.411017
     23          1           0       -3.399498    0.521154   -0.207119
     24          6           0       -1.505738    1.966776   -1.021799
     25          6           0       -0.862191    3.294810   -0.800862
     26          1           0       -0.740013    3.785926   -1.766375
     27          1           0       -1.529809    3.914093   -0.202772
     28          1           0        0.105861    3.225907   -0.309739
     29          6           0       -4.201031   -0.580996    1.441727
     30          1           0       -3.752702   -0.517661    2.434003
     31          1           0       -5.020447    0.129251    1.385163
     32          1           0       -4.603067   -1.586926    1.315446
     33          8           0       -2.626478    1.872162   -1.527215
 ---------------------------------------------------------------------
                    Distance matrix (angstroms):
                    1          2          3          4          5
     1  C    0.000000
     2  C    1.384675   0.000000
     3  C    2.421096   1.389702   0.000000
     4  C    2.764461   2.382896   1.392984   0.000000
     5  C    2.400872   2.761523   2.419544   1.381622   0.000000
     6  C    1.385816   2.394357   2.796003   2.395413   1.387762
     7  H    1.083937   2.152214   3.404243   3.848379   3.380697
     8  H    2.136206   1.084533   2.139221   3.368057   3.846043
     9  H    3.848004   3.367140   2.142228   1.083558   2.133385
    10  H    3.376519   3.844171   3.404089   2.150854   1.082713
    11  C    3.793619   2.510727   1.501681   2.528392   3.802021
    12  H    3.954042   2.577019   2.113224   3.383702   4.522321
    13  H    4.490473   3.307471   2.144648   2.759998   4.097504
    14  C    4.701353   3.497849   2.566253   3.307631   4.557192
    15  H    5.476061   4.182368   3.426356   4.328084   5.585736
    16  C    5.672245   4.621334   3.420172   3.603291   4.868844
    17  O    2.407583   3.657318   4.157099   3.620977   2.353412
    18  H    2.438863   3.812791   4.592004   4.305482   3.160504
    19  O    5.791870   4.848716   3.494044   3.321046   4.576083
    20  N    4.333531   3.348873   2.813480   3.496615   4.446633
    21  H    3.481782   2.705572   2.359141   2.925462   3.653843
    22  N    6.720089   5.703011   4.611688   4.776707   5.944904
    23  H    6.853499   5.807199   4.895528   5.259379   6.389324
    24  C    5.358509   4.450704   4.116174   4.803421   5.654455
    25  C    5.430159   4.832674   4.825485   5.416152   5.957167
    26  H    5.810170   5.193675   5.390078   6.160659   6.692901
    27  H    6.318506   5.790105   5.666241   6.087110   6.591874
    28  H    4.630403   4.259810   4.400511   4.874496   5.203870
    29  C    7.860116   6.934442   5.751648   5.651440   6.743322
    30  H    7.718432   6.949465   5.746480   5.393027   6.339144
    31  H    8.627709   7.701493   6.603711   6.575421   7.628638
    32  H    8.357174   7.368778   6.107392   6.006838   7.172515
    33  O    6.452124   5.421696   4.972640   5.701441   6.687907
                    6          7          8          9         10
     6  C    0.000000
     7  H    2.139388   0.000000
     8  H    3.374149   2.471484   0.000000
     9  H    3.374586   4.931909   4.266054   0.000000
    10  H    2.135875   4.265707   4.928669   2.472205   0.000000
    11  C    4.297452   4.662310   2.702468   2.731429   4.677895
    12  H    4.748804   4.636387   2.327349   3.744673   5.485478
    13  H    4.804744   5.412214   3.585088   2.627301   4.830324
    14  C    5.135089   5.540460   3.618004   3.282393   5.326214
    15  H    6.070426   6.215627   4.039961   4.306296   6.391054
    16  C    5.773746   6.626430   4.965101   3.108797   5.376891
    17  O    1.361877   2.657724   4.538398   4.485101   2.561774
    18  H    1.912484   2.269198   4.523033   5.254603   3.504463
    19  O    5.677990   6.824483   5.361079   2.529332   4.921390
    20  N    4.801948   5.055754   3.470793   3.722961   5.230638
    21  H    3.890361   4.209432   3.022226   3.369376   4.463380
    22  N    6.823132   7.624869   5.970060   4.274139   6.383892
    23  H    7.107380   7.666141   5.929199   4.930428   6.921798
    24  C    5.899308   5.928620   4.384453   5.007350   6.401762
    25  C    5.963225   5.810512   4.771343   5.786127   6.667573
    26  H    6.533448   6.028279   4.914008   6.619073   7.482324
    27  H    6.699939   6.727818   5.814149   6.334800   7.181169
    28  H    5.090181   4.973168   4.336349   5.372320   5.896628
    29  C    7.774951   8.814547   7.303971   4.944274   6.984552
    30  H    7.448820   8.702097   7.463889   4.617786   6.428820
    31  H    8.593959   9.533782   7.999347   5.934386   7.880980
    32  H    8.269823   9.343317   7.724358   5.201757   7.394738
    33  O    7.021908   7.031793   5.251359   5.758102   7.416900
                   11         12         13         14         15
    11  C    0.000000
    12  H    1.091252   0.000000
    13  H    1.089920   1.753894   0.000000
    14  C    1.531508   2.130195   2.131575   0.000000
    15  H    2.149113   2.271546   2.625546   1.092646   0.000000
    16  C    2.549321   3.395463   2.563411   1.533664   2.114062
    17  O    5.658595   6.092875   6.136643   6.452477   7.400526
    18  H    6.072115   6.359392   6.639430   6.889226   7.766946
    19  O    2.819211   3.789337   2.416440   2.432583   3.098811
    20  N    2.467676   2.926246   3.348763   1.453856   2.058205
    21  H    2.596048   3.112408   3.538182   2.119429   2.912427
    22  N    3.748951   4.462317   3.848629   2.414603   2.619054
    23  H    4.001941   4.538624   4.310001   2.499591   2.440428
    24  C    3.684698   3.939095   4.543118   2.469569   2.578258
    25  C    4.779667   4.992051   5.735408   3.792643   4.013616
    26  H    5.276328   5.270850   6.279885   4.383381   4.397685
    27  H    5.599623   5.915134   6.477708   4.458336   4.674945
    28  H    4.692927   4.971141   5.682135   3.974781   4.427406
    29  C    4.977480   5.768761   4.877822   3.787062   4.006847
    30  H    5.231249   6.146781   5.128421   4.176651   4.636877
    31  H    5.805367   6.513919   5.804181   4.474042   4.540163
    32  H    5.201205   5.958352   4.882656   4.189363   4.307196
    33  O    4.211632   4.371273   4.916112   2.821565   2.493993
                   16         17         18         19         20
    16  C    0.000000
    17  O    7.024150   0.000000
    18  H    7.619811   0.963848   0.000000
    19  O    1.228110   6.881701   7.577460   0.000000
    20  N    2.458033   6.010577   6.363373   3.430468   0.000000
    21  H    3.046833   5.049268   5.390849   3.776162   1.010154
    22  N    1.336031   8.019305   8.602322   2.248506   2.899068
    23  H    2.022084   8.304977   8.800889   3.136726   2.663441
    24  C    3.266524   7.018006   7.288281   4.405252   1.342897
    25  C    4.577376   6.882088   7.035159   5.627509   2.409141
    26  H    5.354709   7.434307   7.462952   6.451248   3.106385
    27  H    4.949190   7.542407   7.746198   5.996347   3.139959
    28  H    4.791156   5.908799   6.037174   5.688663   2.524197
    29  C    2.429604   8.891974   9.562578   2.762994   4.252268
    30  H    2.765260   8.464238   9.194588   2.812300   4.490204
    31  H    3.304374   9.689284  10.324702   3.814620   4.744560
    32  H    2.768114   9.421506  10.119041   2.791587   4.944279
    33  O    3.396419   8.186990   8.474183   4.621577   2.257208
                   21         22         23         24         25
    21  H    0.000000
    22  N    3.650880   0.000000
    23  H    3.548328   1.012573   0.000000
    24  C    2.027522   3.168549   2.517907   0.000000
    25  C    2.522864   4.448850   3.805736   1.492193   0.000000
    26  H    3.263083   5.234319   4.490309   2.109511   1.090109
    27  H    3.309220   4.556724   3.873989   2.112683   1.089466
    28  H    2.187511   4.888526   4.428743   2.165570   1.087692
    29  C    4.897637   1.444427   2.139131   4.452494   5.585600
    30  H    4.940337   2.102264   2.859968   4.812883   5.775322
    31  H    5.453529   2.067613   2.305738   4.639304   5.664853
    32  H    5.611108   2.103478   2.865447   5.261650   6.504172
    33  O    3.144426   2.949477   2.040940   1.233067   2.379963
                   26         27         28         29         30
    26  H    0.000000
    27  H    1.756434   0.000000
    28  H    1.775081   1.777768   0.000000
    29  C    6.429663   5.481389   6.009115   0.000000
    30  H    6.726093   5.615539   6.035804   1.090698   0.000000
    31  H    6.451789   5.388053   6.224227   1.085860   1.767976
    32  H    7.299887   6.481598   6.926658   1.090631   1.765678
    33  O    2.697858   2.669516   3.283375   4.160747   4.761395
                   31         32         33
    31  H    0.000000
    32  H    1.767577   0.000000
    33  O    4.153405   4.894172   0.000000
 Stoichiometry    C12H16N2O3
 Framework group  C1[X(C12H16N2O3)]
 Deg. of freedom    93
 Full point group                 C1      NOp   1
 Largest Abelian subgroup         C1      NOp   1
 Largest concise Abelian subgroup C1      NOp   1
                         Standard orientation:                         
 ---------------------------------------------------------------------
 Center     Atomic      Atomic             Coordinates (Angstroms)
 Number     Number       Type             X           Y           Z
 ---------------------------------------------------------------------
      1          6           0       -3.382448    0.738841    0.506711
      2          6           0       -2.202840    0.576354    1.213427
      3          6           0       -1.320931   -0.458938    0.927632
      4          6           0       -1.656304   -1.332153   -0.104563
      5          6           0       -2.829086   -1.184256   -0.819816
      6          6           0       -3.696107   -0.144803   -0.513719
      7          1           0       -4.064240    1.548160    0.741404
      8          1           0       -1.961418    1.271419    2.010178
      9          1           0       -0.983907   -2.145960   -0.348892
     10          1           0       -3.087141   -1.868512   -1.618232
     11          6           0       -0.035812   -0.597839    1.691977
     12          1           0       -0.127665   -0.026763    2.617323
     13          1           0        0.134505   -1.636949    1.973342
     14          6           0        1.219982   -0.101615    0.969300
     15          1           0        1.937072    0.254202    1.712975
     16          6           0        1.932661   -1.217420    0.195224
     17          8           0       -4.840653   -0.038781   -1.244118
     18          1           0       -5.350098    0.718432   -0.934120
     19          8           0        1.493832   -2.361389    0.111461
     20          7           0        0.922227    1.021081    0.094890
     21          1           0       -0.010077    1.079073   -0.289631
     22          7           0        3.088874   -0.849624   -0.364129
     23          1           0        3.401369    0.104637   -0.233599
     24          6           0        1.777038    2.026825   -0.152398
     25          6           0        1.249538    3.154956   -0.974410
     26          1           0        1.295928    4.068014   -0.380684
     27          1           0        1.898993    3.294763   -1.837891
     28          1           0        0.227074    2.998911   -1.310996
     29          6           0        3.880831   -1.768986   -1.147677
     30          1           0        3.324133   -2.134149   -2.011601
     31          1           0        4.768864   -1.252846   -1.499941
     32          1           0        4.191057   -2.630933   -0.555831
     33          8           0        2.935409    2.026733    0.270249
 ---------------------------------------------------------------------
 Rotational constants (GHZ):      0.7180065      0.2785797      0.2337739
 Leave Link  202 at Tue Jun 24 04:07:48 2014, MaxMem=  4294967296 cpu:         1.7
 (Enter /home/ztw1e12/g09/l301.exe)
 Standard basis: CC-pVTZ (5D, 7F)
 Converting basis for Fermi contact spin-spin IFCMod=1.
 AO basis functions are being uncontracted.
 Ernie: Thresh=  0.10000D-02 Tol=  0.10000D-05 Strict=F.
 There are  1305 symmetry adapted cartesian basis functions of A   symmetry.
 There are  1204 symmetry adapted basis functions of A   symmetry.
  1204 basis functions,  1305 primitive gaussians,  1305 cartesian basis functions
    63 alpha electrons       63 beta electrons
       nuclear repulsion energy      1220.3132682730 Hartrees.
 IExCor= 4235 DFT=T Ex+Corr=M06 ExCW=0 ScaHFX=  0.270000
 ScaDFX=  1.000000  1.000000  1.000000  1.000000 ScalE2=  1.000000  1.000000
 IRadAn= 199590 IRanWt=     -1 IRanGd=            0 ICorTp=0 IEmpDi=  4
 NAtoms=   33 NActive=   33 NUniq=   33 SFac= 1.00D+00 NAtFMM=   60 NAOKFM=F Big=F
 Integral buffers will be    131072 words long.
 Raffenetti 2 integral format.
 Two-electron integral symmetry is turned on.
 Leave Link  301 at Tue Jun 24 04:07:48 2014, MaxMem=  4294967296 cpu:         6.3
 (Enter /home/ztw1e12/g09/l302.exe)
 NPDir=0 NMtPBC=     1 NCelOv=     1 NCel=       1 NClECP=     1 NCelD=      1
         NCelK=      1 NCelE2=     1 NClLst=     1 CellRange=     0.0.
 One-electron integrals computed using PRISM.
 GSVD:  received Info=                   1 from GESDD.
 NBasis=  1204 RedAO= T EigKep=  2.46D-05  NBF=  1204
 NBsUse=  1068 1.00D-06 EigRej=  5.94D-15 NBFU=  1068
 Precomputing XC quadrature grid using
 IXCGrd= 4 IRadAn=      199590 IRanWt=          -1 IRanGd=           0 AccXCQ= 0.00D+00.
 Generated NRdTot=       0 NPtTot=           0 NUsed=           0 NTot=          32
 NSgBfM=  1036  1036  1036  1036  1036 MxSgAt=    33 MxSgA2=    33.
 Leave Link  302 at Tue Jun 24 04:07:54 2014, MaxMem=  4294967296 cpu:        92.1
 (Enter /home/ztw1e12/g09/l308.exe)
 Leave Link  308 at Tue Jun 24 04:07:55 2014, MaxMem=  4294967296 cpu:         7.6
 (Enter /home/ztw1e12/g09/l303.exe)
 DipDrv:  MaxL=1.
 Leave Link  303 at Tue Jun 24 04:07:55 2014, MaxMem=  4294967296 cpu:         4.3
 (Enter /home/ztw1e12/g09/l401.exe)
 ExpMin= 1.03D-01 ExpMax= 1.38D+05 ExpMxC= 1.38D+05 IAcc=4 IRadAn=    199590 AccDes= 0.00D+00
 Harris functional with IExCor= 1009 and IRadAn=  199590 diagonalized for initial guess.
 HarFok:  IExCor= 1009 AccDes= 0.00D+00 IRadAn=    199590 IDoV= 1 UseB2=F ITyADJ=14
 ICtDFT=  3500011 ScaDFX=  1.000000  1.000000  1.000000  1.000000
 FoFCou: FMM=F IPFlag=           0 FMFlag=      100000 FMFlg1=           0
         NFxFlg=           0 DoJE=T BraDBF=F KetDBF=T FulRan=T
         wScrn=  0.000000 ICntrl=     500 IOpCl=  0 I1Cent=   200000004 NGrid=           0
         NMat0=    1 NMatS0=      1 NMatT0=    0 NMatD0=    1 NMtDS0=    0 NMtDT0=    0
 Petite list used in FoFCou.
 Harris En= -801.780054656076    
 JPrj=0 DoOrth=F DoCkMO=F.
 Leave Link  401 at Tue Jun 24 04:08:16 2014, MaxMem=  4294967296 cpu:       303.5
 (Enter /home/ztw1e12/g09/l502.exe)
 Closed shell SCF:
 Using DIIS extrapolation, IDIIS=  1040.
 Integral symmetry usage will be decided dynamically.
 IVT=     5158273 IEndB=     5158273 NGot=  4294967296 MDV=  4291529994
 LenX=  4291529994 LenY=  4289825664
 Requested convergence on RMS density matrix=1.00D-08 within 128 cycles.
 Requested convergence on MAX density matrix=1.00D-06.
 Requested convergence on             energy=1.00D-06.
 No special actions if energy rises.
 Fock matrices will be formed incrementally for  20 cycles.
 Integral accuracy reduced to 1.0D-05 until final iterations.

 Cycle   1  Pass 0  IDiag  1:
 FoFJK:  IHMeth= 1 ICntrl=       0 DoSepK=F KAlg= 0 I1Cent=   0 FoldK=F
 IRaf= 430000000 NMat=   1 IRICut=       1 DoRegI=T DoRafI=F ISym2E= 0.
 FoFCou: FMM=F IPFlag=           0 FMFlag=      100000 FMFlg1=           0
         NFxFlg=           0 DoJE=F BraDBF=F KetDBF=F FulRan=T
         wScrn=  0.000000 ICntrl=       0 IOpCl=  0 I1Cent=           0 NGrid=           0
         NMat0=    1 NMatS0=      1 NMatT0=    0 NMatD0=    1 NMtDS0=    0 NMtDT0=    0
 Symmetry not used in FoFCou.
 E= -801.493099767318    
 DIIS: error= 1.52D-01 at cycle   1 NSaved=   1.
 NSaved= 1 IEnMin= 1 EnMin= -801.493099767318     IErMin= 1 ErrMin= 1.52D-01
 ErrMax= 1.52D-01  0.00D+00 EMaxC= 1.00D-01 BMatC= 1.69D+01 BMatP= 1.69D+01
 IDIUse=3 WtCom= 0.00D+00 WtEn= 1.00D+00
 Coeff-Com:  0.100D+01
 Coeff-En:   0.100D+01
 Coeff:      0.100D+01
 Gap=     0.246 Goal=   None    Shift=    0.000
 GapD=    0.246 DampG=1.000 DampE=0.250 DampFc=0.2500 IDamp=-1.
 Damping current iteration by 2.50D-01
 RMSDP=1.85D-03 MaxDP=3.02D-01              OVMax= 2.41D-01

 Cycle   2  Pass 0  IDiag  1:
 RMSU=  4.60D-04    CP:  1.02D+00
 E= -801.645536967694     Delta-E=       -0.152437200376 Rises=F Damp=T
 DIIS: error= 1.15D-01 at cycle   2 NSaved=   2.
 NSaved= 2 IEnMin= 2 EnMin= -801.645536967694     IErMin= 2 ErrMin= 1.15D-01
 ErrMax= 1.15D-01  0.00D+00 EMaxC= 1.00D-01 BMatC= 1.00D+01 BMatP= 1.69D+01
 IDIUse=3 WtCom= 0.00D+00 WtEn= 1.00D+00
 Coeff-Com: -0.296D+01 0.396D+01
 Coeff-En:   0.000D+00 0.100D+01
 Coeff:      0.000D+00 0.100D+01
 Gap=     0.232 Goal=   None    Shift=    0.000
 RMSDP=6.91D-04 MaxDP=1.40D-01 DE=-1.52D-01 OVMax= 1.16D-01

 Cycle   3  Pass 0  IDiag  1:
 RMSU=  3.73D-04    CP:  1.06D+00  2.25D+00
 E= -801.836342855329     Delta-E=       -0.190805887636 Rises=F Damp=F
 DIIS: error= 1.40D-02 at cycle   3 NSaved=   3.
 NSaved= 3 IEnMin= 3 EnMin= -801.836342855329     IErMin= 3 ErrMin= 1.40D-02
 ErrMax= 1.40D-02  0.00D+00 EMaxC= 1.00D-01 BMatC= 2.59D-01 BMatP= 1.00D+01
 IDIUse=3 WtCom= 8.60D-01 WtEn= 1.40D-01
 Coeff-Com:  0.133D+01-0.182D+01 0.149D+01
 Coeff-En:   0.112D+00 0.000D+00 0.888D+00
 Coeff:      0.116D+01-0.156D+01 0.140D+01
 Gap=     0.282 Goal=   None    Shift=    0.000
 RMSDP=4.75D-04 MaxDP=8.57D-02 DE=-1.91D-01 OVMax= 5.82D-02

 Cycle   4  Pass 0  IDiag  1:
 RMSU=  2.81D-04    CP:  1.05D+00  1.45D+00  7.40D-01
 E= -801.849683478343     Delta-E=       -0.013340623014 Rises=F Damp=F
 DIIS: error= 8.95D-03 at cycle   4 NSaved=   4.
 NSaved= 4 IEnMin= 4 EnMin= -801.849683478343     IErMin= 4 ErrMin= 8.95D-03
 ErrMax= 8.95D-03  0.00D+00 EMaxC= 1.00D-01 BMatC= 9.92D-02 BMatP= 2.59D-01
 IDIUse=3 WtCom= 9.11D-01 WtEn= 8.95D-02
 Coeff-Com:  0.807D+00-0.111D+01 0.728D+00 0.570D+00
 Coeff-En:   0.000D+00 0.000D+00 0.445D+00 0.555D+00
 Coeff:      0.735D+00-0.101D+01 0.703D+00 0.569D+00
 Gap=     0.266 Goal=   None    Shift=    0.000
 RMSDP=2.79D-04 MaxDP=3.34D-02 DE=-1.33D-02 OVMax= 7.85D-02

 Cycle   5  Pass 0  IDiag  1:
 RMSU=  9.56D-05    CP:  1.05D+00  1.54D+00  1.01D+00  1.53D-01
 E= -801.913297245681     Delta-E=       -0.063613767338 Rises=F Damp=F
 DIIS: error= 3.76D-03 at cycle   5 NSaved=   5.
 NSaved= 5 IEnMin= 5 EnMin= -801.913297245681     IErMin= 5 ErrMin= 3.76D-03
 ErrMax= 3.76D-03  0.00D+00 EMaxC= 1.00D-01 BMatC= 1.82D-02 BMatP= 9.92D-02
 IDIUse=3 WtCom= 9.62D-01 WtEn= 3.76D-02
 Coeff-Com:  0.122D+00-0.175D+00 0.111D+00 0.302D+00 0.640D+00
 Coeff-En:   0.000D+00 0.000D+00 0.000D+00 0.145D+00 0.855D+00
 Coeff:      0.118D+00-0.168D+00 0.107D+00 0.296D+00 0.648D+00
 Gap=     0.226 Goal=   None    Shift=    0.000
 RMSDP=1.34D-04 MaxDP=1.67D-02 DE=-6.36D-02 OVMax= 3.85D-02

 Cycle   6  Pass 0  IDiag  1:
 RMSU=  5.75D-05    CP:  1.05D+00  1.60D+00  1.07D+00  5.13D-01  4.19D-01
 E= -801.924088697326     Delta-E=       -0.010791451644 Rises=F Damp=F
 DIIS: error= 1.07D-03 at cycle   6 NSaved=   6.
 NSaved= 6 IEnMin= 6 EnMin= -801.924088697326     IErMin= 6 ErrMin= 1.07D-03
 ErrMax= 1.07D-03  0.00D+00 EMaxC= 1.00D-01 BMatC= 1.62D-03 BMatP= 1.82D-02
 IDIUse=3 WtCom= 9.89D-01 WtEn= 1.07D-02
 Coeff-Com:  0.531D-01-0.733D-01 0.184D-01 0.786D-01 0.259D+00 0.664D+00
 Coeff-En:   0.000D+00 0.000D+00 0.000D+00 0.000D+00 0.408D-01 0.959D+00
 Coeff:      0.526D-01-0.725D-01 0.182D-01 0.777D-01 0.257D+00 0.667D+00
 Gap=     0.226 Goal=   None    Shift=    0.000
 RMSDP=3.97D-05 MaxDP=3.24D-03 DE=-1.08D-02 OVMax= 1.35D-02

 Cycle   7  Pass 0  IDiag  1:
 RMSU=  2.99D-05    CP:  1.05D+00  1.55D+00  1.08D+00  5.14D-01  5.93D-01
                    CP:  9.41D-01
 E= -801.924893684494     Delta-E=       -0.000804987168 Rises=F Damp=F
 DIIS: error= 9.98D-04 at cycle   7 NSaved=   7.
 NSaved= 7 IEnMin= 7 EnMin= -801.924893684494     IErMin= 7 ErrMin= 9.98D-04
 ErrMax= 9.98D-04  0.00D+00 EMaxC= 1.00D-01 BMatC= 4.92D-04 BMatP= 1.62D-03
 IDIUse=3 WtCom= 9.90D-01 WtEn= 9.98D-03
 Coeff-Com:  0.404D-01-0.544D-01 0.124D-01 0.203D-01 0.851D-01 0.411D+00
 Coeff-Com:  0.485D+00
 Coeff-En:   0.000D+00 0.000D+00 0.000D+00 0.000D+00 0.000D+00 0.262D+00
 Coeff-En:   0.738D+00
 Coeff:      0.400D-01-0.538D-01 0.123D-01 0.201D-01 0.842D-01 0.409D+00
 Coeff:      0.488D+00
 Gap=     0.226 Goal=   None    Shift=    0.000
 RMSDP=1.76D-05 MaxDP=2.60D-03 DE=-8.05D-04 OVMax= 7.86D-03

 Cycle   8  Pass 0  IDiag  1:
 RMSU=  7.66D-06    CP:  1.05D+00  1.56D+00  1.09D+00  5.22D-01  5.77D-01
                    CP:  1.08D+00  6.02D-01
 E= -801.925327155949     Delta-E=       -0.000433471455 Rises=F Damp=F
 DIIS: error= 1.59D-04 at cycle   8 NSaved=   8.
 NSaved= 8 IEnMin= 8 EnMin= -801.925327155949     IErMin= 8 ErrMin= 1.59D-04
 ErrMax= 1.59D-04  0.00D+00 EMaxC= 1.00D-01 BMatC= 2.30D-05 BMatP= 4.92D-04
 IDIUse=3 WtCom= 9.98D-01 WtEn= 1.59D-03
 Coeff-Com:  0.207D-01-0.278D-01 0.788D-02 0.141D-02 0.136D-01 0.152D+00
 Coeff-Com:  0.250D+00 0.582D+00
 Coeff-En:   0.000D+00 0.000D+00 0.000D+00 0.000D+00 0.000D+00 0.000D+00
 Coeff-En:   0.000D+00 0.100D+01
 Coeff:      0.206D-01-0.277D-01 0.787D-02 0.141D-02 0.136D-01 0.152D+00
 Coeff:      0.250D+00 0.583D+00
 Gap=     0.226 Goal=   None    Shift=    0.000
 RMSDP=5.18D-06 MaxDP=6.01D-04 DE=-4.33D-04 OVMax= 1.39D-03

 Initial convergence to 1.0D-05 achieved.  Increase integral accuracy.
 Cycle   9  Pass 1  IDiag  1:
 E= -801.925337887278     Delta-E=       -0.000010731330 Rises=F Damp=F
 DIIS: error= 1.95D-04 at cycle   1 NSaved=   1.
 NSaved= 1 IEnMin= 1 EnMin= -801.925337887278     IErMin= 1 ErrMin= 1.95D-04
 ErrMax= 1.95D-04  0.00D+00 EMaxC= 1.00D-01 BMatC= 2.70D-05 BMatP= 2.70D-05
 IDIUse=3 WtCom= 9.98D-01 WtEn= 1.95D-03
 Coeff-Com:  0.100D+01
 Coeff-En:   0.100D+01
 Coeff:      0.100D+01
 Gap=     0.226 Goal=   None    Shift=    0.000
 RMSDP=5.18D-06 MaxDP=6.01D-04 DE=-1.07D-05 OVMax= 8.23D-04

 Cycle  10  Pass 1  IDiag  1:
 RMSU=  1.18D-04    CP:  9.96D-01
 E= -801.925348507992     Delta-E=       -0.000010620714 Rises=F Damp=F
 DIIS: error= 7.13D-05 at cycle   2 NSaved=   2.
 NSaved= 2 IEnMin= 2 EnMin= -801.925348507992     IErMin= 2 ErrMin= 7.13D-05
 ErrMax= 7.13D-05  0.00D+00 EMaxC= 1.00D-01 BMatC= 7.21D-06 BMatP= 2.70D-05
 IDIUse=1 WtCom= 1.00D+00 WtEn= 0.00D+00
 Coeff-Com:  0.268D+00 0.732D+00
 Coeff:      0.268D+00 0.732D+00
 Gap=     0.226 Goal=   None    Shift=    0.000
 RMSDP=3.82D-06 MaxDP=4.58D-04 DE=-1.06D-05 OVMax= 1.05D-03

 Cycle  11  Pass 1  IDiag  1:
 RMSU=  3.58D-06    CP:  9.96D-01  1.01D+00
 E= -801.925348044175     Delta-E=        0.000000463817 Rises=F Damp=F
 DIIS: error= 7.71D-05 at cycle   3 NSaved=   3.
 NSaved= 3 IEnMin= 2 EnMin= -801.925348507992     IErMin= 2 ErrMin= 7.13D-05
 ErrMax= 7.71D-05  0.00D+00 EMaxC= 1.00D-01 BMatC= 7.51D-06 BMatP= 7.21D-06
 IDIUse=1 WtCom= 1.00D+00 WtEn= 0.00D+00
 Coeff-Com:  0.101D-01 0.503D+00 0.487D+00
 Coeff:      0.101D-01 0.503D+00 0.487D+00
 Gap=     0.226 Goal=   None    Shift=    0.000
 RMSDP=2.03D-06 MaxDP=2.70D-04 DE= 4.64D-07 OVMax= 6.08D-04

 Cycle  12  Pass 1  IDiag  1:
 RMSU=  6.58D-07    CP:  9.96D-01  1.02D+00  4.88D-01
 E= -801.925353900145     Delta-E=       -0.000005855970 Rises=F Damp=F
 DIIS: error= 1.19D-05 at cycle   4 NSaved=   4.
 NSaved= 4 IEnMin= 4 EnMin= -801.925353900145     IErMin= 4 ErrMin= 1.19D-05
 ErrMax= 1.19D-05  0.00D+00 EMaxC= 1.00D-01 BMatC= 1.74D-07 BMatP= 7.21D-06
 IDIUse=1 WtCom= 1.00D+00 WtEn= 0.00D+00
 Coeff-Com: -0.166D-02 0.263D+00 0.274D+00 0.465D+00
 Coeff:     -0.166D-02 0.263D+00 0.274D+00 0.465D+00
 Gap=     0.226 Goal=   None    Shift=    0.000
 RMSDP=2.99D-07 MaxDP=3.69D-05 DE=-5.86D-06 OVMax= 9.21D-05

 Cycle  13  Pass 1  IDiag  1:
 RMSU=  2.73D-07    CP:  9.96D-01  1.02D+00  5.13D-01  9.03D-01
 E= -801.925354014881     Delta-E=       -0.000000114737 Rises=F Damp=F
 DIIS: error= 2.66D-06 at cycle   5 NSaved=   5.
 NSaved= 5 IEnMin= 5 EnMin= -801.925354014881     IErMin= 5 ErrMin= 2.66D-06
 ErrMax= 2.66D-06  0.00D+00 EMaxC= 1.00D-01 BMatC= 1.14D-08 BMatP= 1.74D-07
 IDIUse=1 WtCom= 1.00D+00 WtEn= 0.00D+00
 Coeff-Com: -0.189D-02 0.824D-01 0.902D-01 0.248D+00 0.581D+00
 Coeff:     -0.189D-02 0.824D-01 0.902D-01 0.248D+00 0.581D+00
 Gap=     0.226 Goal=   None    Shift=    0.000
 RMSDP=8.01D-08 MaxDP=7.64D-06 DE=-1.15D-07 OVMax= 2.33D-05

 Cycle  14  Pass 1  IDiag  1:
 RMSU=  4.94D-08    CP:  9.96D-01  1.02D+00  5.14D-01  9.72D-01  8.50D-01
 E= -801.925354021910     Delta-E=       -0.000000007029 Rises=F Damp=F
 DIIS: error= 1.01D-06 at cycle   6 NSaved=   6.
 NSaved= 6 IEnMin= 6 EnMin= -801.925354021910     IErMin= 6 ErrMin= 1.01D-06
 ErrMax= 1.01D-06  0.00D+00 EMaxC= 1.00D-01 BMatC= 7.22D-10 BMatP= 1.14D-08
 IDIUse=1 WtCom= 1.00D+00 WtEn= 0.00D+00
 Coeff-Com: -0.812D-03 0.242D-01 0.273D-01 0.935D-01 0.282D+00 0.574D+00
 Coeff:     -0.812D-03 0.242D-01 0.273D-01 0.935D-01 0.282D+00 0.574D+00
 Gap=     0.226 Goal=   None    Shift=    0.000
 RMSDP=4.29D-08 MaxDP=8.15D-06 DE=-7.03D-09 OVMax= 1.34D-05

 Cycle  15  Pass 1  IDiag  1:
 RMSU=  2.51D-08    CP:  9.96D-01  1.02D+00  5.13D-01  1.00D+00  9.27D-01
                    CP:  7.19D-01
 E= -801.925354022278     Delta-E=       -0.000000000368 Rises=F Damp=F
 DIIS: error= 6.83D-07 at cycle   7 NSaved=   7.
 NSaved= 7 IEnMin= 7 EnMin= -801.925354022278     IErMin= 7 ErrMin= 6.83D-07
 ErrMax= 6.83D-07  0.00D+00 EMaxC= 1.00D-01 BMatC= 2.33D-10 BMatP= 7.22D-10
 IDIUse=1 WtCom= 1.00D+00 WtEn= 0.00D+00
 Coeff-Com: -0.839D-05-0.685D-02-0.698D-02-0.691D-02 0.235D-01 0.379D+00
 Coeff-Com:  0.618D+00
 Coeff:     -0.839D-05-0.685D-02-0.698D-02-0.691D-02 0.235D-01 0.379D+00
 Coeff:      0.618D+00
 Gap=     0.226 Goal=   None    Shift=    0.000
 RMSDP=1.78D-08 MaxDP=2.39D-06 DE=-3.68D-10 OVMax= 5.67D-06

 Cycle  16  Pass 1  IDiag  1:
 RMSU=  9.30D-09    CP:  9.96D-01  1.02D+00  5.14D-01  1.01D+00  9.43D-01
                    CP:  9.24D-01  8.91D-01
 E= -801.925354022560     Delta-E=       -0.000000000281 Rises=F Damp=F
 DIIS: error= 1.05D-07 at cycle   8 NSaved=   8.
 NSaved= 8 IEnMin= 8 EnMin= -801.925354022560     IErMin= 8 ErrMin= 1.05D-07
 ErrMax= 1.05D-07  0.00D+00 EMaxC= 1.00D-01 BMatC= 1.15D-11 BMatP= 2.33D-10
 IDIUse=1 WtCom= 1.00D+00 WtEn= 0.00D+00
 Coeff-Com:  0.587D-04-0.505D-02-0.536D-02-0.111D-01-0.123D-01 0.130D+00
 Coeff-Com:  0.295D+00 0.609D+00
 Coeff:      0.587D-04-0.505D-02-0.536D-02-0.111D-01-0.123D-01 0.130D+00
 Coeff:      0.295D+00 0.609D+00
 Gap=     0.226 Goal=   None    Shift=    0.000
 RMSDP=4.91D-09 MaxDP=7.14D-07 DE=-2.81D-10 OVMax= 8.66D-07

 SCF Done:  E(RM06) =  -801.925354023     A.U. after   16 cycles
            NFock= 16  Conv=0.49D-08     -V/T= 2.0044
 KE= 7.983784813465D+02 PE=-4.313164564065D+03 EE= 1.492547460423D+03
 Leave Link  502 at Tue Jun 24 04:45:51 2014, MaxMem=  4294967296 cpu:     35987.4
 (Enter /home/ztw1e12/g09/l801.exe)
 DoSCS=F DFT=T ScalE2(SS,OS)=  1.000000  1.000000
 Range of M.O.s used for correlation:     1  1068
 NBasis=  1204 NAE=    63 NBE=    63 NFC=     0 NFV=     0
 NROrb=   1068 NOA=    63 NOB=    63 NVA=  1005 NVB=  1005

 **** Warning!!: The largest alpha MO coefficient is  0.35912487D+02

 Leave Link  801 at Tue Jun 24 04:45:51 2014, MaxMem=  4294967296 cpu:         0.4
 (Enter /home/ztw1e12/g09/l1002.exe)
 Minotr:  Closed shell wavefunction.
          IDoAtm=111111111111111111111111111111111
          Direct CPHF calculation.
          Differentiating once with respect to Fermi-contact.
          Electric field/nuclear overlap derivatives assumed to be zero.
          Requested convergence is 1.0D-10 RMS, and 1.0D-09 maximum.
          Secondary convergence is 1.0D-12 RMS, and 1.0D-12 maximum.
          NewPWx=T KeepS1=F KeepF1=F KeepIn=T MapXYZ=F SortEE=F KeepMc=T.
          MDV=    4294965894 using IRadAn=  199590.
 Using stored XC quadrature information.
          Solving linear equations simultaneously, MaxMat=       0.
          There are    33 degrees of freedom in the 1st order CPHF.  IDoFFX=0 NUNeed=    33.
     33 vectors produced by pass  0 Test12= 1.92D-17 3.03D-11 XBig12= 4.29D+01 2.58D+00.
 AX will form    33 AO Fock derivatives at one time.
 FoFJK:  IHMeth= 1 ICntrl=       0 DoSepK=F KAlg= 0 I1Cent=   0 FoldK=F
 IRaf= 450000000 NMat=  33 IRICut=       1 DoRegI=T DoRafI=F ISym2E=-1.
 FoFCou: FMM=F IPFlag=           0 FMFlag=      100000 FMFlg1=           0
         NFxFlg=           0 DoJE=F BraDBF=F KetDBF=F FulRan=T
         wScrn=  0.000000 ICntrl=       0 IOpCl=  0 I1Cent=           0 NGrid=           0
         NMat0=   33 NMatS0=      0 NMatT0=   33 NMatD0=   33 NMtDS0=    0 NMtDT0=    0
 Petite list used in FoFCou.
     33 vectors produced by pass  1 Test12= 1.92D-17 3.03D-11 XBig12= 3.49D-01 1.89D-01.
     33 vectors produced by pass  2 Test12= 1.92D-17 3.03D-11 XBig12= 1.73D-02 4.67D-02.
     33 vectors produced by pass  3 Test12= 1.92D-17 3.03D-11 XBig12= 3.95D-04 6.44D-03.
     33 vectors produced by pass  4 Test12= 1.92D-17 3.03D-11 XBig12= 7.22D-06 1.15D-03.
     33 vectors produced by pass  5 Test12= 1.92D-17 3.03D-11 XBig12= 1.53D-07 1.73D-04.
     33 vectors produced by pass  6 Test12= 1.92D-17 3.03D-11 XBig12= 4.91D-09 2.72D-05.
     33 vectors produced by pass  7 Test12= 1.92D-17 3.03D-11 XBig12= 1.28D-10 4.12D-06.
     33 vectors produced by pass  8 Test12= 1.92D-17 3.03D-11 XBig12= 5.26D-12 3.56D-07.
     33 vectors produced by pass  9 Test12= 1.92D-17 3.03D-11 XBig12= 6.78D-14 9.62D-08.
     33 vectors produced by pass 10 Test12= 1.92D-17 3.03D-11 XBig12= 2.06D-15 8.42D-09.
     33 vectors produced by pass 11 Test12= 1.92D-17 3.03D-11 XBig12= 2.25D-17 5.58D-10.
      9 vectors produced by pass 12 Test12= 1.92D-17 3.03D-11 XBig12= 2.54D-19 6.42D-11.
 InvSVY:  IOpt=1 It=  1 EMax= 7.11D-15
 Solved reduced A of dimension   405 with    33 vectors.
 Max diff in FC couplings:  IJMax=    24     5 Diff= 3.08D-04 IJMaxR=    31     6 DiffR= 1.74D+00
 Fermi Contact (FC) contribution to K (Hz):
                1             2             3             4             5 
      1  0.123400D+11
      2  0.342701D+02  0.123400D+11
      3 -0.108012D+01  0.334492D+02  0.123400D+11
      4  0.298310D+01  0.275316D+00  0.321629D+02  0.123400D+11
      5  0.167267D+01  0.306042D+01 -0.130329D+01  0.338048D+02  0.123400D+11
      6  0.357960D+02 -0.243976D+00  0.424297D+01  0.345035D-01  0.381973D+02
      7  0.216410D+02 -0.279865D+00  0.933531D+00 -0.187390D+00  0.602806D+00
      8 -0.161937D+00  0.221516D+02 -0.234220D+00  0.937407D+00 -0.271552D+00
      9 -0.281998D+00  0.108423D+01 -0.191299D+00  0.236944D+02 -0.149890D+00
     10  0.678556D+00 -0.223682D+00  0.104295D+01 -0.180659D+00  0.231275D+02
     11  0.199748D+01  0.156280D+01  0.236759D+02  0.154971D+01  0.184879D+01
     12  0.282520D-01  0.949077D+00 -0.972858D+00  0.915991D+00  0.101784D+00
     13 -0.261008D-01  0.718778D+00 -0.111994D+01  0.578484D+00 -0.116460D+00
     14 -0.398002D+00  0.726677D+00 -0.167280D+01  0.484584D+00 -0.460334D+00
     15  0.164649D-01 -0.246560D-01  0.760252D+00 -0.266244D-01  0.180074D-01
     16  0.256461D-01  0.356892D-01  0.441901D-02 -0.361774D-01  0.123744D-01
     17 -0.781210D+00 -0.130245D+00  0.250305D+00  0.287390D+01  0.114751D+02
     18  0.423798D+00 -0.913425D-02 -0.457003D-01  0.195744D+00  0.113612D+01
     19  0.458058D-03  0.165247D+00 -0.765448D-02  0.239192D+01  0.244661D+00
     20 -0.129849D+00  0.240473D+00  0.251681D+01  0.945226D-01 -0.971524D-01
     21  0.183288D-01 -0.341595D-01 -0.818419D-01 -0.161066D-01  0.131487D-01
     22 -0.197785D-01  0.414327D-01 -0.591108D-01  0.156667D+00 -0.185657D-01
     23  0.390394D-03  0.141591D-02  0.534275D-03  0.517908D-02  0.124114D-02
     24 -0.589787D-02  0.303950D-02  0.158137D-01  0.970260D-02 -0.566163D-02
     25  0.458306D-02 -0.529411D-02  0.542384D-01 -0.520098D-02  0.252152D-02
     26  0.394386D-04 -0.593263D-03  0.106085D-02  0.939058D-03  0.552617D-04
     27  0.319697D-03  0.143406D-03 -0.165726D-02  0.704222D-03  0.219126D-03
     28  0.104528D-02  0.126341D-02 -0.938579D-03 -0.578839D-03  0.332355D-03
     29 -0.890002D-04  0.148243D-01 -0.740497D-02  0.154051D-02 -0.337605D-03
     30  0.505000D-04 -0.644875D-03  0.182080D-03  0.118940D-02 -0.218953D-04
     31  0.107882D-03  0.232189D-03 -0.205807D-03 -0.499920D-04  0.975346D-04
     32  0.748782D-04 -0.506453D-03 -0.690373D-03 -0.975075D-03 -0.132681D-03
     33 -0.958536D-02  0.316904D-01  0.933754D-01  0.159139D-01 -0.103443D-01
                6             7             8             9            10 
      6  0.123400D+11
      7 -0.551894D+00  0.123400D+11
      8  0.117449D+01  0.328207D+00  0.123400D+11
      9  0.129079D+01  0.367387D-01  0.429810D-01  0.123400D+11
     10 -0.663962D+00  0.663106D-01  0.394421D-01  0.367961D+00  0.123400D+11
     11 -0.438060D+00  0.695784D-02  0.700195D+00  0.598591D+00  0.285107D-01
     12  0.207544D-01  0.312555D-02 -0.264439D-01 -0.813823D-02  0.962520D-02
     13  0.123085D+00  0.123339D-01 -0.302091D-01 -0.407769D-01  0.124815D-01
     14  0.440500D+00  0.325462D-01 -0.105541D+00 -0.911601D-01  0.398688D-01
     15 -0.675537D-02  0.425767D-04  0.191821D-02  0.635858D-02 -0.299095D-04
     16 -0.188878D-01 -0.225903D-02  0.110350D-01  0.200445D-01 -0.256981D-02
     17 -0.120674D+02  0.562862D+00  0.671271D-01  0.281945D+00  0.704815D+00
     18 -0.661145D+00 -0.127582D-01  0.200228D-02  0.153720D-01  0.347607D-03
     19  0.197877D+00  0.259570D-03 -0.151213D-02 -0.577329D-01  0.226367D-01
     20  0.105224D+00  0.159749D-01 -0.424559D-01 -0.354289D-01  0.793838D-02
     21 -0.116938D-01 -0.148527D-02  0.648498D-02  0.598139D-02 -0.105462D-02
     22  0.343150D-01  0.259698D-02 -0.249299D-02 -0.254595D-01  0.364086D-02
     23  0.184333D-03 -0.164131D-04 -0.174817D-04 -0.569953D-04 -0.175470D-04
     24  0.355803D-02  0.258947D-03 -0.154409D-02 -0.127928D-02  0.350834D-03
     25 -0.167856D-02 -0.211952D-03  0.432972D-03  0.416278D-03 -0.181230D-03
     26  0.912778D-04 -0.370755D-04 -0.844539D-04  0.167556D-04  0.279700D-04
     27 -0.187989D-03 -0.385023D-04  0.238277D-03  0.361297D-04 -0.352105D-04
     28 -0.447768D-03 -0.237677D-03  0.543426D-03  0.287241D-04 -0.894909D-04
     29  0.232721D-02  0.296693D-03 -0.210478D-03  0.169245D-02 -0.399966D-04
     30  0.166190D-03 -0.246412D-04  0.656430D-04 -0.345673D-03  0.665373D-04
     31 -0.126096D-05 -0.736497D-05  0.346512D-04  0.963146D-04 -0.762264D-05
     32 -0.109673D-03 -0.204953D-04  0.115230D-03 -0.457802D-04  0.234048D-04
     33  0.128562D-01  0.575115D-03 -0.371726D-02 -0.272089D-02  0.913214D-03
               11            12            13            14            15 
     11  0.123400D+11
     12  0.170522D+02  0.123400D+11
     13  0.187412D+02 -0.869169D+00  0.123400D+11
     14  0.187547D+02 -0.697839D+00 -0.785916D+00  0.123400D+11
     15 -0.702461D+00  0.335182D+00  0.201228D-01  0.192953D+02  0.123400D+11
     16 -0.192629D-01  0.916751D+00  0.630375D+00  0.271087D+02 -0.107440D+01
     17  0.570525D-01  0.562537D-02  0.442276D-01  0.176908D+00 -0.218605D-02
     18  0.108305D-01 -0.570918D-03 -0.474425D-02 -0.188401D-01  0.358472D-03
     19  0.143323D+01  0.625552D-01  0.668791D-01  0.339428D+01  0.439289D+00
     20  0.673522D+00 -0.772896D-02  0.118298D+01  0.150141D+02 -0.951956D+00
     21  0.418907D+00 -0.810778D-02 -0.121332D-01  0.275338D+00  0.255082D+00
     22  0.805084D+00  0.532807D-01 -0.771675D-01  0.105809D+02  0.358596D-01
     23  0.339176D-01  0.358012D-02  0.300346D-02  0.600311D-01 -0.247355D-01
     24  0.119590D+01 -0.300146D-01  0.474148D-01 -0.378041D+00  0.531251D+00
     25 -0.439247D-01  0.126965D-02  0.340730D-01  0.853845D+00 -0.928662D-01
     26  0.200459D-01 -0.135656D-02  0.412956D-02  0.173028D-01  0.114214D-01
     27 -0.477692D-02 -0.249586D-03 -0.225797D-02  0.196137D-01  0.213879D-01
     28 -0.378465D-02  0.135179D-03  0.824230D-03  0.887692D-01 -0.319992D-02
     29  0.300074D+00  0.345119D-01  0.105928D-01  0.791750D+00 -0.319364D-01
     30 -0.607325D-02  0.538603D-03  0.115362D-03 -0.637889D-01  0.213472D-01
     31  0.139001D-01  0.216289D-02  0.238487D-02 -0.203259D-01  0.843907D-03
     32 -0.182822D-02 -0.117059D-02 -0.394325D-03 -0.886079D-01  0.206886D-01
     33  0.129948D+00  0.135424D-01  0.126061D-01  0.564847D+00  0.137123D+00
               16            17            18            19            20 
     16  0.123400D+11
     17 -0.760837D-02  0.123400D+11
     18  0.644756D-03  0.198486D+02  0.123400D+11
     19 -0.981124D+01  0.637360D-01  0.367802D-02  0.123400D+11
     20  0.573239D+00  0.434708D-01 -0.451846D-02  0.367511D+00  0.123400D+11
     21 -0.344811D-01 -0.407750D-02  0.449096D-03 -0.901623D-02  0.317282D+02
     22  0.285012D+02  0.119112D-01 -0.902272D-03  0.610561D+01 -0.267220D+00
     23  0.309612D+00  0.189071D-03  0.191391D-04  0.553036D+00 -0.277306D-02
     24  0.430349D-01  0.126451D-02 -0.147501D-03  0.147654D-01  0.260895D+02
     25 -0.146730D+00 -0.515728D-03  0.616790D-04  0.197062D-01  0.119162D+02
     26  0.450297D-01  0.659982D-04 -0.245729D-05  0.214268D-02  0.439342D+00
     27  0.968291D-01 -0.483537D-04  0.460036D-05  0.107681D-01  0.430484D+00
     28 -0.570694D-03  0.472237D-05 -0.136623D-05  0.111274D-02  0.385448D+00
     29 -0.608074D+00  0.124245D-02 -0.100523D-03  0.677726D+00 -0.205698D+00
     30  0.253121D+00  0.110623D-04  0.816748D-05  0.254269D+00  0.133584D+00
     31  0.103607D+01  0.529296D-05  0.123332D-05  0.169195D+00  0.242483D-02
     32  0.213114D+00 -0.517728D-04  0.412974D-05  0.259889D+00  0.110887D+00
     33  0.501117D+00  0.594084D-02 -0.622177D-03  0.170866D+00  0.498557D+01
               21            22            23            24            25 
     21  0.123400D+11
     22  0.130214D-01  0.123400D+11
     23  0.238857D-02  0.324624D+02  0.123400D+11
     24  0.443017D+00 -0.211254D+00  0.113196D-01  0.123400D+11
     25  0.137804D+00  0.184404D+00 -0.186852D-01  0.271918D+02  0.123400D+11
     26 -0.168913D-01  0.137864D-02 -0.544833D-02 -0.119122D+01  0.177901D+02
     27 -0.145003D-01 -0.106584D-01 -0.111020D-02 -0.118479D+01  0.180289D+02
     28 -0.108653D-01  0.225298D-01 -0.200681D-02 -0.760859D+00  0.174525D+02
     29 -0.301662D-02  0.165917D+02  0.368310D+00 -0.102100D-01 -0.925575D-03
     30  0.215366D-03 -0.636582D+00  0.105934D+00 -0.226850D-02 -0.463757D-03
     31  0.712116D-04 -0.295044D+00  0.295490D+00  0.116660D-02  0.561224D-03
     32  0.128560D-02 -0.633166D+00  0.113351D+00  0.141876D-02  0.631349D-02
     33  0.423870D+00  0.589065D+01 -0.906751D+00 -0.950792D+01  0.415042D+01
               26            27            28            29            30 
     26  0.123400D+11
     27 -0.925810D+00  0.123400D+11
     28 -0.751465D+00 -0.720411D+00  0.123400D+11
     29 -0.132460D-02 -0.141528D-02  0.829122D-04  0.123400D+11
     30 -0.367405D-04  0.214659D-03  0.383811D-03  0.196140D+02  0.123400D+11
     31  0.700237D-03  0.209441D-03  0.139119D-03  0.184401D+02 -0.745062D+00
     32  0.296193D-03  0.526432D-03 -0.107586D-03  0.197607D+02 -0.747632D+00
     33  0.409634D+00  0.366133D+00  0.905260D+00  0.144798D+00  0.242923D-01
               31            32            33 
     31  0.123400D+11
     32 -0.747433D+00  0.123400D+11
     33  0.403961D-01  0.402287D-01  0.123400D+11
 Fermi Contact (FC) contribution to J (Hz):
                1             2             3             4             5 
      1  0.243533D+11
      2  0.676328D+02  0.243533D+11
      3 -0.213164D+01  0.660127D+02  0.243533D+11
      4  0.588723D+01  0.543343D+00  0.634744D+02  0.243533D+11
      5  0.330105D+01  0.603981D+01 -0.257207D+01  0.667147D+02  0.243533D+11
      6  0.706444D+02 -0.481492D+00  0.837360D+01  0.680935D-01  0.753833D+02
      7  0.169815D+03 -0.219607D+01  0.732532D+01 -0.147043D+01  0.473016D+01
      8 -0.127071D+01  0.173821D+03 -0.183790D+01  0.735575D+01 -0.213084D+01
      9 -0.221281D+01  0.850788D+01 -0.150110D+01  0.185927D+03 -0.117617D+01
     10  0.532457D+01 -0.175521D+01  0.818392D+01 -0.141761D+01  0.181480D+03
     11  0.394207D+01  0.308422D+01  0.467249D+02  0.305840D+01  0.364863D+01
     12  0.221691D+00  0.744731D+01 -0.763392D+01  0.718769D+01  0.798687D+00
     13 -0.204810D+00  0.564018D+01 -0.878809D+01  0.453931D+01 -0.913851D+00
     14 -0.785467D+00  0.143412D+01 -0.330130D+01  0.956339D+00 -0.908480D+00
     15  0.129198D+00 -0.193474D+00  0.596562D+01 -0.208919D+00  0.141303D+00
     16  0.506133D-01  0.704335D-01  0.872103D-02 -0.713969D-01  0.244211D-01
     17  0.831348D+00  0.138604D+00 -0.266370D+00 -0.305835D+01 -0.122116D+02
     18  0.332550D+01 -0.716756D-01 -0.358606D+00  0.153598D+01  0.891499D+01
     19 -0.487457D-03 -0.175852D+00  0.814575D-02 -0.254544D+01 -0.260363D+00
     20 -0.736522D-01  0.136399D+00  0.142757D+01  0.536144D-01 -0.551060D-01
     21  0.143824D+00 -0.268047D+00 -0.642205D+00 -0.126387D+00  0.103177D+00
     22 -0.112186D-01  0.235011D-01 -0.335284D-01  0.888633D-01 -0.105307D-01
     23  0.306338D-02  0.111105D-01  0.419241D-02  0.406397D-01  0.973909D-02
     24 -0.116396D-01  0.599854D-02  0.312087D-01  0.191483D-01 -0.111734D-01
     25  0.904479D-02 -0.104481D-01  0.107041D+00 -0.102643D-01  0.497629D-02
     26  0.309471D-03 -0.465528D-02  0.832438D-02  0.736870D-02  0.433633D-03
     27  0.250863D-02  0.112529D-02 -0.130043D-01  0.552596D-02  0.171946D-02
     28  0.820217D-02  0.991387D-02 -0.736494D-02 -0.454209D-02  0.260796D-02
     29 -0.175644D-03  0.292561D-01 -0.146139D-01  0.304024D-02 -0.666272D-03
     30  0.396269D-03 -0.506027D-02  0.142877D-02  0.933309D-02 -0.171811D-03
     31  0.846543D-03  0.182196D-02 -0.161495D-02 -0.392283D-03  0.765345D-03
     32  0.587562D-03 -0.397409D-02 -0.541729D-02 -0.765132D-02 -0.104113D-02
     33  0.102006D-01 -0.337244D-01 -0.993683D-01 -0.169352D-01  0.110083D-01
                6             7             8             9            10 
      6  0.243533D+11
      7 -0.433066D+01  0.385007D+12
      8  0.921609D+01  0.102401D+02  0.385007D+12
      9  0.101287D+02  0.114624D+01  0.134101D+01  0.385007D+12
     10 -0.521005D+01  0.206889D+01  0.123059D+01  0.114804D+02  0.385007D+12
     11 -0.864523D+00  0.545975D-01  0.549436D+01  0.469709D+01  0.223721D+00
     12  0.162858D+00  0.975171D-01 -0.825049D+00 -0.253912D+00  0.300306D+00
     13  0.965837D+00  0.384818D+00 -0.942524D+00 -0.127224D+01  0.389424D+00
     14  0.869339D+00  0.255387D+00 -0.828171D+00 -0.715324D+00  0.312846D+00
     15 -0.530087D-01  0.132839D-02  0.598481D-01  0.198387D+00 -0.933176D-03
     16 -0.372754D-01 -0.177264D-01  0.865904D-01  0.157288D+00 -0.201650D-01
     17  0.128419D+02 -0.238162D+01 -0.284033D+00 -0.119299D+01 -0.298227D+01
     18 -0.518794D+01 -0.398055D+00  0.624710D-01  0.479606D+00  0.108453D-01
     19 -0.210577D+00 -0.109831D-02  0.639824D-02  0.244284D+00 -0.957821D-01
     20  0.596842D-01  0.360279D-01 -0.957501D-01 -0.799022D-01  0.179033D-01
     21 -0.917599D-01 -0.463404D-01  0.202331D+00  0.186619D+00 -0.329040D-01
     22  0.194639D-01  0.585692D-02 -0.562241D-02 -0.574185D-01  0.821119D-02
     23  0.144644D-02 -0.512087D-03 -0.545427D-03 -0.177825D-02 -0.547467D-03
     24  0.702186D-02  0.203193D-02 -0.121163D-01 -0.100384D-01  0.275296D-02
     25 -0.331268D-02 -0.166317D-02  0.339749D-02  0.326649D-02 -0.142210D-02
     26  0.716248D-03 -0.115675D-02 -0.263496D-02  0.522775D-03  0.872664D-03
     27 -0.147513D-02 -0.120127D-02  0.743423D-02  0.112725D-02 -0.109857D-02
     28 -0.351359D-02 -0.741551D-02  0.169549D-01  0.896190D-03 -0.279211D-02
     29  0.459282D-02  0.232812D-02 -0.165160D-02  0.132805D-01 -0.313850D-03
     30  0.130407D-02 -0.768803D-03  0.204806D-02 -0.107850D-01  0.207596D-02
     31 -0.989462D-05 -0.229787D-03  0.108111D-02  0.300501D-02 -0.237826D-03
     32 -0.860594D-03 -0.639451D-03  0.359519D-02 -0.142834D-02  0.730228D-03
     33 -0.136814D-01 -0.243347D-02  0.157287D-01  0.115128D-01 -0.386406D-02
               11            12            13            14            15 
     11  0.243533D+11
     12  0.133807D+03  0.385007D+12
     13  0.147061D+03 -0.271180D+02  0.385007D+12
     14  0.370130D+02 -0.547588D+01 -0.616701D+01  0.243533D+11
     15 -0.551215D+01  0.104577D+02  0.627831D+00  0.151408D+03  0.385007D+12
     16 -0.380158D-01  0.719366D+01  0.494649D+01  0.534997D+02 -0.843070D+01
     17 -0.607142D-01 -0.238025D-01 -0.187139D+00 -0.188262D+00  0.924978D-02
     18  0.849861D-01 -0.178126D-01 -0.148020D+00 -0.147836D+00  0.111843D-01
     19 -0.152521D+01 -0.264688D+00 -0.282984D+00 -0.361212D+01 -0.185875D+01
     20  0.382030D+00 -0.174310D-01  0.266795D+01  0.851619D+01 -0.214693D+01
     21  0.328712D+01 -0.252962D+00 -0.378554D+00  0.216055D+01  0.795855D+01
     22  0.456654D+00  0.120163D+00 -0.174035D+00  0.600163D+01  0.808736D-01
     23  0.266148D+00  0.111699D+00  0.937078D-01  0.471058D+00 -0.771747D+00
     24  0.236014D+01 -0.235521D+00  0.372059D+00 -0.746074D+00  0.416868D+01
     25 -0.866865D-01  0.996283D-02  0.267367D+00  0.168508D+01 -0.728712D+00
     26  0.157298D+00 -0.423247D-01  0.128842D+00  0.135774D+00  0.356346D+00
     27 -0.374840D-01 -0.778707D-02 -0.704485D-01  0.153907D+00  0.667303D+00
     28 -0.296978D-01  0.421757D-02  0.257159D-01  0.696563D+00 -0.998374D-01
     29  0.592203D+00  0.270811D+00  0.831210D-01  0.156254D+01 -0.250602D+00
     30 -0.476562D-01  0.168044D-01  0.359928D-02 -0.500546D+00  0.666033D+00
     31  0.109073D+00  0.674819D-01  0.744078D-01 -0.159495D+00  0.263299D-01
     32 -0.143459D-01 -0.365223D-01 -0.123029D-01 -0.695298D+00  0.645484D+00
     33 -0.138288D+00 -0.573016D-01 -0.533398D-01 -0.601100D+00 -0.580205D+00
               16            17            18            19            20 
     16  0.243533D+11
     17  0.809668D-02  0.708114D+10
     18  0.505934D-02 -0.839850D+02  0.385007D+12
     19  0.104409D+02  0.365740D-01 -0.155627D-01  0.708114D+10
     20  0.325148D+00 -0.132958D-01 -0.101904D-01 -0.112406D+00  0.201170D+10
     21 -0.270570D+00  0.172530D-01  0.140118D-01  0.381501D-01  0.715561D+02
     22  0.161662D+02 -0.364312D-02 -0.203488D-02 -0.186744D+01 -0.435630D-01
     23  0.242949D+01 -0.800011D-03  0.597140D-03 -0.234005D+01 -0.625404D-02
     24  0.849304D-01 -0.134566D-02 -0.115743D-02 -0.157130D-01  0.147983D+02
     25 -0.289576D+00  0.548828D-03  0.483989D-03 -0.209710D-01  0.675904D+01
     26  0.353344D+00 -0.279256D-03 -0.766673D-04 -0.906628D-02  0.990842D+00
     27  0.759808D+00  0.204598D-03  0.143531D-03 -0.455630D-01  0.970864D+00
     28 -0.447818D-02 -0.199816D-04 -0.426262D-04 -0.470830D-02  0.869295D+00
     29 -0.120005D+01 -0.132220D-02 -0.788792D-03 -0.721223D+00 -0.116674D+00
     30  0.198622D+01 -0.468076D-04  0.254825D-03 -0.107588D+01  0.301270D+00
     31  0.812993D+01 -0.223960D-04  0.384794D-04 -0.715910D+00  0.546868D-02
     32  0.167228D+01  0.219065D-03  0.128848D-03 -0.109966D+01  0.250082D+00
     33 -0.533280D+00  0.340907D-02  0.263260D-02  0.980490D-01 -0.152487D+01
               21            22            23            24            25 
     21  0.385007D+12
     22  0.293670D-01  0.201170D+10
     23  0.745233D-01  0.732119D+02  0.385007D+12
     24  0.347631D+01 -0.119826D+00  0.888237D-01  0.243533D+11
     25  0.108133D+01  0.104596D+00 -0.146621D+00  0.536636D+02  0.243533D+11
     26 -0.527008D+00  0.310922D-02 -0.169988D+00 -0.934739D+01  0.139597D+03
     27 -0.452410D+00 -0.240378D-01 -0.346381D-01 -0.929690D+01  0.141471D+03
     28 -0.338996D+00  0.508112D-01 -0.626125D-01 -0.597039D+01  0.136948D+03
     29 -0.236711D-01  0.941104D+01  0.289009D+01 -0.201497D-01 -0.182664D-02
     30  0.671942D-02 -0.143567D+01  0.330514D+01 -0.178007D-01 -0.363905D-02
     31  0.222180D-02 -0.665409D+00  0.921929D+01  0.915422D-02  0.440387D-02
     32  0.401106D-01 -0.142797D+01  0.353655D+01  0.111329D-01  0.495413D-01
     33 -0.179351D+01 -0.180170D+01  0.383671D+01  0.101181D+02 -0.441679D+01
               26            27            28            29            30 
     26  0.385007D+12
     27 -0.288852D+02  0.385007D+12
     28 -0.234457D+02 -0.224768D+02  0.385007D+12
     29 -0.103940D-01 -0.111055D-01  0.650604D-03  0.243533D+11
     30 -0.114630D-02  0.669734D-02  0.119749D-01  0.153909D+03  0.385007D+12
     31  0.218474D-01  0.653456D-02  0.434050D-02  0.144698D+03 -0.232459D+02
     32  0.924122D-02  0.164247D-01 -0.335667D-02  0.155060D+03 -0.233261D+02
     33 -0.173327D+01 -0.154921D+01 -0.383040D+01 -0.154091D+00 -0.102787D+00
               31            32            33 
     31  0.385007D+12
     32 -0.233199D+02  0.385007D+12
     33 -0.170927D+00 -0.170219D+00  0.708114D+10
 End of Minotr F.D. properties file   721 does not exist.
 End of Minotr F.D. properties file   722 does not exist.
 End of Minotr F.D. properties file   788 does not exist.
 Leave Link 1002 at Tue Jun 24 13:00:53 2014, MaxMem=  4294967296 cpu:    473972.6
 (Enter /home/ztw1e12/g09/l601.exe)
 Copying SCF densities to generalized density rwf, IOpCl= 0 IROHF=0.

 **********************************************************************

            Population analysis using the SCF density.

 **********************************************************************

 Orbital symmetries:
       Occupied  (A) (A) (A) (A) (A) (A) (A) (A) (A) (A) (A) (A)
                 (A) (A) (A) (A) (A) (A) (A) (A) (A) (A) (A) (A)
                 (A) (A) (A) (A) (A) (A) (A) (A) (A) (A) (A) (A)
                 (A) (A) (A) (A) (A) (A) (A) (A) (A) (A) (A) (A)
                 (A) (A) (A) (A) (A) (A) (A) (A) (A) (A) (A) (A)
                 (A) (A) (A)
       Virtual   (A) (A) (A) (A) (A) (A) (A) (A) (A) (A) (A) (A)
                 (A) (A) (A) (A) (A) (A) (A) (A) (A) (A) (A) (A)
                 (A) (A) (A) (A) (A) (A) (A) (A) (A) (A) (A) (A)
                 (A) (A) (A) (A) (A) (A) (A) (A) (A) (A) (A) (A)
                 (A) (A) (A) (A) (A) (A) (A) (A) (A) (A) (A) (A)
                 (A) (A) (A) (A) (A) (A) (A) (A) (A) (A) (A) (A)
                 (A) (A) (A) (A) (A) (A) (A) (A) (A) (A) (A) (A)
                 (A) (A) (A) (A) (A) (A) (A) (A) (A) (A) (A) (A)
                 (A) (A) (A) (A) (A) (A) (A) (A) (A) (A) (A) (A)
                 (A) (A) (A) (A) (A) (A) (A) (A) (A) (A) (A) (A)
                 (A) (A) (A) (A) (A) (A) (A) (A) (A) (A) (A) (A)
                 (A) (A) (A) (A) (A) (A) (A) (A) (A) (A) (A) (A)
                 (A) (A) (A) (A) (A) (A) (A) (A) (A) (A) (A) (A)
                 (A) (A) (A) (A) (A) (A) (A) (A) (A) (A) (A) (A)
                 (A) (A) (A) (A) (A) (A) (A) (A) (A) (A) (A) (A)
                 (A) (A) (A) (A) (A) (A) (A) (A) (A) (A) (A) (A)
                 (A) (A) (A) (A) (A) (A) (A) (A) (A) (A) (A) (A)
                 (A) (A) (A) (A) (A) (A) (A) (A) (A) (A) (A) (A)
                 (A) (A) (A) (A) (A) (A) (A) (A) (A) (A) (A) (A)
                 (A) (A) (A) (A) (A) (A) (A) (A) (A) (A) (A) (A)
                 (A) (A) (A) (A) (A) (A) (A) (A) (A) (A) (A) (A)
                 (A) (A) (A) (A) (A) (A) (A) (A) (A) (A) (A) (A)
                 (A) (A) (A) (A) (A) (A) (A) (A) (A) (A) (A) (A)
                 (A) (A) (A) (A) (A) (A) (A) (A) (A) (A) (A) (A)
                 (A) (A) (A) (A) (A) (A) (A) (A) (A) (A) (A) (A)
                 (A) (A) (A) (A) (A) (A) (A) (A) (A) (A) (A) (A)
                 (A) (A) (A) (A) (A) (A) (A) (A) (A) (A) (A) (A)
                 (A) (A) (A) (A) (A) (A) (A) (A) (A) (A) (A) (A)
                 (A) (A) (A) (A) (A) (A) (A) (A) (A) (A) (A) (A)
                 (A) (A) (A) (A) (A) (A) (A) (A) (A) (A) (A) (A)
                 (A) (A) (A) (A) (A) (A) (A) (A) (A) (A) (A) (A)
                 (A) (A) (A) (A) (A) (A) (A) (A) (A) (A) (A) (A)
                 (A) (A) (A) (A) (A) (A) (A) (A) (A) (A) (A) (A)
                 (A) (A) (A) (A) (A) (A) (A) (A) (A) (A) (A) (A)
                 (A) (A) (A) (A) (A) (A) (A) (A) (A) (A) (A) (A)
                 (A) (A) (A) (A) (A) (A) (A) (A) (A) (A) (A) (A)
                 (A) (A) (A) (A) (A) (A) (A) (A) (A) (A) (A) (A)
                 (A) (A) (A) (A) (A) (A) (A) (A) (A) (A) (A) (A)
                 (A) (A) (A) (A) (A) (A) (A) (A) (A) (A) (A) (A)
                 (A) (A) (A) (A) (A) (A) (A) (A) (A) (A) (A) (A)
                 (A) (A) (A) (A) (A) (A) (A) (A) (A) (A) (A) (A)
                 (A) (A) (A) (A) (A) (A) (A) (A) (A) (A) (A) (A)
                 (A) (A) (A) (A) (A) (A) (A) (A) (A) (A) (A) (A)
                 (A) (A) (A) (A) (A) (A) (A) (A) (A) (A) (A) (A)
                 (A) (A) (A) (A) (A) (A) (A) (A) (A) (A) (A) (A)
                 (A) (A) (A) (A) (A) (A) (A) (A) (A) (A) (A) (A)
                 (A) (A) (A) (A) (A) (A) (A) (A) (A) (A) (A) (A)
                 (A) (A) (A) (A) (A) (A) (A) (A) (A) (A) (A) (A)
                 (A) (A) (A) (A) (A) (A) (A) (A) (A) (A) (A) (A)
                 (A) (A) (A) (A) (A) (A) (A) (A) (A) (A) (A) (A)
                 (A) (A) (A) (A) (A) (A) (A) (A) (A) (A) (A) (A)
                 (A) (A) (A) (A) (A) (A) (A) (A) (A) (A) (A) (A)
                 (A) (A) (A) (A) (A) (A) (A) (A) (A) (A) (A) (A)
                 (A) (A) (A) (A) (A) (A) (A) (A) (A) (A) (A) (A)
                 (A) (A) (A) (A) (A) (A) (A) (A) (A) (A) (A) (A)
                 (A) (A) (A) (A) (A) (A) (A) (A) (A) (A) (A) (A)
                 (A) (A) (A) (A) (A) (A) (A) (A) (A) (A) (A) (A)
                 (A) (A) (A) (A) (A) (A) (A) (A) (A) (A) (A) (A)
                 (A) (A) (A) (A) (A) (A) (A) (A) (A) (A) (A) (A)
                 (A) (A) (A) (A) (A) (A) (A) (A) (A) (A) (A) (A)
                 (A) (A) (A) (A) (A) (A) (A) (A) (A) (A) (A) (A)
                 (A) (A) (A) (A) (A) (A) (A) (A) (A) (A) (A) (A)
                 (A) (A) (A) (A) (A) (A) (A) (A) (A) (A) (A) (A)
                 (A) (A) (A) (A) (A) (A) (A) (A) (A) (A) (A) (A)
                 (A) (A) (A) (A) (A) (A) (A) (A) (A) (A) (A) (A)
                 (A) (A) (A) (A) (A) (A) (A) (A) (A) (A) (A) (A)
                 (A) (A) (A) (A) (A) (A) (A) (A) (A) (A) (A) (A)
                 (A) (A) (A) (A) (A) (A) (A) (A) (A) (A) (A) (A)
                 (A) (A) (A) (A) (A) (A) (A) (A) (A) (A) (A) (A)
                 (A) (A) (A) (A) (A) (A) (A) (A) (A) (A) (A) (A)
                 (A) (A) (A) (A) (A) (A) (A) (A) (A) (A) (A) (A)
                 (A) (A) (A) (A) (A) (A) (A) (A) (A) (A) (A) (A)
                 (A) (A) (A) (A) (A) (A) (A) (A) (A) (A) (A) (A)
                 (A) (A) (A) (A) (A) (A) (A) (A) (A) (A) (A) (A)
                 (A) (A) (A) (A) (A) (A) (A) (A) (A) (A) (A) (A)
                 (A) (A) (A) (A) (A) (A) (A) (A) (A) (A) (A) (A)
                 (A) (A) (A) (A) (A) (A) (A) (A) (A) (A) (A) (A)
                 (A) (A) (A) (A) (A) (A) (A) (A) (A) (A) (A) (A)
                 (A) (A) (A) (A) (A) (A) (A) (A) (A) (A) (A) (A)
                 (A) (A) (A) (A) (A) (A) (A) (A) (A) (A) (A) (A)
                 (A) (A) (A) (A) (A) (A) (A) (A) (A) (A) (A) (A)
                 (A) (A) (A) (A) (A) (A) (A) (A) (A) (A) (A) (A)
                 (A) (A) (A) (A) (A) (A) (A) (A) (A) (A) (A) (A)
                 (A) (A) (A) (A) (A) (A) (A) (A) (A)
 The electronic state is 1-A.
 Alpha  occ. eigenvalues --  -19.25066 -19.18553 -19.17526 -14.42779 -14.40616
 Alpha  occ. eigenvalues --  -10.35232 -10.33382 -10.31074 -10.29504 -10.26543
 Alpha  occ. eigenvalues --  -10.25198 -10.25147 -10.24989 -10.24852 -10.24849
 Alpha  occ. eigenvalues --  -10.24377 -10.24131  -1.09404  -1.06608  -1.05134
 Alpha  occ. eigenvalues --   -0.95743  -0.93297  -0.87870  -0.81336  -0.77373
 Alpha  occ. eigenvalues --   -0.76835  -0.74398  -0.71726  -0.66412  -0.63995
 Alpha  occ. eigenvalues --   -0.61626  -0.60588  -0.58691  -0.56504  -0.55082
 Alpha  occ. eigenvalues --   -0.52062  -0.50749  -0.50409  -0.47818  -0.47495
 Alpha  occ. eigenvalues --   -0.46629  -0.45786  -0.45111  -0.44143  -0.43879
 Alpha  occ. eigenvalues --   -0.43195  -0.42726  -0.42495  -0.41458  -0.41029
 Alpha  occ. eigenvalues --   -0.39816  -0.39266  -0.38408  -0.37222  -0.36241
 Alpha  occ. eigenvalues --   -0.35394  -0.35093  -0.30461  -0.28294  -0.27607
 Alpha  occ. eigenvalues --   -0.27097  -0.26044  -0.24158
 Alpha virt. eigenvalues --   -0.01599   0.00232   0.01067   0.01787   0.02564
 Alpha virt. eigenvalues --    0.03630   0.04418   0.04940   0.06142   0.07224
 Alpha virt. eigenvalues --    0.07303   0.08983   0.09290   0.10346   0.10880
 Alpha virt. eigenvalues --    0.11584   0.11782   0.12126   0.13704   0.14060
 Alpha virt. eigenvalues --    0.14996   0.16535   0.17081   0.17851   0.18940
 Alpha virt. eigenvalues --    0.19942   0.20558   0.21266   0.23142   0.23375
 Alpha virt. eigenvalues --    0.23809   0.24760   0.25293   0.25957   0.26757
 Alpha virt. eigenvalues --    0.27672   0.28120   0.28438   0.29315   0.29778
 Alpha virt. eigenvalues --    0.30338   0.30502   0.31498   0.31809   0.32107
 Alpha virt. eigenvalues --    0.33011   0.33861   0.34318   0.34793   0.35323
 Alpha virt. eigenvalues --    0.35664   0.36125   0.36364   0.37157   0.37491
 Alpha virt. eigenvalues --    0.38161   0.38246   0.38669   0.39208   0.40117
 Alpha virt. eigenvalues --    0.40406   0.41308   0.41422   0.41740   0.41981
 Alpha virt. eigenvalues --    0.42712   0.42744   0.43296   0.43372   0.43849
 Alpha virt. eigenvalues --    0.44376   0.45057   0.46017   0.46756   0.46808
 Alpha virt. eigenvalues --    0.47246   0.48335   0.48962   0.49403   0.50091
 Alpha virt. eigenvalues --    0.50905   0.51956   0.52307   0.53320   0.54380
 Alpha virt. eigenvalues --    0.54714   0.54932   0.55920   0.56734   0.57516
 Alpha virt. eigenvalues --    0.58834   0.59446   0.60367   0.61209   0.61404
 Alpha virt. eigenvalues --    0.62211   0.62906   0.63337   0.64252   0.65104
 Alpha virt. eigenvalues --    0.65771   0.66877   0.67392   0.68097   0.68279
 Alpha virt. eigenvalues --    0.69367   0.69737   0.70473   0.71742   0.73189
 Alpha virt. eigenvalues --    0.73992   0.74432   0.74736   0.75817   0.76287
 Alpha virt. eigenvalues --    0.76647   0.77474   0.78428   0.79222   0.79539
 Alpha virt. eigenvalues --    0.80273   0.81236   0.82023   0.82781   0.83189
 Alpha virt. eigenvalues --    0.83479   0.84185   0.85036   0.85442   0.87099
 Alpha virt. eigenvalues --    0.87504   0.88545   0.89235   0.89701   0.91241
 Alpha virt. eigenvalues --    0.91434   0.92205   0.92885   0.93699   0.94965
 Alpha virt. eigenvalues --    0.95790   0.96023   0.96758   0.97268   0.98103
 Alpha virt. eigenvalues --    0.98387   0.99144   0.99671   1.00385   1.01248
 Alpha virt. eigenvalues --    1.01714   1.02946   1.03594   1.04717   1.04896
 Alpha virt. eigenvalues --    1.05413   1.06144   1.07119   1.08776   1.09242
 Alpha virt. eigenvalues --    1.09983   1.11476   1.12390   1.13017   1.13949
 Alpha virt. eigenvalues --    1.14230   1.15303   1.15874   1.16137   1.16646
 Alpha virt. eigenvalues --    1.17703   1.18543   1.18772   1.19438   1.20150
 Alpha virt. eigenvalues --    1.20587   1.21714   1.22271   1.22359   1.22817
 Alpha virt. eigenvalues --    1.23496   1.24024   1.24102   1.24906   1.25174
 Alpha virt. eigenvalues --    1.25423   1.26287   1.26818   1.27152   1.27942
 Alpha virt. eigenvalues --    1.28681   1.29704   1.30026   1.30152   1.31168
 Alpha virt. eigenvalues --    1.31919   1.32264   1.33306   1.33873   1.34463
 Alpha virt. eigenvalues --    1.34697   1.36076   1.37045   1.37424   1.39028
 Alpha virt. eigenvalues --    1.40079   1.41552   1.42695   1.43673   1.44323
 Alpha virt. eigenvalues --    1.45582   1.45999   1.49315   1.49828   1.50925
 Alpha virt. eigenvalues --    1.53616   1.55369   1.57270   1.57870   1.58873
 Alpha virt. eigenvalues --    1.58926   1.61502   1.62063   1.62925   1.63348
 Alpha virt. eigenvalues --    1.64333   1.65728   1.66923   1.68166   1.71959
 Alpha virt. eigenvalues --    1.74643   1.74947   1.77022   1.77973   1.79495
 Alpha virt. eigenvalues --    1.80431   1.82409   1.82838   1.83758   1.84680
 Alpha virt. eigenvalues --    1.85676   1.86930   1.89002   1.89793   1.90531
 Alpha virt. eigenvalues --    1.92423   1.93269   1.94527   1.94985   1.96553
 Alpha virt. eigenvalues --    1.97501   1.99380   2.01421   2.01929   2.02834
 Alpha virt. eigenvalues --    2.03345   2.04789   2.07011   2.07920   2.08175
 Alpha virt. eigenvalues --    2.09366   2.10960   2.12246   2.13922   2.14327
 Alpha virt. eigenvalues --    2.15784   2.16946   2.18174   2.19847   2.20274
 Alpha virt. eigenvalues --    2.22076   2.22934   2.23368   2.24176   2.26451
 Alpha virt. eigenvalues --    2.27573   2.28338   2.30675   2.32255   2.33341
 Alpha virt. eigenvalues --    2.33892   2.35491   2.35928   2.37946   2.38369
 Alpha virt. eigenvalues --    2.39624   2.41023   2.41083   2.41796   2.43165
 Alpha virt. eigenvalues --    2.44117   2.45352   2.45809   2.46599   2.48231
 Alpha virt. eigenvalues --    2.50103   2.50815   2.52043   2.53786   2.55422
 Alpha virt. eigenvalues --    2.56044   2.56716   2.57297   2.58691   2.61764
 Alpha virt. eigenvalues --    2.62650   2.63698   2.64901   2.66224   2.66868
 Alpha virt. eigenvalues --    2.67536   2.68334   2.68469   2.69121   2.69926
 Alpha virt. eigenvalues --    2.70187   2.70881   2.71537   2.71902   2.72209
 Alpha virt. eigenvalues --    2.72977   2.73902   2.74848   2.76361   2.76605
 Alpha virt. eigenvalues --    2.76988   2.78914   2.79313   2.79928   2.80844
 Alpha virt. eigenvalues --    2.81496   2.83178   2.83414   2.84244   2.85530
 Alpha virt. eigenvalues --    2.86210   2.87661   2.88214   2.88495   2.89348
 Alpha virt. eigenvalues --    2.90221   2.90524   2.91263   2.91990   2.92412
 Alpha virt. eigenvalues --    2.93310   2.94370   2.94644   2.95532   2.95768
 Alpha virt. eigenvalues --    2.96296   2.96746   2.97503   2.98084   2.99406
 Alpha virt. eigenvalues --    2.99522   2.99965   3.00286   3.01688   3.02131
 Alpha virt. eigenvalues --    3.03089   3.03614   3.04015   3.04661   3.05195
 Alpha virt. eigenvalues --    3.06009   3.06397   3.06806   3.07682   3.09096
 Alpha virt. eigenvalues --    3.11195   3.11736   3.12507   3.13022   3.13729
 Alpha virt. eigenvalues --    3.14262   3.14355   3.15668   3.16387   3.17273
 Alpha virt. eigenvalues --    3.18164   3.18878   3.19569   3.20071   3.20824
 Alpha virt. eigenvalues --    3.21997   3.22292   3.23486   3.23969   3.25283
 Alpha virt. eigenvalues --    3.25845   3.27122   3.27351   3.27587   3.27810
 Alpha virt. eigenvalues --    3.28501   3.29098   3.29338   3.29801   3.30274
 Alpha virt. eigenvalues --    3.31183   3.31528   3.33082   3.33821   3.34877
 Alpha virt. eigenvalues --    3.35261   3.35979   3.36926   3.37684   3.38371
 Alpha virt. eigenvalues --    3.40179   3.41015   3.41487   3.42362   3.42985
 Alpha virt. eigenvalues --    3.43584   3.44193   3.44807   3.45440   3.46596
 Alpha virt. eigenvalues --    3.47113   3.47717   3.48694   3.49632   3.51523
 Alpha virt. eigenvalues --    3.51691   3.52234   3.53814   3.54195   3.56784
 Alpha virt. eigenvalues --    3.57867   3.58626   3.58966   3.61857   3.62156
 Alpha virt. eigenvalues --    3.63116   3.63575   3.64952   3.65305   3.67682
 Alpha virt. eigenvalues --    3.68047   3.68821   3.70036   3.70274   3.71288
 Alpha virt. eigenvalues --    3.71928   3.72700   3.73125   3.73557   3.74200
 Alpha virt. eigenvalues --    3.74980   3.75758   3.76678   3.77239   3.78139
 Alpha virt. eigenvalues --    3.78470   3.79194   3.80735   3.81579   3.82570
 Alpha virt. eigenvalues --    3.82629   3.83878   3.84528   3.85575   3.85994
 Alpha virt. eigenvalues --    3.86523   3.86834   3.88122   3.88391   3.89432
 Alpha virt. eigenvalues --    3.90498   3.91734   3.92832   3.93975   3.94831
 Alpha virt. eigenvalues --    3.96296   3.97130   3.98389   3.98709   4.00481
 Alpha virt. eigenvalues --    4.01050   4.03015   4.03692   4.05142   4.05661
 Alpha virt. eigenvalues --    4.05969   4.06618   4.07750   4.08220   4.09823
 Alpha virt. eigenvalues --    4.10621   4.11571   4.12805   4.13456   4.14341
 Alpha virt. eigenvalues --    4.15273   4.16336   4.17216   4.17436   4.18270
 Alpha virt. eigenvalues --    4.19731   4.20344   4.20841   4.21557   4.21895
 Alpha virt. eigenvalues --    4.23900   4.24347   4.25284   4.26514   4.27604
 Alpha virt. eigenvalues --    4.27744   4.28713   4.29557   4.29916   4.30609
 Alpha virt. eigenvalues --    4.31200   4.32505   4.34896   4.37349   4.38737
 Alpha virt. eigenvalues --    4.40183   4.41818   4.43552   4.44515   4.45226
 Alpha virt. eigenvalues --    4.46142   4.47667   4.49036   4.49839   4.51190
 Alpha virt. eigenvalues --    4.52406   4.53719   4.55473   4.56816   4.58191
 Alpha virt. eigenvalues --    4.59891   4.60473   4.61001   4.63633   4.64242
 Alpha virt. eigenvalues --    4.65220   4.65903   4.66265   4.67622   4.68772
 Alpha virt. eigenvalues --    4.69442   4.70386   4.71395   4.72753   4.74461
 Alpha virt. eigenvalues --    4.75105   4.76219   4.77624   4.78063   4.80089
 Alpha virt. eigenvalues --    4.80556   4.81787   4.83086   4.84633   4.86071
 Alpha virt. eigenvalues --    4.88554   4.89452   4.90575   4.91191   4.92170
 Alpha virt. eigenvalues --    4.93616   4.94055   4.94887   4.95988   4.96792
 Alpha virt. eigenvalues --    4.97732   4.98886   5.00580   5.00927   5.02347
 Alpha virt. eigenvalues --    5.03679   5.05417   5.06196   5.07207   5.09595
 Alpha virt. eigenvalues --    5.11161   5.12127   5.13288   5.14082   5.15128
 Alpha virt. eigenvalues --    5.16861   5.17079   5.17284   5.19613   5.20308
 Alpha virt. eigenvalues --    5.20991   5.23113   5.24200   5.25744   5.26895
 Alpha virt. eigenvalues --    5.30030   5.32490   5.34219   5.36115   5.36891
 Alpha virt. eigenvalues --    5.40559   5.42960   5.44324   5.45587   5.47029
 Alpha virt. eigenvalues --    5.50494   5.51962   5.52437   5.53387   5.55484
 Alpha virt. eigenvalues --    5.57358   5.58344   5.58698   5.61045   5.62775
 Alpha virt. eigenvalues --    5.62922   5.65269   5.65773   5.66767   5.67670
 Alpha virt. eigenvalues --    5.68707   5.69090   5.71899   5.73299   5.75184
 Alpha virt. eigenvalues --    5.75982   5.78108   5.79211   5.79541   5.80493
 Alpha virt. eigenvalues --    5.82976   5.86923   5.89916   5.91282   5.96434
 Alpha virt. eigenvalues --    5.97749   6.00865   6.05115   6.06203   6.10477
 Alpha virt. eigenvalues --    6.16369   6.18097   6.19744   6.23593   6.25921
 Alpha virt. eigenvalues --    6.45594   6.46522   6.53853   6.55626   6.60644
 Alpha virt. eigenvalues --    6.61041   6.61473   6.62660   6.64090   6.67307
 Alpha virt. eigenvalues --    6.80103   6.80310   6.80600   6.88169   6.89004
 Alpha virt. eigenvalues --    6.91086   6.91551   6.93115   6.94072   7.06568
 Alpha virt. eigenvalues --    7.18315   7.18783   7.22538   7.28801   7.29429
 Alpha virt. eigenvalues --    7.67437   8.00571   8.10819   8.11834   8.12266
 Alpha virt. eigenvalues --    8.15740   8.19275   8.26500   8.37015   8.66591
 Alpha virt. eigenvalues --    8.74464   8.76229   8.77537   8.80576   8.81654
 Alpha virt. eigenvalues --    8.83889   8.84023   8.85475   8.87760   8.90934
 Alpha virt. eigenvalues --    8.93068   8.95039   8.95668   9.01372   9.07887
 Alpha virt. eigenvalues --    9.09027   9.10579   9.15590   9.21391   9.31341
 Alpha virt. eigenvalues --    9.35580   9.40350   9.41390   9.46285   9.48714
 Alpha virt. eigenvalues --    9.57880   9.62716   9.78143   9.81891  10.01897
 Alpha virt. eigenvalues --   10.07149  10.11343  10.11939  10.13640  10.17237
[...]
 Alpha virt. eigenvalues --    6.78262   6.80545   6.85861   6.87051   6.88064
 Alpha virt. eigenvalues --    6.91951   6.93967   7.08282   7.10708   7.11441
 Alpha virt. eigenvalues --    7.15096   7.20683   7.29040   7.43598   8.71170
 Alpha virt. eigenvalues --    9.49788   9.93077  12.00012  12.16361  12.32423
 Alpha virt. eigenvalues --   12.44429  12.49119  12.79123  12.93991  13.31020
 Alpha virt. eigenvalues --   13.49775  13.51878  13.56410  13.75240  13.97179
 Alpha virt. eigenvalues --   15.54389
          Condensed to atoms (all electrons):
               1          2          3          4          5          6
     1  C    5.454540   0.192094   0.019928  -0.051145  -0.008237   0.283236
     2  C    0.192094   5.558621   0.190366  -0.016642  -0.058060   0.044802
     3  C    0.019928   0.190366   5.520210   0.314174  -0.045732  -0.078496
     4  C   -0.051145  -0.016642   0.314174   5.281062   0.401471  -0.016505
     5  C   -0.008237  -0.058060  -0.045732   0.401471   5.127320   0.365815
     6  C    0.283236   0.044802  -0.078496  -0.016505   0.365815   4.901223
     7  H    0.453506  -0.038118   0.009784  -0.001389   0.004601  -0.073301
     8  H   -0.026343   0.445553  -0.084481   0.007722  -0.002146   0.007951
     9  H   -0.004126   0.010770  -0.075502   0.429777  -0.034466   0.010323
    10  H    0.014127  -0.006010   0.013104  -0.056164   0.454837  -0.080425
    11  C    0.006612  -0.055481   0.181798  -0.036684   0.009370  -0.002013
    12  H    0.000793  -0.002670  -0.066829   0.006308  -0.000234  -0.000001
    13  H   -0.000362   0.004790  -0.042940  -0.005549   0.000239   0.000085
    14  C    0.000502  -0.007969   0.047930  -0.016805  -0.001630  -0.000110
    15  H   -0.000013  -0.002362   0.003055   0.001581   0.000075  -0.000012
    16  C    0.000046   0.002813   0.002366  -0.006369   0.000186  -0.000051
    17  O   -0.090280   0.013515  -0.000595   0.002639  -0.049624   0.393369
    18  H   -0.005539   0.004693  -0.000388  -0.000724   0.002374  -0.043023
    19  O    0.000011  -0.000930  -0.026855   0.007740   0.001594  -0.000020
    20  N    0.000097   0.009441  -0.040538  -0.000607   0.000336   0.000066
    21  H   -0.000005  -0.002750   0.016118   0.005843   0.000653  -0.000558
    22  N    0.000001  -0.000048  -0.001152   0.000384   0.000026   0.000000
    23  H    0.000000   0.000051  -0.000043  -0.000075  -0.000007   0.000000
    24  C   -0.000056   0.000170  -0.002069  -0.000102  -0.000024   0.000033
    25  C   -0.000037   0.000007   0.000100  -0.000006   0.000006  -0.000032
    26  H   -0.000002  -0.000100   0.000074   0.000006   0.000001  -0.000002
    27  H   -0.000002   0.000058  -0.000024  -0.000011  -0.000004   0.000001
    28  H    0.000459   0.000226   0.000125  -0.000190   0.000044   0.000011
    29  C    0.000000   0.000011   0.000246  -0.000171  -0.000011   0.000000
    30  H    0.000000   0.000001  -0.000012  -0.000015  -0.000003   0.000000
    31  H    0.000000   0.000000   0.000005  -0.000005   0.000000   0.000000
    32  H    0.000000   0.000000   0.000017   0.000001   0.000000   0.000000
    33  O   -0.000001  -0.000057  -0.000145  -0.000001   0.000000   0.000000
               7          8          9         10         11         12
     1  C    0.453506  -0.026343  -0.004126   0.014127   0.006612   0.000793
     2  C   -0.038118   0.445553   0.010770  -0.006010  -0.055481  -0.002670
     3  C    0.009784  -0.084481  -0.075502   0.013104   0.181798  -0.066829
     4  C   -0.001389   0.007722   0.429777  -0.056164  -0.036684   0.006308
     5  C    0.004601  -0.002146  -0.034466   0.454837   0.009370  -0.000234
     6  C   -0.073301   0.007951   0.010323  -0.080425  -0.002013  -0.000001
     7  H    0.531085  -0.007027   0.000022  -0.000214  -0.000270  -0.000065
     8  H   -0.007027   0.486383  -0.000087   0.000042   0.002932   0.002797
     9  H    0.000022  -0.000087   0.451955  -0.008152   0.000696   0.000093
    10  H   -0.000214   0.000042  -0.008152   0.534775  -0.000115   0.000017
    11  C   -0.000270   0.002932   0.000696  -0.000115   5.314958   0.455651
    12  H   -0.000065   0.002797   0.000093   0.000017   0.455651   0.475437
    13  H    0.000015   0.000188  -0.000119  -0.000027   0.432860  -0.004512
    14  C    0.000023  -0.001583   0.000108   0.000018   0.159540  -0.053451
    15  H    0.000000  -0.000270  -0.000027   0.000000  -0.012475  -0.005772
    16  C   -0.000001   0.000116  -0.001412   0.000016  -0.064022   0.006026
    17  O   -0.004118  -0.000109  -0.000119   0.006339   0.000006  -0.000001
    18  H    0.004513  -0.000004   0.000036  -0.000954  -0.000006   0.000000
    19  O    0.000000  -0.000018   0.019309  -0.000013   0.022790   0.000922
    20  N   -0.000002   0.001574  -0.000177   0.000003  -0.021468   0.001300
    21  H    0.000006  -0.000359  -0.000324   0.000026  -0.009027   0.000326
    22  N    0.000000   0.000000   0.000177   0.000000   0.006612   0.000079
    23  H    0.000000   0.000004  -0.000022   0.000000   0.000135  -0.000072
    24  C   -0.000002   0.000154  -0.000096   0.000000   0.007056   0.000441
    25  C    0.000003   0.000074  -0.000010   0.000000   0.000106   0.000020
    26  H    0.000000  -0.000027   0.000000   0.000000   0.000035  -0.000008
    27  H    0.000000   0.000006   0.000000   0.000000  -0.000013   0.000001
    28  H    0.000014   0.000010   0.000002   0.000001  -0.000373   0.000001
    29  C    0.000000   0.000000   0.000049   0.000000  -0.001020   0.000013
    30  H    0.000000   0.000000   0.000203   0.000000   0.000014  -0.000001
    31  H    0.000000   0.000000   0.000002   0.000000  -0.000001  -0.000001
    32  H    0.000000   0.000000  -0.000066   0.000000  -0.000083   0.000001
    33  O    0.000000  -0.000012   0.000003   0.000000   0.001254   0.000049
              13         14         15         16         17         18
     1  C   -0.000362   0.000502  -0.000013   0.000046  -0.090280  -0.005539
     2  C    0.004790  -0.007969  -0.002362   0.002813   0.013515   0.004693
     3  C   -0.042940   0.047930   0.003055   0.002366  -0.000595  -0.000388
     4  C   -0.005549  -0.016805   0.001581  -0.006369   0.002639  -0.000724
     5  C    0.000239  -0.001630   0.000075   0.000186  -0.049624   0.002374
     6  C    0.000085  -0.000110  -0.000012  -0.000051   0.393369  -0.043023
     7  H    0.000015   0.000023   0.000000  -0.000001  -0.004118   0.004513
     8  H    0.000188  -0.001583  -0.000270   0.000116  -0.000109  -0.000004
     9  H   -0.000119   0.000108  -0.000027  -0.001412  -0.000119   0.000036
    10  H   -0.000027   0.000018   0.000000   0.000016   0.006339  -0.000954
    11  C    0.432860   0.159540  -0.012475  -0.064022   0.000006  -0.000006
    12  H   -0.004512  -0.053451  -0.005772   0.006026  -0.000001   0.000000
    13  H    0.454069  -0.061723  -0.000804   0.004529   0.000000   0.000000
    14  C   -0.061723   5.480448   0.428416   0.173049   0.000000   0.000000
    15  H   -0.000804   0.428416   0.470524  -0.047198   0.000000   0.000000
    16  C    0.004529   0.173049  -0.047198   4.579110   0.000000   0.000000
    17  O    0.000000   0.000000   0.000000   0.000000   7.661596   0.358966
    18  H    0.000000   0.000000   0.000000   0.000000   0.358966   0.492138
    19  O    0.014314  -0.098852   0.002191   0.690473   0.000000   0.000000
    20  N    0.004284   0.170018  -0.046208  -0.004641   0.000000   0.000000
    21  H    0.000153  -0.022435   0.004841  -0.002345  -0.000003  -0.000002
    22  N    0.000987  -0.087490  -0.002318   0.478466   0.000000   0.000000
    23  H   -0.000084   0.006505  -0.001781  -0.027599   0.000000   0.000000
    24  C    0.000091  -0.065579  -0.007933   0.001751   0.000000   0.000000
    25  C    0.000033   0.010236   0.001455  -0.001637   0.000000   0.000000
    26  H   -0.000002  -0.000473   0.000151  -0.000002   0.000000   0.000000
    27  H    0.000000  -0.000475  -0.000248   0.000181   0.000000   0.000000
    28  H   -0.000001   0.000087  -0.000304   0.000308  -0.000002   0.000000
    29  C   -0.000080   0.012327  -0.000844  -0.063622   0.000000   0.000000
    30  H   -0.000064   0.001441   0.000087  -0.006322   0.000000   0.000000
    31  H   -0.000002   0.000703  -0.000148   0.006087   0.000000   0.000000
    32  H    0.000071  -0.000862  -0.000223  -0.005235   0.000000   0.000000
    33  O    0.000015   0.024919   0.018400  -0.019630   0.000000   0.000000
              19         20         21         22         23         24
     1  C    0.000011   0.000097  -0.000005   0.000001   0.000000  -0.000056
     2  C   -0.000930   0.009441  -0.002750  -0.000048   0.000051   0.000170
     3  C   -0.026855  -0.040538   0.016118  -0.001152  -0.000043  -0.002069
     4  C    0.007740  -0.000607   0.005843   0.000384  -0.000075  -0.000102
     5  C    0.001594   0.000336   0.000653   0.000026  -0.000007  -0.000024
     6  C   -0.000020   0.000066  -0.000558   0.000000   0.000000   0.000033
     7  H    0.000000  -0.000002   0.000006   0.000000   0.000000  -0.000002
     8  H   -0.000018   0.001574  -0.000359   0.000000   0.000004   0.000154
     9  H    0.019309  -0.000177  -0.000324   0.000177  -0.000022  -0.000096
    10  H   -0.000013   0.000003   0.000026   0.000000   0.000000   0.000000
    11  C    0.022790  -0.021468  -0.009027   0.006612   0.000135   0.007056
    12  H    0.000922   0.001300   0.000326   0.000079  -0.000072   0.000441
    13  H    0.014314   0.004284   0.000153   0.000987  -0.000084   0.000091
    14  C   -0.098852   0.170018  -0.022435  -0.087490   0.006505  -0.065579
    15  H    0.002191  -0.046208   0.004841  -0.002318  -0.001781  -0.007933
    16  C    0.690473  -0.004641  -0.002345   0.478466  -0.027599   0.001751
    17  O    0.000000   0.000000  -0.000003   0.000000   0.000000   0.000000
    18  H    0.000000   0.000000  -0.000002   0.000000   0.000000   0.000000
    19  O    7.861012   0.002209   0.000158  -0.119953   0.003208  -0.000337
    20  N    0.002209   6.593826   0.371888  -0.005628  -0.008730   0.364111
    21  H    0.000158   0.371888   0.461207   0.000319  -0.000477  -0.017413
    22  N   -0.119953  -0.005628   0.000319   6.375706   0.381433   0.011153
    23  H    0.003208  -0.008730  -0.000477   0.381433   0.456411  -0.004890
    24  C   -0.000337   0.364111  -0.017413   0.011153  -0.004890   4.570289
    25  C    0.000008  -0.052697  -0.001518  -0.000160   0.001677   0.285521
    26  H    0.000000  -0.001391   0.000554  -0.000004  -0.000061  -0.024645
    27  H   -0.000002   0.000116  -0.000297   0.000212   0.000059  -0.028573
    28  H   -0.000001   0.010943  -0.001118   0.000046  -0.000252  -0.056952
    29  C    0.008531  -0.001004  -0.000021   0.291890  -0.027263  -0.000026
    30  H    0.005063   0.000180  -0.000027  -0.047616   0.004281  -0.000513
    31  H    0.001434  -0.000098  -0.000005  -0.026873  -0.007599   0.000036
    32  H    0.004796  -0.000063   0.000008  -0.046970   0.000752   0.000223
    33  O    0.000020  -0.136616   0.003695  -0.015363   0.038673   0.660311
              25         26         27         28         29         30
     1  C   -0.000037  -0.000002  -0.000002   0.000459   0.000000   0.000000
     2  C    0.000007  -0.000100   0.000058   0.000226   0.000011   0.000001
     3  C    0.000100   0.000074  -0.000024   0.000125   0.000246  -0.000012
     4  C   -0.000006   0.000006  -0.000011  -0.000190  -0.000171  -0.000015
     5  C    0.000006   0.000001  -0.000004   0.000044  -0.000011  -0.000003
     6  C   -0.000032  -0.000002   0.000001   0.000011   0.000000   0.000000
     7  H    0.000003   0.000000   0.000000   0.000014   0.000000   0.000000
     8  H    0.000074  -0.000027   0.000006   0.000010   0.000000   0.000000
     9  H   -0.000010   0.000000   0.000000   0.000002   0.000049   0.000203
    10  H    0.000000   0.000000   0.000000   0.000001   0.000000   0.000000
    11  C    0.000106   0.000035  -0.000013  -0.000373  -0.001020   0.000014
    12  H    0.000020  -0.000008   0.000001   0.000001   0.000013  -0.000001
    13  H    0.000033  -0.000002   0.000000  -0.000001  -0.000080  -0.000064
    14  C    0.010236  -0.000473  -0.000475   0.000087   0.012327   0.001441
    15  H    0.001455   0.000151  -0.000248  -0.000304  -0.000844   0.000087
    16  C   -0.001637  -0.000002   0.000181   0.000308  -0.063622  -0.006322
    17  O    0.000000   0.000000   0.000000  -0.000002   0.000000   0.000000
    18  H    0.000000   0.000000   0.000000   0.000000   0.000000   0.000000
    19  O    0.000008   0.000000  -0.000002  -0.000001   0.008531   0.005063
    20  N   -0.052697  -0.001391   0.000116   0.010943  -0.001004   0.000180
    21  H   -0.001518   0.000554  -0.000297  -0.001118  -0.000021  -0.000027
    22  N   -0.000160  -0.000004   0.000212   0.000046   0.291890  -0.047616
    23  H    0.001677  -0.000061   0.000059  -0.000252  -0.027263   0.004281
    24  C    0.285521  -0.024645  -0.028573  -0.056952  -0.000026  -0.000513
    25  C    4.951878   0.387596   0.386211   0.403320  -0.000051   0.000002
    26  H    0.387596   0.571316  -0.026415  -0.025686  -0.000002   0.000000
    27  H    0.386211  -0.026415   0.575870  -0.024307   0.000019  -0.000011
    28  H    0.403320  -0.025686  -0.024307   0.586795   0.000000   0.000001
    29  C   -0.000051  -0.000002   0.000019   0.000000   4.767138   0.397299
    30  H    0.000002   0.000000  -0.000011   0.000001   0.397299   0.624542
    31  H   -0.000021   0.000000   0.000014   0.000000   0.396470  -0.028182
    32  H    0.000000   0.000000   0.000002   0.000000   0.400994  -0.058664
    33  O   -0.059830   0.001287   0.002658   0.003860   0.000180  -0.000024
              31         32         33
     1  C    0.000000   0.000000  -0.000001
     2  C    0.000000   0.000000  -0.000057
     3  C    0.000005   0.000017  -0.000145
     4  C   -0.000005   0.000001  -0.000001
     5  C    0.000000   0.000000   0.000000
     6  C    0.000000   0.000000   0.000000
     7  H    0.000000   0.000000   0.000000
     8  H    0.000000   0.000000  -0.000012
     9  H    0.000002  -0.000066   0.000003
    10  H    0.000000   0.000000   0.000000
    11  C   -0.000001  -0.000083   0.001254
    12  H   -0.000001   0.000001   0.000049
    13  H   -0.000002   0.000071   0.000015
    14  C    0.000703  -0.000862   0.024919
    15  H   -0.000148  -0.000223   0.018400
    16  C    0.006087  -0.005235  -0.019630
    17  O    0.000000   0.000000   0.000000
    18  H    0.000000   0.000000   0.000000
    19  O    0.001434   0.004796   0.000020
    20  N   -0.000098  -0.000063  -0.136616
    21  H   -0.000005   0.000008   0.003695
    22  N   -0.026873  -0.046970  -0.015363
    23  H   -0.007599   0.000752   0.038673
    24  C    0.000036   0.000223   0.660311
    25  C   -0.000021   0.000000  -0.059830
    26  H    0.000000   0.000000   0.001287
    27  H    0.000014   0.000002   0.002658
    28  H    0.000000   0.000000   0.003860
    29  C    0.396470   0.400994   0.000180
    30  H   -0.028182  -0.058664  -0.000024
    31  H    0.593961  -0.027075   0.000209
    32  H   -0.027075   0.621268  -0.000052
    33  O    0.000209  -0.000052   7.905189
 Mulliken charges:
               1
     1  C   -0.239803
     2  C   -0.286788
     3  C    0.146403
     4  C   -0.249550
     5  C   -0.168769
     6  C    0.287635
     7  H    0.120935
     8  H    0.166960
     9  H    0.201181
    10  H    0.128770
    11  C   -0.399373
    12  H    0.183338
    13  H    0.199548
    14  C   -0.096833
    15  H    0.198165
    16  C    0.304563
    17  O   -0.291581
    18  H    0.187918
    19  O   -0.398804
    20  N   -0.210524
    21  H    0.192888
    22  N   -0.193915
    23  H    0.185768
    24  C    0.307869
    25  C   -0.312253
    26  H    0.117801
    27  H    0.114974
    28  H    0.102933
    29  C   -0.181052
    30  H    0.108339
    31  H    0.091089
    32  H    0.111161
    33  O   -0.428991
 Sum of Mulliken charges =   0.00000
 Mulliken charges with hydrogens summed into heavy atoms:
               1
     1  C   -0.118869
     2  C   -0.119828
     3  C    0.146403
     4  C   -0.048369
     5  C   -0.039999
     6  C    0.287635
    11  C   -0.016487
    14  C    0.101332
    16  C    0.304563
    17  O   -0.103663
    19  O   -0.398804
    20  N   -0.017636
    22  N   -0.008147
    24  C    0.307869
    25  C    0.023454
    29  C    0.129537
    33  O   -0.428991
 Electronic spatial extent (au):  <R**2>=           4808.9592
 Charge=              0.0000 electrons
 Dipole moment (field-independent basis, Debye):
    X=             -1.9711    Y=              3.2871    Z=             -0.5520  Tot=              3.8723
 Quadrupole moment (field-independent basis, Debye-Ang):
   XX=            -95.2042   YY=           -103.5713   ZZ=            -97.5880
   XY=            -12.2258   XZ=             -6.0321   YZ=             -0.9786
 Traceless Quadrupole moment (field-independent basis, Debye-Ang):
   XX=              3.5836   YY=             -4.7835   ZZ=              1.1999
   XY=            -12.2258   XZ=             -6.0321   YZ=             -0.9786
 Octapole moment (field-independent basis, Debye-Ang**2):
  XXX=            -33.8269  YYY=             34.0480  ZZZ=             -0.8954  XYY=            -23.2561
  XXY=              9.4830  XXZ=            -14.1401  XZZ=             18.9199  YZZ=              1.4107
  YYZ=            -15.0045  XYZ=             -4.1827
 Hexadecapole moment (field-independent basis, Debye-Ang**3):
 XXXX=          -3757.0649 YYYY=          -1473.7251 ZZZZ=           -594.5906 XXXY=           -383.3498
 XXXZ=            -77.0189 YYYX=              8.8769 YYYZ=             -3.7130 ZZZX=             10.3755
 ZZZY=              6.2618 XXYY=           -945.6623 XXZZ=           -816.5162 YYZZ=           -325.6733
 XXYZ=            -14.7610 YYXZ=             -7.8976 ZZXY=             -7.0954
 N-N= 1.220313268273D+03 E-N=-4.310942557205D+03  KE= 7.961997562562D+02
 Calculating spin-rotation constants.
 Leave Link  601 at Tue Jun 24 18:08:59 2014, MaxMem=  4294967296 cpu:        92.2
 (Enter /home/ztw1e12/g09/l9999.exe)

 Test job not archived.
 1\1\GINC-GREEN0517\SP\RM06\Gen\C12H16N2O3\ROOT\24-Jun-2014\0\\#P Geom=
 AllCheck Guess=TCheck SCRF=Check GenChk RM06/ChkBas NMR=ReadFC IOp(3/6
 =22)\\NMR spin-spin scan\\0,1\C,0,3.433451,0.006092,-0.333502\C,0,2.28
 3122,-0.36841,-1.007161\C,0,1.242982,-1.024846,-0.360266\C,0,1.388145,
 -1.291042,0.999319\C,0,2.529101,-0.924096,1.686668\C,0,3.556266,-0.272
 763,1.018401\H,0,4.239648,0.514362,-0.849861\H,0,2.191427,-0.146639,-2
 .06481\H,0,0.590032,-1.799285,1.527336\H,0,2.638734,-1.137435,2.742478
 \C,0,-0.004882,-1.397298,-1.108037\H,0,0.221102,-1.380382,-2.175499\H,
 0,-0.312019,-2.413816,-0.86251\C,0,-1.210592,-0.480973,-0.879718\H,0,-
 1.82524,-0.475721,-1.783076\C,0,-2.122227,-0.978729,0.248682\O,0,4.662
 297,0.068677,1.735913\H,0,5.294687,0.511888,1.159155\O,0,-1.86338,-1.9
 63918,0.934725\N,0,-0.797562,0.891997,-0.638771\H,0,0.110636,1.040158,
 -0.222075\N,0,-3.239773,-0.264785,0.411017\H,0,-3.399498,0.521154,-0.2
 07119\C,0,-1.505738,1.966776,-1.021799\C,0,-0.862191,3.29481,-0.800862
 \H,0,-0.740013,3.785926,-1.766375\H,0,-1.529809,3.914093,-0.202772\H,0
 ,0.105861,3.225907,-0.309739\C,0,-4.201031,-0.580996,1.441727\H,0,-3.7
 52702,-0.517661,2.434003\H,0,-5.020447,0.129251,1.385163\H,0,-4.603067
 ,-1.586926,1.315446\O,0,-2.626478,1.872162,-1.527215\\Version=EM64L-G0
 9RevD.01\State=1-A\HF=-801.8709806\RMSD=4.085e-09\Dipole=0.9459366,1.1
 411967,-0.3519861\Quadrupole=5.6589323,-2.8729767,-2.7859555,4.600987,
 -7.3776228,3.7303709\PG=C01 [X(C12H16N2O3)]\\@


 TOWERING GENIUS DISDAINS A BEATEN PATH.  IT SEEKS 
 REGIONS HITHERTO UNEXPLORED.

                                -- ABRAHAM LINCOLN
 Job cpu time:       3 days  9 hours 44 minutes  3.1 seconds.
 File lengths (MBytes):  RWF=   3656 Int=      0 D2E=      0 Chk=     64 Scr=      8
 Normal termination of Gaussian 09 at Tue Jun 24 18:09:00 2014.
