 Entering Gaussian System, Link 0=g09
 Input=scan_input_11.gjf
 Output=scan_input_11.log
 Initial command:
 /home/ztw1e12/g09/l1.exe "/home/ztw1e12/tyrosine_scan/tyrosine_chi1_scan/Gau-31410.inp" -scrdir="/home/ztw1e12/tyrosine_scan/tyrosine_chi1_scan/"
 Default is to use a total of   8 processors:
                                8 via shared-memory
                                1 via Linda
 Entering Link 1 = /home/ztw1e12/g09/l1.exe PID=     31411.
  
 Copyright (c) 1988,1990,1992,1993,1995,1998,2003,2009,2013,
            Gaussian, Inc.  All Rights Reserved.
  
 This is part of the Gaussian(R) 09 program.  It is based on
 the Gaussian(R) 03 system (copyright 2003, Gaussian, Inc.),
 the Gaussian(R) 98 system (copyright 1998, Gaussian, Inc.),
 the Gaussian(R) 94 system (copyright 1995, Gaussian, Inc.),
 the Gaussian 92(TM) system (copyright 1992, Gaussian, Inc.),
 the Gaussian 90(TM) system (copyright 1990, Gaussian, Inc.),
 the Gaussian 88(TM) system (copyright 1988, Gaussian, Inc.),
 the Gaussian 86(TM) system (copyright 1986, Carnegie Mellon
 University), and the Gaussian 82(TM) system (copyright 1983,
 Carnegie Mellon University). Gaussian is a federally registered
 trademark of Gaussian, Inc.
  
 This software contains proprietary and confidential information,
 including trade secrets, belonging to Gaussian, Inc.
  
 This software is provided under written license and may be
 used, copied, transmitted, or stored only in accord with that
 written license.
  
 The following legend is applicable only to US Government
 contracts under FAR:
  
                    RESTRICTED RIGHTS LEGEND
  
 Use, reproduction and disclosure by the US Government is
 subject to restrictions as set forth in subparagraphs (a)
 and (c) of the Commercial Computer Software - Restricted
 Rights clause in FAR 52.227-19.
  
 Gaussian, Inc.
 340 Quinnipiac St., Bldg. 40, Wallingford CT 06492
  
  
 ---------------------------------------------------------------
 Warning -- This program may not be used in any manner that
 competes with the business of Gaussian, Inc. or will provide
 assistance to any competitor of Gaussian, Inc.  The licensee
 of this program is prohibited from giving any competitor of
 Gaussian, Inc. access to this program.  By using this program,
 the user acknowledges that Gaussian, Inc. is engaged in the
 business of creating and licensing software in the field of
 computational chemistry and represents and warrants to the
 licensee that it is not a competitor of Gaussian, Inc. and that
 it will not use this program in any manner prohibited above.
 ---------------------------------------------------------------
  

 Cite this work as:
 Gaussian 09, Revision D.01,
 M. J. Frisch, G. W. Trucks, H. B. Schlegel, G. E. Scuseria, 
 M. A. Robb, J. R. Cheeseman, G. Scalmani, V. Barone, B. Mennucci, 
 G. A. Petersson, H. Nakatsuji, M. Caricato, X. Li, H. P. Hratchian, 
 A. F. Izmaylov, J. Bloino, G. Zheng, J. L. Sonnenberg, M. Hada, 
 M. Ehara, K. Toyota, R. Fukuda, J. Hasegawa, M. Ishida, T. Nakajima, 
 Y. Honda, O. Kitao, H. Nakai, T. Vreven, J. A. Montgomery, Jr., 
 J. E. Peralta, F. Ogliaro, M. Bearpark, J. J. Heyd, E. Brothers, 
 K. N. Kudin, V. N. Staroverov, T. Keith, R. Kobayashi, J. Normand, 
 K. Raghavachari, A. Rendell, J. C. Burant, S. S. Iyengar, J. Tomasi, 
 M. Cossi, N. Rega, J. M. Millam, M. Klene, J. E. Knox, J. B. Cross, 
 V. Bakken, C. Adamo, J. Jaramillo, R. Gomperts, R. E. Stratmann, 
 O. Yazyev, A. J. Austin, R. Cammi, C. Pomelli, J. W. Ochterski, 
 R. L. Martin, K. Morokuma, V. G. Zakrzewski, G. A. Voth, 
 P. Salvador, J. J. Dannenberg, S. Dapprich, A. D. Daniels, 
 O. Farkas, J. B. Foresman, J. V. Ortiz, J. Cioslowski, 
 and D. J. Fox, Gaussian, Inc., Wallingford CT, 2013.
 
 ******************************************
 Gaussian 09:  EM64L-G09RevD.01 24-Apr-2013
                24-Jun-2014 
 ******************************************
 %Mem=32GB
 %NProcShared=16
 Will use up to   16 processors via shared memory.
 Default route:  MaxDisk=100GB
 ----------------------------------------------------------------------
 #p nmr=(giao,mixed,spinspin) m06/cc-pvtz scf=tight integral=(grid=ultr
 afine)
 ----------------------------------------------------------------------
 1/38=1/1;
 2/12=2,17=6,18=5,40=1/2;
 3/5=16,6=1,10=1100000,11=2,16=1,25=1,30=1,74=-54,75=-5/1,2,8,3;
 4//1;
 5/5=2,32=2,38=5/2;
 8/6=1,10=90,11=11/1;
 10/13=100,45=16,47=3/2;
 6/7=2,8=2,9=2,10=2,28=1/1;
 99/9=1/99;
 Leave Link    1 at Tue Jun 24 16:35:33 2014, MaxMem=  4294967296 cpu:         4.9
 (Enter /home/ztw1e12/g09/l101.exe)
 ------------------
 NMR spin-spin scan
 ------------------
 Symbolic Z-matrix:
 Charge =  0 Multiplicity = 1
 C                     3.12411   0.12756   0.24651 
 C                     2.15057  -0.15247  -0.69773 
 C                     1.08974  -1.00431  -0.41445 
 C                     1.0333   -1.57688   0.85455 
 C                     1.99565  -1.30767   1.80776 
 C                     3.04454  -0.45073   1.50322 
 H                     3.94996   0.78965   0.0132 
 H                     2.22125   0.29618  -1.683 
 H                     0.22324  -2.25733   1.09715 
 H                     1.95205  -1.75959   2.79052 
 C                     0.02718  -1.28335  -1.43447 
 H                     0.42449  -1.09657  -2.43398 
 H                    -0.2802   -2.32897  -1.39882 
 C                    -1.23602  -0.43067  -1.2707 
 H                    -1.87215  -0.58948  -2.1442 
 C                    -2.05314  -0.93888  -0.09068 
 O                     3.97259  -0.21887   2.47242 
 H                     4.64822   0.37882   2.13299 
 O                    -2.47857  -2.09399  -0.10595 
 N                    -0.90743   0.97293  -1.19775 
 H                     0.00578   1.23736  -0.85599 
 N                    -2.27456  -0.10422   0.92373 
 H                    -1.89474   0.82751   0.88105 
 C                    -1.76137   1.94422  -1.58158 
 C                    -1.25956   3.34549  -1.46508 
 H                    -1.31156   3.81829  -2.44555 
 H                    -1.92311   3.89999  -0.80161 
 H                    -0.24151   3.40874  -1.08762 
 C                    -3.00909  -0.52303   2.09525 
 H                    -2.49685  -1.34085   2.60516 
 H                    -3.09393   0.31659   2.77809 
 H                    -4.00992  -0.86113   1.82667 
 O                    -2.88811   1.69319  -2.00022 
 
 NAtoms=     33 NQM=       33 NQMF=       0 NMMI=      0 NMMIF=      0
                NMic=       0 NMicF=      0.
                    Isotopes and Nuclear Properties:
 (Nuclear quadrupole moments (NQMom) in fm**2, nuclear magnetic moments (NMagM)
  in nuclear magnetons)

  Atom         1           2           3           4           5           6           7           8           9          10
 IAtWgt=          12          12          12          12          12          12           1           1           1           1
 AtmWgt=  12.0000000  12.0000000  12.0000000  12.0000000  12.0000000  12.0000000   1.0078250   1.0078250   1.0078250   1.0078250
 NucSpn=           0           0           0           0           0           0           1           1           1           1
 AtZEff=   0.0000000   0.0000000   0.0000000   0.0000000   0.0000000   0.0000000   0.0000000   0.0000000   0.0000000   0.0000000
 NQMom=    0.0000000   0.0000000   0.0000000   0.0000000   0.0000000   0.0000000   0.0000000   0.0000000   0.0000000   0.0000000
 NMagM=    0.0000000   0.0000000   0.0000000   0.0000000   0.0000000   0.0000000   2.7928460   2.7928460   2.7928460   2.7928460
 AtZNuc=   6.0000000   6.0000000   6.0000000   6.0000000   6.0000000   6.0000000   1.0000000   1.0000000   1.0000000   1.0000000

  Atom        11          12          13          14          15          16          17          18          19          20
 IAtWgt=          12           1           1          12           1          12          16           1          16          14
 AtmWgt=  12.0000000   1.0078250   1.0078250  12.0000000   1.0078250  12.0000000  15.9949146   1.0078250  15.9949146  14.0030740
 NucSpn=           0           1           1           0           1           0           0           1           0           2
 AtZEff=   0.0000000   0.0000000   0.0000000   0.0000000   0.0000000   0.0000000   0.0000000   0.0000000   0.0000000   0.0000000
 NQMom=    0.0000000   0.0000000   0.0000000   0.0000000   0.0000000   0.0000000   0.0000000   0.0000000   0.0000000   2.0440000
 NMagM=    0.0000000   2.7928460   2.7928460   0.0000000   2.7928460   0.0000000   0.0000000   2.7928460   0.0000000   0.4037610
 AtZNuc=   6.0000000   1.0000000   1.0000000   6.0000000   1.0000000   6.0000000   8.0000000   1.0000000   8.0000000   7.0000000

  Atom        21          22          23          24          25          26          27          28          29          30
 IAtWgt=           1          14           1          12          12           1           1           1          12           1
 AtmWgt=   1.0078250  14.0030740   1.0078250  12.0000000  12.0000000   1.0078250   1.0078250   1.0078250  12.0000000   1.0078250
 NucSpn=           1           2           1           0           0           1           1           1           0           1
 AtZEff=   0.0000000   0.0000000   0.0000000   0.0000000   0.0000000   0.0000000   0.0000000   0.0000000   0.0000000   0.0000000
 NQMom=    0.0000000   2.0440000   0.0000000   0.0000000   0.0000000   0.0000000   0.0000000   0.0000000   0.0000000   0.0000000
 NMagM=    2.7928460   0.4037610   2.7928460   0.0000000   0.0000000   2.7928460   2.7928460   2.7928460   0.0000000   2.7928460
 AtZNuc=   1.0000000   7.0000000   1.0000000   6.0000000   6.0000000   1.0000000   1.0000000   1.0000000   6.0000000   1.0000000

  Atom        31          32          33
 IAtWgt=           1           1          16
 AtmWgt=   1.0078250   1.0078250  15.9949146
 NucSpn=           1           1           0
 AtZEff=   0.0000000   0.0000000   0.0000000
 NQMom=    0.0000000   0.0000000   0.0000000
 NMagM=    2.7928460   2.7928460   0.0000000
 AtZNuc=   1.0000000   1.0000000   8.0000000
 Leave Link  101 at Tue Jun 24 16:35:33 2014, MaxMem=  4294967296 cpu:         1.8
 (Enter /home/ztw1e12/g09/l202.exe)
                          Input orientation:                          
 ---------------------------------------------------------------------
 Center     Atomic      Atomic             Coordinates (Angstroms)
 Number     Number       Type             X           Y           Z
 ---------------------------------------------------------------------
      1          6           0        3.124106    0.127558    0.246506
      2          6           0        2.150571   -0.152473   -0.697728
      3          6           0        1.089738   -1.004307   -0.414454
      4          6           0        1.033298   -1.576876    0.854548
      5          6           0        1.995647   -1.307671    1.807763
      6          6           0        3.044542   -0.450729    1.503220
      7          1           0        3.949958    0.789653    0.013196
      8          1           0        2.221246    0.296179   -1.683000
      9          1           0        0.223240   -2.257334    1.097149
     10          1           0        1.952052   -1.759591    2.790523
     11          6           0        0.027184   -1.283348   -1.434467
     12          1           0        0.424488   -1.096566   -2.433976
     13          1           0       -0.280195   -2.328972   -1.398816
     14          6           0       -1.236023   -0.430667   -1.270695
     15          1           0       -1.872149   -0.589477   -2.144201
     16          6           0       -2.053136   -0.938878   -0.090683
     17          8           0        3.972592   -0.218865    2.472417
     18          1           0        4.648215    0.378818    2.132987
     19          8           0       -2.478573   -2.093988   -0.105948
     20          7           0       -0.907433    0.972928   -1.197754
     21          1           0        0.005775    1.237363   -0.855987
     22          7           0       -2.274557   -0.104224    0.923730
     23          1           0       -1.894738    0.827513    0.881046
     24          6           0       -1.761371    1.944222   -1.581577
     25          6           0       -1.259560    3.345489   -1.465081
     26          1           0       -1.311561    3.818285   -2.445554
     27          1           0       -1.923112    3.899990   -0.801611
     28          1           0       -0.241506    3.408736   -1.087624
     29          6           0       -3.009087   -0.523033    2.095253
     30          1           0       -2.496851   -1.340851    2.605156
     31          1           0       -3.093927    0.316588    2.778090
     32          1           0       -4.009921   -0.861129    1.826665
     33          8           0       -2.888107    1.693187   -2.000225
 ---------------------------------------------------------------------
                    Distance matrix (angstroms):
                    1          2          3          4          5
     1  C    0.000000
     2  C    1.384834   0.000000
     3  C    2.420050   1.389688   0.000000
     4  C    2.765192   2.384698   1.393337   0.000000
     5  C    2.402254   2.763326   2.418874   1.381016   0.000000
     6  C    1.385668   2.394225   2.793775   2.394595   1.388264
     7  H    1.083898   2.151931   3.403239   3.849057   3.382096
     8  H    2.136956   1.084917   2.140276   3.370268   3.848202
     9  H    3.850497   3.371443   2.146122   1.085390   2.132665
    10  H    3.377435   3.845794   3.403809   2.150696   1.082566
    11  C    3.795689   2.516036   1.499104   2.517541   3.793085
    12  H    3.996423   2.623972   2.128271   3.378718   4.528295
    13  H    4.508979   3.337259   2.144860   2.714509   4.062593
    14  C    4.650187   3.445969   2.543890   3.313649   4.548597
    15  H    5.584996   4.297154   3.454979   4.290580   5.576170
    16  C    5.296680   4.319501   3.160184   3.290377   4.486953
    17  O    2.407201   3.657046   4.154731   3.619550   2.352780
    18  H    2.438206   3.812275   4.589689   4.304273   3.160084
    19  O    6.037342   5.054568   3.743718   3.677390   4.929425
    20  N    4.365071   3.296656   2.917483   3.805244   4.760477
    21  H    3.488717   2.560633   2.528836   3.449880   4.187165
    22  N    5.445908   4.713089   3.730867   3.621518   4.523764
    23  H    5.106993   4.451677   3.733762   3.788823   4.533532
    24  C    5.523590   4.525551   4.264367   5.113024   6.014783
    25  C    5.700977   4.945054   5.054082   5.904875   6.554371
    26  H    6.367401   5.550511   5.757517   6.745132   7.436649
    27  H    6.387817   5.747012   5.768820   6.440441   7.020345
    28  H    4.886039   4.307698   4.658360   5.500317   5.969306
    29  C    6.438726   5.878786   4.830178   4.357845   5.074019
    30  H    6.270137   5.824072   4.700524   3.947441   4.562836
    31  H    6.716292   6.309207   5.425878   4.931451   5.429872
    32  H    7.373517   6.695253   5.572220   5.185688   6.022176
    33  O    6.606489   5.521887   5.061067   5.849825   6.881640
                    6          7          8          9         10
     6  C    0.000000
     7  H    2.139742   0.000000
     8  H    3.374565   2.471648   0.000000
     9  H    3.374679   4.934320   4.271029   0.000000
    10  H    2.136306   4.266593   4.930625   2.470638   0.000000
    11  C    4.292751   4.667035   2.714882   2.719589   4.667169
    12  H    4.773186   4.687794   2.394169   3.722462   5.483470
    13  H    4.796195   5.441856   3.637222   2.547238   4.780971
    14  C    5.100808   5.480142   3.556826   3.327589   5.331356
    15  H    6.123462   6.360290   4.213428   4.204611   6.351786
    16  C    5.363314   6.247859   4.725588   2.886375   5.001645
    17  O    1.361756   2.658080   4.538719   4.483788   2.560783
    18  H    1.912203   2.269331   4.523137   5.253824   3.503490
    19  O    5.982852   7.046672   5.503480   2.962080   5.303942
    20  N    4.994013   5.009415   3.237605   4.120630   5.616909
    21  H    4.201145   4.063558   2.545209   4.009356   5.105562
    22  N    5.361780   6.353950   5.212256   3.302264   4.908093
    23  H    5.139795   5.908897   4.878317   3.748175   5.013682
    24  C    6.192622   6.041160   4.311330   5.363518   6.828104
    25  C    6.461221   5.988045   4.632687   6.336824   7.381494
    26  H    7.265874   6.549935   5.046528   7.198577   8.317474
    27  H    6.994182   6.695600   5.562374   6.791521   7.742815
    28  H    5.692632   5.063573   4.013431   6.090449   6.823732
    29  C    6.082940   7.381491   6.504052   3.801572   5.159978
    30  H    5.719582   7.267644   6.582445   3.242364   4.472409
    31  H    6.316239   7.581870   6.939222   4.522636   5.456425
    32  H    7.073789   8.329071   7.244622   4.516773   6.105848
    33  O    7.215735   7.185358   5.306388   5.905999   7.635449
                   11         12         13         14         15
    11  C    0.000000
    12  H    1.091676   0.000000
    13  H    1.090451   1.756974   0.000000
    14  C    1.532833   2.133996   2.129221   0.000000
    15  H    2.143046   2.369736   2.473006   1.092195   0.000000
    16  C    2.500429   3.413870   2.605167   1.522623   2.090879
    17  O    5.653593   6.118177   6.125781   6.417587   7.457313
    18  H    6.069881   6.393260   6.640405   6.845771   7.857931
    19  O    2.949732   3.852574   2.561170   2.380589   2.604953
    20  N    2.453635   2.754099   3.366957   1.443389   2.065805
    21  H    2.586326   2.848262   3.618727   2.120464   2.919493
    22  N    3.499920   4.420834   3.784337   2.449616   3.132029
    23  H    3.675747   4.479984   4.215201   2.578161   3.340732
    24  C    3.692936   3.840697   4.526309   2.452088   2.597778
    25  C    4.804454   4.848363   5.758737   3.781229   4.039855
    26  H    5.370400   5.212462   6.320454   4.409035   4.453475
    27  H    5.574151   5.756858   6.469606   4.409844   4.686199
    28  H    4.712552   4.749101   5.746271   3.970339   4.445341
    29  C    4.717621   5.712468   4.787148   3.805508   4.389762
    30  H    4.763676   5.829815   4.682066   4.176164   4.848836
    31  H    5.481493   6.445299   5.688815   4.516952   5.151955
    32  H    5.206867   6.154062   5.144817   4.180125   4.517924
    33  O    4.204612   4.352487   4.831217   2.787894   2.502689
                   16         17         18         19         20
    16  C    0.000000
    17  O    6.587663   0.000000
    18  H    7.182558   0.963797   0.000000
    19  O    1.231060   7.195942   7.868844   0.000000
    20  N    2.488623   6.221348   6.504770   3.614761   0.000000
    21  H    3.092059   5.379081   5.587783   4.222848   1.010287
    22  N    1.332182   6.437270   7.044175   2.249671   2.744081
    23  H    2.022247   6.168706   6.676745   3.138501   2.305933
    24  C    3.258858   7.347935   7.571741   4.358784   1.349052
    25  C    4.568866   7.455463   7.526555   5.737695   2.413401
    26  H    5.359660   8.270870   8.265101   6.464568   3.133110
    27  H    4.892542   7.902123   8.012044   6.059724   3.123496
    28  H    4.814316   6.602424   6.592580   6.020642   2.527597
    29  C    2.421794   6.998472   7.710320   2.755836   4.183150
    30  H    2.761524   6.567356   7.364250   2.813829   4.726727
    31  H    3.299894   7.093366   7.769221   3.808833   4.584635
    32  H    2.740671   8.034302   8.751835   2.756803   4.704924
    33  O    3.357275   8.410093   8.695238   4.254256   2.255172
                   21         22         23         24         25
    21  H    0.000000
    22  N    3.188599   0.000000
    23  H    2.607146   1.007084   0.000000
    24  C    2.036894   3.276592   2.707275   0.000000
    25  C    2.533034   4.317077   3.499709   1.492962   0.000000
    26  H    3.305035   5.259802   4.511217   2.112084   1.089756
    27  H    3.288335   4.374248   3.503178   2.111761   1.089938
    28  H    2.197650   4.529871   3.643014   2.167667   1.087616
    29  C    4.571455   1.444784   2.130739   4.600350   5.540964
    30  H    4.988971   2.099013   2.834942   5.372278   6.329258
    31  H    4.864411   2.070532   2.301711   4.840619   5.526630
    32  H    5.265558   2.097543   2.867003   4.953997   6.007971
    33  O    3.145093   3.486638   3.168264   1.227933   2.380892
                   26         27         28         29         30
    26  H    0.000000
    27  H    1.755910   0.000000
    28  H    1.776717   1.775087   0.000000
    29  C    6.507501   5.397619   5.766196   0.000000
    30  H    7.316507   6.277074   6.425090   1.091427   0.000000
    31  H    6.536449   5.198638   5.713268   1.085554   1.770172
    32  H    6.886938   5.825020   6.397326   1.090008   1.767926
    33  O    2.683255   2.690329   3.283359   4.658241   5.528834
                   31         32         33
    31  H    0.000000
    32  H    1.769540   0.000000
    33  O    4.976915   4.735830   0.000000
 Stoichiometry    C12H16N2O3
 Framework group  C1[X(C12H16N2O3)]
 Deg. of freedom    93
 Full point group                 C1      NOp   1
 Largest Abelian subgroup         C1      NOp   1
 Largest concise Abelian subgroup C1      NOp   1
                         Standard orientation:                         
 ---------------------------------------------------------------------
 Center     Atomic      Atomic             Coordinates (Angstroms)
 Number     Number       Type             X           Y           Z
 ---------------------------------------------------------------------
      1          6           0        2.992907   -1.342821    0.152048
      2          6           0        1.837706   -1.246994    0.909737
      3          6           0        1.184892   -0.032871    1.085724
      4          6           0        1.730370    1.095718    0.477343
      5          6           0        2.881303    1.017281   -0.281873
      6          6           0        3.514417   -0.207177   -0.446631
      7          1           0        3.496715   -2.294125    0.025422
      8          1           0        1.437427   -2.137264    1.383278
      9          1           0        1.248495    2.059076    0.610798
     10          1           0        3.305842    1.897511   -0.747610
     11          6           0       -0.078349    0.057838    1.887787
     12          1           0       -0.127861   -0.781160    2.584484
     13          1           0       -0.096626    0.972498    2.481205
     14          6           0       -1.357721    0.035962    1.043804
     15          1           0       -2.211576   -0.057494    1.718406
     16          6           0       -1.545346    1.380770    0.354842
     17          8           0        4.649029   -0.235468   -1.199117
     18          1           0        4.993962   -1.135042   -1.225434
     19          8           0       -1.662818    2.396916    1.039793
     20          7           0       -1.364961   -1.092302    0.143616
     21          1           0       -0.479687   -1.476714   -0.155044
     22          7           0       -1.571994    1.404020   -0.976870
     23          1           0       -1.464216    0.539716   -1.482419
     24          6           0       -2.502596   -1.664294   -0.301977
     25          6           0       -2.337316   -2.838314   -1.209333
     26          1           0       -2.852091   -3.693521   -0.772074
     27          1           0       -2.824300   -2.616975   -2.158975
     28          1           0       -1.297266   -3.098361   -1.392578
     29          6           0       -1.709291    2.644631   -1.704493
     30          1           0       -0.869831    3.311590   -1.500320
     31          1           0       -1.734658    2.429542   -2.768223
     32          1           0       -2.629599    3.158593   -1.427015
     33          8           0       -3.611447   -1.243732    0.016450
 ---------------------------------------------------------------------
 Rotational constants (GHZ):      0.6449220      0.3045316      0.2565852
 Leave Link  202 at Tue Jun 24 16:35:33 2014, MaxMem=  4294967296 cpu:         1.9
 (Enter /home/ztw1e12/g09/l301.exe)
 Standard basis: CC-pVTZ (5D, 7F)
 Converting basis for Fermi contact spin-spin IFCMod=1.
 AO basis functions are being uncontracted.
 Ernie: Thresh=  0.10000D-02 Tol=  0.10000D-05 Strict=F.
 There are  1305 symmetry adapted cartesian basis functions of A   symmetry.
 There are  1204 symmetry adapted basis functions of A   symmetry.
  1204 basis functions,  1305 primitive gaussians,  1305 cartesian basis functions
    63 alpha electrons       63 beta electrons
       nuclear repulsion energy      1230.1693824332 Hartrees.
 IExCor= 4235 DFT=T Ex+Corr=M06 ExCW=0 ScaHFX=  0.270000
 ScaDFX=  1.000000  1.000000  1.000000  1.000000 ScalE2=  1.000000  1.000000
 IRadAn= 199590 IRanWt=     -1 IRanGd=            0 ICorTp=0 IEmpDi=  4
 NAtoms=   33 NActive=   33 NUniq=   33 SFac= 1.00D+00 NAtFMM=   60 NAOKFM=F Big=F
 Integral buffers will be    131072 words long.
 Raffenetti 2 integral format.
 Two-electron integral symmetry is turned on.
 Leave Link  301 at Tue Jun 24 16:35:34 2014, MaxMem=  4294967296 cpu:         4.8
 (Enter /home/ztw1e12/g09/l302.exe)
 NPDir=0 NMtPBC=     1 NCelOv=     1 NCel=       1 NClECP=     1 NCelD=      1
         NCelK=      1 NCelE2=     1 NClLst=     1 CellRange=     0.0.
 One-electron integrals computed using PRISM.
 GSVD:  received Info=                   1 from GESDD.
 NBasis=  1204 RedAO= T EigKep=  2.45D-05  NBF=  1204
 NBsUse=  1068 1.00D-06 EigRej=  5.25D-15 NBFU=  1068
 Precomputing XC quadrature grid using
 IXCGrd= 4 IRadAn=      199590 IRanWt=          -1 IRanGd=           0 AccXCQ= 0.00D+00.
 Generated NRdTot=       0 NPtTot=           0 NUsed=           0 NTot=          32
 NSgBfM=  1027  1027  1027  1027  1027 MxSgAt=    33 MxSgA2=    33.
 Leave Link  302 at Tue Jun 24 16:35:40 2014, MaxMem=  4294967296 cpu:        93.9
 (Enter /home/ztw1e12/g09/l308.exe)
 Leave Link  308 at Tue Jun 24 16:35:41 2014, MaxMem=  4294967296 cpu:         8.0
 (Enter /home/ztw1e12/g09/l303.exe)
 DipDrv:  MaxL=1.
 Leave Link  303 at Tue Jun 24 16:35:42 2014, MaxMem=  4294967296 cpu:         4.3
 (Enter /home/ztw1e12/g09/l401.exe)
 ExpMin= 1.03D-01 ExpMax= 1.38D+05 ExpMxC= 1.38D+05 IAcc=4 IRadAn=    199590 AccDes= 0.00D+00
 Harris functional with IExCor= 1009 and IRadAn=  199590 diagonalized for initial guess.
 HarFok:  IExCor= 1009 AccDes= 0.00D+00 IRadAn=    199590 IDoV= 1 UseB2=F ITyADJ=14
 ICtDFT=  3500011 ScaDFX=  1.000000  1.000000  1.000000  1.000000
 FoFCou: FMM=F IPFlag=           0 FMFlag=      100000 FMFlg1=           0
         NFxFlg=           0 DoJE=T BraDBF=F KetDBF=T FulRan=T
         wScrn=  0.000000 ICntrl=     500 IOpCl=  0 I1Cent=   200000004 NGrid=           0
         NMat0=    1 NMatS0=      1 NMatT0=    0 NMatD0=    1 NMtDS0=    0 NMtDT0=    0
 Petite list used in FoFCou.
 Harris En= -801.783984807661    
 JPrj=0 DoOrth=F DoCkMO=F.
 Leave Link  401 at Tue Jun 24 16:36:03 2014, MaxMem=  4294967296 cpu:       317.0
 (Enter /home/ztw1e12/g09/l502.exe)
 Closed shell SCF:
 Using DIIS extrapolation, IDIIS=  1040.
 Integral symmetry usage will be decided dynamically.
 IVT=     5158273 IEndB=     5158273 NGot=  4294967296 MDV=  4291529994
 LenX=  4291529994 LenY=  4289825664
 Requested convergence on RMS density matrix=1.00D-08 within 128 cycles.
 Requested convergence on MAX density matrix=1.00D-06.
 Requested convergence on             energy=1.00D-06.
 No special actions if energy rises.
 Fock matrices will be formed incrementally for  20 cycles.
 Integral accuracy reduced to 1.0D-05 until final iterations.

 Cycle   1  Pass 0  IDiag  1:
 FoFJK:  IHMeth= 1 ICntrl=       0 DoSepK=F KAlg= 0 I1Cent=   0 FoldK=F
 IRaf= 440000000 NMat=   1 IRICut=       1 DoRegI=T DoRafI=F ISym2E= 0.
 FoFCou: FMM=F IPFlag=           0 FMFlag=      100000 FMFlg1=           0
         NFxFlg=           0 DoJE=F BraDBF=F KetDBF=F FulRan=T
         wScrn=  0.000000 ICntrl=       0 IOpCl=  0 I1Cent=           0 NGrid=           0
         NMat0=    1 NMatS0=      1 NMatT0=    0 NMatD0=    1 NMtDS0=    0 NMtDT0=    0
 Symmetry not used in FoFCou.
 E= -801.473810359665    
 DIIS: error= 1.15D-01 at cycle   1 NSaved=   1.
 NSaved= 1 IEnMin= 1 EnMin= -801.473810359665     IErMin= 1 ErrMin= 1.15D-01
 ErrMax= 1.15D-01  0.00D+00 EMaxC= 1.00D-01 BMatC= 1.69D+01 BMatP= 1.69D+01
 IDIUse=3 WtCom= 0.00D+00 WtEn= 1.00D+00
 Coeff-Com:  0.100D+01
 Coeff-En:   0.100D+01
 Coeff:      0.100D+01
 Gap=     0.240 Goal=   None    Shift=    0.000
 GapD=    0.240 DampG=1.000 DampE=0.250 DampFc=0.2500 IDamp=-1.
 Damping current iteration by 2.50D-01
 RMSDP=2.23D-03 MaxDP=3.47D-01              OVMax= 2.95D-01

 Cycle   2  Pass 0  IDiag  1:
 RMSU=  5.54D-04    CP:  1.03D+00
 E= -801.630488020076     Delta-E=       -0.156677660411 Rises=F Damp=T
 DIIS: error= 8.73D-02 at cycle   2 NSaved=   2.
 NSaved= 2 IEnMin= 2 EnMin= -801.630488020076     IErMin= 2 ErrMin= 8.73D-02
 ErrMax= 8.73D-02  0.00D+00 EMaxC= 1.00D-01 BMatC= 1.00D+01 BMatP= 1.69D+01
 IDIUse=3 WtCom= 1.27D-01 WtEn= 8.73D-01
 Coeff-Com: -0.293D+01 0.393D+01
 Coeff-En:   0.000D+00 0.100D+01
 Coeff:     -0.371D+00 0.137D+01
 Gap=     0.268 Goal=   None    Shift=    0.000
 RMSDP=6.14D-04 MaxDP=1.18D-01 DE=-1.57D-01 OVMax= 1.78D-01

 Cycle   3  Pass 0  IDiag  1:
 RMSU=  5.12D-04    CP:  1.06D+00  1.59D+00
 E= -801.884217547726     Delta-E=       -0.253729527650 Rises=F Damp=F
 DIIS: error= 1.14D-02 at cycle   3 NSaved=   3.
 NSaved= 3 IEnMin= 3 EnMin= -801.884217547726     IErMin= 3 ErrMin= 1.14D-02
 ErrMax= 1.14D-02  0.00D+00 EMaxC= 1.00D-01 BMatC= 1.58D-01 BMatP= 1.00D+01
 IDIUse=3 WtCom= 8.86D-01 WtEn= 1.14D-01
 Coeff-Com:  0.969D-01-0.184D+00 0.109D+01
 Coeff-En:   0.000D+00 0.000D+00 0.100D+01
 Coeff:      0.859D-01-0.163D+00 0.108D+01
 Gap=     0.226 Goal=   None    Shift=    0.000
 RMSDP=4.18D-04 MaxDP=4.60D-02 DE=-2.54D-01 OVMax= 1.08D-01

 Cycle   4  Pass 0  IDiag  1:
 RMSU=  3.80D-04    CP:  1.06D+00  1.46D+00  6.94D-01
 E= -801.811565174909     Delta-E=        0.072652372816 Rises=F Damp=F
 DIIS: error= 1.01D-02 at cycle   4 NSaved=   4.
 NSaved= 4 IEnMin= 3 EnMin= -801.884217547726     IErMin= 4 ErrMin= 1.01D-02
 ErrMax= 1.01D-02  0.00D+00 EMaxC= 1.00D-01 BMatC= 1.42D-01 BMatP= 1.58D-01
 IDIUse=3 WtCom= 8.99D-01 WtEn= 1.01D-01
 Coeff-Com:  0.270D+00-0.391D+00 0.606D+00 0.515D+00
 Coeff-En:   0.000D+00 0.000D+00 0.726D+00 0.274D+00
 Coeff:      0.243D+00-0.351D+00 0.618D+00 0.490D+00
 Gap=     0.249 Goal=   None    Shift=    0.000
 RMSDP=3.16D-04 MaxDP=3.60D-02 DE= 7.27D-02 OVMax= 8.41D-02

 Cycle   5  Pass 0  IDiag  1:
 RMSU=  7.93D-05    CP:  1.06D+00  1.41D+00  8.67D-01  2.33D-01
 E= -801.916707102303     Delta-E=       -0.105141927393 Rises=F Damp=F
 DIIS: error= 1.83D-03 at cycle   5 NSaved=   5.
 NSaved= 5 IEnMin= 5 EnMin= -801.916707102303     IErMin= 5 ErrMin= 1.83D-03
 ErrMax= 1.83D-03  0.00D+00 EMaxC= 1.00D-01 BMatC= 8.02D-03 BMatP= 1.42D-01
 IDIUse=3 WtCom= 9.82D-01 WtEn= 1.83D-02
 Coeff-Com:  0.375D-01-0.531D-01 0.261D-01 0.190D+00 0.799D+00
 Coeff-En:   0.000D+00 0.000D+00 0.000D+00 0.000D+00 0.100D+01
 Coeff:      0.368D-01-0.521D-01 0.256D-01 0.187D+00 0.803D+00
 Gap=     0.223 Goal=   None    Shift=    0.000
 RMSDP=9.24D-05 MaxDP=1.34D-02 DE=-1.05D-01 OVMax= 2.55D-02

 Cycle   6  Pass 0  IDiag  1:
 RMSU=  3.57D-05    CP:  1.06D+00  1.46D+00  8.99D-01  3.97D-01  3.70D-01
 E= -801.920554147339     Delta-E=       -0.003847045037 Rises=F Damp=F
 DIIS: error= 1.43D-03 at cycle   6 NSaved=   6.
 NSaved= 6 IEnMin= 6 EnMin= -801.920554147339     IErMin= 6 ErrMin= 1.43D-03
 ErrMax= 1.43D-03  0.00D+00 EMaxC= 1.00D-01 BMatC= 1.88D-03 BMatP= 8.02D-03
 IDIUse=3 WtCom= 9.86D-01 WtEn= 1.43D-02
 Coeff-Com:  0.156D-01-0.212D-01-0.898D-02 0.838D-01 0.448D+00 0.483D+00
 Coeff-En:   0.000D+00 0.000D+00 0.000D+00 0.000D+00 0.224D+00 0.776D+00
 Coeff:      0.154D-01-0.209D-01-0.885D-02 0.826D-01 0.445D+00 0.487D+00
 Gap=     0.223 Goal=   None    Shift=    0.000
 RMSDP=3.94D-05 MaxDP=5.00D-03 DE=-3.85D-03 OVMax= 1.83D-02

 Cycle   7  Pass 0  IDiag  1:
 RMSU=  1.51D-05    CP:  1.06D+00  1.43D+00  8.83D-01  3.98D-01  6.04D-01
                    CP:  2.50D-01
 E= -801.922157855210     Delta-E=       -0.001603707871 Rises=F Damp=F
 DIIS: error= 5.38D-04 at cycle   7 NSaved=   7.
 NSaved= 7 IEnMin= 7 EnMin= -801.922157855210     IErMin= 7 ErrMin= 5.38D-04
 ErrMax= 5.38D-04  0.00D+00 EMaxC= 1.00D-01 BMatC= 1.79D-04 BMatP= 1.88D-03
 IDIUse=3 WtCom= 9.95D-01 WtEn= 5.38D-03
 Coeff-Com:  0.870D-02-0.115D-01-0.419D-02 0.204D-01 0.117D+00 0.259D+00
 Coeff-Com:  0.611D+00
 Coeff-En:   0.000D+00 0.000D+00 0.000D+00 0.000D+00 0.000D+00 0.729D-01
 Coeff-En:   0.927D+00
 Coeff:      0.865D-02-0.114D-01-0.416D-02 0.202D-01 0.116D+00 0.258D+00
 Coeff:      0.612D+00
 Gap=     0.223 Goal=   None    Shift=    0.000
 RMSDP=1.26D-05 MaxDP=1.92D-03 DE=-1.60D-03 OVMax= 6.06D-03

 Cycle   8  Pass 0  IDiag  1:
 RMSU=  7.25D-06    CP:  1.06D+00  1.43D+00  8.90D-01  4.04D-01  5.75D-01
                    CP:  4.76D-01  7.27D-01
 E= -801.922317776933     Delta-E=       -0.000159921723 Rises=F Damp=F
 DIIS: error= 1.20D-04 at cycle   8 NSaved=   8.
 NSaved= 8 IEnMin= 8 EnMin= -801.922317776933     IErMin= 8 ErrMin= 1.20D-04
 ErrMax= 1.20D-04  0.00D+00 EMaxC= 1.00D-01 BMatC= 1.93D-05 BMatP= 1.79D-04
 IDIUse=3 WtCom= 9.99D-01 WtEn= 1.20D-03
 Coeff-Com:  0.471D-02-0.623D-02-0.125D-02 0.700D-02 0.395D-01 0.118D+00
 Coeff-Com:  0.354D+00 0.485D+00
 Coeff-En:   0.000D+00 0.000D+00 0.000D+00 0.000D+00 0.000D+00 0.000D+00
 Coeff-En:   0.336D-01 0.966D+00
 Coeff:      0.470D-02-0.622D-02-0.125D-02 0.700D-02 0.394D-01 0.118D+00
 Coeff:      0.353D+00 0.485D+00
 Gap=     0.223 Goal=   None    Shift=    0.000
 RMSDP=3.78D-06 MaxDP=4.54D-04 DE=-1.60D-04 OVMax= 1.23D-03

 Initial convergence to 1.0D-05 achieved.  Increase integral accuracy.
 Cycle   9  Pass 1  IDiag  1:
 E= -801.922327287955     Delta-E=       -0.000009511022 Rises=F Damp=F
 DIIS: error= 1.60D-04 at cycle   1 NSaved=   1.
 NSaved= 1 IEnMin= 1 EnMin= -801.922327287955     IErMin= 1 ErrMin= 1.60D-04
 ErrMax= 1.60D-04  0.00D+00 EMaxC= 1.00D-01 BMatC= 2.04D-05 BMatP= 2.04D-05
 IDIUse=3 WtCom= 9.98D-01 WtEn= 1.60D-03
 Coeff-Com:  0.100D+01
 Coeff-En:   0.100D+01
 Coeff:      0.100D+01
 Gap=     0.223 Goal=   None    Shift=    0.000
 RMSDP=3.78D-06 MaxDP=4.54D-04 DE=-9.51D-06 OVMax= 6.47D-04

 Cycle  10  Pass 1  IDiag  1:
 RMSU=  1.45D-04    CP:  9.95D-01
 E= -801.922338741034     Delta-E=       -0.000011453079 Rises=F Damp=F
 DIIS: error= 3.41D-05 at cycle   2 NSaved=   2.
 NSaved= 2 IEnMin= 2 EnMin= -801.922338741034     IErMin= 2 ErrMin= 3.41D-05
 ErrMax= 3.41D-05  0.00D+00 EMaxC= 1.00D-01 BMatC= 1.44D-06 BMatP= 2.04D-05
 IDIUse=1 WtCom= 1.00D+00 WtEn= 0.00D+00
 Coeff-Com:  0.951D-01 0.905D+00
 Coeff:      0.951D-01 0.905D+00
 Gap=     0.223 Goal=   None    Shift=    0.000
 RMSDP=2.87D-06 MaxDP=2.52D-04 DE=-1.15D-05 OVMax= 6.37D-04

 Cycle  11  Pass 1  IDiag  1:
 RMSU=  2.07D-06    CP:  9.95D-01  1.01D+00
 E= -801.922337477142     Delta-E=        0.000001263892 Rises=F Damp=F
 DIIS: error= 4.48D-05 at cycle   3 NSaved=   3.
 NSaved= 3 IEnMin= 2 EnMin= -801.922338741034     IErMin= 2 ErrMin= 3.41D-05
 ErrMax= 4.48D-05  0.00D+00 EMaxC= 1.00D-01 BMatC= 2.84D-06 BMatP= 1.44D-06
 IDIUse=1 WtCom= 1.00D+00 WtEn= 0.00D+00
 Coeff-Com: -0.152D-02 0.585D+00 0.416D+00
 Coeff:     -0.152D-02 0.585D+00 0.416D+00
 Gap=     0.223 Goal=   None    Shift=    0.000
 RMSDP=1.31D-06 MaxDP=1.95D-04 DE= 1.26D-06 OVMax= 4.53D-04

 Cycle  12  Pass 1  IDiag  1:
 RMSU=  4.87D-07    CP:  9.95D-01  1.01D+00  4.28D-01
 E= -801.922339873828     Delta-E=       -0.000002396686 Rises=F Damp=F
 DIIS: error= 4.95D-06 at cycle   4 NSaved=   4.
 NSaved= 4 IEnMin= 4 EnMin= -801.922339873828     IErMin= 4 ErrMin= 4.95D-06
 ErrMax= 4.95D-06  0.00D+00 EMaxC= 1.00D-01 BMatC= 3.31D-08 BMatP= 1.44D-06
 IDIUse=1 WtCom= 1.00D+00 WtEn= 0.00D+00
 Coeff-Com: -0.241D-02 0.314D+00 0.234D+00 0.455D+00
 Coeff:     -0.241D-02 0.314D+00 0.234D+00 0.455D+00
 Gap=     0.223 Goal=   None    Shift=    0.000
 RMSDP=1.67D-07 MaxDP=1.92D-05 DE=-2.40D-06 OVMax= 6.28D-05

 Cycle  13  Pass 1  IDiag  1:
 RMSU=  1.46D-07    CP:  9.95D-01  1.02D+00  4.55D-01  8.92D-01
 E= -801.922339900279     Delta-E=       -0.000000026451 Rises=F Damp=F
 DIIS: error= 1.02D-06 at cycle   5 NSaved=   5.
 NSaved= 5 IEnMin= 5 EnMin= -801.922339900279     IErMin= 5 ErrMin= 1.02D-06
 ErrMax= 1.02D-06  0.00D+00 EMaxC= 1.00D-01 BMatC= 2.09D-09 BMatP= 3.31D-08
 IDIUse=1 WtCom= 1.00D+00 WtEn= 0.00D+00
 Coeff-Com: -0.106D-02 0.101D+00 0.776D-01 0.242D+00 0.581D+00
 Coeff:     -0.106D-02 0.101D+00 0.776D-01 0.242D+00 0.581D+00
 Gap=     0.223 Goal=   None    Shift=    0.000
 RMSDP=3.57D-08 MaxDP=3.67D-06 DE=-2.65D-08 OVMax= 9.48D-06

 Cycle  14  Pass 1  IDiag  1:
 RMSU=  2.52D-08    CP:  9.95D-01  1.02D+00  4.53D-01  9.27D-01  8.86D-01
 E= -801.922339901811     Delta-E=       -0.000000001532 Rises=F Damp=F
 DIIS: error= 2.18D-07 at cycle   6 NSaved=   6.
 NSaved= 6 IEnMin= 6 EnMin= -801.922339901811     IErMin= 6 ErrMin= 2.18D-07
 ErrMax= 2.18D-07  0.00D+00 EMaxC= 1.00D-01 BMatC= 7.06D-11 BMatP= 2.09D-09
 IDIUse=1 WtCom= 1.00D+00 WtEn= 0.00D+00
 Coeff-Com: -0.254D-03 0.185D-01 0.146D-01 0.615D-01 0.213D+00 0.693D+00
 Coeff:     -0.254D-03 0.185D-01 0.146D-01 0.615D-01 0.213D+00 0.693D+00
 Gap=     0.223 Goal=   None    Shift=    0.000
 RMSDP=1.53D-08 MaxDP=2.38D-06 DE=-1.53D-09 OVMax= 2.69D-06

 Cycle  15  Pass 1  IDiag  1:
 RMSU=  1.09D-08    CP:  9.95D-01  1.02D+00  4.53D-01  9.43D-01  9.14D-01
                    CP:  8.42D-01
 E= -801.922339901890     Delta-E=       -0.000000000079 Rises=F Damp=F
 DIIS: error= 1.56D-07 at cycle   7 NSaved=   7.
 NSaved= 7 IEnMin= 7 EnMin= -801.922339901890     IErMin= 7 ErrMin= 1.56D-07
 ErrMax= 1.56D-07  0.00D+00 EMaxC= 1.00D-01 BMatC= 4.20D-11 BMatP= 7.06D-11
 IDIUse=1 WtCom= 1.00D+00 WtEn= 0.00D+00
 Coeff-Com:  0.533D-05-0.420D-02-0.298D-02 0.117D-02 0.456D-01 0.460D+00
 Coeff-Com:  0.500D+00
 Coeff:      0.533D-05-0.420D-02-0.298D-02 0.117D-02 0.456D-01 0.460D+00
 Coeff:      0.500D+00
 Gap=     0.223 Goal=   None    Shift=    0.000
 RMSDP=5.83D-09 MaxDP=5.18D-07 DE=-7.87D-11 OVMax= 1.60D-06

 SCF Done:  E(RM06) =  -801.922339902     A.U. after   15 cycles
            NFock= 15  Conv=0.58D-08     -V/T= 2.0044
 KE= 7.983778602677D+02 PE=-4.332507759973D+03 EE= 1.502038177370D+03
 Leave Link  502 at Tue Jun 24 17:13:16 2014, MaxMem=  4294967296 cpu:     35632.7
 (Enter /home/ztw1e12/g09/l801.exe)
 DoSCS=F DFT=T ScalE2(SS,OS)=  1.000000  1.000000
 Range of M.O.s used for correlation:     1  1068
 NBasis=  1204 NAE=    63 NBE=    63 NFC=     0 NFV=     0
 NROrb=   1068 NOA=    63 NOB=    63 NVA=  1005 NVB=  1005

 **** Warning!!: The largest alpha MO coefficient is  0.24934225D+02

 Leave Link  801 at Tue Jun 24 17:13:16 2014, MaxMem=  4294967296 cpu:         0.4
 (Enter /home/ztw1e12/g09/l1002.exe)
 Minotr:  Closed shell wavefunction.
          IDoAtm=111111111111111111111111111111111
          Direct CPHF calculation.
          Differentiating once with respect to Fermi-contact.
          Electric field/nuclear overlap derivatives assumed to be zero.
          Requested convergence is 1.0D-10 RMS, and 1.0D-09 maximum.
          Secondary convergence is 1.0D-12 RMS, and 1.0D-12 maximum.
          NewPWx=T KeepS1=F KeepF1=F KeepIn=T MapXYZ=F SortEE=F KeepMc=T.
          MDV=    4294965894 using IRadAn=  199590.
 Using stored XC quadrature information.
          Solving linear equations simultaneously, MaxMat=       0.
          There are    33 degrees of freedom in the 1st order CPHF.  IDoFFX=0 NUNeed=    33.
     33 vectors produced by pass  0 Test12= 1.92D-17 3.03D-11 XBig12= 4.29D+01 2.58D+00.
 AX will form    33 AO Fock derivatives at one time.
 FoFJK:  IHMeth= 1 ICntrl=       0 DoSepK=F KAlg= 0 I1Cent=   0 FoldK=F
 IRaf= 460000000 NMat=  33 IRICut=       1 DoRegI=T DoRafI=F ISym2E=-1.
 FoFCou: FMM=F IPFlag=           0 FMFlag=      100000 FMFlg1=           0
         NFxFlg=           0 DoJE=F BraDBF=F KetDBF=F FulRan=T
         wScrn=  0.000000 ICntrl=       0 IOpCl=  0 I1Cent=           0 NGrid=           0
         NMat0=   33 NMatS0=      0 NMatT0=   33 NMatD0=   33 NMtDS0=    0 NMtDT0=    0
 Petite list used in FoFCou.
     33 vectors produced by pass  1 Test12= 1.92D-17 3.03D-11 XBig12= 3.46D-01 1.89D-01.
     33 vectors produced by pass  2 Test12= 1.92D-17 3.03D-11 XBig12= 1.57D-02 4.48D-02.
     33 vectors produced by pass  3 Test12= 1.92D-17 3.03D-11 XBig12= 3.58D-04 5.95D-03.
     33 vectors produced by pass  4 Test12= 1.92D-17 3.03D-11 XBig12= 7.49D-06 1.16D-03.
     33 vectors produced by pass  5 Test12= 1.92D-17 3.03D-11 XBig12= 1.61D-07 1.76D-04.
     33 vectors produced by pass  6 Test12= 1.92D-17 3.03D-11 XBig12= 5.19D-09 1.95D-05.
     33 vectors produced by pass  7 Test12= 1.92D-17 3.03D-11 XBig12= 1.32D-10 3.99D-06.
     33 vectors produced by pass  8 Test12= 1.92D-17 3.03D-11 XBig12= 4.93D-12 3.32D-07.
     33 vectors produced by pass  9 Test12= 1.92D-17 3.03D-11 XBig12= 7.20D-14 9.03D-08.
     33 vectors produced by pass 10 Test12= 1.92D-17 3.03D-11 XBig12= 3.09D-15 8.91D-09.
     32 vectors produced by pass 11 Test12= 1.92D-17 3.03D-11 XBig12= 3.70D-17 7.85D-10.
      9 vectors produced by pass 12 Test12= 1.92D-17 3.03D-11 XBig12= 3.53D-19 7.21D-11.
 InvSVY:  IOpt=1 It=  1 EMax= 1.24D-14
 Solved reduced A of dimension   404 with    33 vectors.
 Max diff in FC couplings:  IJMax=    22    16 Diff= 5.21D-04 IJMaxR=    23    17 DiffR= 7.92D-01
 Fermi Contact (FC) contribution to K (Hz):
                1             2             3             4             5 
      1  0.123400D+11
      2  0.342778D+02  0.123400D+11
      3 -0.117028D+01  0.332821D+02  0.123400D+11
      4  0.299803D+01  0.326400D+00  0.324633D+02  0.123400D+11
      5  0.163817D+01  0.301992D+01 -0.135250D+01  0.341774D+02  0.123400D+11
      6  0.359751D+02 -0.209287D+00  0.423638D+01  0.105566D+00  0.384138D+02
      7  0.217164D+02 -0.285196D+00  0.925371D+00 -0.193155D+00  0.605840D+00
      8 -0.162908D+00  0.219566D+02 -0.181743D+00  0.983942D+00 -0.280840D+00
      9 -0.295892D+00  0.106436D+01 -0.134341D+00  0.228775D+02 -0.195377D+00
     10  0.669712D+00 -0.219562D+00  0.103030D+01 -0.231900D+00  0.231352D+02
     11  0.189635D+01  0.137236D+01  0.231210D+02  0.149996D+01  0.182190D+01
     12 -0.272539D-02  0.844445D+00 -0.864425D+00  0.878406D+00  0.900786D-01
     13  0.863323D-02  0.787259D+00 -0.100476D+01  0.633149D+00 -0.917204D-01
     14 -0.414252D+00  0.683895D+00 -0.147321D+01  0.732844D+00 -0.490669D+00
     15  0.243404D-01 -0.118543D-01  0.103208D+01 -0.307494D-01  0.154802D-01
     16  0.258395D-01 -0.151711D-01  0.372828D+00  0.967231D-01  0.399508D-01
     17 -0.769098D+00 -0.126541D+00  0.250391D+00  0.295038D+01  0.115714D+02
     18  0.423650D+00 -0.962710D-02 -0.450190D-01  0.203055D+00  0.114485D+01
     19  0.891046D-02  0.779487D-01 -0.714988D-02  0.459956D+00  0.690361D-01
     20 -0.410095D-02  0.305319D+00  0.138559D+01 -0.116090D+00  0.110205D+00
     21  0.120050D-02 -0.576104D-01 -0.726527D-01  0.825180D-02 -0.835038D-02
     22  0.185239D-01 -0.168479D-01  0.111012D-01  0.196680D+00  0.318959D-01
     23 -0.951304D-03  0.932333D-03 -0.113472D-02 -0.487917D-02 -0.275616D-02
     24  0.641287D-02  0.310545D-01 -0.229570D-01 -0.853090D-02  0.567316D-02
     25  0.381797D-02 -0.620469D-02  0.310312D-01 -0.400179D-02  0.264515D-02
     26 -0.371764D-03 -0.915488D-04 -0.138613D-02  0.624476D-03 -0.581415D-03
     27  0.805527D-04 -0.363730D-03 -0.518304D-03  0.210240D-03  0.640762D-04
     28  0.519856D-03  0.111188D-02 -0.115503D-02 -0.286408D-03  0.486488D-03
     29 -0.153543D-02  0.584212D-02 -0.102681D-01 -0.311048D-01 -0.263213D-02
     30  0.162953D-02 -0.385503D-03  0.279933D-02  0.986218D-02  0.336837D-02
     31  0.144551D-03  0.621440D-03 -0.527151D-03  0.138383D-02  0.140635D-03
     32  0.118840D-02 -0.711057D-03  0.209842D-02  0.516963D-02  0.276069D-02
     33 -0.152893D-01  0.234437D-01  0.122935D+00  0.148090D-01 -0.970958D-02
                6             7             8             9            10 
      6  0.123400D+11
      7 -0.549868D+00  0.123400D+11
      8  0.116974D+01  0.327371D+00  0.123400D+11
      9  0.124391D+01  0.395604D-01  0.392136D-01  0.123400D+11
     10 -0.676098D+00  0.647058D-01  0.402633D-01  0.360779D+00  0.123400D+11
     11 -0.439289D+00  0.111093D-01  0.637506D+00  0.599084D+00  0.276009D-01
     12  0.340799D-01  0.400574D-02 -0.315184D-01 -0.814096D-02  0.109441D-01
     13  0.100709D+00  0.119252D-01 -0.282134D-01 -0.396139D-01  0.110315D-01
     14  0.481221D+00  0.307390D-01 -0.116813D+00 -0.757668D-01  0.467723D-01
     15 -0.371057D-02 -0.116899D-03  0.612675D-02  0.581616D-02  0.442269D-03
     16 -0.106629D-01 -0.421831D-02  0.578840D-02  0.259245D-01 -0.214464D-02
     17 -0.120079D+02  0.556191D+00  0.684166D-01  0.265708D+00  0.708744D+00
     18 -0.661138D+00 -0.127049D-01  0.179072D-02  0.141849D-01  0.678863D-03
     19  0.507641D-01  0.276860D-03 -0.674646D-03  0.791206D-01  0.523854D-02
     20 -0.182445D-01 -0.262333D-02  0.692486D-01  0.969649D-03 -0.271447D-01
     21 -0.162890D-03  0.529056D-03 -0.156972D-01  0.886314D-03  0.239994D-02
     22 -0.609162D-02 -0.516437D-02 -0.578993D-03  0.668334D-01 -0.343016D-02
     23  0.410923D-03  0.182128D-03 -0.167595D-03 -0.267441D-02  0.266690D-03
     24 -0.491734D-02 -0.114550D-02  0.395640D-02  0.138659D-02 -0.151087D-02
     25 -0.220000D-02 -0.291855D-03  0.817176D-03  0.583807D-03 -0.290091D-03
     26  0.517659D-03  0.187122D-04 -0.214424D-03 -0.124952D-03  0.654152D-04
     27 -0.301262D-04 -0.230938D-05  0.771627D-04  0.669065D-04  0.210201D-05
     28 -0.317148D-03 -0.145842D-03  0.129448D-02  0.387921D-04 -0.112607D-03
     29  0.834937D-03  0.195032D-03 -0.273774D-03  0.626024D-03  0.239220D-03
     30 -0.465195D-03 -0.332775D-03  0.257419D-03  0.818818D-02 -0.256082D-03
     31  0.640648D-04 -0.276679D-04  0.246286D-05  0.761060D-03  0.672802D-05
     32 -0.726489D-03 -0.223004D-03  0.199751D-03  0.319998D-02 -0.302837D-03
     33  0.165749D-01  0.178991D-02 -0.390447D-02 -0.296213D-02  0.899919D-03
               11            12            13            14            15 
     11  0.123400D+11
     12  0.175552D+02  0.123400D+11
     13  0.189794D+02 -0.863041D+00  0.123400D+11
     14  0.167441D+02 -0.854179D+00 -0.619879D+00  0.123400D+11
     15 -0.867225D+00  0.237585D+00  0.796597D-01  0.207814D+02  0.123400D+11
     16 -0.348015D+00  0.957856D+00  0.311565D+00  0.274076D+02 -0.126284D+01
     17  0.482373D-01  0.110487D-01  0.365845D-01  0.193452D+00 -0.513714D-03
     18  0.111271D-01 -0.112141D-02 -0.394578D-02 -0.199882D-01  0.187426D-03
     19  0.118311D+01  0.384695D-01  0.752730D-01  0.459338D+01  0.347231D+00
     20  0.755825D+00  0.230072D+00  0.151746D+01  0.154287D+02 -0.556192D+00
     21  0.419298D+00 -0.126962D-01 -0.154490D-01  0.198948D+00  0.261162D+00
     22  0.754488D-02  0.164867D+00 -0.258588D-01  0.937317D+01  0.653227D-01
     23 -0.848294D-02  0.549752D-02  0.169963D-02  0.660439D-01 -0.814920D-02
     24  0.120345D+01 -0.273859D-01  0.702693D-01 -0.148307D+00  0.429405D+00
     25 -0.313602D-01  0.256563D-02  0.516307D-01  0.712365D+00 -0.722818D-01
     26  0.221923D-01 -0.114507D-02  0.347659D-02  0.236232D-01  0.102756D-01
     27 -0.520192D-02 -0.494703D-03 -0.215714D-02  0.267211D-01  0.164851D-01
     28 -0.290684D-02  0.267072D-03  0.125932D-03  0.985674D-01 -0.268428D-02
     29 -0.100561D-01  0.441846D-01  0.118331D-01  0.654968D+00 -0.683960D-02
     30  0.325706D-01 -0.179671D-02 -0.164695D-02 -0.881993D-01  0.329672D-01
     31  0.478332D-02  0.244396D-03  0.605333D-03 -0.214870D-01  0.421285D-02
     32  0.516854D-01 -0.140643D-02 -0.130492D-02 -0.839447D-01  0.162436D-01
     33  0.138423D+00 -0.156509D-02  0.291226D-02  0.864806D+00  0.155898D+00
               16            17            18            19            20 
     16  0.123400D+11
     17 -0.639883D-02  0.123400D+11
     18  0.889565D-03  0.198929D+02  0.123400D+11
     19 -0.994134D+01  0.189131D-01  0.952443D-03  0.123400D+11
     20  0.294521D+00  0.613659D-02 -0.163096D-02  0.711739D+00  0.123400D+11
     21 -0.150650D-01 -0.667041D-03  0.186213D-03  0.448017D-01  0.309969D+02
     22  0.306749D+02  0.256621D-02  0.515240D-04  0.637190D+01  0.187156D-01
     23  0.394017D+00 -0.641866D-05 -0.134476D-04  0.467242D+00 -0.107483D+00
     24  0.293875D-01 -0.861515D-03  0.328287D-04 -0.541368D-02  0.249989D+02
     25 -0.137364D+00 -0.693645D-03  0.738747D-04  0.410209D-01  0.126885D+02
     26  0.589444D-01  0.204417D-03 -0.216428D-04 -0.146596D-02  0.386335D+00
     27  0.103775D+00 -0.278519D-04  0.307349D-05  0.982383D-02  0.358149D+00
     28 -0.642268D-03 -0.246135D-04  0.107200D-05  0.137245D-02  0.339500D+00
     29 -0.198434D+00  0.736106D-04 -0.296593D-04  0.704273D+00  0.168064D+00
     30  0.167232D+00  0.391848D-04  0.375530D-04  0.256750D+00  0.103467D-01
     31  0.936747D+00  0.185047D-04  0.391735D-05  0.196226D+00  0.674280D-02
     32  0.211863D+00 -0.507769D-04  0.130190D-04  0.252498D+00  0.535040D-02
     33  0.423184D+00  0.671281D-02 -0.709596D-03  0.395558D-01  0.563179D+01
               21            22            23            24            25 
     21  0.123400D+11
     22 -0.325041D-02  0.123400D+11
     23  0.426679D-02  0.319927D+02  0.123400D+11
     24  0.458317D+00  0.235584D-01  0.314644D-03  0.123400D+11
     25  0.992515D-01 -0.309001D-01  0.489219D-02  0.269987D+02  0.123400D+11
     26 -0.111668D-01  0.381904D-02  0.583121D-03 -0.119577D+01  0.180900D+02
     27 -0.124531D-01  0.397993D-03  0.692058D-03 -0.118182D+01  0.177808D+02
     28 -0.973326D-02 -0.175311D-02  0.174341D-03 -0.750016D+00  0.171248D+02
     29 -0.430138D-02  0.171140D+02  0.358954D+00 -0.369820D-02  0.962646D-03
     30 -0.437819D-03 -0.649303D+00  0.901770D-01  0.212132D-02  0.636628D-03
     31 -0.498190D-04 -0.349109D+00  0.290699D+00  0.863552D-03 -0.248597D-03
     32  0.856814D-03 -0.653030D+00  0.132566D+00 -0.832515D-03 -0.153175D-03
     33  0.389536D+00  0.220385D+00  0.121889D-01 -0.960021D+01  0.366754D+01
               26            27            28            29            30 
     26  0.123400D+11
     27 -0.928782D+00  0.123400D+11
     28 -0.735893D+00 -0.731266D+00  0.123400D+11
     29  0.146841D-03  0.255905D-03 -0.934567D-04  0.123400D+11
     30  0.802447D-04 -0.463517D-04 -0.146556D-05  0.196920D+02  0.123400D+11
     31  0.227075D-03  0.675909D-04  0.223877D-04  0.183924D+02 -0.734052D+00
     32 -0.475553D-04 -0.173911D-03  0.586534D-04  0.201937D+02 -0.743341D+00
     33  0.443810D+00  0.433733D+00  0.818295D+00 -0.726677D-02  0.865730D-02
               31            32            33 
     31  0.123400D+11
     32 -0.748478D+00  0.123400D+11
     33  0.455545D-03  0.601436D-02  0.123400D+11
 Fermi Contact (FC) contribution to J (Hz):
                1             2             3             4             5 
      1  0.243533D+11
      2  0.676481D+02  0.243533D+11
      3 -0.230958D+01  0.656830D+02  0.243533D+11
      4  0.591669D+01  0.644158D+00  0.640672D+02  0.243533D+11
      5  0.323296D+01  0.595989D+01 -0.266919D+01  0.674499D+02  0.243533D+11
      6  0.709977D+02 -0.413032D+00  0.836061D+01  0.208338D+00  0.758106D+02
      7  0.170406D+03 -0.223790D+01  0.726129D+01 -0.151567D+01  0.475396D+01
      8 -0.127833D+01  0.172291D+03 -0.142612D+01  0.772089D+01 -0.220373D+01
      9 -0.232184D+01  0.835197D+01 -0.105416D+01  0.179517D+03 -0.153310D+01
     10  0.525516D+01 -0.172288D+01  0.808470D+01 -0.181969D+01  0.181540D+03
     11  0.374250D+01  0.270838D+01  0.456299D+02  0.296022D+01  0.359557D+01
     12 -0.213859D-01  0.662628D+01 -0.678306D+01  0.689277D+01  0.706838D+00
     13  0.677441D-01  0.617754D+01 -0.788422D+01  0.496826D+01 -0.719721D+00
     14 -0.817536D+00  0.134968D+01 -0.290742D+01  0.144629D+01 -0.968348D+00
     15  0.190997D+00 -0.930195D-01  0.809861D+01 -0.241288D+00  0.121471D+00
     16  0.509948D-01 -0.299405D-01  0.735786D+00  0.190886D+00  0.788439D-01
     17  0.818459D+00  0.134662D+00 -0.266461D+00 -0.313973D+01 -0.123141D+02
     18  0.332434D+01 -0.755429D-01 -0.353260D+00  0.159335D+01  0.898350D+01
     19 -0.948234D-02 -0.829515D-01  0.760876D-02 -0.489476D+00 -0.734668D-01
     20 -0.232611D-02  0.173181D+00  0.785921D+00 -0.658477D-01  0.625097D-01
     21  0.942018D-02 -0.452063D+00 -0.570099D+00  0.647511D-01 -0.655247D-01
     22  0.105070D-01 -0.955633D-02  0.629672D-02  0.111559D+00  0.180917D-01
     23 -0.746479D-02  0.731593D-02 -0.890402D-02 -0.382864D-01 -0.216273D-01
     24  0.126560D-01  0.612869D-01 -0.453062D-01 -0.168359D-01  0.111961D-01
     25  0.753486D-02 -0.122451D-01  0.612409D-01 -0.789762D-02  0.522026D-02
     26 -0.291719D-02 -0.718374D-03 -0.108768D-01  0.490020D-02 -0.456231D-02
     27  0.632089D-03 -0.285416D-02 -0.406708D-02  0.164973D-02  0.502800D-03
     28  0.407926D-02  0.872481D-02 -0.906342D-02 -0.224741D-02  0.381743D-02
     29 -0.303021D-02  0.115296D-01 -0.202644D-01 -0.613861D-01 -0.519458D-02
     30  0.127868D-01 -0.302501D-02  0.219660D-01  0.773876D-01  0.264312D-01
     31  0.113428D-02  0.487638D-02 -0.413650D-02  0.108588D-01  0.110355D-02
     32  0.932527D-02 -0.557959D-02  0.164661D-01  0.405656D-01  0.216628D-01
     33  0.162705D-01 -0.249483D-01 -0.130825D+00 -0.157595D-01  0.103327D-01
                6             7             8             9            10 
      6  0.243533D+11
      7 -0.431476D+01  0.385007D+12
      8  0.917886D+01  0.102140D+02  0.385007D+12
      9  0.976086D+01  0.123428D+01  0.122346D+01  0.385007D+12
     10 -0.530527D+01  0.201882D+01  0.125621D+01  0.112563D+02  0.385007D+12
     11 -0.866949D+00  0.871737D-01  0.500245D+01  0.470096D+01  0.216581D+00
     12  0.267422D+00  0.124979D+00 -0.983373D+00 -0.253998D+00  0.341457D+00
     13  0.790256D+00  0.372067D+00 -0.880258D+00 -0.123595D+01  0.344184D+00
     14  0.949701D+00  0.241206D+00 -0.916624D+00 -0.594535D+00  0.367018D+00
     15 -0.291165D-01 -0.364724D-02  0.191154D+00  0.181464D+00  0.137988D-01
     16 -0.210436D-01 -0.331006D-01  0.454210D-01  0.203427D+00 -0.168288D-01
     17  0.127786D+02 -0.235340D+01 -0.289489D+00 -0.112428D+01 -0.299889D+01
     18 -0.518789D+01 -0.396393D+00  0.558704D-01  0.442568D+00  0.211805D-01
     19 -0.540221D-01 -0.117147D-02  0.285461D-02 -0.334781D+00 -0.221657D-01
     20 -0.103485D-01 -0.591637D-02  0.156175D+00  0.218683D-02 -0.612189D-01
     21 -0.127818D-02  0.165065D-01 -0.489752D+00  0.276529D-01  0.748779D-01
     22 -0.345524D-02 -0.116471D-01 -0.130579D-02  0.150728D+00 -0.773598D-02
     23  0.322447D-02  0.568238D-02 -0.522895D-02 -0.834416D-01  0.832071D-02
     24 -0.970450D-02 -0.898863D-02  0.310455D-01  0.108804D-01 -0.118557D-01
     25 -0.434176D-02 -0.229016D-02  0.641230D-02  0.458107D-02 -0.227631D-02
     26  0.406202D-02  0.583821D-03 -0.669002D-02 -0.389850D-02  0.204095D-02
     27 -0.236398D-03 -0.720525D-04  0.240747D-02  0.208748D-02  0.655827D-04
     28 -0.248863D-02 -0.455025D-02  0.403878D-01  0.121031D-02 -0.351332D-02
     29  0.164777D-02  0.153040D-02 -0.214828D-02  0.491235D-02  0.187713D-02
     30 -0.365034D-02 -0.103826D-01  0.803146D-02  0.255471D+00 -0.798976D-02
     31  0.502711D-03 -0.863237D-03  0.768411D-04  0.237450D-01  0.209914D-03
     32 -0.570069D-02 -0.695772D-02  0.623221D-02  0.998392D-01 -0.944851D-02
     33 -0.176387D-01 -0.757361D-02  0.165209D-01  0.125336D-01 -0.380780D-02
               11            12            13            14            15 
     11  0.243533D+11
     12  0.137754D+03  0.385007D+12
     13  0.148929D+03 -0.269269D+02  0.385007D+12
     14  0.330449D+02 -0.670266D+01 -0.486413D+01  0.243533D+11
     15 -0.680503D+01  0.741263D+01  0.248538D+01  0.163070D+03  0.385007D+12
     16 -0.686817D+00  0.751620D+01  0.244482D+01  0.540895D+02 -0.990937D+01
     17 -0.513332D-01 -0.467500D-01 -0.154799D+00 -0.205868D+00  0.217366D-02
     18  0.873130D-01 -0.349879D-01 -0.123108D+00 -0.156846D+00  0.584768D-02
     19 -0.125904D+01 -0.162775D+00 -0.318501D+00 -0.488819D+01 -0.146923D+01
     20  0.428713D+00  0.518878D+00  0.342230D+01  0.875136D+01 -0.125437D+01
     21  0.329019D+01 -0.396121D+00 -0.482008D+00  0.156113D+01  0.814824D+01
     22  0.427955D-02  0.371821D+00 -0.583190D-01  0.531658D+01  0.147321D+00
     23 -0.665648D-01  0.171522D+00  0.530282D-01  0.518240D+00 -0.254255D+00
     24  0.237504D+01 -0.214894D+00  0.551397D+00 -0.292688D+00  0.336950D+01
     25 -0.618902D-01  0.201323D-01  0.405141D+00  0.140587D+01 -0.567188D+00
     26  0.174141D+00 -0.357260D-01  0.108469D+00  0.185369D+00  0.320600D+00
     27 -0.408189D-01 -0.154347D-01 -0.673026D-01  0.209678D+00  0.514334D+00
     28 -0.228097D-01  0.833263D-02  0.392907D-02  0.773449D+00 -0.837495D-01
     29 -0.198459D-01  0.346712D+00  0.928533D-01  0.129260D+01 -0.536697D-01
     30  0.255578D+00 -0.560573D-01 -0.513848D-01 -0.692092D+00  0.102858D+01
     31  0.375342D-01  0.762516D-02  0.188864D-01 -0.168606D+00  0.131441D+00
     32  0.405570D+00 -0.438807D-01 -0.407135D-01 -0.658706D+00  0.506801D+00
     33 -0.147307D+00  0.662232D-02 -0.123226D-01 -0.920310D+00 -0.659645D+00
               16            17            18            19            20 
     16  0.243533D+11
     17  0.680951D-02  0.708114D+10
     18  0.698033D-02 -0.841723D+02  0.385007D+12
     19  0.105794D+02  0.108530D-01 -0.403005D-02  0.708114D+10
     20  0.167056D+00 -0.187692D-02 -0.367827D-02 -0.217690D+00  0.201170D+10
     21 -0.118214D+00  0.282243D-02  0.580982D-02 -0.189568D+00  0.699067D+02
     22  0.173992D+02 -0.784893D-03  0.116201D-03 -0.194889D+01  0.305108D-02
     23  0.309181D+01  0.271591D-04 -0.419564D-03 -0.197703D+01 -0.242405D+00
     24  0.579969D-01  0.916808D-03  0.257604D-03  0.576113D-02  0.141797D+02
     25 -0.271090D+00  0.738163D-03  0.579688D-03 -0.436536D-01  0.719707D+01
     26  0.462531D+00 -0.864945D-03 -0.675256D-03  0.620286D-02  0.871296D+00
     27  0.814309D+00  0.117849D-03  0.958929D-04 -0.415673D-01  0.807727D+00
     28 -0.503982D-02  0.104146D-03  0.334463D-04 -0.580721D-02  0.765669D+00
     29 -0.391615D+00 -0.783350D-04 -0.232734D-03 -0.749474D+00  0.953281D-01
     30  0.131225D+01 -0.165801D-03  0.117165D-02 -0.108638D+01  0.233348D-01
     31  0.735056D+01 -0.782986D-04  0.122221D-03 -0.830287D+00  0.152069D-01
     32  0.166247D+01  0.214851D-03  0.406193D-03 -0.106839D+01  0.120667D-01
     33 -0.450344D+00  0.385206D-02  0.300249D-02  0.226986D-01 -0.172252D+01
               21            22            23            24            25 
     21  0.385007D+12
     22 -0.733060D-02  0.201170D+10
     23  0.133124D+00  0.721527D+02  0.385007D+12
     24  0.359637D+01  0.133626D-01  0.246898D-02  0.243533D+11
     25  0.778817D+00 -0.175269D-01  0.383885D-01  0.532825D+02  0.243533D+11
     26 -0.348404D+00  0.861301D-02  0.181933D-01 -0.938309D+01  0.141951D+03
     27 -0.388536D+00  0.897587D-03  0.215922D-01 -0.927365D+01  0.139524D+03
     28 -0.303677D+00 -0.395376D-02  0.543942D-02 -0.588530D+01  0.134377D+03
     29 -0.337525D-01  0.970727D+01  0.281667D+01 -0.729849D-02  0.189981D-02
     30 -0.136599D-01 -0.146436D+01  0.281352D+01  0.166458D-01  0.499556D-02
     31 -0.155435D-02 -0.787339D+00  0.906979D+01  0.677621D-02 -0.195071D-02
     32  0.267326D-01 -0.147277D+01  0.413606D+01 -0.653266D-02 -0.120195D-02
     33 -0.164823D+01 -0.674063D-01 -0.515745D-01  0.102164D+02 -0.390293D+01
               26            27            28            29            30 
     26  0.385007D+12
     27 -0.289780D+02  0.385007D+12
     28 -0.229598D+02 -0.228155D+02  0.385007D+12
     29  0.115225D-02  0.200806D-02 -0.733345D-03  0.243533D+11
     30  0.250363D-02 -0.144617D-02 -0.457254D-04  0.154521D+03  0.385007D+12
     31  0.708473D-02  0.210883D-02  0.698497D-03  0.144323D+03 -0.229024D+02
     32 -0.148372D-02 -0.542603D-02  0.182998D-02  0.158458D+03 -0.231922D+02
     33 -0.187788D+01 -0.183524D+01 -0.346243D+01  0.773315D-02 -0.366314D-01
               31            32            33 
     31  0.385007D+12
     32 -0.233525D+02  0.385007D+12
     33 -0.192753D-02 -0.254484D-01  0.708114D+10
 End of Minotr F.D. properties file   721 does not exist.
 End of Minotr F.D. properties file   722 does not exist.
 End of Minotr F.D. properties file   788 does not exist.
 Leave Link 1002 at Wed Jun 25 01:44:46 2014, MaxMem=  4294967296 cpu:    489842.1
 (Enter /home/ztw1e12/g09/l601.exe)
 Copying SCF densities to generalized density rwf, IOpCl= 0 IROHF=0.

 **********************************************************************

            Population analysis using the SCF density.

 **********************************************************************

 Orbital symmetries:
       Occupied  (A) (A) (A) (A) (A) (A) (A) (A) (A) (A) (A) (A)
                 (A) (A) (A) (A) (A) (A) (A) (A) (A) (A) (A) (A)
                 (A) (A) (A) (A) (A) (A) (A) (A) (A) (A) (A) (A)
                 (A) (A) (A) (A) (A) (A) (A) (A) (A) (A) (A) (A)
                 (A) (A) (A) (A) (A) (A) (A) (A) (A) (A) (A) (A)
                 (A) (A) (A)
       Virtual   (A) (A) (A) (A) (A) (A) (A) (A) (A) (A) (A) (A)
                 (A) (A) (A) (A) (A) (A) (A) (A) (A) (A) (A) (A)
                 (A) (A) (A) (A) (A) (A) (A) (A) (A) (A) (A) (A)
                 (A) (A) (A) (A) (A) (A) (A) (A) (A) (A) (A) (A)
                 (A) (A) (A) (A) (A) (A) (A) (A) (A) (A) (A) (A)
                 (A) (A) (A) (A) (A) (A) (A) (A) (A) (A) (A) (A)
                 (A) (A) (A) (A) (A) (A) (A) (A) (A) (A) (A) (A)
                 (A) (A) (A) (A) (A) (A) (A) (A) (A) (A) (A) (A)
                 (A) (A) (A) (A) (A) (A) (A) (A) (A) (A) (A) (A)
                 (A) (A) (A) (A) (A) (A) (A) (A) (A) (A) (A) (A)
                 (A) (A) (A) (A) (A) (A) (A) (A) (A) (A) (A) (A)
                 (A) (A) (A) (A) (A) (A) (A) (A) (A) (A) (A) (A)
                 (A) (A) (A) (A) (A) (A) (A) (A) (A) (A) (A) (A)
                 (A) (A) (A) (A) (A) (A) (A) (A) (A) (A) (A) (A)
                 (A) (A) (A) (A) (A) (A) (A) (A) (A) (A) (A) (A)
                 (A) (A) (A) (A) (A) (A) (A) (A) (A) (A) (A) (A)
                 (A) (A) (A) (A) (A) (A) (A) (A) (A) (A) (A) (A)
                 (A) (A) (A) (A) (A) (A) (A) (A) (A) (A) (A) (A)
                 (A) (A) (A) (A) (A) (A) (A) (A) (A) (A) (A) (A)
                 (A) (A) (A) (A) (A) (A) (A) (A) (A) (A) (A) (A)
                 (A) (A) (A) (A) (A) (A) (A) (A) (A) (A) (A) (A)
                 (A) (A) (A) (A) (A) (A) (A) (A) (A) (A) (A) (A)
                 (A) (A) (A) (A) (A) (A) (A) (A) (A) (A) (A) (A)
                 (A) (A) (A) (A) (A) (A) (A) (A) (A) (A) (A) (A)
                 (A) (A) (A) (A) (A) (A) (A) (A) (A) (A) (A) (A)
                 (A) (A) (A) (A) (A) (A) (A) (A) (A) (A) (A) (A)
                 (A) (A) (A) (A) (A) (A) (A) (A) (A) (A) (A) (A)
                 (A) (A) (A) (A) (A) (A) (A) (A) (A) (A) (A) (A)
                 (A) (A) (A) (A) (A) (A) (A) (A) (A) (A) (A) (A)
                 (A) (A) (A) (A) (A) (A) (A) (A) (A) (A) (A) (A)
                 (A) (A) (A) (A) (A) (A) (A) (A) (A) (A) (A) (A)
                 (A) (A) (A) (A) (A) (A) (A) (A) (A) (A) (A) (A)
                 (A) (A) (A) (A) (A) (A) (A) (A) (A) (A) (A) (A)
                 (A) (A) (A) (A) (A) (A) (A) (A) (A) (A) (A) (A)
                 (A) (A) (A) (A) (A) (A) (A) (A) (A) (A) (A) (A)
                 (A) (A) (A) (A) (A) (A) (A) (A) (A) (A) (A) (A)
                 (A) (A) (A) (A) (A) (A) (A) (A) (A) (A) (A) (A)
                 (A) (A) (A) (A) (A) (A) (A) (A) (A) (A) (A) (A)
                 (A) (A) (A) (A) (A) (A) (A) (A) (A) (A) (A) (A)
                 (A) (A) (A) (A) (A) (A) (A) (A) (A) (A) (A) (A)
                 (A) (A) (A) (A) (A) (A) (A) (A) (A) (A) (A) (A)
                 (A) (A) (A) (A) (A) (A) (A) (A) (A) (A) (A) (A)
                 (A) (A) (A) (A) (A) (A) (A) (A) (A) (A) (A) (A)
                 (A) (A) (A) (A) (A) (A) (A) (A) (A) (A) (A) (A)
                 (A) (A) (A) (A) (A) (A) (A) (A) (A) (A) (A) (A)
                 (A) (A) (A) (A) (A) (A) (A) (A) (A) (A) (A) (A)
                 (A) (A) (A) (A) (A) (A) (A) (A) (A) (A) (A) (A)
                 (A) (A) (A) (A) (A) (A) (A) (A) (A) (A) (A) (A)
                 (A) (A) (A) (A) (A) (A) (A) (A) (A) (A) (A) (A)
                 (A) (A) (A) (A) (A) (A) (A) (A) (A) (A) (A) (A)
                 (A) (A) (A) (A) (A) (A) (A) (A) (A) (A) (A) (A)
                 (A) (A) (A) (A) (A) (A) (A) (A) (A) (A) (A) (A)
                 (A) (A) (A) (A) (A) (A) (A) (A) (A) (A) (A) (A)
                 (A) (A) (A) (A) (A) (A) (A) (A) (A) (A) (A) (A)
                 (A) (A) (A) (A) (A) (A) (A) (A) (A) (A) (A) (A)
                 (A) (A) (A) (A) (A) (A) (A) (A) (A) (A) (A) (A)
                 (A) (A) (A) (A) (A) (A) (A) (A) (A) (A) (A) (A)
                 (A) (A) (A) (A) (A) (A) (A) (A) (A) (A) (A) (A)
                 (A) (A) (A) (A) (A) (A) (A) (A) (A) (A) (A) (A)
                 (A) (A) (A) (A) (A) (A) (A) (A) (A) (A) (A) (A)
                 (A) (A) (A) (A) (A) (A) (A) (A) (A) (A) (A) (A)
                 (A) (A) (A) (A) (A) (A) (A) (A) (A) (A) (A) (A)
                 (A) (A) (A) (A) (A) (A) (A) (A) (A) (A) (A) (A)
                 (A) (A) (A) (A) (A) (A) (A) (A) (A) (A) (A) (A)
                 (A) (A) (A) (A) (A) (A) (A) (A) (A) (A) (A) (A)
                 (A) (A) (A) (A) (A) (A) (A) (A) (A) (A) (A) (A)
                 (A) (A) (A) (A) (A) (A) (A) (A) (A) (A) (A) (A)
                 (A) (A) (A) (A) (A) (A) (A) (A) (A) (A) (A) (A)
                 (A) (A) (A) (A) (A) (A) (A) (A) (A) (A) (A) (A)
                 (A) (A) (A) (A) (A) (A) (A) (A) (A) (A) (A) (A)
                 (A) (A) (A) (A) (A) (A) (A) (A) (A) (A) (A) (A)
                 (A) (A) (A) (A) (A) (A) (A) (A) (A) (A) (A) (A)
                 (A) (A) (A) (A) (A) (A) (A) (A) (A) (A) (A) (A)
                 (A) (A) (A) (A) (A) (A) (A) (A) (A) (A) (A) (A)
                 (A) (A) (A) (A) (A) (A) (A) (A) (A) (A) (A) (A)
                 (A) (A) (A) (A) (A) (A) (A) (A) (A) (A) (A) (A)
                 (A) (A) (A) (A) (A) (A) (A) (A) (A) (A) (A) (A)
                 (A) (A) (A) (A) (A) (A) (A) (A) (A) (A) (A) (A)
                 (A) (A) (A) (A) (A) (A) (A) (A) (A) (A) (A) (A)
                 (A) (A) (A) (A) (A) (A) (A) (A) (A) (A) (A) (A)
                 (A) (A) (A) (A) (A) (A) (A) (A) (A) (A) (A) (A)
                 (A) (A) (A) (A) (A) (A) (A) (A) (A) (A) (A) (A)
                 (A) (A) (A) (A) (A) (A) (A) (A) (A) (A) (A) (A)
                 (A) (A) (A) (A) (A) (A) (A) (A) (A)
 The electronic state is 1-A.
 Alpha  occ. eigenvalues --  -19.25590 -19.17754 -19.17018 -14.42619 -14.41839
 Alpha  occ. eigenvalues --  -10.34705 -10.33415 -10.31689 -10.29236 -10.27156
 Alpha  occ. eigenvalues --  -10.25878 -10.25661 -10.25508 -10.25406 -10.25348
 Alpha  occ. eigenvalues --  -10.25131 -10.24873  -1.09941  -1.05964  -1.04866
 Alpha  occ. eigenvalues --   -0.95902  -0.93753  -0.88555  -0.81706  -0.77695
 Alpha  occ. eigenvalues --   -0.77452  -0.74416  -0.72255  -0.66950  -0.64750
 Alpha  occ. eigenvalues --   -0.61475  -0.61327  -0.59691  -0.57220  -0.55615
 Alpha  occ. eigenvalues --   -0.52364  -0.50876  -0.50116  -0.48639  -0.47544
 Alpha  occ. eigenvalues --   -0.47031  -0.46176  -0.44924  -0.44633  -0.44380
 Alpha  occ. eigenvalues --   -0.43554  -0.43318  -0.42161  -0.41612  -0.41381
 Alpha  occ. eigenvalues --   -0.40382  -0.39130  -0.38705  -0.37794  -0.36012
 Alpha  occ. eigenvalues --   -0.35953  -0.35378  -0.30432  -0.28372  -0.27576
 Alpha  occ. eigenvalues --   -0.27288  -0.25888  -0.24657
 Alpha virt. eigenvalues --   -0.02364  -0.00529   0.01143   0.01592   0.02049
 Alpha virt. eigenvalues --    0.02857   0.03744   0.04169   0.06100   0.06640
 Alpha virt. eigenvalues --    0.07348   0.07590   0.09221   0.09738   0.10496
 Alpha virt. eigenvalues --    0.10810   0.11714   0.12582   0.13269   0.14088
 Alpha virt. eigenvalues --    0.14735   0.16102   0.16302   0.16898   0.18708
 Alpha virt. eigenvalues --    0.19262   0.19808   0.21370   0.22360   0.23118
 Alpha virt. eigenvalues --    0.23368   0.24698   0.24863   0.25668   0.26049
 Alpha virt. eigenvalues --    0.26954   0.27521   0.28346   0.28926   0.29694
 Alpha virt. eigenvalues --    0.29803   0.30665   0.30842   0.31376   0.31514
 Alpha virt. eigenvalues --    0.32137   0.33103   0.34372   0.34809   0.35044
 Alpha virt. eigenvalues --    0.35492   0.36322   0.36687   0.37401   0.37466
 Alpha virt. eigenvalues --    0.37865   0.38429   0.38543   0.39219   0.39737
 Alpha virt. eigenvalues --    0.40396   0.40770   0.41295   0.41467   0.41753
 Alpha virt. eigenvalues --    0.41882   0.42605   0.43152   0.43506   0.43940
 Alpha virt. eigenvalues --    0.44595   0.44869   0.45535   0.46001   0.46977
 Alpha virt. eigenvalues --    0.47111   0.47644   0.48976   0.49148   0.49717
 Alpha virt. eigenvalues --    0.51078   0.51720   0.52078   0.52840   0.53605
 Alpha virt. eigenvalues --    0.54443   0.54567   0.55091   0.56635   0.56814
 Alpha virt. eigenvalues --    0.57670   0.58545   0.59451   0.60158   0.60950
 Alpha virt. eigenvalues --    0.61450   0.62433   0.63216   0.64195   0.64253
 Alpha virt. eigenvalues --    0.64683   0.66036   0.66866   0.67744   0.69159
 Alpha virt. eigenvalues --    0.69603   0.69827   0.70852   0.70887   0.71251
 Alpha virt. eigenvalues --    0.72773   0.73490   0.73664   0.74814   0.75668
 Alpha virt. eigenvalues --    0.76336   0.77312   0.78610   0.78985   0.79636
 Alpha virt. eigenvalues --    0.79865   0.80935   0.81674   0.81886   0.82354
 Alpha virt. eigenvalues --    0.83152   0.84019   0.84489   0.86517   0.86790
 Alpha virt. eigenvalues --    0.87453   0.88251   0.89521   0.90496   0.91409
 Alpha virt. eigenvalues --    0.91810   0.92829   0.93050   0.93726   0.94377
 Alpha virt. eigenvalues --    0.95036   0.95974   0.96354   0.97476   0.97747
 Alpha virt. eigenvalues --    0.98619   0.99071   1.00768   1.00844   1.01469
 Alpha virt. eigenvalues --    1.02836   1.03382   1.03407   1.03884   1.04675
 Alpha virt. eigenvalues --    1.06299   1.06895   1.07657   1.08424   1.09236
 Alpha virt. eigenvalues --    1.09523   1.10250   1.12224   1.12952   1.13638
 Alpha virt. eigenvalues --    1.14159   1.15008   1.15161   1.15925   1.16749
 Alpha virt. eigenvalues --    1.17972   1.18408   1.19000   1.19383   1.20493
 Alpha virt. eigenvalues --    1.20855   1.21389   1.21636   1.22059   1.22754
 Alpha virt. eigenvalues --    1.22913   1.23344   1.23522   1.24697   1.25088
 Alpha virt. eigenvalues --    1.25610   1.26198   1.26879   1.27287   1.27711
 Alpha virt. eigenvalues --    1.28488   1.29119   1.30042   1.30375   1.31278
 Alpha virt. eigenvalues --    1.31792   1.32165   1.32791   1.33275   1.33988
 Alpha virt. eigenvalues --    1.34672   1.36570   1.37443   1.38127   1.39176
 Alpha virt. eigenvalues --    1.40218   1.41174   1.42227   1.43582   1.45099
 Alpha virt. eigenvalues --    1.45613   1.46331   1.47922   1.50837   1.51217
 Alpha virt. eigenvalues --    1.54544   1.55600   1.56543   1.57068   1.58164
 Alpha virt. eigenvalues --    1.58988   1.60153   1.61227   1.62475   1.63932
 Alpha virt. eigenvalues --    1.65089   1.66091   1.66182   1.69264   1.71902
 Alpha virt. eigenvalues --    1.72437   1.74266   1.76897   1.77474   1.78729
 Alpha virt. eigenvalues --    1.79608   1.81048   1.82299   1.83577   1.85181
 Alpha virt. eigenvalues --    1.85694   1.86245   1.88088   1.88794   1.89519
 Alpha virt. eigenvalues --    1.91064   1.92741   1.93476   1.95096   1.95697
 Alpha virt. eigenvalues --    1.98083   1.98820   2.01558   2.02359   2.03198
 Alpha virt. eigenvalues --    2.03617   2.04390   2.05481   2.07629   2.09718
 Alpha virt. eigenvalues --    2.10604   2.11524   2.12849   2.13127   2.13738
 Alpha virt. eigenvalues --    2.14789   2.16404   2.18990   2.20447   2.21504
 Alpha virt. eigenvalues --    2.22280   2.23162   2.23377   2.24046   2.27015
 Alpha virt. eigenvalues --    2.27648   2.29125   2.30160   2.31261   2.31608
 Alpha virt. eigenvalues --    2.33736   2.35660   2.36293   2.36623   2.37149
 Alpha virt. eigenvalues --    2.37576   2.39090   2.40638   2.41408   2.42074
 Alpha virt. eigenvalues --    2.44120   2.45225   2.46087   2.47007   2.47908
 Alpha virt. eigenvalues --    2.48529   2.51049   2.51544   2.52522   2.53721
 Alpha virt. eigenvalues --    2.55335   2.56164   2.56627   2.57478   2.60467
 Alpha virt. eigenvalues --    2.61950   2.63341   2.64844   2.66104   2.66733
 Alpha virt. eigenvalues --    2.67376   2.67510   2.68250   2.69050   2.69536
 Alpha virt. eigenvalues --    2.69742   2.70449   2.70743   2.71331   2.71970
 Alpha virt. eigenvalues --    2.73069   2.73843   2.74374   2.75407   2.76305
 Alpha virt. eigenvalues --    2.77698   2.78254   2.78572   2.79098   2.80717
 Alpha virt. eigenvalues --    2.82222   2.82841   2.83003   2.84658   2.85948
 Alpha virt. eigenvalues --    2.87323   2.87686   2.88356   2.88469   2.88930
 Alpha virt. eigenvalues --    2.89595   2.90050   2.91000   2.91556   2.93057
 Alpha virt. eigenvalues --    2.93169   2.93330   2.94300   2.95367   2.95592
 Alpha virt. eigenvalues --    2.96381   2.96801   2.97626   2.97811   2.98626
 Alpha virt. eigenvalues --    2.99931   3.00268   3.00566   3.00943   3.01684
 Alpha virt. eigenvalues --    3.02122   3.02421   3.02922   3.03578   3.04553
 Alpha virt. eigenvalues --    3.04844   3.06740   3.07011   3.08259   3.09188
 Alpha virt. eigenvalues --    3.11027   3.11217   3.12191   3.12525   3.13382
 Alpha virt. eigenvalues --    3.13898   3.14819   3.14964   3.16527   3.16914
 Alpha virt. eigenvalues --    3.17118   3.18145   3.18810   3.20213   3.21128
 Alpha virt. eigenvalues --    3.22253   3.23148   3.24400   3.24936   3.25579
 Alpha virt. eigenvalues --    3.26526   3.26751   3.27425   3.27714   3.28036
 Alpha virt. eigenvalues --    3.28487   3.28812   3.29879   3.30132   3.30658
 Alpha virt. eigenvalues --    3.31465   3.33332   3.33747   3.34173   3.34699
 Alpha virt. eigenvalues --    3.35528   3.36402   3.36840   3.38168   3.38837
 Alpha virt. eigenvalues --    3.39370   3.40185   3.40357   3.41429   3.42064
 Alpha virt. eigenvalues --    3.42334   3.44216   3.44354   3.45274   3.45646
 Alpha virt. eigenvalues --    3.46416   3.48368   3.48533   3.49450   3.51016
 Alpha virt. eigenvalues --    3.51709   3.52618   3.52987   3.53942   3.55773
 Alpha virt. eigenvalues --    3.57852   3.58573   3.60795   3.61285   3.61693
 Alpha virt. eigenvalues --    3.62746   3.63929   3.64678   3.65381   3.67187
 Alpha virt. eigenvalues --    3.67455   3.68224   3.68680   3.69252   3.70713
 Alpha virt. eigenvalues --    3.71501   3.71907   3.72861   3.73216   3.73464
 Alpha virt. eigenvalues --    3.75562   3.75947   3.76375   3.76622   3.77405
 Alpha virt. eigenvalues --    3.78536   3.78931   3.81101   3.81681   3.82359
 Alpha virt. eigenvalues --    3.82967   3.83638   3.84168   3.84992   3.85614
 Alpha virt. eigenvalues --    3.86233   3.87429   3.87997   3.89209   3.89725
 Alpha virt. eigenvalues --    3.89959   3.91634   3.92522   3.93444   3.94611
 Alpha virt. eigenvalues --    3.95963   3.97100   3.97859   3.99346   4.00304
 Alpha virt. eigenvalues --    4.02221   4.02999   4.03518   4.03762   4.05129
 Alpha virt. eigenvalues --    4.05793   4.06297   4.06910   4.07772   4.09490
 Alpha virt. eigenvalues --    4.10166   4.10656   4.11151   4.12861   4.14138
 Alpha virt. eigenvalues --    4.14685   4.16001   4.17204   4.17520   4.18405
 Alpha virt. eigenvalues --    4.18814   4.19973   4.20814   4.21181   4.22564
 Alpha virt. eigenvalues --    4.22745   4.23655   4.24322   4.24749   4.26651
 Alpha virt. eigenvalues --    4.27352   4.28115   4.28758   4.29257   4.29879
 Alpha virt. eigenvalues --    4.31211   4.32818   4.34461   4.36189   4.37498
 Alpha virt. eigenvalues --    4.38451   4.39871   4.41809   4.44000   4.45097
 Alpha virt. eigenvalues --    4.45772   4.47877   4.48628   4.50869   4.51361
 Alpha virt. eigenvalues --    4.52495   4.55427   4.56238   4.56860   4.57232
 Alpha virt. eigenvalues --    4.59047   4.59456   4.60916   4.62470   4.62813
 Alpha virt. eigenvalues --    4.64443   4.64764   4.65337   4.66332   4.67082
 Alpha virt. eigenvalues --    4.68314   4.70191   4.71395   4.72660   4.73107
 Alpha virt. eigenvalues --    4.75137   4.75569   4.76636   4.78922   4.80149
 Alpha virt. eigenvalues --    4.81444   4.82445   4.83519   4.85595   4.85871
 Alpha virt. eigenvalues --    4.87677   4.89101   4.90056   4.90296   4.91775
 Alpha virt. eigenvalues --    4.92537   4.93395   4.94842   4.96045   4.97172
 Alpha virt. eigenvalues --    4.97544   4.99303   5.00419   5.01443   5.02578
 Alpha virt. eigenvalues --    5.03101   5.05785   5.06315   5.06841   5.09387
 Alpha virt. eigenvalues --    5.10914   5.11633   5.12104   5.13354   5.14277
 Alpha virt. eigenvalues --    5.15771   5.15977   5.17199   5.18498   5.18744
 Alpha virt. eigenvalues --    5.19641   5.21480   5.23964   5.24947   5.27267
 Alpha virt. eigenvalues --    5.29847   5.32152   5.33283   5.36306   5.36752
 Alpha virt. eigenvalues --    5.40253   5.43060   5.44021   5.46607   5.48948
 Alpha virt. eigenvalues --    5.50400   5.51426   5.52753   5.53558   5.56634
 Alpha virt. eigenvalues --    5.58068   5.58369   5.59707   5.60949   5.62781
 Alpha virt. eigenvalues --    5.63058   5.65084   5.66106   5.66608   5.67146
 Alpha virt. eigenvalues --    5.68580   5.70411   5.70873   5.71553   5.73234
 Alpha virt. eigenvalues --    5.74977   5.76063   5.78657   5.80114   5.81194
 Alpha virt. eigenvalues --    5.84838   5.86002   5.89329   5.91097   5.95597
 Alpha virt. eigenvalues --    5.97003   5.99797   6.03268   6.06130   6.09119
 Alpha virt. eigenvalues --    6.16710   6.18087   6.18890   6.19129   6.29954
 Alpha virt. eigenvalues --    6.45439   6.46064   6.49457   6.52996   6.56535
 Alpha virt. eigenvalues --    6.60136   6.60820   6.61703   6.63795   6.67257
 Alpha virt. eigenvalues --    6.79599   6.80751   6.83872   6.87664   6.88712
 Alpha virt. eigenvalues --    6.90672   6.91626   6.92564   6.93932   7.06000
 Alpha virt. eigenvalues --    7.17709   7.18315   7.24125   7.26765   7.28773
 Alpha virt. eigenvalues --    7.66934   7.99353   8.09966   8.12096   8.14817
 Alpha virt. eigenvalues --    8.20255   8.26277   8.28110   8.35620   8.66464
 Alpha virt. eigenvalues --    8.74055   8.75797   8.77463   8.81070   8.81636
 Alpha virt. eigenvalues --    8.83200   8.83562   8.87009   8.87615   8.90471
 Alpha virt. eigenvalues --    8.92473   8.93213   8.99083   9.00385   9.03885
 Alpha virt. eigenvalues --    9.05902   9.09405   9.17583   9.21143   9.30655
 Alpha virt. eigenvalues --    9.35049   9.39555   9.40562   9.45149   9.47661
 Alpha virt. eigenvalues --    9.57896   9.61211   9.77770   9.81878  10.01512
 Alpha virt. eigenvalues --   10.07141  10.11445  10.11590  10.13680  10.14415
 Alpha virt. eigenvalues --   10.17080  10.18740  10.20422  10.24439  10.28742
 Alpha virt. eigenvalues --   10.32542  10.36991  10.81987  11.70685  11.76481
 Alpha virt. eigenvalues --   11.81460  11.91802  11.96575  12.03059  12.12775
 Alpha virt. eigenvalues --   12.16554  12.22000  12.23754  12.29410  12.34865
 Alpha virt. eigenvalues --   12.43994  12.57330  12.58798  12.81551  12.86327
 Alpha virt. eigenvalues --   12.94822  14.84010  14.95642  15.01332  15.23378
 Alpha virt. eigenvalues --   15.25282  15.41800  15.98184  15.98650  16.02956
 Alpha virt. eigenvalues --   16.79514  16.94584  21.89205  22.00438  22.07271
 Alpha virt. eigenvalues --   40.11155  40.17665  40.19323  40.20812  40.25128
 Alpha virt. eigenvalues --   40.26880  40.30053  40.36606  40.56493  40.65879
[...]
 Alpha virt. eigenvalues --    6.77703   6.80034   6.85357   6.87795   6.90022
 Alpha virt. eigenvalues --    6.91005   6.94442   7.07695   7.08726   7.10820
 Alpha virt. eigenvalues --    7.15440   7.17695   7.28336   7.43039   8.63318
 Alpha virt. eigenvalues --    9.57481   9.89201  11.96074  12.14131  12.31254
 Alpha virt. eigenvalues --   12.50054  12.59590  12.71137  12.92978  13.24932
 Alpha virt. eigenvalues --   13.45059  13.57151  13.57933  13.74769  14.01363
 Alpha virt. eigenvalues --   15.55233
          Condensed to atoms (all electrons):
               1          2          3          4          5          6
     1  C    5.434055   0.197841   0.014793  -0.046002  -0.019488   0.300321
     2  C    0.197841   5.567603   0.166315  -0.007839  -0.043448   0.036443
     3  C    0.014793   0.166315   5.541353   0.325146  -0.031409  -0.076145
     4  C   -0.046002  -0.007839   0.325146   5.284947   0.403576  -0.016216
     5  C   -0.019488  -0.043448  -0.031409   0.403576   5.087497   0.383277
     6  C    0.300321   0.036443  -0.076145  -0.016216   0.383277   4.865983
     7  H    0.453346  -0.038798   0.010318  -0.001562   0.004796  -0.072113
     8  H   -0.021229   0.450846  -0.093971   0.006567  -0.001862   0.007593
     9  H   -0.004275   0.010417  -0.081514   0.421471  -0.039195   0.010691
    10  H    0.014168  -0.006073   0.013942  -0.056786   0.453886  -0.077844
    11  C    0.008016  -0.052184   0.180116  -0.063664   0.007311  -0.001988
    12  H    0.000657  -0.001470  -0.061883   0.006908  -0.000475   0.000077
    13  H   -0.000288   0.003668  -0.042573  -0.004562   0.000481   0.000031
    14  C   -0.000162   0.002762   0.021096  -0.004738  -0.000697  -0.000100
    15  H    0.000023  -0.001430   0.004553   0.001006   0.000039  -0.000009
    16  C   -0.000133   0.003499  -0.006437  -0.006145   0.000137   0.000005
    17  O   -0.090142   0.013603  -0.000693   0.002751  -0.050540   0.394988
    18  H   -0.005599   0.004491  -0.000320  -0.000833   0.002870  -0.042648
    19  O    0.000001  -0.000381  -0.007428  -0.003919   0.000266   0.000000
    20  N    0.000303  -0.010505  -0.024391  -0.000355   0.000459  -0.000068
    21  H    0.000927   0.001572   0.018500   0.002031  -0.000510  -0.000422
    22  N    0.000165  -0.000687   0.004925   0.002906  -0.000052  -0.000129
    23  H    0.000104  -0.000704   0.001273   0.000636   0.000306  -0.000028
    24  C   -0.000079   0.001169  -0.003800  -0.000053  -0.000019   0.000021
    25  C   -0.000076  -0.000499  -0.000022   0.000079   0.000006  -0.000006
    26  H    0.000001  -0.000030   0.000038   0.000000   0.000000   0.000000
    27  H   -0.000003   0.000042  -0.000040  -0.000002  -0.000001   0.000001
    28  H    0.000174   0.000321   0.000213  -0.000019  -0.000005   0.000002
    29  C   -0.000010   0.000101   0.000471  -0.001144  -0.000057   0.000001
    30  H   -0.000011   0.000010  -0.000590  -0.001741   0.000333   0.000022
    31  H   -0.000002   0.000010   0.000002  -0.000096  -0.000015   0.000002
    32  H    0.000000   0.000004   0.000091   0.000197  -0.000016  -0.000001
    33  O    0.000000  -0.000011  -0.000257   0.000008   0.000000   0.000000
               7          8          9         10         11         12
     1  C    0.453346  -0.021229  -0.004275   0.014168   0.008016   0.000657
     2  C   -0.038798   0.450846   0.010417  -0.006073  -0.052184  -0.001470
     3  C    0.010318  -0.093971  -0.081514   0.013942   0.180116  -0.061883
     4  C   -0.001562   0.006567   0.421471  -0.056786  -0.063664   0.006908
     5  C    0.004796  -0.001862  -0.039195   0.453886   0.007311  -0.000475
     6  C   -0.072113   0.007593   0.010691  -0.077844  -0.001988   0.000077
     7  H    0.530126  -0.006622   0.000018  -0.000202  -0.000208  -0.000054
     8  H   -0.006622   0.475256  -0.000069   0.000039   0.002274   0.002583
     9  H    0.000018  -0.000069   0.488779  -0.009227   0.002006   0.000653
    10  H   -0.000202   0.000039  -0.009227   0.535248  -0.000067   0.000011
    11  C   -0.000208   0.002274   0.002006  -0.000067   5.299158   0.439769
    12  H   -0.000054   0.002583   0.000653   0.000011   0.439769   0.482288
    13  H    0.000013   0.000140  -0.000953  -0.000020   0.418999  -0.004654
    14  C    0.000023  -0.001333  -0.004895   0.000036   0.198543  -0.049141
    15  H    0.000000  -0.000349  -0.000339   0.000000  -0.026848  -0.005958
    16  C   -0.000004   0.000449   0.012019  -0.000052  -0.020022   0.008444
    17  O   -0.004178  -0.000104  -0.000120   0.006193   0.000000  -0.000001
    18  H    0.004509  -0.000007   0.000037  -0.000911  -0.000005   0.000000
    19  O    0.000000  -0.000015   0.010113  -0.000021  -0.003542   0.000005
    20  N    0.000003   0.002516  -0.000228   0.000001  -0.012693  -0.001661
    21  H   -0.000001  -0.001134  -0.000121   0.000005  -0.014306   0.000471
    22  N    0.000001  -0.000044  -0.010415   0.000093  -0.006481  -0.000549
    23  H    0.000002  -0.000063  -0.000362   0.000008  -0.000648  -0.000095
    24  C   -0.000002   0.000172   0.000054   0.000000   0.012779   0.000582
    25  C    0.000001   0.000084   0.000000   0.000000   0.000564   0.000045
    26  H    0.000000  -0.000042   0.000000   0.000000  -0.000008  -0.000015
    27  H    0.000000   0.000022   0.000001   0.000000   0.000032   0.000007
    28  H    0.000007   0.000175   0.000002   0.000000  -0.000324  -0.000008
    29  C    0.000000   0.000004   0.000795   0.000011  -0.000616   0.000034
    30  H    0.000000   0.000001   0.003402  -0.000041   0.000643   0.000010
    31  H    0.000000   0.000000   0.000087  -0.000005  -0.000025   0.000000
    32  H    0.000000   0.000000  -0.000326   0.000002  -0.000256  -0.000002
    33  O    0.000000  -0.000019  -0.000001   0.000000   0.000779   0.000050
              13         14         15         16         17         18
     1  C   -0.000288  -0.000162   0.000023  -0.000133  -0.090142  -0.005599
     2  C    0.003668   0.002762  -0.001430   0.003499   0.013603   0.004491
     3  C   -0.042573   0.021096   0.004553  -0.006437  -0.000693  -0.000320
     4  C   -0.004562  -0.004738   0.001006  -0.006145   0.002751  -0.000833
     5  C    0.000481  -0.000697   0.000039   0.000137  -0.050540   0.002870
     6  C    0.000031  -0.000100  -0.000009   0.000005   0.394988  -0.042648
     7  H    0.000013   0.000023   0.000000  -0.000004  -0.004178   0.004509
     8  H    0.000140  -0.001333  -0.000349   0.000449  -0.000104  -0.000007
     9  H   -0.000953  -0.004895  -0.000339   0.012019  -0.000120   0.000037
    10  H   -0.000020   0.000036   0.000000  -0.000052   0.006193  -0.000911
    11  C    0.418999   0.198543  -0.026848  -0.020022   0.000000  -0.000005
    12  H   -0.004654  -0.049141  -0.005958   0.008444  -0.000001   0.000000
    13  H    0.463071  -0.052001  -0.002238  -0.003788   0.000000   0.000000
    14  C   -0.052001   5.368822   0.458248   0.189979   0.000001   0.000000
    15  H   -0.002238   0.458248   0.460203  -0.063143   0.000000   0.000000
    16  C   -0.003788   0.189979  -0.063143   4.782069   0.000000   0.000000
    17  O    0.000000   0.000001   0.000000   0.000000   7.659869   0.358657
    18  H    0.000000   0.000000   0.000000   0.000000   0.358657   0.491412
    19  O    0.018772  -0.073527   0.003109   0.715902   0.000000   0.000000
    20  N    0.006422   0.141649  -0.046772  -0.045522   0.000000   0.000000
    21  H    0.000024  -0.012388   0.004581  -0.004767   0.000007  -0.000002
    22  N    0.002923  -0.079446   0.001878   0.292359   0.000000   0.000000
    23  H   -0.000391  -0.004587   0.001211  -0.023356   0.000000   0.000000
    24  C    0.000201  -0.087256  -0.008489   0.014274   0.000000   0.000000
    25  C    0.000033   0.007792   0.002084  -0.000795   0.000000   0.000000
    26  H   -0.000003  -0.000281   0.000075  -0.000114   0.000000   0.000000
    27  H    0.000000  -0.000348  -0.000214   0.000395   0.000000   0.000000
    28  H   -0.000001   0.000912  -0.000412  -0.000115   0.000000   0.000000
    29  C   -0.000157   0.011078  -0.000606  -0.053920   0.000000   0.000000
    30  H    0.000009  -0.001526  -0.000170   0.003734   0.000000   0.000000
    31  H   -0.000010   0.000661  -0.000009   0.007822   0.000000   0.000000
    32  H   -0.000026   0.001324   0.000191  -0.010435   0.000000   0.000000
    33  O   -0.000003   0.003754   0.022247   0.001887   0.000000   0.000000
              19         20         21         22         23         24
     1  C    0.000001   0.000303   0.000927   0.000165   0.000104  -0.000079
     2  C   -0.000381  -0.010505   0.001572  -0.000687  -0.000704   0.001169
     3  C   -0.007428  -0.024391   0.018500   0.004925   0.001273  -0.003800
     4  C   -0.003919  -0.000355   0.002031   0.002906   0.000636  -0.000053
     5  C    0.000266   0.000459  -0.000510  -0.000052   0.000306  -0.000019
     6  C    0.000000  -0.000068  -0.000422  -0.000129  -0.000028   0.000021
     7  H    0.000000   0.000003  -0.000001   0.000001   0.000002  -0.000002
     8  H   -0.000015   0.002516  -0.001134  -0.000044  -0.000063   0.000172
     9  H    0.010113  -0.000228  -0.000121  -0.010415  -0.000362   0.000054
    10  H   -0.000021   0.000001   0.000005   0.000093   0.000008   0.000000
    11  C   -0.003542  -0.012693  -0.014306  -0.006481  -0.000648   0.012779
    12  H    0.000005  -0.001661   0.000471  -0.000549  -0.000095   0.000582
    13  H    0.018772   0.006422   0.000024   0.002923  -0.000391   0.000201
    14  C   -0.073527   0.141649  -0.012388  -0.079446  -0.004587  -0.087256
    15  H    0.003109  -0.046772   0.004581   0.001878   0.001211  -0.008489
    16  C    0.715902  -0.045522  -0.004767   0.292359  -0.023356   0.014274
    17  O    0.000000   0.000000   0.000007   0.000000   0.000000   0.000000
    18  H    0.000000   0.000000  -0.000002   0.000000   0.000000   0.000000
    19  O    7.836074   0.005420  -0.000084  -0.128472   0.004862  -0.000267
    20  N    0.005420   6.756219   0.371006   0.002704   0.026812   0.292284
    21  H   -0.000084   0.371006   0.458592   0.001710   0.000785  -0.022959
    22  N   -0.128472   0.002704   0.001710   6.490457   0.380455   0.003258
    23  H    0.004862   0.026812   0.000785   0.380455   0.507628  -0.006359
    24  C   -0.000267   0.292284  -0.022959   0.003258  -0.006359   4.637122
    25  C    0.000002  -0.066596  -0.002630  -0.000481   0.000369   0.278345
    26  H    0.000000   0.001132   0.000324  -0.000003   0.000175  -0.027072
    27  H   -0.000002  -0.002275  -0.000206   0.000249  -0.000673  -0.023096
    28  H    0.000000   0.012950  -0.001792   0.000160  -0.000063  -0.055337
    29  C    0.007304  -0.001940  -0.000047   0.285346  -0.030992   0.000001
    30  H    0.003666  -0.000100  -0.000070  -0.055751   0.001111   0.000141
    31  H    0.001548  -0.000202   0.000009  -0.027218  -0.007664  -0.000048
    32  H    0.006180  -0.000203   0.000033  -0.042036   0.003730  -0.000250
    33  O    0.000025  -0.139372   0.004443  -0.004130  -0.002991   0.730408
              25         26         27         28         29         30
     1  C   -0.000076   0.000001  -0.000003   0.000174  -0.000010  -0.000011
     2  C   -0.000499  -0.000030   0.000042   0.000321   0.000101   0.000010
     3  C   -0.000022   0.000038  -0.000040   0.000213   0.000471  -0.000590
     4  C    0.000079   0.000000  -0.000002  -0.000019  -0.001144  -0.001741
     5  C    0.000006   0.000000  -0.000001  -0.000005  -0.000057   0.000333
     6  C   -0.000006   0.000000   0.000001   0.000002   0.000001   0.000022
     7  H    0.000001   0.000000   0.000000   0.000007   0.000000   0.000000
     8  H    0.000084  -0.000042   0.000022   0.000175   0.000004   0.000001
     9  H    0.000000   0.000000   0.000001   0.000002   0.000795   0.003402
    10  H    0.000000   0.000000   0.000000   0.000000   0.000011  -0.000041
    11  C    0.000564  -0.000008   0.000032  -0.000324  -0.000616   0.000643
    12  H    0.000045  -0.000015   0.000007  -0.000008   0.000034   0.000010
    13  H    0.000033  -0.000003   0.000000  -0.000001  -0.000157   0.000009
    14  C    0.007792  -0.000281  -0.000348   0.000912   0.011078  -0.001526
    15  H    0.002084   0.000075  -0.000214  -0.000412  -0.000606  -0.000170
    16  C   -0.000795  -0.000114   0.000395  -0.000115  -0.053920   0.003734
    17  O    0.000000   0.000000   0.000000   0.000000   0.000000   0.000000
    18  H    0.000000   0.000000   0.000000   0.000000   0.000000   0.000000
    19  O    0.000002   0.000000  -0.000002   0.000000   0.007304   0.003666
    20  N   -0.066596   0.001132  -0.002275   0.012950  -0.001940  -0.000100
    21  H   -0.002630   0.000324  -0.000206  -0.001792  -0.000047  -0.000070
    22  N   -0.000481  -0.000003   0.000249   0.000160   0.285346  -0.055751
    23  H    0.000369   0.000175  -0.000673  -0.000063  -0.030992   0.001111
    24  C    0.278345  -0.027072  -0.023096  -0.055337   0.000001   0.000141
    25  C    5.008199   0.391960   0.380655   0.394551  -0.000052   0.000000
    26  H    0.391960   0.556714  -0.023204  -0.025310  -0.000002   0.000000
    27  H    0.380655  -0.023204   0.574742  -0.026535   0.000022   0.000003
    28  H    0.394551  -0.025310  -0.026535   0.593980   0.000006   0.000001
    29  C   -0.000052  -0.000002   0.000022   0.000006   4.766329   0.395092
    30  H    0.000000   0.000000   0.000003   0.000001   0.395092   0.620990
    31  H   -0.000013   0.000000   0.000018   0.000001   0.395082  -0.028038
    32  H   -0.000007   0.000000   0.000000  -0.000001   0.403305  -0.053877
    33  O   -0.071679   0.001529   0.001378   0.004388   0.000107   0.000000
              31         32         33
     1  C   -0.000002   0.000000   0.000000
     2  C    0.000010   0.000004  -0.000011
     3  C    0.000002   0.000091  -0.000257
     4  C   -0.000096   0.000197   0.000008
     5  C   -0.000015  -0.000016   0.000000
     6  C    0.000002  -0.000001   0.000000
     7  H    0.000000   0.000000   0.000000
     8  H    0.000000   0.000000  -0.000019
     9  H    0.000087  -0.000326  -0.000001
    10  H   -0.000005   0.000002   0.000000
    11  C   -0.000025  -0.000256   0.000779
    12  H    0.000000  -0.000002   0.000050
    13  H   -0.000010  -0.000026  -0.000003
    14  C    0.000661   0.001324   0.003754
    15  H   -0.000009   0.000191   0.022247
    16  C    0.007822  -0.010435   0.001887
    17  O    0.000000   0.000000   0.000000
    18  H    0.000000   0.000000   0.000000
    19  O    0.001548   0.006180   0.000025
    20  N   -0.000202  -0.000203  -0.139372
    21  H    0.000009   0.000033   0.004443
    22  N   -0.027218  -0.042036  -0.004130
    23  H   -0.007664   0.003730  -0.002991
    24  C   -0.000048  -0.000250   0.730408
    25  C   -0.000013  -0.000007  -0.071679
    26  H    0.000000   0.000000   0.001529
    27  H    0.000018   0.000000   0.001378
    28  H    0.000001  -0.000001   0.004388
    29  C    0.395082   0.403305   0.000107
    30  H   -0.028038  -0.053877   0.000000
    31  H    0.597610  -0.026101   0.000013
    32  H   -0.026101   0.596573   0.000103
    33  O    0.000013   0.000103   7.830787
 Mulliken charges:
               1
     1  C   -0.237400
     2  C   -0.296657
     3  C    0.128329
     4  C   -0.242554
     5  C   -0.157452
     6  C    0.288260
     7  H    0.120581
     8  H    0.178142
     9  H    0.191494
    10  H    0.127603
    11  C   -0.367107
    12  H    0.183370
    13  H    0.196882
    14  C   -0.034254
    15  H    0.197538
    16  C    0.205773
    17  O   -0.290292
    18  H    0.188347
    19  O   -0.395590
    20  N   -0.266999
    21  H    0.196419
    22  N   -0.113695
    23  H    0.149506
    24  C    0.264275
    25  C   -0.321915
    26  H    0.124136
    27  H    0.119035
    28  H    0.102081
    29  C   -0.175547
    30  H    0.112749
    31  H    0.086579
    32  H    0.121806
    33  O   -0.383441
 Sum of Mulliken charges =   0.00000
 Mulliken charges with hydrogens summed into heavy atoms:
               1
     1  C   -0.116820
     2  C   -0.118515
     3  C    0.128329
     4  C   -0.051061
     5  C   -0.029848
     6  C    0.288260
    11  C    0.013145
    14  C    0.163283
    16  C    0.205773
    17  O   -0.101944
    19  O   -0.395590
    20  N   -0.070580
    22  N    0.035812
    24  C    0.264275
    25  C    0.023336
    29  C    0.145586
    33  O   -0.383441
 Electronic spatial extent (au):  <R**2>=           4537.8711
 Charge=              0.0000 electrons
 Dipole moment (field-independent basis, Debye):
    X=              4.2884    Y=             -4.0468    Z=             -3.0745  Tot=              6.6497
 Quadrupole moment (field-independent basis, Debye-Ang):
   XX=           -114.0861   YY=            -95.3308   ZZ=            -96.6009
   XY=             -5.2287   XZ=              5.3559   YZ=             -4.2084
 Traceless Quadrupole moment (field-independent basis, Debye-Ang):
   XX=            -12.0802   YY=              6.6751   ZZ=              5.4050
   XY=             -5.2287   XZ=              5.3559   YZ=             -4.2084
 Octapole moment (field-independent basis, Debye-Ang**2):
  XXX=             92.4480  YYY=            -30.5753  ZZZ=            -12.6335  XYY=             20.2019
  XXY=            -30.3191  XXZ=            -24.8473  XZZ=            -18.4408  YZZ=             -4.2025
  YYZ=            -29.3792  XYZ=             15.7854
 Hexadecapole moment (field-independent basis, Debye-Ang**3):
 XXXX=          -3721.7210 YYYY=          -1525.9713 ZZZZ=           -727.1590 XXXY=           -289.9001
 XXXZ=            -48.0615 YYYX=             39.9596 YYYZ=            -42.3784 ZZZX=             -6.6013
 ZZZY=             -5.7849 XXYY=           -765.8059 XXZZ=           -718.1950 YYZZ=           -378.6941
 XXYZ=             38.6189 YYXZ=             23.3478 ZZXY=             -3.8992
 N-N= 1.230169382433D+03 E-N=-4.330290794200D+03  KE= 7.962004048290D+02
 Calculating spin-rotation constants.
 Leave Link  601 at Wed Jun 25 07:01:55 2014, MaxMem=  4294967296 cpu:        93.8
 (Enter /home/ztw1e12/g09/l9999.exe)

 Test job not archived.
 1\1\GINC-GREEN0519\SP\RM06\Gen\C12H16N2O3\ROOT\25-Jun-2014\0\\#P Geom=
 AllCheck Guess=TCheck SCRF=Check GenChk RM06/ChkBas NMR=ReadFC IOp(3/6
 =22)\\NMR spin-spin scan\\0,1\C,0,3.124106,0.127558,0.246506\C,0,2.150
 571,-0.152473,-0.697728\C,0,1.089738,-1.004307,-0.414454\C,0,1.033298,
 -1.576876,0.854548\C,0,1.995647,-1.307671,1.807763\C,0,3.044542,-0.450
 729,1.50322\H,0,3.949958,0.789653,0.013196\H,0,2.221246,0.296179,-1.68
 3\H,0,0.22324,-2.257334,1.097149\H,0,1.952052,-1.759591,2.790523\C,0,0
 .027184,-1.283348,-1.434467\H,0,0.424488,-1.096566,-2.433976\H,0,-0.28
 0195,-2.328972,-1.398816\C,0,-1.236023,-0.430667,-1.270695\H,0,-1.8721
 49,-0.589477,-2.144201\C,0,-2.053136,-0.938878,-0.090683\O,0,3.972592,
 -0.218865,2.472417\H,0,4.648215,0.378818,2.132987\O,0,-2.478573,-2.093
 988,-0.105948\N,0,-0.907433,0.972928,-1.197754\H,0,0.005775,1.237363,-
 0.855987\N,0,-2.274557,-0.104224,0.92373\H,0,-1.894738,0.827513,0.8810
 46\C,0,-1.761371,1.944222,-1.581577\C,0,-1.25956,3.345489,-1.465081\H,
 0,-1.311561,3.818285,-2.445554\H,0,-1.923112,3.89999,-0.801611\H,0,-0.
 241506,3.408736,-1.087624\C,0,-3.009087,-0.523033,2.095253\H,0,-2.4968
 51,-1.340851,2.605156\H,0,-3.093927,0.316588,2.77809\H,0,-4.009921,-0.
 861129,1.826665\O,0,-2.888107,1.693187,-2.000225\\Version=EM64L-G09Rev
 D.01\State=1-A\HF=-801.8679429\RMSD=4.157e-09\Dipole=2.0020934,1.54313
 09,0.6744868\Quadrupole=-2.1389602,0.7311649,1.4077953,2.3437808,-9.51
 44611,1.3837222\PG=C01 [X(C12H16N2O3)]\\@


 ERWIN WITH HIS PSI CAN DO
 CALCULATIONS QUITE A FEW.
 BUT ONE THING HAS NOT BEEN SEEN
 JUST WHAT DOES PSI REALLY MEAN.
 -- WALTER HUCKEL, TRANS. BY FELIX BLOCH
 Job cpu time:       3 days 12 hours  8 minutes 41.1 seconds.
 File lengths (MBytes):  RWF=   3656 Int=      0 D2E=      0 Chk=     64 Scr=      8
 Normal termination of Gaussian 09 at Wed Jun 25 07:01:56 2014.
