 Entering Gaussian System, Link 0=g09
 Input=scan_input_33.gjf
 Output=scan_input_33.log
 Initial command:
 /home/ztw1e12/g09/l1.exe "/home/ztw1e12/tyrosine_scan/tyrosine_chi1_scan/Gau-30486.inp" -scrdir="/home/ztw1e12/tyrosine_scan/tyrosine_chi1_scan/"
 Default is to use a total of   8 processors:
                                8 via shared-memory
                                1 via Linda
 Entering Link 1 = /home/ztw1e12/g09/l1.exe PID=     30487.
  
 Copyright (c) 1988,1990,1992,1993,1995,1998,2003,2009,2013,
            Gaussian, Inc.  All Rights Reserved.
  
 This is part of the Gaussian(R) 09 program.  It is based on
 the Gaussian(R) 03 system (copyright 2003, Gaussian, Inc.),
 the Gaussian(R) 98 system (copyright 1998, Gaussian, Inc.),
 the Gaussian(R) 94 system (copyright 1995, Gaussian, Inc.),
 the Gaussian 92(TM) system (copyright 1992, Gaussian, Inc.),
 the Gaussian 90(TM) system (copyright 1990, Gaussian, Inc.),
 the Gaussian 88(TM) system (copyright 1988, Gaussian, Inc.),
 the Gaussian 86(TM) system (copyright 1986, Carnegie Mellon
 University), and the Gaussian 82(TM) system (copyright 1983,
 Carnegie Mellon University). Gaussian is a federally registered
 trademark of Gaussian, Inc.
  
 This software contains proprietary and confidential information,
 including trade secrets, belonging to Gaussian, Inc.
  
 This software is provided under written license and may be
 used, copied, transmitted, or stored only in accord with that
 written license.
  
 The following legend is applicable only to US Government
 contracts under FAR:
  
                    RESTRICTED RIGHTS LEGEND
  
 Use, reproduction and disclosure by the US Government is
 subject to restrictions as set forth in subparagraphs (a)
 and (c) of the Commercial Computer Software - Restricted
 Rights clause in FAR 52.227-19.
  
 Gaussian, Inc.
 340 Quinnipiac St., Bldg. 40, Wallingford CT 06492
  
  
 ---------------------------------------------------------------
 Warning -- This program may not be used in any manner that
 competes with the business of Gaussian, Inc. or will provide
 assistance to any competitor of Gaussian, Inc.  The licensee
 of this program is prohibited from giving any competitor of
 Gaussian, Inc. access to this program.  By using this program,
 the user acknowledges that Gaussian, Inc. is engaged in the
 business of creating and licensing software in the field of
 computational chemistry and represents and warrants to the
 licensee that it is not a competitor of Gaussian, Inc. and that
 it will not use this program in any manner prohibited above.
 ---------------------------------------------------------------
  

 Cite this work as:
 Gaussian 09, Revision D.01,
 M. J. Frisch, G. W. Trucks, H. B. Schlegel, G. E. Scuseria, 
 M. A. Robb, J. R. Cheeseman, G. Scalmani, V. Barone, B. Mennucci, 
 G. A. Petersson, H. Nakatsuji, M. Caricato, X. Li, H. P. Hratchian, 
 A. F. Izmaylov, J. Bloino, G. Zheng, J. L. Sonnenberg, M. Hada, 
 M. Ehara, K. Toyota, R. Fukuda, J. Hasegawa, M. Ishida, T. Nakajima, 
 Y. Honda, O. Kitao, H. Nakai, T. Vreven, J. A. Montgomery, Jr., 
 J. E. Peralta, F. Ogliaro, M. Bearpark, J. J. Heyd, E. Brothers, 
 K. N. Kudin, V. N. Staroverov, T. Keith, R. Kobayashi, J. Normand, 
 K. Raghavachari, A. Rendell, J. C. Burant, S. S. Iyengar, J. Tomasi, 
 M. Cossi, N. Rega, J. M. Millam, M. Klene, J. E. Knox, J. B. Cross, 
 V. Bakken, C. Adamo, J. Jaramillo, R. Gomperts, R. E. Stratmann, 
 O. Yazyev, A. J. Austin, R. Cammi, C. Pomelli, J. W. Ochterski, 
 R. L. Martin, K. Morokuma, V. G. Zakrzewski, G. A. Voth, 
 P. Salvador, J. J. Dannenberg, S. Dapprich, A. D. Daniels, 
 O. Farkas, J. B. Foresman, J. V. Ortiz, J. Cioslowski, 
 and D. J. Fox, Gaussian, Inc., Wallingford CT, 2013.
 
 ******************************************
 Gaussian 09:  EM64L-G09RevD.01 24-Apr-2013
                25-Jun-2014 
 ******************************************
 %Mem=32GB
 %NProcShared=16
 Will use up to   16 processors via shared memory.
 Default route:  MaxDisk=100GB
 ----------------------------------------------------------------------
 #p nmr=(giao,mixed,spinspin) m06/cc-pvtz scf=tight integral=(grid=ultr
 afine)
 ----------------------------------------------------------------------
 1/38=1/1;
 2/12=2,17=6,18=5,40=1/2;
 3/5=16,6=1,10=1100000,11=2,16=1,25=1,30=1,74=-54,75=-5/1,2,8,3;
 4//1;
 5/5=2,32=2,38=5/2;
 8/6=1,10=90,11=11/1;
 10/13=100,45=16,47=3/2;
 6/7=2,8=2,9=2,10=2,28=1/1;
 99/9=1/99;
 Leave Link    1 at Wed Jun 25 04:33:42 2014, MaxMem=  4294967296 cpu:         8.4
 (Enter /home/ztw1e12/g09/l101.exe)
 ------------------
 NMR spin-spin scan
 ------------------
 Symbolic Z-matrix:
 Charge =  0 Multiplicity = 1
 C                     2.08029  -2.79886   1.24934 
 C                     1.47211  -1.57183   1.43355 
 C                     1.48794  -0.60209   0.43764 
 C                     2.12914  -0.89986  -0.75789 
 C                     2.74354  -2.12376  -0.95893 
 C                     2.7194   -3.0753    0.04821 
 H                     2.06942  -3.54812   2.03263 
 H                     0.9749   -1.35696   2.37398 
 H                     2.15367  -0.15529  -1.54623 
 H                     3.24634  -2.35201  -1.89017 
 C                     0.80336   0.71255   0.65446 
 H                     1.04989   1.09012   1.64948 
 H                     1.14614   1.45834  -0.06822 
 C                    -0.72004   0.60629   0.56812 
 H                    -1.05162  -0.29504   1.09208 
 C                    -1.33711   1.76302   1.33599 
 O                     3.33928  -4.26608  -0.18665 
 H                     3.25817  -4.82966   0.59116 
 O                    -1.34037   1.73322   2.56608 
 N                    -1.12379   0.53709  -0.81816 
 H                    -0.42086   0.67543  -1.52937 
 N                    -1.8017    2.79595   0.63475 
 H                    -1.80875   2.73522  -0.37067 
 C                    -2.3499    0.11206  -1.18715 
 C                    -2.59697  -0.00922  -2.65386 
 H                    -2.83099  -1.04908  -2.88237 
 H                    -3.47107   0.58689  -2.91385 
 H                    -1.75025   0.30793  -3.25888 
 C                    -2.38151   3.94943   1.28402 
 H                    -1.6471    4.45708   1.90971 
 H                    -2.73101   4.64195   0.52459 
 H                    -3.2252    3.66315   1.91243 
 O                    -3.21452  -0.15504  -0.35695 
 
 NAtoms=     33 NQM=       33 NQMF=       0 NMMI=      0 NMMIF=      0
                NMic=       0 NMicF=      0.
                    Isotopes and Nuclear Properties:
 (Nuclear quadrupole moments (NQMom) in fm**2, nuclear magnetic moments (NMagM)
  in nuclear magnetons)

  Atom         1           2           3           4           5           6           7           8           9          10
 IAtWgt=          12          12          12          12          12          12           1           1           1           1
 AtmWgt=  12.0000000  12.0000000  12.0000000  12.0000000  12.0000000  12.0000000   1.0078250   1.0078250   1.0078250   1.0078250
 NucSpn=           0           0           0           0           0           0           1           1           1           1
 AtZEff=   0.0000000   0.0000000   0.0000000   0.0000000   0.0000000   0.0000000   0.0000000   0.0000000   0.0000000   0.0000000
 NQMom=    0.0000000   0.0000000   0.0000000   0.0000000   0.0000000   0.0000000   0.0000000   0.0000000   0.0000000   0.0000000
 NMagM=    0.0000000   0.0000000   0.0000000   0.0000000   0.0000000   0.0000000   2.7928460   2.7928460   2.7928460   2.7928460
 AtZNuc=   6.0000000   6.0000000   6.0000000   6.0000000   6.0000000   6.0000000   1.0000000   1.0000000   1.0000000   1.0000000

  Atom        11          12          13          14          15          16          17          18          19          20
 IAtWgt=          12           1           1          12           1          12          16           1          16          14
 AtmWgt=  12.0000000   1.0078250   1.0078250  12.0000000   1.0078250  12.0000000  15.9949146   1.0078250  15.9949146  14.0030740
 NucSpn=           0           1           1           0           1           0           0           1           0           2
 AtZEff=   0.0000000   0.0000000   0.0000000   0.0000000   0.0000000   0.0000000   0.0000000   0.0000000   0.0000000   0.0000000
 NQMom=    0.0000000   0.0000000   0.0000000   0.0000000   0.0000000   0.0000000   0.0000000   0.0000000   0.0000000   2.0440000
 NMagM=    0.0000000   2.7928460   2.7928460   0.0000000   2.7928460   0.0000000   0.0000000   2.7928460   0.0000000   0.4037610
 AtZNuc=   6.0000000   1.0000000   1.0000000   6.0000000   1.0000000   6.0000000   8.0000000   1.0000000   8.0000000   7.0000000

  Atom        21          22          23          24          25          26          27          28          29          30
 IAtWgt=           1          14           1          12          12           1           1           1          12           1
 AtmWgt=   1.0078250  14.0030740   1.0078250  12.0000000  12.0000000   1.0078250   1.0078250   1.0078250  12.0000000   1.0078250
 NucSpn=           1           2           1           0           0           1           1           1           0           1
 AtZEff=   0.0000000   0.0000000   0.0000000   0.0000000   0.0000000   0.0000000   0.0000000   0.0000000   0.0000000   0.0000000
 NQMom=    0.0000000   2.0440000   0.0000000   0.0000000   0.0000000   0.0000000   0.0000000   0.0000000   0.0000000   0.0000000
 NMagM=    2.7928460   0.4037610   2.7928460   0.0000000   0.0000000   2.7928460   2.7928460   2.7928460   0.0000000   2.7928460
 AtZNuc=   1.0000000   7.0000000   1.0000000   6.0000000   6.0000000   1.0000000   1.0000000   1.0000000   6.0000000   1.0000000

  Atom        31          32          33
 IAtWgt=           1           1          16
 AtmWgt=   1.0078250   1.0078250  15.9949146
 NucSpn=           1           1           0
 AtZEff=   0.0000000   0.0000000   0.0000000
 NQMom=    0.0000000   0.0000000   0.0000000
 NMagM=    2.7928460   2.7928460   0.0000000
 AtZNuc=   1.0000000   1.0000000   8.0000000
 Leave Link  101 at Wed Jun 25 04:33:43 2014, MaxMem=  4294967296 cpu:         1.9
 (Enter /home/ztw1e12/g09/l202.exe)
                          Input orientation:                          
 ---------------------------------------------------------------------
 Center     Atomic      Atomic             Coordinates (Angstroms)
 Number     Number       Type             X           Y           Z
 ---------------------------------------------------------------------
      1          6           0        2.080293   -2.798858    1.249336
      2          6           0        1.472110   -1.571825    1.433552
      3          6           0        1.487943   -0.602086    0.437642
      4          6           0        2.129143   -0.899864   -0.757885
      5          6           0        2.743541   -2.123764   -0.958931
      6          6           0        2.719396   -3.075298    0.048209
      7          1           0        2.069423   -3.548120    2.032633
      8          1           0        0.974903   -1.356956    2.373976
      9          1           0        2.153670   -0.155290   -1.546230
     10          1           0        3.246341   -2.352008   -1.890165
     11          6           0        0.803358    0.712554    0.654458
     12          1           0        1.049888    1.090124    1.649475
     13          1           0        1.146139    1.458340   -0.068220
     14          6           0       -0.720043    0.606294    0.568122
     15          1           0       -1.051622   -0.295038    1.092077
     16          6           0       -1.337105    1.763020    1.335985
     17          8           0        3.339278   -4.266079   -0.186647
     18          1           0        3.258171   -4.829663    0.591162
     19          8           0       -1.340373    1.733224    2.566079
     20          7           0       -1.123791    0.537092   -0.818160
     21          1           0       -0.420859    0.675428   -1.529372
     22          7           0       -1.801699    2.795951    0.634745
     23          1           0       -1.808750    2.735217   -0.370665
     24          6           0       -2.349900    0.112056   -1.187151
     25          6           0       -2.596973   -0.009221   -2.653863
     26          1           0       -2.830988   -1.049076   -2.882367
     27          1           0       -3.471067    0.586889   -2.913852
     28          1           0       -1.750246    0.307925   -3.258876
     29          6           0       -2.381512    3.949426    1.284019
     30          1           0       -1.647099    4.457076    1.909714
     31          1           0       -2.731011    4.641950    0.524587
     32          1           0       -3.225199    3.663151    1.912426
     33          8           0       -3.214517   -0.155035   -0.356945
 ---------------------------------------------------------------------
                    Distance matrix (angstroms):
                    1          2          3          4          5
     1  C    0.000000
     2  C    1.381822   0.000000
     3  C    2.415685   1.390137   0.000000
     4  C    2.763603   2.384454   1.388918   0.000000
     5  C    2.402518   2.764986   2.417115   1.384137   0.000000
     6  C    1.388372   2.394855   2.790146   2.393888   1.385760
     7  H    1.084005   2.149749   3.400181   3.847573   3.381225
     8  H    2.136769   1.085256   2.140661   3.368940   3.850239
     9  H    3.848250   3.369005   2.139759   1.084657   2.137231
    10  H    3.378729   3.847555   3.401893   2.153813   1.082636
    11  C    3.783445   2.504517   1.497980   2.520379   3.796318
    12  H    4.043022   2.703861   2.126971   3.304576   4.472283
    13  H    4.553277   3.397569   2.148972   2.646330   4.022006
    14  C    4.461053   3.209160   2.520399   3.484920   4.667068
    15  H    4.012822   2.848862   2.640446   3.729000   4.685524
    16  C    5.700601   4.361468   3.792314   4.846660   6.084850
    17  O    2.408283   3.656551   4.152351   3.622450   2.353899
    18  H    2.438188   3.809612   4.585813   4.305572   3.160620
    19  O    5.828768   4.485089   4.240671   5.478999   6.631772
    20  N    5.066484   4.031928   3.113827   3.556692   4.696406
    21  H    5.103689   4.172816   3.024022   3.095036   4.263133
    22  N    6.837359   5.516646   4.733630   5.572251   6.884955
    23  H    6.955217   5.707000   4.760161   5.373151   6.684243
    24  C    5.834081   4.930649   4.228355   4.611949   5.567236
    25  C    6.700288   5.975461   5.157076   5.169541   5.988754
    26  H    6.652322   6.116950   5.465842   5.398017   5.994158
    27  H    7.720947   6.927840   6.102291   6.182312   7.056253
    28  H    6.681999   5.994658   4.997823   4.771097   5.603301
    29  C    8.090009   6.734759   6.033680   6.930440   8.257156
    30  H    8.184017   6.804693   6.131118   7.076220   8.415123
    31  H    8.890418   7.556682   6.731051   7.481814   8.828728
    32  H    8.387222   7.049752   6.525407   7.524669   8.795393
    33  O    6.132288   5.213218   4.790026   5.410196   6.303708
                    6          7          8          9         10
     6  C    0.000000
     7  H    2.141019   0.000000
     8  H    3.377151   2.472992   0.000000
     9  H    3.374719   4.932206   4.266323   0.000000
    10  H    2.134974   4.266634   4.932794   2.477457   0.000000
    11  C    4.287955   4.653561   2.696116   2.723880   4.672774
    12  H    4.764667   4.764406   2.553179   3.603043   5.403862
    13  H    4.800267   5.507330   3.730889   2.409032   4.716893
    14  C    5.064995   5.213930   3.160427   3.648112   5.525118
    15  H    4.800009   4.605226   2.622544   4.153804   5.621155
    16  C    6.443826   6.348067   4.019584   4.916562   6.953379
    17  O    1.362854   2.655786   4.539830   4.489178   2.564036
    18  H    1.913863   2.265682   4.522326   5.257198   3.506551
    19  O    6.778147   6.309031   3.866086   5.717159   7.588490
    20  N    5.345095   5.917144   4.263997   3.428007   5.347350
    21  H    5.139835   6.060342   4.616802   2.705287   4.769056
    22  N    7.433431   7.562203   5.289715   5.395500   7.639330
    23  H    7.378458   7.765075   5.659298   5.043586   7.330940
    24  C    6.114172   6.579841   5.088609   4.525766   6.154978
    25  C    6.705654   7.500820   6.312991   4.880245   6.341625
    26  H    6.595500   7.376752   6.496825   5.237455   6.294126
    27  H    7.778641   8.500767   7.176790   5.835999   7.403284
    28  H    6.508510   7.580173   6.475128   4.288156   5.823615
    29  C    8.768879   8.751254   6.372693   6.739946   9.025311
    30  H    8.903266   8.826710   6.394795   6.903862   9.205893
    31  H    9.459904   9.612264   7.289781   7.152755   9.511846
    32  H    9.177157   8.947061   6.561658   7.448156   9.618870
    33  O    6.625965   6.718864   5.143324   5.498348   6.994293
                   11         12         13         14         15
    11  C    0.000000
    12  H    1.092426   0.000000
    13  H    1.093599   1.759353   0.000000
    14  C    1.529541   2.129806   2.147917   0.000000
    15  H    2.155853   2.577928   3.041509   1.094017   0.000000
    16  C    2.479827   2.499760   2.868993   1.519340   2.092031
    17  O    5.650233   6.107500   6.131301   6.386531   6.056757
    18  H    6.061871   6.406280   6.665917   6.736197   6.275990
    19  O    3.048220   2.639524   3.632882   2.376260   2.523867
    20  N    2.431727   3.334658   2.561970   1.445538   2.084863
    21  H    2.503837   3.527058   2.281096   2.119852   2.865600
    22  N    3.335754   3.474345   3.312569   2.443157   3.213406
    23  H    3.459068   3.867701   3.233150   2.568836   3.448957
    24  C    3.700697   4.534493   3.909831   2.445749   2.654455
    25  C    4.798770   5.746901   4.780185   3.779274   4.062249
    26  H    5.368514   6.338373   5.479425   4.370608   4.419380
    27  H    5.569501   6.443309   5.493236   4.437640   4.762245
    28  H    4.690288   5.704778   4.460133   3.974450   4.447745
    29  C    4.584439   4.481481   4.525305   3.801252   4.452070
    30  H    4.647779   4.321785   4.550475   4.181845   4.858571
    31  H    5.286661   5.308111   5.051642   4.509147   5.245593
    32  H    5.149541   4.996597   5.281358   4.174606   4.589626
    33  O    4.233080   4.874556   4.658504   2.767268   2.607179
                   16         17         18         19         20
    16  C    0.000000
    17  O    7.780553   0.000000
    18  H    8.070613   0.963946   0.000000
    19  O    1.230459   8.091247   8.253387   0.000000
    20  N    2.487718   6.586975   7.070349   3.595930   0.000000
    21  H    3.198849   6.352955   6.952550   4.328644   1.009491
    22  N    1.332115   8.773631   9.151731   2.252168   2.770007
    23  H    2.019968   8.692192   9.155665   3.138126   2.345458
    24  C    3.180826   7.248160   7.683322   4.211183   1.349131
    25  C    4.543896   7.710193   8.249216   5.644728   2.416305
    26  H    5.285269   7.462452   7.964678   6.296721   3.113102
    27  H    4.898795   8.796007   9.322382   5.990291   3.147079
    28  H    4.837431   7.500890   8.142594   6.010788   2.530229
    29  C    2.423604  10.118538  10.457460   2.763910   4.200600
    30  H    2.771858  10.264118  10.585073   2.818557   4.804313
    31  H    3.299936  10.803113  11.206524   3.816052   4.608252
    32  H    2.740015  10.505768  10.766045   2.775689   4.652339
    33  O    3.173267   7.738340   8.040320   3.952468   2.250088
                   21         22         23         24         25
    21  H    0.000000
    22  N    3.329676   0.000000
    23  H    2.740725   1.007267   0.000000
    24  C    2.038554   3.289851   2.800083   0.000000
    25  C    2.543363   4.395042   3.655985   1.492313   0.000000
    26  H    3.257795   5.311661   4.655587   2.110315   1.090081
    27  H    3.350879   4.501032   3.721077   2.112813   1.089487
    28  H    2.212128   4.620953   3.773186   2.165639   1.087920
    29  C    4.741138   1.445076   2.130807   4.564328   5.587864
    30  H    5.256600   2.099710   2.862002   5.381793   6.455719
    31  H    5.028802   2.069654   2.299494   4.857492   5.635060
    32  H    5.351335   2.100204   2.842515   4.794142   5.893384
    33  O    3.141461   3.418746   3.214020   1.228064   2.382951
                   26         27         28         29         30
    26  H    0.000000
    27  H    1.757007   0.000000
    28  H    1.775166   1.777101   0.000000
    29  C    6.522716   5.487796   5.856357   0.000000
    30  H    7.394819   6.447635   6.628757   1.090213   0.000000
    31  H    6.633635   5.367873   5.836117   1.085576   1.768508
    32  H    6.734280   5.728595   6.338406   1.090255   1.766557
    33  O    2.706319   2.674704   3.283234   4.498140   5.372719
                   31         32         33
    31  H    0.000000
    32  H    1.768719   0.000000
    33  O    4.901218   4.441700   0.000000
 Stoichiometry    C12H16N2O3
 Framework group  C1[X(C12H16N2O3)]
 Deg. of freedom    93
 Full point group                 C1      NOp   1
 Largest Abelian subgroup         C1      NOp   1
 Largest concise Abelian subgroup C1      NOp   1
                         Standard orientation:                         
 ---------------------------------------------------------------------
 Center     Atomic      Atomic             Coordinates (Angstroms)
 Number     Number       Type             X           Y           Z
 ---------------------------------------------------------------------
      1          6           0       -3.362866   -0.897980    0.947603
      2          6           0       -2.051841   -1.219686    0.652392
      3          6           0       -1.424403   -0.719545   -0.482800
      4          6           0       -2.149745    0.121969   -1.316363
      5          6           0       -3.463786    0.454186   -1.035717
      6          6           0       -4.071805   -0.058180    0.099239
      7          1           0       -3.847847   -1.296611    1.831318
      8          1           0       -1.500116   -1.877996    1.315723
      9          1           0       -1.677914    0.520765   -2.207889
     10          1           0       -4.028467    1.107004   -1.689219
     11          6           0        0.004291   -1.066855   -0.769427
     12          1           0        0.156548   -2.136760   -0.609694
     13          1           0        0.258615   -0.856395   -1.812013
     14          6           0        0.986122   -0.322946    0.137273
     15          1           0        0.601974   -0.317480    1.161613
     16          6           0        2.285013   -1.108391    0.203262
     17          8           0       -5.367854    0.288887    0.338343
     18          1           0       -5.671472   -0.139412    1.146779
     19          8           0        2.333256   -2.132723    0.883295
     20          7           0        1.142468    1.036414   -0.328853
     21          1           0        0.712179    1.295067   -1.204651
     22          7           0        3.308785   -0.677827   -0.532290
     23          1           0        3.215334    0.192582   -1.030529
     24          6           0        1.673719    2.003584    0.447362
     25          6           0        1.679186    3.383213   -0.121489
     26          1           0        1.086870    4.029104    0.526788
     27          1           0        2.700552    3.762359   -0.115047
     28          1           0        1.282184    3.431304   -1.133243
     29          6           0        4.572889   -1.377814   -0.549658
     30          1           0        4.457634   -2.384540   -0.951881
     31          1           0        5.269968   -0.829686   -1.175846
     32          1           0        4.991109   -1.457439    0.454040
     33          8           0        2.131277    1.756174    1.559824
 ---------------------------------------------------------------------
 Rotational constants (GHZ):      0.7957969      0.2397484      0.2069792
 Leave Link  202 at Wed Jun 25 04:33:43 2014, MaxMem=  4294967296 cpu:         2.0
 (Enter /home/ztw1e12/g09/l301.exe)
 Standard basis: CC-pVTZ (5D, 7F)
 Converting basis for Fermi contact spin-spin IFCMod=1.
 AO basis functions are being uncontracted.
 Ernie: Thresh=  0.10000D-02 Tol=  0.10000D-05 Strict=F.
 There are  1305 symmetry adapted cartesian basis functions of A   symmetry.
 There are  1204 symmetry adapted basis functions of A   symmetry.
  1204 basis functions,  1305 primitive gaussians,  1305 cartesian basis functions
    63 alpha electrons       63 beta electrons
       nuclear repulsion energy      1198.1865905139 Hartrees.
 IExCor= 4235 DFT=T Ex+Corr=M06 ExCW=0 ScaHFX=  0.270000
 ScaDFX=  1.000000  1.000000  1.000000  1.000000 ScalE2=  1.000000  1.000000
 IRadAn= 199590 IRanWt=     -1 IRanGd=            0 ICorTp=0 IEmpDi=  4
 NAtoms=   33 NActive=   33 NUniq=   33 SFac= 1.00D+00 NAtFMM=   60 NAOKFM=F Big=F
 Integral buffers will be    131072 words long.
 Raffenetti 2 integral format.
 Two-electron integral symmetry is turned on.
 Leave Link  301 at Wed Jun 25 04:33:43 2014, MaxMem=  4294967296 cpu:         5.4
 (Enter /home/ztw1e12/g09/l302.exe)
 NPDir=0 NMtPBC=     1 NCelOv=     1 NCel=       1 NClECP=     1 NCelD=      1
         NCelK=      1 NCelE2=     1 NClLst=     1 CellRange=     0.0.
 One-electron integrals computed using PRISM.
 GSVD:  received Info=                   1 from GESDD.
 NBasis=  1204 RedAO= T EigKep=  2.61D-05  NBF=  1204
 NBsUse=  1068 1.00D-06 EigRej=  5.19D-15 NBFU=  1068
 Precomputing XC quadrature grid using
 IXCGrd= 4 IRadAn=      199590 IRanWt=          -1 IRanGd=           0 AccXCQ= 0.00D+00.
 Generated NRdTot=       0 NPtTot=           0 NUsed=           0 NTot=          32
 NSgBfM=   977   980   980   982   983 MxSgAt=    33 MxSgA2=    33.
 Leave Link  302 at Wed Jun 25 04:33:50 2014, MaxMem=  4294967296 cpu:        93.4
 (Enter /home/ztw1e12/g09/l308.exe)
 Leave Link  308 at Wed Jun 25 04:33:50 2014, MaxMem=  4294967296 cpu:         7.5
 (Enter /home/ztw1e12/g09/l303.exe)
 DipDrv:  MaxL=1.
 Leave Link  303 at Wed Jun 25 04:33:51 2014, MaxMem=  4294967296 cpu:         4.1
 (Enter /home/ztw1e12/g09/l401.exe)
 ExpMin= 1.03D-01 ExpMax= 1.38D+05 ExpMxC= 1.38D+05 IAcc=4 IRadAn=    199590 AccDes= 0.00D+00
 Harris functional with IExCor= 1009 and IRadAn=  199590 diagonalized for initial guess.
 HarFok:  IExCor= 1009 AccDes= 0.00D+00 IRadAn=    199590 IDoV= 1 UseB2=F ITyADJ=14
 ICtDFT=  3500011 ScaDFX=  1.000000  1.000000  1.000000  1.000000
 FoFCou: FMM=F IPFlag=           0 FMFlag=      100000 FMFlg1=           0
         NFxFlg=           0 DoJE=T BraDBF=F KetDBF=T FulRan=T
         wScrn=  0.000000 ICntrl=     500 IOpCl=  0 I1Cent=   200000004 NGrid=           0
         NMat0=    1 NMatS0=      1 NMatT0=    0 NMatD0=    1 NMtDS0=    0 NMtDT0=    0
 Petite list used in FoFCou.
 Harris En= -801.783785198004    
 JPrj=0 DoOrth=F DoCkMO=F.
 Leave Link  401 at Wed Jun 25 04:34:10 2014, MaxMem=  4294967296 cpu:       292.6
 (Enter /home/ztw1e12/g09/l502.exe)
 Closed shell SCF:
 Using DIIS extrapolation, IDIIS=  1040.
 Integral symmetry usage will be decided dynamically.
 IVT=     5158273 IEndB=     5158273 NGot=  4294967296 MDV=  4291529994
 LenX=  4291529994 LenY=  4289825664
 Requested convergence on RMS density matrix=1.00D-08 within 128 cycles.
 Requested convergence on MAX density matrix=1.00D-06.
 Requested convergence on             energy=1.00D-06.
 No special actions if energy rises.
 Fock matrices will be formed incrementally for  20 cycles.
 Integral accuracy reduced to 1.0D-05 until final iterations.

 Cycle   1  Pass 0  IDiag  1:
 FoFJK:  IHMeth= 1 ICntrl=       0 DoSepK=F KAlg= 0 I1Cent=   0 FoldK=F
 IRaf= 420000000 NMat=   1 IRICut=       1 DoRegI=T DoRafI=F ISym2E= 0.
 FoFCou: FMM=F IPFlag=           0 FMFlag=      100000 FMFlg1=           0
         NFxFlg=           0 DoJE=F BraDBF=F KetDBF=F FulRan=T
         wScrn=  0.000000 ICntrl=       0 IOpCl=  0 I1Cent=           0 NGrid=           0
         NMat0=    1 NMatS0=      1 NMatT0=    0 NMatD0=    1 NMtDS0=    0 NMtDT0=    0
 Symmetry not used in FoFCou.
 E= -801.461918675133    
 DIIS: error= 1.18D-01 at cycle   1 NSaved=   1.
 NSaved= 1 IEnMin= 1 EnMin= -801.461918675133     IErMin= 1 ErrMin= 1.18D-01
 ErrMax= 1.18D-01  0.00D+00 EMaxC= 1.00D-01 BMatC= 1.69D+01 BMatP= 1.69D+01
 IDIUse=3 WtCom= 0.00D+00 WtEn= 1.00D+00
 Coeff-Com:  0.100D+01
 Coeff-En:   0.100D+01
 Coeff:      0.100D+01
 Gap=     0.239 Goal=   None    Shift=    0.000
 GapD=    0.239 DampG=1.000 DampE=0.250 DampFc=0.2500 IDamp=-1.
 Damping current iteration by 2.50D-01
 RMSDP=2.37D-03 MaxDP=3.92D-01              OVMax= 3.06D-01

 Cycle   2  Pass 0  IDiag  1:
 RMSU=  5.89D-04    CP:  1.03D+00
 E= -801.620773680559     Delta-E=       -0.158855005425 Rises=F Damp=T
 DIIS: error= 8.89D-02 at cycle   2 NSaved=   2.
 NSaved= 2 IEnMin= 2 EnMin= -801.620773680559     IErMin= 2 ErrMin= 8.89D-02
 ErrMax= 8.89D-02  0.00D+00 EMaxC= 1.00D-01 BMatC= 1.00D+01 BMatP= 1.69D+01
 IDIUse=3 WtCom= 1.11D-01 WtEn= 8.89D-01
 Coeff-Com: -0.291D+01 0.391D+01
 Coeff-En:   0.000D+00 0.100D+01
 Coeff:     -0.323D+00 0.132D+01
 Gap=     0.264 Goal=   None    Shift=    0.000
 RMSDP=5.77D-04 MaxDP=8.58D-02 DE=-1.59D-01 OVMax= 1.79D-01

 Cycle   3  Pass 0  IDiag  1:
 RMSU=  5.11D-04    CP:  1.06D+00  1.43D+00
 E= -801.877477316848     Delta-E=       -0.256703636290 Rises=F Damp=F
 DIIS: error= 1.16D-02 at cycle   3 NSaved=   3.
 NSaved= 3 IEnMin= 3 EnMin= -801.877477316848     IErMin= 3 ErrMin= 1.16D-02
 ErrMax= 1.16D-02  0.00D+00 EMaxC= 1.00D-01 BMatC= 1.65D-01 BMatP= 1.00D+01
 IDIUse=3 WtCom= 8.84D-01 WtEn= 1.16D-01
 Coeff-Com:  0.166D+00-0.275D+00 0.111D+01
 Coeff-En:   0.000D+00 0.000D+00 0.100D+01
 Coeff:      0.147D+00-0.243D+00 0.110D+01
 Gap=     0.232 Goal=   None    Shift=    0.000
 RMSDP=4.11D-04 MaxDP=5.32D-02 DE=-2.57D-01 OVMax= 1.10D-01

 Cycle   4  Pass 0  IDiag  1:
 RMSU=  3.74D-04    CP:  1.05D+00  1.28D+00  7.25D-01
 E= -801.805278086571     Delta-E=        0.072199230278 Rises=F Damp=F
 DIIS: error= 8.89D-03 at cycle   4 NSaved=   4.
 NSaved= 4 IEnMin= 3 EnMin= -801.877477316848     IErMin= 4 ErrMin= 8.89D-03
 ErrMax= 8.89D-03  0.00D+00 EMaxC= 1.00D-01 BMatC= 1.45D-01 BMatP= 1.65D-01
 IDIUse=3 WtCom= 9.11D-01 WtEn= 8.89D-02
 Coeff-Com:  0.302D+00-0.433D+00 0.616D+00 0.516D+00
 Coeff-En:   0.000D+00 0.000D+00 0.725D+00 0.275D+00
 Coeff:      0.275D+00-0.394D+00 0.625D+00 0.494D+00
 Gap=     0.255 Goal=   None    Shift=    0.000
 RMSDP=3.14D-04 MaxDP=3.75D-02 DE= 7.22D-02 OVMax= 8.64D-02

 Cycle   5  Pass 0  IDiag  1:
 RMSU=  7.48D-05    CP:  1.06D+00  1.26D+00  8.97D-01  2.22D-01
 E= -801.912458462558     Delta-E=       -0.107180375987 Rises=F Damp=F
 DIIS: error= 1.77D-03 at cycle   5 NSaved=   5.
 NSaved= 5 IEnMin= 5 EnMin= -801.912458462558     IErMin= 5 ErrMin= 1.77D-03
 ErrMax= 1.77D-03  0.00D+00 EMaxC= 1.00D-01 BMatC= 8.12D-03 BMatP= 1.45D-01
 IDIUse=3 WtCom= 9.82D-01 WtEn= 1.77D-02
 Coeff-Com:  0.375D-01-0.535D-01 0.278D-01 0.190D+00 0.798D+00
 Coeff-En:   0.000D+00 0.000D+00 0.000D+00 0.000D+00 0.100D+01
 Coeff:      0.368D-01-0.526D-01 0.273D-01 0.187D+00 0.802D+00
 Gap=     0.222 Goal=   None    Shift=    0.000
 RMSDP=8.75D-05 MaxDP=1.24D-02 DE=-1.07D-01 OVMax= 2.39D-02

 Cycle   6  Pass 0  IDiag  1:
 RMSU=  3.50D-05    CP:  1.06D+00  1.28D+00  9.12D-01  3.95D-01  3.98D-01
 E= -801.916491779913     Delta-E=       -0.004033317355 Rises=F Damp=F
 DIIS: error= 1.76D-03 at cycle   6 NSaved=   6.
 NSaved= 6 IEnMin= 6 EnMin= -801.916491779913     IErMin= 6 ErrMin= 1.76D-03
 ErrMax= 1.76D-03  0.00D+00 EMaxC= 1.00D-01 BMatC= 1.61D-03 BMatP= 8.12D-03
 IDIUse=3 WtCom= 9.82D-01 WtEn= 1.76D-02
 Coeff-Com:  0.154D-01-0.211D-01-0.744D-02 0.811D-01 0.427D+00 0.505D+00
 Coeff-En:   0.000D+00 0.000D+00 0.000D+00 0.000D+00 0.183D+00 0.817D+00
 Coeff:      0.151D-01-0.207D-01-0.731D-02 0.797D-01 0.423D+00 0.510D+00
 Gap=     0.223 Goal=   None    Shift=    0.000
 RMSDP=3.51D-05 MaxDP=3.52D-03 DE=-4.03D-03 OVMax= 1.74D-02

 Cycle   7  Pass 0  IDiag  1:
 RMSU=  1.81D-05    CP:  1.06D+00  1.27D+00  9.07D-01  3.99D-01  6.15D-01
                    CP:  3.49D-01
 E= -801.917793974903     Delta-E=       -0.001302194989 Rises=F Damp=F
 DIIS: error= 7.75D-04 at cycle   7 NSaved=   7.
 NSaved= 7 IEnMin= 7 EnMin= -801.917793974903     IErMin= 7 ErrMin= 7.75D-04
 ErrMax= 7.75D-04  0.00D+00 EMaxC= 1.00D-01 BMatC= 1.97D-04 BMatP= 1.61D-03
 IDIUse=3 WtCom= 9.92D-01 WtEn= 7.75D-03
 Coeff-Com:  0.918D-02-0.121D-01-0.352D-02 0.197D-01 0.109D+00 0.279D+00
 Coeff-Com:  0.598D+00
 Coeff-En:   0.000D+00 0.000D+00 0.000D+00 0.000D+00 0.000D+00 0.111D+00
 Coeff-En:   0.889D+00
 Coeff:      0.911D-02-0.121D-01-0.349D-02 0.195D-01 0.108D+00 0.278D+00
 Coeff:      0.601D+00
 Gap=     0.223 Goal=   None    Shift=    0.000
 RMSDP=1.25D-05 MaxDP=1.71D-03 DE=-1.30D-03 OVMax= 6.38D-03

 Cycle   8  Pass 0  IDiag  1:
 RMSU=  6.91D-06    CP:  1.06D+00  1.27D+00  9.13D-01  4.05D-01  5.85D-01
                    CP:  5.92D-01  7.81D-01
 E= -801.917971179504     Delta-E=       -0.000177204601 Rises=F Damp=F
 DIIS: error= 1.91D-04 at cycle   8 NSaved=   8.
 NSaved= 8 IEnMin= 8 EnMin= -801.917971179504     IErMin= 8 ErrMin= 1.91D-04
 ErrMax= 1.91D-04  0.00D+00 EMaxC= 1.00D-01 BMatC= 1.68D-05 BMatP= 1.97D-04
 IDIUse=3 WtCom= 9.98D-01 WtEn= 1.91D-03
 Coeff-Com:  0.495D-02-0.657D-02-0.922D-03 0.672D-02 0.369D-01 0.127D+00
 Coeff-Com:  0.340D+00 0.492D+00
 Coeff-En:   0.000D+00 0.000D+00 0.000D+00 0.000D+00 0.000D+00 0.000D+00
 Coeff-En:   0.623D-02 0.994D+00
 Coeff:      0.494D-02-0.656D-02-0.920D-03 0.671D-02 0.368D-01 0.127D+00
 Coeff:      0.340D+00 0.492D+00
 Gap=     0.223 Goal=   None    Shift=    0.000
 RMSDP=3.72D-06 MaxDP=5.16D-04 DE=-1.77D-04 OVMax= 1.36D-03

 Initial convergence to 1.0D-05 achieved.  Increase integral accuracy.
 Cycle   9  Pass 1  IDiag  1:
 E= -801.917971466916     Delta-E=       -0.000000287412 Rises=F Damp=F
 DIIS: error= 3.16D-04 at cycle   1 NSaved=   1.
 NSaved= 1 IEnMin= 1 EnMin= -801.917971466916     IErMin= 1 ErrMin= 3.16D-04
 ErrMax= 3.16D-04  0.00D+00 EMaxC= 1.00D-01 BMatC= 2.36D-05 BMatP= 2.36D-05
 IDIUse=3 WtCom= 9.97D-01 WtEn= 3.16D-03
 Coeff-Com:  0.100D+01
 Coeff-En:   0.100D+01
 Coeff:      0.100D+01
 Gap=     0.223 Goal=   None    Shift=    0.000
 RMSDP=3.72D-06 MaxDP=5.16D-04 DE=-2.87D-07 OVMax= 6.84D-04

 Cycle  10  Pass 1  IDiag  1:
 RMSU=  1.59D-04    CP:  9.93D-01
 E= -801.917985120639     Delta-E=       -0.000013653723 Rises=F Damp=F
 DIIS: error= 4.38D-05 at cycle   2 NSaved=   2.
 NSaved= 2 IEnMin= 2 EnMin= -801.917985120639     IErMin= 2 ErrMin= 4.38D-05
 ErrMax= 4.38D-05  0.00D+00 EMaxC= 1.00D-01 BMatC= 1.92D-06 BMatP= 2.36D-05
 IDIUse=1 WtCom= 1.00D+00 WtEn= 0.00D+00
 Coeff-Com:  0.106D+00 0.894D+00
 Coeff:      0.106D+00 0.894D+00
 Gap=     0.223 Goal=   None    Shift=    0.000
 RMSDP=3.57D-06 MaxDP=4.56D-04 DE=-1.37D-05 OVMax= 1.01D-03

 Cycle  11  Pass 1  IDiag  1:
 RMSU=  2.66D-06    CP:  9.92D-01  1.01D+00
 E= -801.917983109824     Delta-E=        0.000002010815 Rises=F Damp=F
 DIIS: error= 7.37D-05 at cycle   3 NSaved=   3.
 NSaved= 3 IEnMin= 2 EnMin= -801.917985120639     IErMin= 2 ErrMin= 4.38D-05
 ErrMax= 7.37D-05  0.00D+00 EMaxC= 1.00D-01 BMatC= 3.98D-06 BMatP= 1.92D-06
 IDIUse=1 WtCom= 1.00D+00 WtEn= 0.00D+00
 Coeff-Com: -0.186D-02 0.592D+00 0.410D+00
 Coeff:     -0.186D-02 0.592D+00 0.410D+00
 Gap=     0.223 Goal=   None    Shift=    0.000
 RMSDP=1.66D-06 MaxDP=3.11D-04 DE= 2.01D-06 OVMax= 6.91D-04

 Cycle  12  Pass 1  IDiag  1:
 RMSU=  6.90D-07    CP:  9.93D-01  1.02D+00  4.46D-01
 E= -801.917986761196     Delta-E=       -0.000003651372 Rises=F Damp=F
 DIIS: error= 7.80D-06 at cycle   4 NSaved=   4.
 NSaved= 4 IEnMin= 4 EnMin= -801.917986761196     IErMin= 4 ErrMin= 7.80D-06
 ErrMax= 7.80D-06  0.00D+00 EMaxC= 1.00D-01 BMatC= 4.66D-08 BMatP= 1.92D-06
 IDIUse=1 WtCom= 1.00D+00 WtEn= 0.00D+00
 Coeff-Com: -0.278D-02 0.327D+00 0.236D+00 0.439D+00
 Coeff:     -0.278D-02 0.327D+00 0.236D+00 0.439D+00
 Gap=     0.223 Goal=   None    Shift=    0.000
 RMSDP=1.73D-07 MaxDP=2.22D-05 DE=-3.65D-06 OVMax= 6.52D-05

 Cycle  13  Pass 1  IDiag  1:
 RMSU=  1.49D-07    CP:  9.93D-01  1.02D+00  4.71D-01  9.26D-01
 E= -801.917986798294     Delta-E=       -0.000000037098 Rises=F Damp=F
 DIIS: error= 1.23D-06 at cycle   5 NSaved=   5.
 NSaved= 5 IEnMin= 5 EnMin= -801.917986798294     IErMin= 5 ErrMin= 1.23D-06
 ErrMax= 1.23D-06  0.00D+00 EMaxC= 1.00D-01 BMatC= 1.91D-09 BMatP= 4.66D-08
 IDIUse=1 WtCom= 1.00D+00 WtEn= 0.00D+00
 Coeff-Com: -0.113D-02 0.987D-01 0.732D-01 0.213D+00 0.616D+00
 Coeff:     -0.113D-02 0.987D-01 0.732D-01 0.213D+00 0.616D+00
 Gap=     0.223 Goal=   None    Shift=    0.000
 RMSDP=4.51D-08 MaxDP=4.23D-06 DE=-3.71D-08 OVMax= 6.80D-06

 Cycle  14  Pass 1  IDiag  1:
 RMSU=  2.83D-08    CP:  9.93D-01  1.02D+00  4.72D-01  9.66D-01  8.80D-01
 E= -801.917986799528     Delta-E=       -0.000000001234 Rises=F Damp=F
 DIIS: error= 3.68D-07 at cycle   6 NSaved=   6.
 NSaved= 6 IEnMin= 6 EnMin= -801.917986799528     IErMin= 6 ErrMin= 3.68D-07
 ErrMax= 3.68D-07  0.00D+00 EMaxC= 1.00D-01 BMatC= 1.72D-10 BMatP= 1.91D-09
 IDIUse=1 WtCom= 1.00D+00 WtEn= 0.00D+00
 Coeff-Com: -0.380D-03 0.280D-01 0.211D-01 0.753D-01 0.303D+00 0.573D+00
 Coeff:     -0.380D-03 0.280D-01 0.211D-01 0.753D-01 0.303D+00 0.573D+00
 Gap=     0.223 Goal=   None    Shift=    0.000
 RMSDP=2.07D-08 MaxDP=4.10D-06 DE=-1.23D-09 OVMax= 3.83D-06

 Cycle  15  Pass 1  IDiag  1:
 RMSU=  1.50D-08    CP:  9.93D-01  1.02D+00  4.72D-01  9.76D-01  9.34D-01
                    CP:  7.67D-01
 E= -801.917986799603     Delta-E=       -0.000000000075 Rises=F Damp=F
 DIIS: error= 2.27D-07 at cycle   7 NSaved=   7.
 NSaved= 7 IEnMin= 7 EnMin= -801.917986799603     IErMin= 7 ErrMin= 2.27D-07
 ErrMax= 2.27D-07  0.00D+00 EMaxC= 1.00D-01 BMatC= 6.43D-11 BMatP= 1.72D-10
 IDIUse=1 WtCom= 1.00D+00 WtEn= 0.00D+00
 Coeff-Com:  0.351D-04-0.681D-02-0.479D-02-0.414D-02 0.491D-01 0.398D+00
 Coeff-Com:  0.568D+00
 Coeff:      0.351D-04-0.681D-02-0.479D-02-0.414D-02 0.491D-01 0.398D+00
 Coeff:      0.568D+00
 Gap=     0.223 Goal=   None    Shift=    0.000
 RMSDP=8.25D-09 MaxDP=6.53D-07 DE=-7.50D-11 OVMax= 1.95D-06

 SCF Done:  E(RM06) =  -801.917986800     A.U. after   15 cycles
            NFock= 15  Conv=0.82D-08     -V/T= 2.0044
 KE= 7.983779568301D+02 PE=-4.268782197206D+03 EE= 1.470299663063D+03
 Leave Link  502 at Wed Jun 25 05:06:23 2014, MaxMem=  4294967296 cpu:     30849.5
 (Enter /home/ztw1e12/g09/l801.exe)
 DoSCS=F DFT=T ScalE2(SS,OS)=  1.000000  1.000000
 Range of M.O.s used for correlation:     1  1068
 NBasis=  1204 NAE=    63 NBE=    63 NFC=     0 NFV=     0
 NROrb=   1068 NOA=    63 NOB=    63 NVA=  1005 NVB=  1005

 **** Warning!!: The largest alpha MO coefficient is  0.23055230D+02

 Leave Link  801 at Wed Jun 25 05:06:23 2014, MaxMem=  4294967296 cpu:         0.4
 (Enter /home/ztw1e12/g09/l1002.exe)
 Minotr:  Closed shell wavefunction.
          IDoAtm=111111111111111111111111111111111
          Direct CPHF calculation.
          Differentiating once with respect to Fermi-contact.
          Electric field/nuclear overlap derivatives assumed to be zero.
          Requested convergence is 1.0D-10 RMS, and 1.0D-09 maximum.
          Secondary convergence is 1.0D-12 RMS, and 1.0D-12 maximum.
          NewPWx=T KeepS1=F KeepF1=F KeepIn=T MapXYZ=F SortEE=F KeepMc=T.
          MDV=    4294965894 using IRadAn=  199590.
 Using stored XC quadrature information.
          Solving linear equations simultaneously, MaxMat=       0.
          There are    33 degrees of freedom in the 1st order CPHF.  IDoFFX=0 NUNeed=    33.
     33 vectors produced by pass  0 Test12= 1.92D-17 3.03D-11 XBig12= 4.29D+01 2.58D+00.
 AX will form    33 AO Fock derivatives at one time.
 FoFJK:  IHMeth= 1 ICntrl=       0 DoSepK=F KAlg= 0 I1Cent=   0 FoldK=F
 IRaf= 440000000 NMat=  33 IRICut=       1 DoRegI=T DoRafI=F ISym2E=-1.
 FoFCou: FMM=F IPFlag=           0 FMFlag=      100000 FMFlg1=           0
         NFxFlg=           0 DoJE=F BraDBF=F KetDBF=F FulRan=T
         wScrn=  0.000000 ICntrl=       0 IOpCl=  0 I1Cent=           0 NGrid=           0
         NMat0=   33 NMatS0=      0 NMatT0=   33 NMatD0=   33 NMtDS0=    0 NMtDT0=    0
 Petite list used in FoFCou.
     33 vectors produced by pass  1 Test12= 1.92D-17 3.03D-11 XBig12= 3.46D-01 1.89D-01.
     33 vectors produced by pass  2 Test12= 1.92D-17 3.03D-11 XBig12= 1.52D-02 4.45D-02.
     33 vectors produced by pass  3 Test12= 1.92D-17 3.03D-11 XBig12= 3.42D-04 5.50D-03.
     33 vectors produced by pass  4 Test12= 1.92D-17 3.03D-11 XBig12= 7.04D-06 9.55D-04.
     33 vectors produced by pass  5 Test12= 1.92D-17 3.03D-11 XBig12= 1.45D-07 1.41D-04.
     33 vectors produced by pass  6 Test12= 1.92D-17 3.03D-11 XBig12= 4.27D-09 1.89D-05.
     33 vectors produced by pass  7 Test12= 1.92D-17 3.03D-11 XBig12= 1.14D-10 3.99D-06.
     33 vectors produced by pass  8 Test12= 1.92D-17 3.03D-11 XBig12= 3.97D-12 2.78D-07.
     33 vectors produced by pass  9 Test12= 1.92D-17 3.03D-11 XBig12= 5.44D-14 8.57D-08.
     33 vectors produced by pass 10 Test12= 1.92D-17 3.03D-11 XBig12= 1.94D-15 8.07D-09.
     31 vectors produced by pass 11 Test12= 1.92D-17 3.03D-11 XBig12= 2.22D-17 5.93D-10.
      7 vectors produced by pass 12 Test12= 1.92D-17 3.03D-11 XBig12= 2.22D-19 7.34D-11.
 InvSVY:  IOpt=1 It=  1 EMax= 9.77D-15
 Solved reduced A of dimension   401 with    33 vectors.
 Max diff in FC couplings:  IJMax=    20    19 Diff= 1.21D-03 IJMaxR=    31     6 DiffR= 1.60D+00
 Fermi Contact (FC) contribution to K (Hz):
                1             2             3             4             5 
      1  0.123400D+11
      2  0.349641D+02  0.123400D+11
      3 -0.117596D+01  0.339723D+02  0.123400D+11
      4  0.306770D+01  0.365097D+00  0.334413D+02  0.123400D+11
      5  0.162987D+01  0.299462D+01 -0.130453D+01  0.345510D+02  0.123400D+11
      6  0.356581D+02 -0.238951D+00  0.426035D+01  0.256457D+00  0.392343D+02
      7  0.219075D+02 -0.298362D+00  0.959769D+00 -0.208068D+00  0.609510D+00
      8 -0.243168D+00  0.225539D+02 -0.280401D+00  0.103990D+01 -0.292428D+00
      9 -0.279779D+00  0.961208D+00 -0.152596D+00  0.218110D+02 -0.142941D+00
     10  0.672183D+00 -0.221901D+00  0.101712D+01 -0.277445D+00  0.228412D+02
     11  0.197314D+01  0.166422D+01  0.236454D+02  0.148632D+01  0.193916D+01
     12 -0.119450D+00  0.650556D+00 -0.114645D+01  0.738951D+00 -0.544172D-01
     13  0.114552D+00  0.807995D+00 -0.721857D+00  0.804995D+00  0.148902D-01
     14 -0.545796D+00  0.875485D+00 -0.111371D+01  0.767437D+00 -0.428005D+00
     15  0.718658D-02 -0.298979D-01  0.620719D+00 -0.223056D-01  0.109764D-01
     16 -0.110716D-01 -0.325599D-01  0.199873D+01  0.684035D-01  0.565714D-01
     17 -0.734279D+00 -0.812852D-01  0.259922D+00  0.305485D+01  0.116812D+02
     18  0.420343D+00 -0.123355D-01 -0.461072D-01  0.214241D+00  0.115255D+01
     19 -0.198574D-02  0.164147D-01  0.169240D-01  0.623741D-01  0.812062D-02
     20  0.613084D-01 -0.637657D-01  0.625333D-01 -0.189133D-01  0.520851D-01
     21 -0.232174D-02  0.438099D-02 -0.755887D-02  0.127146D-01  0.942741D-03
     22 -0.257739D-01  0.656003D-01  0.174582D+00  0.302495D-01 -0.202646D-01
     23 -0.123940D-03 -0.754311D-03  0.290166D-03  0.799384D-03  0.451483D-03
     24 -0.904570D-02  0.149655D-01 -0.652438D-01  0.747921D-02 -0.626616D-02
     25  0.707582D-03 -0.228340D-02 -0.730867D-03 -0.557977D-02  0.116679D-02
     26  0.744286D-04  0.159138D-03 -0.137655D-02 -0.292735D-04  0.187782D-03
     27  0.624659D-04  0.601751D-03 -0.539811D-03  0.411733D-03  0.137883D-03
     28  0.165775D-03 -0.149714D-03 -0.883133D-04  0.163240D-03  0.814417D-04
     29 -0.198008D-02 -0.527878D-03  0.473336D-01  0.421542D-02  0.127110D-02
     30  0.223222D-03  0.106132D-02  0.474208D-02 -0.683284D-05 -0.419447D-03
     31  0.525562D-04  0.220481D-03  0.125277D-02  0.323406D-03  0.150303D-03
     32  0.473151D-03  0.991153D-03  0.532197D-02  0.475574D-04 -0.905287D-04
     33  0.349429D-02  0.101889D-01 -0.308224D-03  0.180014D-01  0.571381D-04
                6             7             8             9            10 
      6  0.123400D+11
      7 -0.526653D+00  0.123400D+11
      8  0.122298D+01  0.342633D+00  0.123400D+11
      9  0.117024D+01  0.375548D-01  0.392290D-01  0.123400D+11
     10 -0.723766D+00  0.635773D-01  0.414898D-01  0.337967D+00  0.123400D+11
     11 -0.447329D+00  0.190283D-01  0.662646D+00  0.687024D+00  0.218273D-01
     12  0.135570D+00  0.123862D-01 -0.422877D-01 -0.307966D-01  0.154639D-01
     13  0.139828D-01  0.718127D-02 -0.355183D-02 -0.251216D-01  0.213445D-02
     14  0.509326D+00  0.485030D-01 -0.954788D-01 -0.121778D+00  0.357373D-01
     15 -0.189287D-02  0.652771D-04 -0.640357D-02  0.395558D-03 -0.343364D-03
     16  0.171732D-01  0.368368D-02 -0.922808D-02  0.884736D-02  0.321195D-02
     17 -0.119415D+02  0.563878D+00  0.704114D-01  0.247220D+00  0.710842D+00
     18 -0.653151D+00 -0.133186D-01  0.182446D-02  0.131924D-01  0.157374D-02
     19  0.932946D-02  0.110065D-02  0.198063D-01  0.176271D-04  0.185062D-02
     20 -0.347352D-01 -0.106774D-01  0.969320D-02  0.548110D-01 -0.625785D-02
     21  0.482218D-03  0.482133D-03  0.742436D-03 -0.366674D-02  0.664340D-04
     22  0.301616D-01  0.271922D-02 -0.223064D-02 -0.682938D-02  0.233902D-02
     23 -0.231930D-03 -0.139271D-04  0.384050D-04  0.166644D-04 -0.697583D-05
     24  0.822253D-02  0.882340D-03 -0.105526D-02 -0.108611D-04  0.446775D-03
     25 -0.977057D-03 -0.125042D-03  0.320995D-03  0.251296D-03 -0.261778D-03
     26 -0.794142D-04 -0.148211D-04  0.759234D-04 -0.285763D-04 -0.281821D-04
     27  0.336155D-04 -0.178615D-04 -0.162052D-04  0.150175D-03  0.150286D-04
     28 -0.693438D-04 -0.391006D-04  0.165894D-04  0.544517D-03 -0.183670D-04
     29  0.105429D-02  0.924653D-04 -0.469890D-03 -0.191695D-03  0.205372D-03
     30  0.408988D-03  0.302883D-04  0.647437D-04 -0.706792D-04  0.633526D-04
     31  0.418555D-05 -0.409524D-05  0.345007D-05  0.158860D-04 -0.275366D-05
     32  0.132604D-03  0.261018D-04  0.152513D-03  0.676718D-05  0.551030D-04
     33  0.134717D-02 -0.731766D-03 -0.947765D-04  0.149949D-02 -0.821219D-04
               11            12            13            14            15 
     11  0.123400D+11
     12  0.184122D+02  0.123400D+11
     13  0.171675D+02 -0.851957D+00  0.123400D+11
     14  0.162192D+02 -0.509866D+00 -0.844540D+00  0.123400D+11
     15 -0.806062D+00  0.418201D-01  0.330064D+00  0.213203D+02  0.123400D+11
     16 -0.494570D+00  0.392220D+00  0.877967D-01  0.276422D+02 -0.118001D+01
     17  0.669713D-01  0.484804D-01  0.362037D-02  0.196568D+00 -0.237914D-02
     18  0.114372D-01 -0.507477D-02 -0.487470D-03 -0.212582D-01  0.175233D-03
     19  0.101445D+01  0.726454D-01 -0.631622D-03  0.488730D+01  0.350196D+00
     20  0.949081D+00  0.181928D+01  0.120855D+01  0.137325D+02 -0.443809D+00
     21  0.538227D+00 -0.167535D-01 -0.305442D-01  0.213002D+00  0.143445D+00
     22 -0.304158D-02 -0.176106D-02 -0.838604D-02  0.979147D+01  0.187251D+00
     23 -0.227245D-01  0.233844D-02  0.124141D-02  0.618757D-01 -0.226613D-02
     24  0.145733D+01  0.149928D+00  0.753330D-02 -0.232145D+00  0.335125D+00
     25 -0.317756D-01  0.498115D-01  0.292228D-01  0.677639D+00 -0.707659D-01
     26  0.765453D-02  0.964404D-03 -0.110387D-03  0.238730D-01  0.188652D-01
     27 -0.370615D-02 -0.192846D-02 -0.678854D-03  0.258288D-01  0.222680D-01
     28 -0.258246D-02  0.148117D-03 -0.658312D-03  0.934825D-01 -0.211731D-02
     29 -0.602397D-01  0.123136D-01 -0.132513D-02  0.655509D+00  0.423030D-01
     30  0.425399D-01 -0.163715D-02 -0.708164D-03 -0.837260D-01  0.231787D-01
     31  0.203475D-02  0.384486D-03 -0.111735D-03 -0.225777D-01  0.519117D-02
     32  0.640173D-01 -0.142791D-02  0.106438D-03 -0.840158D-01  0.934615D-02
     33  0.125464D+00 -0.977522D-02  0.434872D-01  0.842052D+00  0.232269D+00
               16            17            18            19            20 
     16  0.123400D+11
     17  0.107442D-01  0.123400D+11
     18 -0.808282D-03  0.199655D+02  0.123400D+11
     19 -0.975615D+01  0.279616D-02 -0.220432D-03  0.123400D+11
     20  0.548296D+00 -0.825798D-02  0.104618D-02  0.864255D+00  0.123400D+11
     21  0.157723D+00  0.336756D-03 -0.412500D-04  0.779643D-01  0.308045D+02
     22  0.302296D+02  0.108857D-01 -0.117860D-02  0.632299D+01 -0.431029D-01
     23  0.374763D+00 -0.883642D-04  0.841063D-05  0.470049D+00 -0.109879D+00
     24  0.154889D-01  0.290792D-02 -0.292430D-03 -0.151965D-01  0.246293D+02
     25 -0.129882D+00 -0.336650D-03  0.174771D-04  0.422365D-01  0.124553D+02
     26  0.589963D-01 -0.426258D-04  0.256937D-05 -0.149091D-02  0.374640D+00
     27  0.796643D-01  0.981924D-05  0.000000D+00  0.619542D-02  0.342529D+00
     28 -0.159709D-02 -0.369353D-05  0.193335D-05  0.225403D-02  0.331280D+00
     29 -0.246031D+00  0.467024D-03 -0.435309D-04  0.644042D+00  0.153344D+00
     30  0.135889D+00  0.182302D-03 -0.179884D-04  0.237986D+00  0.284945D-01
     31  0.941181D+00 -0.227566D-05  0.000000D+00  0.180578D+00  0.670670D-02
     32  0.249691D+00  0.130363D-03 -0.109929D-04  0.248325D+00  0.450129D-02
     33  0.458040D+00  0.146243D-02 -0.146483D-03  0.634398D-01  0.602026D+01
               21            22            23            24            25 
     21  0.123400D+11
     22  0.699945D-02  0.123400D+11
     23  0.657481D-02  0.317174D+02  0.123400D+11
     24  0.427244D+00 -0.381404D-01  0.575566D-02  0.123400D+11
     25  0.818207D-01 -0.222324D-01  0.344201D-02  0.268975D+02  0.123400D+11
     26 -0.165683D-01  0.321054D-02  0.145819D-04 -0.119968D+01  0.180236D+02
     27 -0.437888D-02 -0.676929D-03  0.177793D-04 -0.118648D+01  0.179849D+02
     28 -0.941431D-02 -0.142501D-02  0.135327D-03 -0.756963D+00  0.170677D+02
     29 -0.334823D-02  0.171126D+02  0.348636D+00 -0.623045D-02 -0.144143D-02
     30 -0.593344D-03 -0.583252D+00  0.118848D+00  0.183792D-02  0.124752D-02
     31 -0.561464D-03 -0.364544D+00  0.293286D+00  0.433822D-03 -0.272753D-03
     32  0.129191D-02 -0.653358D+00  0.100022D+00 -0.124996D-02  0.698822D-03
     33  0.451923D+00  0.274027D+00  0.415128D-02 -0.961412D+01  0.356494D+01
               26            27            28            29            30 
     26  0.123400D+11
     27 -0.928304D+00  0.123400D+11
     28 -0.748096D+00 -0.720612D+00  0.123400D+11
     29 -0.501366D-04 -0.206406D-05  0.246196D-04  0.123400D+11
     30  0.213894D-03  0.809103D-04 -0.151978D-04  0.198367D+02  0.123400D+11
     31  0.277838D-03  0.103010D-03  0.124832D-04  0.182425D+02 -0.740034D+00
     32 -0.116765D-03 -0.177232D-03 -0.155834D-05  0.201498D+02 -0.743651D+00
     33  0.460180D+00  0.445357D+00  0.811972D+00 -0.178470D-01  0.124647D-01
               31            32            33 
     31  0.123400D+11
     32 -0.748764D+00  0.123400D+11
     33  0.173918D-02  0.131610D-01  0.123400D+11
 Fermi Contact (FC) contribution to J (Hz):
                1             2             3             4             5 
      1  0.243533D+11
      2  0.690026D+02  0.243533D+11
      3 -0.232080D+01  0.670452D+02  0.243533D+11
      4  0.605418D+01  0.720528D+00  0.659972D+02  0.243533D+11
      5  0.321658D+01  0.590996D+01 -0.257451D+01  0.681872D+02  0.243533D+11
      6  0.703721D+02 -0.471576D+00  0.840790D+01  0.506125D+00  0.774299D+02
      7  0.171906D+03 -0.234122D+01  0.753121D+01 -0.163269D+01  0.478277D+01
      8 -0.190811D+01  0.176978D+03 -0.220028D+01  0.815999D+01 -0.229466D+01
      9 -0.219540D+01  0.754251D+01 -0.119741D+01  0.171149D+03 -0.112165D+01
     10  0.527456D+01 -0.174123D+01  0.798124D+01 -0.217708D+01  0.179233D+03
     11  0.389404D+01  0.328438D+01  0.466648D+02  0.293330D+01  0.382698D+01
     12 -0.937309D+00  0.510485D+01 -0.899611D+01  0.579848D+01 -0.427007D+00
     13  0.898879D+00  0.634025D+01 -0.566434D+01  0.631672D+01  0.116842D+00
     14 -0.107714D+01  0.172779D+01 -0.219794D+01  0.151456D+01 -0.844679D+00
     15  0.563924D-01 -0.234606D+00  0.487073D+01 -0.175030D+00  0.861306D-01
     16 -0.218500D-01 -0.642577D-01  0.394453D+01  0.134996D+00  0.111645D+00
     17  0.781405D+00  0.865021D-01 -0.276604D+00 -0.325091D+01 -0.124310D+02
     18  0.329839D+01 -0.967953D-01 -0.361799D+00  0.168113D+01  0.904397D+01
     19  0.211319D-02 -0.174682D-01 -0.180102D-01 -0.663773D-01 -0.864180D-02
     20  0.347749D-01 -0.361687D-01  0.354697D-01 -0.107279D-01  0.295433D-01
     21 -0.182185D-01  0.343772D-01 -0.593137D-01  0.997705D-01  0.739759D-02
     22 -0.146193D-01  0.372093D-01  0.990252D-01  0.171579D-01 -0.114943D-01
     23 -0.972546D-03 -0.591901D-02  0.227691D-02  0.627269D-02  0.354274D-02
     24 -0.178519D-01  0.295347D-01 -0.128760D+00  0.147604D-01 -0.123664D-01
     25  0.139643D-02 -0.450635D-02 -0.144238D-02 -0.110118D-01  0.230270D-02
     26  0.584034D-03  0.124874D-02 -0.108017D-01 -0.229706D-03  0.147351D-02
     27  0.490164D-03  0.472188D-02 -0.423584D-02  0.323083D-02  0.108196D-02
     28  0.130082D-02 -0.117479D-02 -0.692986D-03  0.128093D-02  0.639065D-03
     29 -0.390773D-02 -0.104178D-02  0.934140D-01  0.831925D-02  0.250855D-02
     30  0.175160D-02  0.832809D-02  0.372106D-01 -0.536166D-04 -0.329136D-02
     31  0.412403D-03  0.173009D-02  0.983040D-02  0.253773D-02  0.117941D-02
     32  0.371277D-02  0.777748D-02  0.417610D-01  0.373179D-03 -0.710370D-03
     33 -0.371855D-02 -0.108428D-01  0.328006D-03 -0.191567D-01 -0.608052D-04
                6             7             8             9            10 
      6  0.243533D+11
      7 -0.413260D+01  0.385007D+12
      8  0.959664D+01  0.106901D+02  0.385007D+12
      9  0.918276D+01  0.117171D+01  0.122394D+01  0.385007D+12
     10 -0.567932D+01  0.198361D+01  0.129448D+01  0.105446D+02  0.385007D+12
     11 -0.882814D+00  0.149313D+00  0.519972D+01  0.539101D+01  0.171277D+00
     12  0.106381D+01  0.386448D+00 -0.131937D+01 -0.960852D+00  0.482472D+00
     13  0.109721D+00  0.224055D+00 -0.110817D+00 -0.783793D+00  0.665947D-01
     14  0.100517D+01  0.380598D+00 -0.749213D+00 -0.955576D+00  0.280427D+00
     15 -0.148532D-01  0.203664D-02 -0.199791D+00  0.123414D-01 -0.107129D-01
     16  0.338918D-01  0.289055D-01 -0.724118D-01  0.694244D-01  0.252039D-01
     17  0.127079D+02 -0.238592D+01 -0.297930D+00 -0.104605D+01 -0.300777D+01
     18 -0.512521D+01 -0.415539D+00  0.569230D-01  0.411603D+00  0.491005D-01
     19 -0.992823D-02 -0.465716D-02 -0.838057D-01 -0.745852D-04 -0.783050D-02
     20 -0.197022D-01 -0.240805D-01  0.218609D-01  0.123614D+00 -0.141132D-01
     21  0.378392D-02  0.150425D-01  0.231640D-01 -0.114402D+00  0.207274D-02
     22  0.171080D-01  0.613260D-02 -0.503073D-02 -0.154022D-01  0.527516D-02
     23 -0.181993D-02 -0.434524D-03  0.119824D-02  0.519929D-03 -0.217646D-03
     24  0.162274D-01  0.692364D-02 -0.828051D-02 -0.852263D-04  0.350580D-02
     25 -0.192825D-02 -0.981194D-03  0.251882D-02  0.197190D-02 -0.205415D-02
     26 -0.623156D-03 -0.462419D-03  0.236881D-02 -0.891579D-03 -0.879281D-03
     27  0.263778D-03 -0.557279D-03 -0.505601D-03  0.468546D-02  0.468891D-03
     28 -0.544134D-03 -0.121994D-02  0.517588D-03  0.169889D-01 -0.573049D-03
     29  0.208067D-02  0.725566D-03 -0.368718D-02 -0.150421D-02  0.161153D-02
     30  0.320929D-02  0.944995D-03  0.202000D-02 -0.220519D-02  0.197660D-02
     31  0.328436D-04 -0.127771D-03  0.107642D-03  0.495642D-03 -0.859140D-04
     32  0.104053D-02  0.814375D-03  0.475840D-02  0.211136D-03  0.171921D-02
     33 -0.143363D-02  0.309630D-02  0.401025D-03 -0.634477D-02  0.347480D-03
               11            12            13            14            15 
     11  0.243533D+11
     12  0.144478D+03  0.385007D+12
     13  0.134712D+03 -0.265810D+02  0.385007D+12
     14  0.320091D+02 -0.400087D+01 -0.662702D+01  0.243533D+11
     15 -0.632509D+01  0.130479D+01  0.102980D+02  0.167298D+03  0.385007D+12
     16 -0.976045D+00  0.307771D+01  0.688932D+00  0.545526D+02 -0.925946D+01
     17 -0.712695D-01 -0.205134D+00 -0.153188D-01 -0.209184D+00  0.100668D-01
     18  0.897466D-01 -0.158332D+00 -0.152090D-01 -0.166811D+00  0.546727D-02
     19 -0.107956D+01 -0.307382D+00  0.267257D-02 -0.520097D+01 -0.148178D+01
     20  0.538331D+00  0.410299D+01  0.272563D+01  0.778923D+01 -0.100091D+01
     21  0.422341D+01 -0.522710D+00 -0.952977D+00  0.167141D+01  0.447547D+01
     22 -0.172522D-02 -0.397170D-02 -0.189129D-01  0.555384D+01  0.422305D+00
     23 -0.178317D+00  0.729592D-01  0.387320D-01  0.485533D+00 -0.707032D-01
     24  0.287608D+01  0.117647D+01  0.591131D-01 -0.458144D+00  0.262970D+01
     25 -0.627099D-01  0.390866D+00  0.229308D+00  0.133734D+01 -0.555293D+00
     26  0.600643D-01  0.300893D-01 -0.344408D-02  0.187329D+00  0.588594D+00
     27 -0.290818D-01 -0.601680D-01 -0.211802D-01  0.202676D+00  0.694761D+00
     28 -0.202643D-01  0.462126D-02 -0.205393D-01  0.733548D+00 -0.660600D-01
     29 -0.118885D+00  0.966233D-01 -0.103982D-01  0.129366D+01  0.331947D+00
     30  0.333807D+00 -0.510790D-01 -0.220947D-01 -0.656990D+00  0.723173D+00
     31  0.159665D-01  0.119959D-01 -0.348612D-02 -0.177165D+00  0.161964D+00
     32  0.502338D+00 -0.445509D-01  0.332088D-02 -0.659264D+00  0.291599D+00
     33 -0.133517D+00  0.413616D-01 -0.184006D+00 -0.896096D+00 -0.982792D+00
               16            17            18            19            20 
     16  0.243533D+11
     17 -0.114338D-01  0.708114D+10
     18 -0.634251D-02 -0.844793D+02  0.385007D+12
     19  0.103823D+02  0.160454D-02  0.932708D-03  0.708114D+10
     20  0.311000D+00  0.252576D-02  0.235943D-02 -0.264339D+00  0.201170D+10
     21  0.123764D+01 -0.142491D-02 -0.128700D-02 -0.329888D+00  0.694728D+02
     22  0.171466D+02 -0.332948D-02 -0.265807D-02 -0.193393D+01 -0.702676D-02
     23  0.294073D+01  0.373893D-03  0.262411D-03 -0.198891D+01 -0.247808D+00
     24  0.305678D-01 -0.309455D-02 -0.229467D-02  0.161718D-01  0.139701D+02
     25 -0.256325D+00  0.358256D-03  0.137141D-03 -0.449473D-01  0.706477D+01
     26  0.462938D+00  0.180361D-03  0.801642D-04  0.630843D-02  0.844920D+00
     27  0.625118D+00 -0.415479D-04 -0.789832D-05 -0.262145D-01  0.772500D+00
     28 -0.125322D-01  0.156283D-04  0.603204D-04 -0.953743D-02  0.747130D+00
     29 -0.485548D+00 -0.496998D-03 -0.341583D-03 -0.685377D+00  0.869786D-01
     30  0.106631D+01 -0.771370D-03 -0.561236D-03 -0.100698D+01  0.642631D-01
     31  0.738536D+01  0.962893D-05  0.580168D-05 -0.764073D+00  0.151255D-01
     32  0.195930D+01 -0.551603D-03 -0.342977D-03 -0.105073D+01  0.101517D-01
     33 -0.487437D+00  0.839199D-03  0.619809D-03  0.364041D-01 -0.184134D+01
               21            22            23            24            25 
     21  0.385007D+12
     22  0.157858D-01  0.201170D+10
     23  0.205134D+00  0.715318D+02  0.385007D+12
     24  0.335254D+01 -0.216337D-01  0.451641D-01  0.243533D+11
     25  0.642039D+00 -0.126105D-01  0.270091D-01  0.530828D+02  0.243533D+11
     26 -0.516931D+00  0.724068D-02  0.454954D-03 -0.941374D+01  0.141430D+03
     27 -0.136621D+00 -0.152667D-02  0.554714D-03 -0.931021D+01  0.141126D+03
     28 -0.293726D+00 -0.321381D-02  0.422219D-02 -0.593981D+01  0.133928D+03
     29 -0.262732D-01  0.970649D+01  0.273571D+01 -0.122959D-01 -0.284471D-02
     30 -0.185123D-01 -0.131540D+01  0.370805D+01  0.144220D-01  0.978920D-02
     31 -0.175176D-01 -0.822150D+00  0.915050D+01  0.340416D-02 -0.214027D-02
     32  0.403075D-01 -0.147351D+01  0.312069D+01 -0.980832D-02  0.548359D-02
     33 -0.191221D+01 -0.838132D-01 -0.175652D-01  0.102312D+02 -0.379374D+01
               26            27            28            29            30 
     26  0.385007D+12
     27 -0.289630D+02  0.385007D+12
     28 -0.233406D+02 -0.224831D+02  0.385007D+12
     29 -0.393417D-03 -0.161965D-04  0.193188D-03  0.243533D+11
     30  0.667349D-02  0.252440D-02 -0.474170D-03  0.155657D+03  0.385007D+12
     31  0.866854D-02  0.321390D-02  0.389474D-03  0.143147D+03 -0.230890D+02
     32 -0.364305D-02 -0.552965D-02 -0.486203D-04  0.158114D+03 -0.232019D+02
     33 -0.194715D+01 -0.188443D+01 -0.343568D+01  0.189925D-01 -0.527417D-01
               31            32            33 
     31  0.385007D+12
     32 -0.233614D+02  0.385007D+12
     33 -0.735896D-02 -0.556877D-01  0.708114D+10
 End of Minotr F.D. properties file   721 does not exist.
 End of Minotr F.D. properties file   722 does not exist.
 End of Minotr F.D. properties file   788 does not exist.
 Leave Link 1002 at Wed Jun 25 12:56:41 2014, MaxMem=  4294967296 cpu:    450377.2
 (Enter /home/ztw1e12/g09/l601.exe)
 Copying SCF densities to generalized density rwf, IOpCl= 0 IROHF=0.

 **********************************************************************

            Population analysis using the SCF density.

 **********************************************************************

 Orbital symmetries:
       Occupied  (A) (A) (A) (A) (A) (A) (A) (A) (A) (A) (A) (A)
                 (A) (A) (A) (A) (A) (A) (A) (A) (A) (A) (A) (A)
                 (A) (A) (A) (A) (A) (A) (A) (A) (A) (A) (A) (A)
                 (A) (A) (A) (A) (A) (A) (A) (A) (A) (A) (A) (A)
                 (A) (A) (A) (A) (A) (A) (A) (A) (A) (A) (A) (A)
                 (A) (A) (A)
       Virtual   (A) (A) (A) (A) (A) (A) (A) (A) (A) (A) (A) (A)
                 (A) (A) (A) (A) (A) (A) (A) (A) (A) (A) (A) (A)
                 (A) (A) (A) (A) (A) (A) (A) (A) (A) (A) (A) (A)
                 (A) (A) (A) (A) (A) (A) (A) (A) (A) (A) (A) (A)
                 (A) (A) (A) (A) (A) (A) (A) (A) (A) (A) (A) (A)
                 (A) (A) (A) (A) (A) (A) (A) (A) (A) (A) (A) (A)
                 (A) (A) (A) (A) (A) (A) (A) (A) (A) (A) (A) (A)
                 (A) (A) (A) (A) (A) (A) (A) (A) (A) (A) (A) (A)
                 (A) (A) (A) (A) (A) (A) (A) (A) (A) (A) (A) (A)
                 (A) (A) (A) (A) (A) (A) (A) (A) (A) (A) (A) (A)
                 (A) (A) (A) (A) (A) (A) (A) (A) (A) (A) (A) (A)
                 (A) (A) (A) (A) (A) (A) (A) (A) (A) (A) (A) (A)
                 (A) (A) (A) (A) (A) (A) (A) (A) (A) (A) (A) (A)
                 (A) (A) (A) (A) (A) (A) (A) (A) (A) (A) (A) (A)
                 (A) (A) (A) (A) (A) (A) (A) (A) (A) (A) (A) (A)
                 (A) (A) (A) (A) (A) (A) (A) (A) (A) (A) (A) (A)
                 (A) (A) (A) (A) (A) (A) (A) (A) (A) (A) (A) (A)
                 (A) (A) (A) (A) (A) (A) (A) (A) (A) (A) (A) (A)
                 (A) (A) (A) (A) (A) (A) (A) (A) (A) (A) (A) (A)
                 (A) (A) (A) (A) (A) (A) (A) (A) (A) (A) (A) (A)
                 (A) (A) (A) (A) (A) (A) (A) (A) (A) (A) (A) (A)
                 (A) (A) (A) (A) (A) (A) (A) (A) (A) (A) (A) (A)
                 (A) (A) (A) (A) (A) (A) (A) (A) (A) (A) (A) (A)
                 (A) (A) (A) (A) (A) (A) (A) (A) (A) (A) (A) (A)
                 (A) (A) (A) (A) (A) (A) (A) (A) (A) (A) (A) (A)
                 (A) (A) (A) (A) (A) (A) (A) (A) (A) (A) (A) (A)
                 (A) (A) (A) (A) (A) (A) (A) (A) (A) (A) (A) (A)
                 (A) (A) (A) (A) (A) (A) (A) (A) (A) (A) (A) (A)
                 (A) (A) (A) (A) (A) (A) (A) (A) (A) (A) (A) (A)
                 (A) (A) (A) (A) (A) (A) (A) (A) (A) (A) (A) (A)
                 (A) (A) (A) (A) (A) (A) (A) (A) (A) (A) (A) (A)
                 (A) (A) (A) (A) (A) (A) (A) (A) (A) (A) (A) (A)
                 (A) (A) (A) (A) (A) (A) (A) (A) (A) (A) (A) (A)
                 (A) (A) (A) (A) (A) (A) (A) (A) (A) (A) (A) (A)
                 (A) (A) (A) (A) (A) (A) (A) (A) (A) (A) (A) (A)
                 (A) (A) (A) (A) (A) (A) (A) (A) (A) (A) (A) (A)
                 (A) (A) (A) (A) (A) (A) (A) (A) (A) (A) (A) (A)
                 (A) (A) (A) (A) (A) (A) (A) (A) (A) (A) (A) (A)
                 (A) (A) (A) (A) (A) (A) (A) (A) (A) (A) (A) (A)
                 (A) (A) (A) (A) (A) (A) (A) (A) (A) (A) (A) (A)
                 (A) (A) (A) (A) (A) (A) (A) (A) (A) (A) (A) (A)
                 (A) (A) (A) (A) (A) (A) (A) (A) (A) (A) (A) (A)
                 (A) (A) (A) (A) (A) (A) (A) (A) (A) (A) (A) (A)
                 (A) (A) (A) (A) (A) (A) (A) (A) (A) (A) (A) (A)
                 (A) (A) (A) (A) (A) (A) (A) (A) (A) (A) (A) (A)
                 (A) (A) (A) (A) (A) (A) (A) (A) (A) (A) (A) (A)
                 (A) (A) (A) (A) (A) (A) (A) (A) (A) (A) (A) (A)
                 (A) (A) (A) (A) (A) (A) (A) (A) (A) (A) (A) (A)
                 (A) (A) (A) (A) (A) (A) (A) (A) (A) (A) (A) (A)
                 (A) (A) (A) (A) (A) (A) (A) (A) (A) (A) (A) (A)
                 (A) (A) (A) (A) (A) (A) (A) (A) (A) (A) (A) (A)
                 (A) (A) (A) (A) (A) (A) (A) (A) (A) (A) (A) (A)
                 (A) (A) (A) (A) (A) (A) (A) (A) (A) (A) (A) (A)
                 (A) (A) (A) (A) (A) (A) (A) (A) (A) (A) (A) (A)
                 (A) (A) (A) (A) (A) (A) (A) (A) (A) (A) (A) (A)
                 (A) (A) (A) (A) (A) (A) (A) (A) (A) (A) (A) (A)
                 (A) (A) (A) (A) (A) (A) (A) (A) (A) (A) (A) (A)
                 (A) (A) (A) (A) (A) (A) (A) (A) (A) (A) (A) (A)
                 (A) (A) (A) (A) (A) (A) (A) (A) (A) (A) (A) (A)
                 (A) (A) (A) (A) (A) (A) (A) (A) (A) (A) (A) (A)
                 (A) (A) (A) (A) (A) (A) (A) (A) (A) (A) (A) (A)
                 (A) (A) (A) (A) (A) (A) (A) (A) (A) (A) (A) (A)
                 (A) (A) (A) (A) (A) (A) (A) (A) (A) (A) (A) (A)
                 (A) (A) (A) (A) (A) (A) (A) (A) (A) (A) (A) (A)
                 (A) (A) (A) (A) (A) (A) (A) (A) (A) (A) (A) (A)
                 (A) (A) (A) (A) (A) (A) (A) (A) (A) (A) (A) (A)
                 (A) (A) (A) (A) (A) (A) (A) (A) (A) (A) (A) (A)
                 (A) (A) (A) (A) (A) (A) (A) (A) (A) (A) (A) (A)
                 (A) (A) (A) (A) (A) (A) (A) (A) (A) (A) (A) (A)
                 (A) (A) (A) (A) (A) (A) (A) (A) (A) (A) (A) (A)
                 (A) (A) (A) (A) (A) (A) (A) (A) (A) (A) (A) (A)
                 (A) (A) (A) (A) (A) (A) (A) (A) (A) (A) (A) (A)
                 (A) (A) (A) (A) (A) (A) (A) (A) (A) (A) (A) (A)
                 (A) (A) (A) (A) (A) (A) (A) (A) (A) (A) (A) (A)
                 (A) (A) (A) (A) (A) (A) (A) (A) (A) (A) (A) (A)
                 (A) (A) (A) (A) (A) (A) (A) (A) (A) (A) (A) (A)
                 (A) (A) (A) (A) (A) (A) (A) (A) (A) (A) (A) (A)
                 (A) (A) (A) (A) (A) (A) (A) (A) (A) (A) (A) (A)
                 (A) (A) (A) (A) (A) (A) (A) (A) (A) (A) (A) (A)
                 (A) (A) (A) (A) (A) (A) (A) (A) (A) (A) (A) (A)
                 (A) (A) (A) (A) (A) (A) (A) (A) (A) (A) (A) (A)
                 (A) (A) (A) (A) (A) (A) (A) (A) (A) (A) (A) (A)
                 (A) (A) (A) (A) (A) (A) (A) (A) (A) (A) (A) (A)
                 (A) (A) (A) (A) (A) (A) (A) (A) (A)
 The electronic state is 1-A.
 Alpha  occ. eigenvalues --  -19.24968 -19.17877 -19.16857 -14.42928 -14.41769
 Alpha  occ. eigenvalues --  -10.34754 -10.33278 -10.31057 -10.29213 -10.27067
 Alpha  occ. eigenvalues --  -10.25848 -10.25234 -10.25162 -10.25140 -10.24981
 Alpha  occ. eigenvalues --  -10.24813 -10.24361  -1.09278  -1.06061  -1.04700
 Alpha  occ. eigenvalues --   -0.95948  -0.93767  -0.88075  -0.81750  -0.77387
 Alpha  occ. eigenvalues --   -0.77034  -0.74446  -0.71938  -0.66743  -0.64532
 Alpha  occ. eigenvalues --   -0.61597  -0.60782  -0.59766  -0.56684  -0.55161
 Alpha  occ. eigenvalues --   -0.52469  -0.51145  -0.49770  -0.48785  -0.47094
 Alpha  occ. eigenvalues --   -0.46743  -0.45805  -0.45552  -0.44234  -0.43726
 Alpha  occ. eigenvalues --   -0.43459  -0.42565  -0.42046  -0.41458  -0.41203
 Alpha  occ. eigenvalues --   -0.40414  -0.39566  -0.38760  -0.36868  -0.36355
 Alpha  occ. eigenvalues --   -0.35471  -0.35200  -0.30218  -0.27731  -0.27568
 Alpha  occ. eigenvalues --   -0.27277  -0.25955  -0.24027
 Alpha virt. eigenvalues --   -0.01761   0.00083   0.00693   0.01900   0.02102
 Alpha virt. eigenvalues --    0.02942   0.03858   0.04773   0.05633   0.06626
 Alpha virt. eigenvalues --    0.06976   0.07774   0.09330   0.09721   0.10350
 Alpha virt. eigenvalues --    0.10799   0.11744   0.12356   0.12396   0.12977
 Alpha virt. eigenvalues --    0.15032   0.15851   0.16312   0.17360   0.17612
 Alpha virt. eigenvalues --    0.19008   0.21009   0.21787   0.22774   0.24410
 Alpha virt. eigenvalues --    0.24485   0.25064   0.25270   0.26162   0.26276
 Alpha virt. eigenvalues --    0.26856   0.27577   0.28371   0.29031   0.29340
 Alpha virt. eigenvalues --    0.30215   0.30333   0.31263   0.31908   0.32585
 Alpha virt. eigenvalues --    0.32635   0.33279   0.33986   0.34423   0.34991
 Alpha virt. eigenvalues --    0.35203   0.36269   0.36685   0.37078   0.37781
 Alpha virt. eigenvalues --    0.38001   0.38491   0.38817   0.39567   0.39919
 Alpha virt. eigenvalues --    0.40105   0.40425   0.40739   0.41008   0.41566
 Alpha virt. eigenvalues --    0.41838   0.42076   0.42799   0.43170   0.43593
 Alpha virt. eigenvalues --    0.44077   0.44740   0.45120   0.45819   0.46749
 Alpha virt. eigenvalues --    0.47275   0.48352   0.49006   0.49249   0.50092
 Alpha virt. eigenvalues --    0.50630   0.51204   0.51929   0.52591   0.53073
 Alpha virt. eigenvalues --    0.53826   0.54235   0.55717   0.56091   0.56578
 Alpha virt. eigenvalues --    0.57392   0.58164   0.59922   0.60370   0.61273
 Alpha virt. eigenvalues --    0.61974   0.63114   0.63676   0.64283   0.64761
 Alpha virt. eigenvalues --    0.65265   0.65736   0.66329   0.67174   0.68403
 Alpha virt. eigenvalues --    0.69191   0.69407   0.69828   0.70601   0.71234
 Alpha virt. eigenvalues --    0.72628   0.73266   0.74035   0.74276   0.75129
 Alpha virt. eigenvalues --    0.76407   0.77083   0.78036   0.79555   0.79820
 Alpha virt. eigenvalues --    0.79960   0.80561   0.81333   0.81925   0.82461
 Alpha virt. eigenvalues --    0.83062   0.83566   0.84877   0.85389   0.85996
 Alpha virt. eigenvalues --    0.86964   0.88077   0.88202   0.89167   0.90337
 Alpha virt. eigenvalues --    0.90776   0.91173   0.92409   0.93327   0.94478
 Alpha virt. eigenvalues --    0.94729   0.95681   0.96251   0.96631   0.98044
 Alpha virt. eigenvalues --    0.98212   0.98915   0.99260   0.99516   1.01146
 Alpha virt. eigenvalues --    1.02189   1.02669   1.03837   1.04888   1.05480
 Alpha virt. eigenvalues --    1.05820   1.07149   1.07968   1.08757   1.08963
 Alpha virt. eigenvalues --    1.10635   1.10913   1.11999   1.12447   1.13506
 Alpha virt. eigenvalues --    1.14454   1.15097   1.15968   1.16399   1.16711
 Alpha virt. eigenvalues --    1.17485   1.17878   1.18611   1.18930   1.19535
 Alpha virt. eigenvalues --    1.20119   1.21271   1.21729   1.21844   1.22553
 Alpha virt. eigenvalues --    1.22732   1.23222   1.23680   1.24848   1.25416
 Alpha virt. eigenvalues --    1.25604   1.26055   1.26513   1.26685   1.27203
 Alpha virt. eigenvalues --    1.27769   1.28508   1.28804   1.30414   1.30917
 Alpha virt. eigenvalues --    1.31856   1.32610   1.32950   1.33500   1.33602
 Alpha virt. eigenvalues --    1.34781   1.35246   1.36251   1.36312   1.37413
 Alpha virt. eigenvalues --    1.38528   1.39575   1.40770   1.42556   1.43420
 Alpha virt. eigenvalues --    1.43834   1.46198   1.47753   1.49057   1.51806
 Alpha virt. eigenvalues --    1.52435   1.54026   1.54826   1.56446   1.57271
 Alpha virt. eigenvalues --    1.58829   1.59459   1.61598   1.62798   1.64300
 Alpha virt. eigenvalues --    1.65045   1.66175   1.67022   1.69306   1.71511
 Alpha virt. eigenvalues --    1.71943   1.73117   1.74166   1.76018   1.78730
 Alpha virt. eigenvalues --    1.79972   1.81059   1.82535   1.83653   1.84380
 Alpha virt. eigenvalues --    1.85154   1.86497   1.88600   1.89104   1.89657
 Alpha virt. eigenvalues --    1.90884   1.91942   1.92966   1.93857   1.96148
 Alpha virt. eigenvalues --    1.96738   1.97588   1.99097   2.01104   2.01951
 Alpha virt. eigenvalues --    2.02876   2.04029   2.05658   2.07577   2.08555
 Alpha virt. eigenvalues --    2.09978   2.10872   2.11008   2.12902   2.14233
 Alpha virt. eigenvalues --    2.16784   2.16904   2.17339   2.19452   2.21139
 Alpha virt. eigenvalues --    2.21185   2.22869   2.23791   2.25257   2.26394
 Alpha virt. eigenvalues --    2.26635   2.27152   2.28953   2.30034   2.32914
 Alpha virt. eigenvalues --    2.33729   2.34649   2.36105   2.36333   2.37267
 Alpha virt. eigenvalues --    2.37968   2.38832   2.39449   2.41342   2.42283
 Alpha virt. eigenvalues --    2.43250   2.43888   2.45287   2.46866   2.47528
 Alpha virt. eigenvalues --    2.49566   2.51328   2.51970   2.52669   2.53596
 Alpha virt. eigenvalues --    2.54779   2.56317   2.57724   2.58462   2.59466
 Alpha virt. eigenvalues --    2.61488   2.63529   2.64584   2.65526   2.65961
 Alpha virt. eigenvalues --    2.67367   2.67500   2.67980   2.68708   2.69052
 Alpha virt. eigenvalues --    2.70429   2.70546   2.70860   2.71200   2.72055
 Alpha virt. eigenvalues --    2.72437   2.72843   2.74371   2.74961   2.75678
 Alpha virt. eigenvalues --    2.76157   2.76710   2.78871   2.79161   2.80875
 Alpha virt. eigenvalues --    2.82121   2.83479   2.83880   2.84988   2.85774
 Alpha virt. eigenvalues --    2.87166   2.87449   2.87945   2.88764   2.89341
 Alpha virt. eigenvalues --    2.89580   2.90421   2.90784   2.91373   2.92548
 Alpha virt. eigenvalues --    2.93122   2.93505   2.94707   2.95195   2.95826
 Alpha virt. eigenvalues --    2.96253   2.96452   2.96928   2.97317   2.97772
 Alpha virt. eigenvalues --    2.99169   2.99338   2.99918   3.00760   3.01131
 Alpha virt. eigenvalues --    3.02676   3.03212   3.03388   3.03657   3.03981
 Alpha virt. eigenvalues --    3.05492   3.05634   3.06704   3.07597   3.09427
 Alpha virt. eigenvalues --    3.09709   3.09960   3.11837   3.12184   3.12888
 Alpha virt. eigenvalues --    3.14173   3.14772   3.15102   3.15683   3.16546
 Alpha virt. eigenvalues --    3.17152   3.17649   3.18350   3.19222   3.20047
 Alpha virt. eigenvalues --    3.20845   3.21897   3.23046   3.24043   3.25250
 Alpha virt. eigenvalues --    3.25598   3.25863   3.26513   3.27356   3.27929
 Alpha virt. eigenvalues --    3.28291   3.28695   3.29498   3.29663   3.30266
 Alpha virt. eigenvalues --    3.31033   3.31778   3.32649   3.33157   3.33841
 Alpha virt. eigenvalues --    3.34333   3.35253   3.36359   3.37461   3.38002
 Alpha virt. eigenvalues --    3.38890   3.39624   3.40992   3.41273   3.42656
 Alpha virt. eigenvalues --    3.42828   3.44045   3.44370   3.45656   3.45714
 Alpha virt. eigenvalues --    3.46891   3.47474   3.48421   3.49757   3.49974
 Alpha virt. eigenvalues --    3.51292   3.52741   3.53951   3.55207   3.55251
 Alpha virt. eigenvalues --    3.55987   3.57236   3.58334   3.59769   3.60474
 Alpha virt. eigenvalues --    3.61924   3.62762   3.63903   3.64432   3.66665
 Alpha virt. eigenvalues --    3.67386   3.67822   3.68405   3.68903   3.69521
 Alpha virt. eigenvalues --    3.70555   3.71434   3.72159   3.72531   3.73648
 Alpha virt. eigenvalues --    3.74451   3.74801   3.76272   3.76755   3.77612
 Alpha virt. eigenvalues --    3.78027   3.78979   3.79989   3.80370   3.81534
 Alpha virt. eigenvalues --    3.82277   3.83433   3.83901   3.84771   3.85824
 Alpha virt. eigenvalues --    3.86015   3.87300   3.88046   3.88973   3.89398
 Alpha virt. eigenvalues --    3.91331   3.92467   3.93377   3.94588   3.95002
 Alpha virt. eigenvalues --    3.95840   3.97119   3.98021   3.98688   4.00138
 Alpha virt. eigenvalues --    4.00638   4.01668   4.02466   4.04289   4.05323
 Alpha virt. eigenvalues --    4.05734   4.06533   4.06740   4.07450   4.08282
 Alpha virt. eigenvalues --    4.08536   4.09700   4.11617   4.13335   4.13386
 Alpha virt. eigenvalues --    4.14824   4.16169   4.16275   4.16813   4.18243
 Alpha virt. eigenvalues --    4.19217   4.20042   4.20666   4.21590   4.22435
 Alpha virt. eigenvalues --    4.23478   4.24191   4.25424   4.25868   4.26690
 Alpha virt. eigenvalues --    4.27192   4.27753   4.28884   4.30195   4.30881
 Alpha virt. eigenvalues --    4.31490   4.32364   4.34345   4.35706   4.37835
 Alpha virt. eigenvalues --    4.38556   4.39303   4.41172   4.42963   4.43750
 Alpha virt. eigenvalues --    4.45400   4.46106   4.48135   4.49465   4.50344
 Alpha virt. eigenvalues --    4.52474   4.54628   4.55381   4.56435   4.57864
 Alpha virt. eigenvalues --    4.59410   4.60059   4.61271   4.62332   4.63432
 Alpha virt. eigenvalues --    4.64210   4.64448   4.65238   4.66025   4.67077
 Alpha virt. eigenvalues --    4.67617   4.69076   4.70932   4.72196   4.73039
 Alpha virt. eigenvalues --    4.74087   4.74966   4.77143   4.77506   4.79431
 Alpha virt. eigenvalues --    4.81335   4.81885   4.83302   4.84718   4.85653
 Alpha virt. eigenvalues --    4.86712   4.88458   4.89070   4.90452   4.90744
 Alpha virt. eigenvalues --    4.91200   4.93774   4.93943   4.94914   4.94991
 Alpha virt. eigenvalues --    4.98515   4.98906   5.00109   5.01517   5.03272
 Alpha virt. eigenvalues --    5.03842   5.05974   5.06567   5.07577   5.09211
 Alpha virt. eigenvalues --    5.10040   5.11007   5.12237   5.13653   5.14503
 Alpha virt. eigenvalues --    5.15045   5.17080   5.17916   5.18237   5.20277
 Alpha virt. eigenvalues --    5.22100   5.22720   5.24215   5.24806   5.28450
 Alpha virt. eigenvalues --    5.30504   5.33030   5.34267   5.35699   5.37290
 Alpha virt. eigenvalues --    5.40482   5.43382   5.43940   5.45323   5.48792
 Alpha virt. eigenvalues --    5.49696   5.51678   5.51976   5.52908   5.55491
 Alpha virt. eigenvalues --    5.57208   5.57998   5.59157   5.61385   5.62571
 Alpha virt. eigenvalues --    5.62925   5.64232   5.65314   5.66347   5.67484
 Alpha virt. eigenvalues --    5.68770   5.69515   5.70904   5.71152   5.72574
 Alpha virt. eigenvalues --    5.74834   5.75660   5.79155   5.80661   5.81725
 Alpha virt. eigenvalues --    5.86494   5.88250   5.89686   5.90719   5.95702
 Alpha virt. eigenvalues --    5.98301   5.99288   6.03078   6.06828   6.09899
 Alpha virt. eigenvalues --    6.16933   6.17811   6.18691   6.20274   6.28018
 Alpha virt. eigenvalues --    6.46029   6.46609   6.50310   6.51264   6.56128
 Alpha virt. eigenvalues --    6.60493   6.60733   6.62147   6.64353   6.66983
 Alpha virt. eigenvalues --    6.79449   6.80123   6.80396   6.88120   6.88777
 Alpha virt. eigenvalues --    6.90954   6.91419   6.91602   6.92186   7.06497
 Alpha virt. eigenvalues --    7.17218   7.18835   7.22811   7.26932   7.29219
 Alpha virt. eigenvalues --    7.67444   7.98733   8.09775   8.11767   8.14099
 Alpha virt. eigenvalues --    8.18615   8.21052   8.25687   8.35667   8.65895
 Alpha virt. eigenvalues --    8.73583   8.75740   8.77235   8.80799   8.81763
 Alpha virt. eigenvalues --    8.83461   8.84192   8.86248   8.87363   8.89628
 Alpha virt. eigenvalues --    8.91945   8.92580   8.96060   9.02451   9.07220
 Alpha virt. eigenvalues --    9.07543   9.11366   9.19546   9.20555   9.30900
 Alpha virt. eigenvalues --    9.35741   9.40066   9.40953   9.45780   9.48624
 Alpha virt. eigenvalues --    9.57886   9.61528   9.77501   9.81711  10.01834
 Alpha virt. eigenvalues --   10.06891  10.11074  10.12931  10.13785  10.16367
 Alpha virt. eigenvalues --   10.17964  10.19224  10.20241  10.24375  10.26974
 Alpha virt. eigenvalues --   10.30343  10.36636  10.82517  11.69799  11.74982
 Alpha virt. eigenvalues --   11.82026  11.91951  11.95690  12.01762  12.11034
 Alpha virt. eigenvalues --   12.15765  12.20859  12.23956  12.29645  12.33194
 Alpha virt. eigenvalues --   12.37401  12.54978  12.58321  12.82305  12.86504
 Alpha virt. eigenvalues --   12.92274  14.84586  14.95334  14.99708  15.23687
 Alpha virt. eigenvalues --   15.25416  15.42245  15.98340  15.98738  16.01171
 Alpha virt. eigenvalues --   16.79960  16.94244  21.89485  21.99573  22.05910
 Alpha virt. eigenvalues --   40.11204  40.17254  40.19251  40.20835  40.21657
 Alpha virt. eigenvalues --   40.26320  40.29110  40.36910  40.56638  40.65360
[...]
 Alpha virt. eigenvalues --    6.91030   6.92885   7.08256   7.09013   7.10436
 Alpha virt. eigenvalues --    7.15264   7.17955   7.28657   7.43469   8.64517
 Alpha virt. eigenvalues --    9.50551   9.86035  11.94114  12.09383  12.28144
 Alpha virt. eigenvalues --   12.43204  12.59723  12.75421  12.94527  13.20566
 Alpha virt. eigenvalues --   13.47800  13.56727  13.59980  13.73151  13.99485
 Alpha virt. eigenvalues --   15.53459
          Condensed to atoms (all electrons):
               1          2          3          4          5          6
     1  C    5.423953   0.217108   0.012223  -0.046238  -0.022130   0.299171
     2  C    0.217108   5.372655   0.300763   0.000300  -0.037611   0.026941
     3  C    0.012223   0.300763   5.437900   0.281192  -0.044274  -0.071068
     4  C   -0.046238   0.000300   0.281192   5.223193   0.443725  -0.026922
     5  C   -0.022130  -0.037611  -0.044274   0.443725   5.040823   0.407234
     6  C    0.299171   0.026941  -0.071068  -0.026922   0.407234   4.861083
     7  H    0.452688  -0.034729   0.009847  -0.000583   0.003648  -0.074218
     8  H   -0.021552   0.436742  -0.085595   0.006287  -0.001761   0.008581
     9  H   -0.003304   0.008255  -0.103309   0.452706  -0.029005   0.010557
    10  H    0.014061  -0.005891   0.013614  -0.056024   0.449994  -0.075888
    11  C    0.006603  -0.083208   0.166499  -0.041971   0.010112  -0.002182
    12  H    0.000082  -0.004053  -0.048244   0.003779  -0.000288   0.000133
    13  H   -0.000220   0.007776  -0.033573  -0.006252  -0.000133   0.000022
    14  C    0.000600  -0.001112  -0.009771  -0.000249  -0.000217  -0.000155
    15  H    0.000139   0.000387   0.007482  -0.000437  -0.000198   0.000028
    16  C   -0.000031   0.001228  -0.013838   0.001395   0.000015  -0.000002
    17  O   -0.090569   0.013879  -0.000720   0.003058  -0.049537   0.393208
    18  H   -0.004716   0.004678  -0.000424  -0.000701   0.002310  -0.043317
    19  O    0.000002  -0.000915   0.000520  -0.000092  -0.000001   0.000001
    20  N   -0.000197   0.000424  -0.000346  -0.000164  -0.000118   0.000050
    21  H   -0.000063   0.000159  -0.003319   0.004741  -0.000006   0.000008
    22  N    0.000000   0.000054   0.003048  -0.000143  -0.000002   0.000000
    23  H    0.000001  -0.000013   0.000214  -0.000041   0.000001   0.000000
    24  C   -0.000017  -0.000107  -0.002499   0.000042   0.000028   0.000009
    25  C   -0.000002  -0.000021   0.000019   0.000034  -0.000009   0.000001
    26  H    0.000000   0.000003   0.000020  -0.000031   0.000003   0.000000
    27  H    0.000000   0.000000  -0.000017   0.000013   0.000001   0.000000
    28  H    0.000000   0.000025   0.000028  -0.000064  -0.000015   0.000000
    29  C    0.000000   0.000003  -0.000062   0.000005   0.000000   0.000000
    30  H    0.000000   0.000001  -0.000067   0.000001   0.000000   0.000000
    31  H    0.000000   0.000000  -0.000005   0.000000   0.000000   0.000000
    32  H    0.000000  -0.000001   0.000021   0.000000   0.000000   0.000000
    33  O   -0.000003  -0.000124   0.000157  -0.000012   0.000000   0.000000
               7          8          9         10         11         12
     1  C    0.452688  -0.021552  -0.003304   0.014061   0.006603   0.000082
     2  C   -0.034729   0.436742   0.008255  -0.005891  -0.083208  -0.004053
     3  C    0.009847  -0.085595  -0.103309   0.013614   0.166499  -0.048244
     4  C   -0.000583   0.006287   0.452706  -0.056024  -0.041971   0.003779
     5  C    0.003648  -0.001761  -0.029005   0.449994   0.010112  -0.000288
     6  C   -0.074218   0.008581   0.010557  -0.075888  -0.002182   0.000133
     7  H    0.533749  -0.007257   0.000052  -0.000227  -0.000199  -0.000044
     8  H   -0.007257   0.499986  -0.000180   0.000040  -0.005523   0.002095
     9  H    0.000052  -0.000180   0.511646  -0.009145   0.006081   0.000359
    10  H   -0.000227   0.000040  -0.009145   0.540398  -0.000246   0.000011
    11  C   -0.000199  -0.005523   0.006081  -0.000246   5.513223   0.425561
    12  H   -0.000044   0.002095   0.000359   0.000011   0.425561   0.438101
    13  H    0.000017   0.000720   0.002183  -0.000044   0.396679   0.001478
    14  C    0.000021  -0.000307  -0.000809   0.000024   0.165028  -0.066451
    15  H    0.000025   0.002904   0.000078   0.000006  -0.022997   0.000775
    16  C   -0.000003  -0.000556   0.000002   0.000000  -0.034809   0.008038
    17  O   -0.004129  -0.000094  -0.000137   0.006227  -0.000006  -0.000001
    18  H    0.004468   0.000009   0.000046  -0.000931  -0.000009   0.000000
    19  O   -0.000002   0.003359   0.000002   0.000000  -0.006280   0.012689
    20  N   -0.000004   0.000473  -0.000375  -0.000002  -0.046502   0.005474
    21  H    0.000001  -0.000066   0.001699  -0.000025   0.002391   0.000437
    22  N    0.000000   0.000164   0.000003   0.000000   0.004618  -0.000074
    23  H    0.000000  -0.000008  -0.000007   0.000000   0.001021  -0.000371
    24  C   -0.000001   0.000060   0.000037  -0.000001   0.012766   0.000375
    25  C    0.000000   0.000000   0.000047   0.000000   0.000406   0.000044
    26  H    0.000000   0.000001  -0.000004   0.000000   0.000020  -0.000001
    27  H    0.000000   0.000000  -0.000002   0.000000  -0.000022  -0.000001
    28  H    0.000000   0.000001   0.000033  -0.000001  -0.000173  -0.000003
    29  C    0.000000  -0.000010   0.000000   0.000000  -0.000536  -0.000130
    30  H    0.000000  -0.000002   0.000000   0.000000  -0.000438   0.000369
    31  H    0.000000   0.000000   0.000000   0.000000  -0.000047  -0.000013
    32  H    0.000000  -0.000001   0.000000   0.000000   0.000121  -0.000111
    33  O    0.000000  -0.000012   0.000002   0.000000   0.002145   0.000057
              13         14         15         16         17         18
     1  C   -0.000220   0.000600   0.000139  -0.000031  -0.090569  -0.004716
     2  C    0.007776  -0.001112   0.000387   0.001228   0.013879   0.004678
     3  C   -0.033573  -0.009771   0.007482  -0.013838  -0.000720  -0.000424
     4  C   -0.006252  -0.000249  -0.000437   0.001395   0.003058  -0.000701
     5  C   -0.000133  -0.000217  -0.000198   0.000015  -0.049537   0.002310
     6  C    0.000022  -0.000155   0.000028  -0.000002   0.393208  -0.043317
     7  H    0.000017   0.000021   0.000025  -0.000003  -0.004129   0.004468
     8  H    0.000720  -0.000307   0.002904  -0.000556  -0.000094   0.000009
     9  H    0.002183  -0.000809   0.000078   0.000002  -0.000137   0.000046
    10  H   -0.000044   0.000024   0.000006   0.000000   0.006227  -0.000931
    11  C    0.396679   0.165028  -0.022997  -0.034809  -0.000006  -0.000009
    12  H    0.001478  -0.066451   0.000775   0.008038  -0.000001   0.000000
    13  H    0.467852  -0.032302   0.005005  -0.015489   0.000000   0.000000
    14  C   -0.032302   5.490528   0.433498   0.183081   0.000001   0.000000
    15  H    0.005005   0.433498   0.419999  -0.075312   0.000000   0.000000
    16  C   -0.015489   0.183081  -0.075312   4.801475   0.000000   0.000000
    17  O    0.000000   0.000001   0.000000   0.000000   7.663233   0.359872
    18  H    0.000000   0.000000   0.000000   0.000000   0.359872   0.489260
    19  O    0.000763  -0.065747   0.005744   0.706491   0.000000   0.000000
    20  N   -0.004613   0.187310  -0.038144  -0.059682   0.000000   0.000000
    21  H    0.002768  -0.023027   0.002199   0.000590   0.000000   0.000000
    22  N    0.006130  -0.077592   0.004222   0.283915   0.000000   0.000000
    23  H    0.001607   0.000185   0.001301  -0.034714   0.000000   0.000000
    24  C   -0.000729  -0.095175  -0.006235   0.011254   0.000000   0.000000
    25  C   -0.000088   0.005912   0.001649  -0.000639   0.000000   0.000000
    26  H    0.000018  -0.000249   0.000105  -0.000183   0.000000   0.000000
    27  H   -0.000023  -0.000460  -0.000193   0.000474   0.000000   0.000000
    28  H   -0.000027   0.001398  -0.000326  -0.000212   0.000000   0.000000
    29  C   -0.000310   0.008912  -0.000692  -0.050670   0.000000   0.000000
    30  H   -0.000178  -0.001228  -0.000180  -0.001214   0.000000   0.000000
    31  H   -0.000026   0.000594  -0.000010   0.008158   0.000000   0.000000
    32  H    0.000029   0.001439   0.000196  -0.005952   0.000000   0.000000
    33  O   -0.000019   0.002984   0.017996   0.006436   0.000000   0.000000
              19         20         21         22         23         24
     1  C    0.000002  -0.000197  -0.000063   0.000000   0.000001  -0.000017
     2  C   -0.000915   0.000424   0.000159   0.000054  -0.000013  -0.000107
     3  C    0.000520  -0.000346  -0.003319   0.003048   0.000214  -0.002499
     4  C   -0.000092  -0.000164   0.004741  -0.000143  -0.000041   0.000042
     5  C   -0.000001  -0.000118  -0.000006  -0.000002   0.000001   0.000028
     6  C    0.000001   0.000050   0.000008   0.000000   0.000000   0.000009
     7  H   -0.000002  -0.000004   0.000001   0.000000   0.000000  -0.000001
     8  H    0.003359   0.000473  -0.000066   0.000164  -0.000008   0.000060
     9  H    0.000002  -0.000375   0.001699   0.000003  -0.000007   0.000037
    10  H    0.000000  -0.000002  -0.000025   0.000000   0.000000  -0.000001
    11  C   -0.006280  -0.046502   0.002391   0.004618   0.001021   0.012766
    12  H    0.012689   0.005474   0.000437  -0.000074  -0.000371   0.000375
    13  H    0.000763  -0.004613   0.002768   0.006130   0.001607  -0.000729
    14  C   -0.065747   0.187310  -0.023027  -0.077592   0.000185  -0.095175
    15  H    0.005744  -0.038144   0.002199   0.004222   0.001301  -0.006235
    16  C    0.706491  -0.059682   0.000590   0.283915  -0.034714   0.011254
    17  O    0.000000   0.000000   0.000000   0.000000   0.000000   0.000000
    18  H    0.000000   0.000000   0.000000   0.000000   0.000000   0.000000
    19  O    7.847040   0.005254  -0.000178  -0.127556   0.005229  -0.000967
    20  N    0.005254   6.666597   0.364568   0.002974   0.026494   0.311800
    21  H   -0.000178   0.364568   0.496436   0.000042   0.000209  -0.018394
    22  N   -0.127556   0.002974   0.000042   6.499237   0.384752   0.008580
    23  H    0.005229   0.026494   0.000209   0.384752   0.516657  -0.005348
    24  C   -0.000967   0.311800  -0.018394   0.008580  -0.005348   4.619009
    25  C   -0.000008  -0.064145  -0.001698  -0.000407   0.000179   0.278595
    26  H    0.000000   0.000100  -0.000007   0.000003   0.000151  -0.026946
    27  H   -0.000002  -0.000839   0.000124   0.000209  -0.000587  -0.023334
    28  H    0.000000   0.012956  -0.001274   0.000135   0.000106  -0.058168
    29  C    0.007662  -0.001838   0.000053   0.287464  -0.032610   0.000151
    30  H    0.004401  -0.000087  -0.000008  -0.048567   0.001431   0.000179
    31  H    0.001508  -0.000191   0.000023  -0.028140  -0.007942  -0.000058
    32  H    0.006113  -0.000236   0.000011  -0.047778   0.003107  -0.000431
    33  O   -0.000141  -0.134143   0.004892  -0.005773  -0.003166   0.720635
              25         26         27         28         29         30
     1  C   -0.000002   0.000000   0.000000   0.000000   0.000000   0.000000
     2  C   -0.000021   0.000003   0.000000   0.000025   0.000003   0.000001
     3  C    0.000019   0.000020  -0.000017   0.000028  -0.000062  -0.000067
     4  C    0.000034  -0.000031   0.000013  -0.000064   0.000005   0.000001
     5  C   -0.000009   0.000003   0.000001  -0.000015   0.000000   0.000000
     6  C    0.000001   0.000000   0.000000   0.000000   0.000000   0.000000
     7  H    0.000000   0.000000   0.000000   0.000000   0.000000   0.000000
     8  H    0.000000   0.000001   0.000000   0.000001  -0.000010  -0.000002
     9  H    0.000047  -0.000004  -0.000002   0.000033   0.000000   0.000000
    10  H    0.000000   0.000000   0.000000  -0.000001   0.000000   0.000000
    11  C    0.000406   0.000020  -0.000022  -0.000173  -0.000536  -0.000438
    12  H    0.000044  -0.000001  -0.000001  -0.000003  -0.000130   0.000369
    13  H   -0.000088   0.000018  -0.000023  -0.000027  -0.000310  -0.000178
    14  C    0.005912  -0.000249  -0.000460   0.001398   0.008912  -0.001228
    15  H    0.001649   0.000105  -0.000193  -0.000326  -0.000692  -0.000180
    16  C   -0.000639  -0.000183   0.000474  -0.000212  -0.050670  -0.001214
    17  O    0.000000   0.000000   0.000000   0.000000   0.000000   0.000000
    18  H    0.000000   0.000000   0.000000   0.000000   0.000000   0.000000
    19  O   -0.000008   0.000000  -0.000002   0.000000   0.007662   0.004401
    20  N   -0.064145   0.000100  -0.000839   0.012956  -0.001838  -0.000087
    21  H   -0.001698  -0.000007   0.000124  -0.001274   0.000053  -0.000008
    22  N   -0.000407   0.000003   0.000209   0.000135   0.287464  -0.048567
    23  H    0.000179   0.000151  -0.000587   0.000106  -0.032610   0.001431
    24  C    0.278595  -0.026946  -0.023334  -0.058168   0.000151   0.000179
    25  C    4.991648   0.391370   0.382310   0.396540  -0.000051   0.000001
    26  H    0.391370   0.558333  -0.023248  -0.024495  -0.000002   0.000000
    27  H    0.382310  -0.023248   0.573774  -0.027670   0.000019   0.000002
    28  H    0.396540  -0.024495  -0.027670   0.599196   0.000002   0.000000
    29  C   -0.000051  -0.000002   0.000019   0.000002   4.757693   0.397804
    30  H    0.000001   0.000000   0.000002   0.000000   0.397804   0.620997
    31  H   -0.000011   0.000000   0.000012   0.000001   0.394383  -0.028989
    32  H   -0.000011   0.000000  -0.000001  -0.000001   0.400629  -0.054966
    33  O   -0.068766   0.001254   0.001842   0.004437   0.000207   0.000005
              31         32         33
     1  C    0.000000   0.000000  -0.000003
     2  C    0.000000  -0.000001  -0.000124
     3  C   -0.000005   0.000021   0.000157
     4  C    0.000000   0.000000  -0.000012
     5  C    0.000000   0.000000   0.000000
     6  C    0.000000   0.000000   0.000000
     7  H    0.000000   0.000000   0.000000
     8  H    0.000000  -0.000001  -0.000012
     9  H    0.000000   0.000000   0.000002
    10  H    0.000000   0.000000   0.000000
    11  C   -0.000047   0.000121   0.002145
    12  H   -0.000013  -0.000111   0.000057
    13  H   -0.000026   0.000029  -0.000019
    14  C    0.000594   0.001439   0.002984
    15  H   -0.000010   0.000196   0.017996
    16  C    0.008158  -0.005952   0.006436
    17  O    0.000000   0.000000   0.000000
    18  H    0.000000   0.000000   0.000000
    19  O    0.001508   0.006113  -0.000141
    20  N   -0.000191  -0.000236  -0.134143
    21  H    0.000023   0.000011   0.004892
    22  N   -0.028140  -0.047778  -0.005773
    23  H   -0.007942   0.003107  -0.003166
    24  C   -0.000058  -0.000431   0.720635
    25  C   -0.000011  -0.000011  -0.068766
    26  H    0.000000   0.000000   0.001254
    27  H    0.000012  -0.000001   0.001842
    28  H    0.000001  -0.000001   0.004437
    29  C    0.394383   0.400629   0.000207
    30  H   -0.028989  -0.054966   0.000005
    31  H    0.603092  -0.026393   0.000009
    32  H   -0.026393   0.606290   0.000235
    33  O    0.000009   0.000235   7.829785
 Mulliken charges:
               1
     1  C   -0.237591
     2  C   -0.223594
     3  C    0.183583
     4  C   -0.240550
     5  C   -0.172588
     6  C    0.286726
     7  H    0.116880
     8  H    0.161501
     9  H    0.152487
    10  H    0.124051
    11  C   -0.468126
    12  H    0.219930
    13  H    0.200976
    14  C   -0.106664
    15  H    0.240987
    16  C    0.280755
    17  O   -0.294283
    18  H    0.189455
    19  O   -0.404891
    20  N   -0.232849
    21  H    0.166715
    22  N   -0.149518
    23  H    0.142165
    24  C    0.274889
    25  C   -0.312898
    26  H    0.123784
    27  H    0.117621
    28  H    0.097573
    29  C   -0.168078
    30  H    0.110732
    31  H    0.084046
    32  H    0.117691
    33  O   -0.380918
 Sum of Mulliken charges =   0.00000
 Mulliken charges with hydrogens summed into heavy atoms:
               1
     1  C   -0.120711
     2  C   -0.062093
     3  C    0.183583
     4  C   -0.088062
     5  C   -0.048537
     6  C    0.286726
    11  C   -0.047220
    14  C    0.134323
    16  C    0.280755
    17  O   -0.104828
    19  O   -0.404891
    20  N   -0.066134
    22  N   -0.007353
    24  C    0.274889
    25  C    0.026079
    29  C    0.144392
    33  O   -0.380918
 Electronic spatial extent (au):  <R**2>=           5295.8767
 Charge=              0.0000 electrons
 Dipole moment (field-independent basis, Debye):
    X=             -1.0995    Y=              2.0799    Z=             -4.0906  Tot=              4.7189
 Quadrupole moment (field-independent basis, Debye-Ang):
   XX=            -91.7242   YY=           -102.3406   ZZ=           -100.1858
   XY=              7.4676   XZ=            -21.1514   YZ=             -5.0510
 Traceless Quadrupole moment (field-independent basis, Debye-Ang):
   XX=              6.3594   YY=             -4.2571   ZZ=             -2.1023
   XY=              7.4676   XZ=            -21.1514   YZ=             -5.0510
 Octapole moment (field-independent basis, Debye-Ang**2):
  XXX=             31.3844  YYY=             40.4564  ZZZ=             -2.8742  XYY=             -2.9068
  XXY=            -19.8652  XXZ=             16.2207  XZZ=            -26.3578  YZZ=             -1.9604
  YYZ=            -13.4638  XYZ=              9.9070
 Hexadecapole moment (field-independent basis, Debye-Ang**3):
 XXXX=          -4524.1933 YYYY=          -1348.7694 ZZZZ=           -506.2676 XXXY=             74.1767
 XXXZ=           -381.6728 YYYX=             48.1220 YYYZ=             18.2359 ZZZX=            -48.8076
 ZZZY=            -29.2619 XXYY=          -1090.3286 XXZZ=           -844.0251 YYZZ=           -331.4981
 XXYZ=            -54.4939 YYXZ=            -50.3125 ZZXY=            -14.4708
 N-N= 1.198186590514D+03 E-N=-4.266566873093D+03  KE= 7.962028006909D+02
 Calculating spin-rotation constants.
 Leave Link  601 at Wed Jun 25 17:48:11 2014, MaxMem=  4294967296 cpu:        92.1
 (Enter /home/ztw1e12/g09/l9999.exe)

 Test job not archived.
 1\1\GINC-GREEN0282\SP\RM06\Gen\C12H16N2O3\ROOT\25-Jun-2014\0\\#P Geom=
 AllCheck Guess=TCheck SCRF=Check GenChk RM06/ChkBas NMR=ReadFC IOp(3/6
 =22)\\NMR spin-spin scan\\0,1\C,0,2.080293,-2.798858,1.249336\C,0,1.47
 211,-1.571825,1.433552\C,0,1.487943,-0.602086,0.437642\C,0,2.129143,-0
 .899864,-0.757885\C,0,2.743541,-2.123764,-0.958931\C,0,2.719396,-3.075
 298,0.048209\H,0,2.069423,-3.54812,2.032633\H,0,0.974903,-1.356956,2.3
 73976\H,0,2.15367,-0.15529,-1.54623\H,0,3.246341,-2.352008,-1.890165\C
 ,0,0.803358,0.712554,0.654458\H,0,1.049888,1.090124,1.649475\H,0,1.146
 139,1.45834,-0.06822\C,0,-0.720043,0.606294,0.568122\H,0,-1.051622,-0.
 295038,1.092077\C,0,-1.337105,1.76302,1.335985\O,0,3.339278,-4.266079,
 -0.186647\H,0,3.258171,-4.829663,0.591162\O,0,-1.340373,1.733224,2.566
 079\N,0,-1.123791,0.537092,-0.81816\H,0,-0.420859,0.675428,-1.529372\N
 ,0,-1.801699,2.795951,0.634745\H,0,-1.80875,2.735217,-0.370665\C,0,-2.
 3499,0.112056,-1.187151\C,0,-2.596973,-0.009221,-2.653863\H,0,-2.83098
 8,-1.049076,-2.882367\H,0,-3.471067,0.586889,-2.913852\H,0,-1.750246,0
 .307925,-3.258876\C,0,-2.381512,3.949426,1.284019\H,0,-1.647099,4.4570
 76,1.909714\H,0,-2.731011,4.64195,0.524587\H,0,-3.225199,3.663151,1.91
 2426\O,0,-3.214517,-0.155035,-0.356945\\Version=EM64L-G09RevD.01\State
 =1-A\HF=-801.8636884\RMSD=4.169e-09\Dipole=0.899003,0.3926866,-1.57619
 76\Quadrupole=-10.1675631,10.888413,-0.7208499,-5.5358151,7.7134636,-1
 0.404562\PG=C01 [X(C12H16N2O3)]\\@


 Where a calculator on the ENIAC is equipped with 18,000
 vacuum tubes and weighs 30 tons, computers inthe future
 may  have only 1,000 vacuum tubes and weigh only 1 1/2 tons.
              ---Popular Mechanics, March 1949
 Job cpu time:       3 days  5 hours 19 minutes 51.5 seconds.
 File lengths (MBytes):  RWF=   3656 Int=      0 D2E=      0 Chk=     64 Scr=      8
 Normal termination of Gaussian 09 at Wed Jun 25 17:48:11 2014.
