 Entering Gaussian System, Link 0=g09
 Input=scan_input_26.gjf
 Output=scan_input_26.log
 Initial command:
 /home/ztw1e12/g09/l1.exe "/home/ztw1e12/tyrosine_scan/tyrosine_chi1_scan/Gau-19537.inp" -scrdir="/home/ztw1e12/tyrosine_scan/tyrosine_chi1_scan/"
 Default is to use a total of   8 processors:
                                8 via shared-memory
                                1 via Linda
 Entering Link 1 = /home/ztw1e12/g09/l1.exe PID=     19538.
  
 Copyright (c) 1988,1990,1992,1993,1995,1998,2003,2009,2013,
            Gaussian, Inc.  All Rights Reserved.
  
 This is part of the Gaussian(R) 09 program.  It is based on
 the Gaussian(R) 03 system (copyright 2003, Gaussian, Inc.),
 the Gaussian(R) 98 system (copyright 1998, Gaussian, Inc.),
 the Gaussian(R) 94 system (copyright 1995, Gaussian, Inc.),
 the Gaussian 92(TM) system (copyright 1992, Gaussian, Inc.),
 the Gaussian 90(TM) system (copyright 1990, Gaussian, Inc.),
 the Gaussian 88(TM) system (copyright 1988, Gaussian, Inc.),
 the Gaussian 86(TM) system (copyright 1986, Carnegie Mellon
 University), and the Gaussian 82(TM) system (copyright 1983,
 Carnegie Mellon University). Gaussian is a federally registered
 trademark of Gaussian, Inc.
  
 This software contains proprietary and confidential information,
 including trade secrets, belonging to Gaussian, Inc.
  
 This software is provided under written license and may be
 used, copied, transmitted, or stored only in accord with that
 written license.
  
 The following legend is applicable only to US Government
 contracts under FAR:
  
                    RESTRICTED RIGHTS LEGEND
  
 Use, reproduction and disclosure by the US Government is
 subject to restrictions as set forth in subparagraphs (a)
 and (c) of the Commercial Computer Software - Restricted
 Rights clause in FAR 52.227-19.
  
 Gaussian, Inc.
 340 Quinnipiac St., Bldg. 40, Wallingford CT 06492
  
  
 ---------------------------------------------------------------
 Warning -- This program may not be used in any manner that
 competes with the business of Gaussian, Inc. or will provide
 assistance to any competitor of Gaussian, Inc.  The licensee
 of this program is prohibited from giving any competitor of
 Gaussian, Inc. access to this program.  By using this program,
 the user acknowledges that Gaussian, Inc. is engaged in the
 business of creating and licensing software in the field of
 computational chemistry and represents and warrants to the
 licensee that it is not a competitor of Gaussian, Inc. and that
 it will not use this program in any manner prohibited above.
 ---------------------------------------------------------------
  

 Cite this work as:
 Gaussian 09, Revision D.01,
 M. J. Frisch, G. W. Trucks, H. B. Schlegel, G. E. Scuseria, 
 M. A. Robb, J. R. Cheeseman, G. Scalmani, V. Barone, B. Mennucci, 
 G. A. Petersson, H. Nakatsuji, M. Caricato, X. Li, H. P. Hratchian, 
 A. F. Izmaylov, J. Bloino, G. Zheng, J. L. Sonnenberg, M. Hada, 
 M. Ehara, K. Toyota, R. Fukuda, J. Hasegawa, M. Ishida, T. Nakajima, 
 Y. Honda, O. Kitao, H. Nakai, T. Vreven, J. A. Montgomery, Jr., 
 J. E. Peralta, F. Ogliaro, M. Bearpark, J. J. Heyd, E. Brothers, 
 K. N. Kudin, V. N. Staroverov, T. Keith, R. Kobayashi, J. Normand, 
 K. Raghavachari, A. Rendell, J. C. Burant, S. S. Iyengar, J. Tomasi, 
 M. Cossi, N. Rega, J. M. Millam, M. Klene, J. E. Knox, J. B. Cross, 
 V. Bakken, C. Adamo, J. Jaramillo, R. Gomperts, R. E. Stratmann, 
 O. Yazyev, A. J. Austin, R. Cammi, C. Pomelli, J. W. Ochterski, 
 R. L. Martin, K. Morokuma, V. G. Zakrzewski, G. A. Voth, 
 P. Salvador, J. J. Dannenberg, S. Dapprich, A. D. Daniels, 
 O. Farkas, J. B. Foresman, J. V. Ortiz, J. Cioslowski, 
 and D. J. Fox, Gaussian, Inc., Wallingford CT, 2013.
 
 ******************************************
 Gaussian 09:  EM64L-G09RevD.01 24-Apr-2013
                24-Jun-2014 
 ******************************************
 %Mem=32GB
 %NProcShared=16
 Will use up to   16 processors via shared memory.
 Default route:  MaxDisk=100GB
 ----------------------------------------------------------------------
 #p nmr=(giao,mixed,spinspin) m06/cc-pvtz scf=tight integral=(grid=ultr
 afine)
 ----------------------------------------------------------------------
 1/38=1/1;
 2/12=2,17=6,18=5,40=1/2;
 3/5=16,6=1,10=1100000,11=2,16=1,25=1,30=1,74=-54,75=-5/1,2,8,3;
 4//1;
 5/5=2,32=2,38=5/2;
 8/6=1,10=90,11=11/1;
 10/13=100,45=16,47=3/2;
 6/7=2,8=2,9=2,10=2,28=1/1;
 99/9=1/99;
 Leave Link    1 at Tue Jun 24 16:43:33 2014, MaxMem=  4294967296 cpu:         5.6
 (Enter /home/ztw1e12/g09/l101.exe)
 ------------------
 NMR spin-spin scan
 ------------------
 Symbolic Z-matrix:
 Charge =  0 Multiplicity = 1
 C                     2.80323  -1.75229   1.91605 
 C                     2.16518  -0.65373   1.36417 
 C                     1.49889  -0.74096   0.15008 
 C                     1.48426  -1.96941  -0.50301 
 C                     2.1137   -3.07521   0.03328 
 C                     2.77702  -2.9658    1.2482 
 H                     3.32218  -1.6744    2.86446 
 H                     2.18583   0.29424   1.89034 
 H                     0.97119  -2.0583   -1.45484 
 H                     2.10477  -4.0288   -0.47918 
 C                     0.81451   0.44756  -0.45207 
 H                     1.12752   1.36591   0.05061 
 H                     1.12603   0.53761  -1.49693 
 C                    -0.7203    0.35312  -0.45162 
 H                    -1.01336  -0.69894  -0.50832 
 C                    -1.24197   0.85121   0.8819 
 O                     3.3887   -4.08101   1.73795 
 H                     3.81577  -3.87048   2.57614 
 O                    -1.13649   0.13438   1.87682 
 N                    -1.26292   1.03458  -1.60501 
 H                    -0.6552    1.62305  -2.15465 
 N                    -1.73201   2.09051   0.93274 
 H                    -1.84488   2.60713   0.07555 
 C                    -2.53778   0.85248  -2.002 
 C                    -2.96083   1.5799   -3.2346 
 H                    -3.34576   0.85705  -3.95334 
 H                    -3.77983   2.25242  -2.97966 
 H                    -2.15737   2.15227  -3.69293 
 C                    -2.1923    2.66878   2.17432 
 H                    -1.3948    2.67756   2.91707 
 H                    -2.50942   3.69083   1.99111 
 H                    -3.03418   2.11036   2.58547 
 O                    -3.30853   0.12593  -1.37921 
 
 NAtoms=     33 NQM=       33 NQMF=       0 NMMI=      0 NMMIF=      0
                NMic=       0 NMicF=      0.
                    Isotopes and Nuclear Properties:
 (Nuclear quadrupole moments (NQMom) in fm**2, nuclear magnetic moments (NMagM)
  in nuclear magnetons)

  Atom         1           2           3           4           5           6           7           8           9          10
 IAtWgt=          12          12          12          12          12          12           1           1           1           1
 AtmWgt=  12.0000000  12.0000000  12.0000000  12.0000000  12.0000000  12.0000000   1.0078250   1.0078250   1.0078250   1.0078250
 NucSpn=           0           0           0           0           0           0           1           1           1           1
 AtZEff=   0.0000000   0.0000000   0.0000000   0.0000000   0.0000000   0.0000000   0.0000000   0.0000000   0.0000000   0.0000000
 NQMom=    0.0000000   0.0000000   0.0000000   0.0000000   0.0000000   0.0000000   0.0000000   0.0000000   0.0000000   0.0000000
 NMagM=    0.0000000   0.0000000   0.0000000   0.0000000   0.0000000   0.0000000   2.7928460   2.7928460   2.7928460   2.7928460
 AtZNuc=   6.0000000   6.0000000   6.0000000   6.0000000   6.0000000   6.0000000   1.0000000   1.0000000   1.0000000   1.0000000

  Atom        11          12          13          14          15          16          17          18          19          20
 IAtWgt=          12           1           1          12           1          12          16           1          16          14
 AtmWgt=  12.0000000   1.0078250   1.0078250  12.0000000   1.0078250  12.0000000  15.9949146   1.0078250  15.9949146  14.0030740
 NucSpn=           0           1           1           0           1           0           0           1           0           2
 AtZEff=   0.0000000   0.0000000   0.0000000   0.0000000   0.0000000   0.0000000   0.0000000   0.0000000   0.0000000   0.0000000
 NQMom=    0.0000000   0.0000000   0.0000000   0.0000000   0.0000000   0.0000000   0.0000000   0.0000000   0.0000000   2.0440000
 NMagM=    0.0000000   2.7928460   2.7928460   0.0000000   2.7928460   0.0000000   0.0000000   2.7928460   0.0000000   0.4037610
 AtZNuc=   6.0000000   1.0000000   1.0000000   6.0000000   1.0000000   6.0000000   8.0000000   1.0000000   8.0000000   7.0000000

  Atom        21          22          23          24          25          26          27          28          29          30
 IAtWgt=           1          14           1          12          12           1           1           1          12           1
 AtmWgt=   1.0078250  14.0030740   1.0078250  12.0000000  12.0000000   1.0078250   1.0078250   1.0078250  12.0000000   1.0078250
 NucSpn=           1           2           1           0           0           1           1           1           0           1
 AtZEff=   0.0000000   0.0000000   0.0000000   0.0000000   0.0000000   0.0000000   0.0000000   0.0000000   0.0000000   0.0000000
 NQMom=    0.0000000   2.0440000   0.0000000   0.0000000   0.0000000   0.0000000   0.0000000   0.0000000   0.0000000   0.0000000
 NMagM=    2.7928460   0.4037610   2.7928460   0.0000000   0.0000000   2.7928460   2.7928460   2.7928460   0.0000000   2.7928460
 AtZNuc=   1.0000000   7.0000000   1.0000000   6.0000000   6.0000000   1.0000000   1.0000000   1.0000000   6.0000000   1.0000000

  Atom        31          32          33
 IAtWgt=           1           1          16
 AtmWgt=   1.0078250   1.0078250  15.9949146
 NucSpn=           1           1           0
 AtZEff=   0.0000000   0.0000000   0.0000000
 NQMom=    0.0000000   0.0000000   0.0000000
 NMagM=    2.7928460   2.7928460   0.0000000
 AtZNuc=   1.0000000   1.0000000   8.0000000
 Leave Link  101 at Tue Jun 24 16:43:33 2014, MaxMem=  4294967296 cpu:         1.7
 (Enter /home/ztw1e12/g09/l202.exe)
                          Input orientation:                          
 ---------------------------------------------------------------------
 Center     Atomic      Atomic             Coordinates (Angstroms)
 Number     Number       Type             X           Y           Z
 ---------------------------------------------------------------------
      1          6           0        2.803226   -1.752294    1.916046
      2          6           0        2.165180   -0.653730    1.364165
      3          6           0        1.498892   -0.740960    0.150079
      4          6           0        1.484261   -1.969412   -0.503013
      5          6           0        2.113701   -3.075209    0.033281
      6          6           0        2.777023   -2.965798    1.248195
      7          1           0        3.322179   -1.674399    2.864461
      8          1           0        2.185832    0.294235    1.890335
      9          1           0        0.971186   -2.058303   -1.454839
     10          1           0        2.104767   -4.028798   -0.479175
     11          6           0        0.814511    0.447555   -0.452072
     12          1           0        1.127522    1.365913    0.050612
     13          1           0        1.126032    0.537609   -1.496930
     14          6           0       -0.720298    0.353119   -0.451620
     15          1           0       -1.013364   -0.698942   -0.508315
     16          6           0       -1.241974    0.851212    0.881895
     17          8           0        3.388700   -4.081012    1.737952
     18          1           0        3.815772   -3.870478    2.576137
     19          8           0       -1.136491    0.134383    1.876816
     20          7           0       -1.262924    1.034579   -1.605009
     21          1           0       -0.655196    1.623050   -2.154648
     22          7           0       -1.732005    2.090515    0.932735
     23          1           0       -1.844879    2.607129    0.075554
     24          6           0       -2.537784    0.852476   -2.002004
     25          6           0       -2.960834    1.579899   -3.234597
     26          1           0       -3.345763    0.857054   -3.953336
     27          1           0       -3.779833    2.252417   -2.979663
     28          1           0       -2.157372    2.152268   -3.692929
     29          6           0       -2.192301    2.668778    2.174320
     30          1           0       -1.394795    2.677556    2.917072
     31          1           0       -2.509417    3.690829    1.991110
     32          1           0       -3.034181    2.110362    2.585465
     33          8           0       -3.308526    0.125930   -1.379210
 ---------------------------------------------------------------------
                    Distance matrix (angstroms):
                    1          2          3          4          5
     1  C    0.000000
     2  C    1.385106   0.000000
     3  C    2.417173   1.387643   0.000000
     4  C    2.763812   2.383490   1.391344   0.000000
     5  C    2.402156   2.763596   2.416682   1.380794   0.000000
     6  C    1.385389   2.394464   2.790946   2.393898   1.388518
     7  H    1.083915   2.152046   3.400523   3.847708   3.382051
     8  H    2.137783   1.084398   2.138225   3.368147   3.847987
     9  H    3.848750   3.368268   2.142342   1.084952   2.133996
    10  H    3.377484   3.846120   3.401900   2.150969   1.082600
    11  C    3.795037   2.517112   1.497842   2.508563   3.785938
    12  H    4.001380   2.623188   2.141664   3.399729   4.549331
    13  H    4.439036   3.268789   2.118113   2.720543   4.045923
    14  C    4.738547   3.554828   2.546341   3.202635   4.474384
    15  H    4.642568   3.689359   2.597437   2.802187   3.964657
    16  C    4.920504   3.755813   3.253139   4.160078   5.234260
    17  O    2.407784   3.658276   4.153151   3.620451   2.354393
    18  H    2.438785   3.813240   4.587763   4.304783   3.161584
    19  O    4.368347   3.432924   3.270029   4.117995   4.925835
    20  N    6.057893   4.839244   3.722969   4.217272   5.565604
    21  H    6.318558   5.051761   3.942132   4.495660   5.876007
    22  N    6.025147   4.785923   4.366749   5.374825   6.502552
    23  H    6.633013   5.326753   4.732447   5.688817   6.925396
    24  C    7.117748   5.976422   4.844095   5.136815   6.419144
    25  C    8.417661   7.239733   6.060658   6.310153   7.622333
    26  H    8.892042   7.805689   6.546934   6.574403   7.820585
    27  H    9.129203   7.915662   6.827923   7.188068   8.496774
    28  H    8.444746   7.220269   6.042164   6.358089   7.710592
    29  C    6.675917   5.539228   5.417451   6.496001   7.491267
    30  H    6.184578   5.116875   5.264592   6.448275   7.329400
    31  H    7.606405   6.412496   6.252735   7.362638   8.425294
    32  H    7.031611   6.013745   5.883017   6.826388   7.739798
    33  O    7.193049   6.172150   5.118739   5.303677   6.453136
                    6          7          8          9         10
     6  C    0.000000
     7  H    2.139444   0.000000
     8  H    3.374858   2.472999   0.000000
     9  H    3.375054   4.932637   4.266145   0.000000
    10  H    2.136751   4.266754   4.930493   2.473818   0.000000
    11  C    4.288746   4.668027   2.718621   2.703593   4.658673
    12  H    4.787356   4.688045   2.377624   3.743805   5.508048
    13  H    4.747141   5.360762   3.557523   2.600867   4.779730
    14  C    5.112322   5.607927   3.732802   3.111675   5.213727
    15  H    4.752999   5.578895   4.120046   2.584997   4.561966
    16  C    5.554825   5.580392   3.616217   4.338627   6.071877
    17  O    1.362979   2.658051   4.540143   4.486607   2.562589
    18  H    1.913341   2.269257   4.524584   5.255893   3.505358
    19  O    5.032085   4.911911   3.326194   4.511108   5.778280
    20  N    6.361208   6.952546   4.965829   3.818340   6.184386
    21  H    6.664608   7.203064   5.118503   4.084998   6.509070
    22  N    6.782120   6.591731   4.415095   5.497312   7.359368
    23  H    7.334479   7.266909   4.988942   5.660263   7.742284
    24  C    7.306859   8.025381   6.146095   4.591829   6.906455
    25  C    8.583810   9.341585   7.376044   5.644894   8.044262
    26  H    8.897114   9.866715   8.066213   5.777356   8.102445
    27  H    9.385996  10.000612   7.946101   6.593905   8.962958
    28  H    8.657803   9.363131   7.313586   5.703142   8.166984
    29  C    7.569698   7.053295   4.988702   6.747128   8.388287
    30  H    7.213644   6.418109   4.422137   6.865845   8.291961
    31  H    8.532822   7.972197   5.795892   7.552594   9.326609
    32  H    7.831078   7.403078   5.570463   7.052999   8.572636
    33  O    7.314092   8.075653   6.395797   4.805469   6.882991
                   11         12         13         14         15
    11  C    0.000000
    12  H    1.092725   0.000000
    13  H    1.094022   1.755271   0.000000
    14  C    1.537712   2.166201   2.129705   0.000000
    15  H    2.158413   3.026453   2.661472   1.093588   0.000000
    16  C    2.484258   2.563291   3.371143   1.516082   2.094737
    17  O    5.650714   6.134251   6.075836   6.429588   5.988512
    18  H    6.068198   6.405057   6.576915   6.897972   6.549278
    19  O    3.054211   3.158709   4.082127   2.375432   2.529514
    20  N    2.447365   2.926618   2.442493   1.445385   2.066425
    21  H    2.537832   2.847345   2.187132   2.125386   2.868858
    22  N    3.331929   3.078974   4.059946   2.441011   3.220891
    23  H    3.466194   3.221243   3.947395   2.573549   3.458674
    24  C    3.715391   4.232177   3.711844   2.440554   2.638534
    25  C    4.824715   5.249099   4.561615   3.777559   4.051959
    26  H    5.452928   6.025016   5.112037   4.405568   4.441776
    27  H    5.545651   5.835288   5.404311   4.399896   4.740404
    28  H    4.716067   5.042121   4.267350   3.975953   4.424920
    29  C    4.568663   4.150761   5.388069   3.797977   4.464074
    30  H    4.604896   4.037212   5.515193   4.148016   4.824884
    31  H    5.247520   4.732662   5.943543   4.506460   5.268338
    32  H    5.177257   4.929448   6.037125   4.203075   4.641914
    33  O    4.238214   4.822911   4.455182   2.758797   2.589718
                   16         17         18         19         20
    16  C    0.000000
    17  O    6.819297   0.000000
    18  H    7.123595   0.963986   0.000000
    19  O    1.230788   6.185967   6.407251   0.000000
    20  N    2.493743   7.679991   8.205774   3.598534   0.000000
    21  H    3.187575   8.002609   8.517554   4.324405   1.008828
    22  N    1.333637   8.059636   8.307348   2.252194   2.788401
    23  H    2.024086   8.653620   8.958531   3.140196   2.374000
    24  C    3.161645   8.570285   9.145127   4.186230   1.347603
    25  C    4.520063   9.853362  10.459141   5.616430   2.415746
    26  H    5.273085  10.105852  10.782911   6.276449   3.143942
    27  H    4.828637  10.665650  11.227198   5.921040   3.115708
    28  H    4.843523   9.955258  10.547659   6.011332   2.531536
    29  C    2.424259   8.769131   8.889334   2.761594   4.221099
    30  H    2.738765   8.363635   8.375141   2.759816   4.813105
    31  H    3.301544   9.759784   9.875406   3.813961   4.641280
    32  H    2.774818   8.961294   9.093536   2.829824   4.674905
    33  O    3.147899   8.501053   9.075884   3.914015   2.249692
                   21         22         23         24         25
    21  H    0.000000
    22  N    3.303025   0.000000
    23  H    2.712482   1.007169   0.000000
    24  C    2.039907   3.285531   2.806274   0.000000
    25  C    2.546393   4.374632   3.641107   1.492448   0.000000
    26  H    3.325835   5.291439   4.641914   2.112001   1.089615
    27  H    3.292432   4.418899   3.633761   2.111478   1.089968
    28  H    2.214252   4.645591   3.808676   2.166426   1.087762
    29  C    4.711285   1.444920   2.128220   4.567274   5.570699
    30  H    5.232718   2.096645   2.877805   5.369790   6.442077
    31  H    4.990106   2.070153   2.298994   4.899185   5.654009
    32  H    5.325947   2.104180   2.821501   4.782631   5.844646
    33  O    3.143697   3.419079   3.227220   1.228733   2.382725
                   26         27         28         29         30
    26  H    0.000000
    27  H    1.755988   0.000000
    28  H    1.776982   1.775150   0.000000
    29  C    6.493149   5.408988   5.890044   0.000000
    30  H    7.370414   6.375001   6.674546   1.089850   0.000000
    31  H    6.638237   5.328374   5.899102   1.085687   1.768194
    32  H    6.665117   5.616656   6.339462   1.090702   1.766142
    33  O    2.676201   2.702874   3.283976   4.509946   5.350813
                   31         32         33
    31  H    0.000000
    32  H    1.768194   0.000000
    33  O    4.970527   4.442058   0.000000
 Stoichiometry    C12H16N2O3
 Framework group  C1[X(C12H16N2O3)]
 Deg. of freedom    93
 Full point group                 C1      NOp   1
 Largest Abelian subgroup         C1      NOp   1
 Largest concise Abelian subgroup C1      NOp   1
                         Standard orientation:                         
 ---------------------------------------------------------------------
 Center     Atomic      Atomic             Coordinates (Angstroms)
 Number     Number       Type             X           Y           Z
 ---------------------------------------------------------------------
      1          6           0       -3.599732    0.852461    0.380472
      2          6           0       -2.298457    0.848928    0.855014
      3          6           0       -1.482319   -0.264517    0.714609
      4          6           0       -2.005928   -1.385085    0.077430
      5          6           0       -3.300357   -1.398497   -0.403057
      6          6           0       -4.101250   -0.274608   -0.250003
      7          1           0       -4.230293    1.726528    0.495669
      8          1           0       -1.908202    1.733381    1.346300
      9          1           0       -1.385238   -2.267151   -0.040149
     10          1           0       -3.706887   -2.273352   -0.894365
     11          6           0       -0.077268   -0.273074    1.233540
     12          1           0        0.087115    0.569541    1.909577
     13          1           0        0.072248   -1.183457    1.821530
     14          6           0        0.996702   -0.272435    0.133020
     15          1           0        0.598644   -0.771877   -0.754696
     16          6           0        1.265345    1.158633   -0.289332
     17          8           0       -5.373771   -0.333541   -0.734699
     18          1           0       -5.822722    0.501231   -0.559008
     19          8           0        0.447833    1.741037   -1.001594
     20          7           0        2.164342   -1.001175    0.574259
     21          1           0        2.240827   -1.257328    1.547023
     22          7           0        2.354603    1.755017    0.196910
     23          1           0        3.014520    1.210043    0.727856
     24          6           0        3.117771   -1.403499   -0.288958
     25          6           0        4.249539   -2.186852    0.287983
     26          1           0        4.322719   -3.137345   -0.239718
     27          1           0        5.177419   -1.643613    0.109205
     28          1           0        4.143747   -2.373003    1.354464
     29          6           0        2.654746    3.136405   -0.102213
     30          1           0        1.841424    3.787788    0.217133
     31          1           0        3.558969    3.423131    0.425884
     32          1           0        2.811896    3.287138   -1.170957
     33          8           0        3.055743   -1.136960   -1.486828
 ---------------------------------------------------------------------
 Rotational constants (GHZ):      0.8265241      0.2373451      0.2026159
 Leave Link  202 at Tue Jun 24 16:43:33 2014, MaxMem=  4294967296 cpu:         1.5
 (Enter /home/ztw1e12/g09/l301.exe)
 Standard basis: CC-pVTZ (5D, 7F)
 Converting basis for Fermi contact spin-spin IFCMod=1.
 AO basis functions are being uncontracted.
 Ernie: Thresh=  0.10000D-02 Tol=  0.10000D-05 Strict=F.
 There are  1305 symmetry adapted cartesian basis functions of A   symmetry.
 There are  1204 symmetry adapted basis functions of A   symmetry.
  1204 basis functions,  1305 primitive gaussians,  1305 cartesian basis functions
    63 alpha electrons       63 beta electrons
       nuclear repulsion energy      1199.0367846909 Hartrees.
 IExCor= 4235 DFT=T Ex+Corr=M06 ExCW=0 ScaHFX=  0.270000
 ScaDFX=  1.000000  1.000000  1.000000  1.000000 ScalE2=  1.000000  1.000000
 IRadAn= 199590 IRanWt=     -1 IRanGd=            0 ICorTp=0 IEmpDi=  4
 NAtoms=   33 NActive=   33 NUniq=   33 SFac= 1.00D+00 NAtFMM=   60 NAOKFM=F Big=F
 Integral buffers will be    131072 words long.
 Raffenetti 2 integral format.
 Two-electron integral symmetry is turned on.
 Leave Link  301 at Tue Jun 24 16:43:34 2014, MaxMem=  4294967296 cpu:         5.5
 (Enter /home/ztw1e12/g09/l302.exe)
 NPDir=0 NMtPBC=     1 NCelOv=     1 NCel=       1 NClECP=     1 NCelD=      1
         NCelK=      1 NCelE2=     1 NClLst=     1 CellRange=     0.0.
 One-electron integrals computed using PRISM.
 GSVD:  received Info=                   1 from GESDD.
 NBasis=  1204 RedAO= T EigKep=  2.61D-05  NBF=  1204
 NBsUse=  1068 1.00D-06 EigRej=  6.65D-15 NBFU=  1068
 Precomputing XC quadrature grid using
 IXCGrd= 4 IRadAn=      199590 IRanWt=          -1 IRanGd=           0 AccXCQ= 0.00D+00.
 Generated NRdTot=       0 NPtTot=           0 NUsed=           0 NTot=          32
 NSgBfM=   995   995   995   997   997 MxSgAt=    33 MxSgA2=    33.
 Leave Link  302 at Tue Jun 24 16:43:40 2014, MaxMem=  4294967296 cpu:        94.8
 (Enter /home/ztw1e12/g09/l308.exe)
 Leave Link  308 at Tue Jun 24 16:43:41 2014, MaxMem=  4294967296 cpu:         7.3
 (Enter /home/ztw1e12/g09/l303.exe)
 DipDrv:  MaxL=1.
 Leave Link  303 at Tue Jun 24 16:43:42 2014, MaxMem=  4294967296 cpu:         4.2
 (Enter /home/ztw1e12/g09/l401.exe)
 ExpMin= 1.03D-01 ExpMax= 1.38D+05 ExpMxC= 1.38D+05 IAcc=4 IRadAn=    199590 AccDes= 0.00D+00
 Harris functional with IExCor= 1009 and IRadAn=  199590 diagonalized for initial guess.
 HarFok:  IExCor= 1009 AccDes= 0.00D+00 IRadAn=    199590 IDoV= 1 UseB2=F ITyADJ=14
 ICtDFT=  3500011 ScaDFX=  1.000000  1.000000  1.000000  1.000000
 FoFCou: FMM=F IPFlag=           0 FMFlag=      100000 FMFlg1=           0
         NFxFlg=           0 DoJE=T BraDBF=F KetDBF=T FulRan=T
         wScrn=  0.000000 ICntrl=     500 IOpCl=  0 I1Cent=   200000004 NGrid=           0
         NMat0=    1 NMatS0=      1 NMatT0=    0 NMatD0=    1 NMtDS0=    0 NMtDT0=    0
 Petite list used in FoFCou.
 Harris En= -801.781718238850    
 JPrj=0 DoOrth=F DoCkMO=F.
 Leave Link  401 at Tue Jun 24 16:44:01 2014, MaxMem=  4294967296 cpu:       290.1
 (Enter /home/ztw1e12/g09/l502.exe)
 Closed shell SCF:
 Using DIIS extrapolation, IDIIS=  1040.
 Integral symmetry usage will be decided dynamically.
 IVT=     5158273 IEndB=     5158273 NGot=  4294967296 MDV=  4291529994
 LenX=  4291529994 LenY=  4289825664
 Requested convergence on RMS density matrix=1.00D-08 within 128 cycles.
 Requested convergence on MAX density matrix=1.00D-06.
 Requested convergence on             energy=1.00D-06.
 No special actions if energy rises.
 Fock matrices will be formed incrementally for  20 cycles.
 Integral accuracy reduced to 1.0D-05 until final iterations.

 Cycle   1  Pass 0  IDiag  1:
 FoFJK:  IHMeth= 1 ICntrl=       0 DoSepK=F KAlg= 0 I1Cent=   0 FoldK=F
 IRaf= 420000000 NMat=   1 IRICut=       1 DoRegI=T DoRafI=F ISym2E= 0.
 FoFCou: FMM=F IPFlag=           0 FMFlag=      100000 FMFlg1=           0
         NFxFlg=           0 DoJE=F BraDBF=F KetDBF=F FulRan=T
         wScrn=  0.000000 ICntrl=       0 IOpCl=  0 I1Cent=           0 NGrid=           0
         NMat0=    1 NMatS0=      1 NMatT0=    0 NMatD0=    1 NMtDS0=    0 NMtDT0=    0
 Symmetry not used in FoFCou.
 E= -801.448060417413    
 DIIS: error= 1.18D-01 at cycle   1 NSaved=   1.
 NSaved= 1 IEnMin= 1 EnMin= -801.448060417413     IErMin= 1 ErrMin= 1.18D-01
 ErrMax= 1.18D-01  0.00D+00 EMaxC= 1.00D-01 BMatC= 1.69D+01 BMatP= 1.69D+01
 IDIUse=3 WtCom= 0.00D+00 WtEn= 1.00D+00
 Coeff-Com:  0.100D+01
 Coeff-En:   0.100D+01
 Coeff:      0.100D+01
 Gap=     0.247 Goal=   None    Shift=    0.000
 GapD=    0.247 DampG=1.000 DampE=0.250 DampFc=0.2500 IDamp=-1.
 Damping current iteration by 2.50D-01
 RMSDP=2.28D-03 MaxDP=4.39D-01              OVMax= 3.10D-01

 Cycle   2  Pass 0  IDiag  1:
 RMSU=  5.68D-04    CP:  1.02D+00
 E= -801.607964323208     Delta-E=       -0.159903905795 Rises=F Damp=T
 DIIS: error= 8.98D-02 at cycle   2 NSaved=   2.
 NSaved= 2 IEnMin= 2 EnMin= -801.607964323208     IErMin= 2 ErrMin= 8.98D-02
 ErrMax= 8.98D-02  0.00D+00 EMaxC= 1.00D-01 BMatC= 1.00D+01 BMatP= 1.69D+01
 IDIUse=3 WtCom= 1.02D-01 WtEn= 8.98D-01
 Coeff-Com: -0.288D+01 0.388D+01
 Coeff-En:   0.000D+00 0.100D+01
 Coeff:     -0.294D+00 0.129D+01
 Gap=     0.262 Goal=   None    Shift=    0.000
 RMSDP=5.85D-04 MaxDP=9.18D-02 DE=-1.60D-01 OVMax= 1.98D-01

 Cycle   3  Pass 0  IDiag  1:
 RMSU=  5.35D-04    CP:  1.05D+00  1.40D+00
 E= -801.869279703775     Delta-E=       -0.261315380567 Rises=F Damp=F
 DIIS: error= 1.16D-02 at cycle   3 NSaved=   3.
 NSaved= 3 IEnMin= 3 EnMin= -801.869279703775     IErMin= 3 ErrMin= 1.16D-02
 ErrMax= 1.16D-02  0.00D+00 EMaxC= 1.00D-01 BMatC= 1.71D-01 BMatP= 1.00D+01
 IDIUse=3 WtCom= 8.84D-01 WtEn= 1.16D-01
 Coeff-Com:  0.138D+00-0.239D+00 0.110D+01
 Coeff-En:   0.000D+00 0.000D+00 0.100D+01
 Coeff:      0.122D+00-0.211D+00 0.109D+01
 Gap=     0.239 Goal=   None    Shift=    0.000
 RMSDP=4.34D-04 MaxDP=5.93D-02 DE=-2.61D-01 OVMax= 1.21D-01

 Cycle   4  Pass 0  IDiag  1:
 RMSU=  3.83D-04    CP:  1.04D+00  1.22D+00  6.72D-01
 E= -801.795564577002     Delta-E=        0.073715126774 Rises=F Damp=F
 DIIS: error= 9.66D-03 at cycle   4 NSaved=   4.
 NSaved= 4 IEnMin= 3 EnMin= -801.869279703775     IErMin= 4 ErrMin= 9.66D-03
 ErrMax= 9.66D-03  0.00D+00 EMaxC= 1.00D-01 BMatC= 1.51D-01 BMatP= 1.71D-01
 IDIUse=3 WtCom= 9.03D-01 WtEn= 9.66D-02
 Coeff-Com:  0.285D+00-0.412D+00 0.610D+00 0.516D+00
 Coeff-En:   0.000D+00 0.000D+00 0.718D+00 0.282D+00
 Coeff:      0.258D+00-0.372D+00 0.621D+00 0.494D+00
 Gap=     0.257 Goal=   None    Shift=    0.000
 RMSDP=3.15D-04 MaxDP=3.74D-02 DE= 7.37D-02 OVMax= 9.21D-02

 Cycle   5  Pass 0  IDiag  1:
 RMSU=  7.07D-05    CP:  1.05D+00  1.24D+00  8.71D-01  2.49D-01
 E= -801.908335005203     Delta-E=       -0.112770428201 Rises=F Damp=F
 DIIS: error= 2.01D-03 at cycle   5 NSaved=   5.
 NSaved= 5 IEnMin= 5 EnMin= -801.908335005203     IErMin= 5 ErrMin= 2.01D-03
 ErrMax= 2.01D-03  0.00D+00 EMaxC= 1.00D-01 BMatC= 6.93D-03 BMatP= 1.51D-01
 IDIUse=3 WtCom= 9.80D-01 WtEn= 2.01D-02
 Coeff-Com:  0.354D-01-0.503D-01 0.221D-01 0.173D+00 0.820D+00
 Coeff-En:   0.000D+00 0.000D+00 0.000D+00 0.000D+00 0.100D+01
 Coeff:      0.347D-01-0.493D-01 0.216D-01 0.170D+00 0.823D+00
 Gap=     0.224 Goal=   None    Shift=    0.000
 RMSDP=7.88D-05 MaxDP=1.05D-02 DE=-1.13D-01 OVMax= 2.34D-02

 Cycle   6  Pass 0  IDiag  1:
 RMSU=  3.41D-05    CP:  1.05D+00  1.23D+00  8.83D-01  4.01D-01  4.36D-01
 E= -801.911547487708     Delta-E=       -0.003212482505 Rises=F Damp=F
 DIIS: error= 9.06D-04 at cycle   6 NSaved=   6.
 NSaved= 6 IEnMin= 6 EnMin= -801.911547487708     IErMin= 6 ErrMin= 9.06D-04
 ErrMax= 9.06D-04  0.00D+00 EMaxC= 1.00D-01 BMatC= 1.41D-03 BMatP= 6.93D-03
 IDIUse=3 WtCom= 9.91D-01 WtEn= 9.06D-03
 Coeff-Com:  0.150D-01-0.205D-01-0.820D-02 0.727D-01 0.429D+00 0.512D+00
 Coeff-En:   0.000D+00 0.000D+00 0.000D+00 0.000D+00 0.179D+00 0.821D+00
 Coeff:      0.149D-01-0.203D-01-0.812D-02 0.720D-01 0.426D+00 0.515D+00
 Gap=     0.224 Goal=   None    Shift=    0.000
 RMSDP=3.16D-05 MaxDP=2.51D-03 DE=-3.21D-03 OVMax= 1.46D-02

 Cycle   7  Pass 0  IDiag  1:
 RMSU=  2.00D-05    CP:  1.05D+00  1.22D+00  8.78D-01  4.05D-01  6.11D-01
                    CP:  4.08D-01
 E= -801.912604948006     Delta-E=       -0.001057460297 Rises=F Damp=F
 DIIS: error= 4.08D-04 at cycle   7 NSaved=   7.
 NSaved= 7 IEnMin= 7 EnMin= -801.912604948006     IErMin= 7 ErrMin= 4.08D-04
 ErrMax= 4.08D-04  0.00D+00 EMaxC= 1.00D-01 BMatC= 2.13D-04 BMatP= 1.41D-03
 IDIUse=3 WtCom= 9.96D-01 WtEn= 4.08D-03
 Coeff-Com:  0.874D-02-0.115D-01-0.389D-02 0.185D-01 0.114D+00 0.296D+00
 Coeff-Com:  0.578D+00
 Coeff-En:   0.000D+00 0.000D+00 0.000D+00 0.000D+00 0.000D+00 0.139D+00
 Coeff-En:   0.861D+00
 Coeff:      0.871D-02-0.115D-01-0.387D-02 0.185D-01 0.113D+00 0.295D+00
 Coeff:      0.579D+00
 Gap=     0.224 Goal=   None    Shift=    0.000
 RMSDP=1.22D-05 MaxDP=1.13D-03 DE=-1.06D-03 OVMax= 5.20D-03

 Cycle   8  Pass 0  IDiag  1:
 RMSU=  7.30D-06    CP:  1.05D+00  1.22D+00  8.81D-01  4.12D-01  5.88D-01
                    CP:  6.24D-01  7.44D-01
 E= -801.912782001208     Delta-E=       -0.000177053202 Rises=F Damp=F
 DIIS: error= 1.19D-04 at cycle   8 NSaved=   8.
 NSaved= 8 IEnMin= 8 EnMin= -801.912782001208     IErMin= 8 ErrMin= 1.19D-04
 ErrMax= 1.19D-04  0.00D+00 EMaxC= 1.00D-01 BMatC= 1.91D-05 BMatP= 2.13D-04
 IDIUse=3 WtCom= 9.99D-01 WtEn= 1.19D-03
 Coeff-Com:  0.476D-02-0.631D-02-0.112D-02 0.643D-02 0.386D-01 0.138D+00
 Coeff-Com:  0.335D+00 0.484D+00
 Coeff-En:   0.000D+00 0.000D+00 0.000D+00 0.000D+00 0.000D+00 0.000D+00
 Coeff-En:   0.000D+00 0.100D+01
 Coeff:      0.476D-02-0.630D-02-0.112D-02 0.642D-02 0.385D-01 0.138D+00
 Coeff:      0.335D+00 0.485D+00
 Gap=     0.224 Goal=   None    Shift=    0.000
 RMSDP=3.68D-06 MaxDP=3.52D-04 DE=-1.77D-04 OVMax= 7.69D-04

 Initial convergence to 1.0D-05 achieved.  Increase integral accuracy.
 Cycle   9  Pass 1  IDiag  1:
 E= -801.912798489530     Delta-E=       -0.000016488322 Rises=F Damp=F
 DIIS: error= 2.33D-04 at cycle   1 NSaved=   1.
 NSaved= 1 IEnMin= 1 EnMin= -801.912798489530     IErMin= 1 ErrMin= 2.33D-04
 ErrMax= 2.33D-04  0.00D+00 EMaxC= 1.00D-01 BMatC= 2.10D-05 BMatP= 2.10D-05
 IDIUse=3 WtCom= 9.98D-01 WtEn= 2.33D-03
 Coeff-Com:  0.100D+01
 Coeff-En:   0.100D+01
 Coeff:      0.100D+01
 Gap=     0.224 Goal=   None    Shift=    0.000
 RMSDP=3.68D-06 MaxDP=3.52D-04 DE=-1.65D-05 OVMax= 7.60D-04

 Cycle  10  Pass 1  IDiag  1:
 RMSU=  1.30D-04    CP:  9.95D-01
 E= -801.912811104389     Delta-E=       -0.000012614859 Rises=F Damp=F
 DIIS: error= 4.27D-05 at cycle   2 NSaved=   2.
 NSaved= 2 IEnMin= 2 EnMin= -801.912811104389     IErMin= 2 ErrMin= 4.27D-05
 ErrMax= 4.27D-05  0.00D+00 EMaxC= 1.00D-01 BMatC= 2.46D-06 BMatP= 2.10D-05
 IDIUse=1 WtCom= 1.00D+00 WtEn= 0.00D+00
 Coeff-Com:  0.142D+00 0.858D+00
 Coeff:      0.142D+00 0.858D+00
 Gap=     0.224 Goal=   None    Shift=    0.000
 RMSDP=3.19D-06 MaxDP=2.38D-04 DE=-1.26D-05 OVMax= 8.96D-04

 Cycle  11  Pass 1  IDiag  1:
 RMSU=  2.50D-06    CP:  9.95D-01  1.02D+00
 E= -801.912809069449     Delta-E=        0.000002034940 Rises=F Damp=F
 DIIS: error= 6.77D-05 at cycle   3 NSaved=   3.
 NSaved= 3 IEnMin= 2 EnMin= -801.912811104389     IErMin= 2 ErrMin= 4.27D-05
 ErrMax= 6.77D-05  0.00D+00 EMaxC= 1.00D-01 BMatC= 5.27D-06 BMatP= 2.46D-06
 IDIUse=1 WtCom= 1.00D+00 WtEn= 0.00D+00
 Coeff-Com:  0.108D-03 0.595D+00 0.405D+00
 Coeff:      0.108D-03 0.595D+00 0.405D+00
 Gap=     0.224 Goal=   None    Shift=    0.000
 RMSDP=1.53D-06 MaxDP=1.69D-04 DE= 2.03D-06 OVMax= 5.99D-04

 Cycle  12  Pass 1  IDiag  1:
 RMSU=  6.04D-07    CP:  9.95D-01  1.02D+00  4.48D-01
 E= -801.912812814016     Delta-E=       -0.000003744567 Rises=F Damp=F
 DIIS: error= 7.17D-06 at cycle   4 NSaved=   4.
 NSaved= 4 IEnMin= 4 EnMin= -801.912812814016     IErMin= 4 ErrMin= 7.17D-06
 ErrMax= 7.17D-06  0.00D+00 EMaxC= 1.00D-01 BMatC= 7.51D-08 BMatP= 2.46D-06
 IDIUse=1 WtCom= 1.00D+00 WtEn= 0.00D+00
 Coeff-Com: -0.301D-02 0.331D+00 0.237D+00 0.436D+00
 Coeff:     -0.301D-02 0.331D+00 0.237D+00 0.436D+00
 Gap=     0.224 Goal=   None    Shift=    0.000
 RMSDP=1.96D-07 MaxDP=2.40D-05 DE=-3.74D-06 OVMax= 5.81D-05

 Cycle  13  Pass 1  IDiag  1:
 RMSU=  1.71D-07    CP:  9.95D-01  1.02D+00  4.65D-01  8.77D-01
 E= -801.912812864406     Delta-E=       -0.000000050389 Rises=F Damp=F
 DIIS: error= 1.27D-06 at cycle   5 NSaved=   5.
 NSaved= 5 IEnMin= 5 EnMin= -801.912812864406     IErMin= 5 ErrMin= 1.27D-06
 ErrMax= 1.27D-06  0.00D+00 EMaxC= 1.00D-01 BMatC= 2.37D-09 BMatP= 7.51D-08
 IDIUse=1 WtCom= 1.00D+00 WtEn= 0.00D+00
 Coeff-Com: -0.134D-02 0.105D+00 0.767D-01 0.207D+00 0.613D+00
 Coeff:     -0.134D-02 0.105D+00 0.767D-01 0.207D+00 0.613D+00
 Gap=     0.224 Goal=   None    Shift=    0.000
 RMSDP=4.84D-08 MaxDP=4.06D-06 DE=-5.04D-08 OVMax= 9.16D-06

 Cycle  14  Pass 1  IDiag  1:
 RMSU=  3.47D-08    CP:  9.95D-01  1.02D+00  4.66D-01  9.17D-01  8.98D-01
 E= -801.912812865783     Delta-E=       -0.000000001377 Rises=F Damp=F
 DIIS: error= 3.47D-07 at cycle   6 NSaved=   6.
 NSaved= 6 IEnMin= 6 EnMin= -801.912812865783     IErMin= 6 ErrMin= 3.47D-07
 ErrMax= 3.47D-07  0.00D+00 EMaxC= 1.00D-01 BMatC= 1.83D-10 BMatP= 2.37D-09
 IDIUse=1 WtCom= 1.00D+00 WtEn= 0.00D+00
 Coeff-Com: -0.405D-03 0.254D-01 0.189D-01 0.626D-01 0.276D+00 0.618D+00
 Coeff:     -0.405D-03 0.254D-01 0.189D-01 0.626D-01 0.276D+00 0.618D+00
 Gap=     0.224 Goal=   None    Shift=    0.000
 RMSDP=2.39D-08 MaxDP=4.55D-06 DE=-1.38D-09 OVMax= 5.02D-06

 Cycle  15  Pass 1  IDiag  1:
 RMSU=  1.69D-08    CP:  9.95D-01  1.02D+00  4.66D-01  9.35D-01  9.52D-01
                    CP:  8.00D-01
 E= -801.912812865903     Delta-E=       -0.000000000120 Rises=F Damp=F
 DIIS: error= 2.88D-07 at cycle   7 NSaved=   7.
 NSaved= 7 IEnMin= 7 EnMin= -801.912812865903     IErMin= 7 ErrMin= 2.88D-07
 ErrMax= 2.88D-07  0.00D+00 EMaxC= 1.00D-01 BMatC= 8.58D-11 BMatP= 1.83D-10
 IDIUse=1 WtCom= 1.00D+00 WtEn= 0.00D+00
 Coeff-Com:  0.476D-04-0.818D-02-0.572D-02-0.677D-02 0.456D-01 0.429D+00
 Coeff-Com:  0.546D+00
 Coeff:      0.476D-04-0.818D-02-0.572D-02-0.677D-02 0.456D-01 0.429D+00
 Coeff:      0.546D+00
 Gap=     0.224 Goal=   None    Shift=    0.000
 RMSDP=9.20D-09 MaxDP=7.26D-07 DE=-1.20D-10 OVMax= 2.30D-06

 SCF Done:  E(RM06) =  -801.912812866     A.U. after   15 cycles
            NFock= 15  Conv=0.92D-08     -V/T= 2.0044
 KE= 7.983662452813D+02 PE=-4.270910185005D+03 EE= 1.471594342166D+03
 Leave Link  502 at Tue Jun 24 17:16:47 2014, MaxMem=  4294967296 cpu:     31369.1
 (Enter /home/ztw1e12/g09/l801.exe)
 DoSCS=F DFT=T ScalE2(SS,OS)=  1.000000  1.000000
 Range of M.O.s used for correlation:     1  1068
 NBasis=  1204 NAE=    63 NBE=    63 NFC=     0 NFV=     0
 NROrb=   1068 NOA=    63 NOB=    63 NVA=  1005 NVB=  1005

 **** Warning!!: The largest alpha MO coefficient is  0.37120398D+02

 Leave Link  801 at Tue Jun 24 17:16:47 2014, MaxMem=  4294967296 cpu:         0.5
 (Enter /home/ztw1e12/g09/l1002.exe)
 Minotr:  Closed shell wavefunction.
          IDoAtm=111111111111111111111111111111111
          Direct CPHF calculation.
          Differentiating once with respect to Fermi-contact.
          Electric field/nuclear overlap derivatives assumed to be zero.
          Requested convergence is 1.0D-10 RMS, and 1.0D-09 maximum.
          Secondary convergence is 1.0D-12 RMS, and 1.0D-12 maximum.
          NewPWx=T KeepS1=F KeepF1=F KeepIn=T MapXYZ=F SortEE=F KeepMc=T.
          MDV=    4294965894 using IRadAn=  199590.
 Using stored XC quadrature information.
          Solving linear equations simultaneously, MaxMat=       0.
          There are    33 degrees of freedom in the 1st order CPHF.  IDoFFX=0 NUNeed=    33.
     33 vectors produced by pass  0 Test12= 1.92D-17 3.03D-11 XBig12= 4.29D+01 2.58D+00.
 AX will form    33 AO Fock derivatives at one time.
 FoFJK:  IHMeth= 1 ICntrl=       0 DoSepK=F KAlg= 0 I1Cent=   0 FoldK=F
 IRaf= 440000000 NMat=  33 IRICut=       1 DoRegI=T DoRafI=F ISym2E=-1.
 FoFCou: FMM=F IPFlag=           0 FMFlag=      100000 FMFlg1=           0
         NFxFlg=           0 DoJE=F BraDBF=F KetDBF=F FulRan=T
         wScrn=  0.000000 ICntrl=       0 IOpCl=  0 I1Cent=           0 NGrid=           0
         NMat0=   33 NMatS0=      0 NMatT0=   33 NMatD0=   33 NMtDS0=    0 NMtDT0=    0
 Petite list used in FoFCou.
     33 vectors produced by pass  1 Test12= 1.92D-17 3.03D-11 XBig12= 3.46D-01 1.89D-01.
     33 vectors produced by pass  2 Test12= 1.92D-17 3.03D-11 XBig12= 1.56D-02 4.35D-02.
     33 vectors produced by pass  3 Test12= 1.92D-17 3.03D-11 XBig12= 3.43D-04 5.76D-03.
     33 vectors produced by pass  4 Test12= 1.92D-17 3.03D-11 XBig12= 7.00D-06 1.15D-03.
     33 vectors produced by pass  5 Test12= 1.92D-17 3.03D-11 XBig12= 1.41D-07 1.67D-04.
     33 vectors produced by pass  6 Test12= 1.92D-17 3.03D-11 XBig12= 4.07D-09 1.83D-05.
     33 vectors produced by pass  7 Test12= 1.92D-17 3.03D-11 XBig12= 1.09D-10 3.94D-06.
     33 vectors produced by pass  8 Test12= 1.92D-17 3.03D-11 XBig12= 4.05D-12 2.85D-07.
     33 vectors produced by pass  9 Test12= 1.92D-17 3.03D-11 XBig12= 5.60D-14 7.86D-08.
     33 vectors produced by pass 10 Test12= 1.92D-17 3.03D-11 XBig12= 2.11D-15 7.40D-09.
     33 vectors produced by pass 11 Test12= 1.92D-17 3.03D-11 XBig12= 2.23D-17 5.97D-10.
     10 vectors produced by pass 12 Test12= 1.92D-17 3.03D-11 XBig12= 2.28D-19 7.06D-11.
 InvSVY:  IOpt=1 It=  1 EMax= 8.88D-15
 Solved reduced A of dimension   406 with    33 vectors.
 Max diff in FC couplings:  IJMax=     4     3 Diff= 4.01D-04 IJMaxR=    30     3 DiffR= 1.50D+00
 Fermi Contact (FC) contribution to K (Hz):
                1             2             3             4             5 
      1  0.123400D+11
      2  0.347914D+02  0.123400D+11
      3 -0.117190D+01  0.348552D+02  0.123400D+11
      4  0.306742D+01  0.278080D+00  0.338647D+02  0.123400D+11
      5  0.162994D+01  0.303738D+01 -0.123188D+01  0.353438D+02  0.123400D+11
      6  0.361418D+02 -0.265902D+00  0.430366D+01  0.229342D+00  0.388897D+02
      7  0.217518D+02 -0.306597D+00  0.970724D+00 -0.214009D+00  0.619298D+00
      8 -0.215112D+00  0.225583D+02 -0.313057D+00  0.987865D+00 -0.280243D+00
      9 -0.291868D+00  0.101148D+01 -0.268087D+00  0.218815D+02 -0.225178D+00
     10  0.670166D+00 -0.218058D+00  0.104837D+01 -0.277263D+00  0.228992D+02
     11  0.215698D+01  0.168683D+01  0.248190D+02  0.146845D+01  0.196409D+01
     12  0.245645D-01  0.814610D+00 -0.851882D+00  0.816808D+00  0.108774D+00
     13 -0.939276D-01  0.645716D+00 -0.123438D+01  0.603709D+00 -0.134693D+00
     14 -0.367414D+00  0.961852D+00 -0.337151D+00  0.975131D+00 -0.513821D+00
     15  0.899925D-02 -0.181777D-01  0.679361D+00 -0.325313D-01  0.343102D-02
     16  0.866602D-02 -0.395632D-01  0.478917D-01 -0.564355D-01  0.954448D-02
     17 -0.737804D+00 -0.809073D-01  0.266520D+00  0.309918D+01  0.117123D+02
     18  0.417941D+00 -0.108040D-01 -0.466341D-01  0.213535D+00  0.115668D+01
     19 -0.583095D-02  0.527746D+00  0.452535D+00  0.674079D-01  0.293492D-02
     20  0.145142D+00  0.213670D+00  0.247002D+01 -0.970941D-01  0.319400D-01
     21  0.118017D-02  0.426263D-02 -0.240457D-01 -0.123045D-03  0.145854D-02
     22 -0.161613D-01  0.301220D-01 -0.841420D-02  0.623589D-01 -0.870291D-02
     23  0.834928D-03 -0.229326D-03  0.354952D-03 -0.143870D-02  0.248600D-03
     24  0.147607D-01  0.517433D-01  0.148531D+00 -0.660091D-02  0.284549D-03
     25  0.347518D-02  0.534203D-02  0.974823D-01 -0.267842D-02  0.148655D-03
     26 -0.617419D-04  0.149517D-02  0.467244D-02  0.108477D-02 -0.594146D-03
     27 -0.602618D-04 -0.627097D-03 -0.265808D-02  0.259039D-03  0.154734D-03
     28 -0.114797D-03  0.130493D-03 -0.158573D-02  0.123728D-03 -0.108558D-03
     29  0.214072D-02 -0.202792D-02 -0.255907D-02 -0.357937D-02  0.801440D-03
     30 -0.781850D-03  0.174563D-02  0.937585D-05  0.175751D-02 -0.212815D-04
     31  0.649775D-04 -0.689974D-04 -0.215310D-03  0.579160D-04  0.123324D-03
     32 -0.513491D-03  0.259148D-03  0.258141D-03  0.183332D-02  0.224695D-03
     33 -0.304398D-02  0.656371D-02 -0.126137D-02  0.106025D-01 -0.180176D-02
                6             7             8             9            10 
      6  0.123400D+11
      7 -0.551289D+00  0.123400D+11
      8  0.119538D+01  0.331319D+00  0.123400D+11
      9  0.121198D+01  0.390034D-01  0.400016D-01  0.123400D+11
     10 -0.703395D+00  0.636622D-01  0.397306D-01  0.354139D+00  0.123400D+11
     11 -0.483396D+00  0.879225D-02  0.750012D+00  0.655442D+00  0.300365D-01
     12  0.692997D-02  0.275343D-02 -0.220491D-01 -0.271803D-02  0.632608D-02
     13  0.150423D+00  0.149182D-01 -0.380552D-01 -0.407438D-01  0.142247D-01
     14  0.501490D+00  0.386570D-01 -0.122657D+00 -0.817129D-01  0.475459D-01
     15 -0.325000D-03 -0.125971D-04 -0.851758D-04 -0.832733D-02  0.823664D-03
     16 -0.993806D-02 -0.206682D-02  0.189877D-02  0.519935D-02 -0.120755D-02
     17 -0.119499D+02  0.568893D+00  0.698064D-01  0.250060D+00  0.705919D+00
     18 -0.653108D+00 -0.128002D-01  0.181803D-02  0.132436D-01  0.576839D-03
     19  0.379796D-01  0.387511D-03  0.695874D-01 -0.133211D-01 -0.777824D-02
     20 -0.173380D-01  0.812524D-02  0.195899D-01  0.101230D-01  0.125092D-02
     21 -0.857299D-03 -0.572521D-04  0.298052D-03  0.114568D-02 -0.211814D-03
     22  0.181072D-01  0.130327D-02 -0.101117D-02  0.334820D-02  0.137098D-02
     23 -0.585003D-03 -0.840128D-04  0.153924D-03  0.497599D-04 -0.344627D-04
     24  0.200482D-02  0.178620D-02  0.186895D-02  0.112271D-02  0.100615D-03
     25  0.783484D-03  0.336265D-03  0.416073D-03  0.723340D-04  0.179221D-03
     26  0.552635D-03  0.532865D-04 -0.126226D-03 -0.966346D-04  0.507975D-04
     27 -0.107740D-03 -0.226513D-04  0.423255D-05  0.580909D-04 -0.149773D-04
     28  0.708608D-04  0.732643D-05 -0.232109D-04 -0.253543D-04  0.622994D-05
     29 -0.140013D-02 -0.320518D-03  0.354367D-03  0.772464D-03 -0.180796D-03
     30  0.690265D-03  0.729977D-04 -0.292128D-04 -0.555274D-04 -0.456819D-05
     31 -0.714408D-04 -0.921455D-05 -0.803166D-05  0.119433D-04 -0.127171D-04
     32  0.349797D-03  0.480239D-04 -0.153446D-03  0.768155D-04  0.596638D-05
     33  0.358752D-02  0.213305D-03 -0.777831D-03 -0.291364D-03  0.128014D-03
               11            12            13            14            15 
     11  0.123400D+11
     12  0.177459D+02  0.123400D+11
     13  0.168106D+02 -0.813014D+00  0.123400D+11
     14  0.161749D+02 -0.693519D+00 -0.980215D+00  0.123400D+11
     15 -0.859122D+00  0.332413D+00  0.341343D-01  0.211112D+02  0.123400D+11
     16 -0.440472D+00  0.676518D+00  0.682442D+00  0.282257D+02 -0.118328D+01
     17  0.596924D-01  0.187908D-02  0.515961D-01  0.195543D+00 -0.229245D-02
     18  0.119111D-01 -0.194715D-03 -0.547087D-02 -0.203749D-01  0.163401D-03
     19  0.810164D+00  0.141234D-01  0.544578D-01  0.469959D+01  0.304651D+00
     20  0.119760D+01 -0.561932D-01  0.146176D+01  0.133221D+02 -0.534703D+00
     21  0.571066D+00 -0.592548D-02 -0.305112D-01  0.215618D+00  0.169592D+00
     22  0.331646D-01  0.327205D-03  0.627866D-01  0.100386D+02  0.190189D+00
     23 -0.339351D-01  0.140848D-02  0.166363D-02  0.585054D-01 -0.157785D-02
     24  0.152312D+01 -0.480276D-01  0.366261D-01 -0.132694D+00  0.344281D+00
     25 -0.308710D-01  0.438332D-03  0.281260D-01  0.667188D+00 -0.757517D-01
     26  0.122280D-01 -0.681055D-03 -0.133441D-03  0.312341D-01  0.190186D-01
     27 -0.539090D-02 -0.681005D-03 -0.805722D-03  0.183659D-01  0.268292D-01
     28 -0.295243D-02  0.126647D-03 -0.217720D-03  0.918466D-01 -0.216245D-02
     29 -0.905013D-01  0.143154D-01  0.202155D-01  0.688588D+00  0.507277D-01
     30  0.502124D-01 -0.482456D-03 -0.199067D-03 -0.814627D-01  0.211185D-01
     31  0.442259D-02  0.566960D-03  0.733366D-03 -0.237160D-01  0.290768D-02
     32  0.807732D-01  0.199051D-03  0.650734D-03 -0.834688D-01  0.103316D-01
     33  0.159724D+00  0.318506D-01  0.267233D-02  0.870452D+00  0.249170D+00
               16            17            18            19            20 
     16  0.123400D+11
     17 -0.568092D-02  0.123400D+11
     18  0.559526D-03  0.198817D+02  0.123400D+11
     19 -0.996219D+01  0.187343D-01 -0.245218D-02  0.123400D+11
     20  0.231693D+00  0.216469D-02  0.307904D-03  0.109920D+01  0.123400D+11
     21  0.956099D-01 -0.166207D-03  0.299697D-04  0.699256D-01  0.308892D+02
     22  0.297092D+02  0.598164D-02 -0.532201D-03  0.608566D+01 -0.453065D+00
     23  0.375462D+00 -0.196772D-03  0.206655D-04  0.446177D+00 -0.677637D-01
     24  0.491163D-01  0.228862D-02 -0.194942D-03 -0.171877D-01  0.250519D+02
     25 -0.141489D+00  0.631572D-03 -0.435384D-04  0.523658D-01  0.124065D+02
     26  0.559873D-01  0.212745D-03 -0.213842D-04 -0.194868D-02  0.406327D+00
     27  0.845973D-01 -0.426156D-04  0.457312D-05  0.728998D-02  0.320737D+00
     28 -0.132172D-02  0.349815D-04 -0.387130D-05  0.242078D-02  0.324427D+00
     29 -0.219865D+00 -0.494908D-03  0.556941D-04  0.647020D+00  0.140590D+00
     30  0.168500D+00  0.299051D-03 -0.319834D-04  0.240332D+00  0.209202D-01
     31  0.956506D+00 -0.144838D-04  0.172952D-05  0.185649D+00  0.652886D-02
     32  0.199700D+00  0.200874D-03 -0.180472D-04  0.239968D+00  0.287318D-02
     33  0.460592D+00  0.169076D-02 -0.182096D-03  0.808927D-01  0.594928D+01
               21            22            23            24            25 
     21  0.123400D+11
     22  0.197469D-01  0.123400D+11
     23  0.531508D-02  0.315330D+02  0.123400D+11
     24  0.472951D+00 -0.142426D-01  0.320468D-02  0.123400D+11
     25  0.824300D-01 -0.245851D-01  0.420728D-02  0.268768D+02  0.123400D+11
     26 -0.115517D-01  0.350973D-02  0.287716D-03 -0.119270D+01  0.181889D+02
     27 -0.112389D-01  0.292873D-03  0.317225D-03 -0.119257D+01  0.177995D+02
     28 -0.944267D-02 -0.162514D-02  0.115786D-03 -0.748887D+00  0.170462D+02
     29 -0.367596D-02  0.173344D+02  0.335694D+00 -0.577210D-02 -0.721201D-03
     30 -0.544227D-03 -0.602129D+00  0.145363D+00  0.275198D-02  0.110938D-02
     31 -0.264317D-03 -0.347766D+00  0.289765D+00  0.286507D-03 -0.149146D-03
     32  0.147826D-02 -0.611289D+00  0.738116D-01 -0.780604D-03  0.648425D-03
     33  0.416276D+00  0.263835D+00  0.445541D-02 -0.979149D+01  0.356914D+01
               26            27            28            29            30 
     26  0.123400D+11
     27 -0.929932D+00  0.123400D+11
     28 -0.731905D+00 -0.735679D+00  0.123400D+11
     29  0.303510D-04 -0.346287D-04 -0.265278D-05  0.123400D+11
     30  0.253539D-03  0.137446D-03 -0.109947D-04  0.198612D+02  0.123400D+11
     31  0.207858D-03  0.711289D-04  0.830667D-05  0.182023D+02 -0.746544D+00
     32 -0.884605D-04 -0.165343D-03  0.000000D+00  0.201121D+02 -0.741960D+00
     33  0.449531D+00  0.445641D+00  0.808072D+00 -0.181220D-01  0.113160D-01
               31            32            33 
     31  0.123400D+11
     32 -0.743810D+00  0.123400D+11
     33  0.223825D-02  0.135733D-01  0.123400D+11
 Fermi Contact (FC) contribution to J (Hz):
                1             2             3             4             5 
      1  0.243533D+11
      2  0.686616D+02  0.243533D+11
      3 -0.231277D+01  0.687877D+02  0.243533D+11
      4  0.605364D+01  0.548799D+00  0.668328D+02  0.243533D+11
      5  0.321672D+01  0.599435D+01 -0.243114D+01  0.697519D+02  0.243533D+11
      6  0.713267D+02 -0.524765D+00  0.849338D+01  0.452613D+00  0.767498D+02
      7  0.170684D+03 -0.240584D+01  0.761718D+01 -0.167930D+01  0.485957D+01
      8 -0.168796D+01  0.177013D+03 -0.245653D+01  0.775168D+01 -0.219904D+01
      9 -0.229026D+01  0.793699D+01 -0.210366D+01  0.171702D+03 -0.176695D+01
     10  0.525873D+01 -0.171108D+01  0.822643D+01 -0.217566D+01  0.179687D+03
     11  0.425685D+01  0.332899D+01  0.489809D+02  0.289802D+01  0.387619D+01
     12  0.192755D+00  0.639216D+01 -0.668464D+01  0.640942D+01  0.853539D+00
     13 -0.737040D+00  0.506687D+01 -0.968602D+01  0.473725D+01 -0.105692D+01
     14 -0.725101D+00  0.189824D+01 -0.665376D+00  0.192445D+01 -0.101404D+01
     15  0.706163D-01 -0.142639D+00  0.533088D+01 -0.255270D+00  0.269229D-01
     16  0.171026D-01 -0.780790D-01  0.945155D-01 -0.111377D+00  0.188363D-01
     17  0.785157D+00  0.861000D-01 -0.283626D+00 -0.329808D+01 -0.124640D+02
     18  0.327954D+01 -0.847778D-01 -0.365933D+00  0.167559D+01  0.907632D+01
     19  0.620518D-02 -0.561617D+00 -0.481579D+00 -0.717342D-01 -0.312329D-02
     20  0.823265D-01  0.121196D+00  0.140103D+01 -0.550730D-01  0.181168D-01
     21  0.926071D-02  0.334485D-01 -0.188684D+00 -0.965521D-03  0.114450D-01
     22 -0.916689D-02  0.170856D-01 -0.477264D-02  0.353707D-01 -0.493640D-02
     23  0.655160D-02 -0.179950D-02  0.278527D-02 -0.112893D-01  0.195074D-02
     24  0.291307D-01  0.102117D+00  0.293130D+00 -0.130271D-01  0.561565D-03
     25  0.685836D-02  0.105426D-01  0.192384D+00 -0.528593D-02  0.293374D-03
     26 -0.484482D-03  0.117324D-01  0.366642D-01  0.851212D-02 -0.466221D-02
     27 -0.472868D-03 -0.492077D-02 -0.208577D-01  0.203265D-02  0.121418D-02
     28 -0.900801D-03  0.102397D-02 -0.124430D-01  0.970884D-03 -0.851845D-03
     29  0.422476D-02 -0.400215D-02 -0.505039D-02 -0.706397D-02  0.158166D-02
     30 -0.613510D-02  0.136978D-01  0.735714D-04  0.137910D-01 -0.166994D-03
     31  0.509872D-03 -0.541416D-03 -0.168951D-02  0.454462D-03  0.967708D-03
     32 -0.402932D-02  0.203351D-02  0.202561D-02  0.143859D-01  0.176316D-02
     33  0.323934D-02 -0.698497D-02  0.134233D-02 -0.112830D-01  0.191740D-02
                6             7             8             9            10 
      6  0.243533D+11
      7 -0.432591D+01  0.385007D+12
      8  0.938000D+01  0.103372D+02  0.385007D+12
      9  0.951028D+01  0.121690D+01  0.124805D+01  0.385007D+12
     10 -0.551947D+01  0.198626D+01  0.123959D+01  0.110491D+02  0.385007D+12
     11 -0.953995D+00  0.689919D-01  0.588527D+01  0.514319D+01  0.235693D+00
     12  0.543788D-01  0.859069D-01 -0.687930D+00 -0.848024D-01  0.197374D+00
     13  0.118036D+01  0.465448D+00 -0.118732D+01 -0.127120D+01  0.443809D+00
     14  0.989704D+00  0.303338D+00 -0.962479D+00 -0.641193D+00  0.373088D+00
     15 -0.255025D-02 -0.393029D-03 -0.265748D-02 -0.259812D+00  0.256983D-01
     16 -0.196130D-01 -0.162181D-01  0.148994D-01  0.407988D-01 -0.947551D-02
     17  0.127168D+02 -0.240714D+01 -0.295370D+00 -0.105807D+01 -0.298693D+01
     18 -0.512488D+01 -0.399365D+00  0.567226D-01  0.413199D+00  0.179973D-01
     19 -0.404171D-01 -0.163966D-02 -0.294443D+00  0.563651D-01  0.329118D-01
     20 -0.983431D-02  0.183247D-01  0.441808D-01  0.228303D-01  0.282119D-02
     21 -0.672714D-02 -0.178626D-02  0.929922D-02  0.357451D-01 -0.660859D-02
     22  0.102706D-01  0.293925D-02 -0.228047D-02  0.755114D-02  0.309194D-02
     23 -0.459046D-02 -0.262120D-02  0.480242D-02  0.155251D-02 -0.107523D-02
     24  0.395657D-02  0.140162D-01  0.146654D-01  0.880977D-02  0.789517D-03
     25  0.154623D-02  0.263864D-02  0.326488D-02  0.567598D-03  0.140633D-02
     26  0.433647D-02  0.166254D-02 -0.393825D-02 -0.301499D-02  0.158488D-02
     27 -0.845426D-03 -0.706719D-03  0.132055D-03  0.181243D-02 -0.467293D-03
     28  0.556038D-03  0.228584D-03 -0.724178D-03 -0.791052D-03  0.194374D-03
     29 -0.276319D-02 -0.251507D-02  0.278068D-02  0.606145D-02 -0.141869D-02
     30  0.541645D-02  0.227752D-02 -0.911437D-03 -0.173245D-02 -0.142527D-03
     31 -0.560589D-03 -0.287493D-03 -0.250587D-03  0.372630D-03 -0.396772D-03
     32  0.274482D-02  0.149834D-02 -0.478750D-02  0.239664D-02  0.186151D-03
     33 -0.381777D-02 -0.902553D-03  0.329122D-02  0.123284D-02 -0.541661D-03
               11            12            13            14            15 
     11  0.243533D+11
     12  0.139250D+03  0.385007D+12
     13  0.131911D+03 -0.253660D+02  0.385007D+12
     14  0.319216D+02 -0.544197D+01 -0.769166D+01  0.243533D+11
     15 -0.674145D+01  0.103713D+02  0.106499D+01  0.165657D+03  0.385007D+12
     16 -0.869282D+00  0.530857D+01  0.535506D+01  0.557040D+02 -0.928509D+01
     17 -0.635235D-01 -0.795090D-02 -0.218317D+00 -0.208093D+00  0.969999D-02
     18  0.934653D-01 -0.607511D-02 -0.170691D+00 -0.159880D+00  0.509810D-02
     19 -0.862161D+00 -0.597598D-01 -0.230426D+00 -0.500121D+01 -0.128906D+01
     20  0.679295D+00 -0.126732D+00  0.329669D+01  0.755648D+01 -0.120591D+01
     21  0.448110D+01 -0.184875D+00 -0.951949D+00  0.169193D+01  0.529127D+01
     22  0.188113D-01  0.737940D-03  0.141602D+00  0.569402D+01  0.428931D+00
     23 -0.266285D+00  0.439446D-01  0.519052D-01  0.459086D+00 -0.492287D-01
     24  0.300592D+01 -0.376868D+00  0.287402D+00 -0.261874D+00  0.270154D+01
     25 -0.609248D-01  0.343955D-02  0.220702D+00  0.131671D+01 -0.594416D+00
     26  0.959520D-01 -0.212489D-01 -0.416335D-02  0.245091D+00  0.593380D+00
     27 -0.423019D-01 -0.212473D-01 -0.251385D-01  0.144115D+00  0.837070D+00
     28 -0.231674D-01  0.395139D-02 -0.679286D-02  0.720712D+00 -0.674683D-01
     29 -0.178607D+00  0.112331D+00  0.158629D+00  0.135895D+01  0.398055D+00
     30  0.394012D+00 -0.150526D-01 -0.621088D-02 -0.639230D+00  0.658898D+00
     31  0.347036D-01  0.176891D-01  0.228810D-01 -0.186097D+00  0.907195D-01
     32  0.633819D+00  0.621040D-02  0.203029D-01 -0.654972D+00  0.322345D+00
     33 -0.169975D+00 -0.134768D+00 -0.113074D-01 -0.926318D+00 -0.105431D+01
               16            17            18            19            20 
     16  0.243533D+11
     17  0.604552D-02  0.708114D+10
     18  0.439054D-02 -0.841249D+02  0.385007D+12
     19  0.106016D+02  0.107504D-01  0.103759D-01  0.708114D+10
     20  0.131419D+00 -0.662084D-03  0.694410D-03 -0.336199D+00  0.201170D+10
     21  0.750242D+00  0.703267D-03  0.935054D-03 -0.295875D+00  0.696639D+02
     22  0.168514D+02 -0.182953D-02 -0.120026D-02 -0.186134D+01 -0.738599D-01
     23  0.294621D+01  0.832594D-03  0.644763D-03 -0.188790D+01 -0.152826D+00
     24  0.969323D-01 -0.243550D-02 -0.152969D-02  0.182908D-01  0.142097D+02
     25 -0.279233D+00 -0.672107D-03 -0.341642D-03 -0.557266D-01  0.703710D+01
     26  0.439327D+00 -0.900184D-03 -0.667185D-03  0.824538D-02  0.916384D+00
     27  0.663827D+00  0.180318D-03  0.142681D-03 -0.308459D-01  0.723354D+00
     28 -0.103714D-01 -0.148016D-03 -0.120784D-03 -0.102430D-01  0.731676D+00
     29 -0.433909D+00  0.526672D-03  0.437026D-03 -0.688546D+00  0.797443D-01
     30  0.132221D+01 -0.126537D-02 -0.997881D-03 -0.101691D+01  0.471810D-01
     31  0.750561D+01  0.612850D-04  0.539608D-04 -0.785533D+00  0.147244D-01
     32  0.156703D+01 -0.849953D-03 -0.563072D-03 -0.101537D+01  0.647984D-02
     33 -0.490153D+00  0.970222D-03  0.770498D-03  0.464192D-01 -0.181963D+01
               21            22            23            24            25 
     21  0.385007D+12
     22  0.445350D-01  0.201170D+10
     23  0.165830D+00  0.711159D+02  0.385007D+12
     24  0.371120D+01 -0.807857D-02  0.251468D-01  0.243533D+11
     25  0.646820D+00 -0.139449D-01  0.330141D-01  0.530421D+02  0.243533D+11
     26 -0.360411D+00  0.791544D-02  0.897671D-02 -0.935899D+01  0.142726D+03
     27 -0.350655D+00  0.660511D-03  0.989739D-02 -0.935799D+01  0.139671D+03
     28 -0.294611D+00 -0.366516D-02  0.361250D-02 -0.587644D+01  0.133760D+03
     29 -0.288449D-01  0.983228D+01  0.263416D+01 -0.113914D-01 -0.142331D-02
     30 -0.169799D-01 -0.135797D+01  0.453532D+01  0.215945D-01  0.870516D-02
     31 -0.824668D-02 -0.784311D+00  0.904066D+01  0.224819D-02 -0.117034D-02
     32  0.461215D-01 -0.137863D+01  0.230292D+01 -0.612533D-02  0.508813D-02
     33 -0.176138D+01 -0.806959D-01 -0.188520D-01  0.104199D+02 -0.379821D+01
               26            27            28            29            30 
     26  0.385007D+12
     27 -0.290138D+02  0.385007D+12
     28 -0.228354D+02 -0.229532D+02  0.385007D+12
     29  0.238161D-03 -0.271728D-03 -0.208161D-04  0.243533D+11
     30  0.791042D-02  0.428832D-02 -0.343035D-03  0.155849D+03  0.385007D+12
     31  0.648517D-02  0.221922D-02  0.259168D-03  0.142831D+03 -0.232921D+02
     32 -0.275996D-02 -0.515868D-02  0.558301D-05  0.157818D+03 -0.231491D+02
     33 -0.190209D+01 -0.188563D+01 -0.341918D+01  0.192850D-01 -0.478810D-01
               31            32            33 
     31  0.385007D+12
     32 -0.232068D+02  0.385007D+12
     33 -0.947063D-02 -0.574324D-01  0.708114D+10
 End of Minotr F.D. properties file   721 does not exist.
 End of Minotr F.D. properties file   722 does not exist.
 End of Minotr F.D. properties file   788 does not exist.
 Leave Link 1002 at Wed Jun 25 00:59:10 2014, MaxMem=  4294967296 cpu:    442790.1
 (Enter /home/ztw1e12/g09/l601.exe)
 Copying SCF densities to generalized density rwf, IOpCl= 0 IROHF=0.

 **********************************************************************

            Population analysis using the SCF density.

 **********************************************************************

 Orbital symmetries:
       Occupied  (A) (A) (A) (A) (A) (A) (A) (A) (A) (A) (A) (A)
                 (A) (A) (A) (A) (A) (A) (A) (A) (A) (A) (A) (A)
                 (A) (A) (A) (A) (A) (A) (A) (A) (A) (A) (A) (A)
                 (A) (A) (A) (A) (A) (A) (A) (A) (A) (A) (A) (A)
                 (A) (A) (A) (A) (A) (A) (A) (A) (A) (A) (A) (A)
                 (A) (A) (A)
       Virtual   (A) (A) (A) (A) (A) (A) (A) (A) (A) (A) (A) (A)
                 (A) (A) (A) (A) (A) (A) (A) (A) (A) (A) (A) (A)
                 (A) (A) (A) (A) (A) (A) (A) (A) (A) (A) (A) (A)
                 (A) (A) (A) (A) (A) (A) (A) (A) (A) (A) (A) (A)
                 (A) (A) (A) (A) (A) (A) (A) (A) (A) (A) (A) (A)
                 (A) (A) (A) (A) (A) (A) (A) (A) (A) (A) (A) (A)
                 (A) (A) (A) (A) (A) (A) (A) (A) (A) (A) (A) (A)
                 (A) (A) (A) (A) (A) (A) (A) (A) (A) (A) (A) (A)
                 (A) (A) (A) (A) (A) (A) (A) (A) (A) (A) (A) (A)
                 (A) (A) (A) (A) (A) (A) (A) (A) (A) (A) (A) (A)
                 (A) (A) (A) (A) (A) (A) (A) (A) (A) (A) (A) (A)
                 (A) (A) (A) (A) (A) (A) (A) (A) (A) (A) (A) (A)
                 (A) (A) (A) (A) (A) (A) (A) (A) (A) (A) (A) (A)
                 (A) (A) (A) (A) (A) (A) (A) (A) (A) (A) (A) (A)
                 (A) (A) (A) (A) (A) (A) (A) (A) (A) (A) (A) (A)
                 (A) (A) (A) (A) (A) (A) (A) (A) (A) (A) (A) (A)
                 (A) (A) (A) (A) (A) (A) (A) (A) (A) (A) (A) (A)
                 (A) (A) (A) (A) (A) (A) (A) (A) (A) (A) (A) (A)
                 (A) (A) (A) (A) (A) (A) (A) (A) (A) (A) (A) (A)
                 (A) (A) (A) (A) (A) (A) (A) (A) (A) (A) (A) (A)
                 (A) (A) (A) (A) (A) (A) (A) (A) (A) (A) (A) (A)
                 (A) (A) (A) (A) (A) (A) (A) (A) (A) (A) (A) (A)
                 (A) (A) (A) (A) (A) (A) (A) (A) (A) (A) (A) (A)
                 (A) (A) (A) (A) (A) (A) (A) (A) (A) (A) (A) (A)
                 (A) (A) (A) (A) (A) (A) (A) (A) (A) (A) (A) (A)
                 (A) (A) (A) (A) (A) (A) (A) (A) (A) (A) (A) (A)
                 (A) (A) (A) (A) (A) (A) (A) (A) (A) (A) (A) (A)
                 (A) (A) (A) (A) (A) (A) (A) (A) (A) (A) (A) (A)
                 (A) (A) (A) (A) (A) (A) (A) (A) (A) (A) (A) (A)
                 (A) (A) (A) (A) (A) (A) (A) (A) (A) (A) (A) (A)
                 (A) (A) (A) (A) (A) (A) (A) (A) (A) (A) (A) (A)
                 (A) (A) (A) (A) (A) (A) (A) (A) (A) (A) (A) (A)
                 (A) (A) (A) (A) (A) (A) (A) (A) (A) (A) (A) (A)
                 (A) (A) (A) (A) (A) (A) (A) (A) (A) (A) (A) (A)
                 (A) (A) (A) (A) (A) (A) (A) (A) (A) (A) (A) (A)
                 (A) (A) (A) (A) (A) (A) (A) (A) (A) (A) (A) (A)
                 (A) (A) (A) (A) (A) (A) (A) (A) (A) (A) (A) (A)
                 (A) (A) (A) (A) (A) (A) (A) (A) (A) (A) (A) (A)
                 (A) (A) (A) (A) (A) (A) (A) (A) (A) (A) (A) (A)
                 (A) (A) (A) (A) (A) (A) (A) (A) (A) (A) (A) (A)
                 (A) (A) (A) (A) (A) (A) (A) (A) (A) (A) (A) (A)
                 (A) (A) (A) (A) (A) (A) (A) (A) (A) (A) (A) (A)
                 (A) (A) (A) (A) (A) (A) (A) (A) (A) (A) (A) (A)
                 (A) (A) (A) (A) (A) (A) (A) (A) (A) (A) (A) (A)
                 (A) (A) (A) (A) (A) (A) (A) (A) (A) (A) (A) (A)
                 (A) (A) (A) (A) (A) (A) (A) (A) (A) (A) (A) (A)
                 (A) (A) (A) (A) (A) (A) (A) (A) (A) (A) (A) (A)
                 (A) (A) (A) (A) (A) (A) (A) (A) (A) (A) (A) (A)
                 (A) (A) (A) (A) (A) (A) (A) (A) (A) (A) (A) (A)
                 (A) (A) (A) (A) (A) (A) (A) (A) (A) (A) (A) (A)
                 (A) (A) (A) (A) (A) (A) (A) (A) (A) (A) (A) (A)
                 (A) (A) (A) (A) (A) (A) (A) (A) (A) (A) (A) (A)
                 (A) (A) (A) (A) (A) (A) (A) (A) (A) (A) (A) (A)
                 (A) (A) (A) (A) (A) (A) (A) (A) (A) (A) (A) (A)
                 (A) (A) (A) (A) (A) (A) (A) (A) (A) (A) (A) (A)
                 (A) (A) (A) (A) (A) (A) (A) (A) (A) (A) (A) (A)
                 (A) (A) (A) (A) (A) (A) (A) (A) (A) (A) (A) (A)
                 (A) (A) (A) (A) (A) (A) (A) (A) (A) (A) (A) (A)
                 (A) (A) (A) (A) (A) (A) (A) (A) (A) (A) (A) (A)
                 (A) (A) (A) (A) (A) (A) (A) (A) (A) (A) (A) (A)
                 (A) (A) (A) (A) (A) (A) (A) (A) (A) (A) (A) (A)
                 (A) (A) (A) (A) (A) (A) (A) (A) (A) (A) (A) (A)
                 (A) (A) (A) (A) (A) (A) (A) (A) (A) (A) (A) (A)
                 (A) (A) (A) (A) (A) (A) (A) (A) (A) (A) (A) (A)
                 (A) (A) (A) (A) (A) (A) (A) (A) (A) (A) (A) (A)
                 (A) (A) (A) (A) (A) (A) (A) (A) (A) (A) (A) (A)
                 (A) (A) (A) (A) (A) (A) (A) (A) (A) (A) (A) (A)
                 (A) (A) (A) (A) (A) (A) (A) (A) (A) (A) (A) (A)
                 (A) (A) (A) (A) (A) (A) (A) (A) (A) (A) (A) (A)
                 (A) (A) (A) (A) (A) (A) (A) (A) (A) (A) (A) (A)
                 (A) (A) (A) (A) (A) (A) (A) (A) (A) (A) (A) (A)
                 (A) (A) (A) (A) (A) (A) (A) (A) (A) (A) (A) (A)
                 (A) (A) (A) (A) (A) (A) (A) (A) (A) (A) (A) (A)
                 (A) (A) (A) (A) (A) (A) (A) (A) (A) (A) (A) (A)
                 (A) (A) (A) (A) (A) (A) (A) (A) (A) (A) (A) (A)
                 (A) (A) (A) (A) (A) (A) (A) (A) (A) (A) (A) (A)
                 (A) (A) (A) (A) (A) (A) (A) (A) (A) (A) (A) (A)
                 (A) (A) (A) (A) (A) (A) (A) (A) (A) (A) (A) (A)
                 (A) (A) (A) (A) (A) (A) (A) (A) (A) (A) (A) (A)
                 (A) (A) (A) (A) (A) (A) (A) (A) (A) (A) (A) (A)
                 (A) (A) (A) (A) (A) (A) (A) (A) (A) (A) (A) (A)
                 (A) (A) (A) (A) (A) (A) (A) (A) (A) (A) (A) (A)
                 (A) (A) (A) (A) (A) (A) (A) (A) (A) (A) (A) (A)
                 (A) (A) (A) (A) (A) (A) (A) (A) (A)
 The electronic state is 1-A.
 Alpha  occ. eigenvalues --  -19.24118 -19.17929 -19.16742 -14.43064 -14.41734
 Alpha  occ. eigenvalues --  -10.34847 -10.33262 -10.30091 -10.29181 -10.27085
 Alpha  occ. eigenvalues --  -10.26075 -10.25300 -10.24349 -10.24121 -10.24099
 Alpha  occ. eigenvalues --  -10.23722 -10.23389  -1.08413  -1.06122  -1.04576
 Alpha  occ. eigenvalues --   -0.95999  -0.93736  -0.87160  -0.81479  -0.77208
 Alpha  occ. eigenvalues --   -0.76003  -0.74147  -0.71712  -0.66701  -0.63475
 Alpha  occ. eigenvalues --   -0.62044  -0.59889  -0.59654  -0.55869  -0.55249
 Alpha  occ. eigenvalues --   -0.52205  -0.50644  -0.49465  -0.48408  -0.47224
 Alpha  occ. eigenvalues --   -0.46869  -0.45625  -0.44705  -0.43790  -0.43136
 Alpha  occ. eigenvalues --   -0.42684  -0.42305  -0.42185  -0.41423  -0.40980
 Alpha  occ. eigenvalues --   -0.40020  -0.39159  -0.38014  -0.36888  -0.36141
 Alpha  occ. eigenvalues --   -0.34687  -0.34456  -0.30145  -0.27599  -0.27368
 Alpha  occ. eigenvalues --   -0.26496  -0.25905  -0.22929
 Alpha virt. eigenvalues --   -0.00571   0.00397   0.01355   0.01725   0.02764
 Alpha virt. eigenvalues --    0.03295   0.03604   0.04673   0.05558   0.06317
 Alpha virt. eigenvalues --    0.06922   0.07833   0.09099   0.09559   0.10301
 Alpha virt. eigenvalues --    0.10601   0.11723   0.12475   0.12709   0.13473
 Alpha virt. eigenvalues --    0.15131   0.16017   0.16510   0.17509   0.18878
 Alpha virt. eigenvalues --    0.20027   0.21248   0.22121   0.22943   0.23450
 Alpha virt. eigenvalues --    0.24347   0.25145   0.25383   0.26208   0.26363
 Alpha virt. eigenvalues --    0.27036   0.28028   0.28526   0.29934   0.30320
 Alpha virt. eigenvalues --    0.30702   0.31235   0.31923   0.32469   0.32884
 Alpha virt. eigenvalues --    0.33499   0.34038   0.34394   0.35226   0.35479
 Alpha virt. eigenvalues --    0.36015   0.36455   0.36588   0.37131   0.37502
 Alpha virt. eigenvalues --    0.38446   0.38550   0.39170   0.39627   0.39759
 Alpha virt. eigenvalues --    0.40242   0.40464   0.41215   0.41578   0.41809
 Alpha virt. eigenvalues --    0.41915   0.42672   0.43180   0.43349   0.43841
 Alpha virt. eigenvalues --    0.44725   0.45129   0.45396   0.45913   0.47147
 Alpha virt. eigenvalues --    0.47481   0.47749   0.48859   0.49786   0.50404
 Alpha virt. eigenvalues --    0.50902   0.51587   0.51774   0.52495   0.52844
 Alpha virt. eigenvalues --    0.53909   0.54586   0.55556   0.56257   0.56606
 Alpha virt. eigenvalues --    0.57469   0.59019   0.59785   0.60289   0.61521
 Alpha virt. eigenvalues --    0.61945   0.63071   0.63166   0.64488   0.65220
 Alpha virt. eigenvalues --    0.66074   0.66758   0.66887   0.67810   0.68964
 Alpha virt. eigenvalues --    0.69797   0.70169   0.70350   0.71887   0.72180
 Alpha virt. eigenvalues --    0.72847   0.73523   0.74455   0.75613   0.75845
 Alpha virt. eigenvalues --    0.76830   0.77189   0.78802   0.79287   0.80429
 Alpha virt. eigenvalues --    0.80753   0.81602   0.81876   0.82973   0.83268
 Alpha virt. eigenvalues --    0.83721   0.84720   0.85022   0.85589   0.86806
 Alpha virt. eigenvalues --    0.87095   0.88228   0.89258   0.89591   0.90475
 Alpha virt. eigenvalues --    0.90635   0.91933   0.92839   0.94090   0.94355
 Alpha virt. eigenvalues --    0.95041   0.95742   0.96106   0.97140   0.97766
 Alpha virt. eigenvalues --    0.98550   0.99230   1.00043   1.00893   1.01382
 Alpha virt. eigenvalues --    1.02518   1.02819   1.03667   1.04787   1.05918
 Alpha virt. eigenvalues --    1.06432   1.06935   1.08544   1.09003   1.10241
 Alpha virt. eigenvalues --    1.10453   1.11304   1.12473   1.13144   1.14024
 Alpha virt. eigenvalues --    1.14802   1.15071   1.15998   1.16471   1.17488
 Alpha virt. eigenvalues --    1.17881   1.18043   1.19008   1.19727   1.19798
 Alpha virt. eigenvalues --    1.20675   1.21391   1.21649   1.22209   1.22567
 Alpha virt. eigenvalues --    1.22840   1.23790   1.24740   1.24953   1.25448
 Alpha virt. eigenvalues --    1.25661   1.26024   1.26498   1.27108   1.27256
 Alpha virt. eigenvalues --    1.28256   1.28640   1.29897   1.30307   1.30778
 Alpha virt. eigenvalues --    1.31758   1.32756   1.32827   1.33591   1.33773
 Alpha virt. eigenvalues --    1.34555   1.34801   1.36393   1.36898   1.37609
 Alpha virt. eigenvalues --    1.38672   1.39346   1.41632   1.42148   1.42398
 Alpha virt. eigenvalues --    1.43714   1.44759   1.46810   1.47859   1.49305
 Alpha virt. eigenvalues --    1.51713   1.52739   1.53659   1.56227   1.58563
 Alpha virt. eigenvalues --    1.59893   1.60697   1.61598   1.62872   1.63055
 Alpha virt. eigenvalues --    1.65419   1.66276   1.68602   1.69614   1.71176
 Alpha virt. eigenvalues --    1.72144   1.74341   1.75033   1.76072   1.78212
 Alpha virt. eigenvalues --    1.79649   1.82706   1.83001   1.84111   1.85957
 Alpha virt. eigenvalues --    1.86043   1.87475   1.88783   1.89434   1.89831
 Alpha virt. eigenvalues --    1.91146   1.92164   1.94184   1.95199   1.95900
 Alpha virt. eigenvalues --    1.97315   1.98125   2.00093   2.01473   2.02758
 Alpha virt. eigenvalues --    2.02875   2.04512   2.06360   2.08012   2.09601
 Alpha virt. eigenvalues --    2.10656   2.11155   2.11983   2.13476   2.13685
 Alpha virt. eigenvalues --    2.15561   2.17032   2.17541   2.19634   2.20445
 Alpha virt. eigenvalues --    2.22719   2.23005   2.23954   2.24981   2.26962
 Alpha virt. eigenvalues --    2.27503   2.28523   2.30906   2.31058   2.32630
 Alpha virt. eigenvalues --    2.33302   2.36041   2.36542   2.37788   2.38016
 Alpha virt. eigenvalues --    2.39177   2.39766   2.41037   2.41726   2.42377
 Alpha virt. eigenvalues --    2.44078   2.44548   2.45224   2.46767   2.47893
 Alpha virt. eigenvalues --    2.49422   2.50811   2.51700   2.52962   2.54003
 Alpha virt. eigenvalues --    2.56131   2.57204   2.57376   2.58417   2.59947
 Alpha virt. eigenvalues --    2.62209   2.63632   2.64378   2.65936   2.66617
 Alpha virt. eigenvalues --    2.67866   2.68042   2.69041   2.69607   2.69714
 Alpha virt. eigenvalues --    2.70014   2.70819   2.71098   2.72003   2.72648
 Alpha virt. eigenvalues --    2.73351   2.74059   2.74553   2.75269   2.76717
 Alpha virt. eigenvalues --    2.77018   2.77476   2.78335   2.79870   2.80573
 Alpha virt. eigenvalues --    2.81039   2.83394   2.84674   2.86049   2.86650
 Alpha virt. eigenvalues --    2.87279   2.87863   2.88750   2.88929   2.89978
 Alpha virt. eigenvalues --    2.90489   2.90797   2.91322   2.92389   2.92746
 Alpha virt. eigenvalues --    2.93341   2.93740   2.94606   2.95197   2.96063
 Alpha virt. eigenvalues --    2.96465   2.96695   2.97359   2.98217   2.98843
 Alpha virt. eigenvalues --    2.99300   2.99888   3.00629   3.01108   3.01708
 Alpha virt. eigenvalues --    3.02053   3.02906   3.03740   3.03973   3.04735
 Alpha virt. eigenvalues --    3.05325   3.05397   3.06710   3.07995   3.09685
 Alpha virt. eigenvalues --    3.11111   3.11257   3.11500   3.12258   3.13482
 Alpha virt. eigenvalues --    3.13915   3.14879   3.15308   3.16349   3.17028
 Alpha virt. eigenvalues --    3.17915   3.18363   3.18674   3.19746   3.19958
 Alpha virt. eigenvalues --    3.20806   3.22251   3.23492   3.24022   3.24722
 Alpha virt. eigenvalues --    3.25909   3.26898   3.27082   3.27208   3.27728
 Alpha virt. eigenvalues --    3.28581   3.28689   3.29855   3.30037   3.31219
 Alpha virt. eigenvalues --    3.31767   3.32036   3.33045   3.33511   3.34838
 Alpha virt. eigenvalues --    3.34962   3.36431   3.37498   3.37825   3.39134
 Alpha virt. eigenvalues --    3.40131   3.40605   3.40736   3.42232   3.42890
 Alpha virt. eigenvalues --    3.43078   3.44084   3.45243   3.46018   3.46805
 Alpha virt. eigenvalues --    3.47258   3.48257   3.48641   3.48931   3.50308
 Alpha virt. eigenvalues --    3.51194   3.52129   3.53469   3.54492   3.56003
 Alpha virt. eigenvalues --    3.56484   3.58155   3.59499   3.59727   3.60761
 Alpha virt. eigenvalues --    3.62147   3.62509   3.63458   3.64505   3.65594
 Alpha virt. eigenvalues --    3.66934   3.67771   3.68875   3.69268   3.70313
 Alpha virt. eigenvalues --    3.71538   3.71954   3.72832   3.73210   3.74126
 Alpha virt. eigenvalues --    3.74619   3.75164   3.75844   3.76237   3.77036
 Alpha virt. eigenvalues --    3.77989   3.79355   3.80177   3.80700   3.81309
 Alpha virt. eigenvalues --    3.82859   3.83505   3.85029   3.85417   3.86167
 Alpha virt. eigenvalues --    3.86640   3.87311   3.88531   3.89093   3.89230
 Alpha virt. eigenvalues --    3.91263   3.91878   3.92521   3.92991   3.95086
 Alpha virt. eigenvalues --    3.96505   3.97073   3.97856   3.98238   3.98843
 Alpha virt. eigenvalues --    4.01366   4.01533   4.03852   4.04041   4.05141
 Alpha virt. eigenvalues --    4.05367   4.06579   4.07272   4.07923   4.09330
 Alpha virt. eigenvalues --    4.10015   4.10595   4.12089   4.13308   4.13657
 Alpha virt. eigenvalues --    4.14422   4.15448   4.16115   4.17382   4.18639
 Alpha virt. eigenvalues --    4.18816   4.20185   4.21120   4.22322   4.23069
 Alpha virt. eigenvalues --    4.23654   4.24104   4.25228   4.26023   4.27117
 Alpha virt. eigenvalues --    4.27476   4.28103   4.28614   4.29778   4.30318
 Alpha virt. eigenvalues --    4.31859   4.33261   4.34842   4.35479   4.37205
 Alpha virt. eigenvalues --    4.38791   4.39649   4.41089   4.42429   4.45471
 Alpha virt. eigenvalues --    4.46051   4.46179   4.47774   4.49343   4.51004
 Alpha virt. eigenvalues --    4.53062   4.54447   4.56529   4.57311   4.58466
 Alpha virt. eigenvalues --    4.58521   4.59901   4.61290   4.62661   4.62959
 Alpha virt. eigenvalues --    4.64723   4.65074   4.66489   4.67575   4.68451
 Alpha virt. eigenvalues --    4.69074   4.70410   4.71089   4.72071   4.72985
 Alpha virt. eigenvalues --    4.74530   4.76213   4.76751   4.78693   4.79284
 Alpha virt. eigenvalues --    4.80444   4.82168   4.83065   4.84252   4.85923
 Alpha virt. eigenvalues --    4.87318   4.88461   4.89760   4.90243   4.91060
 Alpha virt. eigenvalues --    4.91607   4.93115   4.95231   4.95413   4.95857
 Alpha virt. eigenvalues --    4.96926   4.98601   5.01437   5.02051   5.02943
 Alpha virt. eigenvalues --    5.03404   5.04583   5.05921   5.08159   5.08741
 Alpha virt. eigenvalues --    5.09284   5.10658   5.12100   5.13135   5.14958
 Alpha virt. eigenvalues --    5.16055   5.16829   5.17400   5.18093   5.20777
 Alpha virt. eigenvalues --    5.21719   5.21987   5.23565   5.24848   5.29161
 Alpha virt. eigenvalues --    5.30368   5.32753   5.34088   5.36566   5.37421
 Alpha virt. eigenvalues --    5.40245   5.44233   5.44557   5.45803   5.47464
 Alpha virt. eigenvalues --    5.51998   5.52092   5.52764   5.53185   5.55661
 Alpha virt. eigenvalues --    5.56959   5.57985   5.59412   5.60932   5.62835
 Alpha virt. eigenvalues --    5.63291   5.64609   5.65136   5.66368   5.67796
 Alpha virt. eigenvalues --    5.68508   5.69224   5.71495   5.72958   5.73227
 Alpha virt. eigenvalues --    5.74856   5.78541   5.79546   5.79897   5.82425
 Alpha virt. eigenvalues --    5.85389   5.86712   5.90593   5.92551   5.97138
 Alpha virt. eigenvalues --    5.97437   5.98731   6.03420   6.06492   6.10071
 Alpha virt. eigenvalues --    6.17135   6.18387   6.19268   6.20380   6.26946
 Alpha virt. eigenvalues --    6.46692   6.47408   6.50509   6.52025   6.56156
 Alpha virt. eigenvalues --    6.60516   6.61576   6.63364   6.64267   6.67217
 Alpha virt. eigenvalues --    6.79300   6.80985   6.81179   6.88712   6.89001
 Alpha virt. eigenvalues --    6.90519   6.91140   6.92261   6.94373   7.07359
 Alpha virt. eigenvalues --    7.17496   7.19017   7.22807   7.27450   7.30112
 Alpha virt. eigenvalues --    7.68307   7.99675   8.10524   8.12918   8.14025
 Alpha virt. eigenvalues --    8.19794   8.23352   8.25175   8.36408   8.66047
 Alpha virt. eigenvalues --    8.73731   8.76683   8.77913   8.81424   8.82561
 Alpha virt. eigenvalues --    8.83614   8.85111   8.87162   8.89067   8.90992
 Alpha virt. eigenvalues --    8.92564   8.93606   8.97106   9.00349   9.06853
 Alpha virt. eigenvalues --    9.09286   9.12927   9.17377   9.20568   9.32299
 Alpha virt. eigenvalues --    9.36299   9.41245   9.41990   9.46734   9.49739
 Alpha virt. eigenvalues --    9.57624   9.60893   9.77529   9.81565  10.02638
 Alpha virt. eigenvalues --   10.08153  10.11253  10.12920  10.13450  10.16866
 Alpha virt. eigenvalues --   10.18699  10.19550  10.20182  10.25907  10.26996
 Alpha virt. eigenvalues --   10.31053  10.34109  10.83403  11.69965  11.75364
 Alpha virt. eigenvalues --   11.81209  11.93050  11.95395  12.01638  12.11492
 Alpha virt. eigenvalues --   12.15779  12.22537  12.23319  12.30607  12.33374
 Alpha virt. eigenvalues --   12.39857  12.54747  12.58529  12.82901  12.87559
 Alpha virt. eigenvalues --   12.93308  14.85418  14.95183  15.00582  15.23722
 Alpha virt. eigenvalues --   15.26054  15.43139  15.98175  15.99534  16.02005
 Alpha virt. eigenvalues --   16.80288  16.93141  21.90322  21.99831  22.07519
 Alpha virt. eigenvalues --   40.12197  40.17213  40.19995  40.21888  40.22971
 Alpha virt. eigenvalues --   40.27532  40.29396  40.37689  40.58038  40.66111
[...]
 Alpha virt. eigenvalues --    6.79246   6.81411   6.86672   6.86898   6.88764
 Alpha virt. eigenvalues --    6.91005   6.94880   7.08856   7.09151   7.10502
 Alpha virt. eigenvalues --    7.15367   7.18996   7.29458   7.44348   8.61438
 Alpha virt. eigenvalues --    9.46924   9.85721  11.93439  12.13077  12.31646
 Alpha virt. eigenvalues --   12.40854  12.50721  12.73382  12.95050  13.19160
 Alpha virt. eigenvalues --   13.43645  13.52694  13.59781  13.72808  14.01381
 Alpha virt. eigenvalues --   15.55317
          Condensed to atoms (all electrons):
               1          2          3          4          5          6
     1  C    5.387013   0.241049  -0.000945  -0.033391  -0.028774   0.316169
     2  C    0.241049   5.305946   0.302000  -0.012710  -0.030110   0.023491
     3  C   -0.000945   0.302000   5.285044   0.335253  -0.041048  -0.066795
     4  C   -0.033391  -0.012710   0.335253   5.166831   0.446151  -0.027896
     5  C   -0.028774  -0.030110  -0.041048   0.446151   5.052071   0.394955
     6  C    0.316169   0.023491  -0.066795  -0.027896   0.394955   4.859723
     7  H    0.450906  -0.034482   0.008479  -0.000611   0.004102  -0.072978
     8  H   -0.019794   0.437529  -0.082699   0.006450  -0.000901   0.006648
     9  H   -0.003273   0.008025  -0.094928   0.457088  -0.033125   0.011385
    10  H    0.013396  -0.005419   0.014075  -0.056705   0.452983  -0.079088
    11  C    0.008078  -0.063634   0.250480  -0.051274   0.002029  -0.000882
    12  H    0.000367  -0.001380  -0.022993   0.003500   0.000041  -0.000032
    13  H   -0.000122   0.001767  -0.039285  -0.004370   0.000002   0.000101
    14  C   -0.000503   0.004026  -0.021708  -0.007446   0.000545  -0.000184
    15  H   -0.000103   0.001452   0.013099  -0.007938   0.000491  -0.000124
    16  C    0.000109  -0.004146  -0.004127   0.003640  -0.000076   0.000002
    17  O   -0.090070   0.013390  -0.000561   0.002829  -0.049058   0.392164
    18  H   -0.005019   0.004608  -0.000425  -0.000724   0.002312  -0.043568
    19  O    0.000310   0.003160  -0.005152  -0.000418  -0.000043  -0.000019
    20  N    0.000007   0.000045  -0.003621   0.000952  -0.000018   0.000004
    21  H    0.000000  -0.000032   0.001981   0.000040  -0.000001   0.000000
    22  N   -0.000006  -0.000096   0.001763  -0.000136   0.000001   0.000000
    23  H    0.000000   0.000020   0.000344  -0.000041   0.000001   0.000000
    24  C    0.000001   0.000039  -0.001064  -0.000024  -0.000003   0.000000
    25  C    0.000000   0.000000  -0.000019  -0.000009   0.000000   0.000000
    26  H    0.000000   0.000000   0.000005   0.000000   0.000000   0.000000
    27  H    0.000000   0.000000  -0.000004   0.000001   0.000000   0.000000
    28  H    0.000000   0.000000  -0.000008   0.000005   0.000000   0.000000
    29  C   -0.000005  -0.000067   0.000007   0.000016   0.000000   0.000000
    30  H    0.000006   0.000096  -0.000185   0.000009   0.000000   0.000000
    31  H    0.000000   0.000000  -0.000002   0.000000   0.000000   0.000000
    32  H   -0.000001  -0.000018   0.000056  -0.000001   0.000000   0.000000
    33  O    0.000000  -0.000001   0.000121  -0.000099   0.000000   0.000000
               7          8          9         10         11         12
     1  C    0.450906  -0.019794  -0.003273   0.013396   0.008078   0.000367
     2  C   -0.034482   0.437529   0.008025  -0.005419  -0.063634  -0.001380
     3  C    0.008479  -0.082699  -0.094928   0.014075   0.250480  -0.022993
     4  C   -0.000611   0.006450   0.457088  -0.056705  -0.051274   0.003500
     5  C    0.004102  -0.000901  -0.033125   0.452983   0.002029   0.000041
     6  C   -0.072978   0.006648   0.011385  -0.079088  -0.000882  -0.000032
     7  H    0.540545  -0.006930   0.000049  -0.000243  -0.000363  -0.000042
     8  H   -0.006930   0.513568  -0.000228   0.000049   0.004881   0.001128
     9  H    0.000049  -0.000228   0.513107  -0.009552   0.002972   0.000031
    10  H   -0.000243   0.000049  -0.009552   0.544091  -0.000318   0.000021
    11  C   -0.000363   0.004881   0.002972  -0.000318   5.401984   0.394457
    12  H   -0.000042   0.001128   0.000031   0.000021   0.394457   0.466247
    13  H    0.000019   0.000574   0.000920  -0.000044   0.433612  -0.012369
    14  C    0.000018  -0.000693  -0.002934   0.000049   0.150760  -0.026106
    15  H    0.000005  -0.000122  -0.001650   0.000088  -0.034312   0.005198
    16  C    0.000001   0.000470   0.000561  -0.000009  -0.016037  -0.016867
    17  O   -0.004186  -0.000108  -0.000140   0.006397   0.000004  -0.000001
    18  H    0.004582  -0.000003   0.000047  -0.000964  -0.000005   0.000000
    19  O    0.000009   0.001740   0.000004   0.000000   0.002646  -0.002219
    20  N    0.000000  -0.000012   0.001048  -0.000004  -0.026023  -0.001675
    21  H    0.000000   0.000014   0.000088   0.000000  -0.003132   0.000907
    22  N    0.000000  -0.000346  -0.000004   0.000000  -0.010638   0.011207
    23  H    0.000000   0.000007  -0.000009   0.000000   0.001757   0.000744
    24  C    0.000000   0.000003   0.000150   0.000000   0.011713  -0.001089
    25  C    0.000000   0.000000  -0.000002   0.000000   0.000236   0.000011
    26  H    0.000000   0.000000  -0.000005   0.000000   0.000001  -0.000001
    27  H    0.000000   0.000000   0.000001   0.000000  -0.000017  -0.000007
    28  H    0.000000   0.000000   0.000002   0.000000  -0.000300  -0.000016
    29  C    0.000000   0.000030   0.000001   0.000000  -0.000316  -0.000335
    30  H   -0.000001   0.000233   0.000000   0.000000   0.000548  -0.000773
    31  H    0.000000   0.000002   0.000000   0.000000  -0.000020  -0.000041
    32  H    0.000000  -0.000018   0.000000   0.000000  -0.000092   0.000154
    33  O    0.000000   0.000000  -0.000046   0.000000   0.002033   0.000054
              13         14         15         16         17         18
     1  C   -0.000122  -0.000503  -0.000103   0.000109  -0.090070  -0.005019
     2  C    0.001767   0.004026   0.001452  -0.004146   0.013390   0.004608
     3  C   -0.039285  -0.021708   0.013099  -0.004127  -0.000561  -0.000425
     4  C   -0.004370  -0.007446  -0.007938   0.003640   0.002829  -0.000724
     5  C    0.000002   0.000545   0.000491  -0.000076  -0.049058   0.002312
     6  C    0.000101  -0.000184  -0.000124   0.000002   0.392164  -0.043568
     7  H    0.000019   0.000018   0.000005   0.000001  -0.004186   0.004582
     8  H    0.000574  -0.000693  -0.000122   0.000470  -0.000108  -0.000003
     9  H    0.000920  -0.002934  -0.001650   0.000561  -0.000140   0.000047
    10  H   -0.000044   0.000049   0.000088  -0.000009   0.006397  -0.000964
    11  C    0.433612   0.150760  -0.034312  -0.016037   0.000004  -0.000005
    12  H   -0.012369  -0.026106   0.005198  -0.016867  -0.000001   0.000000
    13  H    0.483614  -0.074356  -0.004605   0.009218  -0.000001   0.000000
    14  C   -0.074356   5.527932   0.433115   0.200579   0.000001   0.000000
    15  H   -0.004605   0.433115   0.440120  -0.062583   0.000000   0.000000
    16  C    0.009218   0.200579  -0.062583   4.656008   0.000000   0.000000
    17  O   -0.000001   0.000001   0.000000   0.000000   7.665889   0.359759
    18  H    0.000000   0.000000   0.000000   0.000000   0.359759   0.491165
    19  O   -0.000338  -0.073612   0.010080   0.721045   0.000000   0.000000
    20  N   -0.000235   0.157185  -0.044019  -0.032348   0.000000   0.000000
    21  H    0.006481  -0.019397   0.002136  -0.001055   0.000000   0.000000
    22  N   -0.000682  -0.076693   0.005279   0.345657   0.000000   0.000000
    23  H   -0.000365  -0.001674   0.001130  -0.035264   0.000000   0.000000
    24  C    0.000494  -0.103026  -0.008815   0.011818   0.000000   0.000000
    25  C   -0.000235   0.004736   0.001766  -0.000790   0.000000   0.000000
    26  H   -0.000027  -0.000010   0.000130  -0.000158   0.000000   0.000000
    27  H    0.000027  -0.000498  -0.000212   0.000441   0.000000   0.000000
    28  H    0.000015   0.001402  -0.000381  -0.000120   0.000000   0.000000
    29  C    0.000076   0.010856  -0.000737  -0.055576   0.000000   0.000000
    30  H    0.000010  -0.000851  -0.000227  -0.001328   0.000000   0.000000
    31  H    0.000002   0.000641  -0.000018   0.008033   0.000000   0.000000
    32  H    0.000003   0.001205   0.000205  -0.006733   0.000000   0.000000
    33  O   -0.000126   0.003581   0.018699   0.003794   0.000000   0.000000
              19         20         21         22         23         24
     1  C    0.000310   0.000007   0.000000  -0.000006   0.000000   0.000001
     2  C    0.003160   0.000045  -0.000032  -0.000096   0.000020   0.000039
     3  C   -0.005152  -0.003621   0.001981   0.001763   0.000344  -0.001064
     4  C   -0.000418   0.000952   0.000040  -0.000136  -0.000041  -0.000024
     5  C   -0.000043  -0.000018  -0.000001   0.000001   0.000001  -0.000003
     6  C   -0.000019   0.000004   0.000000   0.000000   0.000000   0.000000
     7  H    0.000009   0.000000   0.000000   0.000000   0.000000   0.000000
     8  H    0.001740  -0.000012   0.000014  -0.000346   0.000007   0.000003
     9  H    0.000004   0.001048   0.000088  -0.000004  -0.000009   0.000150
    10  H    0.000000  -0.000004   0.000000   0.000000   0.000000   0.000000
    11  C    0.002646  -0.026023  -0.003132  -0.010638   0.001757   0.011713
    12  H   -0.002219  -0.001675   0.000907   0.011207   0.000744  -0.001089
    13  H   -0.000338  -0.000235   0.006481  -0.000682  -0.000365   0.000494
    14  C   -0.073612   0.157185  -0.019397  -0.076693  -0.001674  -0.103026
    15  H    0.010080  -0.044019   0.002136   0.005279   0.001130  -0.008815
    16  C    0.721045  -0.032348  -0.001055   0.345657  -0.035264   0.011818
    17  O    0.000000   0.000000   0.000000   0.000000   0.000000   0.000000
    18  H    0.000000   0.000000   0.000000   0.000000   0.000000   0.000000
    19  O    7.826844   0.004990  -0.000218  -0.123960   0.005290  -0.001083
    20  N    0.004990   6.659561   0.360024  -0.002657   0.025955   0.313298
    21  H   -0.000218   0.360024   0.512084  -0.000207   0.000138  -0.017677
    22  N   -0.123960  -0.002657  -0.000207   6.443845   0.387270   0.008989
    23  H    0.005290   0.025955   0.000138   0.387270   0.520700  -0.005918
    24  C   -0.001083   0.313298  -0.017677   0.008989  -0.005918   4.640535
    25  C   -0.000008  -0.064270  -0.000867  -0.000475   0.000456   0.276547
    26  H    0.000000   0.001037  -0.000086   0.000003   0.000168  -0.028696
    27  H   -0.000002  -0.002096   0.000031   0.000260  -0.000605  -0.021909
    28  H    0.000000   0.013101  -0.000887   0.000131  -0.000013  -0.059388
    29  C    0.009515  -0.001737   0.000057   0.289926  -0.032383   0.000091
    30  H    0.005743  -0.000078  -0.000004  -0.049898   0.001880   0.000194
    31  H    0.001584  -0.000180   0.000027  -0.028500  -0.008114  -0.000050
    32  H    0.004440  -0.000198   0.000010  -0.046582   0.002735  -0.000460
    33  O   -0.000150  -0.132115   0.005083  -0.005371  -0.003165   0.718956
              25         26         27         28         29         30
     1  C    0.000000   0.000000   0.000000   0.000000  -0.000005   0.000006
     2  C    0.000000   0.000000   0.000000   0.000000  -0.000067   0.000096
     3  C   -0.000019   0.000005  -0.000004  -0.000008   0.000007  -0.000185
     4  C   -0.000009   0.000000   0.000001   0.000005   0.000016   0.000009
     5  C    0.000000   0.000000   0.000000   0.000000   0.000000   0.000000
     6  C    0.000000   0.000000   0.000000   0.000000   0.000000   0.000000
     7  H    0.000000   0.000000   0.000000   0.000000   0.000000  -0.000001
     8  H    0.000000   0.000000   0.000000   0.000000   0.000030   0.000233
     9  H   -0.000002  -0.000005   0.000001   0.000002   0.000001   0.000000
    10  H    0.000000   0.000000   0.000000   0.000000   0.000000   0.000000
    11  C    0.000236   0.000001  -0.000017  -0.000300  -0.000316   0.000548
    12  H    0.000011  -0.000001  -0.000007  -0.000016  -0.000335  -0.000773
    13  H   -0.000235  -0.000027   0.000027   0.000015   0.000076   0.000010
    14  C    0.004736  -0.000010  -0.000498   0.001402   0.010856  -0.000851
    15  H    0.001766   0.000130  -0.000212  -0.000381  -0.000737  -0.000227
    16  C   -0.000790  -0.000158   0.000441  -0.000120  -0.055576  -0.001328
    17  O    0.000000   0.000000   0.000000   0.000000   0.000000   0.000000
    18  H    0.000000   0.000000   0.000000   0.000000   0.000000   0.000000
    19  O   -0.000008   0.000000  -0.000002   0.000000   0.009515   0.005743
    20  N   -0.064270   0.001037  -0.002096   0.013101  -0.001737  -0.000078
    21  H   -0.000867  -0.000086   0.000031  -0.000887   0.000057  -0.000004
    22  N   -0.000475   0.000003   0.000260   0.000131   0.289926  -0.049898
    23  H    0.000456   0.000168  -0.000605  -0.000013  -0.032383   0.001880
    24  C    0.276547  -0.028696  -0.021909  -0.059388   0.000091   0.000194
    25  C    4.995965   0.392513   0.380309   0.396258  -0.000064   0.000001
    26  H    0.392513   0.556966  -0.022872  -0.025082  -0.000002   0.000000
    27  H    0.380309  -0.022872   0.573764  -0.026905   0.000027   0.000003
    28  H    0.396258  -0.025082  -0.026905   0.599315   0.000004   0.000000
    29  C   -0.000064  -0.000002   0.000027   0.000004   4.761661   0.395112
    30  H    0.000001   0.000000   0.000003   0.000000   0.395112   0.618762
    31  H   -0.000011   0.000000   0.000014   0.000001   0.393979  -0.026964
    32  H   -0.000011  -0.000001  -0.000004  -0.000001   0.402876  -0.055483
    33  O   -0.068223   0.001976   0.001260   0.004508   0.000170   0.000005
              31         32         33
     1  C    0.000000  -0.000001   0.000000
     2  C    0.000000  -0.000018  -0.000001
     3  C   -0.000002   0.000056   0.000121
     4  C    0.000000  -0.000001  -0.000099
     5  C    0.000000   0.000000   0.000000
     6  C    0.000000   0.000000   0.000000
     7  H    0.000000   0.000000   0.000000
     8  H    0.000002  -0.000018   0.000000
     9  H    0.000000   0.000000  -0.000046
    10  H    0.000000   0.000000   0.000000
    11  C   -0.000020  -0.000092   0.002033
    12  H   -0.000041   0.000154   0.000054
    13  H    0.000002   0.000003  -0.000126
    14  C    0.000641   0.001205   0.003581
    15  H   -0.000018   0.000205   0.018699
    16  C    0.008033  -0.006733   0.003794
    17  O    0.000000   0.000000   0.000000
    18  H    0.000000   0.000000   0.000000
    19  O    0.001584   0.004440  -0.000150
    20  N   -0.000180  -0.000198  -0.132115
    21  H    0.000027   0.000010   0.005083
    22  N   -0.028500  -0.046582  -0.005371
    23  H   -0.008114   0.002735  -0.003165
    24  C   -0.000050  -0.000460   0.718956
    25  C   -0.000011  -0.000011  -0.068223
    26  H    0.000000  -0.000001   0.001976
    27  H    0.000014  -0.000004   0.001260
    28  H    0.000001  -0.000001   0.004508
    29  C    0.393979   0.402876   0.000170
    30  H   -0.026964  -0.055483   0.000005
    31  H    0.604381  -0.028804   0.000003
    32  H   -0.028804   0.609367   0.000240
    33  O    0.000003   0.000240   7.827831
 Mulliken charges:
               1
     1  C   -0.235406
     2  C   -0.194550
     3  C    0.172864
     4  C   -0.218974
     5  C   -0.172526
     6  C    0.286924
     7  H    0.111121
     8  H    0.138529
     9  H    0.150417
    10  H    0.121196
    11  C   -0.460830
    12  H    0.201880
    13  H    0.200225
    14  C   -0.086936
    15  H    0.232857
    16  C    0.275840
    17  O   -0.296309
    18  H    0.188236
    19  O   -0.390180
    20  N   -0.225921
    21  H    0.154462
    22  N   -0.148083
    23  H    0.138960
    24  C    0.266374
    25  C   -0.313812
    26  H    0.124141
    27  H    0.118995
    28  H    0.098360
    29  C   -0.173182
    30  H    0.113191
    31  H    0.084039
    32  H    0.117115
    33  O   -0.379016
 Sum of Mulliken charges =   0.00000
 Mulliken charges with hydrogens summed into heavy atoms:
               1
     1  C   -0.124285
     2  C   -0.056020
     3  C    0.172864
     4  C   -0.068557
     5  C   -0.051330
     6  C    0.286924
    11  C   -0.058725
    14  C    0.145920
    16  C    0.275840
    17  O   -0.108073
    19  O   -0.390180
    20  N   -0.071459
    22  N   -0.009123
    24  C    0.266374
    25  C    0.027684
    29  C    0.141163
    33  O   -0.379016
 Electronic spatial extent (au):  <R**2>=           5356.9195
 Charge=              0.0000 electrons
 Dipole moment (field-independent basis, Debye):
    X=              2.0524    Y=             -0.0155    Z=              5.8242  Tot=              6.1752
 Quadrupole moment (field-independent basis, Debye-Ang):
   XX=            -83.6610   YY=            -92.2272   ZZ=           -106.5582
   XY=             -6.1036   XZ=             11.2184   YZ=              0.4348
 Traceless Quadrupole moment (field-independent basis, Debye-Ang):
   XX=             10.4878   YY=              1.9216   ZZ=            -12.4094
   XY=             -6.1036   XZ=             11.2184   YZ=              0.4348
 Octapole moment (field-independent basis, Debye-Ang**2):
  XXX=              7.5809  YYY=              3.3563  ZZZ=              4.4134  XYY=             19.9384
  XXY=             58.4946  XXZ=             33.8343  XZZ=              2.4698  YZZ=              2.1767
  YYZ=              4.9062  XYZ=            -11.9393
 Hexadecapole moment (field-independent basis, Debye-Ang**3):
 XXXX=          -4567.4681 YYYY=          -1333.9950 ZZZZ=           -431.3370 XXXY=           -317.1788
 XXXZ=             95.8294 YYYX=             15.0707 YYYZ=             19.9000 ZZZX=             45.2166
 ZZZY=            -15.5333 XXYY=           -953.4361 XXZZ=          -1001.5337 YYZZ=           -312.3632
 XXYZ=            -39.4217 YYXZ=             16.9333 ZZXY=              6.9365
 N-N= 1.199036784691D+03 E-N=-4.268691488193D+03  KE= 7.961884178852D+02
 Calculating spin-rotation constants.
 Leave Link  601 at Wed Jun 25 05:47:05 2014, MaxMem=  4294967296 cpu:        92.3
 (Enter /home/ztw1e12/g09/l9999.exe)

 Test job not archived.
 1\1\GINC-GREEN0515\SP\RM06\Gen\C12H16N2O3\ROOT\25-Jun-2014\0\\#P Geom=
 AllCheck Guess=TCheck SCRF=Check GenChk RM06/ChkBas NMR=ReadFC IOp(3/6
 =22)\\NMR spin-spin scan\\0,1\C,0,2.803226,-1.752294,1.916046\C,0,2.16
 518,-0.65373,1.364165\C,0,1.498892,-0.74096,0.150079\C,0,1.484261,-1.9
 69412,-0.503013\C,0,2.113701,-3.075209,0.033281\C,0,2.777023,-2.965798
 ,1.248195\H,0,3.322179,-1.674399,2.864461\H,0,2.185832,0.294235,1.8903
 35\H,0,0.971186,-2.058303,-1.454839\H,0,2.104767,-4.028798,-0.479175\C
 ,0,0.814511,0.447555,-0.452072\H,0,1.127522,1.365913,0.050612\H,0,1.12
 6032,0.537609,-1.49693\C,0,-0.720298,0.353119,-0.45162\H,0,-1.013364,-
 0.698942,-0.508315\C,0,-1.241974,0.851212,0.881895\O,0,3.3887,-4.08101
 2,1.737952\H,0,3.815772,-3.870478,2.576137\O,0,-1.136491,0.134383,1.87
 6816\N,0,-1.262924,1.034579,-1.605009\H,0,-0.655196,1.62305,-2.154648\
 N,0,-1.732005,2.090515,0.932735\H,0,-1.844879,2.607129,0.075554\C,0,-2
 .537784,0.852476,-2.002004\C,0,-2.960834,1.579899,-3.234597\H,0,-3.345
 763,0.857054,-3.953336\H,0,-3.779833,2.252417,-2.979663\H,0,-2.157372,
 2.152268,-3.692929\C,0,-2.192301,2.668778,2.17432\H,0,-1.394795,2.6775
 56,2.917072\H,0,-2.509417,3.690829,1.99111\H,0,-3.034181,2.110362,2.58
 5465\O,0,-3.308526,0.12593,-1.37921\\Version=EM64L-G09RevD.01\State=1-
 A\HF=-801.858477\RMSD=4.479e-09\Dipole=0.9533225,2.0218122,-0.9518562\
 Quadrupole=-8.4719794,3.4682382,5.0037412,-6.7882371,6.9280514,-3.9679
 553\PG=C01 [X(C12H16N2O3)]\\@


 POCKETA-POCKETA
 BARON VON RICHTOFEN
 SLAUGHTERED THE ALLIES WITH
 HARDLY A CARE.
 KILLED EIGHTY-ONE WITH HIS
 BLOOD-COLORED TRIPLANE, THEN
 UN-AEROBATICALLY
 PLUNGED FROM THE AIR.
   -- TONY HOFFMAN
 Job cpu time:       3 days  4 hours 22 minutes 53.7 seconds.
 File lengths (MBytes):  RWF=   3656 Int=      0 D2E=      0 Chk=     64 Scr=      8
 Normal termination of Gaussian 09 at Wed Jun 25 05:47:06 2014.
