 Entering Gaussian System, Link 0=g09
 Input=scan_input_3.gjf
 Output=scan_input_3.log
 Initial command:
 /home/ztw1e12/g09/l1.exe "/home/ztw1e12/tyrosine_scan/tyrosine_chi1_scan/Gau-30885.inp" -scrdir="/home/ztw1e12/tyrosine_scan/tyrosine_chi1_scan/"
 Default is to use a total of   8 processors:
                                8 via shared-memory
                                1 via Linda
 Entering Link 1 = /home/ztw1e12/g09/l1.exe PID=     30886.
  
 Copyright (c) 1988,1990,1992,1993,1995,1998,2003,2009,2013,
            Gaussian, Inc.  All Rights Reserved.
  
 This is part of the Gaussian(R) 09 program.  It is based on
 the Gaussian(R) 03 system (copyright 2003, Gaussian, Inc.),
 the Gaussian(R) 98 system (copyright 1998, Gaussian, Inc.),
 the Gaussian(R) 94 system (copyright 1995, Gaussian, Inc.),
 the Gaussian 92(TM) system (copyright 1992, Gaussian, Inc.),
 the Gaussian 90(TM) system (copyright 1990, Gaussian, Inc.),
 the Gaussian 88(TM) system (copyright 1988, Gaussian, Inc.),
 the Gaussian 86(TM) system (copyright 1986, Carnegie Mellon
 University), and the Gaussian 82(TM) system (copyright 1983,
 Carnegie Mellon University). Gaussian is a federally registered
 trademark of Gaussian, Inc.
  
 This software contains proprietary and confidential information,
 including trade secrets, belonging to Gaussian, Inc.
  
 This software is provided under written license and may be
 used, copied, transmitted, or stored only in accord with that
 written license.
  
 The following legend is applicable only to US Government
 contracts under FAR:
  
                    RESTRICTED RIGHTS LEGEND
  
 Use, reproduction and disclosure by the US Government is
 subject to restrictions as set forth in subparagraphs (a)
 and (c) of the Commercial Computer Software - Restricted
 Rights clause in FAR 52.227-19.
  
 Gaussian, Inc.
 340 Quinnipiac St., Bldg. 40, Wallingford CT 06492
  
  
 ---------------------------------------------------------------
 Warning -- This program may not be used in any manner that
 competes with the business of Gaussian, Inc. or will provide
 assistance to any competitor of Gaussian, Inc.  The licensee
 of this program is prohibited from giving any competitor of
 Gaussian, Inc. access to this program.  By using this program,
 the user acknowledges that Gaussian, Inc. is engaged in the
 business of creating and licensing software in the field of
 computational chemistry and represents and warrants to the
 licensee that it is not a competitor of Gaussian, Inc. and that
 it will not use this program in any manner prohibited above.
 ---------------------------------------------------------------
  

 Cite this work as:
 Gaussian 09, Revision D.01,
 M. J. Frisch, G. W. Trucks, H. B. Schlegel, G. E. Scuseria, 
 M. A. Robb, J. R. Cheeseman, G. Scalmani, V. Barone, B. Mennucci, 
 G. A. Petersson, H. Nakatsuji, M. Caricato, X. Li, H. P. Hratchian, 
 A. F. Izmaylov, J. Bloino, G. Zheng, J. L. Sonnenberg, M. Hada, 
 M. Ehara, K. Toyota, R. Fukuda, J. Hasegawa, M. Ishida, T. Nakajima, 
 Y. Honda, O. Kitao, H. Nakai, T. Vreven, J. A. Montgomery, Jr., 
 J. E. Peralta, F. Ogliaro, M. Bearpark, J. J. Heyd, E. Brothers, 
 K. N. Kudin, V. N. Staroverov, T. Keith, R. Kobayashi, J. Normand, 
 K. Raghavachari, A. Rendell, J. C. Burant, S. S. Iyengar, J. Tomasi, 
 M. Cossi, N. Rega, J. M. Millam, M. Klene, J. E. Knox, J. B. Cross, 
 V. Bakken, C. Adamo, J. Jaramillo, R. Gomperts, R. E. Stratmann, 
 O. Yazyev, A. J. Austin, R. Cammi, C. Pomelli, J. W. Ochterski, 
 R. L. Martin, K. Morokuma, V. G. Zakrzewski, G. A. Voth, 
 P. Salvador, J. J. Dannenberg, S. Dapprich, A. D. Daniels, 
 O. Farkas, J. B. Foresman, J. V. Ortiz, J. Cioslowski, 
 and D. J. Fox, Gaussian, Inc., Wallingford CT, 2013.
 
 ******************************************
 Gaussian 09:  EM64L-G09RevD.01 24-Apr-2013
                24-Jun-2014 
 ******************************************
 %Mem=32GB
 %NProcShared=16
 Will use up to   16 processors via shared memory.
 Default route:  MaxDisk=100GB
 ----------------------------------------------------------------------
 #p nmr=(giao,mixed,spinspin) m06/cc-pvtz scf=tight integral=(grid=ultr
 afine)
 ----------------------------------------------------------------------
 1/38=1/1;
 2/12=2,17=6,18=5,40=1/2;
 3/5=16,6=1,10=1100000,11=2,16=1,25=1,30=1,74=-54,75=-5/1,2,8,3;
 4//1;
 5/5=2,32=2,38=5/2;
 8/6=1,10=90,11=11/1;
 10/13=100,45=16,47=3/2;
 6/7=2,8=2,9=2,10=2,28=1/1;
 99/9=1/99;
 Leave Link    1 at Tue Jun 24 17:11:07 2014, MaxMem=  4294967296 cpu:         8.7
 (Enter /home/ztw1e12/g09/l101.exe)
 ------------------
 NMR spin-spin scan
 ------------------
 Symbolic Z-matrix:
 Charge =  0 Multiplicity = 1
 C                     3.25265  -0.24953  -1.13182 
 C                     1.98095  -0.79167  -1.10913 
 C                     1.32772  -1.05344   0.09011 
 C                     1.99213  -0.75772   1.27367 
 C                     3.26506  -0.21464   1.26983 
 C                     3.89575   0.04279   0.06282 
 H                     3.75731  -0.04954  -2.07023 
 H                     1.48117  -1.01805  -2.04516 
 H                     1.49993  -0.95499   2.22 
 H                     3.77918   0.01341   2.19488 
 C                    -0.06573  -1.60231   0.09767 
 H                    -0.16591  -2.43267  -0.60339 
 H                    -0.28286  -2.00197   1.09113 
 C                    -1.13609  -0.57235  -0.25083 
 H                    -1.14661  -0.42875  -1.33638 
 C                    -2.5356   -1.05092   0.13781 
 O                     5.14733   0.58078   0.10076 
 H                     5.46367   0.71713  -0.79938 
 O                    -2.73038  -2.07512   0.78675 
 N                    -0.8308    0.73082   0.31548 
 H                    -0.26962   0.76034   1.15423 
 N                    -3.52896  -0.27205  -0.29939 
 H                    -3.28498   0.55678  -0.82781 
 C                    -1.15714   1.89198  -0.27437 
 C                    -0.65204   3.13352   0.38135 
 H                    -0.0291    3.6741   -0.3313 
 H                    -1.50018   3.77372   0.62265 
 H                    -0.07779   2.93949   1.28457 
 C                    -4.91062  -0.56798  -0.00211 
 H                    -5.08829  -0.59186   1.07372 
 H                    -5.53774   0.20259  -0.44014 
 H                    -5.20436  -1.53371  -0.41516 
 O                    -1.83722   1.93935  -1.30198 
 
 NAtoms=     33 NQM=       33 NQMF=       0 NMMI=      0 NMMIF=      0
                NMic=       0 NMicF=      0.
                    Isotopes and Nuclear Properties:
 (Nuclear quadrupole moments (NQMom) in fm**2, nuclear magnetic moments (NMagM)
  in nuclear magnetons)

  Atom         1           2           3           4           5           6           7           8           9          10
 IAtWgt=          12          12          12          12          12          12           1           1           1           1
 AtmWgt=  12.0000000  12.0000000  12.0000000  12.0000000  12.0000000  12.0000000   1.0078250   1.0078250   1.0078250   1.0078250
 NucSpn=           0           0           0           0           0           0           1           1           1           1
 AtZEff=   0.0000000   0.0000000   0.0000000   0.0000000   0.0000000   0.0000000   0.0000000   0.0000000   0.0000000   0.0000000
 NQMom=    0.0000000   0.0000000   0.0000000   0.0000000   0.0000000   0.0000000   0.0000000   0.0000000   0.0000000   0.0000000
 NMagM=    0.0000000   0.0000000   0.0000000   0.0000000   0.0000000   0.0000000   2.7928460   2.7928460   2.7928460   2.7928460
 AtZNuc=   6.0000000   6.0000000   6.0000000   6.0000000   6.0000000   6.0000000   1.0000000   1.0000000   1.0000000   1.0000000

  Atom        11          12          13          14          15          16          17          18          19          20
 IAtWgt=          12           1           1          12           1          12          16           1          16          14
 AtmWgt=  12.0000000   1.0078250   1.0078250  12.0000000   1.0078250  12.0000000  15.9949146   1.0078250  15.9949146  14.0030740
 NucSpn=           0           1           1           0           1           0           0           1           0           2
 AtZEff=   0.0000000   0.0000000   0.0000000   0.0000000   0.0000000   0.0000000   0.0000000   0.0000000   0.0000000   0.0000000
 NQMom=    0.0000000   0.0000000   0.0000000   0.0000000   0.0000000   0.0000000   0.0000000   0.0000000   0.0000000   2.0440000
 NMagM=    0.0000000   2.7928460   2.7928460   0.0000000   2.7928460   0.0000000   0.0000000   2.7928460   0.0000000   0.4037610
 AtZNuc=   6.0000000   1.0000000   1.0000000   6.0000000   1.0000000   6.0000000   8.0000000   1.0000000   8.0000000   7.0000000

  Atom        21          22          23          24          25          26          27          28          29          30
 IAtWgt=           1          14           1          12          12           1           1           1          12           1
 AtmWgt=   1.0078250  14.0030740   1.0078250  12.0000000  12.0000000   1.0078250   1.0078250   1.0078250  12.0000000   1.0078250
 NucSpn=           1           2           1           0           0           1           1           1           0           1
 AtZEff=   0.0000000   0.0000000   0.0000000   0.0000000   0.0000000   0.0000000   0.0000000   0.0000000   0.0000000   0.0000000
 NQMom=    0.0000000   2.0440000   0.0000000   0.0000000   0.0000000   0.0000000   0.0000000   0.0000000   0.0000000   0.0000000
 NMagM=    2.7928460   0.4037610   2.7928460   0.0000000   0.0000000   2.7928460   2.7928460   2.7928460   0.0000000   2.7928460
 AtZNuc=   1.0000000   7.0000000   1.0000000   6.0000000   6.0000000   1.0000000   1.0000000   1.0000000   6.0000000   1.0000000

  Atom        31          32          33
 IAtWgt=           1           1          16
 AtmWgt=   1.0078250   1.0078250  15.9949146
 NucSpn=           1           1           0
 AtZEff=   0.0000000   0.0000000   0.0000000
 NQMom=    0.0000000   0.0000000   0.0000000
 NMagM=    2.7928460   2.7928460   0.0000000
 AtZNuc=   1.0000000   1.0000000   8.0000000
 Leave Link  101 at Tue Jun 24 17:11:07 2014, MaxMem=  4294967296 cpu:         2.0
 (Enter /home/ztw1e12/g09/l202.exe)
                          Input orientation:                          
 ---------------------------------------------------------------------
 Center     Atomic      Atomic             Coordinates (Angstroms)
 Number     Number       Type             X           Y           Z
 ---------------------------------------------------------------------
      1          6           0        3.252649   -0.249526   -1.131815
      2          6           0        1.980947   -0.791674   -1.109134
      3          6           0        1.327723   -1.053438    0.090109
      4          6           0        1.992133   -0.757716    1.273668
      5          6           0        3.265055   -0.214644    1.269828
      6          6           0        3.895752    0.042789    0.062817
      7          1           0        3.757311   -0.049539   -2.070230
      8          1           0        1.481169   -1.018048   -2.045157
      9          1           0        1.499928   -0.954985    2.220002
     10          1           0        3.779177    0.013407    2.194884
     11          6           0       -0.065725   -1.602309    0.097665
     12          1           0       -0.165907   -2.432666   -0.603394
     13          1           0       -0.282860   -2.001971    1.091133
     14          6           0       -1.136094   -0.572352   -0.250826
     15          1           0       -1.146609   -0.428753   -1.336378
     16          6           0       -2.535603   -1.050921    0.137805
     17          8           0        5.147333    0.580780    0.100763
     18          1           0        5.463673    0.717127   -0.799382
     19          8           0       -2.730381   -2.075122    0.786748
     20          7           0       -0.830799    0.730820    0.315483
     21          1           0       -0.269617    0.760343    1.154228
     22          7           0       -3.528961   -0.272049   -0.299386
     23          1           0       -3.284984    0.556783   -0.827808
     24          6           0       -1.157140    1.891980   -0.274370
     25          6           0       -0.652041    3.133523    0.381346
     26          1           0       -0.029096    3.674096   -0.331298
     27          1           0       -1.500177    3.773723    0.622647
     28          1           0       -0.077789    2.939494    1.284573
     29          6           0       -4.910617   -0.567984   -0.002107
     30          1           0       -5.088286   -0.591863    1.073721
     31          1           0       -5.537744    0.202588   -0.440135
     32          1           0       -5.204362   -1.533708   -0.415156
     33          8           0       -1.837216    1.939348   -1.301976
 ---------------------------------------------------------------------
                    Distance matrix (angstroms):
                    1          2          3          4          5
     1  C    0.000000
     2  C    1.382630   0.000000
     3  C    2.417584   1.390470   0.000000
     4  C    2.762880   2.383070   1.389138   0.000000
     5  C    2.401928   2.764300   2.418381   1.383934   0.000000
     6  C    1.387867   2.395052   2.792352   2.393895   1.385975
     7  H    1.084113   2.151729   3.402613   3.846950   3.380172
     8  H    2.136109   1.084971   2.141065   3.368005   3.849264
     9  H    3.847646   3.367669   2.139110   1.084771   2.136963
    10  H    3.378356   3.846859   3.402626   2.153322   1.082616
    11  C    3.788568   2.510450   1.497669   2.516168   3.793900
    12  H    4.090459   2.749111   2.148057   3.314507   4.494450
    13  H    4.529060   3.380949   2.120316   2.599439   3.976703
    14  C    4.487920   3.240484   2.533392   3.484860   4.670167
    15  H    4.407657   3.156732   2.923596   4.095395   5.128443
    16  C    5.979802   4.692685   3.863621   4.677237   5.968959
    17  O    2.408004   3.656977   4.154540   3.622508   2.354227
    18  H    2.435889   3.808124   4.586085   4.303985   3.159707
    19  O    6.542961   5.238150   4.242329   4.926945   6.296030
    20  N    4.441880   3.500491   2.809553   3.332087   4.310533
    21  H    4.318818   3.549169   2.640766   2.726588   3.668497
    22  N    6.832546   5.593281   4.934537   5.761324   6.973118
    23  H    6.594179   5.443116   4.971162   5.830272   6.920852
    24  C    4.976696   4.212650   3.870772   4.397184   5.135973
    25  C    5.383426   4.955939   4.640574   4.788490   5.229079
    26  H    5.177402   4.958670   4.936408   5.128571   5.342035
    27  H    6.469469   5.996677   5.619795   5.757951   6.247668
    28  H    5.205823   4.887724   4.398376   4.237223   4.596021
    29  C    8.247216   6.983495   6.257879   7.022219   8.281563
    30  H    8.634395   7.401273   6.507359   7.085183   8.364153
    31  H    8.829147   7.613595   6.999528   7.781925   8.977044
    32  H    8.583924   7.256782   6.569177   7.432619   8.735567
    33  O    5.543180   4.698302   4.572910   5.345279   6.106310
                    6          7          8          9         10
     6  C    0.000000
     7  H    2.139528   0.000000
     8  H    3.376261   2.473754   0.000000
     9  H    3.374755   4.931704   4.265666   0.000000
    10  H    2.135454   4.265635   4.931804   2.476568   0.000000
    11  C    4.289623   4.661166   2.706645   2.715624   4.668205
    12  H    4.802998   4.818977   2.606278   3.595847   5.420085
    13  H    4.764376   5.489006   3.730445   2.355601   4.666922
    14  C    5.079000   5.246806   3.204424   3.633182   5.521277
    15  H    5.254094   4.973004   2.784754   4.464182   6.076898
    16  C    6.524121   6.743808   4.571746   4.542054   6.726129
    17  O    1.362839   2.653804   4.538941   4.489244   2.564977
    18  H    1.912196   2.261527   4.519195   5.255846   3.506904
    19  O    6.993945   7.372615   5.184037   4.604828   6.979910
    20  N    4.783044   5.229851   3.738497   3.449843   5.029782
    21  H    4.365359   5.221991   4.057584   2.685054   4.246600
    22  N    7.440207   7.501677   5.357764   5.665990   7.727338
    23  H    7.253990   7.176709   5.165099   5.871113   7.702876
    24  C    5.391189   5.580899   4.308668   4.624620   5.830393
    25  C    5.507860   5.965274   5.260612   4.972678   5.714870
    26  H    5.361544   5.588043   5.218662   5.502312   5.855355
    27  H    6.584021   7.036341   6.242329   5.823474   6.669594
    28  H    5.066815   5.907369   5.401814   4.304786   4.926138
    29  C    8.827763   8.926303   6.725440   6.795780   8.982055
    30  H    9.062982   9.403357   7.284694   6.697043   8.958530
    31  H    9.448246   9.440277   7.302821   7.612170   9.684221
    32  H    9.248020   9.233288   6.900662   7.226789   9.482080
    33  O    6.190841   5.987038   4.506683   5.649604   6.890657
                   11         12         13         14         15
    11  C    0.000000
    12  H    1.091335   0.000000
    13  H    1.092637   1.752312   0.000000
    14  C    1.525761   2.127519   2.138381   0.000000
    15  H    2.145233   2.348342   3.018921   1.095059   0.000000
    16  C    2.530995   2.841488   2.624535   1.529277   2.118871
    17  O    5.651713   6.148757   6.094131   6.398030   6.534389
    18  H    6.062897   6.453819   6.632510   6.746895   6.730322
    19  O    2.792629   2.938853   2.467460   2.424176   3.118738
    20  N    2.465010   3.360664   2.893098   1.453330   2.042790
    21  H    2.596155   3.646272   2.763066   2.121564   2.895891
    22  N    3.731118   4.008843   3.932346   2.412126   2.602981
    23  H    3.985198   4.326177   4.386605   2.495112   2.408853
    24  C    3.679627   4.448973   4.218035   2.464534   2.552210
    25  C    4.780413   5.673491   5.197441   3.790443   3.985597
    26  H    5.293940   6.114352   5.857085   4.389105   4.369484
    27  H    5.588826   6.465502   5.921147   4.447907   4.650118
    28  H    4.694345   5.694935   4.949500   3.976245   4.399642
    29  C    4.955074   5.133309   4.966652   3.782711   3.995925
    30  H    5.215343   5.516438   5.008076   4.168288   4.622986
    31  H    5.787044   5.985637   5.900735   4.473354   4.525915
    32  H    5.164618   5.121483   5.168110   4.183541   4.305222
    33  O    4.200061   4.732420   4.865901   2.811605   2.466987
                   16         17         18         19         20
    16  C    0.000000
    17  O    7.854383   0.000000
    18  H    8.245770   0.963806   0.000000
    19  O    1.228028   8.341629   8.800851   0.000000
    20  N    2.472353   5.983868   6.392456   3.421084   0.000000
    21  H    3.073839   5.521357   6.057151   3.772302   1.009599
    22  N    1.335866   8.727286   9.060681   2.251331   2.943448
    23  H    2.019577   8.483324   8.750172   3.137085   2.713011
    24  C    3.275777   6.450298   6.744708   4.397608   1.342653
    25  C    4.595290   6.342552   6.680946   5.622618   2.410244
    26  H    5.369210   6.045717   6.255660   6.449843   3.118321
    27  H    4.958263   7.393013   7.736934   5.979073   3.130763
    28  H    4.824867   5.853788   6.323732   5.694774   2.526737
    29  C    2.427652  10.123863  10.483943   2.765355   4.293329
    30  H    2.757329  10.348412  10.796565   2.800380   4.522235
    31  H    3.304262  10.705441  11.019301   3.817655   4.796386
    32  H    2.767874  10.578035  10.909668   2.803263   4.978953
    33  O    3.391522   7.252400   7.419529   4.612644   2.256012
                   21         22         23         24         25
    21  H    0.000000
    22  N    3.715125   0.000000
    23  H    3.614186   1.012777   0.000000
    24  C    2.027114   3.210792   2.572307   0.000000
    25  C    2.524991   4.509766   3.877374   1.492152   0.000000
    26  H    3.279420   5.274669   4.534862   2.109896   1.090019
    27  H    3.298078   4.618916   3.954499   2.112645   1.089687
    28  H    2.191458   4.973281   4.519465   2.166238   1.087765
    29  C    4.963914   1.443927   2.142327   4.496014   5.655410
    30  H    5.005448   2.102189   2.861311   4.841563   5.834223
    31  H    5.532291   2.068889   2.313152   4.698001   5.756327
    32  H    5.663686   2.100513   2.867830   5.304259   6.568188
    33  O    3.143304   2.959301   2.057268   1.233175   2.379972
                   26         27         28         29         30
    26  H    0.000000
    27  H    1.756137   0.000000
    28  H    1.775683   1.776871   0.000000
    29  C    6.475558   5.556243   6.108533   0.000000
    30  H    6.765197   5.668892   6.133516   1.090661   0.000000
    31  H    6.512174   5.494038   6.346368   1.085789   1.767746
    32  H    7.342454   6.554910   7.012871   1.090650   1.765588
    33  O    2.687167   2.680056   3.284222   4.173987   4.756093
                   31         32         33
    31  H    0.000000
    32  H    1.768189   0.000000
    33  O    4.177680   4.917951   0.000000
 Stoichiometry    C12H16N2O3
 Framework group  C1[X(C12H16N2O3)]
 Deg. of freedom    93
 Full point group                 C1      NOp   1
 Largest Abelian subgroup         C1      NOp   1
 Largest concise Abelian subgroup C1      NOp   1
                         Standard orientation:                         
 ---------------------------------------------------------------------
 Center     Atomic      Atomic             Coordinates (Angstroms)
 Number     Number       Type             X           Y           Z
 ---------------------------------------------------------------------
      1          6           0       -3.231072   -0.165929    1.232138
      2          6           0       -1.944075   -0.670325    1.261909
      3          6           0       -1.303942   -1.087766    0.100281
      4          6           0       -1.997297   -0.987938   -1.099301
      5          6           0       -3.285866   -0.485436   -1.147815
      6          6           0       -3.903221   -0.070515    0.021647
      7          1           0       -3.725347    0.156109    2.141690
      8          1           0       -1.421618   -0.742566    2.210056
      9          1           0       -1.515690   -1.308797   -2.016816
     10          1           0       -3.822521   -0.410317   -2.085053
     11          6           0        0.105192   -1.593234    0.143381
     12          1           0        0.242591   -2.308231    0.956346
     13          1           0        0.317230   -2.128708   -0.785147
     14          6           0        1.149635   -0.494144    0.313933
     15          1           0        1.174468   -0.192023    1.366198
     16          6           0        2.556133   -0.986052   -0.030274
     17          8           0       -5.171027    0.421397   -0.067904
     18          1           0       -5.475821    0.680057    0.809089
     19          8           0        2.770720   -2.088900   -0.525989
     20          7           0        0.795212    0.702535   -0.430722
     21          1           0        0.219039    0.592782   -1.252470
     22          7           0        3.532762   -0.124271    0.266485
     23          1           0        3.272864    0.766312    0.672727
     24          6           0        1.096251    1.946426   -0.024733
     25          6           0        0.542478    3.063511   -0.844474
     26          1           0       -0.084235    3.685793   -0.205617
     27          1           0        1.366506    3.684280   -1.195245
     28          1           0       -0.041079    2.722874   -1.696917
     29          6           0        4.917445   -0.422645   -0.013787
     30          1           0        5.077214   -0.599789   -1.078040
     31          1           0        5.528333    0.420981    0.292888
     32          1           0        5.247442   -1.308569    0.530050
     33          8           0        1.792162    2.163283    0.969954
 ---------------------------------------------------------------------
 Rotational constants (GHZ):      0.8769306      0.2487092      0.2153505
 Leave Link  202 at Tue Jun 24 17:11:07 2014, MaxMem=  4294967296 cpu:         1.2
 (Enter /home/ztw1e12/g09/l301.exe)
 Standard basis: CC-pVTZ (5D, 7F)
 Converting basis for Fermi contact spin-spin IFCMod=1.
 AO basis functions are being uncontracted.
 Ernie: Thresh=  0.10000D-02 Tol=  0.10000D-05 Strict=F.
 There are  1305 symmetry adapted cartesian basis functions of A   symmetry.
 There are  1204 symmetry adapted basis functions of A   symmetry.
  1204 basis functions,  1305 primitive gaussians,  1305 cartesian basis functions
    63 alpha electrons       63 beta electrons
       nuclear repulsion energy      1210.6147188715 Hartrees.
 IExCor= 4235 DFT=T Ex+Corr=M06 ExCW=0 ScaHFX=  0.270000
 ScaDFX=  1.000000  1.000000  1.000000  1.000000 ScalE2=  1.000000  1.000000
 IRadAn= 199590 IRanWt=     -1 IRanGd=            0 ICorTp=0 IEmpDi=  4
 NAtoms=   33 NActive=   33 NUniq=   33 SFac= 1.00D+00 NAtFMM=   60 NAOKFM=F Big=F
 Integral buffers will be    131072 words long.
 Raffenetti 2 integral format.
 Two-electron integral symmetry is turned on.
 Leave Link  301 at Tue Jun 24 17:11:07 2014, MaxMem=  4294967296 cpu:         5.1
 (Enter /home/ztw1e12/g09/l302.exe)
 NPDir=0 NMtPBC=     1 NCelOv=     1 NCel=       1 NClECP=     1 NCelD=      1
         NCelK=      1 NCelE2=     1 NClLst=     1 CellRange=     0.0.
 One-electron integrals computed using PRISM.
 NBasis=  1204 RedAO= T EigKep=  2.53D-05  NBF=  1204
 NBsUse=  1068 1.00D-06 EigRej=  6.96D-15 NBFU=  1068
 Precomputing XC quadrature grid using
 IXCGrd= 4 IRadAn=      199590 IRanWt=          -1 IRanGd=           0 AccXCQ= 0.00D+00.
 Generated NRdTot=       0 NPtTot=           0 NUsed=           0 NTot=          32
 NSgBfM=  1012  1012  1012  1012  1012 MxSgAt=    33 MxSgA2=    33.
 Leave Link  302 at Tue Jun 24 17:11:11 2014, MaxMem=  4294967296 cpu:        63.1
 (Enter /home/ztw1e12/g09/l308.exe)
 Leave Link  308 at Tue Jun 24 17:11:12 2014, MaxMem=  4294967296 cpu:         7.2
 (Enter /home/ztw1e12/g09/l303.exe)
 DipDrv:  MaxL=1.
 Leave Link  303 at Tue Jun 24 17:11:13 2014, MaxMem=  4294967296 cpu:         4.2
 (Enter /home/ztw1e12/g09/l401.exe)
 ExpMin= 1.03D-01 ExpMax= 1.38D+05 ExpMxC= 1.38D+05 IAcc=4 IRadAn=    199590 AccDes= 0.00D+00
 Harris functional with IExCor= 1009 and IRadAn=  199590 diagonalized for initial guess.
 HarFok:  IExCor= 1009 AccDes= 0.00D+00 IRadAn=    199590 IDoV= 1 UseB2=F ITyADJ=14
 ICtDFT=  3500011 ScaDFX=  1.000000  1.000000  1.000000  1.000000
 FoFCou: FMM=F IPFlag=           0 FMFlag=      100000 FMFlg1=           0
         NFxFlg=           0 DoJE=T BraDBF=F KetDBF=T FulRan=T
         wScrn=  0.000000 ICntrl=     500 IOpCl=  0 I1Cent=   200000004 NGrid=           0
         NMat0=    1 NMatS0=      1 NMatT0=    0 NMatD0=    1 NMtDS0=    0 NMtDT0=    0
 Petite list used in FoFCou.
 Harris En= -801.781232360553    
 JPrj=0 DoOrth=F DoCkMO=F.
 Leave Link  401 at Tue Jun 24 17:11:33 2014, MaxMem=  4294967296 cpu:       300.9
 (Enter /home/ztw1e12/g09/l502.exe)
 Closed shell SCF:
 Using DIIS extrapolation, IDIIS=  1040.
 Integral symmetry usage will be decided dynamically.
 IVT=     5158273 IEndB=     5158273 NGot=  4294967296 MDV=  4291529994
 LenX=  4291529994 LenY=  4289825664
 Requested convergence on RMS density matrix=1.00D-08 within 128 cycles.
 Requested convergence on MAX density matrix=1.00D-06.
 Requested convergence on             energy=1.00D-06.
 No special actions if energy rises.
 Fock matrices will be formed incrementally for  20 cycles.
 Integral accuracy reduced to 1.0D-05 until final iterations.

 Cycle   1  Pass 0  IDiag  1:
 FoFJK:  IHMeth= 1 ICntrl=       0 DoSepK=F KAlg= 0 I1Cent=   0 FoldK=F
 IRaf= 430000000 NMat=   1 IRICut=       1 DoRegI=T DoRafI=F ISym2E= 0.
 FoFCou: FMM=F IPFlag=           0 FMFlag=      100000 FMFlg1=           0
         NFxFlg=           0 DoJE=F BraDBF=F KetDBF=F FulRan=T
         wScrn=  0.000000 ICntrl=       0 IOpCl=  0 I1Cent=           0 NGrid=           0
         NMat0=    1 NMatS0=      1 NMatT0=    0 NMatD0=    1 NMtDS0=    0 NMtDT0=    0
 Symmetry not used in FoFCou.
 E= -801.486807661448    
 DIIS: error= 1.19D-01 at cycle   1 NSaved=   1.
 NSaved= 1 IEnMin= 1 EnMin= -801.486807661448     IErMin= 1 ErrMin= 1.19D-01
 ErrMax= 1.19D-01  0.00D+00 EMaxC= 1.00D-01 BMatC= 1.69D+01 BMatP= 1.69D+01
 IDIUse=3 WtCom= 0.00D+00 WtEn= 1.00D+00
 Coeff-Com:  0.100D+01
 Coeff-En:   0.100D+01
 Coeff:      0.100D+01
 Gap=     0.238 Goal=   None    Shift=    0.000
 GapD=    0.238 DampG=1.000 DampE=0.250 DampFc=0.2500 IDamp=-1.
 Damping current iteration by 2.50D-01
 RMSDP=1.95D-03 MaxDP=2.64D-01              OVMax= 2.43D-01

 Cycle   2  Pass 0  IDiag  1:
 RMSU=  4.86D-04    CP:  1.02D+00
 E= -801.640990866211     Delta-E=       -0.154183204763 Rises=F Damp=T
 DIIS: error= 9.08D-02 at cycle   2 NSaved=   2.
 NSaved= 2 IEnMin= 2 EnMin= -801.640990866211     IErMin= 2 ErrMin= 9.08D-02
 ErrMax= 9.08D-02  0.00D+00 EMaxC= 1.00D-01 BMatC= 1.00D+01 BMatP= 1.69D+01
 IDIUse=3 WtCom= 9.23D-02 WtEn= 9.08D-01
 Coeff-Com: -0.296D+01 0.396D+01
 Coeff-En:   0.000D+00 0.100D+01
 Coeff:     -0.273D+00 0.127D+01
 Gap=     0.258 Goal=   None    Shift=    0.000
 RMSDP=5.85D-04 MaxDP=9.66D-02 DE=-1.54D-01 OVMax= 1.36D-01

 Cycle   3  Pass 0  IDiag  1:
 RMSU=  4.40D-04    CP:  1.05D+00  1.78D+00
 E= -801.882490191517     Delta-E=       -0.241499325306 Rises=F Damp=F
 DIIS: error= 1.06D-02 at cycle   3 NSaved=   3.
 NSaved= 3 IEnMin= 3 EnMin= -801.882490191517     IErMin= 3 ErrMin= 1.06D-02
 ErrMax= 1.06D-02  0.00D+00 EMaxC= 1.00D-01 BMatC= 1.70D-01 BMatP= 1.00D+01
 IDIUse=3 WtCom= 8.94D-01 WtEn= 1.06D-01
 Coeff-Com:  0.475D+00-0.684D+00 0.121D+01
 Coeff-En:   0.000D+00 0.000D+00 0.100D+01
 Coeff:      0.424D+00-0.611D+00 0.119D+01
 Gap=     0.227 Goal=   None    Shift=    0.000
 RMSDP=3.85D-04 MaxDP=5.44D-02 DE=-2.41D-01 OVMax= 9.72D-02

 Cycle   4  Pass 0  IDiag  1:
 RMSU=  3.24D-04    CP:  1.05D+00  1.43D+00  7.37D-01
 E= -801.832927689573     Delta-E=        0.049562501943 Rises=F Damp=F
 DIIS: error= 9.33D-03 at cycle   4 NSaved=   4.
 NSaved= 4 IEnMin= 3 EnMin= -801.882490191517     IErMin= 4 ErrMin= 9.33D-03
 ErrMax= 9.33D-03  0.00D+00 EMaxC= 1.00D-01 BMatC= 1.16D-01 BMatP= 1.70D-01
 IDIUse=3 WtCom= 9.07D-01 WtEn= 9.33D-02
 Coeff-Com:  0.438D+00-0.613D+00 0.643D+00 0.531D+00
 Coeff-En:   0.000D+00 0.000D+00 0.702D+00 0.298D+00
 Coeff:      0.397D+00-0.556D+00 0.649D+00 0.510D+00
 Gap=     0.259 Goal=   None    Shift=    0.000
 RMSDP=2.91D-04 MaxDP=2.86D-02 DE= 4.96D-02 OVMax= 8.23D-02

 Cycle   5  Pass 0  IDiag  1:
 RMSU=  7.84D-05    CP:  1.05D+00  1.42D+00  9.43D-01  1.81D-01
 E= -801.915493403942     Delta-E=       -0.082565714369 Rises=F Damp=F
 DIIS: error= 3.02D-03 at cycle   5 NSaved=   5.
 NSaved= 5 IEnMin= 5 EnMin= -801.915493403942     IErMin= 5 ErrMin= 3.02D-03
 ErrMax= 3.02D-03  0.00D+00 EMaxC= 1.00D-01 BMatC= 1.16D-02 BMatP= 1.16D-01
 IDIUse=3 WtCom= 9.70D-01 WtEn= 3.02D-02
 Coeff-Com:  0.362D-01-0.542D-01 0.419D-01 0.238D+00 0.738D+00
 Coeff-En:   0.000D+00 0.000D+00 0.000D+00 0.617D-01 0.938D+00
 Coeff:      0.351D-01-0.525D-01 0.407D-01 0.233D+00 0.744D+00
 Gap=     0.222 Goal=   None    Shift=    0.000
 RMSDP=1.04D-04 MaxDP=1.31D-02 DE=-8.26D-02 OVMax= 3.38D-02

 Cycle   6  Pass 0  IDiag  1:
 RMSU=  3.79D-05    CP:  1.05D+00  1.48D+00  9.65D-01  4.26D-01  4.01D-01
 E= -801.922111231390     Delta-E=       -0.006617827448 Rises=F Damp=F
 DIIS: error= 1.19D-03 at cycle   6 NSaved=   6.
 NSaved= 6 IEnMin= 6 EnMin= -801.922111231390     IErMin= 6 ErrMin= 1.19D-03
 ErrMax= 1.19D-03  0.00D+00 EMaxC= 1.00D-01 BMatC= 1.46D-03 BMatP= 1.16D-02
 IDIUse=3 WtCom= 9.88D-01 WtEn= 1.19D-02
 Coeff-Com:  0.125D-01-0.180D-01-0.411D-02 0.923D-01 0.367D+00 0.550D+00
 Coeff-En:   0.000D+00 0.000D+00 0.000D+00 0.000D+00 0.840D-01 0.916D+00
 Coeff:      0.124D-01-0.178D-01-0.406D-02 0.912D-01 0.364D+00 0.554D+00
 Gap=     0.223 Goal=   None    Shift=    0.000
 RMSDP=3.67D-05 MaxDP=3.54D-03 DE=-6.62D-03 OVMax= 1.47D-02

 Cycle   7  Pass 0  IDiag  1:
 RMSU=  2.16D-05    CP:  1.05D+00  1.45D+00  9.65D-01  4.25D-01  5.90D-01
                    CP:  4.86D-01
 E= -801.923108555274     Delta-E=       -0.000997323884 Rises=F Damp=F
 DIIS: error= 6.50D-04 at cycle   7 NSaved=   7.
 NSaved= 7 IEnMin= 7 EnMin= -801.923108555274     IErMin= 7 ErrMin= 6.50D-04
 ErrMax= 6.50D-04  0.00D+00 EMaxC= 1.00D-01 BMatC= 2.73D-04 BMatP= 1.46D-03
 IDIUse=3 WtCom= 9.93D-01 WtEn= 6.50D-03
 Coeff-Com:  0.109D-01-0.146D-01-0.246D-02 0.247D-01 0.108D+00 0.326D+00
 Coeff-Com:  0.548D+00
 Coeff-En:   0.000D+00 0.000D+00 0.000D+00 0.000D+00 0.000D+00 0.178D+00
 Coeff-En:   0.822D+00
 Coeff:      0.109D-01-0.145D-01-0.244D-02 0.245D-01 0.107D+00 0.325D+00
 Coeff:      0.549D+00
 Gap=     0.222 Goal=   None    Shift=    0.000
 RMSDP=1.38D-05 MaxDP=1.84D-03 DE=-9.97D-04 OVMax= 6.57D-03

 Cycle   8  Pass 0  IDiag  1:
 RMSU=  6.15D-06    CP:  1.05D+00  1.45D+00  9.71D-01  4.32D-01  5.68D-01
                    CP:  7.32D-01  6.75D-01
 E= -801.923346959753     Delta-E=       -0.000238404479 Rises=F Damp=F
 DIIS: error= 1.36D-04 at cycle   8 NSaved=   8.
 NSaved= 8 IEnMin= 8 EnMin= -801.923346959753     IErMin= 8 ErrMin= 1.36D-04
 ErrMax= 1.36D-04  0.00D+00 EMaxC= 1.00D-01 BMatC= 1.59D-05 BMatP= 2.73D-04
 IDIUse=3 WtCom= 9.99D-01 WtEn= 1.36D-03
 Coeff-Com:  0.595D-02-0.794D-02-0.329D-03 0.808D-02 0.360D-01 0.144D+00
 Coeff-Com:  0.301D+00 0.513D+00
 Coeff-En:   0.000D+00 0.000D+00 0.000D+00 0.000D+00 0.000D+00 0.000D+00
 Coeff-En:   0.000D+00 0.100D+01
 Coeff:      0.594D-02-0.793D-02-0.328D-03 0.807D-02 0.360D-01 0.144D+00
 Coeff:      0.301D+00 0.514D+00
 Gap=     0.222 Goal=   None    Shift=    0.000
 RMSDP=3.48D-06 MaxDP=4.28D-04 DE=-2.38D-04 OVMax= 1.31D-03

 Initial convergence to 1.0D-05 achieved.  Increase integral accuracy.
 Cycle   9  Pass 1  IDiag  1:
 E= -801.923316691580     Delta-E=        0.000030268174 Rises=F Damp=F
 DIIS: error= 2.28D-04 at cycle   1 NSaved=   1.
 NSaved= 1 IEnMin= 1 EnMin= -801.923316691580     IErMin= 1 ErrMin= 2.28D-04
 ErrMax= 2.28D-04  0.00D+00 EMaxC= 1.00D-01 BMatC= 2.11D-05 BMatP= 2.11D-05
 IDIUse=3 WtCom= 9.98D-01 WtEn= 2.28D-03
 Coeff-Com:  0.100D+01
 Coeff-En:   0.100D+01
 Coeff:      0.100D+01
 Gap=     0.222 Goal=   None    Shift=    0.000
 RMSDP=3.48D-06 MaxDP=4.28D-04 DE= 3.03D-05 OVMax= 7.00D-04

 Cycle  10  Pass 1  IDiag  1:
 RMSU=  1.76D-04    CP:  9.94D-01
 E= -801.923328881663     Delta-E=       -0.000012190084 Rises=F Damp=F
 DIIS: error= 4.15D-05 at cycle   2 NSaved=   2.
 NSaved= 2 IEnMin= 2 EnMin= -801.923328881663     IErMin= 2 ErrMin= 4.15D-05
 ErrMax= 4.15D-05  0.00D+00 EMaxC= 1.00D-01 BMatC= 2.89D-06 BMatP= 2.11D-05
 IDIUse=1 WtCom= 1.00D+00 WtEn= 0.00D+00
 Coeff-Com:  0.165D+00 0.835D+00
 Coeff:      0.165D+00 0.835D+00
 Gap=     0.222 Goal=   None    Shift=    0.000
 RMSDP=3.56D-06 MaxDP=4.05D-04 DE=-1.22D-05 OVMax= 8.72D-04

 Cycle  11  Pass 1  IDiag  1:
 RMSU=  2.70D-06    CP:  9.93D-01  1.01D+00
 E= -801.923327305348     Delta-E=        0.000001576316 Rises=F Damp=F
 DIIS: error= 5.90D-05 at cycle   3 NSaved=   3.
 NSaved= 3 IEnMin= 2 EnMin= -801.923328881663     IErMin= 2 ErrMin= 4.15D-05
 ErrMax= 5.90D-05  0.00D+00 EMaxC= 1.00D-01 BMatC= 4.74D-06 BMatP= 2.89D-06
 IDIUse=1 WtCom= 1.00D+00 WtEn= 0.00D+00
 Coeff-Com: -0.236D-03 0.562D+00 0.438D+00
 Coeff:     -0.236D-03 0.562D+00 0.438D+00
 Gap=     0.222 Goal=   None    Shift=    0.000
 RMSDP=1.68D-06 MaxDP=2.49D-04 DE= 1.58D-06 OVMax= 5.60D-04

 Cycle  12  Pass 1  IDiag  1:
 RMSU=  8.61D-07    CP:  9.94D-01  1.02D+00  5.04D-01
 E= -801.923331113796     Delta-E=       -0.000003808449 Rises=F Damp=F
 DIIS: error= 6.55D-06 at cycle   4 NSaved=   4.
 NSaved= 4 IEnMin= 4 EnMin= -801.923331113796     IErMin= 4 ErrMin= 6.55D-06
 ErrMax= 6.55D-06  0.00D+00 EMaxC= 1.00D-01 BMatC= 7.24D-08 BMatP= 2.89D-06
 IDIUse=1 WtCom= 1.00D+00 WtEn= 0.00D+00
 Coeff-Com: -0.275D-02 0.323D+00 0.263D+00 0.417D+00
 Coeff:     -0.275D-02 0.323D+00 0.263D+00 0.417D+00
 Gap=     0.222 Goal=   None    Shift=    0.000
 RMSDP=1.94D-07 MaxDP=2.26D-05 DE=-3.81D-06 OVMax= 5.92D-05

 Cycle  13  Pass 1  IDiag  1:
 RMSU=  1.70D-07    CP:  9.94D-01  1.02D+00  5.35D-01  9.66D-01
 E= -801.923331168537     Delta-E=       -0.000000054740 Rises=F Damp=F
 DIIS: error= 1.12D-06 at cycle   5 NSaved=   5.
 NSaved= 5 IEnMin= 5 EnMin= -801.923331168537     IErMin= 5 ErrMin= 1.12D-06
 ErrMax= 1.12D-06  0.00D+00 EMaxC= 1.00D-01 BMatC= 2.03D-09 BMatP= 7.24D-08
 IDIUse=1 WtCom= 1.00D+00 WtEn= 0.00D+00
 Coeff-Com: -0.120D-02 0.945D-01 0.785D-01 0.190D+00 0.638D+00
 Coeff:     -0.120D-02 0.945D-01 0.785D-01 0.190D+00 0.638D+00
 Gap=     0.222 Goal=   None    Shift=    0.000
 RMSDP=5.13D-08 MaxDP=7.78D-06 DE=-5.47D-08 OVMax= 1.31D-05

 Cycle  14  Pass 1  IDiag  1:
 RMSU=  3.18D-08    CP:  9.94D-01  1.02D+00  5.40D-01  1.01D+00  9.32D-01
 E= -801.923331169740     Delta-E=       -0.000000001204 Rises=F Damp=F
 DIIS: error= 4.92D-07 at cycle   6 NSaved=   6.
 NSaved= 6 IEnMin= 6 EnMin= -801.923331169740     IErMin= 6 ErrMin= 4.92D-07
 ErrMax= 4.92D-07  0.00D+00 EMaxC= 1.00D-01 BMatC= 2.54D-10 BMatP= 2.03D-09
 IDIUse=1 WtCom= 1.00D+00 WtEn= 0.00D+00
 Coeff-Com: -0.466D-03 0.307D-01 0.258D-01 0.753D-01 0.336D+00 0.533D+00
 Coeff:     -0.466D-03 0.307D-01 0.258D-01 0.753D-01 0.336D+00 0.533D+00
 Gap=     0.222 Goal=   None    Shift=    0.000
 RMSDP=2.30D-08 MaxDP=3.64D-06 DE=-1.20D-09 OVMax= 7.00D-06

 Cycle  15  Pass 1  IDiag  1:
 RMSU=  1.60D-08    CP:  9.94D-01  1.02D+00  5.40D-01  1.02D+00  9.79D-01
                    CP:  8.62D-01
 E= -801.923331169852     Delta-E=       -0.000000000111 Rises=F Damp=F
 DIIS: error= 2.41D-07 at cycle   7 NSaved=   7.
 NSaved= 7 IEnMin= 7 EnMin= -801.923331169852     IErMin= 7 ErrMin= 2.41D-07
 ErrMax= 2.41D-07  0.00D+00 EMaxC= 1.00D-01 BMatC= 5.93D-11 BMatP= 2.54D-10
 IDIUse=1 WtCom= 1.00D+00 WtEn= 0.00D+00
 Coeff-Com:  0.340D-04-0.688D-02-0.559D-02-0.556D-02 0.332D-01 0.339D+00
 Coeff-Com:  0.646D+00
 Coeff:      0.340D-04-0.688D-02-0.559D-02-0.556D-02 0.332D-01 0.339D+00
 Coeff:      0.646D+00
 Gap=     0.222 Goal=   None    Shift=    0.000
 RMSDP=1.27D-08 MaxDP=2.33D-06 DE=-1.11D-10 OVMax= 2.61D-06

 Cycle  16  Pass 1  IDiag  1:
 RMSU=  5.55D-09    CP:  9.94D-01  1.02D+00  5.41D-01  1.03D+00  9.92D-01
                    CP:  1.08D+00  9.56D-01
 E= -801.923331169913     Delta-E=       -0.000000000061 Rises=F Damp=F
 DIIS: error= 4.75D-08 at cycle   8 NSaved=   8.
 NSaved= 8 IEnMin= 8 EnMin= -801.923331169913     IErMin= 8 ErrMin= 4.75D-08
 ErrMax= 4.75D-08  0.00D+00 EMaxC= 1.00D-01 BMatC= 2.60D-12 BMatP= 5.93D-11
 IDIUse=1 WtCom= 1.00D+00 WtEn= 0.00D+00
 Coeff-Com:  0.466D-04-0.517D-02-0.425D-02-0.758D-02-0.675D-02 0.112D+00
 Coeff-Com:  0.284D+00 0.627D+00
 Coeff:      0.466D-04-0.517D-02-0.425D-02-0.758D-02-0.675D-02 0.112D+00
 Coeff:      0.284D+00 0.627D+00
 Gap=     0.222 Goal=   None    Shift=    0.000
 RMSDP=3.04D-09 MaxDP=6.93D-07 DE=-6.12D-11 OVMax= 5.19D-07

 SCF Done:  E(RM06) =  -801.923331170     A.U. after   16 cycles
            NFock= 16  Conv=0.30D-08     -V/T= 2.0044
 KE= 7.983767207215D+02 PE=-4.293659334851D+03 EE= 1.482744564088D+03
 Leave Link  502 at Tue Jun 24 17:48:44 2014, MaxMem=  4294967296 cpu:     35597.9
 (Enter /home/ztw1e12/g09/l801.exe)
 DoSCS=F DFT=T ScalE2(SS,OS)=  1.000000  1.000000
 Range of M.O.s used for correlation:     1  1068
 NBasis=  1204 NAE=    63 NBE=    63 NFC=     0 NFV=     0
 NROrb=   1068 NOA=    63 NOB=    63 NVA=  1005 NVB=  1005

 **** Warning!!: The largest alpha MO coefficient is  0.26048080D+02

 Leave Link  801 at Tue Jun 24 17:48:44 2014, MaxMem=  4294967296 cpu:         0.4
 (Enter /home/ztw1e12/g09/l1002.exe)
 Minotr:  Closed shell wavefunction.
          IDoAtm=111111111111111111111111111111111
          Direct CPHF calculation.
          Differentiating once with respect to Fermi-contact.
          Electric field/nuclear overlap derivatives assumed to be zero.
          Requested convergence is 1.0D-10 RMS, and 1.0D-09 maximum.
          Secondary convergence is 1.0D-12 RMS, and 1.0D-12 maximum.
          NewPWx=T KeepS1=F KeepF1=F KeepIn=T MapXYZ=F SortEE=F KeepMc=T.
          MDV=    4294965894 using IRadAn=  199590.
 Using stored XC quadrature information.
          Solving linear equations simultaneously, MaxMat=       0.
          There are    33 degrees of freedom in the 1st order CPHF.  IDoFFX=0 NUNeed=    33.
     33 vectors produced by pass  0 Test12= 1.92D-17 3.03D-11 XBig12= 4.29D+01 2.58D+00.
 AX will form    33 AO Fock derivatives at one time.
 FoFJK:  IHMeth= 1 ICntrl=       0 DoSepK=F KAlg= 0 I1Cent=   0 FoldK=F
 IRaf= 450000000 NMat=  33 IRICut=       1 DoRegI=T DoRafI=F ISym2E=-1.
 FoFCou: FMM=F IPFlag=           0 FMFlag=      100000 FMFlg1=           0
         NFxFlg=           0 DoJE=F BraDBF=F KetDBF=F FulRan=T
         wScrn=  0.000000 ICntrl=       0 IOpCl=  0 I1Cent=           0 NGrid=           0
         NMat0=   33 NMatS0=      0 NMatT0=   33 NMatD0=   33 NMtDS0=    0 NMtDT0=    0
 Petite list used in FoFCou.
     33 vectors produced by pass  1 Test12= 1.92D-17 3.03D-11 XBig12= 3.46D-01 1.89D-01.
     33 vectors produced by pass  2 Test12= 1.92D-17 3.03D-11 XBig12= 1.69D-02 4.55D-02.
     33 vectors produced by pass  3 Test12= 1.92D-17 3.03D-11 XBig12= 3.85D-04 5.89D-03.
     33 vectors produced by pass  4 Test12= 1.92D-17 3.03D-11 XBig12= 7.17D-06 1.04D-03.
     33 vectors produced by pass  5 Test12= 1.92D-17 3.03D-11 XBig12= 1.51D-07 1.57D-04.
     33 vectors produced by pass  6 Test12= 1.92D-17 3.03D-11 XBig12= 4.69D-09 2.40D-05.
     33 vectors produced by pass  7 Test12= 1.92D-17 3.03D-11 XBig12= 1.20D-10 4.33D-06.
     33 vectors produced by pass  8 Test12= 1.92D-17 3.03D-11 XBig12= 4.09D-12 3.45D-07.
     33 vectors produced by pass  9 Test12= 1.92D-17 3.03D-11 XBig12= 6.25D-14 9.50D-08.
     33 vectors produced by pass 10 Test12= 1.92D-17 3.03D-11 XBig12= 2.34D-15 8.38D-09.
     33 vectors produced by pass 11 Test12= 1.92D-17 3.03D-11 XBig12= 2.82D-17 6.50D-10.
      5 vectors produced by pass 12 Test12= 1.92D-17 3.03D-11 XBig12= 2.91D-19 5.45D-11.
 InvSVY:  IOpt=1 It=  1 EMax= 8.88D-15
 Solved reduced A of dimension   401 with    33 vectors.
 Max diff in FC couplings:  IJMax=     5     3 Diff= 4.86D-04 IJMaxR=    26     6 DiffR= 6.95D-01
 Fermi Contact (FC) contribution to K (Hz):
                1             2             3             4             5 
      1  0.123400D+11
      2  0.347783D+02  0.123400D+11
      3 -0.127529D+01  0.330254D+02  0.123400D+11
      4  0.302263D+01  0.378273D+00  0.338141D+02  0.123400D+11
      5  0.164075D+01  0.305007D+01 -0.124705D+01  0.343001D+02  0.123400D+11
      6  0.357246D+02 -0.193744D+00  0.426737D+01  0.194193D+00  0.389869D+02
      7  0.217907D+02 -0.316741D+00  0.936243D+00 -0.207838D+00  0.608641D+00
      8 -0.210426D+00  0.222860D+02 -0.197340D+00  0.102432D+01 -0.289197D+00
      9 -0.282342D+00  0.100111D+01 -0.168801D+00  0.221045D+02 -0.120742D+00
     10  0.670899D+00 -0.225768D+00  0.102736D+01 -0.256194D+00  0.229152D+02
     11  0.181862D+01  0.123724D+01  0.234301D+02  0.171843D+01  0.198919D+01
     12 -0.120725D+00  0.602750D+00 -0.106972D+01  0.697921D+00 -0.392822D-01
     13  0.122079D+00  0.974176D+00 -0.949755D+00  0.952471D+00  0.200740D-01
     14 -0.535650D+00  0.679619D+00 -0.122645D+01  0.689552D+00 -0.430887D+00
     15  0.123826D-01 -0.225470D-01  0.910916D-01 -0.556037D-02  0.137338D-01
     16  0.260134D-02 -0.859906D-01  0.170153D+01 -0.132217D-01  0.415064D-01
     17 -0.750645D+00 -0.111046D+00  0.256125D+00  0.300434D+01  0.116191D+02
     18  0.421355D+00 -0.107874D-01 -0.458274D-01  0.210348D+00  0.114723D+01
     19  0.366603D-01  0.126570D+00  0.269943D+00  0.683438D-02  0.351654D-03
     20  0.448327D-01 -0.306292D-01  0.159388D+01  0.159708D+00 -0.286293D-01
     21 -0.887939D-02  0.101432D-01 -0.320077D-01  0.172056D-02 -0.176922D-02
     22 -0.457188D-01  0.489025D-01  0.982943D-01  0.965415D-01 -0.257443D-01
     23  0.822164D-03 -0.694922D-04  0.146874D-01 -0.107039D-02  0.493720D-03
     24 -0.273448D-02  0.358217D-02 -0.269753D-02  0.129180D-01  0.210771D-02
     25  0.114803D-02 -0.825481D-03  0.184370D-01 -0.618411D-02  0.402059D-02
     26 -0.579371D-04 -0.186729D-03  0.122451D-02 -0.554125D-03 -0.350599D-04
     27 -0.343889D-03  0.542914D-03 -0.138284D-02  0.613602D-03 -0.848419D-04
     28  0.513552D-03 -0.509432D-03  0.116219D-02  0.836829D-03  0.811124D-03
     29 -0.101338D-02  0.285917D-02  0.836746D-01  0.619099D-02 -0.176005D-03
     30  0.103826D-03 -0.439250D-03 -0.144325D-02 -0.447915D-03 -0.449283D-05
     31  0.108278D-03 -0.456690D-04  0.767674D-02 -0.201943D-03  0.291111D-04
     32  0.184807D-03  0.243714D-03 -0.272426D-02 -0.291837D-03  0.284847D-04
     33 -0.300553D-03  0.150318D-01  0.249269D-02  0.140584D-01 -0.549596D-02
                6             7             8             9            10 
      6  0.123400D+11
      7 -0.537192D+00  0.123400D+11
      8  0.120250D+01  0.335097D+00  0.123400D+11
      9  0.120016D+01  0.377897D-01  0.376099D-01  0.123400D+11
     10 -0.714500D+00  0.638998D-01  0.414564D-01  0.342356D+00  0.123400D+11
     11 -0.429640D+00  0.105073D-01  0.628287D+00  0.673576D+00  0.177914D-01
     12  0.127585D+00  0.117241D-01 -0.383103D-01 -0.297970D-01  0.144166D-01
     13  0.218310D-01  0.902295D-02 -0.362579D-02 -0.272259D-01  0.348257D-02
     14  0.497413D+00  0.468697D-01 -0.109048D+00 -0.111739D+00  0.383689D-01
     15 -0.830768D-02 -0.962366D-03  0.453877D-02  0.472934D-02 -0.207249D-02
     16  0.610937D-02  0.420588D-02 -0.144148D-02  0.467486D-02  0.180738D-02
     17 -0.119769D+02  0.563036D+00  0.708726D-01  0.256129D+00  0.706121D+00
     18 -0.660682D+00 -0.134801D-01  0.181056D-02  0.134842D-01  0.127673D-02
     19  0.466168D-03  0.217918D-02  0.513501D-02  0.150107D-03  0.270322D-03
     20  0.101601D-01 -0.124498D-01 -0.760237D-02  0.184698D-01  0.457042D-02
     21  0.394103D-02  0.170536D-02 -0.752953D-04 -0.603146D-02  0.824487D-03
     22  0.452267D-01  0.402354D-02 -0.911835D-02 -0.865291D-02  0.484629D-02
     23 -0.339783D-03  0.107041D-04  0.745282D-04  0.114237D-03 -0.118655D-04
     24  0.106160D-02  0.122600D-03 -0.108063D-02  0.817971D-03 -0.954457D-03
     25 -0.168596D-02 -0.175121D-03  0.347381D-03  0.392364D-03 -0.400464D-03
     26 -0.620389D-04 -0.214435D-04  0.900700D-05 -0.616440D-04 -0.909862D-05
     27  0.434690D-03 -0.142256D-04 -0.152640D-03 -0.109883D-03 -0.161839D-04
     28 -0.568585D-03 -0.111831D-03  0.325035D-04  0.325415D-03 -0.194990D-03
     29  0.344600D-02  0.476349D-03 -0.243960D-03 -0.243886D-03  0.618301D-03
     30 -0.173421D-03 -0.145186D-04  0.535335D-04  0.158800D-04 -0.314036D-04
     31  0.111215D-03  0.220244D-04  0.195741D-04  0.274430D-05  0.198832D-04
     32 -0.142309D-03 -0.223818D-04  0.109385D-03  0.304341D-04 -0.301389D-04
     33  0.473666D-02 -0.514078D-03  0.117519D-02 -0.718707D-03  0.400611D-03
               11            12            13            14            15 
     11  0.123400D+11
     12  0.183613D+02  0.123400D+11
     13  0.178075D+02 -0.869846D+00  0.123400D+11
     14  0.188726D+02 -0.593086D+00 -0.109462D+01  0.123400D+11
     15 -0.796737D+00  0.292402D+00  0.380996D+00  0.186877D+02  0.123400D+11
     16  0.978322D-01 -0.681606D-02  0.626427D+00  0.277896D+02 -0.104932D+01
     17  0.684160D-01  0.456790D-01  0.648186D-02  0.193133D+00 -0.394439D-02
     18  0.113897D-01 -0.463279D-02 -0.815883D-03 -0.208405D-01  0.455659D-03
     19  0.165838D+01  0.336785D-01  0.687696D-01  0.349761D+01  0.316371D+00
     20  0.731524D+00  0.155584D+01  0.131705D+00  0.142265D+02 -0.101243D+01
     21  0.431249D+00 -0.178278D-01 -0.743822D-02  0.241208D+00  0.258390D+00
     22  0.703935D+00 -0.672108D-01 -0.710107D-01  0.110104D+02  0.109088D+00
     23  0.424526D-01  0.652194D-03 -0.347442D-03  0.628249D-01 -0.268200D-01
     24  0.114534D+01  0.728120D-01 -0.542426D-01 -0.496484D+00  0.563147D+00
     25 -0.394873D-01  0.504372D-01  0.778028D-02  0.823427D+00 -0.913428D-01
     26  0.210924D-01  0.355002D-02 -0.117820D-02  0.326005D-01  0.106157D-01
     27 -0.428703D-02 -0.179766D-02 -0.476206D-03  0.668220D-02  0.216915D-01
     28 -0.381987D-02 -0.872017D-04 -0.347980D-04  0.882492D-01 -0.333630D-02
     29  0.318057D+00 -0.899447D-02  0.157729D-02  0.831594D+00 -0.245803D-01
     30 -0.778199D-02 -0.314195D-04  0.100281D-02 -0.645186D-01  0.203496D-01
     31  0.138766D-01 -0.334806D-04  0.162362D-02 -0.198490D-01  0.904143D-03
     32 -0.583251D-02  0.159379D-03 -0.378025D-03 -0.915044D-01  0.190833D-01
     33  0.150027D+00  0.344753D-02  0.756663D-01  0.706782D+00  0.138860D+00
               16            17            18            19            20 
     16  0.123400D+11
     17  0.247057D-02  0.123400D+11
     18 -0.337252D-03  0.199189D+02  0.123400D+11
     19 -0.101099D+02  0.139453D-02 -0.983678D-04  0.123400D+11
     20  0.445427D+00  0.102491D-01 -0.949156D-03  0.602630D+00  0.123400D+11
     21 -0.276075D-01  0.712900D-03 -0.781830D-04 -0.104897D-01  0.314246D+02
     22  0.286609D+02  0.186404D-01 -0.196137D-02  0.613758D+01 -0.199808D+00
     23  0.288087D+00 -0.559069D-04  0.936304D-05  0.525897D+00 -0.341767D-02
     24  0.427345D-01  0.473976D-03 -0.105548D-03  0.226090D-01  0.265656D+02
     25 -0.140235D+00 -0.332580D-03  0.340979D-04  0.286277D-01  0.118227D+02
     26  0.387456D-01  0.129695D-04 -0.109891D-05  0.769471D-03  0.452060D+00
     27  0.887224D-01  0.202985D-03 -0.253684D-04  0.103758D-01  0.408760D+00
     28  0.640542D-03 -0.932210D-04 -0.113706D-05  0.148003D-02  0.376162D+00
     29 -0.556365D+00  0.187192D-02 -0.180291D-03  0.647221D+00 -0.196723D+00
     30  0.253852D+00 -0.859821D-04  0.776496D-05  0.266621D+00  0.136496D+00
     31  0.104735D+01  0.265647D-04 -0.215642D-05  0.170196D+00  0.154610D-02
     32  0.207368D+00 -0.690567D-04  0.770410D-05  0.268222D+00  0.104437D+00
     33  0.387595D+00  0.219704D-02 -0.228877D-03  0.152929D+00  0.503690D+01
               21            22            23            24            25 
     21  0.123400D+11
     22  0.158021D-01  0.123400D+11
     23  0.220057D-02  0.324731D+02  0.123400D+11
     24  0.424207D+00 -0.226938D+00  0.148460D-01  0.123400D+11
     25  0.139242D+00  0.175196D+00 -0.211673D-01  0.273243D+02  0.123400D+11
     26 -0.165884D-01  0.236897D-02 -0.498249D-02 -0.119193D+01  0.179344D+02
     27 -0.150164D-01 -0.106020D-01 -0.104881D-02 -0.118952D+01  0.179342D+02
     28 -0.111315D-01  0.239789D-01 -0.187406D-02 -0.757811D+00  0.174396D+02
     29 -0.381091D-02  0.166758D+02  0.380528D+00 -0.128028D-01 -0.757721D-03
     30  0.648927D-03 -0.641704D+00  0.107371D+00 -0.211217D-02 -0.230483D-03
     31  0.718890D-04 -0.296280D+00  0.295525D+00  0.842636D-03  0.811074D-03
     32  0.168948D-02 -0.624977D+00  0.113609D+00  0.104456D-02  0.684972D-02
     33  0.399327D+00  0.575476D+01 -0.896655D+00 -0.948360D+01  0.414728D+01
               26            27            28            29            30 
     26  0.123400D+11
     27 -0.925723D+00  0.123400D+11
     28 -0.746891D+00 -0.722469D+00  0.123400D+11
     29 -0.115799D-02 -0.136374D-02  0.214158D-03  0.123400D+11
     30 -0.302733D-04  0.208419D-03  0.393130D-03  0.196177D+02  0.123400D+11
     31  0.629599D-03  0.195644D-03  0.115441D-03  0.184424D+02 -0.745719D+00
     32  0.225236D-03  0.500778D-03 -0.145951D-03  0.197344D+02 -0.747848D+00
     33  0.416967D+00  0.367573D+00  0.910654D+00  0.141647D+00  0.224790D-01
               31            32            33 
     31  0.123400D+11
     32 -0.745339D+00  0.123400D+11
     33  0.411100D-01  0.434808D-01  0.123400D+11
 Fermi Contact (FC) contribution to J (Hz):
                1             2             3             4             5 
      1  0.243533D+11
      2  0.686358D+02  0.243533D+11
      3 -0.251681D+01  0.651765D+02  0.243533D+11
      4  0.596523D+01  0.746531D+00  0.667329D+02  0.243533D+11
      5  0.323805D+01  0.601939D+01 -0.246109D+01  0.676920D+02  0.243533D+11
      6  0.705034D+02 -0.382358D+00  0.842176D+01  0.383244D+00  0.769417D+02
      7  0.170989D+03 -0.248544D+01  0.734661D+01 -0.163088D+01  0.477594D+01
      8 -0.165119D+01  0.174876D+03 -0.154851D+01  0.803775D+01 -0.226930D+01
      9 -0.221551D+01  0.785565D+01 -0.132457D+01  0.173452D+03 -0.947448D+00
     10  0.526448D+01 -0.177158D+01  0.806159D+01 -0.201033D+01  0.179813D+03
     11  0.358908D+01  0.244172D+01  0.462398D+02  0.339137D+01  0.392572D+01
     12 -0.947314D+00  0.472972D+01 -0.839402D+01  0.547652D+01 -0.308244D+00
     13  0.957941D+00  0.764427D+01 -0.745263D+01  0.747395D+01  0.157519D+00
     14 -0.105712D+01  0.134124D+01 -0.242042D+01  0.136085D+01 -0.850366D+00
     15  0.971650D-01 -0.176924D+00  0.714787D+00 -0.436317D-01  0.107768D+00
     16  0.513382D-02 -0.169705D+00  0.335802D+01 -0.260934D-01  0.819139D-01
     17  0.798822D+00  0.118173D+00 -0.272563D+00 -0.319716D+01 -0.123648D+02
     18  0.330633D+01 -0.846478D-01 -0.359603D+00  0.165058D+01  0.900217D+01
     19 -0.390131D-01 -0.134693D+00 -0.287268D+00 -0.727301D-02 -0.374223D-03
     20  0.254297D-01 -0.173732D-01  0.904069D+00  0.905886D-01 -0.162389D-01
     21 -0.696757D-01  0.795925D-01 -0.251161D+00  0.135011D-01 -0.138829D-01
     22 -0.259322D-01  0.277381D-01  0.557537D-01  0.547595D-01 -0.146025D-01
     23  0.645144D-02 -0.545299D-03  0.115251D+00 -0.839927D-02  0.387417D-02
     24 -0.539656D-02  0.706950D-02 -0.532364D-02  0.254940D-01  0.415963D-02
     25  0.226566D-02 -0.162911D-02  0.363859D-01 -0.122045D-01  0.793474D-02
     26 -0.454627D-03 -0.146525D-02  0.960859D-02 -0.434817D-02 -0.275112D-03
     27 -0.269846D-02  0.426019D-02 -0.108510D-01  0.481488D-02 -0.665746D-03
     28  0.402979D-02 -0.399746D-02  0.911960D-02  0.656652D-02  0.636481D-02
     29 -0.199993D-02  0.564265D-02  0.165134D+00  0.122181D-01 -0.347350D-03
     30  0.814716D-03 -0.344675D-02 -0.113250D-01 -0.351475D-02 -0.352548D-04
     31  0.849649D-03 -0.358360D-03  0.602386D-01 -0.158463D-02  0.228432D-03
     32  0.145016D-02  0.191240D-02 -0.213770D-01 -0.229002D-02  0.223517D-03
     33  0.319843D-03 -0.159966D-01 -0.265268D-02 -0.149607D-01  0.584870D-02
                6             7             8             9            10 
      6  0.243533D+11
      7 -0.421530D+01  0.385007D+12
      8  0.943592D+01  0.104550D+02  0.385007D+12
      9  0.941757D+01  0.117904D+01  0.117343D+01  0.385007D+12
     10 -0.560661D+01  0.199367D+01  0.129344D+01  0.106815D+02  0.385007D+12
     11 -0.847906D+00  0.824496D-01  0.493011D+01  0.528548D+01  0.139608D+00
     12  0.100115D+01  0.365792D+00 -0.119528D+01 -0.929666D+00  0.449799D+00
     13  0.171306D+00  0.281516D+00 -0.113125D+00 -0.849447D+00  0.108656D+00
     14  0.981657D+00  0.367782D+00 -0.855687D+00 -0.876809D+00  0.301077D+00
     15 -0.651895D-01 -0.300258D-01  0.141609D+00  0.147555D+00 -0.646615D-01
     16  0.120570D-01  0.330031D-01 -0.113112D-01  0.366832D-01  0.141823D-01
     17  0.127456D+02 -0.238236D+01 -0.299882D+00 -0.108375D+01 -0.298779D+01
     18 -0.518431D+01 -0.420580D+00  0.564895D-01  0.420706D+00  0.398339D-01
     19 -0.496087D-03 -0.922071D-02 -0.217276D-01 -0.635143D-03 -0.114381D-02
     20  0.576295D-02 -0.280778D-01 -0.171455D-01  0.416546D-01  0.103076D-01
     21  0.309249D-01  0.532070D-01 -0.234921D-02 -0.188181D+00  0.257240D-01
     22  0.256532D-01  0.907423D-02 -0.205645D-01 -0.195148D-01  0.109298D-01
     23 -0.266624D-02  0.333967D-03  0.232528D-02  0.356418D-02 -0.370202D-03
     24  0.209510D-02  0.962034D-03 -0.847958D-02  0.641854D-02 -0.748953D-02
     25 -0.332728D-02 -0.137416D-02  0.272587D-02  0.307884D-02 -0.314240D-02
     26 -0.486813D-03 -0.669037D-03  0.281018D-03 -0.192329D-02 -0.283877D-03
     27  0.341097D-02 -0.443839D-03 -0.476237D-02 -0.342833D-02 -0.504936D-03
     28 -0.446163D-02 -0.348913D-02  0.101411D-02  0.101529D-01 -0.608368D-02
     29  0.680077D-02  0.373787D-02 -0.191433D-02 -0.191375D-02  0.485175D-02
     30 -0.136082D-02 -0.452980D-03  0.167024D-02  0.495454D-03 -0.979792D-03
     31  0.872693D-03  0.687161D-03  0.610711D-03  0.856220D-04  0.620356D-03
     32 -0.111668D-02 -0.698310D-03  0.341279D-02  0.949544D-03 -0.940334D-03
     33 -0.504067D-02  0.217520D-02 -0.497257D-02  0.304105D-02 -0.169509D-02
               11            12            13            14            15 
     11  0.243533D+11
     12  0.144079D+03  0.385007D+12
     13  0.139733D+03 -0.271391D+02  0.385007D+12
     14  0.372455D+02 -0.465389D+01 -0.858935D+01  0.243533D+11
     15 -0.625191D+01  0.912293D+01  0.118870D+02  0.146641D+03  0.385007D+12
     16  0.193074D+00 -0.534850D-01  0.491551D+01  0.548435D+02 -0.823394D+01
     17 -0.728070D-01 -0.193280D+00 -0.274265D-01 -0.205528D+00  0.166898D-01
     18  0.893738D-01 -0.144543D+00 -0.254555D-01 -0.163533D+00  0.142165D-01
     19 -0.176482D+01 -0.142503D+00 -0.290983D+00 -0.372209D+01 -0.133865D+01
     20  0.414930D+00  0.350885D+01  0.297033D+00  0.806947D+01 -0.228331D+01
     21  0.338397D+01 -0.556226D+00 -0.232072D+00  0.189274D+01  0.806175D+01
     22  0.399281D+00 -0.151580D+00 -0.160149D+00  0.624522D+01  0.246025D+00
     23  0.333121D+00  0.203484D-01 -0.108402D-01  0.492981D+00 -0.836784D+00
     24  0.226035D+01  0.571349D+00 -0.425636D+00 -0.979823D+00  0.441896D+01
     25 -0.779292D-01  0.395776D+00  0.610511D-01  0.162505D+01 -0.716758D+00
     26  0.165510D+00  0.110760D+00 -0.367599D-01  0.255813D+00  0.331210D+00
     27 -0.336399D-01 -0.560869D-01 -0.148576D-01  0.524346D-01  0.676775D+00
     28 -0.299741D-01 -0.272069D-02 -0.108570D-02  0.692483D+00 -0.104092D+00
     29  0.627694D+00 -0.705787D-01  0.123768D-01  0.164117D+01 -0.192879D+00
     30 -0.610645D-01 -0.980286D-03  0.312877D-01 -0.506272D+00  0.634908D+00
     31  0.108889D+00 -0.104459D-02  0.506568D-01 -0.155753D+00  0.282092D-01
     32 -0.457671D-01  0.497261D-02 -0.117944D-01 -0.718026D+00  0.595399D+00
     33 -0.159656D+00 -0.145874D-01 -0.320165D+00 -0.752144D+00 -0.587555D+00
               16            17            18            19            20 
     16  0.243533D+11
     17 -0.262914D-02  0.708114D+10
     18 -0.264639D-02 -0.842821D+02  0.385007D+12
     19  0.107587D+02  0.800233D-03  0.416221D-03  0.708114D+10
     20  0.252652D+00 -0.313477D-02 -0.214062D-02 -0.184318D+00  0.201170D+10
     21 -0.216634D+00 -0.301647D-02 -0.243931D-02  0.443849D-01  0.708714D+02
     22  0.162568D+02 -0.570129D-02 -0.442344D-02 -0.187722D+01 -0.325733D-01
     23  0.226059D+01  0.236558D-03  0.292126D-03 -0.222521D+01 -0.770781D-02
     24  0.843377D-01 -0.504397D-03 -0.828228D-03 -0.240601D-01  0.150683D+02
     25 -0.276756D+00  0.353925D-03  0.267563D-03 -0.304650D-01  0.670597D+01
     26  0.304033D+00 -0.548775D-04 -0.342859D-04 -0.325584D-02  0.101952D+01
     27  0.696196D+00 -0.858886D-03 -0.791494D-03 -0.439028D-01  0.921871D+00
     28  0.502627D-02  0.394444D-03 -0.354763D-04 -0.626243D-02  0.848352D+00
     29 -0.109800D+01 -0.199206D-02 -0.141473D-02 -0.688760D+00 -0.111584D+00
     30  0.199195D+01  0.363814D-03  0.242266D-03 -0.112815D+01  0.307837D+00
     31  0.821846D+01 -0.112402D-03 -0.672803D-04 -0.720145D+00  0.348689D-02
     32  0.162720D+01  0.292198D-03  0.240368D-03 -0.113492D+01  0.235535D+00
     33 -0.412471D+00  0.126074D-02  0.968443D-03  0.877561D-01 -0.154057D+01
               21            22            23            24            25 
     21  0.385007D+12
     22  0.356382D-01  0.201170D+10
     23  0.686578D-01  0.732360D+02  0.385007D+12
     24  0.332871D+01 -0.128722D+00  0.116495D+00  0.243533D+11
     25  0.109262D+01  0.993735D-01 -0.166098D+00  0.539253D+02  0.243533D+11
     26 -0.517556D+00  0.534270D-02 -0.155453D+00 -0.935298D+01  0.140730D+03
     27 -0.468511D+00 -0.239104D-01 -0.327227D-01 -0.933404D+01  0.140728D+03
     28 -0.347303D+00  0.540792D-01 -0.584707D-01 -0.594647D+01  0.136846D+03
     29 -0.299039D-01  0.945870D+01  0.298597D+01 -0.252666D-01 -0.149538D-02
     30  0.202465D-01 -0.144723D+01  0.334998D+01 -0.165740D-01 -0.180857D-02
     31  0.224294D-02 -0.668196D+00  0.922038D+01  0.661209D-02  0.636442D-02
     32  0.527117D-01 -0.140950D+01  0.354458D+01  0.819652D-02  0.537491D-01
     33 -0.168966D+01 -0.176013D+01  0.379399D+01  0.100923D+02 -0.441346D+01
               26            27            28            29            30 
     26  0.385007D+12
     27 -0.288825D+02  0.385007D+12
     28 -0.233030D+02 -0.225410D+02  0.385007D+12
     29 -0.908667D-02 -0.107011D-01  0.168048D-02  0.243533D+11
     30 -0.944526D-03  0.650267D-02  0.122656D-01  0.153938D+03  0.385007D+12
     31  0.196435D-01  0.610408D-02  0.360175D-02  0.144716D+03 -0.232664D+02
     32  0.702737D-02  0.156242D-01 -0.455365D-02  0.154854D+03 -0.233328D+02
     33 -0.176430D+01 -0.155530D+01 -0.385323D+01 -0.150738D+00 -0.951149D-01
               31            32            33 
     31  0.385007D+12
     32 -0.232545D+02  0.385007D+12
     33 -0.173948D+00 -0.183979D+00  0.708114D+10
 End of Minotr F.D. properties file   721 does not exist.
 End of Minotr F.D. properties file   722 does not exist.
 End of Minotr F.D. properties file   788 does not exist.
 Leave Link 1002 at Wed Jun 25 01:47:11 2014, MaxMem=  4294967296 cpu:    458193.6
 (Enter /home/ztw1e12/g09/l601.exe)
 Copying SCF densities to generalized density rwf, IOpCl= 0 IROHF=0.

 **********************************************************************

            Population analysis using the SCF density.

 **********************************************************************

 Orbital symmetries:
       Occupied  (A) (A) (A) (A) (A) (A) (A) (A) (A) (A) (A) (A)
                 (A) (A) (A) (A) (A) (A) (A) (A) (A) (A) (A) (A)
                 (A) (A) (A) (A) (A) (A) (A) (A) (A) (A) (A) (A)
                 (A) (A) (A) (A) (A) (A) (A) (A) (A) (A) (A) (A)
                 (A) (A) (A) (A) (A) (A) (A) (A) (A) (A) (A) (A)
                 (A) (A) (A)
       Virtual   (A) (A) (A) (A) (A) (A) (A) (A) (A) (A) (A) (A)
                 (A) (A) (A) (A) (A) (A) (A) (A) (A) (A) (A) (A)
                 (A) (A) (A) (A) (A) (A) (A) (A) (A) (A) (A) (A)
                 (A) (A) (A) (A) (A) (A) (A) (A) (A) (A) (A) (A)
                 (A) (A) (A) (A) (A) (A) (A) (A) (A) (A) (A) (A)
                 (A) (A) (A) (A) (A) (A) (A) (A) (A) (A) (A) (A)
                 (A) (A) (A) (A) (A) (A) (A) (A) (A) (A) (A) (A)
                 (A) (A) (A) (A) (A) (A) (A) (A) (A) (A) (A) (A)
                 (A) (A) (A) (A) (A) (A) (A) (A) (A) (A) (A) (A)
                 (A) (A) (A) (A) (A) (A) (A) (A) (A) (A) (A) (A)
                 (A) (A) (A) (A) (A) (A) (A) (A) (A) (A) (A) (A)
                 (A) (A) (A) (A) (A) (A) (A) (A) (A) (A) (A) (A)
                 (A) (A) (A) (A) (A) (A) (A) (A) (A) (A) (A) (A)
                 (A) (A) (A) (A) (A) (A) (A) (A) (A) (A) (A) (A)
                 (A) (A) (A) (A) (A) (A) (A) (A) (A) (A) (A) (A)
                 (A) (A) (A) (A) (A) (A) (A) (A) (A) (A) (A) (A)
                 (A) (A) (A) (A) (A) (A) (A) (A) (A) (A) (A) (A)
                 (A) (A) (A) (A) (A) (A) (A) (A) (A) (A) (A) (A)
                 (A) (A) (A) (A) (A) (A) (A) (A) (A) (A) (A) (A)
                 (A) (A) (A) (A) (A) (A) (A) (A) (A) (A) (A) (A)
                 (A) (A) (A) (A) (A) (A) (A) (A) (A) (A) (A) (A)
                 (A) (A) (A) (A) (A) (A) (A) (A) (A) (A) (A) (A)
                 (A) (A) (A) (A) (A) (A) (A) (A) (A) (A) (A) (A)
                 (A) (A) (A) (A) (A) (A) (A) (A) (A) (A) (A) (A)
                 (A) (A) (A) (A) (A) (A) (A) (A) (A) (A) (A) (A)
                 (A) (A) (A) (A) (A) (A) (A) (A) (A) (A) (A) (A)
                 (A) (A) (A) (A) (A) (A) (A) (A) (A) (A) (A) (A)
                 (A) (A) (A) (A) (A) (A) (A) (A) (A) (A) (A) (A)
                 (A) (A) (A) (A) (A) (A) (A) (A) (A) (A) (A) (A)
                 (A) (A) (A) (A) (A) (A) (A) (A) (A) (A) (A) (A)
                 (A) (A) (A) (A) (A) (A) (A) (A) (A) (A) (A) (A)
                 (A) (A) (A) (A) (A) (A) (A) (A) (A) (A) (A) (A)
                 (A) (A) (A) (A) (A) (A) (A) (A) (A) (A) (A) (A)
                 (A) (A) (A) (A) (A) (A) (A) (A) (A) (A) (A) (A)
                 (A) (A) (A) (A) (A) (A) (A) (A) (A) (A) (A) (A)
                 (A) (A) (A) (A) (A) (A) (A) (A) (A) (A) (A) (A)
                 (A) (A) (A) (A) (A) (A) (A) (A) (A) (A) (A) (A)
                 (A) (A) (A) (A) (A) (A) (A) (A) (A) (A) (A) (A)
                 (A) (A) (A) (A) (A) (A) (A) (A) (A) (A) (A) (A)
                 (A) (A) (A) (A) (A) (A) (A) (A) (A) (A) (A) (A)
                 (A) (A) (A) (A) (A) (A) (A) (A) (A) (A) (A) (A)
                 (A) (A) (A) (A) (A) (A) (A) (A) (A) (A) (A) (A)
                 (A) (A) (A) (A) (A) (A) (A) (A) (A) (A) (A) (A)
                 (A) (A) (A) (A) (A) (A) (A) (A) (A) (A) (A) (A)
                 (A) (A) (A) (A) (A) (A) (A) (A) (A) (A) (A) (A)
                 (A) (A) (A) (A) (A) (A) (A) (A) (A) (A) (A) (A)
                 (A) (A) (A) (A) (A) (A) (A) (A) (A) (A) (A) (A)
                 (A) (A) (A) (A) (A) (A) (A) (A) (A) (A) (A) (A)
                 (A) (A) (A) (A) (A) (A) (A) (A) (A) (A) (A) (A)
                 (A) (A) (A) (A) (A) (A) (A) (A) (A) (A) (A) (A)
                 (A) (A) (A) (A) (A) (A) (A) (A) (A) (A) (A) (A)
                 (A) (A) (A) (A) (A) (A) (A) (A) (A) (A) (A) (A)
                 (A) (A) (A) (A) (A) (A) (A) (A) (A) (A) (A) (A)
                 (A) (A) (A) (A) (A) (A) (A) (A) (A) (A) (A) (A)
                 (A) (A) (A) (A) (A) (A) (A) (A) (A) (A) (A) (A)
                 (A) (A) (A) (A) (A) (A) (A) (A) (A) (A) (A) (A)
                 (A) (A) (A) (A) (A) (A) (A) (A) (A) (A) (A) (A)
                 (A) (A) (A) (A) (A) (A) (A) (A) (A) (A) (A) (A)
                 (A) (A) (A) (A) (A) (A) (A) (A) (A) (A) (A) (A)
                 (A) (A) (A) (A) (A) (A) (A) (A) (A) (A) (A) (A)
                 (A) (A) (A) (A) (A) (A) (A) (A) (A) (A) (A) (A)
                 (A) (A) (A) (A) (A) (A) (A) (A) (A) (A) (A) (A)
                 (A) (A) (A) (A) (A) (A) (A) (A) (A) (A) (A) (A)
                 (A) (A) (A) (A) (A) (A) (A) (A) (A) (A) (A) (A)
                 (A) (A) (A) (A) (A) (A) (A) (A) (A) (A) (A) (A)
                 (A) (A) (A) (A) (A) (A) (A) (A) (A) (A) (A) (A)
                 (A) (A) (A) (A) (A) (A) (A) (A) (A) (A) (A) (A)
                 (A) (A) (A) (A) (A) (A) (A) (A) (A) (A) (A) (A)
                 (A) (A) (A) (A) (A) (A) (A) (A) (A) (A) (A) (A)
                 (A) (A) (A) (A) (A) (A) (A) (A) (A) (A) (A) (A)
                 (A) (A) (A) (A) (A) (A) (A) (A) (A) (A) (A) (A)
                 (A) (A) (A) (A) (A) (A) (A) (A) (A) (A) (A) (A)
                 (A) (A) (A) (A) (A) (A) (A) (A) (A) (A) (A) (A)
                 (A) (A) (A) (A) (A) (A) (A) (A) (A) (A) (A) (A)
                 (A) (A) (A) (A) (A) (A) (A) (A) (A) (A) (A) (A)
                 (A) (A) (A) (A) (A) (A) (A) (A) (A) (A) (A) (A)
                 (A) (A) (A) (A) (A) (A) (A) (A) (A) (A) (A) (A)
                 (A) (A) (A) (A) (A) (A) (A) (A) (A) (A) (A) (A)
                 (A) (A) (A) (A) (A) (A) (A) (A) (A) (A) (A) (A)
                 (A) (A) (A) (A) (A) (A) (A) (A) (A) (A) (A) (A)
                 (A) (A) (A) (A) (A) (A) (A) (A) (A) (A) (A) (A)
                 (A) (A) (A) (A) (A) (A) (A) (A) (A) (A) (A) (A)
                 (A) (A) (A) (A) (A) (A) (A) (A) (A) (A) (A) (A)
                 (A) (A) (A) (A) (A) (A) (A) (A) (A)
 The electronic state is 1-A.
 Alpha  occ. eigenvalues --  -19.25178 -19.18552 -19.17255 -14.42922 -14.40527
 Alpha  occ. eigenvalues --  -10.35257 -10.33257 -10.31249 -10.29431 -10.26475
 Alpha  occ. eigenvalues --  -10.25250 -10.25205 -10.25158 -10.25106 -10.25069
 Alpha  occ. eigenvalues --  -10.24829 -10.24585  -1.09503  -1.06585  -1.04907
 Alpha  occ. eigenvalues --   -0.95785  -0.93238  -0.88150  -0.81506  -0.77432
 Alpha  occ. eigenvalues --   -0.77221  -0.74445  -0.71710  -0.66342  -0.64541
 Alpha  occ. eigenvalues --   -0.61557  -0.60704  -0.58630  -0.56840  -0.55214
 Alpha  occ. eigenvalues --   -0.51804  -0.51228  -0.50293  -0.48526  -0.46967
 Alpha  occ. eigenvalues --   -0.46750  -0.45848  -0.45613  -0.44410  -0.43976
 Alpha  occ. eigenvalues --   -0.43434  -0.42786  -0.42473  -0.41727  -0.40879
 Alpha  occ. eigenvalues --   -0.39752  -0.38882  -0.38260  -0.37320  -0.36519
 Alpha  occ. eigenvalues --   -0.35547  -0.35391  -0.30352  -0.28316  -0.27867
 Alpha  occ. eigenvalues --   -0.26954  -0.26001  -0.24234
 Alpha virt. eigenvalues --   -0.01991   0.00021   0.01046   0.01815   0.02418
 Alpha virt. eigenvalues --    0.03596   0.04083   0.04685   0.05522   0.06815
 Alpha virt. eigenvalues --    0.07644   0.08519   0.09104   0.10427   0.10847
 Alpha virt. eigenvalues --    0.11375   0.11925   0.12036   0.13281   0.13687
 Alpha virt. eigenvalues --    0.15273   0.16523   0.17727   0.18483   0.18764
 Alpha virt. eigenvalues --    0.19427   0.20911   0.21952   0.22092   0.23584
 Alpha virt. eigenvalues --    0.23959   0.24036   0.25227   0.25508   0.26196
 Alpha virt. eigenvalues --    0.27112   0.27484   0.28528   0.29026   0.29942
 Alpha virt. eigenvalues --    0.30125   0.30333   0.31665   0.32092   0.32695
 Alpha virt. eigenvalues --    0.32791   0.33501   0.34199   0.34409   0.35125
 Alpha virt. eigenvalues --    0.35297   0.35942   0.36608   0.37113   0.37638
 Alpha virt. eigenvalues --    0.38117   0.38501   0.39014   0.39479   0.39895
 Alpha virt. eigenvalues --    0.40356   0.40715   0.41060   0.41353   0.41980
 Alpha virt. eigenvalues --    0.42086   0.42616   0.43338   0.43477   0.43841
 Alpha virt. eigenvalues --    0.44325   0.44799   0.45376   0.45846   0.46382
 Alpha virt. eigenvalues --    0.46944   0.48243   0.49012   0.49731   0.50290
 Alpha virt. eigenvalues --    0.50458   0.51329   0.52204   0.52871   0.53005
 Alpha virt. eigenvalues --    0.53425   0.54669   0.55632   0.56185   0.56933
 Alpha virt. eigenvalues --    0.58194   0.58675   0.59617   0.60306   0.61295
 Alpha virt. eigenvalues --    0.61938   0.62235   0.63958   0.64182   0.64676
 Alpha virt. eigenvalues --    0.65139   0.65310   0.66431   0.66772   0.68528
 Alpha virt. eigenvalues --    0.68729   0.71120   0.71403   0.72354   0.72458
 Alpha virt. eigenvalues --    0.72859   0.74443   0.74731   0.75484   0.76100
 Alpha virt. eigenvalues --    0.76587   0.77317   0.78691   0.79341   0.79645
 Alpha virt. eigenvalues --    0.80533   0.81032   0.81498   0.81872   0.82623
 Alpha virt. eigenvalues --    0.83133   0.83986   0.85217   0.85865   0.86072
 Alpha virt. eigenvalues --    0.87627   0.88236   0.88583   0.89683   0.91224
 Alpha virt. eigenvalues --    0.91966   0.92603   0.93225   0.94093   0.94480
 Alpha virt. eigenvalues --    0.95402   0.95809   0.96357   0.96822   0.97657
 Alpha virt. eigenvalues --    0.97880   0.98976   0.99590   1.00558   1.01187
 Alpha virt. eigenvalues --    1.01907   1.02498   1.03650   1.04233   1.04858
 Alpha virt. eigenvalues --    1.06067   1.06798   1.07418   1.08175   1.08661
 Alpha virt. eigenvalues --    1.09323   1.10484   1.11772   1.12514   1.13545
 Alpha virt. eigenvalues --    1.13642   1.15379   1.15529   1.16616   1.17137
 Alpha virt. eigenvalues --    1.17545   1.18182   1.19210   1.19952   1.20220
 Alpha virt. eigenvalues --    1.20629   1.21483   1.21627   1.22370   1.22684
 Alpha virt. eigenvalues --    1.23221   1.23423   1.23780   1.24373   1.24627
 Alpha virt. eigenvalues --    1.25540   1.25845   1.26423   1.26859   1.27523
 Alpha virt. eigenvalues --    1.27872   1.28351   1.29133   1.30480   1.31059
 Alpha virt. eigenvalues --    1.31834   1.32589   1.33022   1.33863   1.34339
 Alpha virt. eigenvalues --    1.34702   1.35163   1.35768   1.37476   1.37813
 Alpha virt. eigenvalues --    1.39068   1.39548   1.41054   1.42987   1.46293
 Alpha virt. eigenvalues --    1.46933   1.48204   1.48372   1.49851   1.52371
 Alpha virt. eigenvalues --    1.53202   1.54411   1.55130   1.56044   1.57974
 Alpha virt. eigenvalues --    1.58549   1.59823   1.61643   1.61771   1.63608
 Alpha virt. eigenvalues --    1.64430   1.64697   1.68481   1.69136   1.70954
 Alpha virt. eigenvalues --    1.72675   1.74561   1.77161   1.77618   1.80042
 Alpha virt. eigenvalues --    1.80566   1.82193   1.82653   1.83483   1.84748
 Alpha virt. eigenvalues --    1.85534   1.86804   1.87430   1.89666   1.90942
 Alpha virt. eigenvalues --    1.91580   1.92289   1.93193   1.95361   1.96072
 Alpha virt. eigenvalues --    1.97391   1.99549   2.01317   2.02024   2.02238
 Alpha virt. eigenvalues --    2.04399   2.04854   2.06261   2.07445   2.08256
 Alpha virt. eigenvalues --    2.09001   2.09745   2.10826   2.12264   2.13969
 Alpha virt. eigenvalues --    2.15465   2.16599   2.17484   2.18278   2.19710
 Alpha virt. eigenvalues --    2.21142   2.21891   2.22648   2.23906   2.25185
 Alpha virt. eigenvalues --    2.27485   2.28882   2.29245   2.30831   2.32100
 Alpha virt. eigenvalues --    2.32326   2.34354   2.36373   2.37371   2.38784
 Alpha virt. eigenvalues --    2.39141   2.40176   2.41003   2.43540   2.43905
 Alpha virt. eigenvalues --    2.44408   2.45073   2.45419   2.46907   2.47581
 Alpha virt. eigenvalues --    2.49868   2.51014   2.52156   2.53391   2.53822
 Alpha virt. eigenvalues --    2.55521   2.56065   2.56524   2.58212   2.60244
 Alpha virt. eigenvalues --    2.61870   2.63383   2.65200   2.66418   2.66984
 Alpha virt. eigenvalues --    2.67268   2.68372   2.68940   2.68966   2.70109
 Alpha virt. eigenvalues --    2.70286   2.70877   2.71496   2.72121   2.72462
 Alpha virt. eigenvalues --    2.73196   2.73632   2.74339   2.74731   2.75721
 Alpha virt. eigenvalues --    2.77497   2.78420   2.79103   2.79596   2.80292
 Alpha virt. eigenvalues --    2.80814   2.82065   2.82517   2.83696   2.85802
 Alpha virt. eigenvalues --    2.86446   2.87497   2.88406   2.88757   2.88987
 Alpha virt. eigenvalues --    2.90443   2.91416   2.91837   2.92130   2.93188
 Alpha virt. eigenvalues --    2.93365   2.93567   2.94455   2.95148   2.95883
 Alpha virt. eigenvalues --    2.96165   2.96707   2.97544   2.98459   2.98549
 Alpha virt. eigenvalues --    2.99439   3.00283   3.00829   3.01200   3.01923
 Alpha virt. eigenvalues --    3.02704   3.03178   3.03787   3.04202   3.05455
 Alpha virt. eigenvalues --    3.06004   3.06382   3.07309   3.07399   3.09334
 Alpha virt. eigenvalues --    3.10074   3.10465   3.11708   3.12111   3.13311
 Alpha virt. eigenvalues --    3.13432   3.14588   3.15467   3.16056   3.16937
 Alpha virt. eigenvalues --    3.17503   3.18415   3.18761   3.19917   3.20804
 Alpha virt. eigenvalues --    3.21350   3.22226   3.23477   3.23604   3.25109
 Alpha virt. eigenvalues --    3.25295   3.26178   3.26878   3.27783   3.28044
 Alpha virt. eigenvalues --    3.28597   3.29218   3.29756   3.30040   3.30348
 Alpha virt. eigenvalues --    3.30912   3.32395   3.33180   3.34033   3.34438
 Alpha virt. eigenvalues --    3.34568   3.35482   3.36163   3.38231   3.38753
 Alpha virt. eigenvalues --    3.39988   3.40047   3.40988   3.41762   3.42055
 Alpha virt. eigenvalues --    3.42630   3.43104   3.44560   3.45332   3.46478
 Alpha virt. eigenvalues --    3.46692   3.48153   3.49071   3.49713   3.51164
 Alpha virt. eigenvalues --    3.51663   3.52019   3.53837   3.54644   3.55612
 Alpha virt. eigenvalues --    3.56376   3.58594   3.59522   3.59722   3.61409
 Alpha virt. eigenvalues --    3.62922   3.63055   3.64134   3.65652   3.66695
 Alpha virt. eigenvalues --    3.67514   3.68403   3.69206   3.70234   3.70720
 Alpha virt. eigenvalues --    3.71199   3.72527   3.73292   3.73449   3.73576
 Alpha virt. eigenvalues --    3.75177   3.75427   3.76765   3.77206   3.77344
 Alpha virt. eigenvalues --    3.77617   3.79307   3.80182   3.81076   3.82012
 Alpha virt. eigenvalues --    3.82918   3.83277   3.84022   3.85473   3.85950
 Alpha virt. eigenvalues --    3.86724   3.87433   3.88343   3.88923   3.89916
 Alpha virt. eigenvalues --    3.90624   3.91240   3.92930   3.94808   3.94967
 Alpha virt. eigenvalues --    3.95940   3.96906   3.97882   3.99343   4.00095
 Alpha virt. eigenvalues --    4.00905   4.02736   4.04167   4.05286   4.05675
 Alpha virt. eigenvalues --    4.05788   4.06751   4.07218   4.07597   4.08493
 Alpha virt. eigenvalues --    4.09589   4.10764   4.12367   4.12997   4.13838
 Alpha virt. eigenvalues --    4.14178   4.15810   4.16279   4.17600   4.18357
 Alpha virt. eigenvalues --    4.19208   4.20442   4.20616   4.21435   4.21482
 Alpha virt. eigenvalues --    4.22536   4.23567   4.24837   4.26208   4.26560
 Alpha virt. eigenvalues --    4.27569   4.27664   4.29744   4.30732   4.31427
 Alpha virt. eigenvalues --    4.31886   4.32741   4.34344   4.36359   4.38115
 Alpha virt. eigenvalues --    4.38831   4.41025   4.41979   4.42926   4.44291
 Alpha virt. eigenvalues --    4.45573   4.46218   4.49877   4.50247   4.50735
 Alpha virt. eigenvalues --    4.53695   4.54518   4.56841   4.58191   4.59323
 Alpha virt. eigenvalues --    4.59668   4.61318   4.61537   4.63001   4.63684
 Alpha virt. eigenvalues --    4.64723   4.65279   4.65496   4.66104   4.69014
 Alpha virt. eigenvalues --    4.69617   4.70232   4.70628   4.72410   4.73247
 Alpha virt. eigenvalues --    4.73594   4.76299   4.77516   4.78918   4.80062
 Alpha virt. eigenvalues --    4.81233   4.82056   4.83878   4.84409   4.86309
 Alpha virt. eigenvalues --    4.86798   4.88790   4.89888   4.90474   4.90841
 Alpha virt. eigenvalues --    4.91727   4.93413   4.94204   4.95264   4.96780
 Alpha virt. eigenvalues --    4.97742   4.99040   5.00184   5.01538   5.02759
 Alpha virt. eigenvalues --    5.04401   5.06128   5.06981   5.08173   5.09731
 Alpha virt. eigenvalues --    5.10066   5.10829   5.12232   5.13063   5.15738
 Alpha virt. eigenvalues --    5.16331   5.17700   5.18675   5.19170   5.20678
 Alpha virt. eigenvalues --    5.22449   5.23270   5.24455   5.25258   5.27857
 Alpha virt. eigenvalues --    5.29785   5.32904   5.35265   5.35982   5.37575
 Alpha virt. eigenvalues --    5.40546   5.42042   5.43971   5.45807   5.47450
 Alpha virt. eigenvalues --    5.51620   5.51750   5.52153   5.53898   5.55082
 Alpha virt. eigenvalues --    5.56868   5.57803   5.58691   5.60863   5.62349
 Alpha virt. eigenvalues --    5.62967   5.65134   5.65900   5.66707   5.67482
 Alpha virt. eigenvalues --    5.68280   5.69288   5.71007   5.72909   5.74638
 Alpha virt. eigenvalues --    5.75203   5.76783   5.78255   5.80225   5.81162
 Alpha virt. eigenvalues --    5.82711   5.86828   5.89415   5.91126   5.96469
 Alpha virt. eigenvalues --    5.98606   6.00351   6.05284   6.06645   6.10103
 Alpha virt. eigenvalues --    6.16343   6.17532   6.19371   6.24842   6.26065
 Alpha virt. eigenvalues --    6.45722   6.46414   6.51263   6.55711   6.60234
 Alpha virt. eigenvalues --    6.60565   6.61719   6.62087   6.63753   6.66364
 Alpha virt. eigenvalues --    6.79797   6.79947   6.81240   6.87979   6.88835
 Alpha virt. eigenvalues --    6.90422   6.91259   6.93028   6.93961   7.06235
 Alpha virt. eigenvalues --    7.18032   7.18820   7.22596   7.27600   7.28877
 Alpha virt. eigenvalues --    7.67328   7.99232   8.09232   8.11773   8.12695
 Alpha virt. eigenvalues --    8.16321   8.19701   8.25468   8.35807   8.66711
 Alpha virt. eigenvalues --    8.74396   8.75361   8.77185   8.81385   8.81611
 Alpha virt. eigenvalues --    8.83470   8.83799   8.85007   8.89792   8.92883
 Alpha virt. eigenvalues --    8.93071   8.95047   8.97869   9.00136   9.05322
 Alpha virt. eigenvalues --    9.08429   9.13423   9.16326   9.21866   9.30736
 Alpha virt. eigenvalues --    9.35624   9.40077   9.40654   9.45581   9.48075
 Alpha virt. eigenvalues --    9.57949   9.63296   9.78172   9.81799  10.02522
 Alpha virt. eigenvalues --   10.07082  10.11562  10.11989  10.13525  10.17783
 Alpha virt. eigenvalues --   10.18738  10.19073  10.20653  10.24661  10.28104
[...]
 Alpha virt. eigenvalues --    6.61194   6.61853   6.63850   6.64544   6.73060
 Alpha virt. eigenvalues --    6.77996   6.80364   6.85749   6.86909   6.88104
 Alpha virt. eigenvalues --    6.91888   6.92851   7.07948   7.10031   7.10783
 Alpha virt. eigenvalues --    7.15138   7.19399   7.28580   7.43185   8.62978
 Alpha virt. eigenvalues --    9.54316   9.94675  12.01013  12.12339  12.30064
 Alpha virt. eigenvalues --   12.41248  12.47962  12.78972  12.91570  13.23635
 Alpha virt. eigenvalues --   13.51846  13.54876  13.57920  13.76702  14.00631
 Alpha virt. eigenvalues --   15.55465
          Condensed to atoms (all electrons):
               1          2          3          4          5          6
     1  C    5.408244   0.232714   0.000939  -0.042184  -0.020865   0.303629
     2  C    0.232714   5.364210   0.290868  -0.010004  -0.030273   0.021620
     3  C    0.000939   0.290868   5.502224   0.254790  -0.043515  -0.067110
     4  C   -0.042184  -0.010004   0.254790   5.328145   0.406371  -0.019471
     5  C   -0.020865  -0.030273  -0.043515   0.406371   5.085090   0.388168
     6  C    0.303629   0.021620  -0.067110  -0.019471   0.388168   4.871631
     7  H    0.450870  -0.034099   0.008831  -0.000604   0.003792  -0.073086
     8  H   -0.022620   0.437455  -0.076851   0.006843  -0.001327   0.006846
     9  H   -0.003566   0.009264  -0.095291   0.452884  -0.033697   0.010880
    10  H    0.014194  -0.005909   0.013573  -0.056714   0.451362  -0.077104
    11  C    0.004928  -0.055792   0.139459  -0.030608   0.008104  -0.000949
    12  H    0.000156  -0.006964  -0.045908   0.006982  -0.000392   0.000095
    13  H   -0.000359   0.004931  -0.047161  -0.003777  -0.000397   0.000100
    14  C    0.000853   0.000617  -0.018759  -0.010538   0.000560  -0.000210
    15  H   -0.000287  -0.003478   0.002973   0.000398  -0.000097   0.000013
    16  C   -0.000018   0.001215   0.009416  -0.000312  -0.000070   0.000006
    17  O   -0.090132   0.013542  -0.000632   0.002871  -0.049512   0.392347
    18  H   -0.004848   0.004588  -0.000348  -0.000754   0.002334  -0.043329
    19  O    0.000000  -0.000167   0.006387  -0.000471  -0.000008   0.000000
    20  N    0.000196   0.005045  -0.018458  -0.000478  -0.000092  -0.000106
    21  H   -0.000705   0.001120  -0.000729   0.004626  -0.000252   0.000092
    22  N    0.000000  -0.000037   0.000564  -0.000037   0.000000   0.000000
    23  H   -0.000001  -0.000006  -0.000266   0.000023   0.000000   0.000000
    24  C    0.000280  -0.001380  -0.001613   0.000009   0.000179  -0.000084
    25  C    0.000088   0.000304   0.000086  -0.000239  -0.000018  -0.000007
    26  H    0.000067   0.000004   0.000058  -0.000082  -0.000013   0.000004
    27  H    0.000002   0.000012  -0.000016  -0.000005   0.000003   0.000001
    28  H   -0.000035   0.000014   0.000038   0.000144   0.000331   0.000010
    29  C    0.000000   0.000005  -0.000041   0.000002   0.000000   0.000000
    30  H    0.000000  -0.000001  -0.000011   0.000000   0.000000   0.000000
    31  H    0.000000   0.000000  -0.000002   0.000000   0.000000   0.000000
    32  H    0.000000   0.000001   0.000005   0.000000   0.000000   0.000000
    33  O   -0.000016  -0.000315   0.000083   0.000027   0.000000  -0.000001
               7          8          9         10         11         12
     1  C    0.450870  -0.022620  -0.003566   0.014194   0.004928   0.000156
     2  C   -0.034099   0.437455   0.009264  -0.005909  -0.055792  -0.006964
     3  C    0.008831  -0.076851  -0.095291   0.013573   0.139459  -0.045908
     4  C   -0.000604   0.006843   0.452884  -0.056714  -0.030608   0.006982
     5  C    0.003792  -0.001327  -0.033697   0.451362   0.008104  -0.000392
     6  C   -0.073086   0.006846   0.010880  -0.077104  -0.000949   0.000095
     7  H    0.533323  -0.006687   0.000049  -0.000225  -0.000257  -0.000020
     8  H   -0.006687   0.495227  -0.000185   0.000043   0.001741   0.000168
     9  H    0.000049  -0.000185   0.483307  -0.008723   0.005345   0.000239
    10  H   -0.000225   0.000043  -0.008723   0.535705  -0.000240   0.000013
    11  C   -0.000257   0.001741   0.005345  -0.000240   5.402936   0.441850
    12  H   -0.000020   0.000168   0.000239   0.000013   0.441850   0.476255
    13  H    0.000015   0.000251   0.002011  -0.000056   0.423757  -0.002482
    14  C    0.000036   0.000290  -0.001424   0.000025   0.174527  -0.057996
    15  H    0.000004   0.001602   0.000042  -0.000001   0.002190  -0.003730
    16  C    0.000000   0.000173   0.000043  -0.000001  -0.069885   0.002119
    17  O   -0.004099  -0.000111  -0.000130   0.006222  -0.000005  -0.000001
    18  H    0.004579  -0.000007   0.000043  -0.000937  -0.000006   0.000000
    19  O    0.000000   0.000017  -0.000042   0.000000   0.012752   0.000794
    20  N    0.000003  -0.000467  -0.000091   0.000015  -0.041810   0.004304
    21  H    0.000000   0.000105   0.000930  -0.000072   0.007940   0.000151
    22  N    0.000000  -0.000011  -0.000003   0.000000   0.006293   0.000176
    23  H    0.000000  -0.000013   0.000001   0.000000  -0.000439   0.000019
    24  C    0.000006  -0.000143  -0.000035   0.000005   0.003080   0.000013
    25  C    0.000001  -0.000012   0.000019   0.000005  -0.000481   0.000029
    26  H    0.000000   0.000007  -0.000001   0.000000   0.000082  -0.000003
    27  H    0.000000   0.000000  -0.000002   0.000000  -0.000071  -0.000001
    28  H   -0.000001   0.000007  -0.000013   0.000013  -0.000293   0.000000
    29  C    0.000000   0.000000   0.000000   0.000000  -0.001036   0.000007
    30  H    0.000000   0.000000   0.000000   0.000000  -0.000087   0.000002
    31  H    0.000000   0.000000   0.000000   0.000000  -0.000015  -0.000001
    32  H    0.000000   0.000000   0.000000   0.000000   0.000059  -0.000010
    33  O    0.000000  -0.000026   0.000003   0.000000   0.002294   0.000046
              13         14         15         16         17         18
     1  C   -0.000359   0.000853  -0.000287  -0.000018  -0.090132  -0.004848
     2  C    0.004931   0.000617  -0.003478   0.001215   0.013542   0.004588
     3  C   -0.047161  -0.018759   0.002973   0.009416  -0.000632  -0.000348
     4  C   -0.003777  -0.010538   0.000398  -0.000312   0.002871  -0.000754
     5  C   -0.000397   0.000560  -0.000097  -0.000070  -0.049512   0.002334
     6  C    0.000100  -0.000210   0.000013   0.000006   0.392347  -0.043329
     7  H    0.000015   0.000036   0.000004   0.000000  -0.004099   0.004579
     8  H    0.000251   0.000290   0.001602   0.000173  -0.000111  -0.000007
     9  H    0.002011  -0.001424   0.000042   0.000043  -0.000130   0.000043
    10  H   -0.000056   0.000025  -0.000001  -0.000001   0.006222  -0.000937
    11  C    0.423757   0.174527   0.002190  -0.069885  -0.000005  -0.000006
    12  H   -0.002482  -0.057996  -0.003730   0.002119  -0.000001   0.000000
    13  H    0.434347  -0.060674   0.005200  -0.000290   0.000000   0.000000
    14  C   -0.060674   5.631224   0.376318   0.163426   0.000001   0.000000
    15  H    0.005200   0.376318   0.462812  -0.020885   0.000000   0.000000
    16  C   -0.000290   0.163426  -0.020885   4.518742   0.000000   0.000000
    17  O    0.000000   0.000001   0.000000   0.000000   7.663536   0.359774
    18  H    0.000000   0.000000   0.000000   0.000000   0.359774   0.489840
    19  O    0.022520  -0.117679   0.002142   0.729283   0.000000   0.000000
    20  N   -0.000651   0.181225  -0.052391   0.001156   0.000000   0.000000
    21  H    0.002486  -0.032816   0.006318  -0.000124   0.000003   0.000000
    22  N    0.001458  -0.086364   0.000214   0.471770   0.000000   0.000000
    23  H   -0.000176   0.008100  -0.000992  -0.030849   0.000000   0.000000
    24  C   -0.000964  -0.058150  -0.015580   0.003902   0.000000   0.000000
    25  C   -0.000044   0.010304   0.000932  -0.001230  -0.000001   0.000000
    26  H    0.000007  -0.000383   0.000181   0.000057   0.000000   0.000000
    27  H   -0.000006  -0.000421  -0.000267   0.000063   0.000000   0.000000
    28  H    0.000000   0.000113  -0.000393   0.000210  -0.000002   0.000000
    29  C   -0.000183   0.013745  -0.000706  -0.061990   0.000000   0.000000
    30  H    0.000028   0.001564   0.000126  -0.009194   0.000000   0.000000
    31  H   -0.000005   0.000962  -0.000142   0.006311   0.000000   0.000000
    32  H   -0.000044  -0.001067  -0.000296  -0.002407   0.000000   0.000000
    33  O   -0.000039   0.024497   0.019721  -0.020003   0.000000   0.000000
              19         20         21         22         23         24
     1  C    0.000000   0.000196  -0.000705   0.000000  -0.000001   0.000280
     2  C   -0.000167   0.005045   0.001120  -0.000037  -0.000006  -0.001380
     3  C    0.006387  -0.018458  -0.000729   0.000564  -0.000266  -0.001613
     4  C   -0.000471  -0.000478   0.004626  -0.000037   0.000023   0.000009
     5  C   -0.000008  -0.000092  -0.000252   0.000000   0.000000   0.000179
     6  C    0.000000  -0.000106   0.000092   0.000000   0.000000  -0.000084
     7  H    0.000000   0.000003   0.000000   0.000000   0.000000   0.000006
     8  H    0.000017  -0.000467   0.000105  -0.000011  -0.000013  -0.000143
     9  H   -0.000042  -0.000091   0.000930  -0.000003   0.000001  -0.000035
    10  H    0.000000   0.000015  -0.000072   0.000000   0.000000   0.000005
    11  C    0.012752  -0.041810   0.007940   0.006293  -0.000439   0.003080
    12  H    0.000794   0.004304   0.000151   0.000176   0.000019   0.000013
    13  H    0.022520  -0.000651   0.002486   0.001458  -0.000176  -0.000964
    14  C   -0.117679   0.181225  -0.032816  -0.086364   0.008100  -0.058150
    15  H    0.002142  -0.052391   0.006318   0.000214  -0.000992  -0.015580
    16  C    0.729283   0.001156  -0.000124   0.471770  -0.030849   0.003902
    17  O    0.000000   0.000000   0.000003   0.000000   0.000000   0.000000
    18  H    0.000000   0.000000   0.000000   0.000000   0.000000   0.000000
    19  O    7.836965   0.000993   0.000662  -0.122485   0.003496  -0.000484
    20  N    0.000993   6.562297   0.368633  -0.006780  -0.007206   0.365543
    21  H    0.000662   0.368633   0.494447  -0.000175  -0.000481  -0.019087
    22  N   -0.122485  -0.006780  -0.000175   6.383279   0.381496   0.008785
    23  H    0.003496  -0.007206  -0.000481   0.381496   0.458505  -0.003949
    24  C   -0.000484   0.365543  -0.019087   0.008785  -0.003949   4.576071
    25  C    0.000004  -0.050435  -0.003201  -0.000108   0.001693   0.283846
    26  H    0.000000  -0.001045   0.000781  -0.000004  -0.000055  -0.023535
    27  H   -0.000002  -0.000231  -0.000702   0.000194   0.000020  -0.030829
    28  H   -0.000004   0.010854  -0.001292   0.000055  -0.000202  -0.058765
    29  C    0.008971  -0.000581  -0.000025   0.292394  -0.027693   0.000093
    30  H    0.004765   0.000203   0.000008  -0.046321   0.004143  -0.000474
    31  H    0.001457  -0.000072  -0.000005  -0.026415  -0.007660   0.000065
    32  H    0.004794  -0.000068  -0.000002  -0.048768   0.000868   0.000206
    33  O    0.000024  -0.136836   0.003976  -0.014201   0.037499   0.659208
              25         26         27         28         29         30
     1  C    0.000088   0.000067   0.000002  -0.000035   0.000000   0.000000
     2  C    0.000304   0.000004   0.000012   0.000014   0.000005  -0.000001
     3  C    0.000086   0.000058  -0.000016   0.000038  -0.000041  -0.000011
     4  C   -0.000239  -0.000082  -0.000005   0.000144   0.000002   0.000000
     5  C   -0.000018  -0.000013   0.000003   0.000331   0.000000   0.000000
     6  C   -0.000007   0.000004   0.000001   0.000010   0.000000   0.000000
     7  H    0.000001   0.000000   0.000000  -0.000001   0.000000   0.000000
     8  H   -0.000012   0.000007   0.000000   0.000007   0.000000   0.000000
     9  H    0.000019  -0.000001  -0.000002  -0.000013   0.000000   0.000000
    10  H    0.000005   0.000000   0.000000   0.000013   0.000000   0.000000
    11  C   -0.000481   0.000082  -0.000071  -0.000293  -0.001036  -0.000087
    12  H    0.000029  -0.000003  -0.000001   0.000000   0.000007   0.000002
    13  H   -0.000044   0.000007  -0.000006   0.000000  -0.000183   0.000028
    14  C    0.010304  -0.000383  -0.000421   0.000113   0.013745   0.001564
    15  H    0.000932   0.000181  -0.000267  -0.000393  -0.000706   0.000126
    16  C   -0.001230   0.000057   0.000063   0.000210  -0.061990  -0.009194
    17  O   -0.000001   0.000000   0.000000  -0.000002   0.000000   0.000000
    18  H    0.000000   0.000000   0.000000   0.000000   0.000000   0.000000
    19  O    0.000004   0.000000  -0.000002  -0.000004   0.008971   0.004765
    20  N   -0.050435  -0.001045  -0.000231   0.010854  -0.000581   0.000203
    21  H   -0.003201   0.000781  -0.000702  -0.001292  -0.000025   0.000008
    22  N   -0.000108  -0.000004   0.000194   0.000055   0.292394  -0.046321
    23  H    0.001693  -0.000055   0.000020  -0.000202  -0.027693   0.004143
    24  C    0.283846  -0.023535  -0.030829  -0.058765   0.000093  -0.000474
    25  C    4.944311   0.386882   0.389243   0.404466  -0.000036  -0.000001
    26  H    0.386882   0.568829  -0.026267  -0.025678  -0.000001   0.000000
    27  H    0.389243  -0.026267   0.574793  -0.023944   0.000011  -0.000010
    28  H    0.404466  -0.025678  -0.023944   0.588600   0.000001  -0.000001
    29  C   -0.000036  -0.000001   0.000011   0.000001   4.763850   0.399305
    30  H   -0.000001   0.000000  -0.000010  -0.000001   0.399305   0.623926
    31  H   -0.000011   0.000000   0.000009   0.000000   0.396108  -0.028182
    32  H    0.000001   0.000000   0.000002   0.000000   0.399616  -0.058616
    33  O   -0.057898   0.001531   0.002196   0.003850   0.000098  -0.000020
              31         32         33
     1  C    0.000000   0.000000  -0.000016
     2  C    0.000000   0.000001  -0.000315
     3  C   -0.000002   0.000005   0.000083
     4  C    0.000000   0.000000   0.000027
     5  C    0.000000   0.000000   0.000000
     6  C    0.000000   0.000000  -0.000001
     7  H    0.000000   0.000000   0.000000
     8  H    0.000000   0.000000  -0.000026
     9  H    0.000000   0.000000   0.000003
    10  H    0.000000   0.000000   0.000000
    11  C   -0.000015   0.000059   0.002294
    12  H   -0.000001  -0.000010   0.000046
    13  H   -0.000005  -0.000044  -0.000039
    14  C    0.000962  -0.001067   0.024497
    15  H   -0.000142  -0.000296   0.019721
    16  C    0.006311  -0.002407  -0.020003
    17  O    0.000000   0.000000   0.000000
    18  H    0.000000   0.000000   0.000000
    19  O    0.001457   0.004794   0.000024
    20  N   -0.000072  -0.000068  -0.136836
    21  H   -0.000005  -0.000002   0.003976
    22  N   -0.026415  -0.048768  -0.014201
    23  H   -0.007660   0.000868   0.037499
    24  C    0.000065   0.000206   0.659208
    25  C   -0.000011   0.000001  -0.057898
    26  H    0.000000   0.000000   0.001531
    27  H    0.000009   0.000002   0.002196
    28  H    0.000000   0.000000   0.003850
    29  C    0.396108   0.399616   0.000098
    30  H   -0.028182  -0.058616  -0.000020
    31  H    0.593515  -0.027217   0.000154
    32  H   -0.027217   0.622537  -0.000054
    33  O    0.000154  -0.000054   7.904202
 Mulliken charges:
               1
     1  C   -0.231526
     2  C   -0.239102
     3  C    0.186417
     4  C   -0.287837
     5  C   -0.165765
     6  C    0.286012
     7  H    0.117567
     8  H    0.157688
     9  H    0.178142
    10  H    0.128810
    11  C   -0.435362
    12  H    0.184089
    13  H    0.220199
    14  C   -0.141908
    15  H    0.218063
    16  C    0.309366
    17  O   -0.293674
    18  H    0.189070
    19  O   -0.394683
    20  N   -0.182670
    21  H    0.167391
    22  N   -0.194969
    23  H    0.184123
    24  C    0.313784
    25  C   -0.308490
    26  H    0.118577
    27  H    0.116225
    28  H    0.101918
    29  C   -0.181912
    30  H    0.108846
    31  H    0.091148
    32  H    0.110462
    33  O   -0.429999
 Sum of Mulliken charges =   0.00000
 Mulliken charges with hydrogens summed into heavy atoms:
               1
     1  C   -0.113958
     2  C   -0.081414
     3  C    0.186417
     4  C   -0.109695
     5  C   -0.036955
     6  C    0.286012
    11  C   -0.031074
    14  C    0.076155
    16  C    0.309366
    17  O   -0.104604
    19  O   -0.394683
    20  N   -0.015279
    22  N   -0.010846
    24  C    0.313784
    25  C    0.028231
    29  C    0.128544
    33  O   -0.429999
 Electronic spatial extent (au):  <R**2>=           5073.8246
 Charge=              0.0000 electrons
 Dipole moment (field-independent basis, Debye):
    X=             -2.1414    Y=              2.4144    Z=              0.0872  Tot=              3.2284
 Quadrupole moment (field-independent basis, Debye-Ang):
   XX=            -95.0201   YY=           -108.5901   ZZ=            -94.8667
   XY=              1.7548   XZ=             -7.2071   YZ=             -6.6287
 Traceless Quadrupole moment (field-independent basis, Debye-Ang):
   XX=              4.4722   YY=             -9.0978   ZZ=              4.6256
   XY=              1.7548   XZ=             -7.2071   YZ=             -6.6287
 Octapole moment (field-independent basis, Debye-Ang**2):
  XXX=             28.0748  YYY=             34.2667  ZZZ=             -2.0527  XYY=            -21.8353
  XXY=             36.9473  XXZ=             49.9896  XZZ=            -18.3790  YZZ=             -2.1761
  YYZ=             -7.0955  XYZ=            -25.0944
 Hexadecapole moment (field-independent basis, Debye-Ang**3):
 XXXX=          -4402.8616 YYYY=          -1271.9787 ZZZZ=           -447.0606 XXXY=            -57.8981
 XXXZ=           -230.5835 YYYX=              4.4939 YYYZ=            -42.1446 ZZZX=             -7.7495
 ZZZY=              5.5079 XXYY=          -1107.3627 XXZZ=           -823.2152 YYZZ=           -297.9375
 XXYZ=             16.5973 YYXZ=             -9.3696 ZZXY=            -16.0042
 N-N= 1.210614718872D+03 E-N=-4.291441626615D+03  KE= 7.962013267809D+02
 Calculating spin-rotation constants.
 Leave Link  601 at Wed Jun 25 06:45:17 2014, MaxMem=  4294967296 cpu:        91.6
 (Enter /home/ztw1e12/g09/l9999.exe)

 Test job not archived.
 1\1\GINC-GREEN0617\SP\RM06\Gen\C12H16N2O3\ROOT\25-Jun-2014\0\\#P Geom=
 AllCheck Guess=TCheck SCRF=Check GenChk RM06/ChkBas NMR=ReadFC IOp(3/6
 =22)\\NMR spin-spin scan\\0,1\C,0,3.252649,-0.249526,-1.131815\C,0,1.9
 80947,-0.791674,-1.109134\C,0,1.327723,-1.053438,0.090109\C,0,1.992133
 ,-0.757716,1.273668\C,0,3.265055,-0.214644,1.269828\C,0,3.895752,0.042
 789,0.062817\H,0,3.757311,-0.049539,-2.07023\H,0,1.481169,-1.018048,-2
 .045157\H,0,1.499928,-0.954985,2.220002\H,0,3.779177,0.013407,2.194884
 \C,0,-0.065725,-1.602309,0.097665\H,0,-0.165907,-2.432666,-0.603394\H,
 0,-0.28286,-2.001971,1.091133\C,0,-1.136094,-0.572352,-0.250826\H,0,-1
 .146609,-0.428753,-1.336378\C,0,-2.535603,-1.050921,0.137805\O,0,5.147
 333,0.58078,0.100763\H,0,5.463673,0.717127,-0.799382\O,0,-2.730381,-2.
 075122,0.786748\N,0,-0.830799,0.73082,0.315483\H,0,-0.269617,0.760343,
 1.154228\N,0,-3.528961,-0.272049,-0.299386\H,0,-3.284984,0.556783,-0.8
 27808\C,0,-1.15714,1.89198,-0.27437\C,0,-0.652041,3.133523,0.381346\H,
 0,-0.029096,3.674096,-0.331298\H,0,-1.500177,3.773723,0.622647\H,0,-0.
 077789,2.939494,1.284573\C,0,-4.910617,-0.567984,-0.002107\H,0,-5.0882
 86,-0.591863,1.073721\H,0,-5.537744,0.202588,-0.440135\H,0,-5.204362,-
 1.533708,-0.415156\O,0,-1.837216,1.939348,-1.301976\\Version=EM64L-G09
 RevD.01\State=1-A\HF=-801.869044\RMSD=3.987e-09\Dipole=0.8166101,0.959
 7248,-0.1593193\Quadrupole=3.6250514,-5.2316226,1.6065712,-1.9206858,-
 5.2629831,6.0070419\PG=C01 [X(C12H16N2O3)]\\@


 DEPRESSION IS WAITING FOR YOUR SHIP TO COME IN,
 AND FINDING OUT IT'S THE TITANIC.
 Job cpu time:       3 days  7 hours  4 minutes 52.4 seconds.
 File lengths (MBytes):  RWF=   3656 Int=      0 D2E=      0 Chk=     64 Scr=      8
 Normal termination of Gaussian 09 at Wed Jun 25 06:45:18 2014.
