 Entering Gaussian System, Link 0=g09
 Input=scan_input_31.gjf
 Output=scan_input_31.log
 Initial command:
 /home/ztw1e12/g09/l1.exe "/home/ztw1e12/tyrosine_scan/tyrosine_chi1_scan/Gau-7587.inp" -scrdir="/home/ztw1e12/tyrosine_scan/tyrosine_chi1_scan/"
 Default is to use a total of   8 processors:
                                8 via shared-memory
                                1 via Linda
 Entering Link 1 = /home/ztw1e12/g09/l1.exe PID=      7588.
  
 Copyright (c) 1988,1990,1992,1993,1995,1998,2003,2009,2013,
            Gaussian, Inc.  All Rights Reserved.
  
 This is part of the Gaussian(R) 09 program.  It is based on
 the Gaussian(R) 03 system (copyright 2003, Gaussian, Inc.),
 the Gaussian(R) 98 system (copyright 1998, Gaussian, Inc.),
 the Gaussian(R) 94 system (copyright 1995, Gaussian, Inc.),
 the Gaussian 92(TM) system (copyright 1992, Gaussian, Inc.),
 the Gaussian 90(TM) system (copyright 1990, Gaussian, Inc.),
 the Gaussian 88(TM) system (copyright 1988, Gaussian, Inc.),
 the Gaussian 86(TM) system (copyright 1986, Carnegie Mellon
 University), and the Gaussian 82(TM) system (copyright 1983,
 Carnegie Mellon University). Gaussian is a federally registered
 trademark of Gaussian, Inc.
  
 This software contains proprietary and confidential information,
 including trade secrets, belonging to Gaussian, Inc.
  
 This software is provided under written license and may be
 used, copied, transmitted, or stored only in accord with that
 written license.
  
 The following legend is applicable only to US Government
 contracts under FAR:
  
                    RESTRICTED RIGHTS LEGEND
  
 Use, reproduction and disclosure by the US Government is
 subject to restrictions as set forth in subparagraphs (a)
 and (c) of the Commercial Computer Software - Restricted
 Rights clause in FAR 52.227-19.
  
 Gaussian, Inc.
 340 Quinnipiac St., Bldg. 40, Wallingford CT 06492
  
  
 ---------------------------------------------------------------
 Warning -- This program may not be used in any manner that
 competes with the business of Gaussian, Inc. or will provide
 assistance to any competitor of Gaussian, Inc.  The licensee
 of this program is prohibited from giving any competitor of
 Gaussian, Inc. access to this program.  By using this program,
 the user acknowledges that Gaussian, Inc. is engaged in the
 business of creating and licensing software in the field of
 computational chemistry and represents and warrants to the
 licensee that it is not a competitor of Gaussian, Inc. and that
 it will not use this program in any manner prohibited above.
 ---------------------------------------------------------------
  

 Cite this work as:
 Gaussian 09, Revision D.01,
 M. J. Frisch, G. W. Trucks, H. B. Schlegel, G. E. Scuseria, 
 M. A. Robb, J. R. Cheeseman, G. Scalmani, V. Barone, B. Mennucci, 
 G. A. Petersson, H. Nakatsuji, M. Caricato, X. Li, H. P. Hratchian, 
 A. F. Izmaylov, J. Bloino, G. Zheng, J. L. Sonnenberg, M. Hada, 
 M. Ehara, K. Toyota, R. Fukuda, J. Hasegawa, M. Ishida, T. Nakajima, 
 Y. Honda, O. Kitao, H. Nakai, T. Vreven, J. A. Montgomery, Jr., 
 J. E. Peralta, F. Ogliaro, M. Bearpark, J. J. Heyd, E. Brothers, 
 K. N. Kudin, V. N. Staroverov, T. Keith, R. Kobayashi, J. Normand, 
 K. Raghavachari, A. Rendell, J. C. Burant, S. S. Iyengar, J. Tomasi, 
 M. Cossi, N. Rega, J. M. Millam, M. Klene, J. E. Knox, J. B. Cross, 
 V. Bakken, C. Adamo, J. Jaramillo, R. Gomperts, R. E. Stratmann, 
 O. Yazyev, A. J. Austin, R. Cammi, C. Pomelli, J. W. Ochterski, 
 R. L. Martin, K. Morokuma, V. G. Zakrzewski, G. A. Voth, 
 P. Salvador, J. J. Dannenberg, S. Dapprich, A. D. Daniels, 
 O. Farkas, J. B. Foresman, J. V. Ortiz, J. Cioslowski, 
 and D. J. Fox, Gaussian, Inc., Wallingford CT, 2013.
 
 ******************************************
 Gaussian 09:  EM64L-G09RevD.01 24-Apr-2013
                24-Jun-2014 
 ******************************************
 %Mem=32GB
 %NProcShared=16
 Will use up to   16 processors via shared memory.
 Default route:  MaxDisk=100GB
 ----------------------------------------------------------------------
 #p nmr=(giao,mixed,spinspin) m06/cc-pvtz scf=tight integral=(grid=ultr
 afine)
 ----------------------------------------------------------------------
 1/38=1/1;
 2/12=2,17=6,18=5,40=1/2;
 3/5=16,6=1,10=1100000,11=2,16=1,25=1,30=1,74=-54,75=-5/1,2,8,3;
 4//1;
 5/5=2,32=2,38=5/2;
 8/6=1,10=90,11=11/1;
 10/13=100,45=16,47=3/2;
 6/7=2,8=2,9=2,10=2,28=1/1;
 99/9=1/99;
 Leave Link    1 at Tue Jun 24 19:48:42 2014, MaxMem=  4294967296 cpu:         6.4
 (Enter /home/ztw1e12/g09/l101.exe)
 ------------------
 NMR spin-spin scan
 ------------------
 Symbolic Z-matrix:
 Charge =  0 Multiplicity = 1
 C                     2.19009  -2.62755   1.50406 
 C                     1.55944  -1.39821   1.4724 
 C                     1.53967  -0.62902   0.31455 
 C                     2.16585  -1.1307   -0.8186 
 C                     2.80257  -2.35973  -0.80417 
 C                     2.81538  -3.10858   0.36124 
 H                     2.20607  -3.22263   2.41002 
 H                     1.06862  -1.02375   2.36517 
 H                     2.15782  -0.54399  -1.73074 
 H                     3.29373  -2.74733  -1.68767 
 C                     0.83071   0.69046   0.29209 
 H                     1.122     1.26021   1.17774 
 H                     1.13574   1.28289  -0.5733 
 C                    -0.70043   0.5529    0.29525 
 H                    -0.98213  -0.42053   0.70568 
 C                    -1.28506   1.57145   1.25935 
 O                     3.45613  -4.31151   0.33855 
 H                     3.39987  -4.71826   1.21039 
 O                    -1.18063   1.37915   2.47087 
 N                    -1.21207   0.67024  -1.05256 
 H                    -0.57419   0.92467  -1.792 
 N                    -1.83982   2.66694   0.74438 
 H                    -1.91972   2.74381  -0.25697 
 C                    -2.45754   0.26575  -1.37811 
 C                    -2.82304   0.34162  -2.8231 
 H                    -3.01407  -0.66806  -3.18732 
 H                    -3.74969   0.90542  -2.92359 
 H                    -2.05136   0.8016   -3.43662 
 C                    -2.35716   3.72185   1.58543 
 H                    -1.58068   4.10915   2.24496 
 H                    -2.71655   4.52962   0.95552 
 H                    -3.18297   3.36685   2.20281 
 O                    -3.24574  -0.13719  -0.52685 
 
 NAtoms=     33 NQM=       33 NQMF=       0 NMMI=      0 NMMIF=      0
                NMic=       0 NMicF=      0.
                    Isotopes and Nuclear Properties:
 (Nuclear quadrupole moments (NQMom) in fm**2, nuclear magnetic moments (NMagM)
  in nuclear magnetons)

  Atom         1           2           3           4           5           6           7           8           9          10
 IAtWgt=          12          12          12          12          12          12           1           1           1           1
 AtmWgt=  12.0000000  12.0000000  12.0000000  12.0000000  12.0000000  12.0000000   1.0078250   1.0078250   1.0078250   1.0078250
 NucSpn=           0           0           0           0           0           0           1           1           1           1
 AtZEff=   0.0000000   0.0000000   0.0000000   0.0000000   0.0000000   0.0000000   0.0000000   0.0000000   0.0000000   0.0000000
 NQMom=    0.0000000   0.0000000   0.0000000   0.0000000   0.0000000   0.0000000   0.0000000   0.0000000   0.0000000   0.0000000
 NMagM=    0.0000000   0.0000000   0.0000000   0.0000000   0.0000000   0.0000000   2.7928460   2.7928460   2.7928460   2.7928460
 AtZNuc=   6.0000000   6.0000000   6.0000000   6.0000000   6.0000000   6.0000000   1.0000000   1.0000000   1.0000000   1.0000000

  Atom        11          12          13          14          15          16          17          18          19          20
 IAtWgt=          12           1           1          12           1          12          16           1          16          14
 AtmWgt=  12.0000000   1.0078250   1.0078250  12.0000000   1.0078250  12.0000000  15.9949146   1.0078250  15.9949146  14.0030740
 NucSpn=           0           1           1           0           1           0           0           1           0           2
 AtZEff=   0.0000000   0.0000000   0.0000000   0.0000000   0.0000000   0.0000000   0.0000000   0.0000000   0.0000000   0.0000000
 NQMom=    0.0000000   0.0000000   0.0000000   0.0000000   0.0000000   0.0000000   0.0000000   0.0000000   0.0000000   2.0440000
 NMagM=    0.0000000   2.7928460   2.7928460   0.0000000   2.7928460   0.0000000   0.0000000   2.7928460   0.0000000   0.4037610
 AtZNuc=   6.0000000   1.0000000   1.0000000   6.0000000   1.0000000   6.0000000   8.0000000   1.0000000   8.0000000   7.0000000

  Atom        21          22          23          24          25          26          27          28          29          30
 IAtWgt=           1          14           1          12          12           1           1           1          12           1
 AtmWgt=   1.0078250  14.0030740   1.0078250  12.0000000  12.0000000   1.0078250   1.0078250   1.0078250  12.0000000   1.0078250
 NucSpn=           1           2           1           0           0           1           1           1           0           1
 AtZEff=   0.0000000   0.0000000   0.0000000   0.0000000   0.0000000   0.0000000   0.0000000   0.0000000   0.0000000   0.0000000
 NQMom=    0.0000000   2.0440000   0.0000000   0.0000000   0.0000000   0.0000000   0.0000000   0.0000000   0.0000000   0.0000000
 NMagM=    2.7928460   0.4037610   2.7928460   0.0000000   0.0000000   2.7928460   2.7928460   2.7928460   0.0000000   2.7928460
 AtZNuc=   1.0000000   7.0000000   1.0000000   6.0000000   6.0000000   1.0000000   1.0000000   1.0000000   6.0000000   1.0000000

  Atom        31          32          33
 IAtWgt=           1           1          16
 AtmWgt=   1.0078250   1.0078250  15.9949146
 NucSpn=           1           1           0
 AtZEff=   0.0000000   0.0000000   0.0000000
 NQMom=    0.0000000   0.0000000   0.0000000
 NMagM=    2.7928460   2.7928460   0.0000000
 AtZNuc=   1.0000000   1.0000000   8.0000000
 Leave Link  101 at Tue Jun 24 19:48:42 2014, MaxMem=  4294967296 cpu:         2.1
 (Enter /home/ztw1e12/g09/l202.exe)
                          Input orientation:                          
 ---------------------------------------------------------------------
 Center     Atomic      Atomic             Coordinates (Angstroms)
 Number     Number       Type             X           Y           Z
 ---------------------------------------------------------------------
      1          6           0        2.190085   -2.627548    1.504057
      2          6           0        1.559441   -1.398211    1.472401
      3          6           0        1.539674   -0.629017    0.314546
      4          6           0        2.165845   -1.130703   -0.818601
      5          6           0        2.802572   -2.359730   -0.804174
      6          6           0        2.815383   -3.108580    0.361242
      7          1           0        2.206074   -3.222626    2.410018
      8          1           0        1.068615   -1.023749    2.365173
      9          1           0        2.157825   -0.543989   -1.730739
     10          1           0        3.293734   -2.747333   -1.687673
     11          6           0        0.830709    0.690460    0.292088
     12          1           0        1.121995    1.260209    1.177738
     13          1           0        1.135743    1.282887   -0.573295
     14          6           0       -0.700425    0.552897    0.295252
     15          1           0       -0.982134   -0.420528    0.705684
     16          6           0       -1.285058    1.571450    1.259350
     17          8           0        3.456129   -4.311512    0.338547
     18          1           0        3.399868   -4.718264    1.210387
     19          8           0       -1.180630    1.379150    2.470871
     20          7           0       -1.212068    0.670235   -1.052561
     21          1           0       -0.574190    0.924669   -1.792000
     22          7           0       -1.839820    2.666937    0.744381
     23          1           0       -1.919715    2.743814   -0.256971
     24          6           0       -2.457540    0.265750   -1.378106
     25          6           0       -2.823044    0.341620   -2.823100
     26          1           0       -3.014074   -0.668063   -3.187317
     27          1           0       -3.749689    0.905420   -2.923585
     28          1           0       -2.051358    0.801600   -3.436622
     29          6           0       -2.357162    3.721845    1.585431
     30          1           0       -1.580678    4.109152    2.244964
     31          1           0       -2.716553    4.529622    0.955522
     32          1           0       -3.182966    3.366854    2.202812
     33          8           0       -3.245744   -0.137185   -0.526851
 ---------------------------------------------------------------------
                    Distance matrix (angstroms):
                    1          2          3          4          5
     1  C    0.000000
     2  C    1.382021   0.000000
     3  C    2.414974   1.390208   0.000000
     4  C    2.763308   2.384948   1.388453   0.000000
     5  C    2.403081   2.766349   2.416984   1.384246   0.000000
     6  C    1.388674   2.395293   2.788879   2.392891   1.385328
     7  H    1.084038   2.150756   3.400279   3.847303   3.381040
     8  H    2.138080   1.085437   2.140743   3.369239   3.851780
     9  H    3.847878   3.368659   2.138348   1.084571   2.138022
    10  H    3.379280   3.848892   3.401892   2.154278   1.082611
    11  C    3.784964   2.507336   1.498050   2.516516   3.793902
    12  H    4.044991   2.710237   2.118663   3.285035   4.456038
    13  H    4.551761   3.398923   2.146345   2.635660   4.012516
    14  C    4.464470   3.209283   2.532851   3.505807   4.686483
    15  H    3.946050   2.829014   2.560463   3.568973   4.512668
    16  C    5.456014   4.117700   3.703218   4.850592   6.034984
    17  O    2.407699   3.656552   4.151403   3.622343   2.354230
    18  H    2.433292   3.805072   4.580916   4.302348   3.158782
    19  O    5.324479   4.027240   4.010302   5.321549   6.369540
    20  N    5.383894   4.281958   3.336034   3.835155   5.035843
    21  H    5.578840   4.539214   3.364505   3.560878   4.813065
    22  N    6.696926   5.348871   4.740153   5.736753   7.015498
    23  H    6.988791   5.679051   4.865182   5.658543   6.974639
    24  C    6.186958   5.199067   4.432087   4.861977   5.906888
    25  C    7.257528   6.378441   5.460794   5.574474   6.559033
    26  H    7.275427   6.569865   5.744666   5.714579   6.509568
    27  H    8.207728   7.267618   6.388846   6.600780   7.621367
    28  H    7.359294   6.478854   5.386412   5.326596   6.362737
    29  C    7.810177   6.447288   5.977498   7.055791   8.325781
    30  H    7.755690   6.386568   5.992775   7.132878   8.387882
    31  H    8.694888   7.327380   6.718473   7.682747   9.001136
    32  H    8.080272   6.762379   6.468065   7.613589   8.812627
    33  O    6.314644   5.355091   4.883654   5.509763   6.449709
                    6          7          8          9         10
     6  C    0.000000
     7  H    2.140502   0.000000
     8  H    3.378381   2.476062   0.000000
     9  H    3.374299   4.931865   4.265330   0.000000
    10  H    2.134800   4.266143   4.934314   2.479288   0.000000
    11  C    4.286772   4.657199   2.700517   2.716050   4.669515
    12  H    4.756106   4.773840   2.574746   3.575935   5.383997
    13  H    4.793697   5.508667   3.736264   2.392029   4.705469
    14  C    5.076581   5.212921   3.146409   3.671157   5.547686
    15  H    4.665340   4.573967   2.706169   3.976272   5.424502
    16  C    6.286724   6.041126   3.673919   5.026844   6.949976
    17  O    1.363127   2.653168   4.540575   4.490186   2.564877
    18  H    1.911479   2.258582   4.518596   5.255232   3.506364
    19  O    6.368546   5.714001   3.293053   5.700638   7.371654
    20  N    5.700758   6.231173   4.444322   3.645606   5.690816
    21  H    5.691463   6.525862   4.876190   3.102356   5.334353
    22  N    7.427941   7.336931   4.970626   5.693631   7.847457
    23  H    7.553400   7.728737   5.477252   5.441321   7.705819
    24  C    6.497319   6.947514   5.301765   4.699109   6.500127
    25  C    7.337286   8.085877   6.627776   5.175578   6.945920
    26  H    7.247825   8.068822   6.901087   5.374528   6.808872
    27  H    8.366747   8.997733   7.410041   6.198580   8.029937
    28  H    7.307424   8.276673   6.835712   4.736863   6.650094
    29  C    8.654973   8.350374   5.904626   7.041266   9.192176
    30  H    8.658488   8.253587   5.777532   7.171774   9.286383
    31  H    9.449742   9.297589   6.866916   7.531075   9.801230
    32  H    9.016807   8.515042   6.113894   7.700102   9.719403
    33  O    6.808462   6.918632   5.269107   5.550981   7.136186
                   11         12         13         14         15
    11  C    0.000000
    12  H    1.092629   0.000000
    13  H    1.092201   1.751234   0.000000
    14  C    1.537304   2.144828   2.158419   0.000000
    15  H    2.166046   2.734058   3.003800   1.093330   0.000000
    16  C    2.487611   2.428464   3.049940   1.519451   2.089566
    17  O    5.649311   6.098893   6.124781   6.398538   5.913774
    18  H    6.057899   6.397805   6.657447   6.740550   6.158506
    19  O    3.044154   2.643562   3.826460   2.376259   2.528661
    20  N    2.445696   3.281791   2.473308   1.446425   2.081840
    21  H    2.524286   3.436419   2.130125   2.123857   2.866077
    22  N    3.353022   3.307420   3.536360   2.443175   3.204616
    23  H    3.475998   3.675796   3.401499   2.567438   3.437852
    24  C    3.712480   4.509363   3.820206   2.443365   2.643857
    25  C    4.814145   5.693316   4.649688   3.778130   4.052423
    26  H    5.360429   6.314983   5.278286   4.355686   4.398353
    27  H    5.600608   6.378090   5.434500   4.447830   4.752798
    28  H    4.714015   5.618969   4.311368   3.976651   4.449217
    29  C    4.585254   4.281402   4.775877   3.801522   4.452405
    30  H    4.616922   4.069384   4.827971   4.150081   4.821373
    31  H    5.269002   5.047068   5.264860   4.507224   5.251154
    32  H    5.188790   4.901165   5.540843   4.209531   4.629181
    33  O    4.239472   4.892390   4.606104   2.762375   2.592944
                   16         17         18         19         20
    16  C    0.000000
    17  O    7.611568   0.000000
    18  H    7.842922   0.963700   0.000000
    19  O    1.231125   7.643950   7.729699   0.000000
    20  N    2.482428   6.967428   7.444918   3.594179   0.000000
    21  H    3.199124   6.942643   7.526630   4.329710   1.009156
    22  N    1.331558   8.769865   9.067121   2.252486   2.758603
    23  H    2.019024   8.889992   9.280825   3.138419   2.330978
    24  C    3.167924   7.672660   8.114796   4.205328   1.349366
    25  C    4.532580   8.430638   8.977532   5.639160   2.416204
    26  H    5.270461   8.220095   8.768271   6.290285   3.097652
    27  H    4.900505   9.475320   9.991582   5.993717   3.161576
    28  H    4.819962   8.410008   9.043199   5.999184   2.530891
    29  C    2.424858   9.994193  10.223478   2.767029   4.193157
    30  H    2.738386   9.995571  10.188202   2.768390   4.778671
    31  H    3.300344  10.800385  11.090490   3.818483   4.603340
    32  H    2.777706  10.320386  10.473192   2.834109   4.664080
    33  O    3.155034   7.942860   8.256418   3.943387   2.250364
                   21         22         23         24         25
    21  H    0.000000
    22  N    3.327243   0.000000
    23  H    2.734235   1.007472   0.000000
    24  C    2.037766   3.263775   2.772544   0.000000
    25  C    2.541743   4.370440   3.629264   1.492433   0.000000
    26  H    3.230594   5.287660   4.628764   2.110683   1.090232
    27  H    3.371150   4.494943   3.720125   2.113606   1.089329
    28  H    2.214035   4.583123   3.728231   2.165550   1.087883
    29  C    4.733944   1.444936   2.131279   4.553814   5.574775
    30  H    5.239373   2.097353   2.870326   5.354182   6.436074
    31  H    5.013410   2.069502   2.300913   4.867598   5.641692
    32  H    5.359898   2.102605   2.834522   4.792292   5.877191
    33  O    3.140913   3.384635   3.182977   1.228111   2.383420
                   26         27         28         29         30
    26  H    0.000000
    27  H    1.756853   0.000000
    28  H    1.774510   1.777165   0.000000
    29  C    6.517818   5.495690   5.817419   0.000000
    30  H    7.374692   6.456191   6.591044   1.089916   0.000000
    31  H    6.653387   5.408297   5.799272   1.085565   1.769087
    32  H    6.735174   5.714873   6.297958   1.090472   1.766383
    33  O    2.722789   2.661826   3.282475   4.488143   5.337301
                   31         32         33
    31  H    0.000000
    32  H    1.767853   0.000000
    33  O    4.925095   4.442217   0.000000
 Stoichiometry    C12H16N2O3
 Framework group  C1[X(C12H16N2O3)]
 Deg. of freedom    93
 Full point group                 C1      NOp   1
 Largest Abelian subgroup         C1      NOp   1
 Largest concise Abelian subgroup C1      NOp   1
                         Standard orientation:                         
 ---------------------------------------------------------------------
 Center     Atomic      Atomic             Coordinates (Angstroms)
 Number     Number       Type             X           Y           Z
 ---------------------------------------------------------------------
      1          6           0       -3.374127   -0.991779    0.802916
      2          6           0       -2.071373   -1.207098    0.394930
      3          6           0       -1.500644   -0.448848   -0.620946
      4          6           0       -2.272120    0.540918   -1.215075
      5          6           0       -3.578658    0.769522   -0.819052
      6          6           0       -4.130559   -0.000501    0.191693
      7          1           0       -3.816424   -1.587626    1.593156
      8          1           0       -1.479651   -1.980310    0.874702
      9          1           0       -1.841203    1.142768   -2.007780
     10          1           0       -4.179870    1.539077   -1.286360
     11          6           0       -0.079326   -0.680403   -1.033733
     12          1           0        0.077881   -1.753910   -1.162981
     13          1           0        0.126732   -0.217008   -2.001053
     14          6           0        0.939506   -0.169555   -0.002074
     15          1           0        0.466338   -0.102781    0.981300
     16          6           0        2.039573   -1.205209    0.159186
     17          8           0       -5.421198    0.250493    0.551370
     18          1           0       -5.680910   -0.359842    1.250483
     19          8           0        1.801758   -2.240707    0.781163
     20          7           0        1.425346    1.136700   -0.389119
     21          1           0        1.154387    1.507150   -1.287864
     22          7           0        3.207269   -0.968650   -0.435433
     23          1           0        3.342860   -0.085707   -0.901292
     24          6           0        2.061468    1.946013    0.483320
     25          6           0        2.415002    3.308529   -0.012584
     26          1           0        1.870176    4.045904    0.577373
     27          1           0        3.478066    3.479409    0.152747
     28          1           0        2.184661    3.454241   -1.065770
     29          6           0        4.286393   -1.928741   -0.396002
     30          1           0        3.971231   -2.885024   -0.813273
     31          1           0        5.117482   -1.548061   -0.981513
     32          1           0        4.628020   -2.098569    0.625556
     33          8           0        2.337080    1.574822    1.621087
 ---------------------------------------------------------------------
 Rotational constants (GHZ):      0.7733637      0.2373570      0.2023130
 Leave Link  202 at Tue Jun 24 19:48:42 2014, MaxMem=  4294967296 cpu:         1.9
 (Enter /home/ztw1e12/g09/l301.exe)
 Standard basis: CC-pVTZ (5D, 7F)
 Converting basis for Fermi contact spin-spin IFCMod=1.
 AO basis functions are being uncontracted.
 Ernie: Thresh=  0.10000D-02 Tol=  0.10000D-05 Strict=F.
 There are  1305 symmetry adapted cartesian basis functions of A   symmetry.
 There are  1204 symmetry adapted basis functions of A   symmetry.
  1204 basis functions,  1305 primitive gaussians,  1305 cartesian basis functions
    63 alpha electrons       63 beta electrons
       nuclear repulsion energy      1193.9268590566 Hartrees.
 IExCor= 4235 DFT=T Ex+Corr=M06 ExCW=0 ScaHFX=  0.270000
 ScaDFX=  1.000000  1.000000  1.000000  1.000000 ScalE2=  1.000000  1.000000
 IRadAn= 199590 IRanWt=     -1 IRanGd=            0 ICorTp=0 IEmpDi=  4
 NAtoms=   33 NActive=   33 NUniq=   33 SFac= 1.00D+00 NAtFMM=   60 NAOKFM=F Big=F
 Integral buffers will be    131072 words long.
 Raffenetti 2 integral format.
 Two-electron integral symmetry is turned on.
 Leave Link  301 at Tue Jun 24 19:48:43 2014, MaxMem=  4294967296 cpu:         4.7
 (Enter /home/ztw1e12/g09/l302.exe)
 NPDir=0 NMtPBC=     1 NCelOv=     1 NCel=       1 NClECP=     1 NCelD=      1
         NCelK=      1 NCelE2=     1 NClLst=     1 CellRange=     0.0.
 One-electron integrals computed using PRISM.
 GSVD:  received Info=                   1 from GESDD.
 NBasis=  1204 RedAO= T EigKep=  2.61D-05  NBF=  1204
 NBsUse=  1068 1.00D-06 EigRej=  5.98D-15 NBFU=  1068
 Precomputing XC quadrature grid using
 IXCGrd= 4 IRadAn=      199590 IRanWt=          -1 IRanGd=           0 AccXCQ= 0.00D+00.
 Generated NRdTot=       0 NPtTot=           0 NUsed=           0 NTot=          32
 NSgBfM=   983   985   985   985   985 MxSgAt=    33 MxSgA2=    33.
 Leave Link  302 at Tue Jun 24 19:48:49 2014, MaxMem=  4294967296 cpu:        95.3
 (Enter /home/ztw1e12/g09/l308.exe)
 Leave Link  308 at Tue Jun 24 19:48:50 2014, MaxMem=  4294967296 cpu:         7.7
 (Enter /home/ztw1e12/g09/l303.exe)
 DipDrv:  MaxL=1.
 Leave Link  303 at Tue Jun 24 19:48:50 2014, MaxMem=  4294967296 cpu:         4.6
 (Enter /home/ztw1e12/g09/l401.exe)
 ExpMin= 1.03D-01 ExpMax= 1.38D+05 ExpMxC= 1.38D+05 IAcc=4 IRadAn=    199590 AccDes= 0.00D+00
 Harris functional with IExCor= 1009 and IRadAn=  199590 diagonalized for initial guess.
 HarFok:  IExCor= 1009 AccDes= 0.00D+00 IRadAn=    199590 IDoV= 1 UseB2=F ITyADJ=14
 ICtDFT=  3500011 ScaDFX=  1.000000  1.000000  1.000000  1.000000
 FoFCou: FMM=F IPFlag=           0 FMFlag=      100000 FMFlg1=           0
         NFxFlg=           0 DoJE=T BraDBF=F KetDBF=T FulRan=T
         wScrn=  0.000000 ICntrl=     500 IOpCl=  0 I1Cent=   200000004 NGrid=           0
         NMat0=    1 NMatS0=      1 NMatT0=    0 NMatD0=    1 NMtDS0=    0 NMtDT0=    0
 Petite list used in FoFCou.
 Harris En= -801.781219372721    
 JPrj=0 DoOrth=F DoCkMO=F.
 Leave Link  401 at Tue Jun 24 19:49:10 2014, MaxMem=  4294967296 cpu:       295.5
 (Enter /home/ztw1e12/g09/l502.exe)
 Closed shell SCF:
 Using DIIS extrapolation, IDIIS=  1040.
 Integral symmetry usage will be decided dynamically.
 IVT=     5158273 IEndB=     5158273 NGot=  4294967296 MDV=  4291529994
 LenX=  4291529994 LenY=  4289825664
 Requested convergence on RMS density matrix=1.00D-08 within 128 cycles.
 Requested convergence on MAX density matrix=1.00D-06.
 Requested convergence on             energy=1.00D-06.
 No special actions if energy rises.
 Fock matrices will be formed incrementally for  20 cycles.
 Integral accuracy reduced to 1.0D-05 until final iterations.

 Cycle   1  Pass 0  IDiag  1:
 FoFJK:  IHMeth= 1 ICntrl=       0 DoSepK=F KAlg= 0 I1Cent=   0 FoldK=F
 IRaf= 420000000 NMat=   1 IRICut=       1 DoRegI=T DoRafI=F ISym2E= 0.
 FoFCou: FMM=F IPFlag=           0 FMFlag=      100000 FMFlg1=           0
         NFxFlg=           0 DoJE=F BraDBF=F KetDBF=F FulRan=T
         wScrn=  0.000000 ICntrl=       0 IOpCl=  0 I1Cent=           0 NGrid=           0
         NMat0=    1 NMatS0=      1 NMatT0=    0 NMatD0=    1 NMtDS0=    0 NMtDT0=    0
 Symmetry not used in FoFCou.
 E= -801.457747324641    
 DIIS: error= 1.26D-01 at cycle   1 NSaved=   1.
 NSaved= 1 IEnMin= 1 EnMin= -801.457747324641     IErMin= 1 ErrMin= 1.26D-01
 ErrMax= 1.26D-01  0.00D+00 EMaxC= 1.00D-01 BMatC= 1.69D+01 BMatP= 1.69D+01
 IDIUse=3 WtCom= 0.00D+00 WtEn= 1.00D+00
 Coeff-Com:  0.100D+01
 Coeff-En:   0.100D+01
 Coeff:      0.100D+01
 Gap=     0.243 Goal=   None    Shift=    0.000
 GapD=    0.243 DampG=1.000 DampE=0.250 DampFc=0.2500 IDamp=-1.
 Damping current iteration by 2.50D-01
 RMSDP=2.45D-03 MaxDP=4.18D-01              OVMax= 3.09D-01

 Cycle   2  Pass 0  IDiag  1:
 RMSU=  6.07D-04    CP:  1.03D+00
 E= -801.616685798981     Delta-E=       -0.158938474340 Rises=F Damp=T
 DIIS: error= 9.53D-02 at cycle   2 NSaved=   2.
 NSaved= 2 IEnMin= 2 EnMin= -801.616685798981     IErMin= 2 ErrMin= 9.53D-02
 ErrMax= 9.53D-02  0.00D+00 EMaxC= 1.00D-01 BMatC= 1.00D+01 BMatP= 1.69D+01
 IDIUse=3 WtCom= 4.66D-02 WtEn= 9.53D-01
 Coeff-Com: -0.291D+01 0.391D+01
 Coeff-En:   0.000D+00 0.100D+01
 Coeff:     -0.136D+00 0.114D+01
 Gap=     0.238 Goal=   None    Shift=    0.000
 RMSDP=6.55D-04 MaxDP=1.02D-01 DE=-1.59D-01 OVMax= 1.69D-01

 Cycle   3  Pass 0  IDiag  1:
 RMSU=  5.04D-04    CP:  1.08D+00  1.67D+00
 E= -801.855462918601     Delta-E=       -0.238777119620 Rises=F Damp=F
 DIIS: error= 1.20D-02 at cycle   3 NSaved=   3.
 NSaved= 3 IEnMin= 3 EnMin= -801.855462918601     IErMin= 3 ErrMin= 1.20D-02
 ErrMax= 1.20D-02  0.00D+00 EMaxC= 1.00D-01 BMatC= 2.05D-01 BMatP= 1.00D+01
 IDIUse=3 WtCom= 8.80D-01 WtEn= 1.20D-01
 Coeff-Com:  0.634D+00-0.895D+00 0.126D+01
 Coeff-En:   0.000D+00 0.000D+00 0.100D+01
 Coeff:      0.558D+00-0.787D+00 0.123D+01
 Gap=     0.251 Goal=   None    Shift=    0.000
 RMSDP=4.51D-04 MaxDP=6.73D-02 DE=-2.39D-01 OVMax= 8.38D-02

 Cycle   4  Pass 0  IDiag  1:
 RMSU=  3.48D-04    CP:  1.06D+00  1.28D+00  6.84D-01
 E= -801.809116422058     Delta-E=        0.046346496544 Rises=F Damp=F
 DIIS: error= 7.93D-03 at cycle   4 NSaved=   4.
 NSaved= 4 IEnMin= 3 EnMin= -801.855462918601     IErMin= 4 ErrMin= 7.93D-03
 ErrMax= 7.93D-03  0.00D+00 EMaxC= 1.00D-01 BMatC= 1.34D-01 BMatP= 2.05D-01
 IDIUse=3 WtCom= 9.21D-01 WtEn= 7.93D-02
 Coeff-Com:  0.521D+00-0.725D+00 0.673D+00 0.531D+00
 Coeff-En:   0.000D+00 0.000D+00 0.660D+00 0.340D+00
 Coeff:      0.480D+00-0.668D+00 0.672D+00 0.516D+00
 Gap=     0.260 Goal=   None    Shift=    0.000
 RMSDP=3.15D-04 MaxDP=3.41D-02 DE= 4.63D-02 OVMax= 8.65D-02

 Cycle   5  Pass 0  IDiag  1:
 RMSU=  9.16D-05    CP:  1.07D+00  1.30D+00  9.09D-01  1.99D-01
 E= -801.907568369674     Delta-E=       -0.098451947617 Rises=F Damp=F
 DIIS: error= 2.14D-03 at cycle   5 NSaved=   5.
 NSaved= 5 IEnMin= 5 EnMin= -801.907568369674     IErMin= 5 ErrMin= 2.14D-03
 ErrMax= 2.14D-03  0.00D+00 EMaxC= 1.00D-01 BMatC= 1.10D-02 BMatP= 1.34D-01
 IDIUse=3 WtCom= 9.79D-01 WtEn= 2.14D-02
 Coeff-Com:  0.521D-01-0.766D-01 0.550D-01 0.223D+00 0.747D+00
 Coeff-En:   0.000D+00 0.000D+00 0.000D+00 0.188D-01 0.981D+00
 Coeff:      0.510D-01-0.750D-01 0.538D-01 0.218D+00 0.752D+00
 Gap=     0.223 Goal=   None    Shift=    0.000
 RMSDP=1.11D-04 MaxDP=1.76D-02 DE=-9.85D-02 OVMax= 2.45D-02

 Cycle   6  Pass 0  IDiag  1:
 RMSU=  5.02D-05    CP:  1.07D+00  1.32D+00  9.34D-01  4.38D-01  4.38D-01
 E= -801.913424477524     Delta-E=       -0.005856107850 Rises=F Damp=F
 DIIS: error= 1.17D-03 at cycle   6 NSaved=   6.
 NSaved= 6 IEnMin= 6 EnMin= -801.913424477524     IErMin= 6 ErrMin= 1.17D-03
 ErrMax= 1.17D-03  0.00D+00 EMaxC= 1.00D-01 BMatC= 1.49D-03 BMatP= 1.10D-02
 IDIUse=3 WtCom= 9.88D-01 WtEn= 1.17D-02
 Coeff-Com:  0.195D-01-0.277D-01 0.129D-02 0.814D-01 0.356D+00 0.569D+00
 Coeff-En:   0.000D+00 0.000D+00 0.000D+00 0.000D+00 0.110D+00 0.890D+00
 Coeff:      0.193D-01-0.274D-01 0.128D-02 0.804D-01 0.354D+00 0.573D+00
 Gap=     0.223 Goal=   None    Shift=    0.000
 RMSDP=3.75D-05 MaxDP=3.31D-03 DE=-5.86D-03 OVMax= 1.75D-02

 Cycle   7  Pass 0  IDiag  1:
 RMSU=  2.85D-05    CP:  1.07D+00  1.30D+00  9.31D-01  4.43D-01  6.08D-01
                    CP:  7.50D-01
 E= -801.914428892979     Delta-E=       -0.001004415454 Rises=F Damp=F
 DIIS: error= 7.39D-04 at cycle   7 NSaved=   7.
 NSaved= 7 IEnMin= 7 EnMin= -801.914428892979     IErMin= 7 ErrMin= 7.39D-04
 ErrMax= 7.39D-04  0.00D+00 EMaxC= 1.00D-01 BMatC= 3.32D-04 BMatP= 1.49D-03
 IDIUse=3 WtCom= 9.93D-01 WtEn= 7.39D-03
 Coeff-Com:  0.151D-01-0.203D-01 0.354D-03 0.207D-01 0.983D-01 0.341D+00
 Coeff-Com:  0.545D+00
 Coeff-En:   0.000D+00 0.000D+00 0.000D+00 0.000D+00 0.000D+00 0.213D+00
 Coeff-En:   0.787D+00
 Coeff:      0.150D-01-0.201D-01 0.351D-03 0.206D-01 0.975D-01 0.340D+00
 Coeff:      0.547D+00
 Gap=     0.223 Goal=   None    Shift=    0.000
 RMSDP=1.47D-05 MaxDP=1.88D-03 DE=-1.00D-03 OVMax= 7.76D-03

 Cycle   8  Pass 0  IDiag  1:
 RMSU=  6.64D-06    CP:  1.07D+00  1.30D+00  9.37D-01  4.49D-01  5.86D-01
                    CP:  9.23D-01  6.99D-01
 E= -801.914739842894     Delta-E=       -0.000310949915 Rises=F Damp=F
 DIIS: error= 1.52D-04 at cycle   8 NSaved=   8.
 NSaved= 8 IEnMin= 8 EnMin= -801.914739842894     IErMin= 8 ErrMin= 1.52D-04
 ErrMax= 1.52D-04  0.00D+00 EMaxC= 1.00D-01 BMatC= 1.64D-05 BMatP= 3.32D-04
 IDIUse=3 WtCom= 9.98D-01 WtEn= 1.52D-03
 Coeff-Com:  0.823D-02-0.110D-01 0.125D-02 0.607D-02 0.292D-01 0.147D+00
 Coeff-Com:  0.291D+00 0.529D+00
 Coeff-En:   0.000D+00 0.000D+00 0.000D+00 0.000D+00 0.000D+00 0.000D+00
 Coeff-En:   0.000D+00 0.100D+01
 Coeff:      0.822D-02-0.110D-01 0.124D-02 0.606D-02 0.292D-01 0.147D+00
 Coeff:      0.290D+00 0.529D+00
 Gap=     0.223 Goal=   None    Shift=    0.000
 RMSDP=3.87D-06 MaxDP=4.66D-04 DE=-3.11D-04 OVMax= 1.40D-03

 Initial convergence to 1.0D-05 achieved.  Increase integral accuracy.
 Cycle   9  Pass 1  IDiag  1:
 E= -801.914731857519     Delta-E=        0.000007985375 Rises=F Damp=F
 DIIS: error= 2.10D-04 at cycle   1 NSaved=   1.
 NSaved= 1 IEnMin= 1 EnMin= -801.914731857519     IErMin= 1 ErrMin= 2.10D-04
 ErrMax= 2.10D-04  0.00D+00 EMaxC= 1.00D-01 BMatC= 2.15D-05 BMatP= 2.15D-05
 IDIUse=3 WtCom= 9.98D-01 WtEn= 2.10D-03
 Coeff-Com:  0.100D+01
 Coeff-En:   0.100D+01
 Coeff:      0.100D+01
 Gap=     0.223 Goal=   None    Shift=    0.000
 RMSDP=3.87D-06 MaxDP=4.66D-04 DE= 7.99D-06 OVMax= 8.37D-04

 Cycle  10  Pass 1  IDiag  1:
 RMSU=  1.48D-04    CP:  9.91D-01
 E= -801.914742334339     Delta-E=       -0.000010476820 Rises=F Damp=F
 DIIS: error= 6.13D-05 at cycle   2 NSaved=   2.
 NSaved= 2 IEnMin= 2 EnMin= -801.914742334339     IErMin= 2 ErrMin= 6.13D-05
 ErrMax= 6.13D-05  0.00D+00 EMaxC= 1.00D-01 BMatC= 3.90D-06 BMatP= 2.15D-05
 IDIUse=1 WtCom= 1.00D+00 WtEn= 0.00D+00
 Coeff-Com:  0.204D+00 0.796D+00
 Coeff:      0.204D+00 0.796D+00
 Gap=     0.223 Goal=   None    Shift=    0.000
 RMSDP=4.14D-06 MaxDP=5.78D-04 DE=-1.05D-05 OVMax= 1.22D-03

 Cycle  11  Pass 1  IDiag  1:
 RMSU=  3.41D-06    CP:  9.90D-01  1.01D+00
 E= -801.914740644212     Delta-E=        0.000001690127 Rises=F Damp=F
 DIIS: error= 8.21D-05 at cycle   3 NSaved=   3.
 NSaved= 3 IEnMin= 2 EnMin= -801.914742334339     IErMin= 2 ErrMin= 6.13D-05
 ErrMax= 8.21D-05  0.00D+00 EMaxC= 1.00D-01 BMatC= 5.57D-06 BMatP= 3.90D-06
 IDIUse=1 WtCom= 1.00D+00 WtEn= 0.00D+00
 Coeff-Com:  0.229D-02 0.545D+00 0.453D+00
 Coeff:      0.229D-02 0.545D+00 0.453D+00
 Gap=     0.223 Goal=   None    Shift=    0.000
 RMSDP=2.01D-06 MaxDP=3.38D-04 DE= 1.69D-06 OVMax= 7.77D-04

 Cycle  12  Pass 1  IDiag  1:
 RMSU=  6.87D-07    CP:  9.90D-01  1.02D+00  4.67D-01
 E= -801.914745603545     Delta-E=       -0.000004959333 Rises=F Damp=F
 DIIS: error= 8.12D-06 at cycle   4 NSaved=   4.
 NSaved= 4 IEnMin= 4 EnMin= -801.914745603545     IErMin= 4 ErrMin= 8.12D-06
 ErrMax= 8.12D-06  0.00D+00 EMaxC= 1.00D-01 BMatC= 9.28D-08 BMatP= 3.90D-06
 IDIUse=1 WtCom= 1.00D+00 WtEn= 0.00D+00
 Coeff-Com: -0.246D-02 0.305D+00 0.266D+00 0.432D+00
 Coeff:     -0.246D-02 0.305D+00 0.266D+00 0.432D+00
 Gap=     0.223 Goal=   None    Shift=    0.000
 RMSDP=2.29D-07 MaxDP=2.93D-05 DE=-4.96D-06 OVMax= 7.70D-05

 Cycle  13  Pass 1  IDiag  1:
 RMSU=  2.08D-07    CP:  9.90D-01  1.02D+00  4.87D-01  9.20D-01
 E= -801.914745674234     Delta-E=       -0.000000070689 Rises=F Damp=F
 DIIS: error= 1.64D-06 at cycle   5 NSaved=   5.
 NSaved= 5 IEnMin= 5 EnMin= -801.914745674234     IErMin= 5 ErrMin= 1.64D-06
 ErrMax= 1.64D-06  0.00D+00 EMaxC= 1.00D-01 BMatC= 3.35D-09 BMatP= 9.28D-08
 IDIUse=1 WtCom= 1.00D+00 WtEn= 0.00D+00
 Coeff-Com: -0.135D-02 0.989D-01 0.882D-01 0.212D+00 0.603D+00
 Coeff:     -0.135D-02 0.989D-01 0.882D-01 0.212D+00 0.603D+00
 Gap=     0.223 Goal=   None    Shift=    0.000
 RMSDP=5.89D-08 MaxDP=4.65D-06 DE=-7.07D-08 OVMax= 1.30D-05

 Cycle  14  Pass 1  IDiag  1:
 RMSU=  3.78D-08    CP:  9.90D-01  1.02D+00  4.89D-01  9.67D-01  8.93D-01
 E= -801.914745676017     Delta-E=       -0.000000001783 Rises=F Damp=F
 DIIS: error= 4.53D-07 at cycle   6 NSaved=   6.
 NSaved= 6 IEnMin= 6 EnMin= -801.914745676017     IErMin= 6 ErrMin= 4.53D-07
 ErrMax= 4.53D-07  0.00D+00 EMaxC= 1.00D-01 BMatC= 4.08D-10 BMatP= 3.35D-09
 IDIUse=1 WtCom= 1.00D+00 WtEn= 0.00D+00
 Coeff-Com: -0.584D-03 0.348D-01 0.314D-01 0.884D-01 0.333D+00 0.513D+00
 Coeff:     -0.584D-03 0.348D-01 0.314D-01 0.884D-01 0.333D+00 0.513D+00
 Gap=     0.223 Goal=   None    Shift=    0.000
 RMSDP=2.73D-08 MaxDP=5.28D-06 DE=-1.78D-09 OVMax= 6.87D-06

 Cycle  15  Pass 1  IDiag  1:
 RMSU=  1.82D-08    CP:  9.90D-01  1.02D+00  4.88D-01  9.81D-01  9.48D-01
                    CP:  7.39D-01
 E= -801.914745676251     Delta-E=       -0.000000000234 Rises=F Damp=F
 DIIS: error= 2.84D-07 at cycle   7 NSaved=   7.
 NSaved= 7 IEnMin= 7 EnMin= -801.914745676251     IErMin= 7 ErrMin= 2.84D-07
 ErrMax= 2.84D-07  0.00D+00 EMaxC= 1.00D-01 BMatC= 8.33D-11 BMatP= 4.08D-10
 IDIUse=1 WtCom= 1.00D+00 WtEn= 0.00D+00
 Coeff-Com:  0.651D-04-0.984D-02-0.847D-02-0.115D-01 0.207D-01 0.325D+00
 Coeff-Com:  0.684D+00
 Coeff:      0.651D-04-0.984D-02-0.847D-02-0.115D-01 0.207D-01 0.325D+00
 Coeff:      0.684D+00
 Gap=     0.223 Goal=   None    Shift=    0.000
 RMSDP=1.32D-08 MaxDP=1.54D-06 DE=-2.34D-10 OVMax= 2.41D-06

 Cycle  16  Pass 1  IDiag  1:
 RMSU=  6.07D-09    CP:  9.90D-01  1.02D+00  4.88D-01  9.90D-01  9.71D-01
                    CP:  9.47D-01  1.08D+00
 E= -801.914745676399     Delta-E=       -0.000000000147 Rises=F Damp=F
 DIIS: error= 5.41D-08 at cycle   8 NSaved=   8.
 NSaved= 8 IEnMin= 8 EnMin= -801.914745676399     IErMin= 8 ErrMin= 5.41D-08
 ErrMax= 5.41D-08  0.00D+00 EMaxC= 1.00D-01 BMatC= 4.41D-12 BMatP= 8.33D-11
 IDIUse=1 WtCom= 1.00D+00 WtEn= 0.00D+00
 Coeff-Com:  0.660D-04-0.676D-02-0.593D-02-0.112D-01-0.124D-01 0.119D+00
 Coeff-Com:  0.327D+00 0.591D+00
 Coeff:      0.660D-04-0.676D-02-0.593D-02-0.112D-01-0.124D-01 0.119D+00
 Coeff:      0.327D+00 0.591D+00
 Gap=     0.223 Goal=   None    Shift=    0.000
 RMSDP=2.71D-09 MaxDP=4.33D-07 DE=-1.47D-10 OVMax= 4.61D-07

 SCF Done:  E(RM06) =  -801.914745676     A.U. after   16 cycles
            NFock= 16  Conv=0.27D-08     -V/T= 2.0044
 KE= 7.983770676657D+02 PE=-4.260391663248D+03 EE= 1.466172990849D+03
 Leave Link  502 at Tue Jun 24 20:24:43 2014, MaxMem=  4294967296 cpu:     34032.8
 (Enter /home/ztw1e12/g09/l801.exe)
 DoSCS=F DFT=T ScalE2(SS,OS)=  1.000000  1.000000
 Range of M.O.s used for correlation:     1  1068
 NBasis=  1204 NAE=    63 NBE=    63 NFC=     0 NFV=     0
 NROrb=   1068 NOA=    63 NOB=    63 NVA=  1005 NVB=  1005

 **** Warning!!: The largest alpha MO coefficient is  0.35715583D+02

 Leave Link  801 at Tue Jun 24 20:24:43 2014, MaxMem=  4294967296 cpu:         0.4
 (Enter /home/ztw1e12/g09/l1002.exe)
 Minotr:  Closed shell wavefunction.
          IDoAtm=111111111111111111111111111111111
          Direct CPHF calculation.
          Differentiating once with respect to Fermi-contact.
          Electric field/nuclear overlap derivatives assumed to be zero.
          Requested convergence is 1.0D-10 RMS, and 1.0D-09 maximum.
          Secondary convergence is 1.0D-12 RMS, and 1.0D-12 maximum.
          NewPWx=T KeepS1=F KeepF1=F KeepIn=T MapXYZ=F SortEE=F KeepMc=T.
          MDV=    4294965894 using IRadAn=  199590.
 Using stored XC quadrature information.
          Solving linear equations simultaneously, MaxMat=       0.
          There are    33 degrees of freedom in the 1st order CPHF.  IDoFFX=0 NUNeed=    33.
     33 vectors produced by pass  0 Test12= 1.92D-17 3.03D-11 XBig12= 4.29D+01 2.58D+00.
 AX will form    33 AO Fock derivatives at one time.
 FoFJK:  IHMeth= 1 ICntrl=       0 DoSepK=F KAlg= 0 I1Cent=   0 FoldK=F
 IRaf= 440000000 NMat=  33 IRICut=       1 DoRegI=T DoRafI=F ISym2E=-1.
 FoFCou: FMM=F IPFlag=           0 FMFlag=      100000 FMFlg1=           0
         NFxFlg=           0 DoJE=F BraDBF=F KetDBF=F FulRan=T
         wScrn=  0.000000 ICntrl=       0 IOpCl=  0 I1Cent=           0 NGrid=           0
         NMat0=   33 NMatS0=      0 NMatT0=   33 NMatD0=   33 NMtDS0=    0 NMtDT0=    0
 Petite list used in FoFCou.
     33 vectors produced by pass  1 Test12= 1.92D-17 3.03D-11 XBig12= 3.46D-01 1.89D-01.
     33 vectors produced by pass  2 Test12= 1.92D-17 3.03D-11 XBig12= 1.53D-02 3.97D-02.
     33 vectors produced by pass  3 Test12= 1.92D-17 3.03D-11 XBig12= 3.41D-04 5.56D-03.
     33 vectors produced by pass  4 Test12= 1.92D-17 3.03D-11 XBig12= 6.95D-06 9.15D-04.
     33 vectors produced by pass  5 Test12= 1.92D-17 3.03D-11 XBig12= 1.39D-07 1.41D-04.
     33 vectors produced by pass  6 Test12= 1.92D-17 3.03D-11 XBig12= 3.89D-09 1.75D-05.
     33 vectors produced by pass  7 Test12= 1.92D-17 3.03D-11 XBig12= 1.07D-10 4.00D-06.
     33 vectors produced by pass  8 Test12= 1.92D-17 3.03D-11 XBig12= 3.92D-12 2.72D-07.
     33 vectors produced by pass  9 Test12= 1.92D-17 3.03D-11 XBig12= 5.66D-14 8.70D-08.
     33 vectors produced by pass 10 Test12= 1.92D-17 3.03D-11 XBig12= 1.57D-15 6.78D-09.
     32 vectors produced by pass 11 Test12= 1.92D-17 3.03D-11 XBig12= 1.55D-17 4.43D-10.
      9 vectors produced by pass 12 Test12= 1.92D-17 3.03D-11 XBig12= 2.58D-19 7.72D-11.
 InvSVY:  IOpt=1 It=  1 EMax= 7.99D-15
 Solved reduced A of dimension   404 with    33 vectors.
 Max diff in FC couplings:  IJMax=    16     3 Diff= 2.88D-04 IJMaxR=    29    28 DiffR= 1.40D+00
 Fermi Contact (FC) contribution to K (Hz):
                1             2             3             4             5 
      1  0.123400D+11
      2  0.349318D+02  0.123400D+11
      3 -0.115922D+01  0.341449D+02  0.123400D+11
      4  0.308616D+01  0.323469D+00  0.333789D+02  0.123400D+11
      5  0.162774D+01  0.295829D+01 -0.131197D+01  0.345348D+02  0.123400D+11
      6  0.355711D+02 -0.288222D+00  0.430091D+01  0.243055D+00  0.392286D+02
      7  0.219097D+02 -0.280046D+00  0.972669D+00 -0.210455D+00  0.607814D+00
      8 -0.244885D+00  0.227749D+02 -0.295021D+00  0.104255D+01 -0.292819D+00
      9 -0.275661D+00  0.940085D+00 -0.169780D+00  0.219415D+02 -0.131503D+00
     10  0.670955D+00 -0.222334D+00  0.102013D+01 -0.271095D+00  0.228259D+02
     11  0.198723D+01  0.166321D+01  0.239832D+02  0.159880D+01  0.200272D+01
     12 -0.120476D+00  0.672192D+00 -0.118574D+01  0.732159D+00 -0.635294D-01
     13  0.118406D+00  0.833779D+00 -0.777439D+00  0.828982D+00  0.218921D-01
     14 -0.604062D+00  0.908703D+00 -0.972884D+00  0.859847D+00 -0.474351D+00
     15  0.862778D-02 -0.155738D-01  0.858385D+00 -0.197938D-01  0.129070D-01
     16 -0.119270D-01 -0.478956D-01  0.151672D+01  0.563481D-01  0.484666D-01
     17 -0.728706D+00 -0.742568D-01  0.261935D+00  0.304390D+01  0.116232D+02
     18  0.419578D+00 -0.126317D-01 -0.462661D-01  0.212506D+00  0.114634D+01
     19  0.261287D-01  0.237567D+00 -0.893894D-02  0.669334D-01  0.948152D-02
     20  0.352913D-01 -0.121257D-01  0.228012D-01 -0.854076D-01  0.310432D-01
     21 -0.960937D-03  0.298947D-02 -0.122068D-01  0.857915D-02  0.349915D-03
     22 -0.239868D-01  0.804409D-01  0.163688D+00  0.187287D-01 -0.201680D-01
     23  0.176840D-03  0.566598D-03 -0.101970D-02  0.563806D-03  0.685722D-04
     24 -0.747655D-02  0.287441D-01 -0.450012D-01  0.672349D-02 -0.937632D-02
     25 -0.173806D-03 -0.227376D-02  0.780158D-02 -0.338303D-02  0.501807D-03
     26 -0.259392D-03  0.815580D-03 -0.600731D-03  0.613491D-03  0.151098D-03
     27  0.566669D-04  0.595058D-03 -0.468079D-03  0.501528D-04  0.117998D-03
     28 -0.602274D-04  0.484066D-04 -0.288763D-03 -0.109452D-04 -0.166711D-04
     29 -0.103049D-02  0.939185D-03  0.355777D-01  0.394713D-02  0.207205D-03
     30  0.138921D-03  0.653761D-04  0.427077D-02 -0.187007D-04  0.426546D-04
     31 -0.101288D-04  0.162304D-03  0.101966D-02  0.370313D-03  0.479167D-04
     32  0.340501D-03 -0.477189D-04  0.515671D-02  0.601455D-03  0.257566D-03
     33  0.189698D-02  0.849262D-02 -0.134542D-02  0.101716D-01  0.464961D-04
                6             7             8             9            10 
      6  0.123400D+11
      7 -0.524105D+00  0.123400D+11
      8  0.123058D+01  0.344349D+00  0.123400D+11
      9  0.117757D+01  0.365687D-01  0.405718D-01  0.123400D+11
     10 -0.723029D+00  0.635400D-01  0.412711D-01  0.338250D+00  0.123400D+11
     11 -0.453940D+00  0.217486D-01  0.661874D+00  0.720727D+00  0.208667D-01
     12  0.139447D+00  0.123082D-01 -0.436331D-01 -0.322182D-01  0.161572D-01
     13  0.113467D-01  0.648648D-02 -0.121057D-02 -0.205858D-01  0.224594D-02
     14  0.562846D+00  0.539269D-01 -0.107880D+00 -0.135926D+00  0.414986D-01
     15  0.424349D-03  0.450479D-03 -0.356769D-02 -0.137816D-03  0.897353D-03
     16  0.120811D-01  0.222890D-02 -0.534569D-02  0.871007D-02  0.326056D-02
     17 -0.119713D+02  0.567701D+00  0.706495D-01  0.249953D+00  0.711110D+00
     18 -0.661563D+00 -0.136140D-01  0.201640D-02  0.133145D-01  0.154304D-02
     19  0.298844D-01  0.288316D-02  0.500710D-01  0.590082D-03  0.106133D-02
     20 -0.279878D-01 -0.241604D-02  0.872570D-02  0.789057D-02 -0.702138D-02
     21  0.175823D-02  0.921125D-04  0.616864D-03  0.163676D-02  0.140950D-03
     22  0.291751D-01  0.250452D-02 -0.541886D-02 -0.603004D-02  0.241951D-02
     23  0.268218D-04  0.759678D-05  0.188797D-03 -0.202912D-04 -0.228975D-04
     24  0.966813D-02  0.116789D-02 -0.123143D-02 -0.226581D-02  0.793440D-03
     25 -0.115396D-03  0.429850D-04  0.276916D-03 -0.105391D-03 -0.174589D-03
     26  0.173660D-03  0.147593D-04 -0.671989D-05 -0.618610D-04 -0.209357D-04
     27 -0.434395D-04 -0.709271D-05 -0.792752D-05 -0.228277D-04  0.142066D-05
     28  0.429055D-04  0.445845D-05 -0.989576D-05  0.684489D-05 -0.359791D-05
     29  0.132802D-02  0.710460D-04  0.295452D-04 -0.292085D-03  0.203800D-03
     30  0.107476D-03  0.932650D-05  0.567559D-04  0.108438D-04  0.454887D-04
     31  0.814067D-04  0.573371D-05  0.430377D-04  0.151396D-05  0.845091D-05
     32  0.521659D-05  0.588966D-05  0.161676D-03  0.588674D-04  0.580074D-04
     33  0.914848D-03 -0.308652D-03  0.531370D-04  0.346849D-03 -0.152742D-03
               11            12            13            14            15 
     11  0.123400D+11
     12  0.180768D+02  0.123400D+11
     13  0.171173D+02 -0.874611D+00  0.123400D+11
     14  0.165148D+02 -0.546385D+00 -0.819058D+00  0.123400D+11
     15 -0.799691D+00  0.277140D-01  0.202060D+00  0.215182D+02  0.123400D+11
     16 -0.481607D+00  0.655586D+00  0.115581D-02  0.275315D+02 -0.120019D+01
     17  0.723698D-01  0.492168D-01  0.263119D-02  0.217022D+00 -0.141778D-02
     18  0.116802D-01 -0.516431D-02 -0.345690D-03 -0.233600D-01  0.116979D-03
     19  0.103716D+01  0.847679D-01  0.422205D-01  0.492954D+01  0.343139D+00
     20  0.115985D+01  0.134552D+01  0.174286D+01  0.130497D+02 -0.480124D+00
     21  0.562207D+00 -0.155094D-01 -0.365234D-01  0.227973D+00  0.139082D+00
     22 -0.117132D-02  0.117405D-01 -0.827916D-03  0.964638D+01  0.182556D+00
     23 -0.223701D-01  0.209704D-02  0.232070D-02  0.675480D-01 -0.211162D-02
     24  0.154970D+01  0.111429D+00  0.413265D-01 -0.246636D+00  0.344207D+00
     25 -0.294270D-01  0.335056D-01  0.396077D-01  0.652054D+00 -0.751326D-01
     26  0.788950D-02  0.546972D-03  0.106308D-03  0.109219D-01  0.207794D-01
     27 -0.404648D-02 -0.170317D-02 -0.926916D-03  0.391808D-01  0.224118D-01
     28 -0.261891D-02  0.546233D-03 -0.699765D-03  0.925836D-01 -0.211825D-02
     29 -0.585930D-01  0.190869D-01  0.533642D-03  0.655632D+00  0.377358D-01
     30  0.388600D-01 -0.986669D-03 -0.916496D-03 -0.834490D-01  0.266488D-01
     31  0.394008D-02  0.804584D-03 -0.150151D-04 -0.231332D-01  0.346881D-02
     32  0.629559D-01 -0.750682D-03 -0.361889D-05 -0.851369D-01  0.132255D-01
     33  0.128357D+00 -0.494249D-02  0.383313D-01  0.902880D+00  0.243231D+00
               16            17            18            19            20 
     16  0.123400D+11
     17  0.993574D-02  0.123400D+11
     18 -0.576248D-03  0.199167D+02  0.123400D+11
     19 -0.974320D+01  0.208758D-02 -0.104388D-03  0.123400D+11
     20  0.582267D+00 -0.870342D-02  0.688409D-03  0.977644D+00  0.123400D+11
     21  0.153962D+00  0.803712D-03 -0.354791D-04  0.772688D-01  0.309116D+02
     22  0.303727D+02  0.101274D-01 -0.107741D-02  0.634423D+01 -0.297076D-01
     23  0.383863D+00 -0.895176D-05  0.103850D-05  0.470363D+00 -0.115967D+00
     24  0.192842D-01  0.386476D-02 -0.391860D-03 -0.240680D-01  0.243268D+02
     25 -0.138975D+00 -0.900634D-04 -0.256374D-05  0.470147D-01  0.123506D+02
     26  0.670560D-01  0.546987D-04 -0.852006D-05 -0.187773D-02  0.338029D+00
     27  0.792451D-01 -0.994181D-05  0.192694D-05  0.632395D-02  0.383448D+00
     28 -0.172712D-02  0.117236D-04 -0.213221D-05  0.214777D-02  0.333930D+00
     29 -0.247463D+00  0.641118D-03 -0.606768D-04  0.627413D+00  0.169701D+00
     30  0.175450D+00  0.464122D-04 -0.509368D-05  0.241660D+00  0.246227D-01
     31  0.944680D+00  0.410122D-04 -0.309221D-05  0.176328D+00  0.680156D-02
     32  0.198752D+00  0.742311D-04 -0.440787D-05  0.235710D+00  0.269866D-02
     33  0.490443D+00  0.102345D-02 -0.103026D-03  0.634552D-01  0.596967D+01
               21            22            23            24            25 
     21  0.123400D+11
     22  0.414863D-02  0.123400D+11
     23  0.662837D-02  0.317693D+02  0.123400D+11
     24  0.429411D+00 -0.233662D-01  0.494247D-02  0.123400D+11
     25  0.802607D-01 -0.205683D-01  0.387621D-02  0.268542D+02  0.123400D+11
     26 -0.175725D-01  0.390790D-02  0.688068D-05 -0.120105D+01  0.179332D+02
     27 -0.298224D-02 -0.882662D-03  0.300914D-04 -0.118040D+01  0.180977D+02
     28 -0.101393D-01 -0.123234D-02  0.141983D-03 -0.753204D+00  0.170314D+02
     29 -0.364069D-02  0.171392D+02  0.354868D+00 -0.598826D-02 -0.775200D-03
     30 -0.563496D-03 -0.625587D+00  0.134127D+00  0.263810D-02  0.995830D-03
     31 -0.522342D-03 -0.365500D+00  0.292450D+00  0.279610D-03 -0.232032D-03
     32  0.139014D-02 -0.616098D+00  0.870755D-01 -0.103920D-02  0.539774D-03
     33  0.447973D+00  0.343156D+00  0.534277D-02 -0.965240D+01  0.355843D+01
               26            27            28            29            30 
     26  0.123400D+11
     27 -0.928284D+00  0.123400D+11
     28 -0.754336D+00 -0.717024D+00  0.123400D+11
     29 -0.183322D-04  0.472197D-04 -0.237262D-05  0.123400D+11
     30  0.263630D-03  0.679987D-04  0.579498D-05  0.198820D+02  0.123400D+11
     31  0.265880D-03  0.760069D-04  0.147864D-04  0.182463D+02 -0.742714D+00
     32 -0.128474D-03 -0.176678D-03  0.621553D-05  0.200948D+02 -0.744404D+00
     33  0.460328D+00  0.445730D+00  0.808355D+00 -0.210901D-01  0.136251D-01
               31            32            33 
     31  0.123400D+11
     32 -0.746948D+00  0.123400D+11
     33  0.239538D-02  0.153479D-01  0.123400D+11
 Fermi Contact (FC) contribution to J (Hz):
                1             2             3             4             5 
      1  0.243533D+11
      2  0.689389D+02  0.243533D+11
      3 -0.228775D+01  0.673858D+02  0.243533D+11
      4  0.609061D+01  0.638374D+00  0.658742D+02  0.243533D+11
      5  0.321239D+01  0.583827D+01 -0.258920D+01  0.681552D+02  0.243533D+11
      6  0.702005D+02 -0.568814D+00  0.848795D+01  0.479676D+00  0.774186D+02
      7  0.171923D+03 -0.219749D+01  0.763244D+01 -0.165142D+01  0.476946D+01
      8 -0.192159D+01  0.178712D+03 -0.231500D+01  0.818079D+01 -0.229772D+01
      9 -0.216308D+01  0.737676D+01 -0.133225D+01  0.172173D+03 -0.103189D+01
     10  0.526492D+01 -0.174463D+01  0.800485D+01 -0.212726D+01  0.179112D+03
     11  0.392184D+01  0.328239D+01  0.473314D+02  0.315528D+01  0.395242D+01
     12 -0.945365D+00  0.527463D+01 -0.930436D+01  0.574518D+01 -0.498509D+00
     13  0.929120D+00  0.654259D+01 -0.610049D+01  0.650495D+01  0.171786D+00
     14 -0.119213D+01  0.179335D+01 -0.192001D+01  0.169693D+01 -0.936143D+00
     15  0.677014D-01 -0.122206D+00  0.673566D+01 -0.155320D+00  0.101280D+00
     16 -0.235382D-01 -0.945231D-01  0.299329D+01  0.111204D+00  0.956499D-01
     17  0.775474D+00  0.790226D-01 -0.278746D+00 -0.323926D+01 -0.123692D+02
     18  0.329238D+01 -0.991194D-01 -0.363045D+00  0.166752D+01  0.899524D+01
     19 -0.278057D-01 -0.252814D+00  0.951264D-02 -0.712292D-01 -0.100900D-01
     20  0.200177D-01 -0.687786D-02  0.129331D-01 -0.484443D-01  0.176081D-01
     21 -0.754038D-02  0.234581D-01 -0.957853D-01  0.673197D-01  0.274575D-02
     22 -0.136056D-01  0.456271D-01  0.928461D-01  0.106231D-01 -0.114395D-01
     23  0.138765D-02  0.444604D-02 -0.800152D-02  0.442413D-02  0.538079D-03
     24 -0.147552D-01  0.567273D-01 -0.888110D-01  0.132690D-01 -0.185044D-01
     25 -0.343010D-03 -0.448733D-02  0.153966D-01 -0.667649D-02  0.990329D-03
     26 -0.203543D-02  0.639978D-02 -0.471387D-02  0.481401D-02  0.118565D-02
     27  0.444660D-03  0.466936D-02 -0.367297D-02  0.393544D-03  0.925920D-03
     28 -0.472599D-03  0.379842D-03 -0.226590D-02 -0.858857D-04 -0.130817D-03
     29 -0.203369D-02  0.185350D-02  0.702135D-01  0.778975D-02  0.408925D-03
     30  0.109010D-02  0.513000D-03  0.335123D-01 -0.146743D-03  0.334707D-03
     31 -0.794795D-04  0.127359D-02  0.800114D-02  0.290581D-02  0.375998D-03
     32  0.267188D-02 -0.374446D-03  0.404642D-01  0.471956D-02  0.202109D-02
     33 -0.201873D-02 -0.903769D-02  0.143177D-02 -0.108244D-01 -0.494803D-04
                6             7             8             9            10 
      6  0.243533D+11
      7 -0.411260D+01  0.385007D+12
      8  0.965623D+01  0.107437D+02  0.385007D+12
      9  0.924030D+01  0.114094D+01  0.126584D+01  0.385007D+12
     10 -0.567354D+01  0.198244D+01  0.128766D+01  0.105534D+02  0.385007D+12
     11 -0.895862D+00  0.170659D+00  0.519366D+01  0.565548D+01  0.163739D+00
     12  0.109423D+01  0.384016D+00 -0.136135D+01 -0.100521D+01  0.504105D+00
     13  0.890361D-01  0.202378D+00 -0.377699D-01 -0.642276D+00  0.700732D-01
     14  0.111079D+01  0.423159D+00 -0.846527D+00 -0.106660D+01  0.325636D+00
     15  0.332983D-02  0.140549D-01 -0.111312D+00 -0.429986D-02  0.279974D-01
     16  0.238424D-01  0.174900D-01 -0.419471D-01  0.683471D-01  0.255853D-01
     17  0.127397D+02 -0.240210D+01 -0.298937D+00 -0.105762D+01 -0.300890D+01
     18 -0.519122D+01 -0.424756D+00  0.629115D-01  0.415412D+00  0.481427D-01
     19 -0.318024D-01 -0.121994D-01 -0.211864D+00 -0.249680D-02 -0.449080D-02
     20 -0.158750D-01 -0.544885D-02  0.196789D-01  0.177955D-01 -0.158352D-01
     21  0.137966D-01  0.287391D-02  0.192461D-01  0.510667D-01  0.439763D-02
     22  0.165485D-01  0.564841D-02 -0.122211D-01 -0.135995D-01  0.545668D-02
     23  0.210468D-03  0.237019D-03  0.589045D-02 -0.633083D-03 -0.714400D-03
     24  0.190803D-01  0.916434D-02 -0.966293D-02 -0.177796D-01  0.622605D-02
     25 -0.227737D-03  0.337299D-03  0.217293D-02 -0.826995D-03 -0.136998D-02
     26  0.136269D-02  0.460491D-03 -0.209660D-03 -0.193006D-02 -0.653194D-03
     27 -0.340865D-03 -0.221292D-03 -0.247338D-03 -0.712224D-03  0.443245D-04
     28  0.336676D-03  0.139104D-03 -0.308747D-03  0.213560D-03 -0.112255D-03
     29  0.262088D-02  0.557491D-03  0.231838D-03 -0.229197D-02  0.159920D-02
     30  0.843358D-03  0.290986D-03  0.177078D-02  0.338327D-03  0.141924D-02
     31  0.638790D-03  0.178891D-03  0.134277D-02  0.472354D-04  0.263668D-03
     32  0.409340D-04  0.183757D-03  0.504428D-02  0.183666D-02  0.180983D-02
     33 -0.973564D-03  0.130599D-02 -0.224837D-03 -0.146761D-02  0.646291D-03
               11            12            13            14            15 
     11  0.243533D+11
     12  0.141847D+03  0.385007D+12
     13  0.134318D+03 -0.272878D+02  0.385007D+12
     14  0.325924D+02 -0.428743D+01 -0.642707D+01  0.243533D+11
     15 -0.627510D+01  0.864674D+00  0.630427D+01  0.168851D+03  0.385007D+12
     16 -0.950462D+00  0.514432D+01  0.906955D-02  0.543341D+02 -0.941779D+01
     17 -0.770145D-01 -0.208250D+00 -0.111333D-01 -0.230950D+00  0.599903D-02
     18  0.916530D-01 -0.161126D+00 -0.107855D-01 -0.183304D+00  0.364973D-02
     19 -0.110372D+01 -0.358676D+00 -0.178646D+00 -0.524592D+01 -0.145192D+01
     20  0.657881D+00  0.303452D+01  0.393064D+01  0.740197D+01 -0.108282D+01
     21  0.441158D+01 -0.483893D+00 -0.113953D+01  0.178888D+01  0.433935D+01
     22 -0.664388D-03  0.264782D-01 -0.186719D-02  0.547154D+01  0.411717D+00
     23 -0.175536D+00  0.654275D-01  0.724057D-01  0.530043D+00 -0.658824D-01
     24  0.305836D+01  0.874375D+00  0.324285D+00 -0.486742D+00  0.270096D+01
     25 -0.580750D-01  0.262915D+00  0.310798D+00  0.128684D+01 -0.589558D+00
     26  0.619081D-01  0.170655D-01  0.331680D-02  0.857032D-01  0.648315D+00
     27 -0.317523D-01 -0.531390D-01 -0.289197D-01  0.307448D+00  0.699247D+00
     28 -0.205503D-01  0.170424D-01 -0.218327D-01  0.726494D+00 -0.660893D-01
     29 -0.115635D+00  0.149773D+00  0.418744D-02  0.129391D+01  0.296109D+00
     30  0.304930D+00 -0.307840D-01 -0.285946D-01 -0.654816D+00  0.831442D+00
     31  0.309174D-01  0.251030D-01 -0.468472D-03 -0.181524D+00  0.108227D+00
     32  0.494009D+00 -0.234212D-01 -0.112909D-03 -0.668061D+00  0.412634D+00
     33 -0.136595D+00  0.209130D-01 -0.162190D+00 -0.960827D+00 -0.102918D+01
               16            17            18            19            20 
     16  0.243533D+11
     17 -0.105734D-01  0.708114D+10
     18 -0.452176D-02 -0.842729D+02  0.385007D+12
     19  0.103685D+02  0.119793D-02  0.441696D-03  0.708114D+10
     20  0.330269D+00  0.266200D-02  0.155256D-02 -0.299019D+00  0.201170D+10
     21  0.120812D+01 -0.340072D-02 -0.110695D-02 -0.326945D+00  0.697145D+02
     22  0.172278D+02 -0.309755D-02 -0.242987D-02 -0.194043D+01 -0.484302D-02
     23  0.301214D+01  0.378773D-04  0.324013D-04 -0.199023D+01 -0.261540D+00
     24  0.380579D-01 -0.411281D-02 -0.307489D-02  0.256127D-01  0.137985D+02
     25 -0.274271D+00  0.958437D-04 -0.201174D-04 -0.500321D-01  0.700539D+01
     26  0.526182D+00 -0.231445D-03 -0.265825D-03  0.794518D-02  0.762351D+00
     27  0.621828D+00  0.420665D-04  0.601205D-04 -0.267584D-01  0.864785D+00
     28 -0.135526D-01 -0.496058D-04 -0.665247D-04 -0.908779D-02  0.753106D+00
     29 -0.488373D+00 -0.682266D-03 -0.476125D-03 -0.667681D+00  0.962564D-01
     30  0.137674D+01 -0.196383D-03 -0.158922D-03 -0.102253D+01  0.555311D-01
     31  0.741281D+01 -0.173534D-03 -0.964769D-04 -0.746094D+00  0.153395D-01
     32  0.155959D+01 -0.314092D-03 -0.137525D-03 -0.997354D+00  0.608626D-02
     33 -0.521920D+00  0.587293D-03  0.435929D-03  0.364129D-01 -0.182586D+01
               21            22            23            24            25 
     21  0.385007D+12
     22  0.935635D-02  0.201170D+10
     23  0.206805D+00  0.716487D+02  0.385007D+12
     24  0.336954D+01 -0.132536D-01  0.387831D-01  0.243533D+11
     25  0.629798D+00 -0.116666D-01  0.304162D-01  0.529974D+02  0.243533D+11
     26 -0.548261D+00  0.881344D-02  0.214677D-03 -0.942451D+01  0.140720D+03
     27 -0.930458D-01 -0.199065D-02  0.938849D-03 -0.926251D+01  0.142011D+03
     28 -0.316344D+00 -0.277928D-02  0.442987D-02 -0.591032D+01  0.133644D+03
     29 -0.285681D-01  0.972158D+01  0.278461D+01 -0.118180D-01 -0.152988D-02
     30 -0.175811D-01 -0.141088D+01  0.418476D+01  0.207009D-01  0.781418D-02
     31 -0.162971D-01 -0.824306D+00  0.912442D+01  0.219408D-02 -0.182073D-02
     32  0.433722D-01 -0.138948D+01  0.271675D+01 -0.815449D-02  0.423555D-02
     33 -0.189550D+01 -0.104957D+00 -0.226067D-01  0.102719D+02 -0.378681D+01
               26            27            28            29            30 
     26  0.385007D+12
     27 -0.289624D+02  0.385007D+12
     28 -0.235353D+02 -0.223711D+02  0.385007D+12
     29 -0.143851D-03  0.370528D-03 -0.186177D-04  0.243533D+11
     30  0.822524D-02  0.212156D-02  0.180803D-03  0.156012D+03  0.385007D+12
     31  0.829544D-02  0.237141D-02  0.461334D-03  0.143177D+03 -0.231726D+02
     32 -0.400839D-02 -0.551236D-02  0.193924D-03  0.157682D+03 -0.232254D+02
     33 -0.194777D+01 -0.188601D+01 -0.342037D+01  0.224436D-01 -0.576517D-01
               31            32            33 
     31  0.385007D+12
     32 -0.233047D+02  0.385007D+12
     33 -0.101355D-01 -0.649413D-01  0.708114D+10
 End of Minotr F.D. properties file   721 does not exist.
 End of Minotr F.D. properties file   722 does not exist.
 End of Minotr F.D. properties file   788 does not exist.
 Leave Link 1002 at Wed Jun 25 04:08:43 2014, MaxMem=  4294967296 cpu:    444343.4
 (Enter /home/ztw1e12/g09/l601.exe)
 Copying SCF densities to generalized density rwf, IOpCl= 0 IROHF=0.

 **********************************************************************

            Population analysis using the SCF density.

 **********************************************************************

 Orbital symmetries:
       Occupied  (A) (A) (A) (A) (A) (A) (A) (A) (A) (A) (A) (A)
                 (A) (A) (A) (A) (A) (A) (A) (A) (A) (A) (A) (A)
                 (A) (A) (A) (A) (A) (A) (A) (A) (A) (A) (A) (A)
                 (A) (A) (A) (A) (A) (A) (A) (A) (A) (A) (A) (A)
                 (A) (A) (A) (A) (A) (A) (A) (A) (A) (A) (A) (A)
                 (A) (A) (A)
       Virtual   (A) (A) (A) (A) (A) (A) (A) (A) (A) (A) (A) (A)
                 (A) (A) (A) (A) (A) (A) (A) (A) (A) (A) (A) (A)
                 (A) (A) (A) (A) (A) (A) (A) (A) (A) (A) (A) (A)
                 (A) (A) (A) (A) (A) (A) (A) (A) (A) (A) (A) (A)
                 (A) (A) (A) (A) (A) (A) (A) (A) (A) (A) (A) (A)
                 (A) (A) (A) (A) (A) (A) (A) (A) (A) (A) (A) (A)
                 (A) (A) (A) (A) (A) (A) (A) (A) (A) (A) (A) (A)
                 (A) (A) (A) (A) (A) (A) (A) (A) (A) (A) (A) (A)
                 (A) (A) (A) (A) (A) (A) (A) (A) (A) (A) (A) (A)
                 (A) (A) (A) (A) (A) (A) (A) (A) (A) (A) (A) (A)
                 (A) (A) (A) (A) (A) (A) (A) (A) (A) (A) (A) (A)
                 (A) (A) (A) (A) (A) (A) (A) (A) (A) (A) (A) (A)
                 (A) (A) (A) (A) (A) (A) (A) (A) (A) (A) (A) (A)
                 (A) (A) (A) (A) (A) (A) (A) (A) (A) (A) (A) (A)
                 (A) (A) (A) (A) (A) (A) (A) (A) (A) (A) (A) (A)
                 (A) (A) (A) (A) (A) (A) (A) (A) (A) (A) (A) (A)
                 (A) (A) (A) (A) (A) (A) (A) (A) (A) (A) (A) (A)
                 (A) (A) (A) (A) (A) (A) (A) (A) (A) (A) (A) (A)
                 (A) (A) (A) (A) (A) (A) (A) (A) (A) (A) (A) (A)
                 (A) (A) (A) (A) (A) (A) (A) (A) (A) (A) (A) (A)
                 (A) (A) (A) (A) (A) (A) (A) (A) (A) (A) (A) (A)
                 (A) (A) (A) (A) (A) (A) (A) (A) (A) (A) (A) (A)
                 (A) (A) (A) (A) (A) (A) (A) (A) (A) (A) (A) (A)
                 (A) (A) (A) (A) (A) (A) (A) (A) (A) (A) (A) (A)
                 (A) (A) (A) (A) (A) (A) (A) (A) (A) (A) (A) (A)
                 (A) (A) (A) (A) (A) (A) (A) (A) (A) (A) (A) (A)
                 (A) (A) (A) (A) (A) (A) (A) (A) (A) (A) (A) (A)
                 (A) (A) (A) (A) (A) (A) (A) (A) (A) (A) (A) (A)
                 (A) (A) (A) (A) (A) (A) (A) (A) (A) (A) (A) (A)
                 (A) (A) (A) (A) (A) (A) (A) (A) (A) (A) (A) (A)
                 (A) (A) (A) (A) (A) (A) (A) (A) (A) (A) (A) (A)
                 (A) (A) (A) (A) (A) (A) (A) (A) (A) (A) (A) (A)
                 (A) (A) (A) (A) (A) (A) (A) (A) (A) (A) (A) (A)
                 (A) (A) (A) (A) (A) (A) (A) (A) (A) (A) (A) (A)
                 (A) (A) (A) (A) (A) (A) (A) (A) (A) (A) (A) (A)
                 (A) (A) (A) (A) (A) (A) (A) (A) (A) (A) (A) (A)
                 (A) (A) (A) (A) (A) (A) (A) (A) (A) (A) (A) (A)
                 (A) (A) (A) (A) (A) (A) (A) (A) (A) (A) (A) (A)
                 (A) (A) (A) (A) (A) (A) (A) (A) (A) (A) (A) (A)
                 (A) (A) (A) (A) (A) (A) (A) (A) (A) (A) (A) (A)
                 (A) (A) (A) (A) (A) (A) (A) (A) (A) (A) (A) (A)
                 (A) (A) (A) (A) (A) (A) (A) (A) (A) (A) (A) (A)
                 (A) (A) (A) (A) (A) (A) (A) (A) (A) (A) (A) (A)
                 (A) (A) (A) (A) (A) (A) (A) (A) (A) (A) (A) (A)
                 (A) (A) (A) (A) (A) (A) (A) (A) (A) (A) (A) (A)
                 (A) (A) (A) (A) (A) (A) (A) (A) (A) (A) (A) (A)
                 (A) (A) (A) (A) (A) (A) (A) (A) (A) (A) (A) (A)
                 (A) (A) (A) (A) (A) (A) (A) (A) (A) (A) (A) (A)
                 (A) (A) (A) (A) (A) (A) (A) (A) (A) (A) (A) (A)
                 (A) (A) (A) (A) (A) (A) (A) (A) (A) (A) (A) (A)
                 (A) (A) (A) (A) (A) (A) (A) (A) (A) (A) (A) (A)
                 (A) (A) (A) (A) (A) (A) (A) (A) (A) (A) (A) (A)
                 (A) (A) (A) (A) (A) (A) (A) (A) (A) (A) (A) (A)
                 (A) (A) (A) (A) (A) (A) (A) (A) (A) (A) (A) (A)
                 (A) (A) (A) (A) (A) (A) (A) (A) (A) (A) (A) (A)
                 (A) (A) (A) (A) (A) (A) (A) (A) (A) (A) (A) (A)
                 (A) (A) (A) (A) (A) (A) (A) (A) (A) (A) (A) (A)
                 (A) (A) (A) (A) (A) (A) (A) (A) (A) (A) (A) (A)
                 (A) (A) (A) (A) (A) (A) (A) (A) (A) (A) (A) (A)
                 (A) (A) (A) (A) (A) (A) (A) (A) (A) (A) (A) (A)
                 (A) (A) (A) (A) (A) (A) (A) (A) (A) (A) (A) (A)
                 (A) (A) (A) (A) (A) (A) (A) (A) (A) (A) (A) (A)
                 (A) (A) (A) (A) (A) (A) (A) (A) (A) (A) (A) (A)
                 (A) (A) (A) (A) (A) (A) (A) (A) (A) (A) (A) (A)
                 (A) (A) (A) (A) (A) (A) (A) (A) (A) (A) (A) (A)
                 (A) (A) (A) (A) (A) (A) (A) (A) (A) (A) (A) (A)
                 (A) (A) (A) (A) (A) (A) (A) (A) (A) (A) (A) (A)
                 (A) (A) (A) (A) (A) (A) (A) (A) (A) (A) (A) (A)
                 (A) (A) (A) (A) (A) (A) (A) (A) (A) (A) (A) (A)
                 (A) (A) (A) (A) (A) (A) (A) (A) (A) (A) (A) (A)
                 (A) (A) (A) (A) (A) (A) (A) (A) (A) (A) (A) (A)
                 (A) (A) (A) (A) (A) (A) (A) (A) (A) (A) (A) (A)
                 (A) (A) (A) (A) (A) (A) (A) (A) (A) (A) (A) (A)
                 (A) (A) (A) (A) (A) (A) (A) (A) (A) (A) (A) (A)
                 (A) (A) (A) (A) (A) (A) (A) (A) (A) (A) (A) (A)
                 (A) (A) (A) (A) (A) (A) (A) (A) (A) (A) (A) (A)
                 (A) (A) (A) (A) (A) (A) (A) (A) (A) (A) (A) (A)
                 (A) (A) (A) (A) (A) (A) (A) (A) (A) (A) (A) (A)
                 (A) (A) (A) (A) (A) (A) (A) (A) (A) (A) (A) (A)
                 (A) (A) (A) (A) (A) (A) (A) (A) (A) (A) (A) (A)
                 (A) (A) (A) (A) (A) (A) (A) (A) (A) (A) (A) (A)
                 (A) (A) (A) (A) (A) (A) (A) (A) (A) (A) (A) (A)
                 (A) (A) (A) (A) (A) (A) (A) (A) (A) (A) (A) (A)
                 (A) (A) (A) (A) (A) (A) (A) (A) (A)
 The electronic state is 1-A.
 Alpha  occ. eigenvalues --  -19.24646 -19.17985 -19.16914 -14.43068 -14.41824
 Alpha  occ. eigenvalues --  -10.34840 -10.33323 -10.30690 -10.29238 -10.27131
 Alpha  occ. eigenvalues --  -10.25892 -10.25255 -10.24861 -10.24790 -10.24538
 Alpha  occ. eigenvalues --  -10.24433 -10.23978  -1.08963  -1.06167  -1.04736
 Alpha  occ. eigenvalues --   -0.96020  -0.93820  -0.87733  -0.81597  -0.77358
 Alpha  occ. eigenvalues --   -0.76634  -0.74363  -0.71894  -0.66745  -0.64200
 Alpha  occ. eigenvalues --   -0.61758  -0.60388  -0.59827  -0.56297  -0.55123
 Alpha  occ. eigenvalues --   -0.52450  -0.51084  -0.49613  -0.48749  -0.47171
 Alpha  occ. eigenvalues --   -0.46731  -0.45830  -0.45253  -0.43837  -0.43325
 Alpha  occ. eigenvalues --   -0.43215  -0.42624  -0.42208  -0.41465  -0.41285
 Alpha  occ. eigenvalues --   -0.40360  -0.39668  -0.38489  -0.36691  -0.36225
 Alpha  occ. eigenvalues --   -0.35078  -0.34975  -0.30310  -0.27710  -0.27407
 Alpha  occ. eigenvalues --   -0.27225  -0.25988  -0.23684
 Alpha virt. eigenvalues --   -0.01407   0.00227   0.00828   0.01743   0.02387
 Alpha virt. eigenvalues --    0.02942   0.03733   0.04714   0.06001   0.06837
 Alpha virt. eigenvalues --    0.07078   0.07847   0.09072   0.09943   0.10193
 Alpha virt. eigenvalues --    0.10636   0.11612   0.12019   0.12328   0.12891
 Alpha virt. eigenvalues --    0.15243   0.15678   0.16390   0.17290   0.17538
 Alpha virt. eigenvalues --    0.19366   0.21369   0.22059   0.23114   0.23821
 Alpha virt. eigenvalues --    0.24403   0.25169   0.25416   0.25888   0.26150
 Alpha virt. eigenvalues --    0.26827   0.27303   0.28375   0.28734   0.29484
 Alpha virt. eigenvalues --    0.30060   0.30853   0.31187   0.32139   0.32975
 Alpha virt. eigenvalues --    0.33297   0.33722   0.34145   0.34588   0.35316
 Alpha virt. eigenvalues --    0.35527   0.36343   0.36719   0.37188   0.37669
 Alpha virt. eigenvalues --    0.38101   0.38401   0.39143   0.39470   0.39881
 Alpha virt. eigenvalues --    0.40047   0.40201   0.41139   0.41484   0.41587
 Alpha virt. eigenvalues --    0.41873   0.42246   0.42702   0.43360   0.43967
 Alpha virt. eigenvalues --    0.44260   0.44796   0.45169   0.46150   0.46674
 Alpha virt. eigenvalues --    0.46856   0.48194   0.48772   0.49122   0.50254
 Alpha virt. eigenvalues --    0.50312   0.51577   0.51883   0.52572   0.53165
 Alpha virt. eigenvalues --    0.54735   0.55377   0.55605   0.55811   0.56238
 Alpha virt. eigenvalues --    0.57725   0.58405   0.60086   0.60404   0.61007
 Alpha virt. eigenvalues --    0.61792   0.61880   0.63480   0.63620   0.64191
 Alpha virt. eigenvalues --    0.65074   0.66176   0.66704   0.67089   0.68566
 Alpha virt. eigenvalues --    0.69078   0.69676   0.70149   0.70393   0.71965
 Alpha virt. eigenvalues --    0.72149   0.72882   0.73972   0.74992   0.75525
 Alpha virt. eigenvalues --    0.75917   0.77046   0.78392   0.79230   0.79850
 Alpha virt. eigenvalues --    0.80387   0.80992   0.81228   0.81745   0.82455
 Alpha virt. eigenvalues --    0.83861   0.84323   0.84731   0.85567   0.85834
 Alpha virt. eigenvalues --    0.86541   0.87318   0.88585   0.89802   0.90670
 Alpha virt. eigenvalues --    0.91024   0.91152   0.92629   0.93385   0.94174
 Alpha virt. eigenvalues --    0.95587   0.95689   0.95987   0.97314   0.97614
 Alpha virt. eigenvalues --    0.97749   0.99039   0.99390   1.00142   1.00869
 Alpha virt. eigenvalues --    1.01255   1.03419   1.03846   1.05054   1.05704
 Alpha virt. eigenvalues --    1.05953   1.07330   1.07495   1.08545   1.09163
 Alpha virt. eigenvalues --    1.10042   1.11320   1.12002   1.12486   1.13061
 Alpha virt. eigenvalues --    1.14970   1.15565   1.15607   1.16651   1.16857
 Alpha virt. eigenvalues --    1.17849   1.18183   1.18662   1.19214   1.19550
 Alpha virt. eigenvalues --    1.20181   1.21699   1.22062   1.22422   1.22559
 Alpha virt. eigenvalues --    1.23037   1.23244   1.23777   1.24697   1.25148
 Alpha virt. eigenvalues --    1.25639   1.26217   1.26409   1.27323   1.27614
 Alpha virt. eigenvalues --    1.28029   1.28321   1.28870   1.30190   1.30835
 Alpha virt. eigenvalues --    1.31750   1.32238   1.32447   1.32990   1.33368
 Alpha virt. eigenvalues --    1.34036   1.34650   1.35313   1.36682   1.37719
 Alpha virt. eigenvalues --    1.38381   1.40763   1.40992   1.41467   1.43170
 Alpha virt. eigenvalues --    1.44219   1.45728   1.47875   1.48778   1.51156
 Alpha virt. eigenvalues --    1.52975   1.53450   1.53868   1.55460   1.57284
 Alpha virt. eigenvalues --    1.58879   1.59738   1.61236   1.64064   1.64772
 Alpha virt. eigenvalues --    1.64858   1.65877   1.66673   1.69202   1.70736
 Alpha virt. eigenvalues --    1.72127   1.73172   1.74212   1.75174   1.78035
 Alpha virt. eigenvalues --    1.79788   1.81197   1.82171   1.83218   1.84776
 Alpha virt. eigenvalues --    1.85433   1.86204   1.88250   1.88773   1.89216
 Alpha virt. eigenvalues --    1.90251   1.91827   1.94287   1.94304   1.96358
 Alpha virt. eigenvalues --    1.96551   1.97977   1.99242   2.01941   2.02835
 Alpha virt. eigenvalues --    2.03906   2.04616   2.05953   2.07389   2.08073
 Alpha virt. eigenvalues --    2.09129   2.10926   2.11459   2.12892   2.13520
 Alpha virt. eigenvalues --    2.14081   2.17127   2.18107   2.18904   2.19927
 Alpha virt. eigenvalues --    2.21495   2.22523   2.23002   2.23287   2.25995
 Alpha virt. eigenvalues --    2.26879   2.27296   2.29767   2.30486   2.32183
 Alpha virt. eigenvalues --    2.33769   2.34881   2.36194   2.37035   2.37131
 Alpha virt. eigenvalues --    2.37999   2.39792   2.40625   2.42118   2.42225
 Alpha virt. eigenvalues --    2.43515   2.43760   2.43971   2.45428   2.48073
 Alpha virt. eigenvalues --    2.49851   2.52041   2.52168   2.53398   2.53999
 Alpha virt. eigenvalues --    2.55505   2.56634   2.57305   2.57550   2.59596
 Alpha virt. eigenvalues --    2.61859   2.63327   2.64648   2.66199   2.66655
 Alpha virt. eigenvalues --    2.67109   2.67552   2.68569   2.69300   2.69454
 Alpha virt. eigenvalues --    2.70059   2.70497   2.70814   2.71209   2.72153
 Alpha virt. eigenvalues --    2.72625   2.73927   2.74128   2.74898   2.76140
 Alpha virt. eigenvalues --    2.76320   2.77345   2.78938   2.79391   2.80422
 Alpha virt. eigenvalues --    2.83398   2.83909   2.84650   2.85117   2.86002
 Alpha virt. eigenvalues --    2.86283   2.87670   2.87859   2.88007   2.88539
 Alpha virt. eigenvalues --    2.89529   2.90122   2.91278   2.91652   2.92514
 Alpha virt. eigenvalues --    2.93037   2.93208   2.94942   2.94979   2.95934
 Alpha virt. eigenvalues --    2.96428   2.96651   2.96931   2.97450   2.98128
 Alpha virt. eigenvalues --    2.99641   3.00028   3.00267   3.01097   3.01166
 Alpha virt. eigenvalues --    3.02214   3.02765   3.02937   3.03873   3.04422
 Alpha virt. eigenvalues --    3.05335   3.06156   3.06498   3.07737   3.09051
 Alpha virt. eigenvalues --    3.09787   3.10552   3.11194   3.12516   3.12784
 Alpha virt. eigenvalues --    3.13125   3.14033   3.15708   3.15857   3.16450
 Alpha virt. eigenvalues --    3.17179   3.17602   3.17770   3.18440   3.19227
 Alpha virt. eigenvalues --    3.19965   3.21352   3.23369   3.24095   3.24754
 Alpha virt. eigenvalues --    3.25455   3.26666   3.26960   3.27525   3.27833
 Alpha virt. eigenvalues --    3.28354   3.28814   3.29358   3.29881   3.30958
 Alpha virt. eigenvalues --    3.31438   3.31905   3.32464   3.32900   3.33612
 Alpha virt. eigenvalues --    3.34894   3.35206   3.36520   3.37613   3.38860
 Alpha virt. eigenvalues --    3.39439   3.39925   3.40984   3.41436   3.42703
 Alpha virt. eigenvalues --    3.42981   3.43638   3.44839   3.45968   3.46291
 Alpha virt. eigenvalues --    3.47147   3.47582   3.48926   3.49674   3.50363
 Alpha virt. eigenvalues --    3.51208   3.52957   3.53423   3.54645   3.54864
 Alpha virt. eigenvalues --    3.55872   3.57649   3.58456   3.59602   3.60463
 Alpha virt. eigenvalues --    3.60739   3.62396   3.63214   3.65032   3.66228
 Alpha virt. eigenvalues --    3.67737   3.67959   3.68851   3.69497   3.69805
 Alpha virt. eigenvalues --    3.70903   3.71151   3.72220   3.72663   3.73750
 Alpha virt. eigenvalues --    3.74135   3.75585   3.76103   3.76474   3.77110
 Alpha virt. eigenvalues --    3.78283   3.79771   3.80540   3.81067   3.81494
 Alpha virt. eigenvalues --    3.82635   3.82956   3.84107   3.84818   3.85874
 Alpha virt. eigenvalues --    3.87071   3.87381   3.88076   3.89122   3.90097
 Alpha virt. eigenvalues --    3.90635   3.91270   3.93111   3.94005   3.95491
 Alpha virt. eigenvalues --    3.96706   3.97120   3.97449   3.98304   4.00584
 Alpha virt. eigenvalues --    4.01209   4.02147   4.02383   4.04101   4.04587
 Alpha virt. eigenvalues --    4.05343   4.06703   4.07248   4.07953   4.08398
 Alpha virt. eigenvalues --    4.08975   4.10074   4.11010   4.12696   4.13165
 Alpha virt. eigenvalues --    4.15140   4.15572   4.16664   4.17257   4.18579
 Alpha virt. eigenvalues --    4.19343   4.20568   4.21210   4.21758   4.22934
 Alpha virt. eigenvalues --    4.23371   4.24460   4.25203   4.25708   4.26398
 Alpha virt. eigenvalues --    4.27512   4.27910   4.28528   4.29415   4.30942
 Alpha virt. eigenvalues --    4.32326   4.33043   4.33758   4.36534   4.38180
 Alpha virt. eigenvalues --    4.38600   4.39623   4.40791   4.42753   4.43813
 Alpha virt. eigenvalues --    4.45522   4.45938   4.48750   4.50519   4.50772
 Alpha virt. eigenvalues --    4.51271   4.54782   4.55111   4.56179   4.57981
 Alpha virt. eigenvalues --    4.58356   4.60110   4.61528   4.62054   4.63315
 Alpha virt. eigenvalues --    4.64622   4.65048   4.65724   4.66265   4.67334
 Alpha virt. eigenvalues --    4.68252   4.69711   4.70760   4.72538   4.73223
 Alpha virt. eigenvalues --    4.73734   4.75045   4.77432   4.77997   4.78989
 Alpha virt. eigenvalues --    4.81123   4.82742   4.83886   4.84017   4.85370
 Alpha virt. eigenvalues --    4.87158   4.88858   4.89819   4.90900   4.91073
 Alpha virt. eigenvalues --    4.91403   4.93008   4.94682   4.95416   4.95892
 Alpha virt. eigenvalues --    4.98143   4.99131   5.00729   5.01368   5.01972
 Alpha virt. eigenvalues --    5.03739   5.05643   5.06810   5.07368   5.09321
 Alpha virt. eigenvalues --    5.10313   5.11554   5.11861   5.14450   5.14852
 Alpha virt. eigenvalues --    5.15179   5.16217   5.17209   5.18300   5.20847
 Alpha virt. eigenvalues --    5.21750   5.22116   5.24083   5.24723   5.25960
 Alpha virt. eigenvalues --    5.29708   5.31133   5.34346   5.35689   5.36359
 Alpha virt. eigenvalues --    5.40391   5.42961   5.43971   5.45555   5.47413
 Alpha virt. eigenvalues --    5.49772   5.51648   5.52331   5.52707   5.55185
 Alpha virt. eigenvalues --    5.57275   5.57686   5.59460   5.61013   5.62501
 Alpha virt. eigenvalues --    5.63020   5.64243   5.64912   5.66552   5.67668
 Alpha virt. eigenvalues --    5.68916   5.69690   5.71284   5.72517   5.73507
 Alpha virt. eigenvalues --    5.74963   5.76522   5.79181   5.79921   5.82408
 Alpha virt. eigenvalues --    5.85447   5.87440   5.89243   5.89977   5.96471
 Alpha virt. eigenvalues --    5.98210   5.98547   6.03044   6.06905   6.10513
 Alpha virt. eigenvalues --    6.16915   6.17674   6.18688   6.20196   6.27642
 Alpha virt. eigenvalues --    6.46384   6.46978   6.50498   6.52124   6.56082
 Alpha virt. eigenvalues --    6.60502   6.61123   6.62753   6.64516   6.66763
 Alpha virt. eigenvalues --    6.78761   6.80091   6.80450   6.88446   6.88616
 Alpha virt. eigenvalues --    6.91107   6.91197   6.91816   6.92685   7.06689
 Alpha virt. eigenvalues --    7.17090   7.18719   7.22523   7.27418   7.29314
 Alpha virt. eigenvalues --    7.67952   7.98931   8.10013   8.12261   8.14085
 Alpha virt. eigenvalues --    8.18786   8.21897   8.24031   8.35691   8.65935
 Alpha virt. eigenvalues --    8.73397   8.76331   8.77314   8.80113   8.81587
 Alpha virt. eigenvalues --    8.83265   8.84369   8.84786   8.87176   8.87802
 Alpha virt. eigenvalues --    8.92788   8.93218   8.96796   9.01596   9.07680
 Alpha virt. eigenvalues --    9.09347   9.14196   9.18656   9.20781   9.31268
 Alpha virt. eigenvalues --    9.36121   9.40298   9.41394   9.46212   9.49180
 Alpha virt. eigenvalues --    9.57819   9.61181   9.77460   9.81615  10.01405
 Alpha virt. eigenvalues --   10.07045  10.10648  10.11276  10.13632  10.17009
[...]
 Alpha virt. eigenvalues --    6.45124   6.47278   6.50505   6.52062   6.53600
 Alpha virt. eigenvalues --    6.56690   6.61759   6.62692   6.64620   6.67971
 Alpha virt. eigenvalues --    6.78570   6.80861   6.86012   6.86475   6.89229
 Alpha virt. eigenvalues --    6.90951   6.93203   7.08486   7.09008   7.10309
 Alpha virt. eigenvalues --    7.15215   7.18851   7.29090   7.43597   8.60887
 Alpha virt. eigenvalues --    9.48640   9.84330  11.87234  12.09760  12.28780
 Alpha virt. eigenvalues --   12.41752  12.64070  12.72646  12.95370  13.18276
 Alpha virt. eigenvalues --   13.46934  13.51791  13.58377  13.72379  13.98490
 Alpha virt. eigenvalues --   15.53671
          Condensed to atoms (all electrons):
               1          2          3          4          5          6
     1  C    5.431606   0.210096   0.005731  -0.045150  -0.022833   0.301000
     2  C    0.210096   5.439070   0.268255  -0.011677  -0.038839   0.025393
     3  C    0.005731   0.268255   5.511815   0.292198  -0.044374  -0.073322
     4  C   -0.045150  -0.011677   0.292198   5.202966   0.448528  -0.028409
     5  C   -0.022833  -0.038839  -0.044374   0.448528   5.045880   0.403793
     6  C    0.301000   0.025393  -0.073322  -0.028409   0.403793   4.867670
     7  H    0.451887  -0.033326   0.010195  -0.000511   0.003561  -0.075137
     8  H   -0.015377   0.434375  -0.098613   0.004885  -0.001574   0.008513
     9  H   -0.003414   0.009188  -0.103493   0.457090  -0.030954   0.011161
    10  H    0.014322  -0.006127   0.014144  -0.056326   0.450770  -0.077556
    11  C    0.007395  -0.090730   0.148803  -0.041821   0.008980  -0.001635
    12  H    0.000483  -0.006483  -0.046539   0.005187  -0.000142   0.000063
    13  H   -0.000210   0.008465  -0.035608  -0.010121  -0.000229  -0.000022
    14  C   -0.000075  -0.001273  -0.003277  -0.000801  -0.000152  -0.000067
    15  H    0.000373   0.001732   0.009707  -0.001704  -0.000229  -0.000037
    16  C    0.000011  -0.000792  -0.016145   0.002267   0.000032  -0.000008
    17  O   -0.091339   0.014205  -0.000822   0.003043  -0.049240   0.392961
    18  H   -0.004722   0.004806  -0.000485  -0.000676   0.002238  -0.043671
    19  O    0.000143  -0.000966  -0.005566  -0.000209  -0.000003   0.000005
    20  N   -0.000042   0.000904  -0.004636   0.002255   0.000092   0.000020
    21  H   -0.000020  -0.000248  -0.003878   0.003892   0.000073   0.000006
    22  N    0.000002   0.000156   0.002829  -0.000103  -0.000001   0.000000
    23  H    0.000001  -0.000017   0.000305  -0.000039   0.000000   0.000000
    24  C    0.000000   0.000035  -0.001626  -0.000251  -0.000017   0.000004
    25  C    0.000000  -0.000004  -0.000031   0.000005  -0.000002   0.000000
    26  H    0.000000   0.000002   0.000032  -0.000022   0.000000   0.000000
    27  H    0.000000   0.000000  -0.000016   0.000006   0.000000   0.000000
    28  H    0.000000   0.000007  -0.000011  -0.000034  -0.000003   0.000000
    29  C    0.000000  -0.000008  -0.000025   0.000005   0.000000   0.000000
    30  H    0.000000   0.000003  -0.000104   0.000001   0.000000   0.000000
    31  H    0.000000   0.000000  -0.000004   0.000000   0.000000   0.000000
    32  H    0.000000  -0.000002   0.000030   0.000000   0.000000   0.000000
    33  O    0.000000  -0.000090   0.000201  -0.000035   0.000000   0.000000
               7          8          9         10         11         12
     1  C    0.451887  -0.015377  -0.003414   0.014322   0.007395   0.000483
     2  C   -0.033326   0.434375   0.009188  -0.006127  -0.090730  -0.006483
     3  C    0.010195  -0.098613  -0.103493   0.014144   0.148803  -0.046539
     4  C   -0.000511   0.004885   0.457090  -0.056326  -0.041821   0.005187
     5  C    0.003561  -0.001574  -0.030954   0.450770   0.008980  -0.000142
     6  C   -0.075137   0.008513   0.011161  -0.077556  -0.001635   0.000063
     7  H    0.533492  -0.007302   0.000049  -0.000220  -0.000278  -0.000029
     8  H   -0.007302   0.494958  -0.000132   0.000034  -0.003066   0.000941
     9  H    0.000049  -0.000132   0.518467  -0.009493   0.003631   0.000366
    10  H   -0.000220   0.000034  -0.009493   0.542138  -0.000331   0.000013
    11  C   -0.000278  -0.003066   0.003631  -0.000331   5.518778   0.432662
    12  H   -0.000029   0.000941   0.000366   0.000013   0.432662   0.439388
    13  H    0.000017   0.000563   0.001365  -0.000043   0.403365  -0.002791
    14  C    0.000017  -0.001064  -0.000766   0.000029   0.140511  -0.067574
    15  H    0.000034   0.002245   0.000032   0.000015  -0.031266   0.001952
    16  C   -0.000009  -0.001139   0.000073  -0.000001  -0.030088   0.012159
    17  O   -0.004184  -0.000074  -0.000139   0.006200  -0.000008  -0.000001
    18  H    0.004486   0.000019   0.000048  -0.000941  -0.000011   0.000000
    19  O   -0.000012   0.012136   0.000000   0.000000   0.005670   0.005304
    20  N   -0.000002   0.000463   0.000529  -0.000007  -0.036279   0.003705
    21  H    0.000000  -0.000067   0.001173  -0.000009   0.004117   0.000918
    22  N    0.000000   0.000451   0.000006   0.000000   0.010175  -0.001723
    23  H    0.000000  -0.000026  -0.000014   0.000000   0.001038  -0.000298
    24  C    0.000000   0.000073  -0.000004  -0.000001   0.012234   0.000020
    25  C    0.000000   0.000001   0.000031   0.000000   0.000299   0.000036
    26  H    0.000000   0.000000  -0.000007   0.000000  -0.000013  -0.000002
    27  H    0.000000   0.000000   0.000001   0.000000  -0.000002   0.000000
    28  H    0.000000   0.000000   0.000001   0.000000  -0.000191  -0.000006
    29  C    0.000000  -0.000035   0.000000   0.000000  -0.000944  -0.000035
    30  H    0.000000  -0.000005   0.000000   0.000000  -0.000583   0.000439
    31  H    0.000000  -0.000001   0.000000   0.000000  -0.000070  -0.000004
    32  H    0.000000  -0.000003   0.000000   0.000000   0.000115  -0.000077
    33  O    0.000000  -0.000005  -0.000004   0.000000   0.001950   0.000055
              13         14         15         16         17         18
     1  C   -0.000210  -0.000075   0.000373   0.000011  -0.091339  -0.004722
     2  C    0.008465  -0.001273   0.001732  -0.000792   0.014205   0.004806
     3  C   -0.035608  -0.003277   0.009707  -0.016145  -0.000822  -0.000485
     4  C   -0.010121  -0.000801  -0.001704   0.002267   0.003043  -0.000676
     5  C   -0.000229  -0.000152  -0.000229   0.000032  -0.049240   0.002238
     6  C   -0.000022  -0.000067  -0.000037  -0.000008   0.392961  -0.043671
     7  H    0.000017   0.000017   0.000034  -0.000009  -0.004184   0.004486
     8  H    0.000563  -0.001064   0.002245  -0.001139  -0.000074   0.000019
     9  H    0.001365  -0.000766   0.000032   0.000073  -0.000139   0.000048
    10  H   -0.000043   0.000029   0.000015  -0.000001   0.006200  -0.000941
    11  C    0.403365   0.140511  -0.031266  -0.030088  -0.000008  -0.000011
    12  H   -0.002791  -0.067574   0.001952   0.012159  -0.000001   0.000000
    13  H    0.480891  -0.029515   0.004295  -0.010127   0.000000   0.000000
    14  C   -0.029515   5.535909   0.442534   0.144920   0.000001   0.000000
    15  H    0.004295   0.442534   0.421540  -0.077594   0.000000   0.000000
    16  C   -0.010127   0.144920  -0.077594   4.829500   0.000000   0.000000
    17  O    0.000000   0.000001   0.000000   0.000000   7.664542   0.360130
    18  H    0.000000   0.000000   0.000000   0.000000   0.360130   0.489696
    19  O    0.001165  -0.072553   0.003638   0.705116   0.000000   0.000000
    20  N   -0.010354   0.187863  -0.037847  -0.057035   0.000000   0.000000
    21  H    0.002938  -0.026594   0.001373   0.003815   0.000000   0.000000
    22  N    0.001726  -0.076470   0.003451   0.294465   0.000000   0.000000
    23  H    0.000999   0.000817   0.001403  -0.037054   0.000000   0.000000
    24  C    0.000353  -0.086245  -0.004463   0.007285   0.000000   0.000000
    25  C   -0.000085   0.006186   0.001789  -0.000891   0.000000   0.000000
    26  H    0.000030  -0.000098   0.000096  -0.000208   0.000000   0.000000
    27  H   -0.000026  -0.000615  -0.000195   0.000523   0.000000   0.000000
    28  H   -0.000031   0.001834  -0.000277  -0.000341   0.000000   0.000000
    29  C   -0.000194   0.008803  -0.000694  -0.049858   0.000000   0.000000
    30  H   -0.000012  -0.000768  -0.000168  -0.002400   0.000000   0.000000
    31  H   -0.000019   0.000596  -0.000011   0.008134   0.000000   0.000000
    32  H   -0.000005   0.000754   0.000165  -0.004939   0.000000   0.000000
    33  O    0.000002   0.000484   0.017873   0.007181   0.000000   0.000000
              19         20         21         22         23         24
     1  C    0.000143  -0.000042  -0.000020   0.000002   0.000001   0.000000
     2  C   -0.000966   0.000904  -0.000248   0.000156  -0.000017   0.000035
     3  C   -0.005566  -0.004636  -0.003878   0.002829   0.000305  -0.001626
     4  C   -0.000209   0.002255   0.003892  -0.000103  -0.000039  -0.000251
     5  C   -0.000003   0.000092   0.000073  -0.000001   0.000000  -0.000017
     6  C    0.000005   0.000020   0.000006   0.000000   0.000000   0.000004
     7  H   -0.000012  -0.000002   0.000000   0.000000   0.000000   0.000000
     8  H    0.012136   0.000463  -0.000067   0.000451  -0.000026   0.000073
     9  H    0.000000   0.000529   0.001173   0.000006  -0.000014  -0.000004
    10  H    0.000000  -0.000007  -0.000009   0.000000   0.000000  -0.000001
    11  C    0.005670  -0.036279   0.004117   0.010175   0.001038   0.012234
    12  H    0.005304   0.003705   0.000918  -0.001723  -0.000298   0.000020
    13  H    0.001165  -0.010354   0.002938   0.001726   0.000999   0.000353
    14  C   -0.072553   0.187863  -0.026594  -0.076470   0.000817  -0.086245
    15  H    0.003638  -0.037847   0.001373   0.003451   0.001403  -0.004463
    16  C    0.705116  -0.057035   0.003815   0.294465  -0.037054   0.007285
    17  O    0.000000   0.000000   0.000000   0.000000   0.000000   0.000000
    18  H    0.000000   0.000000   0.000000   0.000000   0.000000   0.000000
    19  O    7.847800   0.005389  -0.000240  -0.125707   0.005258  -0.000856
    20  N    0.005389   6.664906   0.359088   0.000878   0.028649   0.304794
    21  H   -0.000240   0.359088   0.509205  -0.000337  -0.000666  -0.016219
    22  N   -0.125707   0.000878  -0.000337   6.485127   0.384035   0.008067
    23  H    0.005258   0.028649  -0.000666   0.384035   0.519703  -0.005608
    24  C   -0.000856   0.304794  -0.016219   0.008067  -0.005608   4.621875
    25  C   -0.000006  -0.065326  -0.001525  -0.000479   0.000276   0.278189
    26  H    0.000000  -0.000203  -0.000311   0.000002   0.000157  -0.027033
    27  H   -0.000002  -0.000335   0.000416   0.000219  -0.000628  -0.023169
    28  H    0.000001   0.013369  -0.001267   0.000130   0.000234  -0.059634
    29  C    0.008124  -0.002082   0.000113   0.285915  -0.033038   0.000073
    30  H    0.005767  -0.000136   0.000000  -0.048751   0.001313   0.000168
    31  H    0.001514  -0.000212   0.000028  -0.028270  -0.008029  -0.000043
    32  H    0.004490  -0.000161   0.000011  -0.047547   0.003262  -0.000383
    33  O   -0.000141  -0.132092   0.004843  -0.006181  -0.003440   0.721131
              25         26         27         28         29         30
     1  C    0.000000   0.000000   0.000000   0.000000   0.000000   0.000000
     2  C   -0.000004   0.000002   0.000000   0.000007  -0.000008   0.000003
     3  C   -0.000031   0.000032  -0.000016  -0.000011  -0.000025  -0.000104
     4  C    0.000005  -0.000022   0.000006  -0.000034   0.000005   0.000001
     5  C   -0.000002   0.000000   0.000000  -0.000003   0.000000   0.000000
     6  C    0.000000   0.000000   0.000000   0.000000   0.000000   0.000000
     7  H    0.000000   0.000000   0.000000   0.000000   0.000000   0.000000
     8  H    0.000001   0.000000   0.000000   0.000000  -0.000035  -0.000005
     9  H    0.000031  -0.000007   0.000001   0.000001   0.000000   0.000000
    10  H    0.000000   0.000000   0.000000   0.000000   0.000000   0.000000
    11  C    0.000299  -0.000013  -0.000002  -0.000191  -0.000944  -0.000583
    12  H    0.000036  -0.000002   0.000000  -0.000006  -0.000035   0.000439
    13  H   -0.000085   0.000030  -0.000026  -0.000031  -0.000194  -0.000012
    14  C    0.006186  -0.000098  -0.000615   0.001834   0.008803  -0.000768
    15  H    0.001789   0.000096  -0.000195  -0.000277  -0.000694  -0.000168
    16  C   -0.000891  -0.000208   0.000523  -0.000341  -0.049858  -0.002400
    17  O    0.000000   0.000000   0.000000   0.000000   0.000000   0.000000
    18  H    0.000000   0.000000   0.000000   0.000000   0.000000   0.000000
    19  O   -0.000006   0.000000  -0.000002   0.000001   0.008124   0.005767
    20  N   -0.065326  -0.000203  -0.000335   0.013369  -0.002082  -0.000136
    21  H   -0.001525  -0.000311   0.000416  -0.001267   0.000113   0.000000
    22  N   -0.000479   0.000002   0.000219   0.000130   0.285915  -0.048751
    23  H    0.000276   0.000157  -0.000628   0.000234  -0.033038   0.001313
    24  C    0.278189  -0.027033  -0.023169  -0.059634   0.000073   0.000168
    25  C    4.992932   0.390780   0.382843   0.397073  -0.000062   0.000001
    26  H    0.390780   0.558458  -0.022663  -0.024492  -0.000002   0.000000
    27  H    0.382843  -0.022663   0.570774  -0.028108   0.000025   0.000002
    28  H    0.397073  -0.024492  -0.028108   0.600176   0.000000   0.000000
    29  C   -0.000062  -0.000002   0.000025   0.000000   4.759167   0.396625
    30  H    0.000001   0.000000   0.000002   0.000000   0.396625   0.618642
    31  H   -0.000011   0.000000   0.000012   0.000001   0.394417  -0.027021
    32  H   -0.000009   0.000000  -0.000001  -0.000002   0.401758  -0.055260
    33  O   -0.068469   0.001031   0.002166   0.004416   0.000230   0.000004
              31         32         33
     1  C    0.000000   0.000000   0.000000
     2  C    0.000000  -0.000002  -0.000090
     3  C   -0.000004   0.000030   0.000201
     4  C    0.000000   0.000000  -0.000035
     5  C    0.000000   0.000000   0.000000
     6  C    0.000000   0.000000   0.000000
     7  H    0.000000   0.000000   0.000000
     8  H   -0.000001  -0.000003  -0.000005
     9  H    0.000000   0.000000  -0.000004
    10  H    0.000000   0.000000   0.000000
    11  C   -0.000070   0.000115   0.001950
    12  H   -0.000004  -0.000077   0.000055
    13  H   -0.000019  -0.000005   0.000002
    14  C    0.000596   0.000754   0.000484
    15  H   -0.000011   0.000165   0.017873
    16  C    0.008134  -0.004939   0.007181
    17  O    0.000000   0.000000   0.000000
    18  H    0.000000   0.000000   0.000000
    19  O    0.001514   0.004490  -0.000141
    20  N   -0.000212  -0.000161  -0.132092
    21  H    0.000028   0.000011   0.004843
    22  N   -0.028270  -0.047547  -0.006181
    23  H   -0.008029   0.003262  -0.003440
    24  C   -0.000043  -0.000383   0.721131
    25  C   -0.000011  -0.000009  -0.068469
    26  H    0.000000   0.000000   0.001031
    27  H    0.000012  -0.000001   0.002166
    28  H    0.000001  -0.000002   0.004416
    29  C    0.394417   0.401758   0.000230
    30  H   -0.027021  -0.055260   0.000004
    31  H    0.603371  -0.028450   0.000009
    32  H   -0.028450   0.609794   0.000241
    33  O    0.000009   0.000241   7.827490
 Mulliken charges:
               1
     1  C   -0.239867
     2  C   -0.226108
     3  C    0.174331
     4  C   -0.224438
     5  C   -0.175357
     6  C    0.289276
     7  H    0.117271
     8  H    0.168828
     9  H    0.145209
    10  H    0.123389
    11  C   -0.462406
    12  H    0.222014
    13  H    0.193216
    14  C   -0.103350
    15  H    0.240238
    16  C    0.273148
    17  O   -0.295274
    18  H    0.189082
    19  O   -0.405260
    20  N   -0.226156
    21  H    0.159370
    22  N   -0.142064
    23  H    0.141410
    24  C    0.271250
    25  C   -0.313541
    26  H    0.124465
    27  H    0.118773
    28  H    0.097155
    29  C   -0.168281
    30  H    0.112243
    31  H    0.084064
    32  H    0.116220
    33  O   -0.378849
 Sum of Mulliken charges =   0.00000
 Mulliken charges with hydrogens summed into heavy atoms:
               1
     1  C   -0.122596
     2  C   -0.057281
     3  C    0.174331
     4  C   -0.079229
     5  C   -0.051968
     6  C    0.289276
    11  C   -0.047176
    14  C    0.136888
    16  C    0.273148
    17  O   -0.106192
    19  O   -0.405260
    20  N   -0.066786
    22  N   -0.000655
    24  C    0.271250
    25  C    0.026853
    29  C    0.144246
    33  O   -0.378849
 Electronic spatial extent (au):  <R**2>=           5392.9391
 Charge=              0.0000 electrons
 Dipole moment (field-independent basis, Debye):
    X=              0.3064    Y=              2.0897    Z=             -4.2274  Tot=              4.7256
 Quadrupole moment (field-independent basis, Debye-Ang):
   XX=            -89.0231   YY=            -99.7494   ZZ=           -101.5922
   XY=              8.0395   XZ=            -19.2253   YZ=             -5.3251
 Traceless Quadrupole moment (field-independent basis, Debye-Ang):
   XX=              7.7652   YY=             -2.9612   ZZ=             -4.8040
   XY=              8.0395   XZ=            -19.2253   YZ=             -5.3251
 Octapole moment (field-independent basis, Debye-Ang**2):
  XXX=             47.4753  YYY=             39.2620  ZZZ=             -1.8036  XYY=              6.0063
  XXY=            -37.7353  XXZ=             14.5310  XZZ=            -22.3078  YZZ=             -2.8182
  YYZ=            -11.9099  XYZ=             12.5266
 Hexadecapole moment (field-independent basis, Debye-Ang**3):
 XXXX=          -4683.1096 YYYY=          -1424.1993 ZZZZ=           -487.3307 XXXY=            109.5784
 XXXZ=           -333.3953 YYYX=             52.5116 YYYZ=             22.1150 ZZZX=            -61.3751
 ZZZY=            -29.8517 XXYY=          -1035.5226 XXZZ=           -873.2349 YYZZ=           -329.8729
 XXYZ=            -86.1666 YYXZ=            -37.1697 ZZXY=            -10.7413
 N-N= 1.193926859057D+03 E-N=-4.258173395708D+03  KE= 7.961995720586D+02
 Calculating spin-rotation constants.
 Leave Link  601 at Wed Jun 25 08:57:15 2014, MaxMem=  4294967296 cpu:        91.9
 (Enter /home/ztw1e12/g09/l9999.exe)

 Test job not archived.
 1\1\GINC-GREEN0540\SP\RM06\Gen\C12H16N2O3\ROOT\25-Jun-2014\0\\#P Geom=
 AllCheck Guess=TCheck SCRF=Check GenChk RM06/ChkBas NMR=ReadFC IOp(3/6
 =22)\\NMR spin-spin scan\\0,1\C,0,2.190085,-2.627548,1.504057\C,0,1.55
 9441,-1.398211,1.472401\C,0,1.539674,-0.629017,0.314546\C,0,2.165845,-
 1.130703,-0.818601\C,0,2.802572,-2.35973,-0.804174\C,0,2.815383,-3.108
 58,0.361242\H,0,2.206074,-3.222626,2.410018\H,0,1.068615,-1.023749,2.3
 65173\H,0,2.157825,-0.543989,-1.730739\H,0,3.293734,-2.747333,-1.68767
 3\C,0,0.830709,0.69046,0.292088\H,0,1.121995,1.260209,1.177738\H,0,1.1
 35743,1.282887,-0.573295\C,0,-0.700425,0.552897,0.295252\H,0,-0.982134
 ,-0.420528,0.705684\C,0,-1.285058,1.57145,1.25935\O,0,3.456129,-4.3115
 12,0.338547\H,0,3.399868,-4.718264,1.210387\O,0,-1.18063,1.37915,2.470
 871\N,0,-1.212068,0.670235,-1.052561\H,0,-0.57419,0.924669,-1.792\N,0,
 -1.83982,2.666937,0.744381\H,0,-1.919715,2.743814,-0.256971\C,0,-2.457
 54,0.26575,-1.378106\C,0,-2.823044,0.34162,-2.8231\H,0,-3.014074,-0.66
 8063,-3.187317\H,0,-3.749689,0.90542,-2.923585\H,0,-2.051358,0.8016,-3
 .436622\C,0,-2.357162,3.721845,1.585431\H,0,-1.580678,4.109152,2.24496
 4\H,0,-2.716553,4.529622,0.955522\H,0,-3.182966,3.366854,2.202812\O,0,
 -3.245744,-0.137185,-0.526851\\Version=EM64L-G09RevD.01\State=1-A\HF=-
 801.8604232\RMSD=4.369e-09\Dipole=0.6867214,0.8492486,-1.5045997\Quadr
 upole=-10.1436852,8.7857125,1.3579727,-6.4184297,7.4497648,-9.6701971\
 PG=C01 [X(C12H16N2O3)]\\@


 MUD THROWN IS GROUND LOST -- FROM A TEA BAG
 Job cpu time:       3 days  4 hours 32 minutes 43.7 seconds.
 File lengths (MBytes):  RWF=   3656 Int=      0 D2E=      0 Chk=     64 Scr=      8
 Normal termination of Gaussian 09 at Wed Jun 25 08:57:16 2014.
