 Entering Gaussian System, Link 0=g09
 Input=scan_input_34.gjf
 Output=scan_input_34.log
 Initial command:
 /home/ztw1e12/g09/l1.exe "/home/ztw1e12/tyrosine_scan/tyrosine_chi1_scan/Gau-9829.inp" -scrdir="/home/ztw1e12/tyrosine_scan/tyrosine_chi1_scan/"
 Default is to use a total of   8 processors:
                                8 via shared-memory
                                1 via Linda
 Entering Link 1 = /home/ztw1e12/g09/l1.exe PID=      9830.
  
 Copyright (c) 1988,1990,1992,1993,1995,1998,2003,2009,2013,
            Gaussian, Inc.  All Rights Reserved.
  
 This is part of the Gaussian(R) 09 program.  It is based on
 the Gaussian(R) 03 system (copyright 2003, Gaussian, Inc.),
 the Gaussian(R) 98 system (copyright 1998, Gaussian, Inc.),
 the Gaussian(R) 94 system (copyright 1995, Gaussian, Inc.),
 the Gaussian 92(TM) system (copyright 1992, Gaussian, Inc.),
 the Gaussian 90(TM) system (copyright 1990, Gaussian, Inc.),
 the Gaussian 88(TM) system (copyright 1988, Gaussian, Inc.),
 the Gaussian 86(TM) system (copyright 1986, Carnegie Mellon
 University), and the Gaussian 82(TM) system (copyright 1983,
 Carnegie Mellon University). Gaussian is a federally registered
 trademark of Gaussian, Inc.
  
 This software contains proprietary and confidential information,
 including trade secrets, belonging to Gaussian, Inc.
  
 This software is provided under written license and may be
 used, copied, transmitted, or stored only in accord with that
 written license.
  
 The following legend is applicable only to US Government
 contracts under FAR:
  
                    RESTRICTED RIGHTS LEGEND
  
 Use, reproduction and disclosure by the US Government is
 subject to restrictions as set forth in subparagraphs (a)
 and (c) of the Commercial Computer Software - Restricted
 Rights clause in FAR 52.227-19.
  
 Gaussian, Inc.
 340 Quinnipiac St., Bldg. 40, Wallingford CT 06492
  
  
 ---------------------------------------------------------------
 Warning -- This program may not be used in any manner that
 competes with the business of Gaussian, Inc. or will provide
 assistance to any competitor of Gaussian, Inc.  The licensee
 of this program is prohibited from giving any competitor of
 Gaussian, Inc. access to this program.  By using this program,
 the user acknowledges that Gaussian, Inc. is engaged in the
 business of creating and licensing software in the field of
 computational chemistry and represents and warrants to the
 licensee that it is not a competitor of Gaussian, Inc. and that
 it will not use this program in any manner prohibited above.
 ---------------------------------------------------------------
  

 Cite this work as:
 Gaussian 09, Revision D.01,
 M. J. Frisch, G. W. Trucks, H. B. Schlegel, G. E. Scuseria, 
 M. A. Robb, J. R. Cheeseman, G. Scalmani, V. Barone, B. Mennucci, 
 G. A. Petersson, H. Nakatsuji, M. Caricato, X. Li, H. P. Hratchian, 
 A. F. Izmaylov, J. Bloino, G. Zheng, J. L. Sonnenberg, M. Hada, 
 M. Ehara, K. Toyota, R. Fukuda, J. Hasegawa, M. Ishida, T. Nakajima, 
 Y. Honda, O. Kitao, H. Nakai, T. Vreven, J. A. Montgomery, Jr., 
 J. E. Peralta, F. Ogliaro, M. Bearpark, J. J. Heyd, E. Brothers, 
 K. N. Kudin, V. N. Staroverov, T. Keith, R. Kobayashi, J. Normand, 
 K. Raghavachari, A. Rendell, J. C. Burant, S. S. Iyengar, J. Tomasi, 
 M. Cossi, N. Rega, J. M. Millam, M. Klene, J. E. Knox, J. B. Cross, 
 V. Bakken, C. Adamo, J. Jaramillo, R. Gomperts, R. E. Stratmann, 
 O. Yazyev, A. J. Austin, R. Cammi, C. Pomelli, J. W. Ochterski, 
 R. L. Martin, K. Morokuma, V. G. Zakrzewski, G. A. Voth, 
 P. Salvador, J. J. Dannenberg, S. Dapprich, A. D. Daniels, 
 O. Farkas, J. B. Foresman, J. V. Ortiz, J. Cioslowski, 
 and D. J. Fox, Gaussian, Inc., Wallingford CT, 2013.
 
 ******************************************
 Gaussian 09:  EM64L-G09RevD.01 24-Apr-2013
                25-Jun-2014 
 ******************************************
 %Mem=32GB
 %NProcShared=16
 Will use up to   16 processors via shared memory.
 Default route:  MaxDisk=100GB
 ----------------------------------------------------------------------
 #p nmr=(giao,mixed,spinspin) m06/cc-pvtz scf=tight integral=(grid=ultr
 afine)
 ----------------------------------------------------------------------
 1/38=1/1;
 2/12=2,17=6,18=5,40=1/2;
 3/5=16,6=1,10=1100000,11=2,16=1,25=1,30=1,74=-54,75=-5/1,2,8,3;
 4//1;
 5/5=2,32=2,38=5/2;
 8/6=1,10=90,11=11/1;
 10/13=100,45=16,47=3/2;
 6/7=2,8=2,9=2,10=2,28=1/1;
 99/9=1/99;
 Leave Link    1 at Wed Jun 25 04:33:43 2014, MaxMem=  4294967296 cpu:         9.7
 (Enter /home/ztw1e12/g09/l101.exe)
 ------------------
 NMR spin-spin scan
 ------------------
 Symbolic Z-matrix:
 Charge =  0 Multiplicity = 1
 C                     2.00459  -2.87435   1.0991 
 C                     1.40732  -1.66365   1.39573 
 C                     1.46801  -0.5932    0.51053 
 C                     2.14722  -0.77228  -0.68786 
 C                     2.7495   -1.97793  -1.00147 
 C                     2.67631  -3.03245  -0.10548 
 H                     1.95936  -3.70344   1.79639 
 H                     0.88427  -1.54391   2.33872 
 H                     2.20878   0.05204  -1.39036 
 H                     3.27953  -2.11279  -1.93576 
 C                     0.79143   0.70254   0.83864 
 H                     1.00505   0.98619   1.87141 
 H                     1.16477   1.50584   0.19604 
 C                    -0.7277    0.62798   0.69579 
 H                    -1.0997   -0.22944   1.26492 
 C                    -1.34305   1.84934   1.35726 
 O                     3.28243  -4.20325  -0.45055 
 H                     3.15278  -4.85003   0.2521 
 O                    -1.38765   1.91331   2.58511 
 N                    -1.08739   0.46808  -0.69466 
 H                    -0.36944   0.56786  -1.39723 
 N                    -1.76656   2.8319    0.56334 
 H                    -1.74753   2.68793  -0.43348 
 C                    -2.31182   0.04385  -1.07051 
 C                    -2.52128  -0.16912  -2.53263 
 H                    -2.76944  -1.21717  -2.70038 
 H                    -3.37521   0.42482  -2.85667 
 H                    -1.65163   0.09234  -3.13133 
 C                    -2.3674    4.03238   1.09722 
 H                    -1.65613   4.59203   1.70489 
 H                    -2.69174   4.66025   0.27317 
 H                    -3.23183   3.79423   1.7176 
 O                    -3.20501  -0.15235  -0.25073 
 
 NAtoms=     33 NQM=       33 NQMF=       0 NMMI=      0 NMMIF=      0
                NMic=       0 NMicF=      0.
                    Isotopes and Nuclear Properties:
 (Nuclear quadrupole moments (NQMom) in fm**2, nuclear magnetic moments (NMagM)
  in nuclear magnetons)

  Atom         1           2           3           4           5           6           7           8           9          10
 IAtWgt=          12          12          12          12          12          12           1           1           1           1
 AtmWgt=  12.0000000  12.0000000  12.0000000  12.0000000  12.0000000  12.0000000   1.0078250   1.0078250   1.0078250   1.0078250
 NucSpn=           0           0           0           0           0           0           1           1           1           1
 AtZEff=   0.0000000   0.0000000   0.0000000   0.0000000   0.0000000   0.0000000   0.0000000   0.0000000   0.0000000   0.0000000
 NQMom=    0.0000000   0.0000000   0.0000000   0.0000000   0.0000000   0.0000000   0.0000000   0.0000000   0.0000000   0.0000000
 NMagM=    0.0000000   0.0000000   0.0000000   0.0000000   0.0000000   0.0000000   2.7928460   2.7928460   2.7928460   2.7928460
 AtZNuc=   6.0000000   6.0000000   6.0000000   6.0000000   6.0000000   6.0000000   1.0000000   1.0000000   1.0000000   1.0000000

  Atom        11          12          13          14          15          16          17          18          19          20
 IAtWgt=          12           1           1          12           1          12          16           1          16          14
 AtmWgt=  12.0000000   1.0078250   1.0078250  12.0000000   1.0078250  12.0000000  15.9949146   1.0078250  15.9949146  14.0030740
 NucSpn=           0           1           1           0           1           0           0           1           0           2
 AtZEff=   0.0000000   0.0000000   0.0000000   0.0000000   0.0000000   0.0000000   0.0000000   0.0000000   0.0000000   0.0000000
 NQMom=    0.0000000   0.0000000   0.0000000   0.0000000   0.0000000   0.0000000   0.0000000   0.0000000   0.0000000   2.0440000
 NMagM=    0.0000000   2.7928460   2.7928460   0.0000000   2.7928460   0.0000000   0.0000000   2.7928460   0.0000000   0.4037610
 AtZNuc=   6.0000000   1.0000000   1.0000000   6.0000000   1.0000000   6.0000000   8.0000000   1.0000000   8.0000000   7.0000000

  Atom        21          22          23          24          25          26          27          28          29          30
 IAtWgt=           1          14           1          12          12           1           1           1          12           1
 AtmWgt=   1.0078250  14.0030740   1.0078250  12.0000000  12.0000000   1.0078250   1.0078250   1.0078250  12.0000000   1.0078250
 NucSpn=           1           2           1           0           0           1           1           1           0           1
 AtZEff=   0.0000000   0.0000000   0.0000000   0.0000000   0.0000000   0.0000000   0.0000000   0.0000000   0.0000000   0.0000000
 NQMom=    0.0000000   2.0440000   0.0000000   0.0000000   0.0000000   0.0000000   0.0000000   0.0000000   0.0000000   0.0000000
 NMagM=    2.7928460   0.4037610   2.7928460   0.0000000   0.0000000   2.7928460   2.7928460   2.7928460   0.0000000   2.7928460
 AtZNuc=   1.0000000   7.0000000   1.0000000   6.0000000   6.0000000   1.0000000   1.0000000   1.0000000   6.0000000   1.0000000

  Atom        31          32          33
 IAtWgt=           1           1          16
 AtmWgt=   1.0078250   1.0078250  15.9949146
 NucSpn=           1           1           0
 AtZEff=   0.0000000   0.0000000   0.0000000
 NQMom=    0.0000000   0.0000000   0.0000000
 NMagM=    2.7928460   2.7928460   0.0000000
 AtZNuc=   1.0000000   1.0000000   8.0000000
 Leave Link  101 at Wed Jun 25 04:33:43 2014, MaxMem=  4294967296 cpu:         1.6
 (Enter /home/ztw1e12/g09/l202.exe)
                          Input orientation:                          
 ---------------------------------------------------------------------
 Center     Atomic      Atomic             Coordinates (Angstroms)
 Number     Number       Type             X           Y           Z
 ---------------------------------------------------------------------
      1          6           0        2.004587   -2.874349    1.099097
      2          6           0        1.407316   -1.663652    1.395725
      3          6           0        1.468007   -0.593195    0.510534
      4          6           0        2.147215   -0.772276   -0.687863
      5          6           0        2.749500   -1.977930   -1.001465
      6          6           0        2.676305   -3.032454   -0.105480
      7          1           0        1.959360   -3.703438    1.796385
      8          1           0        0.884265   -1.543912    2.338724
      9          1           0        2.208781    0.052039   -1.390358
     10          1           0        3.279533   -2.112794   -1.935764
     11          6           0        0.791432    0.702538    0.838637
     12          1           0        1.005049    0.986190    1.871414
     13          1           0        1.164773    1.505836    0.196043
     14          6           0       -0.727697    0.627983    0.695791
     15          1           0       -1.099704   -0.229441    1.264915
     16          6           0       -1.343047    1.849337    1.357260
     17          8           0        3.282427   -4.203253   -0.450545
     18          1           0        3.152783   -4.850032    0.252102
     19          8           0       -1.387651    1.913314    2.585112
     20          7           0       -1.087390    0.468075   -0.694659
     21          1           0       -0.369444    0.567863   -1.397228
     22          7           0       -1.766556    2.831902    0.563341
     23          1           0       -1.747533    2.687928   -0.433476
     24          6           0       -2.311816    0.043846   -1.070508
     25          6           0       -2.521275   -0.169120   -2.532627
     26          1           0       -2.769437   -1.217171   -2.700383
     27          1           0       -3.375213    0.424823   -2.856665
     28          1           0       -1.651631    0.092343   -3.131331
     29          6           0       -2.367395    4.032379    1.097219
     30          1           0       -1.656126    4.592027    1.704887
     31          1           0       -2.691735    4.660249    0.273167
     32          1           0       -3.231825    3.794231    1.717601
     33          8           0       -3.205014   -0.152353   -0.250732
 ---------------------------------------------------------------------
                    Distance matrix (angstroms):
                    1          2          3          4          5
     1  C    0.000000
     2  C    1.382211   0.000000
     3  C    2.416193   1.390369   0.000000
     4  C    2.762658   2.383976   1.389082   0.000000
     5  C    2.402254   2.765275   2.417821   1.383725   0.000000
     6  C    1.388239   2.395322   2.790957   2.393222   1.385701
     7  H    1.084271   2.150816   3.401243   3.846880   3.380779
     8  H    2.135851   1.084973   2.141704   3.369079   3.850238
     9  H    3.847444   3.368709   2.139734   1.084797   2.136443
    10  H    3.378733   3.847823   3.402232   2.153228   1.082607
    11  C    3.785988   2.507691   1.498109   2.518616   3.795381
    12  H    4.061934   2.722088   2.135599   3.308571   4.481356
    13  H    4.550474   3.397605   2.144012   2.633681   4.010238
    14  C    4.460310   3.209327   2.519268   3.484299   4.665014
    15  H    4.081624   2.891232   2.700842   3.827596   4.796881
    16  C    5.795387   4.461734   3.819022   4.820509   6.079515
    17  O    2.408371   3.657093   4.153109   3.621689   2.353633
    18  H    2.437022   3.808877   4.585403   4.303812   3.159594
    19  O    6.052870   4.692672   4.329116   5.515436   6.717241
    20  N    4.893841   3.890697   3.018085   3.464273   4.560570
    21  H    4.869957   3.992132   2.892030   2.938153   4.045430
    22  N    6.860747   5.565639   4.711314   5.465639   6.780698
    23  H    6.882304   5.677614   4.690055   5.216013   6.505086
    24  C    5.643969   4.778054   4.146393   4.549223   5.450621
    25  C    6.402430   5.753208   5.035379   5.055863   5.779041
    26  H    6.322467   5.867087   5.353061   5.331195   5.824409
    27  H    7.448143   6.731800   5.985914   6.052599   6.835722
    28  H    6.329748   5.738895   4.844098   4.598840   5.309643
    29  C    8.174174   6.839760   6.037420   6.830295   8.167674
    30  H    8.337540   6.972358   6.170350   6.997600   8.360515
    31  H    8.916713   7.619323   6.705108   7.338347   8.677393
    32  H    8.501324   7.170336   6.541784   7.454751   8.745708
    33  O    6.030858   5.125274   4.755102   5.405714   6.273163
                    6          7          8          9         10
     6  C    0.000000
     7  H    2.140402   0.000000
     8  H    3.376581   2.472552   0.000000
     9  H    3.373957   4.931648   4.267019   0.000000
    10  H    2.135322   4.266373   4.932766   2.475981   0.000000
    11  C    4.288854   4.657678   2.702853   2.720376   4.670550
    12  H    4.780241   4.786329   2.575730   3.600106   5.410322
    13  H    4.792882   5.507177   3.737744   2.391683   4.702265
    14  C    5.062417   5.214671   3.164613   3.647826   5.522213
    15  H    4.898276   4.659291   2.610945   4.251562   5.741871
    16  C    6.490507   6.475495   4.175923   4.836855   6.921758
    17  O    1.362800   2.654998   4.539085   4.488148   2.564352
    18  H    1.912717   2.263569   4.520022   5.255389   3.506465
    19  O    6.943749   6.585778   4.144239   5.674771   7.643983
    20  N    5.173609   5.734937   4.139677   3.394382   5.222188
    21  H    4.889528   5.819493   4.470874   2.629328   4.559712
    22  N    7.387625   7.623222   5.415403   5.229520   7.493901
    23  H    7.238832   7.717700   5.702624   4.849325   7.111624
    24  C    5.939381   6.364288   4.935461   4.531906   6.054994
    25  C    6.411284   7.162949   6.100641   4.871049   6.146827
    26  H    6.299594   6.983120   6.232888   5.301859   6.162534
    27  H    7.492840   8.194576   7.000795   5.785327   7.181449
    28  H    6.136054   7.192329   6.247367   4.235020   5.532485
    29  C    8.763405   8.891148   6.573405   6.555344   8.879748
    30  H    8.954334   9.049577   6.671213   6.717852   9.086787
    31  H    9.388126   9.690415   7.452913   6.929500   9.295673
    32  H    9.210497   9.119740   6.769325   7.298192   9.520389
    33  O    6.550267   6.593304   5.036261   5.536217   6.980832
                   11         12         13         14         15
    11  C    0.000000
    12  H    1.092117   0.000000
    13  H    1.094348   1.761366   0.000000
    14  C    1.527651   2.124338   2.145185   0.000000
    15  H    2.150975   2.505112   3.046560   1.094288   0.000000
    16  C    2.477926   2.554003   2.784884   1.519178   2.095009
    17  O    5.651003   6.124399   6.123417   6.382478   6.159307
    18  H    6.062263   6.426229   6.659759   6.727825   6.360762
    19  O    3.043773   2.663445   3.519738   2.378476   2.533226
    20  N    2.436379   3.351339   2.634869   1.445095   2.080051
    21  H    2.522868   3.570469   2.402525   2.124309   2.873322
    22  N    3.339653   3.577639   3.238217   2.440088   3.210719
    23  H    3.465024   3.973051   3.205489   2.560993   3.437333
    24  C    3.702547   4.532605   3.978472   2.443453   2.645393
    25  C    4.806166   5.758930   4.882424   3.778224   4.055346
    26  H    5.374917   6.324782   5.593037   4.371189   4.414432
    27  H    5.576138   6.469665   5.576656   4.435150   4.753254
    28  H    4.701228   5.734489   4.582741   3.973340   4.442426
    29  C    4.597053   4.609992   4.435284   3.799956   4.449525
    30  H    4.676436   4.484601   4.445071   4.194508   4.873370
    31  H    5.302423   5.451542   4.982863   4.505022   5.237098
    32  H    5.149538   5.085258   5.184782   4.164118   4.576112
    33  O    4.229556   4.850197   4.695129   2.764404   2.595276
                   16         17         18         19         20
    16  C    0.000000
    17  O    7.829241   0.000000
    18  H    8.143427   0.963765   0.000000
    19  O    1.230326   8.272680   8.473566   0.000000
    20  N    2.486688   6.401265   6.867145   3.596633   0.000000
    21  H    3.190185   6.082427   6.669330   4.325045   1.009459
    22  N    1.332329   8.718578   9.127370   2.252761   2.762519
    23  H    2.018311   8.531657   9.016871   3.137103   2.330612
    24  C    3.176849   7.051082   7.453937   4.208628   1.349241
    25  C    4.538018   7.368328   7.865150   5.640291   2.416644
    26  H    5.282284   7.113615   7.549009   6.296485   3.113240
    27  H    4.890409   8.457699   8.950042   5.981550   3.148059
    28  H    4.830083   7.069914   7.678352   6.005276   2.529212
    29  C    2.425404  10.106518  10.492083   2.768422   4.189690
    30  H    2.782303  10.314657  10.695264   2.832380   4.805025
    31  H    3.300825  10.713358  11.162629   3.819866   4.591833
    32  H    2.734948  10.540213  10.845930   2.773338   4.634751
    33  O    3.171643   7.650922   7.921023   3.951177   2.250852
                   21         22         23         24         25
    21  H    0.000000
    22  N    3.304788   0.000000
    23  H    2.706035   1.007340   0.000000
    24  C    2.038173   3.277198   2.777660   0.000000
    25  C    2.542175   4.377300   3.628751   1.492320   0.000000
    26  H    3.262595   5.296476   4.629574   2.110941   1.090017
    27  H    3.344408   4.480876   3.693620   2.113365   1.089486
    28  H    2.208447   4.600977   3.744954   2.164529   1.087699
    29  C    4.713485   1.444707   2.129508   4.539882   5.554463
    30  H    5.241428   2.100800   2.864707   5.368305   6.432226
    31  H    4.993083   2.069543   2.298023   4.822964   5.587875
    32  H    5.320229   2.098906   2.837985   4.762915   5.854696
    33  O    3.142232   3.411401   3.197631   1.228141   2.382189
                   26         27         28         29         30
    26  H    0.000000
    27  H    1.757138   0.000000
    28  H    1.774833   1.776716   0.000000
    29  C    6.491625   5.446408   5.823816   0.000000
    30  H    7.375137   6.413159   6.605769   1.090124   0.000000
    31  H    6.587268   5.310539   5.791216   1.085578   1.768322
    32  H    6.696756   5.683078   6.301835   1.090334   1.766201
    33  O    2.706355   2.674507   3.281878   4.475551   5.360284
                   31         32         33
    31  H    0.000000
    32  H    1.768636   0.000000
    33  O    4.868168   4.410281   0.000000
 Stoichiometry    C12H16N2O3
 Framework group  C1[X(C12H16N2O3)]
 Deg. of freedom    93
 Full point group                 C1      NOp   1
 Largest Abelian subgroup         C1      NOp   1
 Largest concise Abelian subgroup C1      NOp   1
                         Standard orientation:                         
 ---------------------------------------------------------------------
 Center     Atomic      Atomic             Coordinates (Angstroms)
 Number     Number       Type             X           Y           Z
 ---------------------------------------------------------------------
      1          6           0        3.356161   -0.773721   -1.022773
      2          6           0        2.045104   -1.155201   -0.808034
      3          6           0        1.388423   -0.844932    0.377557
      4          6           0        2.086898   -0.136230    1.346796
      5          6           0        3.399207    0.254810    1.147733
      6          6           0        4.034859   -0.063843   -0.041626
      7          1           0        3.864975   -1.024314   -1.946870
      8          1           0        1.518624   -1.710839   -1.576963
      9          1           0        1.593172    0.112500    2.280151
     10          1           0        3.940661    0.805423    1.906476
     11          6           0       -0.041202   -1.244094    0.580468
     12          1           0       -0.190095   -2.278926    0.264759
     13          1           0       -0.311579   -1.184127    1.639193
     14          6           0       -1.014280   -0.382559   -0.222397
     15          1           0       -0.697419   -0.364826   -1.269656
     16          6           0       -2.377104   -1.053834   -0.224194
     17          8           0        5.327290    0.338550   -0.199514
     18          1           0        5.645873    0.059638   -1.065283
     19          8           0       -2.560566   -2.046691   -0.927244
     20          7           0       -1.023879    0.966902    0.294485
     21          1           0       -0.543870    1.158943    1.161502
     22          7           0       -3.309386   -0.556923    0.587613
     23          1           0       -3.105566    0.289572    1.094207
     24          6           0       -1.521889    1.999674   -0.416725
     25          6           0       -1.384050    3.354431    0.193729
     26          1           0       -0.780437    3.975446   -0.468184
     27          1           0       -2.370269    3.812329    0.262130
     28          1           0       -0.926323    3.333941    1.180216
     29          6           0       -4.636085   -1.124713    0.655898
     30          1           0       -4.607383   -2.149011    1.027864
     31          1           0       -5.241074   -0.525952    1.329658
     32          1           0       -5.109008   -1.132385   -0.326504
     33          8           0       -2.062185    1.829891   -1.506488
 ---------------------------------------------------------------------
 Rotational constants (GHZ):      0.8120347      0.2410860      0.2101477
 Leave Link  202 at Wed Jun 25 04:33:43 2014, MaxMem=  4294967296 cpu:         1.6
 (Enter /home/ztw1e12/g09/l301.exe)
 Standard basis: CC-pVTZ (5D, 7F)
 Converting basis for Fermi contact spin-spin IFCMod=1.
 AO basis functions are being uncontracted.
 Ernie: Thresh=  0.10000D-02 Tol=  0.10000D-05 Strict=F.
 There are  1305 symmetry adapted cartesian basis functions of A   symmetry.
 There are  1204 symmetry adapted basis functions of A   symmetry.
  1204 basis functions,  1305 primitive gaussians,  1305 cartesian basis functions
    63 alpha electrons       63 beta electrons
       nuclear repulsion energy      1201.2980535576 Hartrees.
 IExCor= 4235 DFT=T Ex+Corr=M06 ExCW=0 ScaHFX=  0.270000
 ScaDFX=  1.000000  1.000000  1.000000  1.000000 ScalE2=  1.000000  1.000000
 IRadAn= 199590 IRanWt=     -1 IRanGd=            0 ICorTp=0 IEmpDi=  4
 NAtoms=   33 NActive=   33 NUniq=   33 SFac= 1.00D+00 NAtFMM=   60 NAOKFM=F Big=F
 Integral buffers will be    131072 words long.
 Raffenetti 2 integral format.
 Two-electron integral symmetry is turned on.
 Leave Link  301 at Wed Jun 25 04:33:43 2014, MaxMem=  4294967296 cpu:         4.4
 (Enter /home/ztw1e12/g09/l302.exe)
 NPDir=0 NMtPBC=     1 NCelOv=     1 NCel=       1 NClECP=     1 NCelD=      1
         NCelK=      1 NCelE2=     1 NClLst=     1 CellRange=     0.0.
 One-electron integrals computed using PRISM.
 GSVD:  received Info=                   1 from GESDD.
 NBasis=  1204 RedAO= T EigKep=  2.59D-05  NBF=  1204
 NBsUse=  1068 1.00D-06 EigRej=  5.81D-15 NBFU=  1068
 Precomputing XC quadrature grid using
 IXCGrd= 4 IRadAn=      199590 IRanWt=          -1 IRanGd=           0 AccXCQ= 0.00D+00.
 Generated NRdTot=       0 NPtTot=           0 NUsed=           0 NTot=          32
 NSgBfM=   993   993   993   993   993 MxSgAt=    33 MxSgA2=    33.
 Leave Link  302 at Wed Jun 25 04:33:50 2014, MaxMem=  4294967296 cpu:        93.3
 (Enter /home/ztw1e12/g09/l308.exe)
 Leave Link  308 at Wed Jun 25 04:33:50 2014, MaxMem=  4294967296 cpu:         7.0
 (Enter /home/ztw1e12/g09/l303.exe)
 DipDrv:  MaxL=1.
 Leave Link  303 at Wed Jun 25 04:33:50 2014, MaxMem=  4294967296 cpu:         4.2
 (Enter /home/ztw1e12/g09/l401.exe)
 ExpMin= 1.03D-01 ExpMax= 1.38D+05 ExpMxC= 1.38D+05 IAcc=4 IRadAn=    199590 AccDes= 0.00D+00
 Harris functional with IExCor= 1009 and IRadAn=  199590 diagonalized for initial guess.
 HarFok:  IExCor= 1009 AccDes= 0.00D+00 IRadAn=    199590 IDoV= 1 UseB2=F ITyADJ=14
 ICtDFT=  3500011 ScaDFX=  1.000000  1.000000  1.000000  1.000000
 FoFCou: FMM=F IPFlag=           0 FMFlag=      100000 FMFlg1=           0
         NFxFlg=           0 DoJE=T BraDBF=F KetDBF=T FulRan=T
         wScrn=  0.000000 ICntrl=     500 IOpCl=  0 I1Cent=   200000004 NGrid=           0
         NMat0=    1 NMatS0=      1 NMatT0=    0 NMatD0=    1 NMtDS0=    0 NMtDT0=    0
 Petite list used in FoFCou.
 Harris En= -801.784448971029    
 JPrj=0 DoOrth=F DoCkMO=F.
 Leave Link  401 at Wed Jun 25 04:34:10 2014, MaxMem=  4294967296 cpu:       296.1
 (Enter /home/ztw1e12/g09/l502.exe)
 Closed shell SCF:
 Using DIIS extrapolation, IDIIS=  1040.
 Integral symmetry usage will be decided dynamically.
 IVT=     5158273 IEndB=     5158273 NGot=  4294967296 MDV=  4291529994
 LenX=  4291529994 LenY=  4289825664
 Requested convergence on RMS density matrix=1.00D-08 within 128 cycles.
 Requested convergence on MAX density matrix=1.00D-06.
 Requested convergence on             energy=1.00D-06.
 No special actions if energy rises.
 Fock matrices will be formed incrementally for  20 cycles.
 Integral accuracy reduced to 1.0D-05 until final iterations.

 Cycle   1  Pass 0  IDiag  1:
 FoFJK:  IHMeth= 1 ICntrl=       0 DoSepK=F KAlg= 0 I1Cent=   0 FoldK=F
 IRaf= 420000000 NMat=   1 IRICut=       1 DoRegI=T DoRafI=F ISym2E= 0.
 FoFCou: FMM=F IPFlag=           0 FMFlag=      100000 FMFlg1=           0
         NFxFlg=           0 DoJE=F BraDBF=F KetDBF=F FulRan=T
         wScrn=  0.000000 ICntrl=       0 IOpCl=  0 I1Cent=           0 NGrid=           0
         NMat0=    1 NMatS0=      1 NMatT0=    0 NMatD0=    1 NMtDS0=    0 NMtDT0=    0
 Symmetry not used in FoFCou.
 E= -801.463865680734    
 DIIS: error= 1.25D-01 at cycle   1 NSaved=   1.
 NSaved= 1 IEnMin= 1 EnMin= -801.463865680734     IErMin= 1 ErrMin= 1.25D-01
 ErrMax= 1.25D-01  0.00D+00 EMaxC= 1.00D-01 BMatC= 1.69D+01 BMatP= 1.69D+01
 IDIUse=3 WtCom= 0.00D+00 WtEn= 1.00D+00
 Coeff-Com:  0.100D+01
 Coeff-En:   0.100D+01
 Coeff:      0.100D+01
 Gap=     0.238 Goal=   None    Shift=    0.000
 GapD=    0.238 DampG=1.000 DampE=0.250 DampFc=0.2500 IDamp=-1.
 Damping current iteration by 2.50D-01
 RMSDP=2.37D-03 MaxDP=3.78D-01              OVMax= 3.04D-01

 Cycle   2  Pass 0  IDiag  1:
 RMSU=  5.88D-04    CP:  1.03D+00
 E= -801.622489149318     Delta-E=       -0.158623468584 Rises=F Damp=T
 DIIS: error= 9.44D-02 at cycle   2 NSaved=   2.
 NSaved= 2 IEnMin= 2 EnMin= -801.622489149318     IErMin= 2 ErrMin= 9.44D-02
 ErrMax= 9.44D-02  0.00D+00 EMaxC= 1.00D-01 BMatC= 1.00D+01 BMatP= 1.69D+01
 IDIUse=3 WtCom= 5.59D-02 WtEn= 9.44D-01
 Coeff-Com: -0.291D+01 0.391D+01
 Coeff-En:   0.000D+00 0.100D+01
 Coeff:     -0.163D+00 0.116D+01
 Gap=     0.243 Goal=   None    Shift=    0.000
 RMSDP=6.21D-04 MaxDP=9.76D-02 DE=-1.59D-01 OVMax= 1.67D-01

 Cycle   3  Pass 0  IDiag  1:
 RMSU=  4.84D-04    CP:  1.06D+00  1.65D+00
 E= -801.863692362436     Delta-E=       -0.241203213117 Rises=F Damp=F
 DIIS: error= 1.22D-02 at cycle   3 NSaved=   3.
 NSaved= 3 IEnMin= 3 EnMin= -801.863692362436     IErMin= 3 ErrMin= 1.22D-02
 ErrMax= 1.22D-02  0.00D+00 EMaxC= 1.00D-01 BMatC= 1.97D-01 BMatP= 1.00D+01
 IDIUse=3 WtCom= 8.78D-01 WtEn= 1.22D-01
 Coeff-Com:  0.577D+00-0.819D+00 0.124D+01
 Coeff-En:   0.000D+00 0.000D+00 0.100D+01
 Coeff:      0.507D+00-0.720D+00 0.121D+01
 Gap=     0.243 Goal=   None    Shift=    0.000
 RMSDP=4.33D-04 MaxDP=6.45D-02 DE=-2.41D-01 OVMax= 8.72D-02

 Cycle   4  Pass 0  IDiag  1:
 RMSU=  3.49D-04    CP:  1.05D+00  1.29D+00  7.12D-01
 E= -801.812349040288     Delta-E=        0.051343322147 Rises=F Damp=F
 DIIS: error= 8.08D-03 at cycle   4 NSaved=   4.
 NSaved= 4 IEnMin= 3 EnMin= -801.863692362436     IErMin= 4 ErrMin= 8.08D-03
 ErrMax= 8.08D-03  0.00D+00 EMaxC= 1.00D-01 BMatC= 1.35D-01 BMatP= 1.97D-01
 IDIUse=3 WtCom= 9.19D-01 WtEn= 8.08D-02
 Coeff-Com:  0.496D+00-0.692D+00 0.668D+00 0.528D+00
 Coeff-En:   0.000D+00 0.000D+00 0.677D+00 0.323D+00
 Coeff:      0.456D+00-0.636D+00 0.669D+00 0.511D+00
 Gap=     0.255 Goal=   None    Shift=    0.000
 RMSDP=3.06D-04 MaxDP=3.26D-02 DE= 5.13D-02 OVMax= 8.66D-02

 Cycle   5  Pass 0  IDiag  1:
 RMSU=  8.64D-05    CP:  1.05D+00  1.29D+00  9.04D-01  2.02D-01
 E= -801.911692989303     Delta-E=       -0.099343949015 Rises=F Damp=F
 DIIS: error= 1.99D-03 at cycle   5 NSaved=   5.
 NSaved= 5 IEnMin= 5 EnMin= -801.911692989303     IErMin= 5 ErrMin= 1.99D-03
 ErrMax= 1.99D-03  0.00D+00 EMaxC= 1.00D-01 BMatC= 1.09D-02 BMatP= 1.35D-01
 IDIUse=3 WtCom= 9.80D-01 WtEn= 1.99D-02
 Coeff-Com:  0.492D-01-0.724D-01 0.530D-01 0.222D+00 0.748D+00
 Coeff-En:   0.000D+00 0.000D+00 0.000D+00 0.222D-01 0.978D+00
 Coeff:      0.482D-01-0.710D-01 0.520D-01 0.218D+00 0.753D+00
 Gap=     0.222 Goal=   None    Shift=    0.000
 RMSDP=1.08D-04 MaxDP=1.55D-02 DE=-9.93D-02 OVMax= 2.52D-02

 Cycle   6  Pass 0  IDiag  1:
 RMSU=  4.72D-05    CP:  1.05D+00  1.32D+00  9.31D-01  4.32D-01  4.21D-01
 E= -801.917525501430     Delta-E=       -0.005832512127 Rises=F Damp=F
 DIIS: error= 1.87D-03 at cycle   6 NSaved=   6.
 NSaved= 6 IEnMin= 6 EnMin= -801.917525501430     IErMin= 6 ErrMin= 1.87D-03
 ErrMax= 1.87D-03  0.00D+00 EMaxC= 1.00D-01 BMatC= 1.65D-03 BMatP= 1.09D-02
 IDIUse=3 WtCom= 9.81D-01 WtEn= 1.87D-02
 Coeff-Com:  0.174D-01-0.248D-01-0.903D-04 0.848D-01 0.372D+00 0.550D+00
 Coeff-En:   0.000D+00 0.000D+00 0.000D+00 0.000D+00 0.132D+00 0.868D+00
 Coeff:      0.170D-01-0.244D-01-0.886D-04 0.833D-01 0.368D+00 0.556D+00
 Gap=     0.223 Goal=   None    Shift=    0.000
 RMSDP=3.84D-05 MaxDP=4.19D-03 DE=-5.83D-03 OVMax= 1.84D-02

 Cycle   7  Pass 0  IDiag  1:
 RMSU=  2.70D-05    CP:  1.05D+00  1.30D+00  9.25D-01  4.39D-01  6.09D-01
                    CP:  6.42D-01
 E= -801.918698875252     Delta-E=       -0.001173373822 Rises=F Damp=F
 DIIS: error= 1.04D-03 at cycle   7 NSaved=   7.
 NSaved= 7 IEnMin= 7 EnMin= -801.918698875252     IErMin= 7 ErrMin= 1.04D-03
 ErrMax= 1.04D-03  0.00D+00 EMaxC= 1.00D-01 BMatC= 3.27D-04 BMatP= 1.65D-03
 IDIUse=3 WtCom= 9.90D-01 WtEn= 1.04D-02
 Coeff-Com:  0.136D-01-0.182D-01-0.604D-03 0.214D-01 0.101D+00 0.328D+00
 Coeff-Com:  0.554D+00
 Coeff-En:   0.000D+00 0.000D+00 0.000D+00 0.000D+00 0.000D+00 0.193D+00
 Coeff-En:   0.807D+00
 Coeff:      0.134D-01-0.180D-01-0.598D-03 0.212D-01 0.100D+00 0.327D+00
 Coeff:      0.557D+00
 Gap=     0.223 Goal=   None    Shift=    0.000
 RMSDP=1.47D-05 MaxDP=1.98D-03 DE=-1.17D-03 OVMax= 7.78D-03

 Cycle   8  Pass 0  IDiag  1:
 RMSU=  6.43D-06    CP:  1.05D+00  1.30D+00  9.31D-01  4.45D-01  5.82D-01
                    CP:  8.45D-01  7.05D-01
 E= -801.919004738560     Delta-E=       -0.000305863308 Rises=F Damp=F
 DIIS: error= 1.96D-04 at cycle   8 NSaved=   8.
 NSaved= 8 IEnMin= 8 EnMin= -801.919004738560     IErMin= 8 ErrMin= 1.96D-04
 ErrMax= 1.96D-04  0.00D+00 EMaxC= 1.00D-01 BMatC= 1.72D-05 BMatP= 3.27D-04
 IDIUse=3 WtCom= 9.98D-01 WtEn= 1.96D-03
 Coeff-Com:  0.742D-02-0.993D-02 0.696D-03 0.656D-02 0.315D-01 0.143D+00
 Coeff-Com:  0.300D+00 0.521D+00
 Coeff-En:   0.000D+00 0.000D+00 0.000D+00 0.000D+00 0.000D+00 0.000D+00
 Coeff-En:   0.000D+00 0.100D+01
 Coeff:      0.740D-02-0.991D-02 0.694D-03 0.655D-02 0.314D-01 0.143D+00
 Coeff:      0.299D+00 0.522D+00
 Gap=     0.223 Goal=   None    Shift=    0.000
 RMSDP=3.89D-06 MaxDP=5.24D-04 DE=-3.06D-04 OVMax= 1.44D-03

 Initial convergence to 1.0D-05 achieved.  Increase integral accuracy.
 Cycle   9  Pass 1  IDiag  1:
 E= -801.919006098615     Delta-E=       -0.000001360055 Rises=F Damp=F
 DIIS: error= 3.49D-04 at cycle   1 NSaved=   1.
 NSaved= 1 IEnMin= 1 EnMin= -801.919006098615     IErMin= 1 ErrMin= 3.49D-04
 ErrMax= 3.49D-04  0.00D+00 EMaxC= 1.00D-01 BMatC= 2.50D-05 BMatP= 2.50D-05
 IDIUse=3 WtCom= 9.97D-01 WtEn= 3.49D-03
 Coeff-Com:  0.100D+01
 Coeff-En:   0.100D+01
 Coeff:      0.100D+01
 Gap=     0.223 Goal=   None    Shift=    0.000
 RMSDP=3.89D-06 MaxDP=5.24D-04 DE=-1.36D-06 OVMax= 9.04D-04

 Cycle  10  Pass 1  IDiag  1:
 RMSU=  2.10D-04    CP:  9.85D-01
 E= -801.919020169395     Delta-E=       -0.000014070779 Rises=F Damp=F
 DIIS: error= 5.83D-05 at cycle   2 NSaved=   2.
 NSaved= 2 IEnMin= 2 EnMin= -801.919020169395     IErMin= 2 ErrMin= 5.83D-05
 ErrMax= 5.83D-05  0.00D+00 EMaxC= 1.00D-01 BMatC= 3.35D-06 BMatP= 2.50D-05
 IDIUse=1 WtCom= 1.00D+00 WtEn= 0.00D+00
 Coeff-Com:  0.162D+00 0.838D+00
 Coeff:      0.162D+00 0.838D+00
 Gap=     0.223 Goal=   None    Shift=    0.000
 RMSDP=4.45D-06 MaxDP=6.75D-04 DE=-1.41D-05 OVMax= 1.23D-03

 Cycle  11  Pass 1  IDiag  1:
 RMSU=  3.23D-06    CP:  9.85D-01  1.01D+00
 E= -801.919017863985     Delta-E=        0.000002305410 Rises=F Damp=F
 DIIS: error= 8.61D-05 at cycle   3 NSaved=   3.
 NSaved= 3 IEnMin= 2 EnMin= -801.919020169395     IErMin= 2 ErrMin= 5.83D-05
 ErrMax= 8.61D-05  0.00D+00 EMaxC= 1.00D-01 BMatC= 5.68D-06 BMatP= 3.35D-06
 IDIUse=1 WtCom= 1.00D+00 WtEn= 0.00D+00
 Coeff-Com:  0.504D-03 0.566D+00 0.433D+00
 Coeff:      0.504D-03 0.566D+00 0.433D+00
 Gap=     0.223 Goal=   None    Shift=    0.000
 RMSDP=1.99D-06 MaxDP=3.24D-04 DE= 2.31D-06 OVMax= 8.04D-04

 Cycle  12  Pass 1  IDiag  1:
 RMSU=  8.26D-07    CP:  9.85D-01  1.02D+00  4.64D-01
 E= -801.919023042774     Delta-E=       -0.000005178789 Rises=F Damp=F
 DIIS: error= 8.51D-06 at cycle   4 NSaved=   4.
 NSaved= 4 IEnMin= 4 EnMin= -801.919023042774     IErMin= 4 ErrMin= 8.51D-06
 ErrMax= 8.51D-06  0.00D+00 EMaxC= 1.00D-01 BMatC= 8.55D-08 BMatP= 3.35D-06
 IDIUse=1 WtCom= 1.00D+00 WtEn= 0.00D+00
 Coeff-Com: -0.261D-02 0.318D+00 0.254D+00 0.430D+00
 Coeff:     -0.261D-02 0.318D+00 0.254D+00 0.430D+00
 Gap=     0.223 Goal=   None    Shift=    0.000
 RMSDP=2.16D-07 MaxDP=3.36D-05 DE=-5.18D-06 OVMax= 7.53D-05

 Cycle  13  Pass 1  IDiag  1:
 RMSU=  1.86D-07    CP:  9.85D-01  1.02D+00  4.92D-01  9.30D-01
 E= -801.919023108273     Delta-E=       -0.000000065500 Rises=F Damp=F
 DIIS: error= 1.77D-06 at cycle   5 NSaved=   5.
 NSaved= 5 IEnMin= 5 EnMin= -801.919023108273     IErMin= 5 ErrMin= 1.77D-06
 ErrMax= 1.77D-06  0.00D+00 EMaxC= 1.00D-01 BMatC= 3.00D-09 BMatP= 8.55D-08
 IDIUse=1 WtCom= 1.00D+00 WtEn= 0.00D+00
 Coeff-Com: -0.123D-02 0.101D+00 0.824D-01 0.210D+00 0.608D+00
 Coeff:     -0.123D-02 0.101D+00 0.824D-01 0.210D+00 0.608D+00
 Gap=     0.223 Goal=   None    Shift=    0.000
 RMSDP=5.70D-08 MaxDP=6.55D-06 DE=-6.55D-08 OVMax= 8.84D-06

 Cycle  14  Pass 1  IDiag  1:
 RMSU=  3.40D-08    CP:  9.85D-01  1.02D+00  4.93D-01  9.66D-01  8.70D-01
 E= -801.919023109847     Delta-E=       -0.000000001574 Rises=F Damp=F
 DIIS: error= 5.03D-07 at cycle   6 NSaved=   6.
 NSaved= 6 IEnMin= 6 EnMin= -801.919023109847     IErMin= 6 ErrMin= 5.03D-07
 ErrMax= 5.03D-07  0.00D+00 EMaxC= 1.00D-01 BMatC= 3.31D-10 BMatP= 3.00D-09
 IDIUse=1 WtCom= 1.00D+00 WtEn= 0.00D+00
 Coeff-Com: -0.537D-03 0.375D-01 0.309D-01 0.907D-01 0.332D+00 0.510D+00
 Coeff:     -0.537D-03 0.375D-01 0.309D-01 0.907D-01 0.332D+00 0.510D+00
 Gap=     0.223 Goal=   None    Shift=    0.000
 RMSDP=2.34D-08 MaxDP=4.90D-06 DE=-1.57D-09 OVMax= 5.78D-06

 Cycle  15  Pass 1  IDiag  1:
 RMSU=  1.71D-08    CP:  9.85D-01  1.02D+00  4.92D-01  9.74D-01  9.22D-01
                    CP:  7.44D-01
 E= -801.919023110081     Delta-E=       -0.000000000234 Rises=F Damp=F
 DIIS: error= 2.84D-07 at cycle   7 NSaved=   7.
 NSaved= 7 IEnMin= 7 EnMin= -801.919023110081     IErMin= 7 ErrMin= 2.84D-07
 ErrMax= 2.84D-07  0.00D+00 EMaxC= 1.00D-01 BMatC= 6.74D-11 BMatP= 3.31D-10
 IDIUse=1 WtCom= 1.00D+00 WtEn= 0.00D+00
 Coeff-Com:  0.134D-05-0.410D-02-0.316D-02 0.136D-03 0.415D-01 0.321D+00
 Coeff-Com:  0.644D+00
 Coeff:      0.134D-05-0.410D-02-0.316D-02 0.136D-03 0.415D-01 0.321D+00
 Coeff:      0.644D+00
 Gap=     0.223 Goal=   None    Shift=    0.000
 RMSDP=9.92D-09 MaxDP=7.93D-07 DE=-2.34D-10 OVMax= 2.01D-06

 SCF Done:  E(RM06) =  -801.919023110     A.U. after   15 cycles
            NFock= 15  Conv=0.99D-08     -V/T= 2.0044
 KE= 7.983787072879D+02 PE=-4.274950789092D+03 EE= 1.473355005136D+03
 Leave Link  502 at Wed Jun 25 05:08:07 2014, MaxMem=  4294967296 cpu:     32501.1
 (Enter /home/ztw1e12/g09/l801.exe)
 DoSCS=F DFT=T ScalE2(SS,OS)=  1.000000  1.000000
 Range of M.O.s used for correlation:     1  1068
 NBasis=  1204 NAE=    63 NBE=    63 NFC=     0 NFV=     0
 NROrb=   1068 NOA=    63 NOB=    63 NVA=  1005 NVB=  1005

 **** Warning!!: The largest alpha MO coefficient is  0.29755487D+02

 Leave Link  801 at Wed Jun 25 05:08:07 2014, MaxMem=  4294967296 cpu:         0.4
 (Enter /home/ztw1e12/g09/l1002.exe)
 Minotr:  Closed shell wavefunction.
          IDoAtm=111111111111111111111111111111111
          Direct CPHF calculation.
          Differentiating once with respect to Fermi-contact.
          Electric field/nuclear overlap derivatives assumed to be zero.
          Requested convergence is 1.0D-10 RMS, and 1.0D-09 maximum.
          Secondary convergence is 1.0D-12 RMS, and 1.0D-12 maximum.
          NewPWx=T KeepS1=F KeepF1=F KeepIn=T MapXYZ=F SortEE=F KeepMc=T.
          MDV=    4294965894 using IRadAn=  199590.
 Using stored XC quadrature information.
          Solving linear equations simultaneously, MaxMat=       0.
          There are    33 degrees of freedom in the 1st order CPHF.  IDoFFX=0 NUNeed=    33.
     33 vectors produced by pass  0 Test12= 1.92D-17 3.03D-11 XBig12= 4.29D+01 2.58D+00.
 AX will form    33 AO Fock derivatives at one time.
 FoFJK:  IHMeth= 1 ICntrl=       0 DoSepK=F KAlg= 0 I1Cent=   0 FoldK=F
 IRaf= 450000000 NMat=  33 IRICut=       1 DoRegI=T DoRafI=F ISym2E=-1.
 FoFCou: FMM=F IPFlag=           0 FMFlag=      100000 FMFlg1=           0
         NFxFlg=           0 DoJE=F BraDBF=F KetDBF=F FulRan=T
         wScrn=  0.000000 ICntrl=       0 IOpCl=  0 I1Cent=           0 NGrid=           0
         NMat0=   33 NMatS0=      0 NMatT0=   33 NMatD0=   33 NMtDS0=    0 NMtDT0=    0
 Petite list used in FoFCou.
     33 vectors produced by pass  1 Test12= 1.92D-17 3.03D-11 XBig12= 3.46D-01 1.89D-01.
     33 vectors produced by pass  2 Test12= 1.92D-17 3.03D-11 XBig12= 1.53D-02 4.62D-02.
     33 vectors produced by pass  3 Test12= 1.92D-17 3.03D-11 XBig12= 3.44D-04 5.49D-03.
     33 vectors produced by pass  4 Test12= 1.92D-17 3.03D-11 XBig12= 7.10D-06 9.65D-04.
     33 vectors produced by pass  5 Test12= 1.92D-17 3.03D-11 XBig12= 1.48D-07 1.44D-04.
     33 vectors produced by pass  6 Test12= 1.92D-17 3.03D-11 XBig12= 4.46D-09 2.35D-05.
     33 vectors produced by pass  7 Test12= 1.92D-17 3.03D-11 XBig12= 1.17D-10 4.00D-06.
     33 vectors produced by pass  8 Test12= 1.92D-17 3.03D-11 XBig12= 4.00D-12 2.76D-07.
     33 vectors produced by pass  9 Test12= 1.92D-17 3.03D-11 XBig12= 5.41D-14 8.49D-08.
     33 vectors produced by pass 10 Test12= 1.92D-17 3.03D-11 XBig12= 2.06D-15 8.38D-09.
     32 vectors produced by pass 11 Test12= 1.92D-17 3.03D-11 XBig12= 2.47D-17 6.38D-10.
      6 vectors produced by pass 12 Test12= 1.92D-17 3.03D-11 XBig12= 2.55D-19 6.96D-11.
 InvSVY:  IOpt=1 It=  1 EMax= 1.15D-14
 Solved reduced A of dimension   401 with    33 vectors.
 Max diff in FC couplings:  IJMax=    20    19 Diff= 7.97D-04 IJMaxR=    28     3 DiffR= 1.70D+00
 Fermi Contact (FC) contribution to K (Hz):
                1             2             3             4             5 
      1  0.123400D+11
      2  0.349607D+02  0.123400D+11
      3 -0.118701D+01  0.338262D+02  0.123400D+11
      4  0.307649D+01  0.353375D+00  0.334942D+02  0.123400D+11
      5  0.163132D+01  0.300871D+01 -0.128801D+01  0.345321D+02  0.123400D+11
      6  0.356757D+02 -0.236975D+00  0.425546D+01  0.256777D+00  0.391807D+02
      7  0.219059D+02 -0.297573D+00  0.957355D+00 -0.206376D+00  0.610747D+00
      8 -0.247135D+00  0.225032D+02 -0.262518D+00  0.104427D+01 -0.291892D+00
      9 -0.281047D+00  0.969152D+00 -0.154987D+00  0.217719D+02 -0.145820D+00
     10  0.670796D+00 -0.222127D+00  0.101705D+01 -0.276250D+00  0.228652D+02
     11  0.195837D+01  0.163846D+01  0.235690D+02  0.146856D+01  0.193062D+01
     12 -0.125996D+00  0.615319D+00 -0.111525D+01  0.723188D+00 -0.537342D-01
     13  0.111454D+00  0.814166D+00 -0.735407D+00  0.824659D+00  0.169037D-01
     14 -0.514671D+00  0.867238D+00 -0.116935D+01  0.742305D+00 -0.407499D+00
     15  0.851992D-02 -0.302977D-01  0.480005D+00 -0.222110D-01  0.113177D-01
     16 -0.867296D-02 -0.476223D-01  0.207925D+01  0.540991D-01  0.567971D-01
     17 -0.739365D+00 -0.897045D-01  0.259219D+00  0.304856D+01  0.116734D+02
     18  0.420484D+00 -0.120027D-01 -0.460159D-01  0.213761D+00  0.115159D+01
     19 -0.319636D-02  0.876419D-02  0.348228D-01  0.516705D-01  0.651576D-02
     20  0.758137D-01 -0.794942D-01  0.367746D+00  0.533330D-01  0.510203D-01
     21 -0.390692D-02  0.619694D-02 -0.111952D-01  0.474201D-02 -0.631380D-03
     22 -0.255748D-01  0.595578D-01  0.170687D+00  0.334552D-01 -0.186889D-01
     23 -0.147657D-03 -0.996285D-03  0.166902D-02  0.632951D-03  0.591916D-03
     24 -0.786825D-02  0.797088D-02 -0.530869D-01  0.115657D-01 -0.280095D-02
     25  0.114789D-02 -0.229062D-02  0.230447D-02 -0.583752D-02  0.185686D-02
     26  0.175269D-03 -0.433604D-04 -0.131312D-02 -0.261560D-03  0.134762D-03
     27  0.294409D-04  0.446782D-03 -0.540022D-03  0.537915D-03  0.122306D-03
     28  0.354689D-03 -0.306043D-03 -0.167913D-05  0.422378D-03  0.209808D-03
     29 -0.201589D-02 -0.143157D-02  0.517552D-01  0.352483D-02  0.179899D-02
     30  0.186284D-03  0.167905D-02  0.383980D-02  0.212669D-03 -0.632321D-03
     31  0.644582D-04  0.243843D-03  0.158485D-02  0.329781D-03  0.178195D-03
     32  0.495576D-03  0.150136D-02  0.460469D-02  0.548161D-05 -0.235395D-03
     33  0.284384D-02  0.100497D-01  0.571395D-03  0.190072D-01 -0.218672D-02
                6             7             8             9            10 
      6  0.123400D+11
      7 -0.532022D+00  0.123400D+11
      8  0.121754D+01  0.341604D+00  0.123400D+11
      9  0.117470D+01  0.380285D-01  0.388090D-01  0.123400D+11
     10 -0.721626D+00  0.635212D-01  0.415198D-01  0.339137D+00  0.123400D+11
     11 -0.443200D+00  0.193707D-01  0.654856D+00  0.680331D+00  0.200470D-01
     12  0.136656D+00  0.126579D-01 -0.422108D-01 -0.320598D-01  0.152184D-01
     13  0.143255D-01  0.773245D-02 -0.418999D-02 -0.279275D-01  0.216773D-02
     14  0.486576D+00  0.461694D-01 -0.857279D-01 -0.115347D+00  0.346022D-01
     15 -0.349571D-02 -0.218733D-03 -0.579697D-02  0.113995D-02 -0.103642D-02
     16  0.150506D-01  0.388296D-02 -0.846478D-02  0.888005D-02  0.273997D-02
     17 -0.119458D+02  0.563369D+00  0.702151D-01  0.247518D+00  0.708457D+00
     18 -0.657667D+00 -0.133126D-01  0.183012D-02  0.130817D-01  0.147656D-02
     19  0.792338D-02  0.815641D-03  0.916047D-02 -0.284692D-03  0.193913D-02
     20 -0.324288D-01 -0.145578D-01  0.890208D-02  0.722159D-01 -0.520236D-02
     21  0.227383D-03  0.857188D-03  0.776442D-03 -0.795345D-02  0.209828D-03
     22  0.291420D-01  0.264643D-02 -0.314737D-02 -0.684769D-02  0.224213D-02
     23 -0.348541D-03 -0.254855D-04 -0.730950D-05  0.407685D-04 -0.177980D-05
     24  0.620555D-02  0.699104D-03 -0.830227D-03  0.117592D-02  0.238648D-04
     25 -0.129020D-02 -0.183229D-03  0.411503D-03  0.359730D-03 -0.326017D-03
     26 -0.116573D-03 -0.203437D-04  0.906605D-04 -0.458176D-04 -0.225645D-04
     27  0.802250D-04 -0.219629D-04 -0.374267D-04  0.148867D-03  0.101262D-04
     28 -0.191301D-03 -0.764594D-04  0.326972D-04  0.717498D-03 -0.586643D-04
     29  0.764610D-03  0.872857D-04 -0.460771D-03 -0.118779D-03  0.175086D-03
     30  0.578037D-03  0.429067D-04  0.360484D-04 -0.109617D-03  0.717873D-04
     31 -0.219096D-04 -0.591575D-05  0.000000D+00  0.230444D-04 -0.164123D-05
     32  0.208330D-03  0.334302D-04  0.145743D-03 -0.695055D-05  0.522994D-04
     33  0.281940D-02 -0.845189D-03 -0.551404D-03  0.156842D-02  0.173916D-03
               11            12            13            14            15 
     11  0.123400D+11
     12  0.186238D+02  0.123400D+11
     13  0.171368D+02 -0.844042D+00  0.123400D+11
     14  0.161286D+02 -0.516783D+00 -0.860090D+00  0.123400D+11
     15 -0.826132D+00  0.854424D-01  0.375321D+00  0.211135D+02  0.123400D+11
     16 -0.470417D+00  0.265968D+00  0.185776D+00  0.277563D+02 -0.117259D+01
     17  0.656835D-01  0.492602D-01  0.357577D-02  0.188052D+00 -0.305867D-02
     18  0.113790D-01 -0.505817D-02 -0.530111D-03 -0.204085D-01  0.259235D-03
     19  0.976010D+00  0.656382D-01 -0.101315D-01  0.484354D+01  0.339466D+00
     20  0.808535D+00  0.186370D+01  0.865186D+00  0.141698D+02 -0.449349D+00
     21  0.515519D+00 -0.173312D-01 -0.254943D-01  0.217012D+00  0.157692D+00
     22  0.117504D-01 -0.838243D-02 -0.954245D-02  0.987354D+01  0.177024D+00
     23 -0.232277D-01  0.235949D-02  0.100069D-02  0.650438D-01 -0.277673D-02
     24  0.140104D+01  0.142926D+00 -0.176028D-01 -0.206225D+00  0.342800D+00
     25 -0.308058D-01  0.551708D-01  0.229875D-01  0.683336D+00 -0.694876D-01
     26  0.885481D-02  0.100200D-02 -0.273921D-03  0.234445D-01  0.183816D-01
     27 -0.405414D-02 -0.187602D-02 -0.520594D-03  0.264057D-01  0.216533D-01
     28 -0.238856D-02  0.272091D-04 -0.575134D-03  0.946161D-01 -0.215388D-02
     29 -0.624931D-01  0.918883D-02 -0.681672D-04  0.672304D+00  0.416581D-01
     30  0.432006D-01 -0.196972D-02 -0.623129D-03 -0.834965D-01  0.218372D-01
     31  0.210094D-02  0.278373D-03 -0.112480D-03 -0.225713D-01  0.507212D-02
     32  0.666017D-01 -0.177140D-02  0.880954D-04 -0.844845D-01  0.886780D-02
     33  0.135998D+00 -0.983425D-02  0.460762D-01  0.849915D+00  0.229211D+00
               16            17            18            19            20 
     16  0.123400D+11
     17  0.870681D-02  0.123400D+11
     18 -0.772744D-03  0.199569D+02  0.123400D+11
     19 -0.978101D+01  0.343891D-02 -0.289752D-03  0.123400D+11
     20  0.427766D+00 -0.517887D-02  0.853006D-03  0.838582D+00  0.123400D+11
     21  0.135574D+00  0.363737D-04 -0.503037D-04  0.752373D-01  0.308754D+02
     22  0.302742D+02  0.105167D-01 -0.116520D-02  0.628046D+01 -0.115739D-01
     23  0.353990D+00 -0.116524D-03  0.122565D-04  0.471156D+00 -0.110250D+00
     24  0.222168D-01  0.206806D-02 -0.219740D-03 -0.108120D-01  0.248138D+02
     25 -0.130396D+00 -0.396571D-03  0.241121D-04  0.411197D-01  0.124850D+02
     26  0.593443D-01 -0.602279D-04  0.446273D-05 -0.137262D-02  0.358588D+00
     27  0.789883D-01  0.353110D-04 -0.370981D-05  0.653378D-02  0.362843D+00
     28 -0.151243D-02 -0.337355D-04  0.333769D-05  0.225751D-02  0.334328D+00
     29 -0.232393D+00  0.321028D-03 -0.294256D-04  0.627099D+00  0.153774D+00
     30  0.126598D+00  0.248415D-03 -0.246896D-04  0.236191D+00  0.287246D-01
     31  0.942480D+00 -0.135944D-04  0.128680D-05  0.175317D+00  0.679399D-02
     32  0.258707D+00  0.159182D-03 -0.142300D-04  0.249219D+00  0.413663D-02
     33  0.443534D+00  0.204867D-02 -0.205645D-03  0.648609D-01  0.594191D+01
               21            22            23            24            25 
     21  0.123400D+11
     22  0.732796D-02  0.123400D+11
     23  0.643346D-02  0.316431D+02  0.123400D+11
     24  0.425003D+00 -0.356926D-01  0.471801D-02  0.123400D+11
     25  0.834739D-01 -0.223098D-01  0.371000D-02  0.269380D+02  0.123400D+11
     26 -0.158080D-01  0.309957D-02  0.729555D-04 -0.120122D+01  0.180468D+02
     27 -0.582374D-02 -0.734921D-03  0.791321D-04 -0.117961D+01  0.179709D+02
     28 -0.955629D-02 -0.150647D-02  0.148020D-03 -0.762900D+00  0.170537D+02
     29 -0.362800D-02  0.171447D+02  0.340420D+00 -0.663956D-02 -0.164605D-02
     30 -0.612151D-03 -0.569905D+00  0.122209D+00  0.190685D-02  0.130904D-02
     31 -0.502588D-03 -0.362389D+00  0.295450D+00  0.567545D-03 -0.264510D-03
     32  0.135991D-02 -0.664237D+00  0.977283D-01 -0.128261D-02  0.666680D-03
     33  0.438543D+00  0.263583D+00  0.522816D-02 -0.963057D+01  0.357943D+01
               26            27            28            29            30 
     26  0.123400D+11
     27 -0.927637D+00  0.123400D+11
     28 -0.749370D+00 -0.719898D+00  0.123400D+11
     29 -0.664009D-04 -0.987577D-05  0.267162D-04  0.123400D+11
     30  0.212690D-03  0.841855D-04 -0.158797D-04  0.198364D+02  0.123400D+11
     31  0.277509D-03  0.102210D-03  0.151562D-04  0.182593D+02 -0.740480D+00
     32 -0.113487D-03 -0.175124D-03  0.000000D+00  0.201075D+02 -0.744291D+00
     33  0.459221D+00  0.442390D+00  0.815018D+00 -0.164222D-01  0.118272D-01
               31            32            33 
     31  0.123400D+11
     32 -0.749204D+00  0.123400D+11
     33  0.168076D-02  0.127325D-01  0.123400D+11
 Fermi Contact (FC) contribution to J (Hz):
                1             2             3             4             5 
      1  0.243533D+11
      2  0.689958D+02  0.243533D+11
      3 -0.234260D+01  0.667568D+02  0.243533D+11
      4  0.607152D+01  0.697394D+00  0.661016D+02  0.243533D+11
      5  0.321945D+01  0.593776D+01 -0.254193D+01  0.681499D+02  0.243533D+11
      6  0.704069D+02 -0.467676D+00  0.839825D+01  0.506755D+00  0.773240D+02
      7  0.171893D+03 -0.233503D+01  0.751227D+01 -0.161941D+01  0.479247D+01
      8 -0.193924D+01  0.176580D+03 -0.205995D+01  0.819431D+01 -0.229045D+01
      9 -0.220535D+01  0.760484D+01 -0.121617D+01  0.170842D+03 -0.114424D+01
     10  0.526367D+01 -0.174301D+01  0.798069D+01 -0.216771D+01  0.179421D+03
     11  0.386489D+01  0.323354D+01  0.465140D+02  0.289825D+01  0.381012D+01
     12 -0.988676D+00  0.482835D+01 -0.875127D+01  0.567479D+01 -0.421647D+00
     13  0.874567D+00  0.638868D+01 -0.577067D+01  0.647102D+01  0.132641D+00
     14 -0.101572D+01  0.171152D+01 -0.230775D+01  0.146496D+01 -0.804209D+00
     15  0.668550D-01 -0.237743D+00  0.376655D+01 -0.174287D+00  0.888093D-01
     16 -0.171163D-01 -0.939838D-01  0.410344D+01  0.106766D+00  0.112091D+00
     17  0.786818D+00  0.954618D-01 -0.275856D+00 -0.324422D+01 -0.124227D+02
     18  0.329950D+01 -0.941837D-01 -0.361082D+00  0.167736D+01  0.903644D+01
     19  0.340150D-02 -0.932668D-02 -0.370577D-01 -0.549867D-01 -0.693394D-02
     20  0.430024D-01 -0.450901D-01  0.208590D+00  0.302511D-01  0.289393D-01
     21 -0.306572D-01  0.486268D-01 -0.878478D-01  0.372101D-01 -0.495438D-02
     22 -0.145063D-01  0.337819D-01  0.968155D-01  0.189762D-01 -0.106006D-01
     23 -0.115865D-02 -0.781775D-02  0.130967D-01  0.496671D-02  0.464471D-02
     24 -0.155282D-01  0.157307D-01 -0.104768D+00  0.228252D-01 -0.552775D-02
     25  0.226540D-02 -0.452060D-02  0.454794D-02 -0.115205D-01  0.366457D-02
     26  0.137532D-02 -0.340245D-03 -0.103039D-01 -0.205244D-02  0.105746D-02
     27  0.231020D-03  0.350585D-02 -0.423750D-02  0.422096D-02  0.959725D-03
     28  0.278321D-02 -0.240149D-02 -0.131760D-04  0.331436D-02  0.164634D-02
     29 -0.397842D-02 -0.282523D-02  0.102140D+00  0.695633D-02  0.355035D-02
     30  0.146175D-02  0.131754D-01  0.301305D-01  0.166879D-02 -0.496176D-02
     31  0.505797D-03  0.191341D-02  0.124361D-01  0.258776D-02  0.139828D-02
     32  0.388873D-02  0.117810D-01  0.361326D-01  0.430136D-04 -0.184712D-02
     33 -0.302636D-02 -0.106947D-01 -0.608068D-03 -0.202270D-01  0.232707D-02
                6             7             8             9            10 
      6  0.243533D+11
      7 -0.417472D+01  0.385007D+12
      8  0.955394D+01  0.106580D+02  0.385007D+12
      9  0.921777D+01  0.118649D+01  0.121084D+01  0.385007D+12
     10 -0.566253D+01  0.198186D+01  0.129542D+01  0.105811D+02  0.385007D+12
     11 -0.874665D+00  0.152000D+00  0.513859D+01  0.533849D+01  0.157307D+00
     12  0.107232D+01  0.394925D+00 -0.131697D+01 -0.100026D+01  0.474815D+00
     13  0.112411D+00  0.241252D+00 -0.130727D+00 -0.871336D+00  0.676332D-01
     14  0.960270D+00  0.362287D+00 -0.672698D+00 -0.905119D+00  0.271520D+00
     15 -0.274305D-01 -0.682445D-02 -0.180865D+00  0.355665D-01 -0.323364D-01
     16  0.297027D-01  0.304692D-01 -0.664223D-01  0.696809D-01  0.215003D-01
     17  0.127125D+02 -0.238377D+01 -0.297099D+00 -0.104732D+01 -0.299767D+01
     18 -0.516065D+01 -0.415353D+00  0.570996D-01  0.408149D+00  0.460687D-01
     19 -0.843190D-02 -0.345120D-02 -0.387605D-01  0.120461D-02 -0.820498D-02
     20 -0.183940D-01 -0.328321D-01  0.200767D-01  0.162867D+00 -0.117328D-01
     21  0.178426D-02  0.267442D-01  0.242249D-01 -0.248147D+00  0.654661D-02
     22  0.165297D-01  0.596845D-02 -0.709821D-02 -0.154435D-01  0.505664D-02
     23 -0.273496D-02 -0.795147D-03 -0.228056D-03  0.127198D-02 -0.555298D-04
     24  0.122468D-01  0.548580D-02 -0.651471D-02  0.922735D-02  0.187264D-03
     25 -0.254624D-02 -0.143778D-02  0.322902D-02  0.282277D-02 -0.255823D-02
     26 -0.914735D-03 -0.634723D-03  0.282860D-02 -0.142951D-02 -0.704011D-03
     27  0.629518D-03 -0.685240D-03 -0.116771D-02  0.464465D-02  0.315937D-03
     28 -0.150112D-02 -0.238553D-02  0.102015D-02  0.223859D-01 -0.183032D-02
     29  0.150898D-02  0.684922D-03 -0.361562D-02 -0.932051D-03  0.137388D-02
     30  0.453580D-02  0.133869D-02  0.112471D-02 -0.342003D-02  0.223976D-02
     31 -0.171923D-03 -0.184571D-03  0.864952D-05  0.718984D-03 -0.512062D-04
     32  0.163475D-02  0.104302D-02  0.454718D-02 -0.216857D-03  0.163174D-02
     33 -0.300036D-02  0.357622D-02  0.233314D-02 -0.663640D-02 -0.735884D-03
               11            12            13            14            15 
     11  0.243533D+11
     12  0.146139D+03  0.385007D+12
     13  0.134471D+03 -0.263341D+02  0.385007D+12
     14  0.318302D+02 -0.405514D+01 -0.674904D+01  0.243533D+11
     15 -0.648258D+01  0.266580D+01  0.117100D+02  0.165676D+03  0.385007D+12
     16 -0.928380D+00  0.208703D+01  0.145777D+01  0.547777D+02 -0.920121D+01
     17 -0.698992D-01 -0.208433D+00 -0.151301D-01 -0.200121D+00  0.129421D-01
     18  0.892899D-01 -0.157815D+00 -0.165394D-01 -0.160144D+00  0.808810D-02
     19 -0.103865D+01 -0.277733D+00  0.428693D-01 -0.515441D+01 -0.143637D+01
     20  0.458611D+00  0.420316D+01  0.195124D+01  0.803730D+01 -0.101341D+01
     21  0.404522D+01 -0.540734D+00 -0.795421D+00  0.170287D+01  0.491997D+01
     22  0.666496D-02 -0.189048D-01 -0.215209D-01  0.560039D+01  0.399241D+00
     23 -0.182265D+00  0.736158D-01  0.312216D-01  0.510393D+00 -0.866340D-01
     24  0.276498D+01  0.112153D+01 -0.138127D+00 -0.406991D+00  0.268992D+01
     25 -0.607960D-01  0.432920D+00  0.180381D+00  0.134858D+01 -0.545263D+00
     26  0.694828D-01  0.312623D-01 -0.854634D-02  0.183967D+00  0.573506D+00
     27 -0.318124D-01 -0.585317D-01 -0.162425D-01  0.207203D+00  0.675581D+00
     28 -0.187428D-01  0.848924D-03 -0.179442D-01  0.742443D+00 -0.672010D-01
     29 -0.123332D+00  0.721039D-01 -0.534901D-03  0.132681D+01  0.326887D+00
     30  0.338991D+00 -0.614553D-01 -0.194416D-01 -0.655189D+00  0.681321D+00
     31  0.164858D-01  0.868522D-02 -0.350937D-02 -0.177115D+00  0.158250D+00
     32  0.522617D+00 -0.552677D-01  0.274857D-02 -0.662942D+00  0.276675D+00
     33 -0.144726D+00  0.416114D-01 -0.194961D+00 -0.904463D+00 -0.969854D+00
               16            17            18            19            20 
     16  0.243533D+11
     17 -0.926561D-02  0.708114D+10
     18 -0.606365D-02 -0.844430D+02  0.385007D+12
     19  0.104088D+02  0.197337D-02  0.122602D-02  0.708114D+10
     20  0.242634D+00  0.158399D-02  0.192377D-02 -0.256486D+00  0.201170D+10
     21  0.106383D+01 -0.153907D-03 -0.156947D-02 -0.318350D+00  0.696327D+02
     22  0.171719D+02 -0.321661D-02 -0.262785D-02 -0.192092D+01 -0.188681D-02
     23  0.277772D+01  0.493044D-03  0.382402D-03 -0.199359D+01 -0.248645D+00
     24  0.438455D-01 -0.220079D-02 -0.172428D-02  0.115059D-01  0.140747D+02
     25 -0.257340D+00  0.422023D-03  0.189205D-03 -0.437587D-01  0.708163D+01
     26  0.465669D+00  0.254841D-03  0.139237D-03  0.580793D-02  0.808718D+00
     27  0.619813D+00 -0.149410D-03 -0.115746D-03 -0.276462D-01  0.818315D+00
     28 -0.118679D-01  0.142744D-03  0.104136D-03 -0.955214D-02  0.754006D+00
     29 -0.458633D+00 -0.341632D-03 -0.230899D-03 -0.667347D+00  0.872226D-01
     30  0.993400D+00 -0.105111D-02 -0.770313D-03 -0.999389D+00  0.647821D-01
     31  0.739555D+01  0.575218D-04  0.401483D-04 -0.741813D+00  0.153224D-01
     32  0.203005D+01 -0.673543D-03 -0.443974D-03 -0.105451D+01  0.932928D-02
     33 -0.472001D+00  0.117560D-02  0.870141D-03  0.372196D-01 -0.181737D+01
               21            22            23            24            25 
     21  0.385007D+12
     22  0.165266D-01  0.201170D+10
     23  0.200724D+00  0.713641D+02  0.385007D+12
     24  0.333495D+01 -0.202453D-01  0.370218D-01  0.243533D+11
     25  0.655012D+00 -0.126544D-01  0.291120D-01  0.531628D+02  0.243533D+11
     26 -0.493209D+00  0.699042D-02  0.227621D-02 -0.942589D+01  0.141611D+03
     27 -0.181700D+00 -0.165746D-02  0.246892D-02 -0.925629D+01  0.141016D+03
     28 -0.298156D+00 -0.339751D-02  0.461823D-02 -0.598640D+01  0.133819D+03
     29 -0.284685D-01  0.972468D+01  0.267124D+01 -0.131033D-01 -0.324852D-02
     30 -0.190991D-01 -0.128530D+01  0.381293D+01  0.149629D-01  0.102719D-01
     31 -0.156807D-01 -0.817289D+00  0.921802D+01  0.445347D-02 -0.207559D-02
     32  0.424293D-01 -0.149804D+01  0.304912D+01 -0.100645D-01  0.523138D-02
     33 -0.185560D+01 -0.806188D-01 -0.221218D-01  0.102487D+02 -0.380916D+01
               26            27            28            29            30 
     26  0.385007D+12
     27 -0.289422D+02  0.385007D+12
     28 -0.233803D+02 -0.224608D+02  0.385007D+12
     29 -0.521042D-03 -0.774942D-04  0.209639D-03  0.243533D+11
     30  0.663591D-02  0.262658D-02 -0.495446D-03  0.155654D+03  0.385007D+12
     31  0.865828D-02  0.318893D-02  0.472874D-03  0.143279D+03 -0.231029D+02
     32 -0.354077D-02 -0.546387D-02  0.303733D-04  0.157782D+03 -0.232218D+02
     33 -0.194309D+01 -0.187187D+01 -0.344857D+01  0.174762D-01 -0.500441D-01
               31            32            33 
     31  0.385007D+12
     32 -0.233751D+02  0.385007D+12
     33 -0.711176D-02 -0.538748D-01  0.708114D+10
 End of Minotr F.D. properties file   721 does not exist.
 End of Minotr F.D. properties file   722 does not exist.
 End of Minotr F.D. properties file   788 does not exist.
 Leave Link 1002 at Wed Jun 25 12:58:23 2014, MaxMem=  4294967296 cpu:    450355.7
 (Enter /home/ztw1e12/g09/l601.exe)
 Copying SCF densities to generalized density rwf, IOpCl= 0 IROHF=0.

 **********************************************************************

            Population analysis using the SCF density.

 **********************************************************************

 Orbital symmetries:
       Occupied  (A) (A) (A) (A) (A) (A) (A) (A) (A) (A) (A) (A)
                 (A) (A) (A) (A) (A) (A) (A) (A) (A) (A) (A) (A)
                 (A) (A) (A) (A) (A) (A) (A) (A) (A) (A) (A) (A)
                 (A) (A) (A) (A) (A) (A) (A) (A) (A) (A) (A) (A)
                 (A) (A) (A) (A) (A) (A) (A) (A) (A) (A) (A) (A)
                 (A) (A) (A)
       Virtual   (A) (A) (A) (A) (A) (A) (A) (A) (A) (A) (A) (A)
                 (A) (A) (A) (A) (A) (A) (A) (A) (A) (A) (A) (A)
                 (A) (A) (A) (A) (A) (A) (A) (A) (A) (A) (A) (A)
                 (A) (A) (A) (A) (A) (A) (A) (A) (A) (A) (A) (A)
                 (A) (A) (A) (A) (A) (A) (A) (A) (A) (A) (A) (A)
                 (A) (A) (A) (A) (A) (A) (A) (A) (A) (A) (A) (A)
                 (A) (A) (A) (A) (A) (A) (A) (A) (A) (A) (A) (A)
                 (A) (A) (A) (A) (A) (A) (A) (A) (A) (A) (A) (A)
                 (A) (A) (A) (A) (A) (A) (A) (A) (A) (A) (A) (A)
                 (A) (A) (A) (A) (A) (A) (A) (A) (A) (A) (A) (A)
                 (A) (A) (A) (A) (A) (A) (A) (A) (A) (A) (A) (A)
                 (A) (A) (A) (A) (A) (A) (A) (A) (A) (A) (A) (A)
                 (A) (A) (A) (A) (A) (A) (A) (A) (A) (A) (A) (A)
                 (A) (A) (A) (A) (A) (A) (A) (A) (A) (A) (A) (A)
                 (A) (A) (A) (A) (A) (A) (A) (A) (A) (A) (A) (A)
                 (A) (A) (A) (A) (A) (A) (A) (A) (A) (A) (A) (A)
                 (A) (A) (A) (A) (A) (A) (A) (A) (A) (A) (A) (A)
                 (A) (A) (A) (A) (A) (A) (A) (A) (A) (A) (A) (A)
                 (A) (A) (A) (A) (A) (A) (A) (A) (A) (A) (A) (A)
                 (A) (A) (A) (A) (A) (A) (A) (A) (A) (A) (A) (A)
                 (A) (A) (A) (A) (A) (A) (A) (A) (A) (A) (A) (A)
                 (A) (A) (A) (A) (A) (A) (A) (A) (A) (A) (A) (A)
                 (A) (A) (A) (A) (A) (A) (A) (A) (A) (A) (A) (A)
                 (A) (A) (A) (A) (A) (A) (A) (A) (A) (A) (A) (A)
                 (A) (A) (A) (A) (A) (A) (A) (A) (A) (A) (A) (A)
                 (A) (A) (A) (A) (A) (A) (A) (A) (A) (A) (A) (A)
                 (A) (A) (A) (A) (A) (A) (A) (A) (A) (A) (A) (A)
                 (A) (A) (A) (A) (A) (A) (A) (A) (A) (A) (A) (A)
                 (A) (A) (A) (A) (A) (A) (A) (A) (A) (A) (A) (A)
                 (A) (A) (A) (A) (A) (A) (A) (A) (A) (A) (A) (A)
                 (A) (A) (A) (A) (A) (A) (A) (A) (A) (A) (A) (A)
                 (A) (A) (A) (A) (A) (A) (A) (A) (A) (A) (A) (A)
                 (A) (A) (A) (A) (A) (A) (A) (A) (A) (A) (A) (A)
                 (A) (A) (A) (A) (A) (A) (A) (A) (A) (A) (A) (A)
                 (A) (A) (A) (A) (A) (A) (A) (A) (A) (A) (A) (A)
                 (A) (A) (A) (A) (A) (A) (A) (A) (A) (A) (A) (A)
                 (A) (A) (A) (A) (A) (A) (A) (A) (A) (A) (A) (A)
                 (A) (A) (A) (A) (A) (A) (A) (A) (A) (A) (A) (A)
                 (A) (A) (A) (A) (A) (A) (A) (A) (A) (A) (A) (A)
                 (A) (A) (A) (A) (A) (A) (A) (A) (A) (A) (A) (A)
                 (A) (A) (A) (A) (A) (A) (A) (A) (A) (A) (A) (A)
                 (A) (A) (A) (A) (A) (A) (A) (A) (A) (A) (A) (A)
                 (A) (A) (A) (A) (A) (A) (A) (A) (A) (A) (A) (A)
                 (A) (A) (A) (A) (A) (A) (A) (A) (A) (A) (A) (A)
                 (A) (A) (A) (A) (A) (A) (A) (A) (A) (A) (A) (A)
                 (A) (A) (A) (A) (A) (A) (A) (A) (A) (A) (A) (A)
                 (A) (A) (A) (A) (A) (A) (A) (A) (A) (A) (A) (A)
                 (A) (A) (A) (A) (A) (A) (A) (A) (A) (A) (A) (A)
                 (A) (A) (A) (A) (A) (A) (A) (A) (A) (A) (A) (A)
                 (A) (A) (A) (A) (A) (A) (A) (A) (A) (A) (A) (A)
                 (A) (A) (A) (A) (A) (A) (A) (A) (A) (A) (A) (A)
                 (A) (A) (A) (A) (A) (A) (A) (A) (A) (A) (A) (A)
                 (A) (A) (A) (A) (A) (A) (A) (A) (A) (A) (A) (A)
                 (A) (A) (A) (A) (A) (A) (A) (A) (A) (A) (A) (A)
                 (A) (A) (A) (A) (A) (A) (A) (A) (A) (A) (A) (A)
                 (A) (A) (A) (A) (A) (A) (A) (A) (A) (A) (A) (A)
                 (A) (A) (A) (A) (A) (A) (A) (A) (A) (A) (A) (A)
                 (A) (A) (A) (A) (A) (A) (A) (A) (A) (A) (A) (A)
                 (A) (A) (A) (A) (A) (A) (A) (A) (A) (A) (A) (A)
                 (A) (A) (A) (A) (A) (A) (A) (A) (A) (A) (A) (A)
                 (A) (A) (A) (A) (A) (A) (A) (A) (A) (A) (A) (A)
                 (A) (A) (A) (A) (A) (A) (A) (A) (A) (A) (A) (A)
                 (A) (A) (A) (A) (A) (A) (A) (A) (A) (A) (A) (A)
                 (A) (A) (A) (A) (A) (A) (A) (A) (A) (A) (A) (A)
                 (A) (A) (A) (A) (A) (A) (A) (A) (A) (A) (A) (A)
                 (A) (A) (A) (A) (A) (A) (A) (A) (A) (A) (A) (A)
                 (A) (A) (A) (A) (A) (A) (A) (A) (A) (A) (A) (A)
                 (A) (A) (A) (A) (A) (A) (A) (A) (A) (A) (A) (A)
                 (A) (A) (A) (A) (A) (A) (A) (A) (A) (A) (A) (A)
                 (A) (A) (A) (A) (A) (A) (A) (A) (A) (A) (A) (A)
                 (A) (A) (A) (A) (A) (A) (A) (A) (A) (A) (A) (A)
                 (A) (A) (A) (A) (A) (A) (A) (A) (A) (A) (A) (A)
                 (A) (A) (A) (A) (A) (A) (A) (A) (A) (A) (A) (A)
                 (A) (A) (A) (A) (A) (A) (A) (A) (A) (A) (A) (A)
                 (A) (A) (A) (A) (A) (A) (A) (A) (A) (A) (A) (A)
                 (A) (A) (A) (A) (A) (A) (A) (A) (A) (A) (A) (A)
                 (A) (A) (A) (A) (A) (A) (A) (A) (A) (A) (A) (A)
                 (A) (A) (A) (A) (A) (A) (A) (A) (A) (A) (A) (A)
                 (A) (A) (A) (A) (A) (A) (A) (A) (A) (A) (A) (A)
                 (A) (A) (A) (A) (A) (A) (A) (A) (A) (A) (A) (A)
                 (A) (A) (A) (A) (A) (A) (A) (A) (A) (A) (A) (A)
                 (A) (A) (A) (A) (A) (A) (A) (A) (A) (A) (A) (A)
                 (A) (A) (A) (A) (A) (A) (A) (A) (A) (A) (A) (A)
                 (A) (A) (A) (A) (A) (A) (A) (A) (A)
 The electronic state is 1-A.
 Alpha  occ. eigenvalues --  -19.25110 -19.17831 -19.16842 -14.42864 -14.41727
 Alpha  occ. eigenvalues --  -10.34718 -10.33273 -10.31208 -10.29219 -10.27043
 Alpha  occ. eigenvalues --  -10.25831 -10.25380 -10.25310 -10.25163 -10.25089
 Alpha  occ. eigenvalues --  -10.24981 -10.24524  -1.09430  -1.06026  -1.04670
 Alpha  occ. eigenvalues --   -0.95933  -0.93736  -0.88212  -0.81793  -0.77411
 Alpha  occ. eigenvalues --   -0.77201  -0.74487  -0.71969  -0.66746  -0.64667
 Alpha  occ. eigenvalues --   -0.61502  -0.60934  -0.59712  -0.56835  -0.55263
 Alpha  occ. eigenvalues --   -0.52428  -0.51178  -0.49854  -0.48766  -0.47065
 Alpha  occ. eigenvalues --   -0.46748  -0.45818  -0.45643  -0.44400  -0.43943
 Alpha  occ. eigenvalues --   -0.43542  -0.42592  -0.41986  -0.41480  -0.41085
 Alpha  occ. eigenvalues --   -0.40450  -0.39532  -0.38844  -0.36959  -0.36421
 Alpha  occ. eigenvalues --   -0.35623  -0.35258  -0.30206  -0.27878  -0.27562
 Alpha  occ. eigenvalues --   -0.27238  -0.25908  -0.24177
 Alpha virt. eigenvalues --   -0.01925  -0.00041   0.00772   0.01928   0.01996
 Alpha virt. eigenvalues --    0.03082   0.03886   0.04757   0.05454   0.06571
 Alpha virt. eigenvalues --    0.07083   0.07689   0.09072   0.09825   0.10502
 Alpha virt. eigenvalues --    0.10887   0.11758   0.12291   0.12752   0.13312
 Alpha virt. eigenvalues --    0.14962   0.15822   0.16284   0.17273   0.17783
 Alpha virt. eigenvalues --    0.18897   0.20798   0.21642   0.22632   0.24220
 Alpha virt. eigenvalues --    0.24495   0.24890   0.25462   0.25971   0.26290
 Alpha virt. eigenvalues --    0.27167   0.27747   0.28099   0.29239   0.29524
 Alpha virt. eigenvalues --    0.29958   0.30539   0.31378   0.32052   0.32215
 Alpha virt. eigenvalues --    0.32556   0.33150   0.33891   0.34135   0.35048
 Alpha virt. eigenvalues --    0.35307   0.36124   0.36493   0.36966   0.37616
 Alpha virt. eigenvalues --    0.38280   0.38625   0.38992   0.39732   0.39913
 Alpha virt. eigenvalues --    0.40145   0.40327   0.40563   0.40899   0.41422
 Alpha virt. eigenvalues --    0.42030   0.42067   0.42791   0.43322   0.43379
 Alpha virt. eigenvalues --    0.43949   0.44474   0.45176   0.45784   0.46667
 Alpha virt. eigenvalues --    0.47513   0.48369   0.48989   0.49358   0.50080
 Alpha virt. eigenvalues --    0.51023   0.51209   0.52121   0.52411   0.53058
 Alpha virt. eigenvalues --    0.53679   0.53799   0.55352   0.56123   0.56798
 Alpha virt. eigenvalues --    0.56991   0.58100   0.59584   0.60452   0.61293
 Alpha virt. eigenvalues --    0.62309   0.62800   0.64151   0.64613   0.64983
 Alpha virt. eigenvalues --    0.65471   0.65784   0.66036   0.66892   0.68041
 Alpha virt. eigenvalues --    0.69352   0.69387   0.70092   0.70548   0.71127
 Alpha virt. eigenvalues --    0.72425   0.73690   0.74340   0.74616   0.75685
 Alpha virt. eigenvalues --    0.76065   0.77411   0.77925   0.79469   0.79821
 Alpha virt. eigenvalues --    0.80219   0.80875   0.81515   0.82301   0.82505
 Alpha virt. eigenvalues --    0.82971   0.83469   0.84772   0.85211   0.86132
 Alpha virt. eigenvalues --    0.87140   0.87728   0.88706   0.89116   0.90363
 Alpha virt. eigenvalues --    0.90883   0.91827   0.92201   0.93375   0.94263
 Alpha virt. eigenvalues --    0.94492   0.95447   0.95823   0.96736   0.97937
 Alpha virt. eigenvalues --    0.98263   0.98716   0.99538   0.99976   1.01340
 Alpha virt. eigenvalues --    1.01592   1.02714   1.04045   1.04923   1.05254
 Alpha virt. eigenvalues --    1.05573   1.07489   1.07734   1.08638   1.09079
 Alpha virt. eigenvalues --    1.10358   1.10896   1.11835   1.12272   1.13542
 Alpha virt. eigenvalues --    1.14394   1.14549   1.15785   1.16216   1.16580
 Alpha virt. eigenvalues --    1.17319   1.17849   1.18351   1.19585   1.19982
 Alpha virt. eigenvalues --    1.20323   1.21403   1.21549   1.21845   1.22618
 Alpha virt. eigenvalues --    1.22949   1.23364   1.23811   1.24773   1.25631
 Alpha virt. eigenvalues --    1.25852   1.25939   1.26512   1.26812   1.27019
 Alpha virt. eigenvalues --    1.27739   1.28211   1.29449   1.30442   1.31010
 Alpha virt. eigenvalues --    1.32043   1.32550   1.33046   1.33374   1.34156
 Alpha virt. eigenvalues --    1.34426   1.35253   1.36002   1.37252   1.37998
 Alpha virt. eigenvalues --    1.38274   1.39220   1.40858   1.42091   1.43347
 Alpha virt. eigenvalues --    1.44300   1.46638   1.47332   1.49707   1.51725
 Alpha virt. eigenvalues --    1.51931   1.54022   1.54999   1.56870   1.57494
 Alpha virt. eigenvalues --    1.58525   1.59405   1.61509   1.62843   1.64182
 Alpha virt. eigenvalues --    1.65091   1.66140   1.66404   1.69489   1.71420
 Alpha virt. eigenvalues --    1.72033   1.73248   1.74322   1.76098   1.78355
 Alpha virt. eigenvalues --    1.80463   1.81405   1.82439   1.83409   1.84299
 Alpha virt. eigenvalues --    1.85053   1.87072   1.88548   1.89204   1.89792
 Alpha virt. eigenvalues --    1.90583   1.92058   1.92849   1.93813   1.95922
 Alpha virt. eigenvalues --    1.96361   1.97667   1.99425   2.01147   2.02249
 Alpha virt. eigenvalues --    2.02851   2.03799   2.05649   2.07638   2.08420
 Alpha virt. eigenvalues --    2.10200   2.10946   2.11127   2.12534   2.14212
 Alpha virt. eigenvalues --    2.16725   2.16956   2.17480   2.19661   2.20638
 Alpha virt. eigenvalues --    2.20977   2.22984   2.23784   2.25672   2.26510
 Alpha virt. eigenvalues --    2.26593   2.28258   2.29324   2.30691   2.33069
 Alpha virt. eigenvalues --    2.33312   2.34552   2.35396   2.36650   2.37175
 Alpha virt. eigenvalues --    2.38151   2.39304   2.39699   2.41141   2.41793
 Alpha virt. eigenvalues --    2.43184   2.43910   2.45078   2.47319   2.47507
 Alpha virt. eigenvalues --    2.49724   2.51542   2.51805   2.52640   2.53390
 Alpha virt. eigenvalues --    2.54446   2.56027   2.57707   2.58524   2.59527
 Alpha virt. eigenvalues --    2.61252   2.63767   2.64534   2.66100   2.66288
 Alpha virt. eigenvalues --    2.67107   2.67765   2.68089   2.68559   2.68817
 Alpha virt. eigenvalues --    2.70394   2.70754   2.70869   2.71251   2.72026
 Alpha virt. eigenvalues --    2.72454   2.72714   2.74433   2.74923   2.76010
 Alpha virt. eigenvalues --    2.76139   2.76949   2.78516   2.79160   2.80740
 Alpha virt. eigenvalues --    2.81725   2.83037   2.83747   2.84412   2.85835
 Alpha virt. eigenvalues --    2.86787   2.87445   2.88190   2.89029   2.89524
 Alpha virt. eigenvalues --    2.89826   2.90308   2.90605   2.91338   2.92471
 Alpha virt. eigenvalues --    2.93329   2.93409   2.94752   2.95133   2.95642
 Alpha virt. eigenvalues --    2.95925   2.96529   2.96722   2.97235   2.97895
 Alpha virt. eigenvalues --    2.98787   2.99209   3.00098   3.00970   3.01034
 Alpha virt. eigenvalues --    3.02505   3.02944   3.03418   3.03623   3.04176
 Alpha virt. eigenvalues --    3.05350   3.05941   3.06602   3.08107   3.09062
 Alpha virt. eigenvalues --    3.09811   3.10329   3.11902   3.12279   3.13200
 Alpha virt. eigenvalues --    3.14732   3.14798   3.15067   3.15714   3.16380
 Alpha virt. eigenvalues --    3.17668   3.17895   3.18716   3.18991   3.20345
 Alpha virt. eigenvalues --    3.20840   3.21776   3.22506   3.24232   3.24920
 Alpha virt. eigenvalues --    3.25737   3.26040   3.26385   3.27042   3.27998
 Alpha virt. eigenvalues --    3.28241   3.28661   3.29239   3.29859   3.30348
 Alpha virt. eigenvalues --    3.30570   3.31907   3.32674   3.33176   3.33957
 Alpha virt. eigenvalues --    3.34684   3.35210   3.36308   3.37431   3.37795
 Alpha virt. eigenvalues --    3.39022   3.39824   3.40937   3.41376   3.42508
 Alpha virt. eigenvalues --    3.42851   3.43625   3.44339   3.45262   3.45606
 Alpha virt. eigenvalues --    3.46886   3.47564   3.48310   3.49516   3.49986
 Alpha virt. eigenvalues --    3.51217   3.52609   3.54116   3.54986   3.55657
 Alpha virt. eigenvalues --    3.56602   3.57419   3.58333   3.59969   3.60365
 Alpha virt. eigenvalues --    3.62407   3.62756   3.64013   3.64440   3.66278
 Alpha virt. eigenvalues --    3.67620   3.67856   3.68195   3.68653   3.69602
 Alpha virt. eigenvalues --    3.70794   3.71650   3.72331   3.72608   3.73421
 Alpha virt. eigenvalues --    3.74559   3.75660   3.76411   3.76989   3.77134
 Alpha virt. eigenvalues --    3.78277   3.79141   3.79882   3.80641   3.81506
 Alpha virt. eigenvalues --    3.82529   3.83662   3.84197   3.84770   3.85636
 Alpha virt. eigenvalues --    3.86122   3.87152   3.87940   3.88545   3.89214
 Alpha virt. eigenvalues --    3.91576   3.92326   3.93557   3.94221   3.94696
 Alpha virt. eigenvalues --    3.95339   3.97519   3.98611   3.98993   3.99428
 Alpha virt. eigenvalues --    4.00958   4.01434   4.03046   4.04273   4.05181
 Alpha virt. eigenvalues --    4.06223   4.06477   4.06675   4.07077   4.08111
 Alpha virt. eigenvalues --    4.08483   4.09989   4.11440   4.13293   4.13837
 Alpha virt. eigenvalues --    4.14764   4.15501   4.15921   4.16966   4.18236
 Alpha virt. eigenvalues --    4.18553   4.20270   4.20793   4.21889   4.22101
 Alpha virt. eigenvalues --    4.23726   4.24520   4.25094   4.25312   4.26542
 Alpha virt. eigenvalues --    4.27357   4.27493   4.29292   4.30266   4.30877
 Alpha virt. eigenvalues --    4.31726   4.32762   4.34442   4.35895   4.37587
 Alpha virt. eigenvalues --    4.38311   4.39208   4.41079   4.42714   4.43535
 Alpha virt. eigenvalues --    4.45433   4.45963   4.47982   4.48984   4.50094
 Alpha virt. eigenvalues --    4.52803   4.55258   4.55846   4.57123   4.58147
 Alpha virt. eigenvalues --    4.59976   4.60243   4.61060   4.62111   4.63765
 Alpha virt. eigenvalues --    4.64167   4.64915   4.65023   4.65960   4.66982
 Alpha virt. eigenvalues --    4.67734   4.68693   4.70643   4.72418   4.73595
 Alpha virt. eigenvalues --    4.74343   4.74783   4.76253   4.77300   4.79370
 Alpha virt. eigenvalues --    4.80805   4.81584   4.83675   4.84593   4.86525
 Alpha virt. eigenvalues --    4.86781   4.88634   4.88985   4.90316   4.90533
 Alpha virt. eigenvalues --    4.91412   4.93328   4.94274   4.94864   4.95156
 Alpha virt. eigenvalues --    4.97799   4.99006   5.00039   5.01707   5.03159
 Alpha virt. eigenvalues --    5.03842   5.06198   5.06513   5.07719   5.08752
 Alpha virt. eigenvalues --    5.09911   5.10914   5.12491   5.13100   5.14274
 Alpha virt. eigenvalues --    5.14925   5.17443   5.18291   5.18716   5.19877
 Alpha virt. eigenvalues --    5.21999   5.23486   5.23968   5.24922   5.29187
 Alpha virt. eigenvalues --    5.31098   5.33572   5.34202   5.35773   5.37582
 Alpha virt. eigenvalues --    5.40169   5.43706   5.44202   5.45423   5.48740
 Alpha virt. eigenvalues --    5.50355   5.51592   5.51783   5.53330   5.55700
 Alpha virt. eigenvalues --    5.57152   5.58012   5.59263   5.61388   5.62210
 Alpha virt. eigenvalues --    5.63210   5.64523   5.65504   5.66385   5.67411
 Alpha virt. eigenvalues --    5.68603   5.69449   5.70554   5.71236   5.72181
 Alpha virt. eigenvalues --    5.74721   5.75413   5.78941   5.80219   5.81571
 Alpha virt. eigenvalues --    5.85662   5.88999   5.89696   5.91230   5.95684
 Alpha virt. eigenvalues --    5.98532   5.99812   6.03131   6.07094   6.09816
 Alpha virt. eigenvalues --    6.17094   6.17743   6.18601   6.20362   6.27895
 Alpha virt. eigenvalues --    6.45824   6.46488   6.50338   6.51116   6.56401
 Alpha virt. eigenvalues --    6.60551   6.60618   6.62020   6.64245   6.67121
 Alpha virt. eigenvalues --    6.79810   6.79999   6.81144   6.88014   6.88848
 Alpha virt. eigenvalues --    6.90983   6.91380   6.91921   6.92137   7.06310
 Alpha virt. eigenvalues --    7.17322   7.18901   7.23246   7.26692   7.29004
 Alpha virt. eigenvalues --    7.67430   7.98635   8.09641   8.11678   8.14222
 Alpha virt. eigenvalues --    8.18645   8.21485   8.26413   8.35724   8.65920
 Alpha virt. eigenvalues --    8.73781   8.75538   8.77263   8.81142   8.81880
 Alpha virt. eigenvalues --    8.83527   8.84025   8.87123   8.87605   8.90656
 Alpha virt. eigenvalues --    8.92223   8.92615   8.96278   9.03034   9.04675
 Alpha virt. eigenvalues --    9.07541   9.10902   9.19375   9.21172   9.30737
 Alpha virt. eigenvalues --    9.35659   9.39990   9.40690   9.45550   9.48375
 Alpha virt. eigenvalues --    9.57902   9.61576   9.77389   9.81766  10.02098
 Alpha virt. eigenvalues --   10.06863  10.11122  10.12985  10.13715  10.16569
 Alpha virt. eigenvalues --   10.17980  10.19376  10.20442  10.24616  10.26117
 Alpha virt. eigenvalues --   10.30946  10.37502  10.82470  11.69863  11.74771
 Alpha virt. eigenvalues --   11.82338  11.91859  11.95942  12.01722  12.10965
 Alpha virt. eigenvalues --   12.15971  12.20500  12.24326  12.29580  12.32675
 Alpha virt. eigenvalues --   12.37629  12.55237  12.58612  12.82314  12.86205
 Alpha virt. eigenvalues --   12.92538  14.84442  14.95348  14.99127  15.23747
 Alpha virt. eigenvalues --   15.25058  15.42171  15.98440  15.98604  16.01110
 Alpha virt. eigenvalues --   16.79747  16.94386  21.89337  21.99712  22.06157
 Alpha virt. eigenvalues --   40.11077  40.17365  40.19137  40.20705  40.22147
 Alpha virt. eigenvalues --   40.26270  40.29411  40.36900  40.56558  40.65335
[...]
 Alpha virt. eigenvalues --    6.78138   6.80427   6.85822   6.86865   6.89446
 Alpha virt. eigenvalues --    6.91095   6.92927   7.08053   7.09081   7.10393
 Alpha virt. eigenvalues --    7.15360   7.17713   7.28564   7.43298   8.63538
 Alpha virt. eigenvalues --    9.50679   9.88117  11.94870  12.10218  12.28933
 Alpha virt. eigenvalues --   12.42555  12.55352  12.75806  12.92771  13.22443
 Alpha virt. eigenvalues --   13.48247  13.56545  13.61475  13.73253  14.00343
 Alpha virt. eigenvalues --   15.53700
          Condensed to atoms (all electrons):
               1          2          3          4          5          6
     1  C    5.421176   0.222393   0.006828  -0.045924  -0.022554   0.302941
     2  C    0.222393   5.331322   0.323814  -0.002161  -0.033154   0.024264
     3  C    0.006828   0.323814   5.395432   0.277700  -0.046305  -0.067046
     4  C   -0.045924  -0.002161   0.277700   5.246118   0.439264  -0.025197
     5  C   -0.022554  -0.033154  -0.046305   0.439264   5.042647   0.406016
     6  C    0.302941   0.024264  -0.067046  -0.025197   0.406016   4.855784
     7  H    0.452334  -0.034856   0.009046  -0.000571   0.003722  -0.073169
     8  H   -0.025084   0.435952  -0.072629   0.007021  -0.001705   0.007424
     9  H   -0.003185   0.007881  -0.101194   0.450111  -0.028360   0.010293
    10  H    0.013966  -0.005827   0.013455  -0.055953   0.449660  -0.075210
    11  C    0.007108  -0.067535   0.187029  -0.046135   0.010044  -0.002281
    12  H   -0.000305  -0.005060  -0.041698   0.004457  -0.000297   0.000140
    13  H   -0.000242   0.006450  -0.037856  -0.004287  -0.000060   0.000045
    14  C    0.000994  -0.001478  -0.013431  -0.001992  -0.000230  -0.000219
    15  H   -0.000157  -0.000778   0.005508   0.000106  -0.000170   0.000037
    16  C   -0.000048   0.001777  -0.008109   0.000948   0.000005   0.000000
    17  O   -0.090465   0.013638  -0.000656   0.002998  -0.049282   0.393223
    18  H   -0.004576   0.004608  -0.000382  -0.000740   0.002327  -0.043431
    19  O   -0.000011  -0.000806   0.001883  -0.000044  -0.000001   0.000001
    20  N   -0.000340   0.000052  -0.000567  -0.001070  -0.000221   0.000067
    21  H   -0.000132   0.000661  -0.001121   0.004522  -0.000139   0.000007
    22  N    0.000000  -0.000020   0.002498  -0.000149  -0.000002   0.000000
    23  H    0.000002  -0.000011   0.000121  -0.000047   0.000001   0.000000
    24  C   -0.000019  -0.000259  -0.002473   0.000305   0.000055   0.000010
    25  C   -0.000005  -0.000032   0.000064   0.000036  -0.000003  -0.000001
    26  H    0.000002   0.000002   0.000005  -0.000029   0.000005   0.000000
    27  H    0.000000   0.000000  -0.000012   0.000012   0.000001   0.000000
    28  H    0.000000   0.000035   0.000074  -0.000059  -0.000004  -0.000002
    29  C    0.000000   0.000005  -0.000056   0.000005   0.000000   0.000000
    30  H    0.000000   0.000001  -0.000046   0.000002   0.000000   0.000000
    31  H    0.000000   0.000000  -0.000005   0.000000   0.000000   0.000000
    32  H    0.000000   0.000000   0.000014   0.000000   0.000000   0.000000
    33  O   -0.000004  -0.000135   0.000131   0.000004   0.000001   0.000000
               7          8          9         10         11         12
     1  C    0.452334  -0.025084  -0.003185   0.013966   0.007108  -0.000305
     2  C   -0.034856   0.435952   0.007881  -0.005827  -0.067535  -0.005060
     3  C    0.009046  -0.072629  -0.101194   0.013455   0.187029  -0.041698
     4  C   -0.000571   0.007021   0.450111  -0.055953  -0.046135   0.004457
     5  C    0.003722  -0.001705  -0.028360   0.449660   0.010044  -0.000297
     6  C   -0.073169   0.007424   0.010293  -0.075210  -0.002281   0.000140
     7  H    0.533217  -0.006725   0.000054  -0.000229  -0.000191  -0.000039
     8  H   -0.006725   0.492654  -0.000198   0.000039  -0.003012   0.002036
     9  H    0.000054  -0.000198   0.505360  -0.008953   0.005943   0.000395
    10  H   -0.000229   0.000039  -0.008953   0.539195  -0.000194   0.000011
    11  C   -0.000191  -0.003012   0.005943  -0.000194   5.457151   0.417844
    12  H   -0.000039   0.002036   0.000395   0.000011   0.417844   0.444851
    13  H    0.000017   0.000501   0.002406  -0.000050   0.400274   0.001454
    14  C    0.000031  -0.000183  -0.000994   0.000022   0.179992  -0.064639
    15  H    0.000024   0.002695   0.000079   0.000002  -0.018050   0.000366
    16  C   -0.000002  -0.000277  -0.000024   0.000000  -0.039715   0.003873
    17  O   -0.004130  -0.000096  -0.000137   0.006205  -0.000004  -0.000001
    18  H    0.004534   0.000000   0.000045  -0.000926  -0.000008   0.000000
    19  O   -0.000001   0.001214   0.000004   0.000000  -0.008963   0.015335
    20  N   -0.000005   0.000298  -0.000529   0.000004  -0.044278   0.006227
    21  H    0.000002  -0.000035   0.001663  -0.000037   0.000034   0.000225
    22  N    0.000000   0.000071  -0.000005   0.000000  -0.000167   0.001264
    23  H    0.000000  -0.000002   0.000009   0.000000   0.001305  -0.000368
    24  C   -0.000001   0.000020   0.000037   0.000000   0.011785   0.000438
    25  C    0.000000  -0.000003   0.000033   0.000001   0.000372   0.000043
    26  H    0.000000   0.000002   0.000000   0.000000   0.000040  -0.000001
    27  H    0.000000   0.000000  -0.000004   0.000000  -0.000039  -0.000002
    28  H    0.000000   0.000002   0.000020   0.000000  -0.000172  -0.000002
    29  C    0.000000  -0.000004  -0.000001   0.000000  -0.000460  -0.000182
    30  H    0.000000  -0.000001   0.000000   0.000000  -0.000132   0.000228
    31  H    0.000000   0.000000   0.000000   0.000000  -0.000046  -0.000014
    32  H    0.000000   0.000000   0.000000   0.000000   0.000037  -0.000091
    33  O    0.000000  -0.000018   0.000003   0.000000   0.002195   0.000054
              13         14         15         16         17         18
     1  C   -0.000242   0.000994  -0.000157  -0.000048  -0.090465  -0.004576
     2  C    0.006450  -0.001478  -0.000778   0.001777   0.013638   0.004608
     3  C   -0.037856  -0.013431   0.005508  -0.008109  -0.000656  -0.000382
     4  C   -0.004287  -0.001992   0.000106   0.000948   0.002998  -0.000740
     5  C   -0.000060  -0.000230  -0.000170   0.000005  -0.049282   0.002327
     6  C    0.000045  -0.000219   0.000037   0.000000   0.393223  -0.043431
     7  H    0.000017   0.000031   0.000024  -0.000002  -0.004130   0.004534
     8  H    0.000501  -0.000183   0.002695  -0.000277  -0.000096   0.000000
     9  H    0.002406  -0.000994   0.000079  -0.000024  -0.000137   0.000045
    10  H   -0.000050   0.000022   0.000002   0.000000   0.006205  -0.000926
    11  C    0.400274   0.179992  -0.018050  -0.039715  -0.000004  -0.000008
    12  H    0.001454  -0.064639   0.000366   0.003873  -0.000001   0.000000
    13  H    0.466448  -0.032948   0.005317  -0.015990   0.000000   0.000000
    14  C   -0.032948   5.472709   0.428005   0.206559   0.000001   0.000000
    15  H    0.005317   0.428005   0.426093  -0.071263   0.000000   0.000000
    16  C   -0.015990   0.206559  -0.071263   4.754290   0.000000   0.000000
    17  O    0.000000   0.000001   0.000000   0.000000   7.662545   0.359911
    18  H    0.000000   0.000000   0.000000   0.000000   0.359911   0.489229
    19  O    0.000165  -0.065376   0.006715   0.704444   0.000000   0.000000
    20  N   -0.003451   0.179124  -0.039612  -0.057469   0.000000   0.000000
    21  H    0.003096  -0.018997   0.002847  -0.001232   0.000001   0.000000
    22  N    0.007918  -0.082529   0.004169   0.304992   0.000000   0.000000
    23  H    0.001686  -0.000889   0.001305  -0.035345   0.000000   0.000000
    24  C   -0.001186  -0.097310  -0.008070   0.012819   0.000000   0.000000
    25  C   -0.000091   0.006189   0.001564  -0.000474   0.000000   0.000000
    26  H    0.000012  -0.000298   0.000108  -0.000167   0.000000   0.000000
    27  H   -0.000017  -0.000404  -0.000201   0.000437   0.000000   0.000000
    28  H   -0.000022   0.001204  -0.000349  -0.000179   0.000000   0.000000
    29  C   -0.000324   0.009528  -0.000685  -0.050696   0.000000   0.000000
    30  H   -0.000299  -0.001205  -0.000186  -0.001840   0.000000   0.000000
    31  H   -0.000022   0.000643  -0.000010   0.008018   0.000000   0.000000
    32  H    0.000059   0.001517   0.000212  -0.005782   0.000000   0.000000
    33  O   -0.000021   0.003994   0.018454   0.006127   0.000000   0.000000
              19         20         21         22         23         24
     1  C   -0.000011  -0.000340  -0.000132   0.000000   0.000002  -0.000019
     2  C   -0.000806   0.000052   0.000661  -0.000020  -0.000011  -0.000259
     3  C    0.001883  -0.000567  -0.001121   0.002498   0.000121  -0.002473
     4  C   -0.000044  -0.001070   0.004522  -0.000149  -0.000047   0.000305
     5  C   -0.000001  -0.000221  -0.000139  -0.000002   0.000001   0.000055
     6  C    0.000001   0.000067   0.000007   0.000000   0.000000   0.000010
     7  H   -0.000001  -0.000005   0.000002   0.000000   0.000000  -0.000001
     8  H    0.001214   0.000298  -0.000035   0.000071  -0.000002   0.000020
     9  H    0.000004  -0.000529   0.001663  -0.000005   0.000009   0.000037
    10  H    0.000000   0.000004  -0.000037   0.000000   0.000000   0.000000
    11  C   -0.008963  -0.044278   0.000034  -0.000167   0.001305   0.011785
    12  H    0.015335   0.006227   0.000225   0.001264  -0.000368   0.000438
    13  H    0.000165  -0.003451   0.003096   0.007918   0.001686  -0.001186
    14  C   -0.065376   0.179124  -0.018997  -0.082529  -0.000889  -0.097310
    15  H    0.006715  -0.039612   0.002847   0.004169   0.001305  -0.008070
    16  C    0.704444  -0.057469  -0.001232   0.304992  -0.035345   0.012819
    17  O    0.000000   0.000000   0.000001   0.000000   0.000000   0.000000
    18  H    0.000000   0.000000   0.000000   0.000000   0.000000   0.000000
    19  O    7.847089   0.005281  -0.000148  -0.125446   0.005217  -0.000979
    20  N    0.005281   6.672783   0.365235   0.002068   0.026644   0.312217
    21  H   -0.000148   0.365235   0.492337   0.000319   0.000578  -0.020041
    22  N   -0.125446   0.002068   0.000319   6.483049   0.386935   0.008721
    23  H    0.005217   0.026644   0.000578   0.386935   0.514660  -0.005555
    24  C   -0.000979   0.312217  -0.020041   0.008721  -0.005555   4.623243
    25  C   -0.000008  -0.063990  -0.001833  -0.000411   0.000142   0.279401
    26  H    0.000000   0.000182   0.000146   0.000002   0.000157  -0.026325
    27  H   -0.000002  -0.000951  -0.000066   0.000228  -0.000607  -0.024196
    28  H    0.000000   0.012929  -0.001427   0.000142   0.000067  -0.057804
    29  C    0.007789  -0.001841   0.000026   0.287582  -0.032320   0.000185
    30  H    0.004176  -0.000095  -0.000016  -0.047416   0.001524   0.000191
    31  H    0.001475  -0.000185   0.000022  -0.028059  -0.008009  -0.000070
    32  H    0.006292  -0.000251   0.000015  -0.048648   0.003004  -0.000463
    33  O   -0.000144  -0.134950   0.004889  -0.005767  -0.003245   0.720063
              25         26         27         28         29         30
     1  C   -0.000005   0.000002   0.000000   0.000000   0.000000   0.000000
     2  C   -0.000032   0.000002   0.000000   0.000035   0.000005   0.000001
     3  C    0.000064   0.000005  -0.000012   0.000074  -0.000056  -0.000046
     4  C    0.000036  -0.000029   0.000012  -0.000059   0.000005   0.000002
     5  C   -0.000003   0.000005   0.000001  -0.000004   0.000000   0.000000
     6  C   -0.000001   0.000000   0.000000  -0.000002   0.000000   0.000000
     7  H    0.000000   0.000000   0.000000   0.000000   0.000000   0.000000
     8  H   -0.000003   0.000002   0.000000   0.000002  -0.000004  -0.000001
     9  H    0.000033   0.000000  -0.000004   0.000020  -0.000001   0.000000
    10  H    0.000001   0.000000   0.000000   0.000000   0.000000   0.000000
    11  C    0.000372   0.000040  -0.000039  -0.000172  -0.000460  -0.000132
    12  H    0.000043  -0.000001  -0.000002  -0.000002  -0.000182   0.000228
    13  H   -0.000091   0.000012  -0.000017  -0.000022  -0.000324  -0.000299
    14  C    0.006189  -0.000298  -0.000404   0.001204   0.009528  -0.001205
    15  H    0.001564   0.000108  -0.000201  -0.000349  -0.000685  -0.000186
    16  C   -0.000474  -0.000167   0.000437  -0.000179  -0.050696  -0.001840
    17  O    0.000000   0.000000   0.000000   0.000000   0.000000   0.000000
    18  H    0.000000   0.000000   0.000000   0.000000   0.000000   0.000000
    19  O   -0.000008   0.000000  -0.000002   0.000000   0.007789   0.004176
    20  N   -0.063990   0.000182  -0.000951   0.012929  -0.001841  -0.000095
    21  H   -0.001833   0.000146  -0.000066  -0.001427   0.000026  -0.000016
    22  N   -0.000411   0.000002   0.000228   0.000142   0.287582  -0.047416
    23  H    0.000142   0.000157  -0.000607   0.000067  -0.032320   0.001524
    24  C    0.279401  -0.026325  -0.024196  -0.057804   0.000185   0.000191
    25  C    4.989811   0.391218   0.382931   0.396446  -0.000050   0.000001
    26  H    0.391218   0.557935  -0.023324  -0.024428  -0.000002   0.000000
    27  H    0.382931  -0.023324   0.574797  -0.027631   0.000019   0.000002
    28  H    0.396446  -0.024428  -0.027631   0.598683   0.000003   0.000000
    29  C   -0.000050  -0.000002   0.000019   0.000003   4.756318   0.397896
    30  H    0.000001   0.000000   0.000002   0.000000   0.397896   0.620886
    31  H   -0.000011   0.000000   0.000013   0.000001   0.394497  -0.029465
    32  H   -0.000012   0.000000  -0.000001  -0.000002   0.400710  -0.054967
    33  O   -0.068940   0.001255   0.001799   0.004439   0.000230   0.000005
              31         32         33
     1  C    0.000000   0.000000  -0.000004
     2  C    0.000000   0.000000  -0.000135
     3  C   -0.000005   0.000014   0.000131
     4  C    0.000000   0.000000   0.000004
     5  C    0.000000   0.000000   0.000001
     6  C    0.000000   0.000000   0.000000
     7  H    0.000000   0.000000   0.000000
     8  H    0.000000   0.000000  -0.000018
     9  H    0.000000   0.000000   0.000003
    10  H    0.000000   0.000000   0.000000
    11  C   -0.000046   0.000037   0.002195
    12  H   -0.000014  -0.000091   0.000054
    13  H   -0.000022   0.000059  -0.000021
    14  C    0.000643   0.001517   0.003994
    15  H   -0.000010   0.000212   0.018454
    16  C    0.008018  -0.005782   0.006127
    17  O    0.000000   0.000000   0.000000
    18  H    0.000000   0.000000   0.000000
    19  O    0.001475   0.006292  -0.000144
    20  N   -0.000185  -0.000251  -0.134950
    21  H    0.000022   0.000015   0.004889
    22  N   -0.028059  -0.048648  -0.005767
    23  H   -0.008009   0.003004  -0.003245
    24  C   -0.000070  -0.000463   0.720063
    25  C   -0.000011  -0.000012  -0.068940
    26  H    0.000000   0.000000   0.001255
    27  H    0.000013  -0.000001   0.001799
    28  H    0.000001  -0.000002   0.004439
    29  C    0.394497   0.400710   0.000230
    30  H   -0.029465  -0.054967   0.000005
    31  H    0.603321  -0.026073   0.000008
    32  H   -0.026073   0.606622   0.000258
    33  O    0.000008   0.000258   7.831479
 Mulliken charges:
               1
     1  C   -0.234693
     2  C   -0.220745
     3  C    0.169983
     4  C   -0.249253
     5  C   -0.171262
     6  C    0.286304
     7  H    0.116937
     8  H    0.160045
     9  H    0.159245
    10  H    0.124819
    11  C   -0.449770
    12  H    0.213454
    13  H    0.201014
    14  C   -0.107393
    15  H    0.235922
    16  C    0.284321
    17  O   -0.293751
    18  H    0.189407
    19  O   -0.405152
    20  N   -0.233304
    21  H    0.168597
    22  N   -0.151337
    23  H    0.143040
    24  C    0.275258
    25  C   -0.312389
    26  H    0.123505
    27  H    0.117219
    28  H    0.098036
    29  C   -0.168173
    30  H    0.110755
    31  H    0.083971
    32  H    0.117551
    33  O   -0.382165
 Sum of Mulliken charges =   0.00000
 Mulliken charges with hydrogens summed into heavy atoms:
               1
     1  C   -0.117756
     2  C   -0.060700
     3  C    0.169983
     4  C   -0.090008
     5  C   -0.046442
     6  C    0.286304
    11  C   -0.035301
    14  C    0.128529
    16  C    0.284321
    17  O   -0.104344
    19  O   -0.405152
    20  N   -0.064707
    22  N   -0.008296
    24  C    0.275258
    25  C    0.026371
    29  C    0.144104
    33  O   -0.382165
 Electronic spatial extent (au):  <R**2>=           5234.6090
 Charge=              0.0000 electrons
 Dipole moment (field-independent basis, Debye):
    X=              1.7441    Y=              2.0570    Z=              3.9781  Tot=              4.8061
 Quadrupole moment (field-independent basis, Debye-Ang):
   XX=            -93.6633   YY=           -103.6065   ZZ=            -99.1773
   XY=             -6.3183   XZ=            -22.1264   YZ=              4.4559
 Traceless Quadrupole moment (field-independent basis, Debye-Ang):
   XX=              5.1524   YY=             -4.7908   ZZ=             -0.3616
   XY=             -6.3183   XZ=            -22.1264   YZ=              4.4559
 Octapole moment (field-independent basis, Debye-Ang**2):
  XXX=            -21.2026  YYY=             38.6894  ZZZ=              3.7195  XYY=              5.2134
  XXY=             -6.3177  XXZ=            -15.5895  XZZ=             27.5742  YZZ=             -1.5430
  YYZ=             14.0764  XYZ=              6.1361
 Hexadecapole moment (field-independent basis, Debye-Ang**3):
 XXXX=          -4472.3771 YYYY=          -1296.2211 ZZZZ=           -518.4796 XXXY=            -43.7058
 XXXZ=           -404.4822 YYYX=            -36.8790 YYYZ=            -13.1590 ZZZX=            -40.3691
 ZZZY=             26.4014 XXYY=          -1108.2684 XXZZ=           -833.6041 YYZZ=           -330.7517
 XXYZ=             27.0311 YYXZ=            -54.7463 ZZXY=             15.1064
 N-N= 1.201298053558D+03 E-N=-4.272735515724D+03  KE= 7.962035864161D+02
 Calculating spin-rotation constants.
 Leave Link  601 at Wed Jun 25 17:50:29 2014, MaxMem=  4294967296 cpu:        98.5
 (Enter /home/ztw1e12/g09/l9999.exe)

 Test job not archived.
 1\1\GINC-GREEN0294\SP\RM06\Gen\C12H16N2O3\ZTW1E12\25-Jun-2014\0\\#P Ge
 om=AllCheck Guess=TCheck SCRF=Check GenChk RM06/ChkBas NMR=ReadFC IOp(
 3/6=22)\\NMR spin-spin scan\\0,1\C,0,2.004587,-2.874349,1.099097\C,0,1
 .407316,-1.663652,1.395725\C,0,1.468007,-0.593195,0.510534\C,0,2.14721
 5,-0.772276,-0.687863\C,0,2.7495,-1.97793,-1.001465\C,0,2.676305,-3.03
 2454,-0.10548\H,0,1.95936,-3.703438,1.796385\H,0,0.884265,-1.543912,2.
 338724\H,0,2.208781,0.052039,-1.390358\H,0,3.279533,-2.112794,-1.93576
 4\C,0,0.791432,0.702538,0.838637\H,0,1.005049,0.98619,1.871414\H,0,1.1
 64773,1.505836,0.196043\C,0,-0.727697,0.627983,0.695791\H,0,-1.099704,
 -0.229441,1.264915\C,0,-1.343047,1.849337,1.35726\O,0,3.282427,-4.2032
 53,-0.450545\H,0,3.152783,-4.850032,0.252102\O,0,-1.387651,1.913314,2.
 585112\N,0,-1.08739,0.468075,-0.694659\H,0,-0.369444,0.567863,-1.39722
 8\N,0,-1.766556,2.831902,0.563341\H,0,-1.747533,2.687928,-0.433476\C,0
 ,-2.311816,0.043846,-1.070508\C,0,-2.521275,-0.16912,-2.532627\H,0,-2.
 769437,-1.217171,-2.700383\H,0,-3.375213,0.424823,-2.856665\H,0,-1.651
 631,0.092343,-3.131331\C,0,-2.367395,4.032379,1.097219\H,0,-1.656126,4
 .592027,1.704887\H,0,-2.691735,4.660249,0.273167\H,0,-3.231825,3.79423
 1,1.717601\O,0,-3.205014,-0.152353,-0.250732\\Version=EM64L-G09RevD.01
 \State=1-A\HF=-801.8647165\RMSD=4.105e-09\Dipole=0.9533645,0.1482591,-
 1.6261685\Quadrupole=-10.2596377,11.8490519,-1.5894142,-4.7210108,7.69
 00884,-10.5761513\PG=C01 [X(C12H16N2O3)]\\@


 MARY HAD A LITTLE LAMB
      HIS FEET WERE BLACK AS SOOT,
           AND EVERYWHERE THAT MARY WENT
                HIS SOOTY FOOT HE PUT.

                    -- NONAME
 Job cpu time:       3 days  5 hours 29 minutes 29.7 seconds.
 File lengths (MBytes):  RWF=   3656 Int=      0 D2E=      0 Chk=     64 Scr=      8
 Normal termination of Gaussian 09 at Wed Jun 25 17:50:29 2014.
