 Entering Gaussian System, Link 0=g09
 Input=scan_input_5.gjf
 Output=scan_input_5.log
 Initial command:
 /home/ztw1e12/g09/l1.exe "/home/ztw1e12/tyrosine_scan/tyrosine_chi1_scan/Gau-1599.inp" -scrdir="/home/ztw1e12/tyrosine_scan/tyrosine_chi1_scan/"
 Default is to use a total of   8 processors:
                                8 via shared-memory
                                1 via Linda
 Entering Link 1 = /home/ztw1e12/g09/l1.exe PID=      1600.
  
 Copyright (c) 1988,1990,1992,1993,1995,1998,2003,2009,2013,
            Gaussian, Inc.  All Rights Reserved.
  
 This is part of the Gaussian(R) 09 program.  It is based on
 the Gaussian(R) 03 system (copyright 2003, Gaussian, Inc.),
 the Gaussian(R) 98 system (copyright 1998, Gaussian, Inc.),
 the Gaussian(R) 94 system (copyright 1995, Gaussian, Inc.),
 the Gaussian 92(TM) system (copyright 1992, Gaussian, Inc.),
 the Gaussian 90(TM) system (copyright 1990, Gaussian, Inc.),
 the Gaussian 88(TM) system (copyright 1988, Gaussian, Inc.),
 the Gaussian 86(TM) system (copyright 1986, Carnegie Mellon
 University), and the Gaussian 82(TM) system (copyright 1983,
 Carnegie Mellon University). Gaussian is a federally registered
 trademark of Gaussian, Inc.
  
 This software contains proprietary and confidential information,
 including trade secrets, belonging to Gaussian, Inc.
  
 This software is provided under written license and may be
 used, copied, transmitted, or stored only in accord with that
 written license.
  
 The following legend is applicable only to US Government
 contracts under FAR:
  
                    RESTRICTED RIGHTS LEGEND
  
 Use, reproduction and disclosure by the US Government is
 subject to restrictions as set forth in subparagraphs (a)
 and (c) of the Commercial Computer Software - Restricted
 Rights clause in FAR 52.227-19.
  
 Gaussian, Inc.
 340 Quinnipiac St., Bldg. 40, Wallingford CT 06492
  
  
 ---------------------------------------------------------------
 Warning -- This program may not be used in any manner that
 competes with the business of Gaussian, Inc. or will provide
 assistance to any competitor of Gaussian, Inc.  The licensee
 of this program is prohibited from giving any competitor of
 Gaussian, Inc. access to this program.  By using this program,
 the user acknowledges that Gaussian, Inc. is engaged in the
 business of creating and licensing software in the field of
 computational chemistry and represents and warrants to the
 licensee that it is not a competitor of Gaussian, Inc. and that
 it will not use this program in any manner prohibited above.
 ---------------------------------------------------------------
  

 Cite this work as:
 Gaussian 09, Revision D.01,
 M. J. Frisch, G. W. Trucks, H. B. Schlegel, G. E. Scuseria, 
 M. A. Robb, J. R. Cheeseman, G. Scalmani, V. Barone, B. Mennucci, 
 G. A. Petersson, H. Nakatsuji, M. Caricato, X. Li, H. P. Hratchian, 
 A. F. Izmaylov, J. Bloino, G. Zheng, J. L. Sonnenberg, M. Hada, 
 M. Ehara, K. Toyota, R. Fukuda, J. Hasegawa, M. Ishida, T. Nakajima, 
 Y. Honda, O. Kitao, H. Nakai, T. Vreven, J. A. Montgomery, Jr., 
 J. E. Peralta, F. Ogliaro, M. Bearpark, J. J. Heyd, E. Brothers, 
 K. N. Kudin, V. N. Staroverov, T. Keith, R. Kobayashi, J. Normand, 
 K. Raghavachari, A. Rendell, J. C. Burant, S. S. Iyengar, J. Tomasi, 
 M. Cossi, N. Rega, J. M. Millam, M. Klene, J. E. Knox, J. B. Cross, 
 V. Bakken, C. Adamo, J. Jaramillo, R. Gomperts, R. E. Stratmann, 
 O. Yazyev, A. J. Austin, R. Cammi, C. Pomelli, J. W. Ochterski, 
 R. L. Martin, K. Morokuma, V. G. Zakrzewski, G. A. Voth, 
 P. Salvador, J. J. Dannenberg, S. Dapprich, A. D. Daniels, 
 O. Farkas, J. B. Foresman, J. V. Ortiz, J. Cioslowski, 
 and D. J. Fox, Gaussian, Inc., Wallingford CT, 2013.
 
 ******************************************
 Gaussian 09:  EM64L-G09RevD.01 24-Apr-2013
                24-Jun-2014 
 ******************************************
 %Mem=32GB
 %NProcShared=16
 Will use up to   16 processors via shared memory.
 Default route:  MaxDisk=100GB
 ----------------------------------------------------------------------
 #p nmr=(giao,mixed,spinspin) m06/cc-pvtz scf=tight integral=(grid=ultr
 afine)
 ----------------------------------------------------------------------
 1/38=1/1;
 2/12=2,17=6,18=5,40=1/2;
 3/5=16,6=1,10=1100000,11=2,16=1,25=1,30=1,74=-54,75=-5/1,2,8,3;
 4//1;
 5/5=2,32=2,38=5/2;
 8/6=1,10=90,11=11/1;
 10/13=100,45=16,47=3/2;
 6/7=2,8=2,9=2,10=2,28=1/1;
 99/9=1/99;
 Leave Link    1 at Tue Jun 24 18:23:42 2014, MaxMem=  4294967296 cpu:         6.1
 (Enter /home/ztw1e12/g09/l101.exe)
 ------------------
 NMR spin-spin scan
 ------------------
 Symbolic Z-matrix:
 Charge =  0 Multiplicity = 1
 C                     3.30846  -0.01717  -0.9211 
 C                     2.05203  -0.56207  -1.11 
 C                     1.31591  -1.07092  -0.04545 
 C                     1.87946  -1.0158    1.22316 
 C                     3.13629  -0.47434   1.43088 
 C                     3.85251   0.02637   0.35532 
 H                     3.87665   0.37455  -1.75695 
 H                     1.62816  -0.59248  -2.10842 
 H                     1.32157  -1.40602   2.06726 
 H                     3.57336  -0.43797   2.42071 
 C                    -0.05897  -1.62577  -0.25688 
 H                    -0.07656  -2.27022  -1.13674 
 H                    -0.3157   -2.25329   0.59836 
 C                    -1.17199  -0.58106  -0.42532 
 H                    -1.38628  -0.45616  -1.48959 
 C                    -2.48072  -1.01672   0.24036 
 O                     5.08748   0.54744   0.60057 
 H                     5.47781   0.84792  -0.22784 
 O                    -2.54164  -1.90055   1.08989 
 N                    -0.7894    0.73837   0.05093 
 H                    -0.09787   0.79919   0.78369 
 N                    -3.55468  -0.33915  -0.17471 
 H                    -3.40987   0.41865  -0.83024 
 C                    -1.21044   1.87831  -0.52203 
 C                    -0.61478   3.14101   0.00588 
 H                    -0.11316   3.65575  -0.81362 
 H                    -1.41693   3.79062   0.35513 
 H                     0.09478   2.97781   0.81421 
 C                    -4.85513  -0.54477   0.42012 
 H                    -4.83416  -0.36097   1.49519 
 H                    -5.5624    0.13988  -0.03787 
 H                    -5.20325  -1.56517   0.25792 
 O                    -2.03968   1.89228  -1.43398 
 
 NAtoms=     33 NQM=       33 NQMF=       0 NMMI=      0 NMMIF=      0
                NMic=       0 NMicF=      0.
                    Isotopes and Nuclear Properties:
 (Nuclear quadrupole moments (NQMom) in fm**2, nuclear magnetic moments (NMagM)
  in nuclear magnetons)

  Atom         1           2           3           4           5           6           7           8           9          10
 IAtWgt=          12          12          12          12          12          12           1           1           1           1
 AtmWgt=  12.0000000  12.0000000  12.0000000  12.0000000  12.0000000  12.0000000   1.0078250   1.0078250   1.0078250   1.0078250
 NucSpn=           0           0           0           0           0           0           1           1           1           1
 AtZEff=   0.0000000   0.0000000   0.0000000   0.0000000   0.0000000   0.0000000   0.0000000   0.0000000   0.0000000   0.0000000
 NQMom=    0.0000000   0.0000000   0.0000000   0.0000000   0.0000000   0.0000000   0.0000000   0.0000000   0.0000000   0.0000000
 NMagM=    0.0000000   0.0000000   0.0000000   0.0000000   0.0000000   0.0000000   2.7928460   2.7928460   2.7928460   2.7928460
 AtZNuc=   6.0000000   6.0000000   6.0000000   6.0000000   6.0000000   6.0000000   1.0000000   1.0000000   1.0000000   1.0000000

  Atom        11          12          13          14          15          16          17          18          19          20
 IAtWgt=          12           1           1          12           1          12          16           1          16          14
 AtmWgt=  12.0000000   1.0078250   1.0078250  12.0000000   1.0078250  12.0000000  15.9949146   1.0078250  15.9949146  14.0030740
 NucSpn=           0           1           1           0           1           0           0           1           0           2
 AtZEff=   0.0000000   0.0000000   0.0000000   0.0000000   0.0000000   0.0000000   0.0000000   0.0000000   0.0000000   0.0000000
 NQMom=    0.0000000   0.0000000   0.0000000   0.0000000   0.0000000   0.0000000   0.0000000   0.0000000   0.0000000   2.0440000
 NMagM=    0.0000000   2.7928460   2.7928460   0.0000000   2.7928460   0.0000000   0.0000000   2.7928460   0.0000000   0.4037610
 AtZNuc=   6.0000000   1.0000000   1.0000000   6.0000000   1.0000000   6.0000000   8.0000000   1.0000000   8.0000000   7.0000000

  Atom        21          22          23          24          25          26          27          28          29          30
 IAtWgt=           1          14           1          12          12           1           1           1          12           1
 AtmWgt=   1.0078250  14.0030740   1.0078250  12.0000000  12.0000000   1.0078250   1.0078250   1.0078250  12.0000000   1.0078250
 NucSpn=           1           2           1           0           0           1           1           1           0           1
 AtZEff=   0.0000000   0.0000000   0.0000000   0.0000000   0.0000000   0.0000000   0.0000000   0.0000000   0.0000000   0.0000000
 NQMom=    0.0000000   2.0440000   0.0000000   0.0000000   0.0000000   0.0000000   0.0000000   0.0000000   0.0000000   0.0000000
 NMagM=    2.7928460   0.4037610   2.7928460   0.0000000   0.0000000   2.7928460   2.7928460   2.7928460   0.0000000   2.7928460
 AtZNuc=   1.0000000   7.0000000   1.0000000   6.0000000   6.0000000   1.0000000   1.0000000   1.0000000   6.0000000   1.0000000

  Atom        31          32          33
 IAtWgt=           1           1          16
 AtmWgt=   1.0078250   1.0078250  15.9949146
 NucSpn=           1           1           0
 AtZEff=   0.0000000   0.0000000   0.0000000
 NQMom=    0.0000000   0.0000000   0.0000000
 NMagM=    2.7928460   2.7928460   0.0000000
 AtZNuc=   1.0000000   1.0000000   8.0000000
 Leave Link  101 at Tue Jun 24 18:23:42 2014, MaxMem=  4294967296 cpu:         1.7
 (Enter /home/ztw1e12/g09/l202.exe)
                          Input orientation:                          
 ---------------------------------------------------------------------
 Center     Atomic      Atomic             Coordinates (Angstroms)
 Number     Number       Type             X           Y           Z
 ---------------------------------------------------------------------
      1          6           0        3.308463   -0.017166   -0.921096
      2          6           0        2.052031   -0.562065   -1.109997
      3          6           0        1.315911   -1.070915   -0.045446
      4          6           0        1.879462   -1.015795    1.223156
      5          6           0        3.136288   -0.474335    1.430877
      6          6           0        3.852507    0.026374    0.355319
      7          1           0        3.876645    0.374554   -1.756952
      8          1           0        1.628164   -0.592484   -2.108421
      9          1           0        1.321573   -1.406019    2.067262
     10          1           0        3.573361   -0.437973    2.420709
     11          6           0       -0.058973   -1.625771   -0.256882
     12          1           0       -0.076564   -2.270218   -1.136738
     13          1           0       -0.315701   -2.253294    0.598361
     14          6           0       -1.171993   -0.581064   -0.425317
     15          1           0       -1.386279   -0.456158   -1.489590
     16          6           0       -2.480719   -1.016724    0.240363
     17          8           0        5.087480    0.547436    0.600571
     18          1           0        5.477807    0.847915   -0.227840
     19          8           0       -2.541642   -1.900553    1.089889
     20          7           0       -0.789402    0.738369    0.050925
     21          1           0       -0.097873    0.799185    0.783691
     22          7           0       -3.554677   -0.339154   -0.174705
     23          1           0       -3.409871    0.418647   -0.830240
     24          6           0       -1.210445    1.878314   -0.522025
     25          6           0       -0.614778    3.141006    0.005883
     26          1           0       -0.113159    3.655750   -0.813616
     27          1           0       -1.416929    3.790616    0.355134
     28          1           0        0.094779    2.977806    0.814209
     29          6           0       -4.855132   -0.544765    0.420120
     30          1           0       -4.834155   -0.360966    1.495186
     31          1           0       -5.562400    0.139875   -0.037871
     32          1           0       -5.203253   -1.565171    0.257924
     33          8           0       -2.039683    1.892278   -1.433977
 ---------------------------------------------------------------------
                    Distance matrix (angstroms):
                    1          2          3          4          5
     1  C    0.000000
     2  C    1.382469   0.000000
     3  C    2.418143   1.390708   0.000000
     4  C    2.763534   2.383119   1.389237   0.000000
     5  C    2.402171   2.763937   2.418514   1.384174   0.000000
     6  C    1.388206   2.394812   2.792664   2.394194   1.385823
     7  H    1.083942   2.150586   3.402351   3.847448   3.380975
     8  H    2.136384   1.085099   2.140622   3.367751   3.849029
     9  H    3.847977   3.367611   2.139126   1.084449   2.136870
    10  H    3.378596   3.846522   3.402737   2.153440   1.082646
    11  C    3.790569   2.513088   1.497624   2.513984   3.792628
    12  H    4.071996   2.729362   2.137342   3.311905   4.487790
    13  H    4.521458   3.374151   2.115340   2.596250   3.971650
    14  C    4.542936   3.295979   2.563966   3.495402   4.692348
    15  H    4.749369   3.460821   3.124949   4.282201   5.383593
    16  C    5.988550   4.751422   3.807758   4.469571   5.767346
    17  O    2.408142   3.656636   4.154652   3.622524   2.353842
    18  H    2.436190   3.808174   4.586562   4.304288   3.159493
    19  O    6.466447   5.266202   4.105849   4.510734   5.864236
    20  N    4.278803   3.333558   2.777614   3.402066   4.334277
    21  H    3.895620   3.171930   2.486670   2.719768   3.535605
    22  N    6.911112   5.688553   4.926947   5.651701   6.882237
    23  H    6.733068   5.556297   5.016743   5.852444   6.982998
    24  C    4.916567   4.116420   3.912487   4.579197   5.314402
    25  C    5.121051   4.697850   4.633624   4.998198   5.401092
    26  H    5.020892   4.750353   4.997368   5.471957   5.714390
    27  H    6.201395   5.755530   5.591365   5.892473   6.330783
    28  H    4.723230   4.479296   4.315358   4.393311   4.642018
    29  C    8.289843   7.074635   6.210906   6.798639   8.055395
    30  H    8.500520   7.365255   6.379725   6.750960   7.971509
    31  H    8.916107   7.721511   6.984070   7.635907   8.843170
    32  H    8.731307   7.450945   6.544908   7.169263   8.491978
    33  O    5.701902   4.782352   4.687061   5.556702   6.371728
                    6          7          8          9         10
     6  C    0.000000
     7  H    2.140911   0.000000
     8  H    3.376493   2.472723   0.000000
     9  H    3.374630   4.931881   4.265228   0.000000
    10  H    2.135270   4.266736   4.931601   2.476406   0.000000
    11  C    4.289994   4.662682   2.709670   2.712166   4.666284
    12  H    4.789381   4.796597   2.581677   3.601006   5.416134
    13  H    4.757091   5.479859   3.723381   2.357162   4.662740
    14  C    5.120935   5.308032   3.267086   3.620963   5.535226
    15  H    5.575070   5.334785   3.080325   4.570109   6.315758
    16  C    6.419581   6.807422   4.751809   4.236335   6.460708
    17  O    1.362649   2.655922   4.539265   4.488789   2.564467
    18  H    1.912225   2.264061   4.520076   5.255663   3.506456
    19  O    6.718466   7.380720   5.415488   4.015501   6.426779
    20  N    4.706051   5.017248   3.504079   3.622186   5.102289
    21  H    4.047992   4.736240   3.644209   2.919813   4.205752
    22  N    7.435113   7.631345   5.537624   5.471968   7.586492
    23  H    7.368959   7.345342   5.295085   5.840504   7.750355
    24  C    5.461950   5.446542   4.084017   4.889005   6.075333
    25  C    5.457076   5.561809   4.841489   5.354827   6.015063
    26  H    5.501389   5.251159   4.770348   5.998285   6.388259
    27  H    6.475838   6.644721   5.878202   6.118479   6.859341
    28  H    4.800214   5.262157   4.862099   4.721556   5.133120
    29  C    8.726590   9.045923   6.959089   6.450312   8.663328
    30  H    8.769688   9.327134   7.402780   6.269960   8.458655
    31  H    9.423797   9.597181   7.518493   7.362775   9.478431
    32  H    9.195069   9.500884   7.294790   6.772916   9.109180
    33  O    6.434367   6.116432   4.481297   5.868175   7.196870
                   11         12         13         14         15
    11  C    0.000000
    12  H    1.090765   0.000000
    13  H    1.091391   1.751583   0.000000
    14  C    1.535772   2.135258   2.139511   0.000000
    15  H    2.156225   2.265099   2.955567   1.092793   0.000000
    16  C    2.546182   3.040989   2.518843   1.531566   2.122444
    17  O    5.651905   6.133903   6.085923   6.442590   6.876447
    18  H    6.064314   6.434274   6.623054   6.804470   7.099880
    19  O    2.837771   3.342324   2.306694   2.431633   3.174091
    20  N    2.493477   3.312141   3.078007   1.453990   2.038711
    21  H    2.639075   3.620737   3.065848   2.126152   2.898911
    22  N    3.725867   4.092895   3.840902   2.408010   2.538614
    23  H    3.966976   4.293585   4.330596   2.484247   2.301076
    24  C    3.697945   4.344407   4.373330   2.461579   2.533152
    25  C    4.806259   5.556672   5.434975   3.788169   3.971302
    26  H    5.311059   5.934884   6.078775   4.384347   4.357243
    27  H    5.617460   6.384040   6.148228   4.447548   4.630231
    28  H    4.729038   5.601545   5.251618   3.975763   4.392395
    29  C    4.962867   5.313728   4.853584   3.779100   3.960781
    30  H    5.241358   5.762546   4.980123   4.141039   4.561337
    31  H    5.783872   6.091835   5.801715   4.466043   4.461248
    32  H    5.170330   5.359581   4.947482   4.205513   4.342005
    33  O    4.205405   4.611785   4.928314   2.808505   2.438274
                   16         17         18         19         20
    16  C    0.000000
    17  O    7.736536   0.000000
    18  H    8.187443   0.963799   0.000000
    19  O    1.227420   8.027178   8.579164   0.000000
    20  N    2.444748   5.905617   6.274362   3.333722   0.000000
    21  H    3.044780   5.194689   5.666902   3.654360   1.009384
    22  N    1.335952   8.722039   9.110309   2.250201   2.976359
    23  H    2.017376   8.617934   8.918407   3.133593   2.783080
    24  C    3.252088   6.534165   6.773550   4.318586   1.343512
    25  C    4.563270   6.292536   6.514022   5.505015   2.409396
    26  H    5.343054   6.221590   6.283786   6.355577   3.117025
    27  H    4.924971   7.272262   7.519091   5.847585   3.130902
    28  H    4.787354   5.556924   5.882116   5.552036   2.525759
    29  C    2.427529  10.004049  10.446484   2.763872   4.279357
    30  H    2.746500  10.003218  10.524579   2.791095   4.433334
    31  H    3.303315  10.676781  11.064519   3.815779   4.811194
    32  H    2.777282  10.510932  10.961022   2.808704   4.983094
    33  O    3.385295   7.532890   7.684928   4.583386   2.258239
                   21         22         23         24         25
    21  H    0.000000
    22  N    3.763487   0.000000
    23  H    3.703905   1.012402   0.000000
    24  C    2.026630   3.245492   2.657649   0.000000
    25  C    2.521171   4.559291   3.990349   1.492614   0.000000
    26  H    3.272856   5.311451   4.620327   2.109109   1.090028
    27  H    3.297306   4.680352   4.092323   2.113987   1.089686
    28  H    2.187335   5.029782   4.640698   2.167490   1.087886
    29  C    4.956803   1.444741   2.140173   4.476907   5.633569
    30  H    4.927935   2.103824   2.836192   4.713257   5.681987
    31  H    5.565133   2.068609   2.310615   4.711272   5.786853
    32  H    5.650798   2.099545   2.887188   5.329955   6.577669
    33  O    3.143808   2.976619   2.100834   1.232675   2.379679
                   26         27         28         29         30
    26  H    0.000000
    27  H    1.756127   0.000000
    28  H    1.775573   1.776702   0.000000
    29  C    6.453893   5.533624   6.088139   0.000000
    30  H    6.614558   5.496616   5.992121   1.090866   0.000000
    31  H    6.531262   5.537806   6.386201   1.085687   1.769589
    32  H    7.369889   6.559737   7.001231   1.090286   1.765548
    33  O    2.684432   2.681870   3.284606   4.159760   4.633161
                   31         32         33
    31  H    0.000000
    32  H    1.767389   0.000000
    33  O    4.174873   4.982435   0.000000
 Stoichiometry    C12H16N2O3
 Framework group  C1[X(C12H16N2O3)]
 Deg. of freedom    93
 Full point group                 C1      NOp   1
 Largest Abelian subgroup         C1      NOp   1
 Largest concise Abelian subgroup C1      NOp   1
                         Standard orientation:                         
 ---------------------------------------------------------------------
 Center     Atomic      Atomic             Coordinates (Angstroms)
 Number     Number       Type             X           Y           Z
 ---------------------------------------------------------------------
      1          6           0       -3.286941    0.243093    1.043785
      2          6           0       -2.015654   -0.216503    1.333302
      3          6           0       -1.309259   -1.007446    0.433588
      4          6           0       -1.918213   -1.325174   -0.773973
      5          6           0       -3.190502   -0.874320   -1.080483
      6          6           0       -3.876485   -0.087868   -0.168658
      7          1           0       -3.831660    0.856695    1.752095
      8          1           0       -1.556256    0.045850    2.280700
      9          1           0       -1.384096   -1.939793   -1.490208
     10          1           0       -3.662892   -1.128574   -2.020869
     11          6           0        0.081354   -1.469363    0.742950
     12          1           0        0.140881   -1.831415    1.770152
     13          1           0        0.318124   -2.316086    0.096317
     14          6           0        1.181975   -0.414191    0.558985
     15          1           0        1.431681    0.014681    1.532593
     16          6           0        2.473431   -1.016298   -0.002532
     17          8           0       -5.127925    0.332724   -0.506018
     18          1           0       -5.493661    0.857870    0.214653
     19          8           0        2.519044   -2.107830   -0.562029
     20          7           0        0.760706    0.708655   -0.263106
     21          1           0        0.042747    0.550745   -0.954811
     22          7           0        3.549904   -0.241373    0.157046
     23          1           0        3.415717    0.672889    0.570660
     24          6           0        1.182606    1.968069   -0.060861
     25          6           0        0.547545    3.020413   -0.907718
     26          1           0        0.066697    3.747422   -0.253191
     27          1           0        1.325830    3.545754   -1.460625
     28          1           0       -0.187349    2.626105   -1.606250
     29          6           0        4.831749   -0.602822   -0.402869
     30          1           0        4.769648   -0.738214   -1.483518
     31          1           0        5.543215    0.189170   -0.190073
     32          1           0        5.202445   -1.530555    0.033730
     33          8           0        2.043259    2.250223    0.775292
 ---------------------------------------------------------------------
 Rotational constants (GHZ):      0.8595258      0.2528483      0.2170163
 Leave Link  202 at Tue Jun 24 18:23:42 2014, MaxMem=  4294967296 cpu:         1.7
 (Enter /home/ztw1e12/g09/l301.exe)
 Standard basis: CC-pVTZ (5D, 7F)
 Converting basis for Fermi contact spin-spin IFCMod=1.
 AO basis functions are being uncontracted.
 Ernie: Thresh=  0.10000D-02 Tol=  0.10000D-05 Strict=F.
 There are  1305 symmetry adapted cartesian basis functions of A   symmetry.
 There are  1204 symmetry adapted basis functions of A   symmetry.
  1204 basis functions,  1305 primitive gaussians,  1305 cartesian basis functions
    63 alpha electrons       63 beta electrons
       nuclear repulsion energy      1211.9750620873 Hartrees.
 IExCor= 4235 DFT=T Ex+Corr=M06 ExCW=0 ScaHFX=  0.270000
 ScaDFX=  1.000000  1.000000  1.000000  1.000000 ScalE2=  1.000000  1.000000
 IRadAn= 199590 IRanWt=     -1 IRanGd=            0 ICorTp=0 IEmpDi=  4
 NAtoms=   33 NActive=   33 NUniq=   33 SFac= 1.00D+00 NAtFMM=   60 NAOKFM=F Big=F
 Integral buffers will be    131072 words long.
 Raffenetti 2 integral format.
 Two-electron integral symmetry is turned on.
 Leave Link  301 at Tue Jun 24 18:23:43 2014, MaxMem=  4294967296 cpu:         4.9
 (Enter /home/ztw1e12/g09/l302.exe)
 NPDir=0 NMtPBC=     1 NCelOv=     1 NCel=       1 NClECP=     1 NCelD=      1
         NCelK=      1 NCelE2=     1 NClLst=     1 CellRange=     0.0.
 One-electron integrals computed using PRISM.
 GSVD:  received Info=                   1 from GESDD.
 NBasis=  1204 RedAO= T EigKep=  2.49D-05  NBF=  1204
 NBsUse=  1068 1.00D-06 EigRej=  6.60D-15 NBFU=  1068
 Precomputing XC quadrature grid using
 IXCGrd= 4 IRadAn=      199590 IRanWt=          -1 IRanGd=           0 AccXCQ= 0.00D+00.
 Generated NRdTot=       0 NPtTot=           0 NUsed=           0 NTot=          32
 NSgBfM=  1037  1037  1037  1037  1037 MxSgAt=    33 MxSgA2=    33.
 Leave Link  302 at Tue Jun 24 18:23:49 2014, MaxMem=  4294967296 cpu:        93.9
 (Enter /home/ztw1e12/g09/l308.exe)
 Leave Link  308 at Tue Jun 24 18:23:51 2014, MaxMem=  4294967296 cpu:         8.3
 (Enter /home/ztw1e12/g09/l303.exe)
 DipDrv:  MaxL=1.
 Leave Link  303 at Tue Jun 24 18:23:52 2014, MaxMem=  4294967296 cpu:         4.3
 (Enter /home/ztw1e12/g09/l401.exe)
 ExpMin= 1.03D-01 ExpMax= 1.38D+05 ExpMxC= 1.38D+05 IAcc=4 IRadAn=    199590 AccDes= 0.00D+00
 Harris functional with IExCor= 1009 and IRadAn=  199590 diagonalized for initial guess.
 HarFok:  IExCor= 1009 AccDes= 0.00D+00 IRadAn=    199590 IDoV= 1 UseB2=F ITyADJ=14
 ICtDFT=  3500011 ScaDFX=  1.000000  1.000000  1.000000  1.000000
 FoFCou: FMM=F IPFlag=           0 FMFlag=      100000 FMFlg1=           0
         NFxFlg=           0 DoJE=T BraDBF=F KetDBF=T FulRan=T
         wScrn=  0.000000 ICntrl=     500 IOpCl=  0 I1Cent=   200000004 NGrid=           0
         NMat0=    1 NMatS0=      1 NMatT0=    0 NMatD0=    1 NMtDS0=    0 NMtDT0=    0
 Petite list used in FoFCou.
 Harris En= -801.778950239326    
 JPrj=0 DoOrth=F DoCkMO=F.
 Leave Link  401 at Tue Jun 24 18:24:12 2014, MaxMem=  4294967296 cpu:       300.5
 (Enter /home/ztw1e12/g09/l502.exe)
 Closed shell SCF:
 Using DIIS extrapolation, IDIIS=  1040.
 Integral symmetry usage will be decided dynamically.
 IVT=     5158273 IEndB=     5158273 NGot=  4294967296 MDV=  4291529994
 LenX=  4291529994 LenY=  4289825664
 Requested convergence on RMS density matrix=1.00D-08 within 128 cycles.
 Requested convergence on MAX density matrix=1.00D-06.
 Requested convergence on             energy=1.00D-06.
 No special actions if energy rises.
 Fock matrices will be formed incrementally for  20 cycles.
 Integral accuracy reduced to 1.0D-05 until final iterations.

 Cycle   1  Pass 0  IDiag  1:
 FoFJK:  IHMeth= 1 ICntrl=       0 DoSepK=F KAlg= 0 I1Cent=   0 FoldK=F
 IRaf= 430000000 NMat=   1 IRICut=       1 DoRegI=T DoRafI=F ISym2E= 0.
 FoFCou: FMM=F IPFlag=           0 FMFlag=      100000 FMFlg1=           0
         NFxFlg=           0 DoJE=F BraDBF=F KetDBF=F FulRan=T
         wScrn=  0.000000 ICntrl=       0 IOpCl=  0 I1Cent=           0 NGrid=           0
         NMat0=    1 NMatS0=      1 NMatT0=    0 NMatD0=    1 NMtDS0=    0 NMtDT0=    0
 Symmetry not used in FoFCou.
 E= -801.487823132063    
 DIIS: error= 1.14D-01 at cycle   1 NSaved=   1.
 NSaved= 1 IEnMin= 1 EnMin= -801.487823132063     IErMin= 1 ErrMin= 1.14D-01
 ErrMax= 1.14D-01  0.00D+00 EMaxC= 1.00D-01 BMatC= 1.69D+01 BMatP= 1.69D+01
 IDIUse=3 WtCom= 0.00D+00 WtEn= 1.00D+00
 Coeff-Com:  0.100D+01
 Coeff-En:   0.100D+01
 Coeff:      0.100D+01
 Gap=     0.239 Goal=   None    Shift=    0.000
 GapD=    0.239 DampG=1.000 DampE=0.250 DampFc=0.2500 IDamp=-1.
 Damping current iteration by 2.50D-01
 RMSDP=1.88D-03 MaxDP=2.55D-01              OVMax= 2.51D-01

 Cycle   2  Pass 0  IDiag  1:
 RMSU=  4.67D-04    CP:  1.02D+00
 E= -801.640654362490     Delta-E=       -0.152831230427 Rises=F Damp=T
 DIIS: error= 8.63D-02 at cycle   2 NSaved=   2.
 NSaved= 2 IEnMin= 2 EnMin= -801.640654362490     IErMin= 2 ErrMin= 8.63D-02
 ErrMax= 8.63D-02  0.00D+00 EMaxC= 1.00D-01 BMatC= 1.00D+01 BMatP= 1.69D+01
 IDIUse=3 WtCom= 1.37D-01 WtEn= 8.63D-01
 Coeff-Com: -0.297D+01 0.397D+01
 Coeff-En:   0.000D+00 0.100D+01
 Coeff:     -0.406D+00 0.141D+01
 Gap=     0.274 Goal=   None    Shift=    0.000
 RMSDP=5.68D-04 MaxDP=9.79D-02 DE=-1.53D-01 OVMax= 1.42D-01

 Cycle   3  Pass 0  IDiag  1:
 RMSU=  4.73D-04    CP:  1.05D+00  1.66D+00
 E= -801.888928153651     Delta-E=       -0.248273791161 Rises=F Damp=F
 DIIS: error= 1.36D-02 at cycle   3 NSaved=   3.
 NSaved= 3 IEnMin= 3 EnMin= -801.888928153651     IErMin= 3 ErrMin= 1.36D-02
 ErrMax= 1.36D-02  0.00D+00 EMaxC= 1.00D-01 BMatC= 1.49D-01 BMatP= 1.00D+01
 IDIUse=3 WtCom= 8.64D-01 WtEn= 1.36D-01
 Coeff-Com:  0.171D+00-0.281D+00 0.111D+01
 Coeff-En:   0.000D+00 0.000D+00 0.100D+01
 Coeff:      0.147D+00-0.243D+00 0.110D+01
 Gap=     0.226 Goal=   None    Shift=    0.000
 RMSDP=3.65D-04 MaxDP=4.47D-02 DE=-2.48D-01 OVMax= 1.10D-01

 Cycle   4  Pass 0  IDiag  1:
 RMSU=  3.34D-04    CP:  1.05D+00  1.43D+00  7.90D-01
 E= -801.829938488803     Delta-E=        0.058989664848 Rises=F Damp=F
 DIIS: error= 1.23D-02 at cycle   4 NSaved=   4.
 NSaved= 4 IEnMin= 3 EnMin= -801.888928153651     IErMin= 4 ErrMin= 1.23D-02
 ErrMax= 1.23D-02  0.00D+00 EMaxC= 1.00D-01 BMatC= 1.18D-01 BMatP= 1.49D-01
 IDIUse=3 WtCom= 8.77D-01 WtEn= 1.23D-01
 Coeff-Com:  0.291D+00-0.416D+00 0.600D+00 0.526D+00
 Coeff-En:   0.000D+00 0.000D+00 0.728D+00 0.272D+00
 Coeff:      0.255D+00-0.365D+00 0.615D+00 0.495D+00
 Gap=     0.259 Goal=   None    Shift=    0.000
 RMSDP=2.79D-04 MaxDP=2.57D-02 DE= 5.90D-02 OVMax= 8.90D-02

 Cycle   5  Pass 0  IDiag  1:
 RMSU=  7.18D-05    CP:  1.05D+00  1.45D+00  9.44D-01  2.23D-01
 E= -801.914686930162     Delta-E=       -0.084748441359 Rises=F Damp=F
 DIIS: error= 3.29D-03 at cycle   5 NSaved=   5.
 NSaved= 5 IEnMin= 5 EnMin= -801.914686930162     IErMin= 5 ErrMin= 3.29D-03
 ErrMax= 3.29D-03  0.00D+00 EMaxC= 1.00D-01 BMatC= 8.89D-03 BMatP= 1.18D-01
 IDIUse=3 WtCom= 9.67D-01 WtEn= 3.29D-02
 Coeff-Com:  0.261D-01-0.383D-01 0.203D-01 0.211D+00 0.780D+00
 Coeff-En:   0.000D+00 0.000D+00 0.000D+00 0.282D-01 0.972D+00
 Coeff:      0.253D-01-0.370D-01 0.197D-01 0.205D+00 0.787D+00
 Gap=     0.223 Goal=   None    Shift=    0.000
 RMSDP=8.35D-05 MaxDP=7.89D-03 DE=-8.47D-02 OVMax= 3.00D-02

 Cycle   6  Pass 0  IDiag  1:
 RMSU=  3.24D-05    CP:  1.05D+00  1.48D+00  9.60D-01  4.10D-01  4.25D-01
 E= -801.919463018681     Delta-E=       -0.004776088519 Rises=F Damp=F
 DIIS: error= 1.53D-03 at cycle   6 NSaved=   6.
 NSaved= 6 IEnMin= 6 EnMin= -801.919463018681     IErMin= 6 ErrMin= 1.53D-03
 ErrMax= 1.53D-03  0.00D+00 EMaxC= 1.00D-01 BMatC= 1.48D-03 BMatP= 8.89D-03
 IDIUse=3 WtCom= 9.85D-01 WtEn= 1.53D-02
 Coeff-Com:  0.972D-02-0.135D-01-0.113D-01 0.878D-01 0.415D+00 0.512D+00
 Coeff-En:   0.000D+00 0.000D+00 0.000D+00 0.000D+00 0.138D+00 0.862D+00
 Coeff:      0.957D-02-0.132D-01-0.111D-01 0.865D-01 0.411D+00 0.518D+00
 Gap=     0.224 Goal=   None    Shift=    0.000
 RMSDP=3.36D-05 MaxDP=3.38D-03 DE=-4.78D-03 OVMax= 1.45D-02

 Cycle   7  Pass 0  IDiag  1:
 RMSU=  1.52D-05    CP:  1.05D+00  1.46D+00  9.59D-01  4.10D-01  6.22D-01
                    CP:  2.88D-01
 E= -801.920575868979     Delta-E=       -0.001112850298 Rises=F Damp=F
 DIIS: error= 7.18D-04 at cycle   7 NSaved=   7.
 NSaved= 7 IEnMin= 7 EnMin= -801.920575868979     IErMin= 7 ErrMin= 7.18D-04
 ErrMax= 7.18D-04  0.00D+00 EMaxC= 1.00D-01 BMatC= 1.94D-04 BMatP= 1.48D-03
 IDIUse=3 WtCom= 9.93D-01 WtEn= 7.18D-03
 Coeff-Com:  0.738D-02-0.970D-02-0.527D-02 0.226D-01 0.118D+00 0.291D+00
 Coeff-Com:  0.576D+00
 Coeff-En:   0.000D+00 0.000D+00 0.000D+00 0.000D+00 0.000D+00 0.118D+00
 Coeff-En:   0.882D+00
 Coeff:      0.733D-02-0.963D-02-0.523D-02 0.224D-01 0.117D+00 0.290D+00
 Coeff:      0.578D+00
 Gap=     0.223 Goal=   None    Shift=    0.000
 RMSDP=1.24D-05 MaxDP=1.75D-03 DE=-1.11D-03 OVMax= 5.83D-03

 Cycle   8  Pass 0  IDiag  1:
 RMSU=  6.24D-06    CP:  1.05D+00  1.46D+00  9.64D-01  4.16D-01  6.10D-01
                    CP:  5.56D-01  6.48D-01
 E= -801.920740841874     Delta-E=       -0.000164972895 Rises=F Damp=F
 DIIS: error= 1.57D-04 at cycle   8 NSaved=   8.
 NSaved= 8 IEnMin= 8 EnMin= -801.920740841874     IErMin= 8 ErrMin= 1.57D-04
 ErrMax= 1.57D-04  0.00D+00 EMaxC= 1.00D-01 BMatC= 1.59D-05 BMatP= 1.94D-04
 IDIUse=3 WtCom= 9.98D-01 WtEn= 1.57D-03
 Coeff-Com:  0.400D-02-0.527D-02-0.180D-02 0.775D-02 0.413D-01 0.131D+00
 Coeff-Com:  0.328D+00 0.495D+00
 Coeff-En:   0.000D+00 0.000D+00 0.000D+00 0.000D+00 0.000D+00 0.000D+00
 Coeff-En:   0.421D-02 0.996D+00
 Coeff:      0.400D-02-0.527D-02-0.180D-02 0.774D-02 0.412D-01 0.131D+00
 Coeff:      0.328D+00 0.495D+00
 Gap=     0.223 Goal=   None    Shift=    0.000
 RMSDP=3.44D-06 MaxDP=4.31D-04 DE=-1.65D-04 OVMax= 1.26D-03

 Initial convergence to 1.0D-05 achieved.  Increase integral accuracy.
 Cycle   9  Pass 1  IDiag  1:
 E= -801.920811632387     Delta-E=       -0.000070790513 Rises=F Damp=F
 DIIS: error= 3.12D-04 at cycle   1 NSaved=   1.
 NSaved= 1 IEnMin= 1 EnMin= -801.920811632387     IErMin= 1 ErrMin= 3.12D-04
 ErrMax= 3.12D-04  0.00D+00 EMaxC= 1.00D-01 BMatC= 2.25D-05 BMatP= 2.25D-05
 IDIUse=3 WtCom= 9.97D-01 WtEn= 3.12D-03
 Coeff-Com:  0.100D+01
 Coeff-En:   0.100D+01
 Coeff:      0.100D+01
 Gap=     0.223 Goal=   None    Shift=    0.000
 RMSDP=3.44D-06 MaxDP=4.31D-04 DE=-7.08D-05 OVMax= 5.01D-04

 Cycle  10  Pass 1  IDiag  1:
 RMSU=  1.64D-04    CP:  9.96D-01
 E= -801.920824955756     Delta-E=       -0.000013323369 Rises=F Damp=F
 DIIS: error= 3.48D-05 at cycle   2 NSaved=   2.
 NSaved= 2 IEnMin= 2 EnMin= -801.920824955756     IErMin= 2 ErrMin= 3.48D-05
 ErrMax= 3.48D-05  0.00D+00 EMaxC= 1.00D-01 BMatC= 2.03D-06 BMatP= 2.25D-05
 IDIUse=1 WtCom= 1.00D+00 WtEn= 0.00D+00
 Coeff-Com:  0.116D+00 0.884D+00
 Coeff:      0.116D+00 0.884D+00
 Gap=     0.223 Goal=   None    Shift=    0.000
 RMSDP=3.07D-06 MaxDP=3.36D-04 DE=-1.33D-05 OVMax= 6.83D-04

 Cycle  11  Pass 1  IDiag  1:
 RMSU=  2.24D-06    CP:  9.96D-01  1.01D+00
 E= -801.920823377177     Delta-E=        0.000001578579 Rises=F Damp=F
 DIIS: error= 4.70D-05 at cycle   3 NSaved=   3.
 NSaved= 3 IEnMin= 2 EnMin= -801.920824955756     IErMin= 2 ErrMin= 3.48D-05
 ErrMax= 4.70D-05  0.00D+00 EMaxC= 1.00D-01 BMatC= 4.00D-06 BMatP= 2.03D-06
 IDIUse=1 WtCom= 1.00D+00 WtEn= 0.00D+00
 Coeff-Com: -0.176D-02 0.585D+00 0.416D+00
 Coeff:     -0.176D-02 0.585D+00 0.416D+00
 Gap=     0.223 Goal=   None    Shift=    0.000
 RMSDP=1.47D-06 MaxDP=2.28D-04 DE= 1.58D-06 OVMax= 4.51D-04

 Cycle  12  Pass 1  IDiag  1:
 RMSU=  6.75D-07    CP:  9.96D-01  1.01D+00  4.43D-01
 E= -801.920826462503     Delta-E=       -0.000003085326 Rises=F Damp=F
 DIIS: error= 7.23D-06 at cycle   4 NSaved=   4.
 NSaved= 4 IEnMin= 4 EnMin= -801.920826462503     IErMin= 4 ErrMin= 7.23D-06
 ErrMax= 7.23D-06  0.00D+00 EMaxC= 1.00D-01 BMatC= 5.65D-08 BMatP= 2.03D-06
 IDIUse=1 WtCom= 1.00D+00 WtEn= 0.00D+00
 Coeff-Com: -0.294D-02 0.330D+00 0.246D+00 0.427D+00
 Coeff:     -0.294D-02 0.330D+00 0.246D+00 0.427D+00
 Gap=     0.223 Goal=   None    Shift=    0.000
 RMSDP=1.76D-07 MaxDP=2.16D-05 DE=-3.09D-06 OVMax= 6.17D-05

 Cycle  13  Pass 1  IDiag  1:
 RMSU=  1.55D-07    CP:  9.96D-01  1.01D+00  4.75D-01  9.42D-01
 E= -801.920826504293     Delta-E=       -0.000000041790 Rises=F Damp=F
 DIIS: error= 1.19D-06 at cycle   5 NSaved=   5.
 NSaved= 5 IEnMin= 5 EnMin= -801.920826504293     IErMin= 5 ErrMin= 1.19D-06
 ErrMax= 1.19D-06  0.00D+00 EMaxC= 1.00D-01 BMatC= 2.29D-09 BMatP= 5.65D-08
 IDIUse=1 WtCom= 1.00D+00 WtEn= 0.00D+00
 Coeff-Com: -0.120D-02 0.984D-01 0.753D-01 0.209D+00 0.618D+00
 Coeff:     -0.120D-02 0.984D-01 0.753D-01 0.209D+00 0.618D+00
 Gap=     0.223 Goal=   None    Shift=    0.000
 RMSDP=5.28D-08 MaxDP=8.48D-06 DE=-4.18D-08 OVMax= 1.50D-05

 Cycle  14  Pass 1  IDiag  1:
 RMSU=  3.76D-08    CP:  9.96D-01  1.01D+00  4.79D-01  9.89D-01  9.29D-01
 E= -801.920826505734     Delta-E=       -0.000000001441 Rises=F Damp=F
 DIIS: error= 5.01D-07 at cycle   6 NSaved=   6.
 NSaved= 6 IEnMin= 6 EnMin= -801.920826505734     IErMin= 6 ErrMin= 5.01D-07
 ErrMax= 5.01D-07  0.00D+00 EMaxC= 1.00D-01 BMatC= 2.29D-10 BMatP= 2.29D-09
 IDIUse=1 WtCom= 1.00D+00 WtEn= 0.00D+00
 Coeff-Com: -0.345D-03 0.211D-01 0.164D-01 0.682D-01 0.297D+00 0.598D+00
 Coeff:     -0.345D-03 0.211D-01 0.164D-01 0.682D-01 0.297D+00 0.598D+00
 Gap=     0.223 Goal=   None    Shift=    0.000
 RMSDP=2.48D-08 MaxDP=4.65D-06 DE=-1.44D-09 OVMax= 7.36D-06

 Cycle  15  Pass 1  IDiag  1:
 RMSU=  1.72D-08    CP:  9.96D-01  1.01D+00  4.78D-01  1.01D+00  9.81D-01
                    CP:  8.76D-01
 E= -801.920826505846     Delta-E=       -0.000000000112 Rises=F Damp=F
 DIIS: error= 3.46D-07 at cycle   7 NSaved=   7.
 NSaved= 7 IEnMin= 7 EnMin= -801.920826505846     IErMin= 7 ErrMin= 3.46D-07
 ErrMax= 3.46D-07  0.00D+00 EMaxC= 1.00D-01 BMatC= 8.02D-11 BMatP= 2.29D-10
 IDIUse=1 WtCom= 1.00D+00 WtEn= 0.00D+00
 Coeff-Com:  0.635D-04-0.103D-01-0.776D-02-0.626D-02 0.433D-01 0.394D+00
 Coeff-Com:  0.587D+00
 Coeff:      0.635D-04-0.103D-01-0.776D-02-0.626D-02 0.433D-01 0.394D+00
 Coeff:      0.587D+00
 Gap=     0.223 Goal=   None    Shift=    0.000
 RMSDP=1.26D-08 MaxDP=2.03D-06 DE=-1.12D-10 OVMax= 3.18D-06

 Cycle  16  Pass 1  IDiag  1:
 RMSU=  6.95D-09    CP:  9.96D-01  1.01D+00  4.79D-01  1.02D+00  9.92D-01
                    CP:  1.05D+00  9.47D-01
 E= -801.920826505904     Delta-E=       -0.000000000058 Rises=F Damp=F
 DIIS: error= 6.45D-08 at cycle   8 NSaved=   8.
 NSaved= 8 IEnMin= 8 EnMin= -801.920826505904     IErMin= 8 ErrMin= 6.45D-08
 ErrMax= 6.45D-08  0.00D+00 EMaxC= 1.00D-01 BMatC= 3.47D-12 BMatP= 8.02D-11
 IDIUse=1 WtCom= 1.00D+00 WtEn= 0.00D+00
 Coeff-Com:  0.566D-04-0.637D-02-0.482D-02-0.843D-02-0.381D-02 0.122D+00
 Coeff-Com:  0.261D+00 0.640D+00
 Coeff:      0.566D-04-0.637D-02-0.482D-02-0.843D-02-0.381D-02 0.122D+00
 Coeff:      0.261D+00 0.640D+00
 Gap=     0.223 Goal=   None    Shift=    0.000
 RMSDP=3.36D-09 MaxDP=7.77D-07 DE=-5.80D-11 OVMax= 5.28D-07

 SCF Done:  E(RM06) =  -801.920826506     A.U. after   16 cycles
            NFock= 16  Conv=0.34D-08     -V/T= 2.0044
 KE= 7.983759610048D+02 PE=-4.296397753701D+03 EE= 1.484125904103D+03
 Leave Link  502 at Tue Jun 24 19:01:56 2014, MaxMem=  4294967296 cpu:     36123.7
 (Enter /home/ztw1e12/g09/l801.exe)
 DoSCS=F DFT=T ScalE2(SS,OS)=  1.000000  1.000000
 Range of M.O.s used for correlation:     1  1068
 NBasis=  1204 NAE=    63 NBE=    63 NFC=     0 NFV=     0
 NROrb=   1068 NOA=    63 NOB=    63 NVA=  1005 NVB=  1005

 **** Warning!!: The largest alpha MO coefficient is  0.23534582D+02

 Leave Link  801 at Tue Jun 24 19:01:56 2014, MaxMem=  4294967296 cpu:         0.4
 (Enter /home/ztw1e12/g09/l1002.exe)
 Minotr:  Closed shell wavefunction.
          IDoAtm=111111111111111111111111111111111
          Direct CPHF calculation.
          Differentiating once with respect to Fermi-contact.
          Electric field/nuclear overlap derivatives assumed to be zero.
          Requested convergence is 1.0D-10 RMS, and 1.0D-09 maximum.
          Secondary convergence is 1.0D-12 RMS, and 1.0D-12 maximum.
          NewPWx=T KeepS1=F KeepF1=F KeepIn=T MapXYZ=F SortEE=F KeepMc=T.
          MDV=    4294965894 using IRadAn=  199590.
 Using stored XC quadrature information.
          Solving linear equations simultaneously, MaxMat=       0.
          There are    33 degrees of freedom in the 1st order CPHF.  IDoFFX=0 NUNeed=    33.
     33 vectors produced by pass  0 Test12= 1.92D-17 3.03D-11 XBig12= 4.29D+01 2.58D+00.
 AX will form    33 AO Fock derivatives at one time.
 FoFJK:  IHMeth= 1 ICntrl=       0 DoSepK=F KAlg= 0 I1Cent=   0 FoldK=F
 IRaf= 450000000 NMat=  33 IRICut=       1 DoRegI=T DoRafI=F ISym2E=-1.
 FoFCou: FMM=F IPFlag=           0 FMFlag=      100000 FMFlg1=           0
         NFxFlg=           0 DoJE=F BraDBF=F KetDBF=F FulRan=T
         wScrn=  0.000000 ICntrl=       0 IOpCl=  0 I1Cent=           0 NGrid=           0
         NMat0=   33 NMatS0=      0 NMatT0=   33 NMatD0=   33 NMtDS0=    0 NMtDT0=    0
 Petite list used in FoFCou.
     33 vectors produced by pass  1 Test12= 1.92D-17 3.03D-11 XBig12= 3.46D-01 1.89D-01.
     33 vectors produced by pass  2 Test12= 1.92D-17 3.03D-11 XBig12= 1.68D-02 4.74D-02.
     33 vectors produced by pass  3 Test12= 1.92D-17 3.03D-11 XBig12= 3.81D-04 5.74D-03.
     33 vectors produced by pass  4 Test12= 1.92D-17 3.03D-11 XBig12= 7.09D-06 1.07D-03.
     33 vectors produced by pass  5 Test12= 1.92D-17 3.03D-11 XBig12= 1.48D-07 1.60D-04.
     33 vectors produced by pass  6 Test12= 1.92D-17 3.03D-11 XBig12= 4.48D-09 2.55D-05.
     33 vectors produced by pass  7 Test12= 1.92D-17 3.03D-11 XBig12= 1.17D-10 4.37D-06.
     33 vectors produced by pass  8 Test12= 1.92D-17 3.03D-11 XBig12= 4.12D-12 3.38D-07.
     33 vectors produced by pass  9 Test12= 1.92D-17 3.03D-11 XBig12= 6.72D-14 8.87D-08.
     33 vectors produced by pass 10 Test12= 1.92D-17 3.03D-11 XBig12= 2.63D-15 7.46D-09.
     33 vectors produced by pass 11 Test12= 1.92D-17 3.03D-11 XBig12= 2.99D-17 7.94D-10.
      6 vectors produced by pass 12 Test12= 1.92D-17 3.03D-11 XBig12= 3.17D-19 6.25D-11.
 InvSVY:  IOpt=1 It=  1 EMax= 1.33D-14
 Solved reduced A of dimension   402 with    33 vectors.
 Max diff in FC couplings:  IJMax=     6     4 Diff= 4.84D-04 IJMaxR=    24     8 DiffR= 1.93D+00
 Fermi Contact (FC) contribution to K (Hz):
                1             2             3             4             5 
      1  0.123400D+11
      2  0.346340D+02  0.123400D+11
      3 -0.126615D+01  0.329661D+02  0.123400D+11
      4  0.298477D+01  0.411269D+00  0.334551D+02  0.123400D+11
      5  0.165482D+01  0.303223D+01 -0.124521D+01  0.340062D+02  0.123400D+11
      6  0.356533D+02 -0.192871D+00  0.428371D+01  0.167285D+00  0.388586D+02
      7  0.217669D+02 -0.321233D+00  0.939448D+00 -0.204368D+00  0.605586D+00
      8 -0.190265D+00  0.223317D+02 -0.207043D+00  0.100544D+01 -0.287990D+00
      9 -0.276525D+00  0.101251D+01 -0.167044D+00  0.225386D+02 -0.110371D+00
     10  0.675441D+00 -0.227969D+00  0.103255D+01 -0.238689D+00  0.229855D+02
     11  0.179456D+01  0.108720D+01  0.236487D+02  0.189886D+01  0.203857D+01
     12 -0.998505D-01  0.674625D+00 -0.109692D+01  0.743265D+00 -0.206700D-01
     13  0.123972D+00  0.103130D+01 -0.105664D+01  0.976183D+00  0.179233D-01
     14 -0.526392D+00  0.597712D+00 -0.146958D+01  0.655094D+00 -0.448163D+00
     15  0.126051D-01 -0.236535D-01  0.307467D-01  0.204242D-02  0.148816D-01
     16  0.832228D-02 -0.611940D-01  0.107860D+01 -0.539032D-01  0.183300D-01
     17 -0.755349D+00 -0.117540D+00  0.258064D+00  0.297274D+01  0.115787D+02
     18  0.422484D+00 -0.104108D-01 -0.461853D-01  0.207368D+00  0.114285D+01
     19  0.425168D-01  0.186279D+00  0.114948D+00  0.206945D-01 -0.341575D-02
     20 -0.310846D-01  0.674513D-01  0.250187D+01  0.162240D+00 -0.978906D-01
     21 -0.253748D-02  0.664509D-02 -0.600935D-01 -0.113702D-01  0.630537D-02
     22 -0.407710D-01  0.396579D-01  0.120670D+00  0.703945D-01 -0.246716D-01
     23  0.815736D-03  0.430009D-03  0.103974D-01 -0.944609D-03  0.336349D-03
     24  0.181255D-02  0.162728D-02  0.170177D-01  0.215956D-01  0.354705D-02
     25  0.170815D-02 -0.371536D-02  0.456425D-01 -0.581598D-02  0.452579D-02
     26 -0.151682D-03 -0.553138D-04  0.246913D-02 -0.607836D-03  0.180902D-03
     27 -0.161185D-03  0.806117D-03 -0.199039D-02  0.130316D-03 -0.660111D-04
     28 -0.191578D-03 -0.194945D-03  0.781570D-03  0.277733D-03  0.721539D-03
     29 -0.568401D-03  0.566088D-02  0.642373D-01  0.365732D-02 -0.102707D-02
     30  0.825428D-04 -0.159650D-03 -0.260186D-02 -0.313820D-03  0.333618D-04
     31  0.902848D-04  0.194641D-03  0.464996D-02 -0.168592D-03 -0.309171D-04
     32  0.802707D-04  0.443282D-03 -0.277162D-02 -0.468291D-04  0.313199D-04
     33 -0.506278D-02  0.190509D-01  0.589424D-02  0.951481D-02 -0.947013D-02
                6             7             8             9            10 
      6  0.123400D+11
      7 -0.529669D+00  0.123400D+11
      8  0.120258D+01  0.334813D+00  0.123400D+11
      9  0.121674D+01  0.363078D-01  0.387537D-01  0.123400D+11
     10 -0.706396D+00  0.650237D-01  0.413455D-01  0.345563D+00  0.123400D+11
     11 -0.436419D+00  0.896410D-02  0.617060D+00  0.686360D+00  0.195839D-01
     12  0.114378D+00  0.104523D-01 -0.366532D-01 -0.258127D-01  0.142305D-01
     13  0.257069D-01  0.827589D-02 -0.492744D-02 -0.243943D-01  0.475777D-02
     14  0.496391D+00  0.440154D-01 -0.117999D+00 -0.111812D+00  0.391710D-01
     15 -0.100558D-01 -0.120532D-02  0.945393D-02  0.533352D-02 -0.161471D-02
     16  0.421241D-03  0.357245D-02  0.365358D-02  0.206272D-04  0.584318D-03
     17 -0.120185D+02  0.560026D+00  0.709308D-01  0.261970D+00  0.707767D+00
     18 -0.661635D+00 -0.134616D-01  0.183614D-02  0.139692D-01  0.123708D-02
     19  0.365136D-02  0.223469D-02  0.373805D-02  0.118930D-01  0.897510D-03
     20  0.679643D-01  0.421007D-03 -0.222164D-01 -0.394609D-01  0.137641D-01
     21 -0.577848D-04  0.856051D-03  0.113949D-02  0.247070D-02 -0.182436D-03
     22  0.409928D-01  0.350307D-02 -0.801542D-02 -0.797866D-02  0.491462D-02
     23 -0.250953D-03  0.214696D-04  0.320410D-04  0.224020D-03 -0.363295D-04
     24 -0.172541D-02 -0.683472D-03  0.000000D+00  0.245126D-03 -0.134994D-02
     25 -0.215063D-02 -0.226748D-03  0.392058D-03  0.345749D-03 -0.192100D-03
     26 -0.135288D-03 -0.364470D-04  0.580149D-04  0.235749D-04 -0.251550D-04
     27  0.299712D-03 -0.434813D-04 -0.245311D-04 -0.886303D-04 -0.368367D-04
     28 -0.549710D-03 -0.658019D-04 -0.477912D-04 -0.182010D-03 -0.171870D-03
     29  0.326522D-02  0.490523D-03 -0.154554D-03 -0.171985D-03  0.427021D-03
     30 -0.151457D-03 -0.150750D-04  0.472455D-04  0.110245D-05 -0.313977D-04
     31  0.836444D-04  0.217285D-04  0.185120D-04 -0.110609D-04  0.299279D-05
     32 -0.109423D-03 -0.153725D-04  0.788639D-04 -0.305422D-04 -0.188035D-04
     33  0.859173D-02  0.114254D-03 -0.838920D-03 -0.262598D-02  0.923825D-03
               11            12            13            14            15 
     11  0.123400D+11
     12  0.179220D+02  0.123400D+11
     13  0.182232D+02 -0.863098D+00  0.123400D+11
     14  0.188969D+02 -0.506481D+00 -0.102588D+01  0.123400D+11
     15 -0.746922D+00  0.413732D+00  0.260322D+00  0.190287D+02  0.123400D+11
     16  0.104790D+00  0.589066D-01  0.939023D+00  0.274675D+02 -0.100851D+01
     17  0.707189D-01  0.406504D-01  0.868062D-02  0.196467D+00 -0.376490D-02
     18  0.116489D-01 -0.421543D-02 -0.993629D-03 -0.210499D-01  0.469614D-03
     19  0.212548D+01 -0.361767D-01 -0.915633D-01  0.311153D+01  0.340540D+00
     20  0.589513D+00  0.966824D+00  0.124635D-01  0.146553D+02 -0.104009D+01
     21  0.423974D+00 -0.139624D-01 -0.518306D-02  0.216460D+00  0.264634D+00
     22  0.674602D+00 -0.545132D-01 -0.734607D-01  0.115142D+02  0.212793D+00
     23  0.531262D-01 -0.446187D-03 -0.343232D-03  0.717816D-01 -0.271136D-01
     24  0.112415D+01  0.220327D-01 -0.315186D-01 -0.410488D+00  0.598549D+00
     25 -0.421630D-01  0.425878D-01  0.815106D-03  0.835328D+00 -0.947713D-01
     26  0.224957D-01  0.195193D-02 -0.814587D-03  0.342235D-01  0.100939D-01
     27 -0.429912D-02 -0.117293D-02 -0.680337D-03  0.710690D-02  0.219021D-01
     28 -0.385847D-02 -0.279457D-03  0.515105D-03  0.912594D-01 -0.351670D-02
     29  0.348645D+00 -0.816472D-02  0.581561D-02  0.880455D+00  0.622209D-02
     30 -0.734807D-02  0.507464D-03  0.115978D-02 -0.606777D-01  0.131409D-01
     31  0.143545D-01 -0.213298D-04  0.264222D-02 -0.230960D-01  0.422585D-03
     32 -0.681529D-02 -0.300946D-03 -0.623798D-03 -0.930548D-01  0.105043D-01
     33  0.157939D+00  0.142911D-01  0.620091D-01  0.798717D+00  0.141248D+00
               16            17            18            19            20 
     16  0.123400D+11
     17 -0.829778D-03  0.123400D+11
     18  0.628413D-05  0.199078D+02  0.123400D+11
     19 -0.100039D+02  0.180297D-02 -0.212437D-04  0.123400D+11
     20  0.414859D+00  0.282647D-01 -0.276169D-02  0.577509D+00  0.123400D+11
     21 -0.310148D-01 -0.384095D-03  0.519406D-04 -0.105928D-01  0.316501D+02
     22  0.287099D+02  0.161852D-01 -0.172577D-02  0.620208D+01  0.141405D+00
     23  0.295262D+00 -0.104037D-05  0.712393D-05  0.546434D+00 -0.239325D-01
     24  0.896386D-01 -0.870533D-04 -0.588074D-04  0.611264D-02  0.263236D+02
     25 -0.154279D+00 -0.222564D-03  0.409509D-04  0.202757D-01  0.119349D+02
     26  0.433641D-01 -0.299358D-04  0.269042D-05  0.815546D-03  0.465789D+00
     27  0.948911D-01  0.202228D-03 -0.242791D-04  0.848454D-02  0.406054D+00
     28  0.978062D-03  0.239134D-04 -0.102629D-04  0.165021D-02  0.385332D+00
     29 -0.601751D+00  0.180374D-02 -0.169345D-03  0.662080D+00 -0.158667D+00
     30  0.279123D+00 -0.582073D-04  0.585993D-05  0.263339D+00  0.145947D+00
     31  0.103677D+01  0.233393D-04 -0.219414D-05  0.169143D+00 -0.209019D-03
     32  0.183661D+00 -0.526030D-04  0.485379D-05  0.260283D+00  0.102461D+00
     33  0.366339D+00  0.354991D-02 -0.360465D-03  0.156110D+00  0.483934D+01
               21            22            23            24            25 
     21  0.123400D+11
     22  0.236991D-01  0.123400D+11
     23  0.166643D-02  0.324560D+02  0.123400D+11
     24  0.432605D+00 -0.232850D+00  0.182804D-01  0.123400D+11
     25  0.141775D+00  0.166915D+00 -0.235181D-01  0.273919D+02  0.123400D+11
     26 -0.171566D-01 -0.569049D-03 -0.411480D-02 -0.119221D+01  0.178575D+02
     27 -0.144812D-01 -0.843310D-02 -0.701724D-03 -0.119031D+01  0.179550D+02
     28 -0.112419D-01  0.265008D-01 -0.198465D-02 -0.754097D+00  0.174739D+02
     29 -0.410092D-02  0.163753D+02  0.373740D+00 -0.118780D-01 -0.735668D-02
     30  0.145973D-02 -0.660687D+00  0.838914D-01 -0.182269D-02  0.748435D-03
     31  0.314208D-04 -0.302524D+00  0.293165D+00  0.262577D-03  0.127831D-02
     32  0.183683D-02 -0.596557D+00  0.138348D+00 -0.258412D-03  0.856134D-02
     33  0.386623D+00  0.533446D+01 -0.829752D+00 -0.936784D+01  0.416981D+01
               26            27            28            29            30 
     26  0.123400D+11
     27 -0.923663D+00  0.123400D+11
     28 -0.745182D+00 -0.723401D+00  0.123400D+11
     29 -0.108945D-02 -0.112308D-02  0.642342D-03  0.123400D+11
     30 -0.106849D-03  0.354506D-03  0.323544D-03  0.196374D+02  0.123400D+11
     31  0.503237D-03  0.139239D-03  0.910845D-04  0.184614D+02 -0.738455D+00
     32  0.236759D-03  0.524374D-03 -0.221866D-03  0.197534D+02 -0.747627D+00
     33  0.417755D+00  0.371180D+00  0.914940D+00  0.110207D+00  0.109740D-01
               31            32            33 
     31  0.123400D+11
     32 -0.750256D+00  0.123400D+11
     33  0.381708D-01  0.542208D-01  0.123400D+11
 Fermi Contact (FC) contribution to J (Hz):
                1             2             3             4             5 
      1  0.243533D+11
      2  0.683510D+02  0.243533D+11
      3 -0.249878D+01  0.650595D+02  0.243533D+11
      4  0.589051D+01  0.811650D+00  0.660245D+02  0.243533D+11
      5  0.326583D+01  0.598418D+01 -0.245745D+01  0.671120D+02  0.243533D+11
      6  0.703627D+02 -0.380637D+00  0.845401D+01  0.330141D+00  0.766883D+02
      7  0.170803D+03 -0.252068D+01  0.737175D+01 -0.160366D+01  0.475198D+01
      8 -0.149299D+01  0.175235D+03 -0.162464D+01  0.788957D+01 -0.225983D+01
      9 -0.216986D+01  0.794506D+01 -0.131078D+01  0.176858D+03 -0.866072D+00
     10  0.530012D+01 -0.178885D+01  0.810229D+01 -0.187297D+01  0.180365D+03
     11  0.354162D+01  0.214561D+01  0.466714D+02  0.374744D+01  0.402318D+01
     12 -0.783517D+00  0.529372D+01 -0.860744D+01  0.583233D+01 -0.162196D+00
     13  0.972800D+00  0.809249D+01 -0.829138D+01  0.766001D+01  0.140643D+00
     14 -0.103885D+01  0.117960D+01 -0.290026D+01  0.129284D+01 -0.884461D+00
     15  0.989111D-01 -0.185607D+00  0.241267D+00  0.160267D-01  0.116774D+00
     16  0.164242D-01 -0.120768D+00  0.212864D+01 -0.106379D+00  0.361747D-01
     17  0.803828D+00  0.125084D+00 -0.274627D+00 -0.316353D+01 -0.123218D+02
     18  0.331519D+01 -0.816923D-01 -0.362412D+00  0.162719D+01  0.896781D+01
     19 -0.452456D-01 -0.198235D+00 -0.122326D+00 -0.220227D-01  0.363497D-02
     20 -0.176316D-01  0.382592D-01  0.141909D+01  0.920243D-01 -0.555248D-01
     21 -0.199113D-01  0.521434D-01 -0.471548D+00 -0.892212D-01  0.494776D-01
     22 -0.231258D-01  0.224945D-01  0.684456D-01  0.399286D-01 -0.139940D-01
     23  0.640100D-02  0.337424D-02  0.815875D-01 -0.741225D-02  0.263930D-02
     24  0.357711D-02  0.321147D-02  0.335849D-01  0.426194D-01  0.700018D-02
     25  0.337108D-02 -0.733235D-02  0.900765D-01 -0.114780D-01  0.893175D-02
     26 -0.119023D-02 -0.434042D-03  0.193750D-01 -0.476963D-02  0.141952D-02
     27 -0.126480D-02  0.632552D-02 -0.156184D-01  0.102257D-02 -0.517983D-03
     28 -0.150329D-02 -0.152971D-02  0.613290D-02  0.217934D-02  0.566185D-02
     29 -0.112175D-02  0.111719D-01  0.126774D+00  0.721781D-02 -0.202695D-02
     30  0.647705D-03 -0.125276D-02 -0.204166D-01 -0.246251D-02  0.261787D-03
     31  0.708456D-03  0.152733D-02  0.364878D-01 -0.132292D-02 -0.242603D-03
     32  0.629876D-03  0.347839D-02 -0.217486D-01 -0.367463D-03  0.245765D-03
     33  0.538771D-02 -0.202736D-01 -0.627253D-02 -0.101255D-01  0.100779D-01
                6             7             8             9            10 
      6  0.243533D+11
      7 -0.415626D+01  0.385007D+12
      8  0.943653D+01  0.104462D+02  0.385007D+12
      9  0.954767D+01  0.113280D+01  0.120911D+01  0.385007D+12
     10 -0.554302D+01  0.202874D+01  0.128998D+01  0.107815D+02  0.385007D+12
     11 -0.861284D+00  0.703404D-01  0.484201D+01  0.538580D+01  0.153673D+00
     12  0.897515D+00  0.326111D+00 -0.114358D+01 -0.805357D+00  0.443990D+00
     13  0.201719D+00  0.258207D+00 -0.153736D+00 -0.761101D+00  0.148442D+00
     14  0.979640D+00  0.345385D+00 -0.925928D+00 -0.877381D+00  0.307371D+00
     15 -0.789066D-01 -0.376058D-01  0.294962D+00  0.166406D+00 -0.503788D-01
     16  0.831330D-03  0.280327D-01  0.286693D-01  0.161859D-03  0.458509D-02
     17  0.127899D+02 -0.236962D+01 -0.300128D+00 -0.110847D+01 -0.299475D+01
     18 -0.519179D+01 -0.420002D+00  0.572874D-01  0.435840D+00  0.385968D-01
     19 -0.388570D-02 -0.945556D-02 -0.158167D-01 -0.503224D-01 -0.379761D-02
     20  0.385502D-01  0.949491D-03 -0.501043D-01 -0.889955D-01  0.310419D-01
     21 -0.453432D-03  0.267087D-01  0.355520D-01  0.770857D-01 -0.569199D-02
     22  0.232516D-01  0.790042D-02 -0.180771D-01 -0.179941D-01  0.110839D-01
     23 -0.196921D-02  0.669849D-03  0.999679D-03  0.698941D-02 -0.113348D-02
     24 -0.340514D-02 -0.536314D-02  0.752046D-05  0.192348D-02 -0.105928D-01
     25 -0.424432D-02 -0.177927D-02  0.307644D-02  0.271306D-02 -0.150739D-02
     26 -0.106159D-02 -0.113715D-02  0.181006D-02  0.735536D-03 -0.784836D-03
     27  0.235181D-02 -0.135661D-02 -0.765368D-03 -0.276526D-02 -0.114930D-02
     28 -0.431352D-02 -0.205302D-02 -0.149108D-02 -0.567871D-02 -0.536233D-02
     29  0.644400D-02  0.384909D-02 -0.121277D-02 -0.134955D-02  0.335079D-02
     30 -0.118847D-02 -0.470339D-03  0.147406D-02  0.343964D-04 -0.979607D-03
     31  0.656350D-03  0.677928D-03  0.577573D-03 -0.345099D-03  0.933748D-04
     32 -0.858633D-03 -0.479622D-03  0.246055D-02 -0.952915D-03 -0.586667D-03
     33 -0.914315D-02 -0.483441D-03  0.354970D-02  0.111113D-01 -0.390895D-02
               11            12            13            14            15 
     11  0.243533D+11
     12  0.140632D+03  0.385007D+12
     13  0.142995D+03 -0.269286D+02  0.385007D+12
     14  0.372935D+02 -0.397430D+01 -0.805001D+01  0.243533D+11
     15 -0.586103D+01  0.129084D+02  0.812202D+01  0.149317D+03  0.385007D+12
     16  0.206806D+00  0.462234D+00  0.736842D+01  0.542079D+02 -0.791368D+01
     17 -0.752577D-01 -0.172003D+00 -0.367301D-01 -0.209077D+00  0.159303D-01
     18  0.914080D-01 -0.131521D+00 -0.310012D-01 -0.165177D+00  0.146519D-01
     19 -0.226190D+01  0.153073D+00  0.387429D+00 -0.331123D+01 -0.144092D+01
     20  0.334379D+00  0.218046D+01  0.281088D-01  0.831265D+01 -0.234570D+01
     21  0.332688D+01 -0.435627D+00 -0.161711D+00  0.169854D+01  0.825655D+01
     22  0.382643D+00 -0.122943D+00 -0.165675D+00  0.653100D+01  0.479910D+00
     23  0.416876D+00 -0.139210D-01 -0.107088D-01  0.563263D+00 -0.845942D+00
     24  0.221854D+01  0.172889D+00 -0.247323D+00 -0.810109D+00  0.469675D+01
     25 -0.832097D-01  0.334182D+00  0.639606D-02  0.164854D+01 -0.743661D+00
     26  0.176521D+00  0.609002D-01 -0.254151D-01  0.268549D+00  0.314931D+00
     27 -0.337348D-01 -0.365954D-01 -0.212265D-01  0.557672D-01  0.683344D+00
     28 -0.302770D-01 -0.871904D-02  0.160713D-01  0.716104D+00 -0.109721D+00
     29  0.688061D+00 -0.640677D-01  0.456345D-01  0.173760D+01  0.488241D-01
     30 -0.576596D-01  0.158329D-01  0.361850D-01 -0.476132D+00  0.409995D+00
     31  0.112638D+00 -0.665488D-03  0.824371D-01 -0.181232D+00  0.131846D-01
     32 -0.534789D-01 -0.938951D-02 -0.194625D-01 -0.730192D+00  0.327735D+00
     33 -0.168076D+00 -0.604697D-01 -0.262377D+00 -0.849979D+00 -0.597659D+00
               16            17            18            19            20 
     16  0.243533D+11
     17  0.883034D-03  0.708114D+10
     18  0.493109D-04 -0.842353D+02  0.385007D+12
     19  0.106460D+02  0.103461D-02  0.898879D-04  0.708114D+10
     20  0.235313D+00 -0.864497D-02 -0.622841D-02 -0.176635D+00  0.201170D+10
     21 -0.243370D+00  0.162521D-02  0.162055D-02  0.448211D-01  0.713799D+02
     22  0.162846D+02 -0.495036D-02 -0.389210D-02 -0.189695D+01  0.230523D-01
     23  0.231689D+01  0.440208D-05  0.222266D-03 -0.231211D+01 -0.539745D-01
     24  0.176904D+00  0.926404D-04 -0.461456D-03 -0.650496D-02  0.149311D+02
     25 -0.304473D+00  0.236848D-03  0.321338D-03 -0.215770D-01  0.676965D+01
     26  0.340274D+00  0.126667D-03  0.839410D-04 -0.345080D-02  0.105049D+01
     27  0.744601D+00 -0.855682D-03 -0.757506D-03 -0.359004D-01  0.915767D+00
     28  0.767476D-02 -0.101184D-03 -0.320202D-03 -0.698251D-02  0.869032D+00
     29 -0.118757D+01 -0.191950D-02 -0.132884D-02 -0.704573D+00 -0.899979D-01
     30  0.219025D+01  0.246291D-03  0.182830D-03 -0.111426D+01  0.329152D+00
     31  0.813547D+01 -0.987550D-04 -0.684571D-04 -0.715692D+00 -0.471397D-03
     32  0.144117D+01  0.222578D-03  0.151438D-03 -0.110133D+01  0.231079D+00
     33 -0.389851D+00  0.203707D-02  0.152523D-02  0.895819D-01 -0.148015D+01
               21            22            23            24            25 
     21  0.385007D+12
     22  0.534483D-01  0.201170D+10
     23  0.519926D-01  0.731974D+02  0.385007D+12
     24  0.339461D+01 -0.132075D+00  0.143444D+00  0.243533D+11
     25  0.111250D+01  0.946762D-01 -0.184545D+00  0.540586D+02  0.243533D+11
     26 -0.535286D+00 -0.128337D-02 -0.128382D+00 -0.935519D+01  0.140126D+03
     27 -0.451813D+00 -0.190190D-01 -0.218938D-01 -0.934027D+01  0.140891D+03
     28 -0.350746D+00  0.597669D-01 -0.619210D-01 -0.591733D+01  0.137116D+03
     29 -0.321796D-01  0.928827D+01  0.293270D+01 -0.234414D-01 -0.145186D-01
     30  0.455436D-01 -0.149004D+01  0.261741D+01 -0.143025D-01  0.587290D-02
     31  0.980328D-03 -0.682278D+00  0.914675D+01  0.206042D-02  0.100308D-01
     32  0.573091D-01 -0.134541D+01  0.431646D+01 -0.202773D-02  0.671800D-01
     33 -0.163591D+01 -0.163158D+01  0.351091D+01  0.996907D+01 -0.443744D+01
               26            27            28            29            30 
     26  0.385007D+12
     27 -0.288182D+02  0.385007D+12
     28 -0.232497D+02 -0.225701D+02  0.385007D+12
     29 -0.854884D-02 -0.881268D-02  0.504039D-02  0.243533D+11
     30 -0.333367D-02  0.110606D-01  0.100946D-01  0.154093D+03  0.385007D+12
     31  0.157010D-01  0.434424D-02  0.284183D-02  0.144865D+03 -0.230398D+02
     32  0.738686D-02  0.163604D-01 -0.692219D-02  0.155003D+03 -0.233259D+02
     33 -0.176764D+01 -0.157057D+01 -0.387136D+01 -0.117281D+00 -0.464340D-01
               31            32            33 
     31  0.385007D+12
     32 -0.234080D+02  0.385007D+12
     33 -0.161511D+00 -0.229423D+00  0.708114D+10
 End of Minotr F.D. properties file   721 does not exist.
 End of Minotr F.D. properties file   722 does not exist.
 End of Minotr F.D. properties file   788 does not exist.
 Leave Link 1002 at Wed Jun 25 03:05:07 2014, MaxMem=  4294967296 cpu:    462722.4
 (Enter /home/ztw1e12/g09/l601.exe)
 Copying SCF densities to generalized density rwf, IOpCl= 0 IROHF=0.

 **********************************************************************

            Population analysis using the SCF density.

 **********************************************************************

 Orbital symmetries:
       Occupied  (A) (A) (A) (A) (A) (A) (A) (A) (A) (A) (A) (A)
                 (A) (A) (A) (A) (A) (A) (A) (A) (A) (A) (A) (A)
                 (A) (A) (A) (A) (A) (A) (A) (A) (A) (A) (A) (A)
                 (A) (A) (A) (A) (A) (A) (A) (A) (A) (A) (A) (A)
                 (A) (A) (A) (A) (A) (A) (A) (A) (A) (A) (A) (A)
                 (A) (A) (A)
       Virtual   (A) (A) (A) (A) (A) (A) (A) (A) (A) (A) (A) (A)
                 (A) (A) (A) (A) (A) (A) (A) (A) (A) (A) (A) (A)
                 (A) (A) (A) (A) (A) (A) (A) (A) (A) (A) (A) (A)
                 (A) (A) (A) (A) (A) (A) (A) (A) (A) (A) (A) (A)
                 (A) (A) (A) (A) (A) (A) (A) (A) (A) (A) (A) (A)
                 (A) (A) (A) (A) (A) (A) (A) (A) (A) (A) (A) (A)
                 (A) (A) (A) (A) (A) (A) (A) (A) (A) (A) (A) (A)
                 (A) (A) (A) (A) (A) (A) (A) (A) (A) (A) (A) (A)
                 (A) (A) (A) (A) (A) (A) (A) (A) (A) (A) (A) (A)
                 (A) (A) (A) (A) (A) (A) (A) (A) (A) (A) (A) (A)
                 (A) (A) (A) (A) (A) (A) (A) (A) (A) (A) (A) (A)
                 (A) (A) (A) (A) (A) (A) (A) (A) (A) (A) (A) (A)
                 (A) (A) (A) (A) (A) (A) (A) (A) (A) (A) (A) (A)
                 (A) (A) (A) (A) (A) (A) (A) (A) (A) (A) (A) (A)
                 (A) (A) (A) (A) (A) (A) (A) (A) (A) (A) (A) (A)
                 (A) (A) (A) (A) (A) (A) (A) (A) (A) (A) (A) (A)
                 (A) (A) (A) (A) (A) (A) (A) (A) (A) (A) (A) (A)
                 (A) (A) (A) (A) (A) (A) (A) (A) (A) (A) (A) (A)
                 (A) (A) (A) (A) (A) (A) (A) (A) (A) (A) (A) (A)
                 (A) (A) (A) (A) (A) (A) (A) (A) (A) (A) (A) (A)
                 (A) (A) (A) (A) (A) (A) (A) (A) (A) (A) (A) (A)
                 (A) (A) (A) (A) (A) (A) (A) (A) (A) (A) (A) (A)
                 (A) (A) (A) (A) (A) (A) (A) (A) (A) (A) (A) (A)
                 (A) (A) (A) (A) (A) (A) (A) (A) (A) (A) (A) (A)
                 (A) (A) (A) (A) (A) (A) (A) (A) (A) (A) (A) (A)
                 (A) (A) (A) (A) (A) (A) (A) (A) (A) (A) (A) (A)
                 (A) (A) (A) (A) (A) (A) (A) (A) (A) (A) (A) (A)
                 (A) (A) (A) (A) (A) (A) (A) (A) (A) (A) (A) (A)
                 (A) (A) (A) (A) (A) (A) (A) (A) (A) (A) (A) (A)
                 (A) (A) (A) (A) (A) (A) (A) (A) (A) (A) (A) (A)
                 (A) (A) (A) (A) (A) (A) (A) (A) (A) (A) (A) (A)
                 (A) (A) (A) (A) (A) (A) (A) (A) (A) (A) (A) (A)
                 (A) (A) (A) (A) (A) (A) (A) (A) (A) (A) (A) (A)
                 (A) (A) (A) (A) (A) (A) (A) (A) (A) (A) (A) (A)
                 (A) (A) (A) (A) (A) (A) (A) (A) (A) (A) (A) (A)
                 (A) (A) (A) (A) (A) (A) (A) (A) (A) (A) (A) (A)
                 (A) (A) (A) (A) (A) (A) (A) (A) (A) (A) (A) (A)
                 (A) (A) (A) (A) (A) (A) (A) (A) (A) (A) (A) (A)
                 (A) (A) (A) (A) (A) (A) (A) (A) (A) (A) (A) (A)
                 (A) (A) (A) (A) (A) (A) (A) (A) (A) (A) (A) (A)
                 (A) (A) (A) (A) (A) (A) (A) (A) (A) (A) (A) (A)
                 (A) (A) (A) (A) (A) (A) (A) (A) (A) (A) (A) (A)
                 (A) (A) (A) (A) (A) (A) (A) (A) (A) (A) (A) (A)
                 (A) (A) (A) (A) (A) (A) (A) (A) (A) (A) (A) (A)
                 (A) (A) (A) (A) (A) (A) (A) (A) (A) (A) (A) (A)
                 (A) (A) (A) (A) (A) (A) (A) (A) (A) (A) (A) (A)
                 (A) (A) (A) (A) (A) (A) (A) (A) (A) (A) (A) (A)
                 (A) (A) (A) (A) (A) (A) (A) (A) (A) (A) (A) (A)
                 (A) (A) (A) (A) (A) (A) (A) (A) (A) (A) (A) (A)
                 (A) (A) (A) (A) (A) (A) (A) (A) (A) (A) (A) (A)
                 (A) (A) (A) (A) (A) (A) (A) (A) (A) (A) (A) (A)
                 (A) (A) (A) (A) (A) (A) (A) (A) (A) (A) (A) (A)
                 (A) (A) (A) (A) (A) (A) (A) (A) (A) (A) (A) (A)
                 (A) (A) (A) (A) (A) (A) (A) (A) (A) (A) (A) (A)
                 (A) (A) (A) (A) (A) (A) (A) (A) (A) (A) (A) (A)
                 (A) (A) (A) (A) (A) (A) (A) (A) (A) (A) (A) (A)
                 (A) (A) (A) (A) (A) (A) (A) (A) (A) (A) (A) (A)
                 (A) (A) (A) (A) (A) (A) (A) (A) (A) (A) (A) (A)
                 (A) (A) (A) (A) (A) (A) (A) (A) (A) (A) (A) (A)
                 (A) (A) (A) (A) (A) (A) (A) (A) (A) (A) (A) (A)
                 (A) (A) (A) (A) (A) (A) (A) (A) (A) (A) (A) (A)
                 (A) (A) (A) (A) (A) (A) (A) (A) (A) (A) (A) (A)
                 (A) (A) (A) (A) (A) (A) (A) (A) (A) (A) (A) (A)
                 (A) (A) (A) (A) (A) (A) (A) (A) (A) (A) (A) (A)
                 (A) (A) (A) (A) (A) (A) (A) (A) (A) (A) (A) (A)
                 (A) (A) (A) (A) (A) (A) (A) (A) (A) (A) (A) (A)
                 (A) (A) (A) (A) (A) (A) (A) (A) (A) (A) (A) (A)
                 (A) (A) (A) (A) (A) (A) (A) (A) (A) (A) (A) (A)
                 (A) (A) (A) (A) (A) (A) (A) (A) (A) (A) (A) (A)
                 (A) (A) (A) (A) (A) (A) (A) (A) (A) (A) (A) (A)
                 (A) (A) (A) (A) (A) (A) (A) (A) (A) (A) (A) (A)
                 (A) (A) (A) (A) (A) (A) (A) (A) (A) (A) (A) (A)
                 (A) (A) (A) (A) (A) (A) (A) (A) (A) (A) (A) (A)
                 (A) (A) (A) (A) (A) (A) (A) (A) (A) (A) (A) (A)
                 (A) (A) (A) (A) (A) (A) (A) (A) (A) (A) (A) (A)
                 (A) (A) (A) (A) (A) (A) (A) (A) (A) (A) (A) (A)
                 (A) (A) (A) (A) (A) (A) (A) (A) (A) (A) (A) (A)
                 (A) (A) (A) (A) (A) (A) (A) (A) (A) (A) (A) (A)
                 (A) (A) (A) (A) (A) (A) (A) (A) (A) (A) (A) (A)
                 (A) (A) (A) (A) (A) (A) (A) (A) (A) (A) (A) (A)
                 (A) (A) (A) (A) (A) (A) (A) (A) (A) (A) (A) (A)
                 (A) (A) (A) (A) (A) (A) (A) (A) (A) (A) (A) (A)
                 (A) (A) (A) (A) (A) (A) (A) (A) (A) (A) (A) (A)
                 (A) (A) (A) (A) (A) (A) (A) (A) (A)
 The electronic state is 1-A.
 Alpha  occ. eigenvalues --  -19.25256 -19.18456 -19.17399 -14.42761 -14.40650
 Alpha  occ. eigenvalues --  -10.35125 -10.33290 -10.31336 -10.29376 -10.26512
 Alpha  occ. eigenvalues --  -10.25302 -10.25225 -10.25148 -10.25116 -10.25018
 Alpha  occ. eigenvalues --  -10.24614 -10.24589  -1.09585  -1.06476  -1.05021
 Alpha  occ. eigenvalues --   -0.95628  -0.93332  -0.88174  -0.81308  -0.77432
 Alpha  occ. eigenvalues --   -0.77246  -0.74412  -0.71678  -0.66374  -0.64478
 Alpha  occ. eigenvalues --   -0.61546  -0.60593  -0.58637  -0.56870  -0.55074
 Alpha  occ. eigenvalues --   -0.51676  -0.51023  -0.50502  -0.48350  -0.47114
 Alpha  occ. eigenvalues --   -0.46666  -0.45964  -0.45432  -0.44405  -0.44022
 Alpha  occ. eigenvalues --   -0.43429  -0.42646  -0.42459  -0.41767  -0.40935
 Alpha  occ. eigenvalues --   -0.39902  -0.38951  -0.38172  -0.37160  -0.36462
 Alpha  occ. eigenvalues --   -0.35552  -0.35122  -0.30245  -0.28231  -0.27930
 Alpha  occ. eigenvalues --   -0.27071  -0.26072  -0.24336
 Alpha virt. eigenvalues --   -0.02008  -0.00016   0.01084   0.01718   0.02555
 Alpha virt. eigenvalues --    0.03764   0.03954   0.04963   0.05583   0.06833
 Alpha virt. eigenvalues --    0.07549   0.08592   0.09151   0.10366   0.10936
 Alpha virt. eigenvalues --    0.11117   0.11798   0.11939   0.13037   0.14136
 Alpha virt. eigenvalues --    0.15261   0.16042   0.17631   0.18078   0.19202
 Alpha virt. eigenvalues --    0.19703   0.20819   0.21897   0.22046   0.23100
 Alpha virt. eigenvalues --    0.23239   0.23914   0.24650   0.25676   0.26228
 Alpha virt. eigenvalues --    0.26939   0.27541   0.28515   0.29248   0.29669
 Alpha virt. eigenvalues --    0.30260   0.30628   0.31411   0.32089   0.32825
 Alpha virt. eigenvalues --    0.33315   0.33504   0.34421   0.34600   0.35261
 Alpha virt. eigenvalues --    0.35339   0.35579   0.36323   0.36843   0.37809
 Alpha virt. eigenvalues --    0.38353   0.38830   0.39264   0.39633   0.39928
 Alpha virt. eigenvalues --    0.40197   0.40800   0.41214   0.41690   0.41841
 Alpha virt. eigenvalues --    0.42196   0.42724   0.42952   0.43406   0.43886
 Alpha virt. eigenvalues --    0.44615   0.45073   0.45383   0.45887   0.46293
 Alpha virt. eigenvalues --    0.47098   0.48145   0.49069   0.49627   0.50201
 Alpha virt. eigenvalues --    0.50600   0.51886   0.52184   0.52782   0.53266
 Alpha virt. eigenvalues --    0.53542   0.54066   0.55535   0.56257   0.57725
 Alpha virt. eigenvalues --    0.58588   0.59011   0.59383   0.60402   0.61111
 Alpha virt. eigenvalues --    0.61904   0.62351   0.63540   0.63962   0.64493
 Alpha virt. eigenvalues --    0.64821   0.65315   0.66340   0.66768   0.68467
 Alpha virt. eigenvalues --    0.69526   0.70514   0.71000   0.71659   0.72185
 Alpha virt. eigenvalues --    0.73114   0.74279   0.74404   0.75253   0.75519
 Alpha virt. eigenvalues --    0.76542   0.77428   0.78029   0.79381   0.79743
 Alpha virt. eigenvalues --    0.79936   0.81450   0.81836   0.82103   0.82561
 Alpha virt. eigenvalues --    0.83617   0.84136   0.84915   0.85183   0.86761
 Alpha virt. eigenvalues --    0.87132   0.87843   0.88774   0.90189   0.90637
 Alpha virt. eigenvalues --    0.92058   0.92263   0.93055   0.93647   0.94400
 Alpha virt. eigenvalues --    0.95344   0.96243   0.96607   0.97062   0.97373
 Alpha virt. eigenvalues --    0.98324   0.99011   0.99393   1.00638   1.01245
 Alpha virt. eigenvalues --    1.02563   1.03034   1.03946   1.04694   1.05152
 Alpha virt. eigenvalues --    1.05854   1.06737   1.07474   1.08012   1.08815
 Alpha virt. eigenvalues --    1.09141   1.10112   1.11634   1.12329   1.12974
 Alpha virt. eigenvalues --    1.14191   1.15378   1.15635   1.16720   1.16826
 Alpha virt. eigenvalues --    1.17772   1.18422   1.19053   1.20034   1.20521
 Alpha virt. eigenvalues --    1.21008   1.21481   1.21930   1.22163   1.22499
 Alpha virt. eigenvalues --    1.22701   1.23452   1.23857   1.24628   1.25214
 Alpha virt. eigenvalues --    1.25627   1.25787   1.26134   1.26608   1.27242
 Alpha virt. eigenvalues --    1.27772   1.28622   1.28784   1.30008   1.30360
 Alpha virt. eigenvalues --    1.31045   1.32088   1.32986   1.33934   1.34305
 Alpha virt. eigenvalues --    1.34973   1.35113   1.36375   1.37115   1.38627
 Alpha virt. eigenvalues --    1.39191   1.40533   1.41303   1.42954   1.45243
 Alpha virt. eigenvalues --    1.46762   1.48186   1.48828   1.49208   1.51884
 Alpha virt. eigenvalues --    1.52401   1.53971   1.55225   1.56204   1.58321
 Alpha virt. eigenvalues --    1.59466   1.60767   1.61217   1.61543   1.62739
 Alpha virt. eigenvalues --    1.63935   1.65103   1.68772   1.69947   1.69975
 Alpha virt. eigenvalues --    1.73112   1.74470   1.76081   1.77676   1.79710
 Alpha virt. eigenvalues --    1.80868   1.81161   1.82215   1.83825   1.84307
 Alpha virt. eigenvalues --    1.85284   1.86383   1.87622   1.89353   1.90482
 Alpha virt. eigenvalues --    1.91383   1.92659   1.93190   1.94542   1.95732
 Alpha virt. eigenvalues --    1.96833   1.99877   2.01467   2.01809   2.03159
 Alpha virt. eigenvalues --    2.03608   2.05011   2.06521   2.06950   2.07655
 Alpha virt. eigenvalues --    2.09197   2.09408   2.10965   2.12658   2.15191
 Alpha virt. eigenvalues --    2.16393   2.16823   2.17093   2.18079   2.18761
 Alpha virt. eigenvalues --    2.20027   2.22221   2.23250   2.23739   2.24872
 Alpha virt. eigenvalues --    2.27200   2.28459   2.29182   2.30919   2.31722
 Alpha virt. eigenvalues --    2.32643   2.35137   2.35811   2.37159   2.38076
 Alpha virt. eigenvalues --    2.39122   2.39728   2.40668   2.41995   2.43115
 Alpha virt. eigenvalues --    2.45102   2.45453   2.45719   2.46912   2.47523
 Alpha virt. eigenvalues --    2.49294   2.50723   2.51177   2.53255   2.54461
 Alpha virt. eigenvalues --    2.55612   2.55869   2.56317   2.57593   2.61071
 Alpha virt. eigenvalues --    2.62777   2.63132   2.64294   2.65060   2.66421
 Alpha virt. eigenvalues --    2.67384   2.67586   2.68877   2.69229   2.69544
 Alpha virt. eigenvalues --    2.70484   2.70631   2.71577   2.72073   2.72749
 Alpha virt. eigenvalues --    2.73188   2.73996   2.74910   2.75281   2.76037
 Alpha virt. eigenvalues --    2.77428   2.78257   2.78756   2.80073   2.80453
 Alpha virt. eigenvalues --    2.80956   2.82534   2.83344   2.83889   2.85372
 Alpha virt. eigenvalues --    2.86385   2.87845   2.88039   2.88347   2.88601
 Alpha virt. eigenvalues --    2.90375   2.90922   2.91515   2.91905   2.92606
 Alpha virt. eigenvalues --    2.93220   2.93527   2.93833   2.94413   2.95602
 Alpha virt. eigenvalues --    2.96151   2.96793   2.97324   2.97686   2.99098
 Alpha virt. eigenvalues --    2.99766   3.00478   3.00650   3.01576   3.02034
 Alpha virt. eigenvalues --    3.02885   3.03156   3.03930   3.04278   3.04493
 Alpha virt. eigenvalues --    3.05204   3.05753   3.06913   3.07710   3.09872
 Alpha virt. eigenvalues --    3.10319   3.10474   3.11819   3.12414   3.12678
 Alpha virt. eigenvalues --    3.13226   3.13709   3.15109   3.16167   3.16515
 Alpha virt. eigenvalues --    3.17558   3.18203   3.19130   3.19856   3.20765
 Alpha virt. eigenvalues --    3.21716   3.21972   3.22430   3.24025   3.24512
 Alpha virt. eigenvalues --    3.25527   3.26069   3.27162   3.27961   3.28334
 Alpha virt. eigenvalues --    3.28609   3.28872   3.29491   3.29752   3.30408
 Alpha virt. eigenvalues --    3.32026   3.32715   3.33026   3.33950   3.34967
 Alpha virt. eigenvalues --    3.35424   3.35861   3.36819   3.37613   3.38836
 Alpha virt. eigenvalues --    3.39982   3.40686   3.41052   3.41466   3.42618
 Alpha virt. eigenvalues --    3.42806   3.43496   3.44710   3.45788   3.46546
 Alpha virt. eigenvalues --    3.47607   3.47941   3.49705   3.49893   3.50725
 Alpha virt. eigenvalues --    3.52334   3.52648   3.53768   3.54527   3.55627
 Alpha virt. eigenvalues --    3.55982   3.58207   3.58484   3.59253   3.59904
 Alpha virt. eigenvalues --    3.62729   3.62908   3.63848   3.65027   3.66628
 Alpha virt. eigenvalues --    3.67161   3.67183   3.68762   3.69184   3.70967
 Alpha virt. eigenvalues --    3.71902   3.72256   3.73165   3.73459   3.73677
 Alpha virt. eigenvalues --    3.74749   3.75805   3.76491   3.76937   3.77249
 Alpha virt. eigenvalues --    3.78695   3.78971   3.80052   3.81151   3.81905
 Alpha virt. eigenvalues --    3.83160   3.83510   3.83703   3.85454   3.86500
 Alpha virt. eigenvalues --    3.86671   3.87276   3.88715   3.89214   3.89686
 Alpha virt. eigenvalues --    3.90933   3.92488   3.92971   3.93520   3.94622
 Alpha virt. eigenvalues --    3.96058   3.96848   3.98888   3.99959   4.00919
 Alpha virt. eigenvalues --    4.01571   4.02033   4.03394   4.03983   4.05444
 Alpha virt. eigenvalues --    4.05577   4.06524   4.07305   4.07819   4.08717
 Alpha virt. eigenvalues --    4.10173   4.10658   4.12203   4.12692   4.13762
 Alpha virt. eigenvalues --    4.14857   4.15473   4.16580   4.17000   4.18595
 Alpha virt. eigenvalues --    4.19362   4.19902   4.20357   4.21270   4.21695
 Alpha virt. eigenvalues --    4.23013   4.24033   4.24492   4.25792   4.26601
 Alpha virt. eigenvalues --    4.27570   4.27946   4.29333   4.29846   4.30647
 Alpha virt. eigenvalues --    4.31886   4.33421   4.34413   4.35206   4.38730
 Alpha virt. eigenvalues --    4.39118   4.41172   4.42763   4.43021   4.44109
 Alpha virt. eigenvalues --    4.44890   4.45874   4.48027   4.48505   4.50238
 Alpha virt. eigenvalues --    4.53985   4.54406   4.55820   4.57749   4.58855
 Alpha virt. eigenvalues --    4.59894   4.60061   4.62040   4.62260   4.63763
 Alpha virt. eigenvalues --    4.64508   4.64982   4.65761   4.66410   4.68375
 Alpha virt. eigenvalues --    4.68521   4.70079   4.70684   4.72079   4.72841
 Alpha virt. eigenvalues --    4.74937   4.76366   4.77998   4.79028   4.79539
 Alpha virt. eigenvalues --    4.80730   4.81758   4.83988   4.84805   4.85671
 Alpha virt. eigenvalues --    4.87318   4.88187   4.89234   4.90531   4.92647
 Alpha virt. eigenvalues --    4.93055   4.93526   4.94589   4.95770   4.96490
 Alpha virt. eigenvalues --    4.97375   4.98567   4.99295   5.01596   5.02716
 Alpha virt. eigenvalues --    5.03262   5.05022   5.06619   5.08289   5.09450
 Alpha virt. eigenvalues --    5.10577   5.11100   5.12675   5.13354   5.15457
 Alpha virt. eigenvalues --    5.16540   5.17599   5.18131   5.18648   5.20911
 Alpha virt. eigenvalues --    5.21182   5.23089   5.24989   5.26068   5.27495
 Alpha virt. eigenvalues --    5.29272   5.32869   5.34950   5.35703   5.37654
 Alpha virt. eigenvalues --    5.39226   5.42849   5.44109   5.45791   5.46378
 Alpha virt. eigenvalues --    5.51112   5.51471   5.52153   5.52617   5.55016
 Alpha virt. eigenvalues --    5.56346   5.57709   5.58788   5.61310   5.62557
 Alpha virt. eigenvalues --    5.64102   5.65567   5.65971   5.66671   5.67558
 Alpha virt. eigenvalues --    5.67969   5.69548   5.71347   5.72887   5.73787
 Alpha virt. eigenvalues --    5.74394   5.77079   5.78671   5.80063   5.80964
 Alpha virt. eigenvalues --    5.81671   5.86788   5.89440   5.90122   5.96776
 Alpha virt. eigenvalues --    5.98086   6.00173   6.04922   6.06832   6.09305
 Alpha virt. eigenvalues --    6.16638   6.17021   6.20334   6.24016   6.25728
 Alpha virt. eigenvalues --    6.45802   6.46367   6.50419   6.55448   6.60122
 Alpha virt. eigenvalues --    6.60502   6.61027   6.61787   6.63297   6.66781
 Alpha virt. eigenvalues --    6.79240   6.79853   6.81254   6.87808   6.88679
 Alpha virt. eigenvalues --    6.89946   6.91208   6.93200   6.94251   7.06213
 Alpha virt. eigenvalues --    7.17738   7.19213   7.22805   7.27871   7.28871
 Alpha virt. eigenvalues --    7.67239   7.99512   8.09979   8.11815   8.12584
 Alpha virt. eigenvalues --    8.16719   8.19488   8.25230   8.35592   8.66746
 Alpha virt. eigenvalues --    8.73609   8.75119   8.77213   8.81071   8.81322
 Alpha virt. eigenvalues --    8.82715   8.83513   8.84668   8.89245   8.91420
 Alpha virt. eigenvalues --    8.93437   8.94903   8.95145   9.01236   9.07659
 Alpha virt. eigenvalues --    9.09968   9.12563   9.15235   9.21165   9.30669
 Alpha virt. eigenvalues --    9.35475   9.40041   9.40609   9.45686   9.47853
 Alpha virt. eigenvalues --    9.57915   9.63120   9.77786   9.81996  10.02130
 Alpha virt. eigenvalues --   10.06736  10.10362  10.11913  10.13729  10.17532
[...]
 Alpha virt. eigenvalues --    6.61131   6.61852   6.63566   6.64297   6.70875
 Alpha virt. eigenvalues --    6.77960   6.80294   6.85637   6.87138   6.88339
 Alpha virt. eigenvalues --    6.91836   6.92612   7.07912   7.10420   7.10546
 Alpha virt. eigenvalues --    7.15494   7.19126   7.28600   7.43167   8.65240
 Alpha virt. eigenvalues --    9.49040   9.96849  11.93898  12.12437  12.29412
 Alpha virt. eigenvalues --   12.31815  12.54397  12.75532  12.92063  13.12882
 Alpha virt. eigenvalues --   13.51562  13.54716  13.56888  13.77369  14.03470
 Alpha virt. eigenvalues --   15.56367
          Condensed to atoms (all electrons):
               1          2          3          4          5          6
     1  C    5.421828   0.224314   0.005510  -0.044137  -0.017455   0.295624
     2  C    0.224314   5.395860   0.287939  -0.020493  -0.038370   0.029140
     3  C    0.005510   0.287939   5.508279   0.245139  -0.024989  -0.076784
     4  C   -0.044137  -0.020493   0.245139   5.356664   0.379118  -0.008014
     5  C   -0.017455  -0.038370  -0.024989   0.379118   5.122631   0.365308
     6  C    0.295624   0.029140  -0.076784  -0.008014   0.365308   4.893019
     7  H    0.452172  -0.035896   0.009126  -0.000809   0.004008  -0.073044
     8  H   -0.024399   0.436106  -0.073713   0.007634  -0.001515   0.006892
     9  H   -0.003856   0.009457  -0.092398   0.460741  -0.044349   0.012507
    10  H    0.014274  -0.006044   0.014244  -0.058888   0.455247  -0.079575
    11  C    0.006823  -0.058603   0.161195  -0.039947   0.008012  -0.001853
    12  H    0.000139  -0.008698  -0.061622   0.008857  -0.000488   0.000115
    13  H   -0.000475   0.005162  -0.044487  -0.005234  -0.000259   0.000132
    14  C    0.000374  -0.003830   0.015931  -0.012927   0.000285  -0.000090
    15  H   -0.000194  -0.004220   0.004558   0.001596  -0.000042   0.000007
    16  C   -0.000038   0.001118   0.001886   0.000086  -0.000067   0.000011
    17  O   -0.089988   0.013588  -0.000562   0.002663  -0.049537   0.392404
    18  H   -0.005192   0.004691  -0.000386  -0.000696   0.002291  -0.043074
    19  O   -0.000002  -0.000189   0.002189  -0.000056  -0.000010   0.000001
    20  N    0.000353   0.010572  -0.032810  -0.004880   0.000461  -0.000269
    21  H   -0.001220  -0.000295   0.003014   0.006193   0.000827  -0.000050
    22  N    0.000000  -0.000043   0.000299  -0.000017  -0.000001   0.000000
    23  H    0.000000   0.000004  -0.000184   0.000014   0.000001   0.000000
    24  C    0.000267  -0.002255  -0.000282  -0.000043   0.000007  -0.000040
    25  C    0.000267   0.000582   0.000316  -0.000320  -0.000056  -0.000060
    26  H    0.000063   0.000021   0.000073  -0.000008  -0.000023   0.000002
    27  H    0.000003   0.000038  -0.000017  -0.000024   0.000002   0.000001
    28  H    0.000108  -0.000081  -0.000092  -0.000152   0.000426   0.000073
    29  C    0.000000   0.000004  -0.000011  -0.000002   0.000000   0.000000
    30  H    0.000000  -0.000001  -0.000018   0.000002   0.000000   0.000000
    31  H    0.000000   0.000000  -0.000002   0.000000   0.000000   0.000000
    32  H    0.000000   0.000000   0.000010  -0.000001   0.000000   0.000000
    33  O    0.000001  -0.000377   0.000169   0.000030   0.000000   0.000000
               7          8          9         10         11         12
     1  C    0.452172  -0.024399  -0.003856   0.014274   0.006823   0.000139
     2  C   -0.035896   0.436106   0.009457  -0.006044  -0.058603  -0.008698
     3  C    0.009126  -0.073713  -0.092398   0.014244   0.161195  -0.061622
     4  C   -0.000809   0.007634   0.460741  -0.058888  -0.039947   0.008857
     5  C    0.004008  -0.001515  -0.044349   0.455247   0.008012  -0.000488
     6  C   -0.073044   0.006892   0.012507  -0.079575  -0.001853   0.000115
     7  H    0.532252  -0.006753   0.000039  -0.000215  -0.000205  -0.000025
     8  H   -0.006753   0.492513  -0.000161   0.000041  -0.000132   0.000003
     9  H    0.000039  -0.000161   0.481187  -0.009219   0.003466   0.000422
    10  H   -0.000215   0.000041  -0.009219   0.534778  -0.000191   0.000010
    11  C   -0.000205  -0.000132   0.003466  -0.000191   5.425164   0.455723
    12  H   -0.000025   0.000003   0.000422   0.000010   0.455723   0.489661
    13  H    0.000011   0.000279   0.002134  -0.000065   0.425436  -0.005078
    14  C    0.000015  -0.000142  -0.002863   0.000030   0.135118  -0.064713
    15  H   -0.000004   0.001081   0.000159  -0.000002  -0.002586  -0.003059
    16  C   -0.000001   0.000145   0.000442  -0.000003  -0.056527   0.002659
    17  O   -0.004102  -0.000107  -0.000131   0.006225  -0.000001  -0.000001
    18  H    0.004499  -0.000006   0.000042  -0.000945  -0.000006   0.000000
    19  O    0.000000   0.000013   0.001130  -0.000001   0.002574   0.000342
    20  N    0.000019  -0.000794   0.000294   0.000020  -0.028758   0.005022
    21  H   -0.000005   0.000214   0.000271  -0.000050   0.002779   0.000211
    22  N    0.000000  -0.000001   0.000008   0.000000   0.003287   0.000552
    23  H    0.000000  -0.000008   0.000000   0.000000  -0.000335   0.000002
    24  C    0.000003   0.000002  -0.000044   0.000002   0.004920  -0.000176
    25  C    0.000010  -0.000010   0.000002   0.000003  -0.000619   0.000013
    26  H   -0.000001   0.000007   0.000002   0.000000   0.000112  -0.000003
    27  H    0.000000   0.000000  -0.000003   0.000000  -0.000060  -0.000001
    28  H    0.000002  -0.000007  -0.000019   0.000011  -0.000269   0.000000
    29  C    0.000000   0.000000  -0.000004   0.000000  -0.000861   0.000008
    30  H    0.000000   0.000000   0.000003   0.000000  -0.000046   0.000012
    31  H    0.000000   0.000000   0.000000   0.000000  -0.000009  -0.000001
    32  H    0.000000   0.000000  -0.000001   0.000000   0.000082  -0.000030
    33  O    0.000000   0.000065   0.000002   0.000000   0.001511  -0.000020
              13         14         15         16         17         18
     1  C   -0.000475   0.000374  -0.000194  -0.000038  -0.089988  -0.005192
     2  C    0.005162  -0.003830  -0.004220   0.001118   0.013588   0.004691
     3  C   -0.044487   0.015931   0.004558   0.001886  -0.000562  -0.000386
     4  C   -0.005234  -0.012927   0.001596   0.000086   0.002663  -0.000696
     5  C   -0.000259   0.000285  -0.000042  -0.000067  -0.049537   0.002291
     6  C    0.000132  -0.000090   0.000007   0.000011   0.392404  -0.043074
     7  H    0.000011   0.000015  -0.000004  -0.000001  -0.004102   0.004499
     8  H    0.000279  -0.000142   0.001081   0.000145  -0.000107  -0.000006
     9  H    0.002134  -0.002863   0.000159   0.000442  -0.000131   0.000042
    10  H   -0.000065   0.000030  -0.000002  -0.000003   0.006225  -0.000945
    11  C    0.425436   0.135118  -0.002586  -0.056527  -0.000001  -0.000006
    12  H   -0.005078  -0.064713  -0.003059   0.002659  -0.000001   0.000000
    13  H    0.420415  -0.066296   0.003000   0.000626   0.000000   0.000000
    14  C   -0.066296   5.633719   0.379494   0.181030   0.000001   0.000000
    15  H    0.003000   0.379494   0.469215  -0.026786   0.000000   0.000000
    16  C    0.000626   0.181030  -0.026786   4.507618   0.000000   0.000000
    17  O    0.000000   0.000001   0.000000   0.000000   7.662451   0.359602
    18  H    0.000000   0.000000   0.000000   0.000000   0.359602   0.490316
    19  O    0.031126  -0.112479   0.002201   0.734732   0.000000   0.000000
    20  N    0.001882   0.163256  -0.051163   0.001639   0.000000   0.000000
    21  H    0.000843  -0.028278   0.006036  -0.001526   0.000003   0.000000
    22  N    0.002350  -0.081560   0.002482   0.453113   0.000000   0.000000
    23  H   -0.000305   0.005928  -0.000803  -0.027226   0.000000   0.000000
    24  C   -0.000175  -0.050531  -0.015346  -0.000100   0.000000   0.000000
    25  C    0.000023   0.010559   0.000985  -0.001354   0.000000   0.000000
    26  H    0.000002  -0.000447   0.000198   0.000047   0.000000   0.000000
    27  H   -0.000002  -0.000355  -0.000298   0.000112   0.000000   0.000000
    28  H    0.000006   0.000367  -0.000387   0.000222  -0.000007   0.000000
    29  C   -0.000189   0.013420  -0.000663  -0.060751   0.000000   0.000000
    30  H   -0.000080   0.000586   0.000168  -0.007677   0.000000   0.000000
    31  H   -0.000005   0.000870  -0.000178   0.006585   0.000000   0.000000
    32  H    0.000040  -0.000376  -0.000326  -0.003540   0.000000   0.000000
    33  O   -0.000032   0.020575   0.020900  -0.019742   0.000000   0.000000
              19         20         21         22         23         24
     1  C   -0.000002   0.000353  -0.001220   0.000000   0.000000   0.000267
     2  C   -0.000189   0.010572  -0.000295  -0.000043   0.000004  -0.002255
     3  C    0.002189  -0.032810   0.003014   0.000299  -0.000184  -0.000282
     4  C   -0.000056  -0.004880   0.006193  -0.000017   0.000014  -0.000043
     5  C   -0.000010   0.000461   0.000827  -0.000001   0.000001   0.000007
     6  C    0.000001  -0.000269  -0.000050   0.000000   0.000000  -0.000040
     7  H    0.000000   0.000019  -0.000005   0.000000   0.000000   0.000003
     8  H    0.000013  -0.000794   0.000214  -0.000001  -0.000008   0.000002
     9  H    0.001130   0.000294   0.000271   0.000008   0.000000  -0.000044
    10  H   -0.000001   0.000020  -0.000050   0.000000   0.000000   0.000002
    11  C    0.002574  -0.028758   0.002779   0.003287  -0.000335   0.004920
    12  H    0.000342   0.005022   0.000211   0.000552   0.000002  -0.000176
    13  H    0.031126   0.001882   0.000843   0.002350  -0.000305  -0.000175
    14  C   -0.112479   0.163256  -0.028278  -0.081560   0.005928  -0.050531
    15  H    0.002201  -0.051163   0.006036   0.002482  -0.000803  -0.015346
    16  C    0.734732   0.001639  -0.001526   0.453113  -0.027226  -0.000100
    17  O    0.000000   0.000000   0.000003   0.000000   0.000000   0.000000
    18  H    0.000000   0.000000   0.000000   0.000000   0.000000   0.000000
    19  O    7.833433   0.001159   0.001037  -0.125023   0.003761  -0.000651
    20  N    0.001159   6.588976   0.371719  -0.008263  -0.005884   0.353270
    21  H    0.001037   0.371719   0.479257   0.000002  -0.000365  -0.018326
    22  N   -0.125023  -0.008263   0.000002   6.395908   0.380564   0.009749
    23  H    0.003761  -0.005884  -0.000365   0.380564   0.462234  -0.004403
    24  C   -0.000651   0.353270  -0.018326   0.009749  -0.004403   4.569381
    25  C   -0.000003  -0.053170  -0.003149   0.000001   0.001461   0.285543
    26  H    0.000000  -0.001164   0.000625  -0.000003  -0.000048  -0.024508
    27  H   -0.000002   0.000023  -0.000510   0.000154  -0.000008  -0.030303
    28  H   -0.000007   0.011031  -0.001011   0.000048  -0.000175  -0.058141
    29  C    0.008400  -0.000618  -0.000022   0.292600  -0.028318   0.000077
    30  H    0.004919   0.000374   0.000017  -0.048487   0.003776  -0.000537
    31  H    0.001449  -0.000055  -0.000006  -0.026447  -0.007621   0.000032
    32  H    0.004530  -0.000100  -0.000006  -0.045824   0.001342   0.000176
    33  O    0.000034  -0.137630   0.003907  -0.013782   0.035996   0.671119
              25         26         27         28         29         30
     1  C    0.000267   0.000063   0.000003   0.000108   0.000000   0.000000
     2  C    0.000582   0.000021   0.000038  -0.000081   0.000004  -0.000001
     3  C    0.000316   0.000073  -0.000017  -0.000092  -0.000011  -0.000018
     4  C   -0.000320  -0.000008  -0.000024  -0.000152  -0.000002   0.000002
     5  C   -0.000056  -0.000023   0.000002   0.000426   0.000000   0.000000
     6  C   -0.000060   0.000002   0.000001   0.000073   0.000000   0.000000
     7  H    0.000010  -0.000001   0.000000   0.000002   0.000000   0.000000
     8  H   -0.000010   0.000007   0.000000  -0.000007   0.000000   0.000000
     9  H    0.000002   0.000002  -0.000003  -0.000019  -0.000004   0.000003
    10  H    0.000003   0.000000   0.000000   0.000011   0.000000   0.000000
    11  C   -0.000619   0.000112  -0.000060  -0.000269  -0.000861  -0.000046
    12  H    0.000013  -0.000003  -0.000001   0.000000   0.000008   0.000012
    13  H    0.000023   0.000002  -0.000002   0.000006  -0.000189  -0.000080
    14  C    0.010559  -0.000447  -0.000355   0.000367   0.013420   0.000586
    15  H    0.000985   0.000198  -0.000298  -0.000387  -0.000663   0.000168
    16  C   -0.001354   0.000047   0.000112   0.000222  -0.060751  -0.007677
    17  O    0.000000   0.000000   0.000000  -0.000007   0.000000   0.000000
    18  H    0.000000   0.000000   0.000000   0.000000   0.000000   0.000000
    19  O   -0.000003   0.000000  -0.000002  -0.000007   0.008400   0.004919
    20  N   -0.053170  -0.001164   0.000023   0.011031  -0.000618   0.000374
    21  H   -0.003149   0.000625  -0.000510  -0.001011  -0.000022   0.000017
    22  N    0.000001  -0.000003   0.000154   0.000048   0.292600  -0.048487
    23  H    0.001461  -0.000048  -0.000008  -0.000175  -0.028318   0.003776
    24  C    0.285543  -0.024508  -0.030303  -0.058141   0.000077  -0.000537
    25  C    4.949486   0.386514   0.389909   0.403954  -0.000048  -0.000005
    26  H    0.386514   0.571246  -0.026262  -0.026181  -0.000001   0.000000
    27  H    0.389909  -0.026262   0.571518  -0.023524   0.000012  -0.000013
    28  H    0.403954  -0.026181  -0.023524   0.586688   0.000002  -0.000002
    29  C   -0.000048  -0.000001   0.000012   0.000002   4.760473   0.399149
    30  H   -0.000005   0.000000  -0.000013  -0.000002   0.399149   0.626838
    31  H   -0.000010   0.000000   0.000007   0.000000   0.396226  -0.027700
    32  H    0.000001   0.000000   0.000001   0.000000   0.399418  -0.058357
    33  O   -0.059483   0.001779   0.001901   0.003846   0.000113  -0.000005
              31         32         33
     1  C    0.000000   0.000000   0.000001
     2  C    0.000000   0.000000  -0.000377
     3  C   -0.000002   0.000010   0.000169
     4  C    0.000000  -0.000001   0.000030
     5  C    0.000000   0.000000   0.000000
     6  C    0.000000   0.000000   0.000000
     7  H    0.000000   0.000000   0.000000
     8  H    0.000000   0.000000   0.000065
     9  H    0.000000  -0.000001   0.000002
    10  H    0.000000   0.000000   0.000000
    11  C   -0.000009   0.000082   0.001511
    12  H   -0.000001  -0.000030  -0.000020
    13  H   -0.000005   0.000040  -0.000032
    14  C    0.000870  -0.000376   0.020575
    15  H   -0.000178  -0.000326   0.020900
    16  C    0.006585  -0.003540  -0.019742
    17  O    0.000000   0.000000   0.000000
    18  H    0.000000   0.000000   0.000000
    19  O    0.001449   0.004530   0.000034
    20  N   -0.000055  -0.000100  -0.137630
    21  H   -0.000006  -0.000006   0.003907
    22  N   -0.026447  -0.045824  -0.013782
    23  H   -0.007621   0.001342   0.035996
    24  C    0.000032   0.000176   0.671119
    25  C   -0.000010   0.000001  -0.059483
    26  H    0.000000   0.000000   0.001779
    27  H    0.000007   0.000001   0.001901
    28  H    0.000000   0.000000   0.003846
    29  C    0.396226   0.399418   0.000113
    30  H   -0.027700  -0.058357  -0.000005
    31  H    0.592957  -0.027360   0.000147
    32  H   -0.027360   0.618257  -0.000049
    33  O    0.000147  -0.000049   7.899520
 Mulliken charges:
               1
     1  C   -0.235164
     2  C   -0.239205
     3  C    0.148478
     4  C   -0.272089
     5  C   -0.161463
     6  C    0.287616
     7  H    0.118905
     8  H    0.162751
     9  H    0.180741
    10  H    0.130313
    11  C   -0.445194
    12  H    0.180161
    13  H    0.229215
    14  C   -0.136667
    15  H    0.213976
    16  C    0.313265
    17  O   -0.292501
    18  H    0.188864
    19  O   -0.394609
    20  N   -0.184512
    21  H    0.177866
    22  N   -0.191667
    23  H    0.180601
    24  C    0.311315
    25  C   -0.311341
    26  H    0.117959
    27  H    0.117699
    28  H    0.103272
    29  C   -0.178411
    30  H    0.107082
    31  H    0.091121
    32  H    0.112113
    33  O   -0.430492
 Sum of Mulliken charges =   0.00000
 Mulliken charges with hydrogens summed into heavy atoms:
               1
     1  C   -0.116259
     2  C   -0.076453
     3  C    0.148478
     4  C   -0.091348
     5  C   -0.031149
     6  C    0.287616
    11  C   -0.035818
    14  C    0.077309
    16  C    0.313265
    17  O   -0.103636
    19  O   -0.394609
    20  N   -0.006647
    22  N   -0.011067
    24  C    0.311315
    25  C    0.027589
    29  C    0.131905
    33  O   -0.430492
 Electronic spatial extent (au):  <R**2>=           5034.9479
 Charge=              0.0000 electrons
 Dipole moment (field-independent basis, Debye):
    X=             -2.2135    Y=              2.5532    Z=              0.2946  Tot=              3.3920
 Quadrupole moment (field-independent basis, Debye-Ang):
   XX=            -92.9451   YY=           -107.8247   ZZ=            -97.0189
   XY=             -3.3852   XZ=             -6.4488   YZ=             -4.8698
 Traceless Quadrupole moment (field-independent basis, Debye-Ang):
   XX=              6.3178   YY=             -8.5618   ZZ=              2.2440
   XY=             -3.3852   XZ=             -6.4488   YZ=             -4.8698
 Octapole moment (field-independent basis, Debye-Ang**2):
  XXX=             23.4600  YYY=             28.4534  ZZZ=             -2.0169  XYY=            -31.3700
  XXY=             38.3591  XXZ=             31.1833  XZZ=             -4.0794  YZZ=             -0.1530
  YYZ=             -9.5840  XYZ=            -27.6950
 Hexadecapole moment (field-independent basis, Debye-Ang**3):
 XXXX=          -4239.9284 YYYY=          -1315.9608 ZZZZ=           -451.1243 XXXY=           -186.1484
 XXXZ=           -207.2074 YYYX=            -13.0721 YYYZ=            -37.4571 ZZZX=              9.9156
 ZZZY=             11.7699 XXYY=          -1065.0261 XXZZ=           -870.2785 YYZZ=           -293.5328
 XXYZ=             23.9764 YYXZ=             -4.3168 ZZXY=             -4.2351
 N-N= 1.211975062087D+03 E-N=-4.294177044476D+03  KE= 7.961978169428D+02
 Calculating spin-rotation constants.
 Leave Link  601 at Wed Jun 25 08:06:19 2014, MaxMem=  4294967296 cpu:        91.7
 (Enter /home/ztw1e12/g09/l9999.exe)

 Test job not archived.
 1\1\GINC-GREEN0348\SP\RM06\Gen\C12H16N2O3\ROOT\25-Jun-2014\0\\#P Geom=
 AllCheck Guess=TCheck SCRF=Check GenChk RM06/ChkBas NMR=ReadFC IOp(3/6
 =22)\\NMR spin-spin scan\\0,1\C,0,3.308463,-0.017166,-0.921096\C,0,2.0
 52031,-0.562065,-1.109997\C,0,1.315911,-1.070915,-0.045446\C,0,1.87946
 2,-1.015795,1.223156\C,0,3.136288,-0.474335,1.430877\C,0,3.852507,0.02
 6374,0.355319\H,0,3.876645,0.374554,-1.756952\H,0,1.628164,-0.592484,-
 2.108421\H,0,1.321573,-1.406019,2.067262\H,0,3.573361,-0.437973,2.4207
 09\C,0,-0.058973,-1.625771,-0.256882\H,0,-0.076564,-2.270218,-1.136738
 \H,0,-0.315701,-2.253294,0.598361\C,0,-1.171993,-0.581064,-0.425317\H,
 0,-1.386279,-0.456158,-1.48959\C,0,-2.480719,-1.016724,0.240363\O,0,5.
 08748,0.547436,0.600571\H,0,5.477807,0.847915,-0.22784\O,0,-2.541642,-
 1.900553,1.089889\N,0,-0.789402,0.738369,0.050925\H,0,-0.097873,0.7991
 85,0.783691\N,0,-3.554677,-0.339154,-0.174705\H,0,-3.409871,0.418647,-
 0.83024\C,0,-1.210445,1.878314,-0.522025\C,0,-0.614778,3.141006,0.0058
 83\H,0,-0.113159,3.65575,-0.813616\H,0,-1.416929,3.790616,0.355134\H,0
 ,0.094779,2.977806,0.814209\C,0,-4.855132,-0.544765,0.42012\H,0,-4.834
 155,-0.360966,1.495186\H,0,-5.5624,0.139875,-0.037871\H,0,-5.203253,-1
 .565171,0.257924\O,0,-2.039683,1.892278,-1.433977\\Version=EM64L-G09Re
 vD.01\State=1-A\HF=-801.866478\RMSD=3.697e-09\Dipole=0.8688471,0.94259
 23,-0.3708213\Quadrupole=5.0358744,-3.6535899,-1.3822845,0.9802634,-5.
 1903178,5.1868307\PG=C01 [X(C12H16N2O3)]\\@


 OLD AGE AND TREACHERY WILL ALWAYS PREVAIL OVER YOUTH AND SKILL.
 Job cpu time:       3 days  7 hours 54 minutes 16.6 seconds.
 File lengths (MBytes):  RWF=   3656 Int=      0 D2E=      0 Chk=     64 Scr=      8
 Normal termination of Gaussian 09 at Wed Jun 25 08:06:19 2014.
