 Entering Gaussian System, Link 0=g09
 Input=scan_input_20.gjf
 Output=scan_input_20.log
 Initial command:
 /home/ztw1e12/g09/l1.exe "/home/ztw1e12/tyrosine_scan/tyrosine_chi1_scan/Gau-7668.inp" -scrdir="/home/ztw1e12/tyrosine_scan/tyrosine_chi1_scan/"
 Default is to use a total of   8 processors:
                                8 via shared-memory
                                1 via Linda
 Entering Link 1 = /home/ztw1e12/g09/l1.exe PID=      7669.
  
 Copyright (c) 1988,1990,1992,1993,1995,1998,2003,2009,2013,
            Gaussian, Inc.  All Rights Reserved.
  
 This is part of the Gaussian(R) 09 program.  It is based on
 the Gaussian(R) 03 system (copyright 2003, Gaussian, Inc.),
 the Gaussian(R) 98 system (copyright 1998, Gaussian, Inc.),
 the Gaussian(R) 94 system (copyright 1995, Gaussian, Inc.),
 the Gaussian 92(TM) system (copyright 1992, Gaussian, Inc.),
 the Gaussian 90(TM) system (copyright 1990, Gaussian, Inc.),
 the Gaussian 88(TM) system (copyright 1988, Gaussian, Inc.),
 the Gaussian 86(TM) system (copyright 1986, Carnegie Mellon
 University), and the Gaussian 82(TM) system (copyright 1983,
 Carnegie Mellon University). Gaussian is a federally registered
 trademark of Gaussian, Inc.
  
 This software contains proprietary and confidential information,
 including trade secrets, belonging to Gaussian, Inc.
  
 This software is provided under written license and may be
 used, copied, transmitted, or stored only in accord with that
 written license.
  
 The following legend is applicable only to US Government
 contracts under FAR:
  
                    RESTRICTED RIGHTS LEGEND
  
 Use, reproduction and disclosure by the US Government is
 subject to restrictions as set forth in subparagraphs (a)
 and (c) of the Commercial Computer Software - Restricted
 Rights clause in FAR 52.227-19.
  
 Gaussian, Inc.
 340 Quinnipiac St., Bldg. 40, Wallingford CT 06492
  
  
 ---------------------------------------------------------------
 Warning -- This program may not be used in any manner that
 competes with the business of Gaussian, Inc. or will provide
 assistance to any competitor of Gaussian, Inc.  The licensee
 of this program is prohibited from giving any competitor of
 Gaussian, Inc. access to this program.  By using this program,
 the user acknowledges that Gaussian, Inc. is engaged in the
 business of creating and licensing software in the field of
 computational chemistry and represents and warrants to the
 licensee that it is not a competitor of Gaussian, Inc. and that
 it will not use this program in any manner prohibited above.
 ---------------------------------------------------------------
  

 Cite this work as:
 Gaussian 09, Revision D.01,
 M. J. Frisch, G. W. Trucks, H. B. Schlegel, G. E. Scuseria, 
 M. A. Robb, J. R. Cheeseman, G. Scalmani, V. Barone, B. Mennucci, 
 G. A. Petersson, H. Nakatsuji, M. Caricato, X. Li, H. P. Hratchian, 
 A. F. Izmaylov, J. Bloino, G. Zheng, J. L. Sonnenberg, M. Hada, 
 M. Ehara, K. Toyota, R. Fukuda, J. Hasegawa, M. Ishida, T. Nakajima, 
 Y. Honda, O. Kitao, H. Nakai, T. Vreven, J. A. Montgomery, Jr., 
 J. E. Peralta, F. Ogliaro, M. Bearpark, J. J. Heyd, E. Brothers, 
 K. N. Kudin, V. N. Staroverov, T. Keith, R. Kobayashi, J. Normand, 
 K. Raghavachari, A. Rendell, J. C. Burant, S. S. Iyengar, J. Tomasi, 
 M. Cossi, N. Rega, J. M. Millam, M. Klene, J. E. Knox, J. B. Cross, 
 V. Bakken, C. Adamo, J. Jaramillo, R. Gomperts, R. E. Stratmann, 
 O. Yazyev, A. J. Austin, R. Cammi, C. Pomelli, J. W. Ochterski, 
 R. L. Martin, K. Morokuma, V. G. Zakrzewski, G. A. Voth, 
 P. Salvador, J. J. Dannenberg, S. Dapprich, A. D. Daniels, 
 O. Farkas, J. B. Foresman, J. V. Ortiz, J. Cioslowski, 
 and D. J. Fox, Gaussian, Inc., Wallingford CT, 2013.
 
 ******************************************
 Gaussian 09:  EM64L-G09RevD.01 24-Apr-2013
                24-Jun-2014 
 ******************************************
 %Mem=32GB
 %NProcShared=16
 Will use up to   16 processors via shared memory.
 Default route:  MaxDisk=100GB
 ----------------------------------------------------------------------
 #p nmr=(giao,mixed,spinspin) m06/cc-pvtz scf=tight integral=(grid=ultr
 afine)
 ----------------------------------------------------------------------
 1/38=1/1;
 2/12=2,17=6,18=5,40=1/2;
 3/5=16,6=1,10=1100000,11=2,16=1,25=1,30=1,74=-54,75=-5/1,2,8,3;
 4//1;
 5/5=2,32=2,38=5/2;
 8/6=1,10=90,11=11/1;
 10/13=100,45=16,47=3/2;
 6/7=2,8=2,9=2,10=2,28=1/1;
 99/9=1/99;
 Leave Link    1 at Tue Jun 24 16:38:19 2014, MaxMem=  4294967296 cpu:         5.8
 (Enter /home/ztw1e12/g09/l101.exe)
 ------------------
 NMR spin-spin scan
 ------------------
 Symbolic Z-matrix:
 Charge =  0 Multiplicity = 1
 C                     2.46505  -0.76105   1.94743 
 C                     1.88952  -0.10713   0.87066 
 C                     1.35061  -0.81368  -0.1952 
 C                     1.41298  -2.2032   -0.16027 
 C                     1.9849   -2.87175   0.90406 
 C                     2.5099   -2.14671   1.96488 
 H                     2.88782  -0.20261   2.77467 
 H                     1.85818   0.97683   0.86169 
 H                     0.99557  -2.77071  -0.98521 
 H                     2.03309  -3.95296   0.92782 
 C                     0.65988  -0.11474  -1.32472 
 H                     1.04101   0.91014  -1.37709 
 H                     0.88392  -0.59298  -2.27918 
 C                    -0.87197  -0.02845  -1.17726 
 H                    -1.33862  -0.926    -1.59075 
 C                    -1.26679  -0.0152    0.29362 
 O                     3.06404  -2.84406   2.99548 
 H                     3.38989  -2.22738   3.66065 
 O                    -1.55905  -1.06066   0.87002 
 N                    -1.34563   1.14473  -1.87932 
 H                    -0.67238   1.76029  -2.30971 
 N                    -1.22175   1.16539   0.91494 
 H                    -0.92774   1.974     0.39034 
 C                    -2.66014   1.37424  -2.06456 
 C                    -3.02165   2.58525  -2.85827 
 H                    -3.64304   2.27936  -3.69946 
 H                    -3.6224    3.24624  -2.23355 
 H                    -2.15779   3.13216  -3.22935 
 C                    -1.39813   1.27488   2.34418 
 H                    -0.63134   0.71109   2.88069 
 H                    -1.32837   2.3202    2.62989 
 H                    -2.37407   0.8956    2.64679 
 O                    -3.51468   0.6264   -1.59504 
 
 NAtoms=     33 NQM=       33 NQMF=       0 NMMI=      0 NMMIF=      0
                NMic=       0 NMicF=      0.
                    Isotopes and Nuclear Properties:
 (Nuclear quadrupole moments (NQMom) in fm**2, nuclear magnetic moments (NMagM)
  in nuclear magnetons)

  Atom         1           2           3           4           5           6           7           8           9          10
 IAtWgt=          12          12          12          12          12          12           1           1           1           1
 AtmWgt=  12.0000000  12.0000000  12.0000000  12.0000000  12.0000000  12.0000000   1.0078250   1.0078250   1.0078250   1.0078250
 NucSpn=           0           0           0           0           0           0           1           1           1           1
 AtZEff=   0.0000000   0.0000000   0.0000000   0.0000000   0.0000000   0.0000000   0.0000000   0.0000000   0.0000000   0.0000000
 NQMom=    0.0000000   0.0000000   0.0000000   0.0000000   0.0000000   0.0000000   0.0000000   0.0000000   0.0000000   0.0000000
 NMagM=    0.0000000   0.0000000   0.0000000   0.0000000   0.0000000   0.0000000   2.7928460   2.7928460   2.7928460   2.7928460
 AtZNuc=   6.0000000   6.0000000   6.0000000   6.0000000   6.0000000   6.0000000   1.0000000   1.0000000   1.0000000   1.0000000

  Atom        11          12          13          14          15          16          17          18          19          20
 IAtWgt=          12           1           1          12           1          12          16           1          16          14
 AtmWgt=  12.0000000   1.0078250   1.0078250  12.0000000   1.0078250  12.0000000  15.9949146   1.0078250  15.9949146  14.0030740
 NucSpn=           0           1           1           0           1           0           0           1           0           2
 AtZEff=   0.0000000   0.0000000   0.0000000   0.0000000   0.0000000   0.0000000   0.0000000   0.0000000   0.0000000   0.0000000
 NQMom=    0.0000000   0.0000000   0.0000000   0.0000000   0.0000000   0.0000000   0.0000000   0.0000000   0.0000000   2.0440000
 NMagM=    0.0000000   2.7928460   2.7928460   0.0000000   2.7928460   0.0000000   0.0000000   2.7928460   0.0000000   0.4037610
 AtZNuc=   6.0000000   1.0000000   1.0000000   6.0000000   1.0000000   6.0000000   8.0000000   1.0000000   8.0000000   7.0000000

  Atom        21          22          23          24          25          26          27          28          29          30
 IAtWgt=           1          14           1          12          12           1           1           1          12           1
 AtmWgt=   1.0078250  14.0030740   1.0078250  12.0000000  12.0000000   1.0078250   1.0078250   1.0078250  12.0000000   1.0078250
 NucSpn=           1           2           1           0           0           1           1           1           0           1
 AtZEff=   0.0000000   0.0000000   0.0000000   0.0000000   0.0000000   0.0000000   0.0000000   0.0000000   0.0000000   0.0000000
 NQMom=    0.0000000   2.0440000   0.0000000   0.0000000   0.0000000   0.0000000   0.0000000   0.0000000   0.0000000   0.0000000
 NMagM=    2.7928460   0.4037610   2.7928460   0.0000000   0.0000000   2.7928460   2.7928460   2.7928460   0.0000000   2.7928460
 AtZNuc=   1.0000000   7.0000000   1.0000000   6.0000000   6.0000000   1.0000000   1.0000000   1.0000000   6.0000000   1.0000000

  Atom        31          32          33
 IAtWgt=           1           1          16
 AtmWgt=   1.0078250   1.0078250  15.9949146
 NucSpn=           1           1           0
 AtZEff=   0.0000000   0.0000000   0.0000000
 NQMom=    0.0000000   0.0000000   0.0000000
 NMagM=    2.7928460   2.7928460   0.0000000
 AtZNuc=   1.0000000   1.0000000   8.0000000
 Leave Link  101 at Tue Jun 24 16:38:19 2014, MaxMem=  4294967296 cpu:         2.0
 (Enter /home/ztw1e12/g09/l202.exe)
                          Input orientation:                          
 ---------------------------------------------------------------------
 Center     Atomic      Atomic             Coordinates (Angstroms)
 Number     Number       Type             X           Y           Z
 ---------------------------------------------------------------------
      1          6           0        2.465046   -0.761054    1.947434
      2          6           0        1.889519   -0.107131    0.870657
      3          6           0        1.350614   -0.813679   -0.195196
      4          6           0        1.412982   -2.203196   -0.160271
      5          6           0        1.984901   -2.871745    0.904058
      6          6           0        2.509904   -2.146707    1.964883
      7          1           0        2.887823   -0.202606    2.774671
      8          1           0        1.858180    0.976831    0.861690
      9          1           0        0.995574   -2.770710   -0.985208
     10          1           0        2.033094   -3.952961    0.927820
     11          6           0        0.659876   -0.114742   -1.324722
     12          1           0        1.041012    0.910144   -1.377093
     13          1           0        0.883923   -0.592982   -2.279181
     14          6           0       -0.871974   -0.028453   -1.177258
     15          1           0       -1.338616   -0.926004   -1.590748
     16          6           0       -1.266789   -0.015202    0.293624
     17          8           0        3.064038   -2.844062    2.995476
     18          1           0        3.389886   -2.227382    3.660651
     19          8           0       -1.559053   -1.060658    0.870019
     20          7           0       -1.345629    1.144732   -1.879321
     21          1           0       -0.672375    1.760293   -2.309708
     22          7           0       -1.221748    1.165391    0.914943
     23          1           0       -0.927736    1.973999    0.390336
     24          6           0       -2.660137    1.374242   -2.064558
     25          6           0       -3.021653    2.585246   -2.858270
     26          1           0       -3.643044    2.279360   -3.699464
     27          1           0       -3.622401    3.246239   -2.233547
     28          1           0       -2.157792    3.132159   -3.229352
     29          6           0       -1.398129    1.274883    2.344181
     30          1           0       -0.631341    0.711090    2.880694
     31          1           0       -1.328368    2.320195    2.629889
     32          1           0       -2.374066    0.895599    2.646785
     33          8           0       -3.514680    0.626403   -1.595044
 ---------------------------------------------------------------------
                    Distance matrix (angstroms):
                    1          2          3          4          5
     1  C    0.000000
     2  C    1.385025   0.000000
     3  C    2.415697   1.387686   0.000000
     4  C    2.762070   2.383986   1.391354   0.000000
     5  C    2.402954   2.766461   2.417915   1.380886   0.000000
     6  C    1.386489   2.396263   2.790494   2.392218   1.388041
     7  H    1.083940   2.151975   3.399490   3.845959   3.382124
     8  H    2.137141   1.084452   2.140224   3.369744   3.850895
     9  H    3.846876   3.367198   2.140127   1.084815   2.135018
    10  H    3.378530   3.848934   3.403239   2.151780   1.082550
    11  C    3.792540   2.516301   1.497151   2.506941   3.784735
    12  H    3.984125   2.609060   2.112889   3.363317   4.516333
    13  H    4.515803   3.341969   2.146975   2.713388   4.066685
    14  C    4.629914   3.438894   2.553610   3.314332   4.536289
    15  H    5.197479   4.141247   3.031854   3.353919   4.588652
    16  C    4.149455   3.209937   2.779804   3.489199   4.371036
    17  O    2.407510   3.658571   4.151947   3.618761   2.353579
    18  H    2.437326   3.811907   4.585275   4.302113   3.160378
    19  O    4.176597   3.577969   3.108351   3.346623   3.980051
    20  N    5.726894   4.426706   3.733815   4.666229   5.913689
    21  H    5.858657   4.490578   3.897304   4.967699   6.232590
    22  N    4.285986   3.361734   3.430186   4.409679   5.155694
    23  H    4.627747   3.535355   3.647585   4.819864   5.677024
    24  C    6.850042   5.613317   4.936359   5.745839   6.958266
    25  C    8.024736   6.728551   6.145028   7.062178   8.306590
    26  H    8.856655   7.562447   6.839840   7.627752   8.910671
    27  H    8.402143   7.159779   6.735628   7.703888   8.872211
    28  H    7.957817   6.609372   6.089717   7.115876   8.384143
    29  C    4.384811   3.858739   4.285571   5.125589   5.541964
    30  H    3.553279   3.326330   3.964110   4.681857   4.856801
    31  H    4.934555   4.397909   4.997921   5.980055   6.396287
    32  H    5.162422   4.726336   4.987156   5.641261   6.019184
    33  O    7.087405   5.985242   5.263506   5.860636   6.980540
                    6          7          8          9         10
     6  C    0.000000
     7  H    2.139651   0.000000
     8  H    3.376132   2.471990   0.000000
     9  H    3.374257   4.930766   4.266050   0.000000
    10  H    2.136680   4.266917   4.933337   2.476659   0.000000
    11  C    4.286372   4.666529   2.721739   2.698542   4.657424
    12  H    4.761385   4.678255   2.384190   3.701935   5.472352
    13  H    4.803119   5.450636   3.643976   2.535613   4.784862
    14  C    5.079089   5.457485   3.552696   3.323341   5.317193
    15  H    5.379938   6.119066   4.455866   3.036126   5.184022
    16  C    4.647562   4.842676   3.327501   3.787680   5.176618
    17  O    1.362164   2.656520   4.539423   4.486621   2.562753
    18  H    1.912199   2.266439   4.521868   5.254707   3.505264
    19  O    4.351395   4.913111   3.978557   3.590580   4.612188
    20  N    6.362123   6.434056   4.219683   4.648802   6.729211
    21  H    6.607850   6.509907   4.132225   5.006630   7.102283
    22  N    5.098784   4.713659   3.086154   4.901018   6.065615
    23  H    5.592565   4.998115   2.996305   5.301274   6.647124
    24  C    7.440618   7.528907   5.397782   5.631150   7.704533
    25  C    8.732257   8.626937   6.343333   6.952175   9.090275
    26  H    9.462223   9.525062   7.263895   7.374766   9.616243
    27  H    9.182366   8.908412   6.690850   7.686854   9.685419
    28  H    8.754078   8.522158   6.124549   7.058595   9.221959
    29  C    5.208058   4.553864   3.590287   5.760336   6.411686
    30  H    4.344322   3.637389   3.216319   5.451145   5.715444
    31  H    5.926869   4.915461   3.883973   6.662353   7.317715
    32  H    5.794288   5.376791   4.594025   6.163414   6.773953
    33  O    7.527206   7.795749   5.918274   5.679319   7.623202
                   11         12         13         14         15
    11  C    0.000000
    12  H    1.094714   0.000000
    13  H    1.090827   1.760065   0.000000
    14  C    1.541349   2.140190   2.148511   0.000000
    15  H    2.173220   3.013257   2.350430   1.092852   0.000000
    16  C    2.518132   2.995581   3.402751   1.523006   2.094177
    17  O    5.647415   6.107868   6.135330   6.389957   6.640464
    18  H    6.063839   6.382801   6.650768   6.812056   7.185368
    19  O    3.261179   3.961554   4.013018   2.393505   2.474287
    20  N    2.432263   2.450167   2.854898   1.446929   2.090759
    21  H    2.502168   2.127961   2.821506   2.126475   2.859541
    22  N    3.193016   3.230892   4.210481   2.434114   3.265896
    23  H    3.134450   2.851589   4.122841   2.543673   3.536034
    24  C    3.713074   3.792954   4.059113   2.439750   2.694818
    25  C    4.816156   4.637359   5.068530   3.778670   4.094887
    26  H    5.466831   5.404493   5.546258   4.400722   4.475649
    27  H    5.519063   5.285667   5.920191   4.405020   4.799633
    28  H    4.702046   4.312837   4.902197   3.981694   4.452500
    29  C    4.430270   4.464339   5.483809   3.791577   4.509003
    30  H    4.476021   4.578770   5.533619   4.131804   4.813949
    31  H    5.051829   4.863960   6.122075   4.496533   5.324630
    32  H    5.098869   5.277742   6.090608   4.211111   4.727270
    33  O    4.248445   4.569720   4.615480   2.754501   2.673058
                   16         17         18         19         20
    16  C    0.000000
    17  O    5.835967   0.000000
    18  H    6.157535   0.963810   0.000000
    19  O    1.229076   5.391759   5.800075   0.000000
    20  N    2.464417   7.688907   8.030414   3.531029   0.000000
    21  H    3.206719   7.956497   8.249164   4.342191   1.008672
    22  N    1.334865   6.226740   6.349566   2.251907   2.797085
    23  H    2.020206   6.777516   6.854810   3.136527   2.452277
    24  C    3.071318   8.727211   9.074827   3.968988   1.347189
    25  C    4.447057  10.038892  10.332742   5.415898   2.417122
    26  H    5.182312  10.772958  11.133019   6.031493   3.142995
    27  H    4.751052  10.447149  10.671189   5.695515   3.118573
    28  H    4.807403  10.086189  10.342802   5.894323   2.536150
    29  C    2.426181   6.107440   6.076516   2.766551   4.225833
    30  H    2.761200   5.129143   5.041152   2.835940   4.832804
    31  H    3.303938   6.789436   6.633615   3.818445   4.659934
    32  H    2.755538   6.609056   6.633557   2.765517   4.648159
    33  O    3.005285   8.740511   9.134520   3.570320   2.248168
                   21         22         23         24         25
    21  H    0.000000
    22  N    3.324770   0.000000
    23  H    2.720499   1.007721   0.000000
    24  C    2.039689   3.315118   3.063891   0.000000
    25  C    2.549622   4.415063   3.912998   1.492382   0.000000
    26  H    3.320501   5.328823   4.918598   2.111460   1.089633
    27  H    3.304011   4.472813   3.970463   2.111607   1.089995
    28  H    2.221312   4.681830   3.994560   2.167803   1.087691
    29  C    4.735084   1.444237   2.127802   4.586885   5.605210
    30  H    5.295544   2.102177   2.807966   5.386214   6.493209
    31  H    5.014323   2.070261   2.301294   4.970540   5.749553
    32  H    5.311334   2.097594   2.889010   4.744227   5.794817
    33  O    3.142475   3.442104   3.528460   1.228800   2.382411
                   26         27         28         29         30
    26  H    0.000000
    27  H    1.756187   0.000000
    28  H    1.776019   1.774745   0.000000
    29  C    6.524896   5.457951   5.923752   0.000000
    30  H    7.404614   6.444291   6.747169   1.092553   0.000000
    31  H    6.739444   5.456478   5.973101   1.085897   1.771431
    32  H    6.618155   5.558911   6.291102   1.089898   1.768007
    33  O    2.679054   2.698672   3.284954   4.518607   5.324758
                   31         32         33
    31  H    0.000000
    32  H    1.767270   0.000000
    33  O    5.049649   4.400748   0.000000
 Stoichiometry    C12H16N2O3
 Framework group  C1[X(C12H16N2O3)]
 Deg. of freedom    93
 Full point group                 C1      NOp   1
 Largest Abelian subgroup         C1      NOp   1
 Largest concise Abelian subgroup C1      NOp   1
                         Standard orientation:                         
 ---------------------------------------------------------------------
 Center     Atomic      Atomic             Coordinates (Angstroms)
 Number     Number       Type             X           Y           Z
 ---------------------------------------------------------------------
      1          6           0        3.049247    0.436644   -1.029283
      2          6           0        1.770250   -0.034207   -1.275786
      3          6           0        1.203122   -1.022958   -0.484327
      4          6           0        1.959777   -1.540399    0.562380
      5          6           0        3.237219   -1.084455    0.821424
      6          6           0        3.782804   -0.088104    0.023753
      7          1           0        3.487530    1.206253   -1.654211
      8          1           0        1.201420    0.378971   -2.101468
      9          1           0        1.530960   -2.313365    1.191238
     10          1           0        3.824013   -1.489890    1.635801
     11          6           0       -0.205912   -1.481222   -0.698985
     12          1           0       -0.478699   -1.273259   -1.738570
     13          1           0       -0.296601   -2.557920   -0.549321
     14          6           0       -1.245764   -0.781161    0.197886
     15          1           0       -1.334087   -1.309416    1.150499
     16          6           0       -0.778568    0.622002    0.561771
     17          8           0        5.045009    0.334366    0.313317
     18          1           0        5.303689    1.021560   -0.311006
     19          8           0       -0.166073    0.823275    1.608177
     20          7           0       -2.522186   -0.771058   -0.483472
     21          1           0       -2.578549   -1.144524   -1.418761
     22          7           0       -1.020880    1.584066   -0.331304
     23          1           0       -1.487242    1.336953   -1.189759
     24          6           0       -3.651278   -0.378344    0.137694
     25          6           0       -4.914892   -0.471992   -0.650793
     26          1           0       -5.625631   -1.087890   -0.100502
     27          1           0       -5.347379    0.524735   -0.737847
     28          1           0       -4.773292   -0.888009   -1.645756
     29          6           0       -0.470227    2.910795   -0.181669
     30          1           0        0.621994    2.885829   -0.171535
     31          1           0       -0.798705    3.525797   -1.014164
     32          1           0       -0.809039    3.371185    0.746299
     33          8           0       -3.635635    0.042652    1.292020
 ---------------------------------------------------------------------
 Rotational constants (GHZ):      1.0588757      0.2491714      0.2314622
 Leave Link  202 at Tue Jun 24 16:38:19 2014, MaxMem=  4294967296 cpu:         1.7
 (Enter /home/ztw1e12/g09/l301.exe)
 Standard basis: CC-pVTZ (5D, 7F)
 Converting basis for Fermi contact spin-spin IFCMod=1.
 AO basis functions are being uncontracted.
 Ernie: Thresh=  0.10000D-02 Tol=  0.10000D-05 Strict=F.
 There are  1305 symmetry adapted cartesian basis functions of A   symmetry.
 There are  1204 symmetry adapted basis functions of A   symmetry.
  1204 basis functions,  1305 primitive gaussians,  1305 cartesian basis functions
    63 alpha electrons       63 beta electrons
       nuclear repulsion energy      1232.0308943413 Hartrees.
 IExCor= 4235 DFT=T Ex+Corr=M06 ExCW=0 ScaHFX=  0.270000
 ScaDFX=  1.000000  1.000000  1.000000  1.000000 ScalE2=  1.000000  1.000000
 IRadAn= 199590 IRanWt=     -1 IRanGd=            0 ICorTp=0 IEmpDi=  4
 NAtoms=   33 NActive=   33 NUniq=   33 SFac= 1.00D+00 NAtFMM=   60 NAOKFM=F Big=F
 Integral buffers will be    131072 words long.
 Raffenetti 2 integral format.
 Two-electron integral symmetry is turned on.
 Leave Link  301 at Tue Jun 24 16:38:19 2014, MaxMem=  4294967296 cpu:         4.7
 (Enter /home/ztw1e12/g09/l302.exe)
 NPDir=0 NMtPBC=     1 NCelOv=     1 NCel=       1 NClECP=     1 NCelD=      1
         NCelK=      1 NCelE2=     1 NClLst=     1 CellRange=     0.0.
 One-electron integrals computed using PRISM.
 GSVD:  received Info=                   1 from GESDD.
 NBasis=  1204 RedAO= T EigKep=  2.47D-05  NBF=  1204
 NBsUse=  1068 1.00D-06 EigRej=  6.31D-15 NBFU=  1068
 Precomputing XC quadrature grid using
 IXCGrd= 4 IRadAn=      199590 IRanWt=          -1 IRanGd=           0 AccXCQ= 0.00D+00.
 Generated NRdTot=       0 NPtTot=           0 NUsed=           0 NTot=          32
 NSgBfM=   980   982   984   986   986 MxSgAt=    33 MxSgA2=    33.
 Leave Link  302 at Tue Jun 24 16:38:26 2014, MaxMem=  4294967296 cpu:        95.4
 (Enter /home/ztw1e12/g09/l308.exe)
 Leave Link  308 at Tue Jun 24 16:38:26 2014, MaxMem=  4294967296 cpu:         7.6
 (Enter /home/ztw1e12/g09/l303.exe)
 DipDrv:  MaxL=1.
 Leave Link  303 at Tue Jun 24 16:38:27 2014, MaxMem=  4294967296 cpu:         4.3
 (Enter /home/ztw1e12/g09/l401.exe)
 ExpMin= 1.03D-01 ExpMax= 1.38D+05 ExpMxC= 1.38D+05 IAcc=4 IRadAn=    199590 AccDes= 0.00D+00
 Harris functional with IExCor= 1009 and IRadAn=  199590 diagonalized for initial guess.
 HarFok:  IExCor= 1009 AccDes= 0.00D+00 IRadAn=    199590 IDoV= 1 UseB2=F ITyADJ=14
 ICtDFT=  3500011 ScaDFX=  1.000000  1.000000  1.000000  1.000000
 FoFCou: FMM=F IPFlag=           0 FMFlag=      100000 FMFlg1=           0
         NFxFlg=           0 DoJE=T BraDBF=F KetDBF=T FulRan=T
         wScrn=  0.000000 ICntrl=     500 IOpCl=  0 I1Cent=   200000004 NGrid=           0
         NMat0=    1 NMatS0=      1 NMatT0=    0 NMatD0=    1 NMtDS0=    0 NMtDT0=    0
 Petite list used in FoFCou.
 Harris En= -801.778662068071    
 JPrj=0 DoOrth=F DoCkMO=F.
 Leave Link  401 at Tue Jun 24 16:38:48 2014, MaxMem=  4294967296 cpu:       307.1
 (Enter /home/ztw1e12/g09/l502.exe)
 Closed shell SCF:
 Using DIIS extrapolation, IDIIS=  1040.
 Integral symmetry usage will be decided dynamically.
 IVT=     5158273 IEndB=     5158273 NGot=  4294967296 MDV=  4291529994
 LenX=  4291529994 LenY=  4289825664
 Requested convergence on RMS density matrix=1.00D-08 within 128 cycles.
 Requested convergence on MAX density matrix=1.00D-06.
 Requested convergence on             energy=1.00D-06.
 No special actions if energy rises.
 Fock matrices will be formed incrementally for  20 cycles.
 Integral accuracy reduced to 1.0D-05 until final iterations.

 Cycle   1  Pass 0  IDiag  1:
 FoFJK:  IHMeth= 1 ICntrl=       0 DoSepK=F KAlg= 0 I1Cent=   0 FoldK=F
 IRaf= 440000000 NMat=   1 IRICut=       1 DoRegI=T DoRafI=F ISym2E= 0.
 FoFCou: FMM=F IPFlag=           0 FMFlag=      100000 FMFlg1=           0
         NFxFlg=           0 DoJE=F BraDBF=F KetDBF=F FulRan=T
         wScrn=  0.000000 ICntrl=       0 IOpCl=  0 I1Cent=           0 NGrid=           0
         NMat0=    1 NMatS0=      1 NMatT0=    0 NMatD0=    1 NMtDS0=    0 NMtDT0=    0
 Symmetry not used in FoFCou.
 E= -801.444522936622    
 DIIS: error= 1.31D-01 at cycle   1 NSaved=   1.
 NSaved= 1 IEnMin= 1 EnMin= -801.444522936622     IErMin= 1 ErrMin= 1.31D-01
 ErrMax= 1.31D-01  0.00D+00 EMaxC= 1.00D-01 BMatC= 1.69D+01 BMatP= 1.69D+01
 IDIUse=3 WtCom= 0.00D+00 WtEn= 1.00D+00
 Coeff-Com:  0.100D+01
 Coeff-En:   0.100D+01
 Coeff:      0.100D+01
 Gap=     0.243 Goal=   None    Shift=    0.000
 GapD=    0.243 DampG=1.000 DampE=0.250 DampFc=0.2500 IDamp=-1.
 Damping current iteration by 2.50D-01
 RMSDP=2.76D-03 MaxDP=4.04D-01              OVMax= 3.20D-01

 Cycle   2  Pass 0  IDiag  1:
 RMSU=  6.86D-04    CP:  1.03D+00
 E= -801.602731089309     Delta-E=       -0.158208152686 Rises=F Damp=T
 DIIS: error= 9.85D-02 at cycle   2 NSaved=   2.
 NSaved= 2 IEnMin= 2 EnMin= -801.602731089309     IErMin= 2 ErrMin= 9.85D-02
 ErrMax= 9.85D-02  0.00D+00 EMaxC= 1.00D-01 BMatC= 1.00D+01 BMatP= 1.69D+01
 IDIUse=3 WtCom= 1.49D-02 WtEn= 9.85D-01
 Coeff-Com: -0.287D+01 0.387D+01
 Coeff-En:   0.000D+00 0.100D+01
 Coeff:     -0.427D-01 0.104D+01
 Gap=     0.220 Goal=   None    Shift=    0.000
 RMSDP=7.64D-04 MaxDP=1.39D-01 DE=-1.58D-01 OVMax= 1.87D-01

 Cycle   3  Pass 0  IDiag  1:
 RMSU=  7.11D-04    CP:  1.07D+00  1.39D+00
 E= -801.835887533182     Delta-E=       -0.233156443874 Rises=F Damp=F
 DIIS: error= 1.46D-02 at cycle   3 NSaved=   3.
 NSaved= 3 IEnMin= 3 EnMin= -801.835887533182     IErMin= 3 ErrMin= 1.46D-02
 ErrMax= 1.46D-02  0.00D+00 EMaxC= 1.00D-01 BMatC= 2.34D-01 BMatP= 1.00D+01
 IDIUse=3 WtCom= 8.54D-01 WtEn= 1.46D-01
 Coeff-Com:  0.741D+00-0.104D+01 0.130D+01
 Coeff-En:   0.523D-01 0.000D+00 0.948D+00
 Coeff:      0.640D+00-0.885D+00 0.125D+01
 Gap=     0.242 Goal=   None    Shift=    0.000
 RMSDP=5.34D-04 MaxDP=8.26D-02 DE=-2.33D-01 OVMax= 8.21D-02

 Cycle   4  Pass 0  IDiag  1:
 RMSU=  3.81D-04    CP:  1.05D+00  9.62D-01  6.77D-01
 E= -801.791600576031     Delta-E=        0.044286957151 Rises=F Damp=F
 DIIS: error= 9.23D-03 at cycle   4 NSaved=   4.
 NSaved= 4 IEnMin= 3 EnMin= -801.835887533182     IErMin= 4 ErrMin= 9.23D-03
 ErrMax= 9.23D-03  0.00D+00 EMaxC= 1.00D-01 BMatC= 1.51D-01 BMatP= 2.34D-01
 IDIUse=3 WtCom= 9.08D-01 WtEn= 9.23D-02
 Coeff-Com:  0.584D+00-0.812D+00 0.699D+00 0.529D+00
 Coeff-En:   0.000D+00 0.000D+00 0.634D+00 0.366D+00
 Coeff:      0.530D+00-0.737D+00 0.693D+00 0.514D+00
 Gap=     0.261 Goal=   None    Shift=    0.000
 RMSDP=3.43D-04 MaxDP=3.41D-02 DE= 4.43D-02 OVMax= 7.77D-02

 Cycle   5  Pass 0  IDiag  1:
 RMSU=  1.32D-04    CP:  1.06D+00  1.02D+00  8.11D-01  2.15D-01
 E= -801.903202639876     Delta-E=       -0.111602063845 Rises=F Damp=F
 DIIS: error= 2.77D-03 at cycle   5 NSaved=   5.
 NSaved= 5 IEnMin= 5 EnMin= -801.903202639876     IErMin= 5 ErrMin= 2.77D-03
 ErrMax= 2.77D-03  0.00D+00 EMaxC= 1.00D-01 BMatC= 1.22D-02 BMatP= 1.51D-01
 IDIUse=3 WtCom= 9.72D-01 WtEn= 2.77D-02
 Coeff-Com:  0.781D-01-0.113D+00 0.798D-01 0.224D+00 0.731D+00
 Coeff-En:   0.000D+00 0.000D+00 0.000D+00 0.776D-02 0.992D+00
 Coeff:      0.760D-01-0.110D+00 0.776D-01 0.218D+00 0.739D+00
 Gap=     0.234 Goal=   None    Shift=    0.000
 RMSDP=1.49D-04 MaxDP=1.33D-02 DE=-1.12D-01 OVMax= 3.01D-02

 Cycle   6  Pass 0  IDiag  1:
 RMSU=  8.99D-05    CP:  1.06D+00  1.02D+00  8.62D-01  4.08D-01  3.56D-01
 E= -801.908662308327     Delta-E=       -0.005459668451 Rises=F Damp=F
 DIIS: error= 1.72D-03 at cycle   6 NSaved=   6.
 NSaved= 6 IEnMin= 6 EnMin= -801.908662308327     IErMin= 6 ErrMin= 1.72D-03
 ErrMax= 1.72D-03  0.00D+00 EMaxC= 1.00D-01 BMatC= 2.88D-03 BMatP= 1.22D-02
 IDIUse=3 WtCom= 9.83D-01 WtEn= 1.72D-02
 Coeff-Com:  0.248D-01-0.356D-01 0.585D-02 0.873D-01 0.400D+00 0.518D+00
 Coeff-En:   0.000D+00 0.000D+00 0.000D+00 0.000D+00 0.229D+00 0.771D+00
 Coeff:      0.244D-01-0.350D-01 0.575D-02 0.858D-01 0.397D+00 0.522D+00
 Gap=     0.227 Goal=   None    Shift=    0.000
 RMSDP=5.22D-05 MaxDP=6.84D-03 DE=-5.46D-03 OVMax= 1.91D-02

 Cycle   7  Pass 0  IDiag  1:
 RMSU=  4.27D-05    CP:  1.06D+00  1.00D+00  8.45D-01  4.12D-01  4.93D-01
                    CP:  8.03D-01
 E= -801.910660887018     Delta-E=       -0.001998578692 Rises=F Damp=F
 DIIS: error= 7.69D-04 at cycle   7 NSaved=   7.
 NSaved= 7 IEnMin= 7 EnMin= -801.910660887018     IErMin= 7 ErrMin= 7.69D-04
 ErrMax= 7.69D-04  0.00D+00 EMaxC= 1.00D-01 BMatC= 5.40D-04 BMatP= 2.88D-03
 IDIUse=3 WtCom= 9.92D-01 WtEn= 7.69D-03
 Coeff-Com:  0.188D-01-0.253D-01 0.165D-02 0.203D-01 0.106D+00 0.318D+00
 Coeff-Com:  0.561D+00
 Coeff-En:   0.000D+00 0.000D+00 0.000D+00 0.000D+00 0.000D+00 0.171D+00
 Coeff-En:   0.829D+00
 Coeff:      0.186D-01-0.251D-01 0.164D-02 0.201D-01 0.105D+00 0.317D+00
 Coeff:      0.563D+00
 Gap=     0.226 Goal=   None    Shift=    0.000
 RMSDP=1.94D-05 MaxDP=2.69D-03 DE=-2.00D-03 OVMax= 6.30D-03

 Cycle   8  Pass 0  IDiag  1:
 RMSU=  1.04D-05    CP:  1.06D+00  1.00D+00  8.49D-01  4.22D-01  4.80D-01
                    CP:  9.08D-01  7.16D-01
 E= -801.911085863113     Delta-E=       -0.000424976094 Rises=F Damp=F
 DIIS: error= 1.42D-04 at cycle   8 NSaved=   8.
 NSaved= 8 IEnMin= 8 EnMin= -801.911085863113     IErMin= 8 ErrMin= 1.42D-04
 ErrMax= 1.42D-04  0.00D+00 EMaxC= 1.00D-01 BMatC= 3.17D-05 BMatP= 5.40D-04
 IDIUse=3 WtCom= 9.99D-01 WtEn= 1.42D-03
 Coeff-Com:  0.108D-01-0.145D-01 0.211D-02 0.544D-02 0.299D-01 0.139D+00
 Coeff-Com:  0.308D+00 0.520D+00
 Coeff-En:   0.000D+00 0.000D+00 0.000D+00 0.000D+00 0.000D+00 0.000D+00
 Coeff-En:   0.000D+00 0.100D+01
 Coeff:      0.108D-01-0.145D-01 0.211D-02 0.544D-02 0.298D-01 0.139D+00
 Coeff:      0.307D+00 0.520D+00
 Gap=     0.226 Goal=   None    Shift=    0.000
 RMSDP=5.48D-06 MaxDP=5.24D-04 DE=-4.25D-04 OVMax= 1.10D-03

 Initial convergence to 1.0D-05 achieved.  Increase integral accuracy.
 Cycle   9  Pass 1  IDiag  1:
 E= -801.911102782635     Delta-E=       -0.000016919522 Rises=F Damp=F
 DIIS: error= 2.55D-04 at cycle   1 NSaved=   1.
 NSaved= 1 IEnMin= 1 EnMin= -801.911102782635     IErMin= 1 ErrMin= 2.55D-04
 ErrMax= 2.55D-04  0.00D+00 EMaxC= 1.00D-01 BMatC= 2.91D-05 BMatP= 2.91D-05
 IDIUse=3 WtCom= 9.97D-01 WtEn= 2.55D-03
 Coeff-Com:  0.100D+01
 Coeff-En:   0.100D+01
 Coeff:      0.100D+01
 Gap=     0.226 Goal=   None    Shift=    0.000
 RMSDP=5.48D-06 MaxDP=5.24D-04 DE=-1.69D-05 OVMax= 1.51D-03

 Cycle  10  Pass 1  IDiag  1:
 RMSU=  1.92D-04    CP:  9.89D-01
 E= -801.911118765622     Delta-E=       -0.000015982987 Rises=F Damp=F
 DIIS: error= 7.07D-05 at cycle   2 NSaved=   2.
 NSaved= 2 IEnMin= 2 EnMin= -801.911118765622     IErMin= 2 ErrMin= 7.07D-05
 ErrMax= 7.07D-05  0.00D+00 EMaxC= 1.00D-01 BMatC= 5.93D-06 BMatP= 2.91D-05
 IDIUse=1 WtCom= 1.00D+00 WtEn= 0.00D+00
 Coeff-Com:  0.218D+00 0.782D+00
 Coeff:      0.218D+00 0.782D+00
 Gap=     0.226 Goal=   None    Shift=    0.000
 RMSDP=4.86D-06 MaxDP=4.55D-04 DE=-1.60D-05 OVMax= 1.45D-03

 Cycle  11  Pass 1  IDiag  1:
 RMSU=  3.85D-06    CP:  9.89D-01  1.02D+00
 E= -801.911115420753     Delta-E=        0.000003344869 Rises=F Damp=F
 DIIS: error= 1.02D-04 at cycle   3 NSaved=   3.
 NSaved= 3 IEnMin= 2 EnMin= -801.911118765622     IErMin= 2 ErrMin= 7.07D-05
 ErrMax= 1.02D-04  0.00D+00 EMaxC= 1.00D-01 BMatC= 1.03D-05 BMatP= 5.93D-06
 IDIUse=3 WtCom= 4.98D-01 WtEn= 5.02D-01
 Coeff-Com:  0.540D-02 0.567D+00 0.427D+00
 Coeff-En:   0.000D+00 0.604D+00 0.396D+00
 Coeff:      0.269D-02 0.586D+00 0.412D+00
 Gap=     0.226 Goal=   None    Shift=    0.000
 RMSDP=2.23D-06 MaxDP=2.90D-04 DE= 3.34D-06 OVMax= 8.55D-04

 Cycle  12  Pass 1  IDiag  1:
 RMSU=  8.92D-07    CP:  9.89D-01  1.02D+00  5.13D-01
 E= -801.911123243503     Delta-E=       -0.000007822750 Rises=F Damp=F
 DIIS: error= 1.22D-05 at cycle   4 NSaved=   4.
 NSaved= 4 IEnMin= 4 EnMin= -801.911123243503     IErMin= 4 ErrMin= 1.22D-05
 ErrMax= 1.22D-05  0.00D+00 EMaxC= 1.00D-01 BMatC= 1.67D-07 BMatP= 5.93D-06
 IDIUse=1 WtCom= 1.00D+00 WtEn= 0.00D+00
 Coeff-Com: -0.252D-02 0.319D+00 0.225D+00 0.458D+00
 Coeff:     -0.252D-02 0.319D+00 0.225D+00 0.458D+00
 Gap=     0.226 Goal=   None    Shift=    0.000
 RMSDP=3.51D-07 MaxDP=5.18D-05 DE=-7.82D-06 OVMax= 6.64D-05

 Cycle  13  Pass 1  IDiag  1:
 RMSU=  3.27D-07    CP:  9.89D-01  1.02D+00  4.92D-01  9.38D-01
 E= -801.911123356310     Delta-E=       -0.000000112807 Rises=F Damp=F
 DIIS: error= 2.47D-06 at cycle   5 NSaved=   5.
 NSaved= 5 IEnMin= 5 EnMin= -801.911123356310     IErMin= 5 ErrMin= 2.47D-06
 ErrMax= 2.47D-06  0.00D+00 EMaxC= 1.00D-01 BMatC= 6.68D-09 BMatP= 1.67D-07
 IDIUse=1 WtCom= 1.00D+00 WtEn= 0.00D+00
 Coeff-Com: -0.157D-02 0.108D+00 0.734D-01 0.228D+00 0.592D+00
 Coeff:     -0.157D-02 0.108D+00 0.734D-01 0.228D+00 0.592D+00
 Gap=     0.226 Goal=   None    Shift=    0.000
 RMSDP=7.36D-08 MaxDP=7.47D-06 DE=-1.13D-07 OVMax= 1.53D-05

 Cycle  14  Pass 1  IDiag  1:
 RMSU=  5.68D-08    CP:  9.89D-01  1.02D+00  4.91D-01  9.75D-01  9.36D-01
 E= -801.911123360009     Delta-E=       -0.000000003699 Rises=F Damp=F
 DIIS: error= 8.81D-07 at cycle   6 NSaved=   6.
 NSaved= 6 IEnMin= 6 EnMin= -801.911123360009     IErMin= 6 ErrMin= 8.81D-07
 ErrMax= 8.81D-07  0.00D+00 EMaxC= 1.00D-01 BMatC= 8.57D-10 BMatP= 6.68D-09
 IDIUse=1 WtCom= 1.00D+00 WtEn= 0.00D+00
 Coeff-Com: -0.733D-03 0.405D-01 0.267D-01 0.996D-01 0.338D+00 0.496D+00
 Coeff:     -0.733D-03 0.405D-01 0.267D-01 0.996D-01 0.338D+00 0.496D+00
 Gap=     0.226 Goal=   None    Shift=    0.000
 RMSDP=3.68D-08 MaxDP=5.81D-06 DE=-3.70D-09 OVMax= 8.32D-06

 Cycle  15  Pass 1  IDiag  1:
 RMSU=  2.65D-08    CP:  9.89D-01  1.02D+00  4.92D-01  9.91D-01  9.77D-01
                    CP:  7.66D-01
 E= -801.911123360685     Delta-E=       -0.000000000677 Rises=F Damp=F
 DIIS: error= 2.94D-07 at cycle   7 NSaved=   7.
 NSaved= 7 IEnMin= 7 EnMin= -801.911123360685     IErMin= 7 ErrMin= 2.94D-07
 ErrMax= 2.94D-07  0.00D+00 EMaxC= 1.00D-01 BMatC= 1.23D-10 BMatP= 8.57D-10
 IDIUse=1 WtCom= 1.00D+00 WtEn= 0.00D+00
 Coeff-Com:  0.148D-04-0.700D-02-0.511D-02-0.504D-02 0.341D-01 0.284D+00
 Coeff-Com:  0.699D+00
 Coeff:      0.148D-04-0.700D-02-0.511D-02-0.504D-02 0.341D-01 0.284D+00
 Coeff:      0.699D+00
 Gap=     0.226 Goal=   None    Shift=    0.000
 RMSDP=1.73D-08 MaxDP=1.64D-06 DE=-6.77D-10 OVMax= 3.30D-06

 Cycle  16  Pass 1  IDiag  1:
 RMSU=  1.04D-08    CP:  9.89D-01  1.02D+00  4.93D-01  1.00D+00  9.96D-01
                    CP:  8.89D-01  1.06D+00
 E= -801.911123360696     Delta-E=       -0.000000000011 Rises=F Damp=F
 DIIS: error= 6.76D-08 at cycle   8 NSaved=   8.
 NSaved= 8 IEnMin= 8 EnMin= -801.911123360696     IErMin= 8 ErrMin= 6.76D-08
 ErrMax= 6.76D-08  0.00D+00 EMaxC= 1.00D-01 BMatC= 1.28D-11 BMatP= 1.23D-10
 IDIUse=1 WtCom= 1.00D+00 WtEn= 0.00D+00
 Coeff-Com:  0.702D-04-0.701D-02-0.486D-02-0.114D-01-0.128D-01 0.100D+00
 Coeff-Com:  0.362D+00 0.574D+00
 Coeff:      0.702D-04-0.701D-02-0.486D-02-0.114D-01-0.128D-01 0.100D+00
 Coeff:      0.362D+00 0.574D+00
 Gap=     0.226 Goal=   None    Shift=    0.000
 RMSDP=5.23D-09 MaxDP=9.10D-07 DE=-1.09D-11 OVMax= 8.50D-07

 SCF Done:  E(RM06) =  -801.911123361     A.U. after   16 cycles
            NFock= 16  Conv=0.52D-08     -V/T= 2.0045
 KE= 7.983570398883D+02 PE=-4.336862280638D+03 EE= 1.504563223048D+03
 Leave Link  502 at Tue Jun 24 17:17:27 2014, MaxMem=  4294967296 cpu:     37014.1
 (Enter /home/ztw1e12/g09/l801.exe)
 DoSCS=F DFT=T ScalE2(SS,OS)=  1.000000  1.000000
 Range of M.O.s used for correlation:     1  1068
 NBasis=  1204 NAE=    63 NBE=    63 NFC=     0 NFV=     0
 NROrb=   1068 NOA=    63 NOB=    63 NVA=  1005 NVB=  1005

 **** Warning!!: The largest alpha MO coefficient is  0.28363297D+02

 Leave Link  801 at Tue Jun 24 17:17:27 2014, MaxMem=  4294967296 cpu:         0.5
 (Enter /home/ztw1e12/g09/l1002.exe)
 Minotr:  Closed shell wavefunction.
          IDoAtm=111111111111111111111111111111111
          Direct CPHF calculation.
          Differentiating once with respect to Fermi-contact.
          Electric field/nuclear overlap derivatives assumed to be zero.
          Requested convergence is 1.0D-10 RMS, and 1.0D-09 maximum.
          Secondary convergence is 1.0D-12 RMS, and 1.0D-12 maximum.
          NewPWx=T KeepS1=F KeepF1=F KeepIn=T MapXYZ=F SortEE=F KeepMc=T.
          MDV=    4294965894 using IRadAn=  199590.
 Using stored XC quadrature information.
          Solving linear equations simultaneously, MaxMat=       0.
          There are    33 degrees of freedom in the 1st order CPHF.  IDoFFX=0 NUNeed=    33.
     33 vectors produced by pass  0 Test12= 1.92D-17 3.03D-11 XBig12= 4.29D+01 2.58D+00.
 AX will form    33 AO Fock derivatives at one time.
 FoFJK:  IHMeth= 1 ICntrl=       0 DoSepK=F KAlg= 0 I1Cent=   0 FoldK=F
 IRaf= 460000000 NMat=  33 IRICut=       1 DoRegI=T DoRafI=F ISym2E=-1.
 FoFCou: FMM=F IPFlag=           0 FMFlag=      100000 FMFlg1=           0
         NFxFlg=           0 DoJE=F BraDBF=F KetDBF=F FulRan=T
         wScrn=  0.000000 ICntrl=       0 IOpCl=  0 I1Cent=           0 NGrid=           0
         NMat0=   33 NMatS0=      0 NMatT0=   33 NMatD0=   33 NMtDS0=    0 NMtDT0=    0
 Petite list used in FoFCou.
     33 vectors produced by pass  1 Test12= 1.92D-17 3.03D-11 XBig12= 3.46D-01 1.89D-01.
     33 vectors produced by pass  2 Test12= 1.92D-17 3.03D-11 XBig12= 1.57D-02 3.71D-02.
     33 vectors produced by pass  3 Test12= 1.92D-17 3.03D-11 XBig12= 3.52D-04 5.98D-03.
     33 vectors produced by pass  4 Test12= 1.92D-17 3.03D-11 XBig12= 7.34D-06 1.19D-03.
     33 vectors produced by pass  5 Test12= 1.92D-17 3.03D-11 XBig12= 1.57D-07 1.80D-04.
     33 vectors produced by pass  6 Test12= 1.92D-17 3.03D-11 XBig12= 5.26D-09 1.92D-05.
     33 vectors produced by pass  7 Test12= 1.92D-17 3.03D-11 XBig12= 1.41D-10 4.17D-06.
     33 vectors produced by pass  8 Test12= 1.92D-17 3.03D-11 XBig12= 5.57D-12 3.90D-07.
     33 vectors produced by pass  9 Test12= 1.92D-17 3.03D-11 XBig12= 7.21D-14 9.92D-08.
     33 vectors produced by pass 10 Test12= 1.92D-17 3.03D-11 XBig12= 2.03D-15 1.01D-08.
     32 vectors produced by pass 11 Test12= 1.92D-17 3.03D-11 XBig12= 2.02D-17 6.07D-10.
      8 vectors produced by pass 12 Test12= 1.92D-17 3.03D-11 XBig12= 2.87D-19 6.11D-11.
 InvSVY:  IOpt=1 It=  1 EMax= 7.11D-15
 Solved reduced A of dimension   403 with    33 vectors.
 Max diff in FC couplings:  IJMax=    22    16 Diff= 6.70D-04 IJMaxR=    32    17 DiffR= 1.76D+00
 Fermi Contact (FC) contribution to K (Hz):
                1             2             3             4             5 
      1  0.123400D+11
      2  0.349081D+02  0.123400D+11
      3 -0.115953D+01  0.347977D+02  0.123400D+11
      4  0.311231D+01  0.260849D+00  0.334424D+02  0.123400D+11
      5  0.160861D+01  0.298345D+01 -0.137477D+01  0.352107D+02  0.123400D+11
      6  0.362304D+02 -0.210722D+00  0.437675D+01  0.225724D+00  0.388248D+02
      7  0.215927D+02 -0.285827D+00  0.966442D+00 -0.200613D+00  0.607654D+00
      8 -0.222196D+00  0.217733D+02 -0.295166D+00  0.990647D+00 -0.295130D+00
      9 -0.287659D+00  0.102534D+01 -0.209177D+00  0.225459D+02 -0.200716D+00
     10  0.680216D+00 -0.219645D+00  0.106101D+01 -0.288039D+00  0.231458D+02
     11  0.208943D+01  0.152968D+01  0.245014D+02  0.143296D+01  0.200467D+01
     12  0.198230D-02  0.833117D+00 -0.108026D+01  0.851369D+00  0.669342D-01
     13  0.101548D-01  0.762723D+00 -0.975740D+00  0.619499D+00 -0.783693D-01
     14 -0.561090D+00  0.813964D+00 -0.375840D+00  0.683728D+00 -0.607349D+00
     15  0.160958D-01 -0.199794D-01  0.291824D-01 -0.167757D-01  0.172332D-01
     16  0.379510D-01 -0.204008D-01  0.891094D+00 -0.317827D-01  0.256375D-01
     17 -0.756283D+00 -0.104912D+00  0.270222D+00  0.306584D+01  0.116343D+02
     18  0.424872D+00 -0.103747D-01 -0.472083D-01  0.209502D+00  0.114864D+01
     19 -0.261516D-01  0.141756D+00  0.357953D+00  0.399805D+00 -0.227509D-01
     20  0.484102D-01 -0.965138D-01  0.263709D+01  0.506156D-01  0.758447D-01
     21 -0.100255D-02  0.809960D-03 -0.218074D-01  0.332285D-02  0.236817D-03
     22  0.868965D-01  0.476267D+00  0.163182D+00 -0.106722D-01  0.598619D-01
     23  0.134876D-03  0.515627D-02  0.105692D-02  0.780695D-03 -0.797147D-03
     24 -0.900386D-02  0.439632D-02  0.222916D+00  0.355285D-01  0.203362D-02
     25  0.149729D-02 -0.909058D-03  0.885604D-01 -0.258046D-02 -0.491641D-04
     26  0.120114D-04  0.110572D-03  0.133702D-02 -0.250489D-04 -0.176751D-03
     27 -0.269691D-03  0.206308D-04 -0.249056D-02  0.569390D-03 -0.583325D-05
     28 -0.129197D-03  0.218322D-03 -0.604387D-03  0.205349D-03 -0.183444D-03
     29  0.557272D-01  0.700334D-01  0.360268D-01 -0.244754D-01  0.267524D-01
     30  0.142298D-01  0.181492D-01  0.955230D-02 -0.178211D-02  0.449622D-02
     31  0.263512D-03  0.218898D-02  0.993949D-03  0.103925D-03  0.416658D-04
     32  0.608424D-02  0.764233D-02  0.363949D-02 -0.268349D-03  0.158665D-02
     33 -0.701527D-02  0.182581D-01 -0.255805D-01  0.139431D-01 -0.656547D-02
                6             7             8             9            10 
      6  0.123400D+11
      7 -0.559783D+00  0.123400D+11
      8  0.116897D+01  0.330431D+00  0.123400D+11
      9  0.123250D+01  0.378438D-01  0.375588D-01  0.123400D+11
     10 -0.699224D+00  0.628292D-01  0.429072D-01  0.352695D+00  0.123400D+11
     11 -0.476008D+00  0.167791D-01  0.703707D+00  0.690784D+00  0.174236D-01
     12  0.350363D-01  0.474303D-02 -0.353540D-01 -0.733539D-02  0.862836D-02
     13  0.907736D-01  0.107182D-01 -0.243097D-01 -0.318152D-01  0.967599D-02
     14  0.599955D+00  0.492065D-01 -0.150547D+00 -0.137269D+00  0.577417D-01
     15 -0.105667D-01 -0.193820D-02  0.654553D-02  0.878340D-02 -0.204202D-02
     16 -0.208223D-01 -0.203072D-02  0.245455D-01  0.475056D-02 -0.256888D-02
     17 -0.120173D+02  0.556738D+00  0.695283D-01  0.259865D+00  0.710552D+00
     18 -0.663563D+00 -0.131451D-01  0.169002D-02  0.138374D-01  0.716226D-03
     19  0.347883D-01 -0.159331D-02 -0.278345D-01  0.172249D-01  0.135440D-02
     20 -0.578738D-02  0.113072D-02  0.852621D-02  0.496104D-02  0.115916D-01
     21  0.629332D-03  0.823372D-04  0.108388D-03  0.379501D-03 -0.120057D-03
     22 -0.198469D-01 -0.762750D-02  0.134580D+00  0.111807D-01 -0.114490D-01
     23  0.850135D-03  0.357022D-04  0.128731D-02 -0.266107D-04  0.207769D-03
     24  0.115033D-01  0.137616D-02 -0.228313D-02 -0.322433D-03  0.228322D-02
     25  0.105143D-02  0.398032D-04  0.143615D-03 -0.389544D-04  0.387098D-03
     26  0.120909D-03  0.176746D-04 -0.595264D-04  0.108707D-04  0.122855D-04
     27  0.102619D-03  0.522368D-05 -0.389647D-04  0.284981D-04 -0.375822D-05
     28  0.129888D-03  0.144405D-04 -0.450790D-04 -0.496484D-04  0.147260D-04
     29 -0.289784D-01 -0.100832D-01  0.377668D-01  0.260737D-02 -0.495324D-02
     30 -0.183762D-02  0.455607D-03  0.967405D-02  0.273106D-03 -0.879586D-03
     31  0.596704D-04 -0.664481D-05  0.132151D-02  0.168927D-04 -0.299888D-04
     32 -0.509567D-03  0.168447D-03  0.391241D-02  0.132106D-03 -0.272346D-03
     33  0.747990D-02  0.783031D-03 -0.703690D-03 -0.189627D-02  0.431515D-03
               11            12            13            14            15 
     11  0.123400D+11
     12  0.164466D+02  0.123400D+11
     13  0.184136D+02 -0.797658D+00  0.123400D+11
     14  0.154258D+02 -0.944045D+00 -0.794631D+00  0.123400D+11
     15 -0.690675D+00  0.278210D+00  0.357197D+00  0.216971D+02  0.123400D+11
     16 -0.576602D+00  0.514972D-01  0.855382D+00  0.283520D+02 -0.114673D+01
     17  0.601737D-01  0.121597D-01  0.320635D-01  0.241002D+00 -0.385544D-02
     18  0.122019D-01 -0.121150D-02 -0.346188D-02 -0.255520D-01  0.469366D-03
     19  0.676780D+00  0.329406D-02 -0.754365D-02  0.435286D+01  0.315542D+00
     20  0.117626D+01  0.160972D+01 -0.550145D-01  0.131536D+02 -0.380408D+00
     21  0.623875D+00 -0.354767D-01 -0.819977D-02  0.224821D+00  0.114481D+00
     22 -0.983490D-01  0.138119D-01  0.520840D-01  0.992388D+01  0.295621D+00
     23 -0.231633D-01 -0.972326D-03 -0.336989D-02  0.594259D-01  0.111312D-01
     24  0.168979D+01  0.361381D-01 -0.444516D-01 -0.131095D+00  0.253131D+00
     25 -0.360305D-01  0.358178D-01  0.342667D-03  0.704335D+00 -0.758272D-01
     26  0.351022D-02 -0.149388D-03 -0.102464D-02  0.431792D-01  0.207407D-01
     27 -0.124926D-02 -0.921871D-03 -0.437819D-03  0.857483D-02  0.276852D-01
     28 -0.281844D-02 -0.704889D-03 -0.170881D-04  0.875439D-01 -0.171873D-02
     29 -0.104455D+00  0.155335D-02  0.315741D-02  0.728631D+00  0.799182D-01
     30  0.632554D-01 -0.153947D-02  0.480692D-02 -0.827565D-01  0.152348D-01
     31  0.465163D-03  0.274518D-03  0.341388D-03 -0.226943D-01  0.718581D-02
     32  0.626576D-01 -0.148257D-02  0.571699D-02 -0.652608D-01  0.404420D-02
     33  0.124903D+00  0.325718D-01  0.471867D-03  0.763846D+00  0.243141D+00
               16            17            18            19            20 
     16  0.123400D+11
     17 -0.631362D-02  0.123400D+11
     18  0.659866D-03  0.198363D+02  0.123400D+11
     19 -0.948985D+01  0.145027D-01 -0.164372D-02  0.123400D+11
     20  0.228362D+00  0.419740D-02  0.305844D-04  0.101985D+01  0.123400D+11
     21  0.197947D+00  0.335875D-03 -0.257897D-04  0.946406D-01  0.308728D+02
     22  0.295713D+02 -0.380488D-02  0.154132D-03  0.629507D+01 -0.291865D+00
     23  0.368163D+00  0.735658D-04  0.335991D-05  0.461966D+00 -0.574502D-01
     24  0.944533D-01  0.613410D-02 -0.528400D-03 -0.211249D-01  0.251409D+02
     25 -0.150444D+00  0.601270D-03 -0.601980D-04  0.527304D-01  0.125090D+02
     26  0.513617D-01  0.167269D-04 -0.169214D-05 -0.144286D-02  0.430011D+00
     27  0.721182D-01  0.639871D-04 -0.509276D-05  0.411225D-02  0.281837D+00
     28 -0.161826D-02  0.614617D-04 -0.669848D-05  0.394957D-02  0.311759D+00
     29 -0.254589D+00 -0.441133D-02  0.321025D-03  0.624247D+00  0.811407D-01
     30  0.160051D+00 -0.285187D-03  0.648052D-05  0.242175D+00  0.498200D-01
     31  0.952665D+00 -0.221955D-04  0.000000D+00  0.175378D+00  0.533794D-02
     32  0.199558D+00  0.000000D+00 -0.515747D-05  0.246668D+00  0.171644D-01
     33  0.459719D+00  0.306021D-02 -0.341456D-03  0.330229D+00  0.600087D+01
               21            22            23            24            25 
     21  0.123400D+11
     22  0.414355D-01  0.123400D+11
     23  0.412001D-02  0.310796D+02  0.123400D+11
     24  0.464319D+00 -0.389619D-01  0.839662D-02  0.123400D+11
     25  0.752751D-01  0.235116D-02  0.988499D-03  0.268952D+02  0.123400D+11
     26 -0.120381D-01  0.219748D-02  0.137254D-03 -0.118782D+01  0.181218D+02
     27 -0.909455D-02 -0.196567D-03 -0.179141D-03 -0.120008D+01  0.178658D+02
     28 -0.901451D-02 -0.194166D-02  0.145353D-03 -0.743566D+00  0.169882D+02
     29 -0.160490D-02  0.174626D+02  0.324240D+00 -0.524968D-02 -0.329497D-02
     30 -0.826495D-03 -0.631645D+00  0.605510D-01  0.160392D-02  0.243006D-02
     31 -0.452625D-03 -0.355555D+00  0.289201D+00  0.850734D-04 -0.379241D-03
     32  0.189415D-02 -0.559800D+00  0.163759D+00 -0.924720D-03  0.182014D-02
     33  0.446524D+00  0.268008D+00 -0.180056D-01 -0.978644D+01  0.351208D+01
               26            27            28            29            30 
     26  0.123400D+11
     27 -0.929473D+00  0.123400D+11
     28 -0.733158D+00 -0.736075D+00  0.123400D+11
     29 -0.232256D-03 -0.405341D-03  0.919082D-05  0.123400D+11
     30  0.327457D-03  0.394830D-03 -0.293112D-04  0.197094D+02  0.123400D+11
     31  0.263590D-03  0.169470D-03  0.533266D-05  0.181102D+02 -0.720321D+00
     32 -0.111535D-03 -0.115849D-03 -0.196543D-04  0.202809D+02 -0.739845D+00
     33  0.458653D+00  0.457159D+00  0.801096D+00 -0.194296D-01  0.140250D-01
               31            32            33 
     31  0.123400D+11
     32 -0.760786D+00  0.123400D+11
     33  0.264281D-02  0.158992D-01  0.123400D+11
 Fermi Contact (FC) contribution to J (Hz):
                1             2             3             4             5 
      1  0.243533D+11
      2  0.688921D+02  0.243533D+11
      3 -0.228835D+01  0.686742D+02  0.243533D+11
      4  0.614223D+01  0.514792D+00  0.659995D+02  0.243533D+11
      5  0.317463D+01  0.588792D+01 -0.271315D+01  0.694892D+02  0.243533D+11
      6  0.715016D+02 -0.415865D+00  0.863763D+01  0.445472D+00  0.766217D+02
      7  0.169436D+03 -0.224285D+01  0.758358D+01 -0.157419D+01  0.476820D+01
      8 -0.174355D+01  0.170853D+03 -0.231614D+01  0.777351D+01 -0.231585D+01
      9 -0.225723D+01  0.804571D+01 -0.164139D+01  0.176915D+03 -0.157500D+01
     10  0.533759D+01 -0.172353D+01  0.832564D+01 -0.226021D+01  0.181623D+03
     11  0.412354D+01  0.301887D+01  0.483541D+02  0.282799D+01  0.395627D+01
     12  0.155549D-01  0.653739D+01 -0.847670D+01  0.668061D+01  0.525226D+00
     13  0.796834D-01  0.598502D+01 -0.765654D+01  0.486115D+01 -0.614957D+00
     14 -0.110733D+01  0.160638D+01 -0.741730D+00  0.134935D+01 -0.119862D+01
     15  0.126302D+00 -0.156777D+00  0.228992D+00 -0.131638D+00  0.135227D+00
     16  0.748972D-01 -0.402614D-01  0.175860D+01 -0.627239D-01  0.505962D-01
     17  0.804822D+00  0.111645D+00 -0.287565D+00 -0.326261D+01 -0.123810D+02
     18  0.333393D+01 -0.814092D-01 -0.370439D+00  0.164394D+01  0.901325D+01
     19  0.278300D-01 -0.150854D+00 -0.380926D+00 -0.425465D+00  0.242111D-01
     20  0.274588D-01 -0.547438D-01  0.149579D+01  0.287098D-01  0.430200D-01
     21 -0.786693D-02  0.635568D-02 -0.171121D+00  0.260741D-01  0.185828D-02
     22  0.492888D-01  0.270145D+00  0.925588D-01 -0.605340D-02  0.339544D-01
     23  0.105836D-02  0.404607D-01  0.829356D-02  0.612604D-02 -0.625514D-02
     24 -0.177693D-01  0.867625D-02  0.439931D+00  0.701164D-01  0.401339D-02
     25  0.295494D-02 -0.179405D-02  0.174776D+00 -0.509260D-02 -0.970265D-04
     26  0.942519D-04  0.867646D-03  0.104915D-01 -0.196556D-03 -0.138695D-02
     27 -0.211624D-02  0.161888D-03 -0.195432D-01  0.446795D-02 -0.457729D-04
     28 -0.101380D-02  0.171315D-02 -0.474256D-02  0.161136D-02 -0.143947D-02
     29  0.109979D+00  0.138213D+00  0.710997D-01 -0.483028D-01  0.527966D-01
     30  0.111660D+00  0.142415D+00  0.749560D-01 -0.139841D-01  0.352814D-01
     31  0.206775D-02  0.171767D-01  0.779942D-02  0.815487D-03  0.326947D-03
     32  0.477424D-01  0.599686D-01  0.285587D-01 -0.210571D-02  0.124503D-01
     33  0.746551D-02 -0.194299D-01  0.272222D-01 -0.148380D-01  0.698685D-02
                6             7             8             9            10 
      6  0.243533D+11
      7 -0.439256D+01  0.385007D+12
      8  0.917280D+01  0.103094D+02  0.385007D+12
      9  0.967127D+01  0.118073D+01  0.117183D+01  0.385007D+12
     10 -0.548674D+01  0.196027D+01  0.133870D+01  0.110041D+02  0.385007D+12
     11 -0.939413D+00  0.131664D+00  0.552192D+01  0.542052D+01  0.136721D+00
     12  0.274926D+00  0.147982D+00 -0.110304D+01 -0.228864D+00  0.269204D+00
     13  0.712292D+00  0.334406D+00 -0.758461D+00 -0.992634D+00  0.301890D+00
     14  0.118403D+01  0.386118D+00 -0.118133D+01 -0.107713D+01  0.453094D+00
     15 -0.829158D-01 -0.604719D-01  0.204220D+00  0.274042D+00 -0.637109D-01
     16 -0.410934D-01 -0.159348D-01  0.192606D+00  0.372772D-01 -0.201578D-01
     17  0.127885D+02 -0.235571D+01 -0.294193D+00 -0.109956D+01 -0.300654D+01
     18 -0.520691D+01 -0.410126D+00  0.527284D-01  0.431726D+00  0.223462D-01
     19 -0.370210D-01  0.674174D-02  0.117775D+00 -0.728831D-01 -0.573083D-02
     20 -0.328267D-02  0.255010D-02  0.192290D-01  0.111886D-01  0.261424D-01
     21  0.493831D-02  0.256892D-02  0.338171D-02  0.118404D-01 -0.374577D-02
     22 -0.112574D-01 -0.172022D-01  0.303516D+00  0.252156D-01 -0.258207D-01
     23  0.667092D-02  0.111391D-02  0.401641D-01 -0.830251D-03  0.648237D-02
     24  0.227020D-01  0.107986D-01 -0.179155D-01 -0.253010D-02  0.179162D-01
     25  0.207502D-02  0.312331D-03  0.112694D-02 -0.305672D-03  0.303752D-02
     26  0.948761D-03  0.551446D-03 -0.185722D-02  0.339164D-03  0.383308D-03
     27  0.805245D-03  0.162979D-03 -0.121570D-02  0.889138D-03 -0.117256D-03
     28  0.101922D-02  0.450542D-03 -0.140646D-02 -0.154903D-02  0.459452D-03
     29 -0.571896D-01 -0.791218D-01  0.296352D+00  0.204597D-01 -0.388676D-01
     30 -0.144196D-01  0.142149D-01  0.301830D+00  0.852090D-02 -0.274431D-01
     31  0.468228D-03 -0.207318D-03  0.412311D-01  0.527053D-03 -0.935650D-03
     32 -0.399853D-02  0.525555D-02  0.122067D+00  0.412171D-02 -0.849717D-02
     33 -0.795996D-02 -0.331322D-02  0.297750D-02  0.802365D-02 -0.182586D-02
               11            12            13            14            15 
     11  0.243533D+11
     12  0.129055D+03  0.385007D+12
     13  0.144490D+03 -0.248869D+02  0.385007D+12
     14  0.304432D+02 -0.740783D+01 -0.623539D+01  0.243533D+11
     15 -0.541966D+01  0.868013D+01  0.111445D+02  0.170255D+03  0.385007D+12
     16 -0.113794D+01  0.404093D+00  0.671210D+01  0.559534D+02 -0.899828D+01
     17 -0.640357D-01 -0.514510D-01 -0.135670D+00 -0.256470D+00  0.163134D-01
     18  0.957469D-01 -0.377987D-01 -0.108011D+00 -0.200504D+00  0.146442D-01
     19 -0.720216D+00 -0.139381D-01  0.319192D-01 -0.463223D+01 -0.133515D+01
     20  0.667189D+00  0.363037D+01 -0.124073D+00  0.746091D+01 -0.857929D+00
     21  0.489548D+01 -0.110687D+01 -0.255832D+00  0.176415D+01  0.357181D+01
     22 -0.557848D-01  0.311498D-01  0.117464D+00  0.562895D+01  0.666710D+00
     23 -0.181760D+00 -0.303365D-01 -0.105141D+00  0.466310D+00  0.347293D+00
     24  0.333484D+01  0.283572D+00 -0.348807D+00 -0.258719D+00  0.198629D+01
     25 -0.711072D-01  0.281059D+00  0.268888D-02  0.139002D+01 -0.595009D+00
     26  0.275444D-01 -0.466090D-02 -0.319688D-01  0.338823D+00  0.647109D+00
     27 -0.980284D-02 -0.287623D-01 -0.136599D-01  0.672859D-01  0.863777D+00
     28 -0.221160D-01 -0.219925D-01 -0.533148D-03  0.686948D+00 -0.536243D-01
     29 -0.206145D+00  0.121890D-01  0.247759D-01  0.143797D+01  0.627110D+00
     30  0.496359D+00 -0.480313D-01  0.149976D+00 -0.649382D+00  0.475324D+00
     31  0.365009D-02  0.856494D-02  0.106513D-01 -0.178080D+00  0.224197D+00
     32  0.491668D+00 -0.462561D-01  0.178370D+00 -0.512095D+00  0.126179D+00
     33 -0.132919D+00 -0.137820D+00 -0.199660D-02 -0.812871D+00 -0.102880D+01
               16            17            18            19            20 
     16  0.243533D+11
     17  0.671883D-02  0.708114D+10
     18  0.517790D-02 -0.839330D+02  0.385007D+12
     19  0.100989D+02  0.832218D-02  0.695501D-02  0.708114D+10
     20  0.129530D+00 -0.128380D-02  0.689766D-04 -0.311928D+00  0.201170D+10
     21  0.155327D+01 -0.142118D-02 -0.804636D-03 -0.400450D+00  0.696269D+02
     22  0.167732D+02  0.116375D-02  0.347611D-03 -0.192539D+01 -0.475807D-01
     23  0.288894D+01 -0.311277D-03  0.104829D-03 -0.195470D+01 -0.129567D+00
     24  0.186406D+00 -0.652780D-02 -0.414630D-02  0.224807D-01  0.142602D+02
     25 -0.296905D+00 -0.639860D-03 -0.472368D-03 -0.561147D-01  0.709524D+01
     26  0.403030D+00 -0.707763D-04 -0.527948D-04  0.610513D-02  0.969797D+00
     27  0.565904D+00 -0.270747D-03 -0.158894D-03 -0.174001D-01  0.635624D+00
     28 -0.126983D-01 -0.260061D-03 -0.208992D-03 -0.167117D-01  0.703105D+00
     29 -0.502437D+00  0.469445D-02  0.251905D-02 -0.664311D+00  0.460240D-01
     30  0.125590D+01  0.120670D-02  0.202192D-03 -0.102471D+01  0.112358D+00
     31  0.747547D+01  0.939152D-04  0.284554D-04 -0.742074D+00  0.120386D-01
     32  0.156591D+01 -0.205364D-05 -0.160913D-03 -0.104372D+01  0.387107D-01
     33 -0.489224D+00  0.175606D-02  0.144479D-02  0.189497D+00 -0.183541D+01
               21            22            23            24            25 
     21  0.385007D+12
     22  0.934488D-01  0.201170D+10
     23  0.128544D+00  0.700933D+02  0.385007D+12
     24  0.364346D+01 -0.220997D-01  0.658875D-01  0.243533D+11
     25  0.590676D+00  0.133360D-02  0.775666D-02  0.530784D+02  0.243533D+11
     26 -0.375590D+00  0.495595D-02  0.428231D-02 -0.932071D+01  0.142200D+03
     27 -0.283750D+00 -0.443313D-03 -0.558920D-02 -0.941695D+01  0.140191D+03
     28 -0.281252D+00 -0.437900D-02  0.453501D-02 -0.583469D+01  0.133305D+03
     29 -0.125935D-01  0.990497D+01  0.254428D+01 -0.103604D-01 -0.650271D-02
     30 -0.257866D-01 -0.142454D+01  0.188919D+01  0.125858D-01  0.190684D-01
     31 -0.141219D-01 -0.801878D+00  0.902306D+01  0.667562D-03 -0.297587D-02
     32  0.590974D-01 -0.126251D+01  0.510929D+01 -0.725619D-02  0.142824D-01
     33 -0.188937D+01 -0.819721D-01  0.761865D-01  0.104145D+02 -0.373749D+01
               26            27            28            29            30 
     26  0.385007D+12
     27 -0.289995D+02  0.385007D+12
     28 -0.228745D+02 -0.229655D+02  0.385007D+12
     29 -0.182249D-02 -0.318067D-02  0.721195D-04  0.243533D+11
     30  0.102166D-01  0.123187D-01 -0.914510D-03  0.154658D+03  0.385007D+12
     31  0.822400D-02  0.528746D-02  0.166379D-03  0.142109D+03 -0.224740D+02
     32 -0.347990D-02 -0.361448D-02 -0.613213D-03  0.159142D+03 -0.230831D+02
     33 -0.194069D+01 -0.193436D+01 -0.338965D+01  0.206766D-01 -0.593435D-01
               31            32            33 
     31  0.385007D+12
     32 -0.237365D+02  0.385007D+12
     33 -0.111825D-01 -0.672741D-01  0.708114D+10
 End of Minotr F.D. properties file   721 does not exist.
 End of Minotr F.D. properties file   722 does not exist.
 End of Minotr F.D. properties file   788 does not exist.
 Leave Link 1002 at Wed Jun 25 01:42:29 2014, MaxMem=  4294967296 cpu:    483643.6
 (Enter /home/ztw1e12/g09/l601.exe)
 Copying SCF densities to generalized density rwf, IOpCl= 0 IROHF=0.

 **********************************************************************

            Population analysis using the SCF density.

 **********************************************************************

 Orbital symmetries:
       Occupied  (A) (A) (A) (A) (A) (A) (A) (A) (A) (A) (A) (A)
                 (A) (A) (A) (A) (A) (A) (A) (A) (A) (A) (A) (A)
                 (A) (A) (A) (A) (A) (A) (A) (A) (A) (A) (A) (A)
                 (A) (A) (A) (A) (A) (A) (A) (A) (A) (A) (A) (A)
                 (A) (A) (A) (A) (A) (A) (A) (A) (A) (A) (A) (A)
                 (A) (A) (A)
       Virtual   (A) (A) (A) (A) (A) (A) (A) (A) (A) (A) (A) (A)
                 (A) (A) (A) (A) (A) (A) (A) (A) (A) (A) (A) (A)
                 (A) (A) (A) (A) (A) (A) (A) (A) (A) (A) (A) (A)
                 (A) (A) (A) (A) (A) (A) (A) (A) (A) (A) (A) (A)
                 (A) (A) (A) (A) (A) (A) (A) (A) (A) (A) (A) (A)
                 (A) (A) (A) (A) (A) (A) (A) (A) (A) (A) (A) (A)
                 (A) (A) (A) (A) (A) (A) (A) (A) (A) (A) (A) (A)
                 (A) (A) (A) (A) (A) (A) (A) (A) (A) (A) (A) (A)
                 (A) (A) (A) (A) (A) (A) (A) (A) (A) (A) (A) (A)
                 (A) (A) (A) (A) (A) (A) (A) (A) (A) (A) (A) (A)
                 (A) (A) (A) (A) (A) (A) (A) (A) (A) (A) (A) (A)
                 (A) (A) (A) (A) (A) (A) (A) (A) (A) (A) (A) (A)
                 (A) (A) (A) (A) (A) (A) (A) (A) (A) (A) (A) (A)
                 (A) (A) (A) (A) (A) (A) (A) (A) (A) (A) (A) (A)
                 (A) (A) (A) (A) (A) (A) (A) (A) (A) (A) (A) (A)
                 (A) (A) (A) (A) (A) (A) (A) (A) (A) (A) (A) (A)
                 (A) (A) (A) (A) (A) (A) (A) (A) (A) (A) (A) (A)
                 (A) (A) (A) (A) (A) (A) (A) (A) (A) (A) (A) (A)
                 (A) (A) (A) (A) (A) (A) (A) (A) (A) (A) (A) (A)
                 (A) (A) (A) (A) (A) (A) (A) (A) (A) (A) (A) (A)
                 (A) (A) (A) (A) (A) (A) (A) (A) (A) (A) (A) (A)
                 (A) (A) (A) (A) (A) (A) (A) (A) (A) (A) (A) (A)
                 (A) (A) (A) (A) (A) (A) (A) (A) (A) (A) (A) (A)
                 (A) (A) (A) (A) (A) (A) (A) (A) (A) (A) (A) (A)
                 (A) (A) (A) (A) (A) (A) (A) (A) (A) (A) (A) (A)
                 (A) (A) (A) (A) (A) (A) (A) (A) (A) (A) (A) (A)
                 (A) (A) (A) (A) (A) (A) (A) (A) (A) (A) (A) (A)
                 (A) (A) (A) (A) (A) (A) (A) (A) (A) (A) (A) (A)
                 (A) (A) (A) (A) (A) (A) (A) (A) (A) (A) (A) (A)
                 (A) (A) (A) (A) (A) (A) (A) (A) (A) (A) (A) (A)
                 (A) (A) (A) (A) (A) (A) (A) (A) (A) (A) (A) (A)
                 (A) (A) (A) (A) (A) (A) (A) (A) (A) (A) (A) (A)
                 (A) (A) (A) (A) (A) (A) (A) (A) (A) (A) (A) (A)
                 (A) (A) (A) (A) (A) (A) (A) (A) (A) (A) (A) (A)
                 (A) (A) (A) (A) (A) (A) (A) (A) (A) (A) (A) (A)
                 (A) (A) (A) (A) (A) (A) (A) (A) (A) (A) (A) (A)
                 (A) (A) (A) (A) (A) (A) (A) (A) (A) (A) (A) (A)
                 (A) (A) (A) (A) (A) (A) (A) (A) (A) (A) (A) (A)
                 (A) (A) (A) (A) (A) (A) (A) (A) (A) (A) (A) (A)
                 (A) (A) (A) (A) (A) (A) (A) (A) (A) (A) (A) (A)
                 (A) (A) (A) (A) (A) (A) (A) (A) (A) (A) (A) (A)
                 (A) (A) (A) (A) (A) (A) (A) (A) (A) (A) (A) (A)
                 (A) (A) (A) (A) (A) (A) (A) (A) (A) (A) (A) (A)
                 (A) (A) (A) (A) (A) (A) (A) (A) (A) (A) (A) (A)
                 (A) (A) (A) (A) (A) (A) (A) (A) (A) (A) (A) (A)
                 (A) (A) (A) (A) (A) (A) (A) (A) (A) (A) (A) (A)
                 (A) (A) (A) (A) (A) (A) (A) (A) (A) (A) (A) (A)
                 (A) (A) (A) (A) (A) (A) (A) (A) (A) (A) (A) (A)
                 (A) (A) (A) (A) (A) (A) (A) (A) (A) (A) (A) (A)
                 (A) (A) (A) (A) (A) (A) (A) (A) (A) (A) (A) (A)
                 (A) (A) (A) (A) (A) (A) (A) (A) (A) (A) (A) (A)
                 (A) (A) (A) (A) (A) (A) (A) (A) (A) (A) (A) (A)
                 (A) (A) (A) (A) (A) (A) (A) (A) (A) (A) (A) (A)
                 (A) (A) (A) (A) (A) (A) (A) (A) (A) (A) (A) (A)
                 (A) (A) (A) (A) (A) (A) (A) (A) (A) (A) (A) (A)
                 (A) (A) (A) (A) (A) (A) (A) (A) (A) (A) (A) (A)
                 (A) (A) (A) (A) (A) (A) (A) (A) (A) (A) (A) (A)
                 (A) (A) (A) (A) (A) (A) (A) (A) (A) (A) (A) (A)
                 (A) (A) (A) (A) (A) (A) (A) (A) (A) (A) (A) (A)
                 (A) (A) (A) (A) (A) (A) (A) (A) (A) (A) (A) (A)
                 (A) (A) (A) (A) (A) (A) (A) (A) (A) (A) (A) (A)
                 (A) (A) (A) (A) (A) (A) (A) (A) (A) (A) (A) (A)
                 (A) (A) (A) (A) (A) (A) (A) (A) (A) (A) (A) (A)
                 (A) (A) (A) (A) (A) (A) (A) (A) (A) (A) (A) (A)
                 (A) (A) (A) (A) (A) (A) (A) (A) (A) (A) (A) (A)
                 (A) (A) (A) (A) (A) (A) (A) (A) (A) (A) (A) (A)
                 (A) (A) (A) (A) (A) (A) (A) (A) (A) (A) (A) (A)
                 (A) (A) (A) (A) (A) (A) (A) (A) (A) (A) (A) (A)
                 (A) (A) (A) (A) (A) (A) (A) (A) (A) (A) (A) (A)
                 (A) (A) (A) (A) (A) (A) (A) (A) (A) (A) (A) (A)
                 (A) (A) (A) (A) (A) (A) (A) (A) (A) (A) (A) (A)
                 (A) (A) (A) (A) (A) (A) (A) (A) (A) (A) (A) (A)
                 (A) (A) (A) (A) (A) (A) (A) (A) (A) (A) (A) (A)
                 (A) (A) (A) (A) (A) (A) (A) (A) (A) (A) (A) (A)
                 (A) (A) (A) (A) (A) (A) (A) (A) (A) (A) (A) (A)
                 (A) (A) (A) (A) (A) (A) (A) (A) (A) (A) (A) (A)
                 (A) (A) (A) (A) (A) (A) (A) (A) (A) (A) (A) (A)
                 (A) (A) (A) (A) (A) (A) (A) (A) (A) (A) (A) (A)
                 (A) (A) (A) (A) (A) (A) (A) (A) (A) (A) (A) (A)
                 (A) (A) (A) (A) (A) (A) (A) (A) (A) (A) (A) (A)
                 (A) (A) (A) (A) (A) (A) (A) (A) (A) (A) (A) (A)
                 (A) (A) (A) (A) (A) (A) (A) (A) (A) (A) (A) (A)
                 (A) (A) (A) (A) (A) (A) (A) (A) (A) (A) (A) (A)
                 (A) (A) (A) (A) (A) (A) (A) (A) (A)
 The electronic state is 1-A.
 Alpha  occ. eigenvalues --  -19.24475 -19.17611 -19.16413 -14.42847 -14.41444
 Alpha  occ. eigenvalues --  -10.34512 -10.32875 -10.30517 -10.29230 -10.26849
 Alpha  occ. eigenvalues --  -10.26385 -10.25023 -10.24811 -10.24663 -10.24328
 Alpha  occ. eigenvalues --  -10.24307 -10.23601  -1.08795  -1.05817  -1.04156
 Alpha  occ. eigenvalues --   -0.95777  -0.93461  -0.87560  -0.81575  -0.77167
 Alpha  occ. eigenvalues --   -0.76416  -0.73903  -0.71713  -0.66777  -0.63861
 Alpha  occ. eigenvalues --   -0.62304  -0.59712  -0.59387  -0.56094  -0.54891
 Alpha  occ. eigenvalues --   -0.52553  -0.50173  -0.49987  -0.47782  -0.47116
 Alpha  occ. eigenvalues --   -0.46916  -0.45605  -0.45057  -0.44275  -0.43645
 Alpha  occ. eigenvalues --   -0.42908  -0.42221  -0.41843  -0.41202  -0.41022
 Alpha  occ. eigenvalues --   -0.39771  -0.39058  -0.37766  -0.37412  -0.35734
 Alpha  occ. eigenvalues --   -0.35090  -0.34878  -0.29729  -0.27508  -0.27103
 Alpha  occ. eigenvalues --   -0.26612  -0.25362  -0.23492
 Alpha virt. eigenvalues --   -0.00888  -0.00097   0.00941   0.01975   0.02225
 Alpha virt. eigenvalues --    0.02943   0.03677   0.04912   0.05310   0.06358
 Alpha virt. eigenvalues --    0.06892   0.07805   0.09264   0.09975   0.10615
 Alpha virt. eigenvalues --    0.10855   0.11367   0.12467   0.12734   0.13220
 Alpha virt. eigenvalues --    0.15040   0.15939   0.16571   0.17846   0.19555
 Alpha virt. eigenvalues --    0.20044   0.21301   0.21752   0.22367   0.23235
 Alpha virt. eigenvalues --    0.24034   0.24273   0.25241   0.25885   0.26666
 Alpha virt. eigenvalues --    0.27243   0.27959   0.28415   0.28863   0.30206
 Alpha virt. eigenvalues --    0.30661   0.31295   0.31654   0.31985   0.32375
 Alpha virt. eigenvalues --    0.33215   0.33570   0.33692   0.34213   0.35362
 Alpha virt. eigenvalues --    0.35542   0.36296   0.36473   0.37103   0.37553
 Alpha virt. eigenvalues --    0.38042   0.38401   0.39019   0.39749   0.39979
 Alpha virt. eigenvalues --    0.40346   0.41080   0.41322   0.41605   0.41961
 Alpha virt. eigenvalues --    0.42182   0.42943   0.42954   0.43624   0.44540
 Alpha virt. eigenvalues --    0.44901   0.45355   0.46024   0.46394   0.46647
 Alpha virt. eigenvalues --    0.48140   0.48664   0.49251   0.49968   0.50681
 Alpha virt. eigenvalues --    0.50835   0.51437   0.51888   0.52794   0.53385
 Alpha virt. eigenvalues --    0.54348   0.54887   0.56171   0.56766   0.58155
 Alpha virt. eigenvalues --    0.59418   0.59704   0.59951   0.61383   0.61926
 Alpha virt. eigenvalues --    0.62335   0.62692   0.62968   0.64890   0.65175
 Alpha virt. eigenvalues --    0.65692   0.67305   0.67979   0.68270   0.68909
 Alpha virt. eigenvalues --    0.70068   0.70930   0.71800   0.71964   0.72442
 Alpha virt. eigenvalues --    0.72891   0.74086   0.74929   0.75572   0.76306
 Alpha virt. eigenvalues --    0.77583   0.78318   0.78612   0.78984   0.79511
 Alpha virt. eigenvalues --    0.80948   0.81514   0.82349   0.82464   0.82830
 Alpha virt. eigenvalues --    0.84074   0.85040   0.85528   0.86115   0.86431
 Alpha virt. eigenvalues --    0.88146   0.88838   0.89981   0.90793   0.90920
 Alpha virt. eigenvalues --    0.92486   0.92657   0.93459   0.94102   0.95250
 Alpha virt. eigenvalues --    0.95830   0.96210   0.96701   0.96980   0.98467
 Alpha virt. eigenvalues --    0.98923   0.99886   1.00032   1.00856   1.01448
 Alpha virt. eigenvalues --    1.02476   1.03450   1.04231   1.04938   1.05859
 Alpha virt. eigenvalues --    1.06567   1.07344   1.08299   1.08650   1.09570
 Alpha virt. eigenvalues --    1.10043   1.11242   1.13072   1.13404   1.14134
 Alpha virt. eigenvalues --    1.14987   1.15404   1.15952   1.16955   1.17147
 Alpha virt. eigenvalues --    1.17654   1.18208   1.18856   1.19790   1.20926
 Alpha virt. eigenvalues --    1.21226   1.21432   1.22118   1.22562   1.23117
 Alpha virt. eigenvalues --    1.23744   1.24090   1.24358   1.25186   1.25708
 Alpha virt. eigenvalues --    1.26084   1.26109   1.26950   1.27469   1.27827
 Alpha virt. eigenvalues --    1.27865   1.29009   1.30155   1.30679   1.31294
 Alpha virt. eigenvalues --    1.31627   1.32502   1.32996   1.33561   1.34775
 Alpha virt. eigenvalues --    1.35187   1.35742   1.36559   1.37757   1.38595
 Alpha virt. eigenvalues --    1.39588   1.41124   1.42139   1.42242   1.44397
 Alpha virt. eigenvalues --    1.46691   1.46769   1.47732   1.48772   1.49854
 Alpha virt. eigenvalues --    1.52942   1.53513   1.54558   1.57403   1.57661
 Alpha virt. eigenvalues --    1.59090   1.60754   1.62015   1.62674   1.63795
 Alpha virt. eigenvalues --    1.65384   1.66608   1.69049   1.70612   1.72521
 Alpha virt. eigenvalues --    1.73920   1.74881   1.77000   1.77577   1.80776
 Alpha virt. eigenvalues --    1.81231   1.81745   1.83972   1.84660   1.86127
 Alpha virt. eigenvalues --    1.86679   1.87582   1.89412   1.89485   1.90690
 Alpha virt. eigenvalues --    1.92441   1.94313   1.94528   1.96135   1.97016
 Alpha virt. eigenvalues --    1.98288   1.98725   2.01996   2.02999   2.03108
 Alpha virt. eigenvalues --    2.04002   2.05063   2.06899   2.07929   2.08478
 Alpha virt. eigenvalues --    2.10329   2.12710   2.13632   2.14125   2.15181
 Alpha virt. eigenvalues --    2.16057   2.18155   2.18309   2.20408   2.21629
 Alpha virt. eigenvalues --    2.22142   2.22414   2.24788   2.25630   2.26886
 Alpha virt. eigenvalues --    2.27789   2.29208   2.30938   2.31609   2.33519
 Alpha virt. eigenvalues --    2.34231   2.35976   2.36506   2.37328   2.38133
 Alpha virt. eigenvalues --    2.39445   2.40561   2.40830   2.42370   2.42727
 Alpha virt. eigenvalues --    2.44487   2.45924   2.48215   2.48628   2.49394
 Alpha virt. eigenvalues --    2.51100   2.51543   2.52007   2.53447   2.54457
 Alpha virt. eigenvalues --    2.56620   2.56905   2.57634   2.58450   2.60827
 Alpha virt. eigenvalues --    2.63340   2.64074   2.65451   2.66585   2.67194
 Alpha virt. eigenvalues --    2.67528   2.68752   2.69644   2.69836   2.70602
 Alpha virt. eigenvalues --    2.71158   2.71443   2.72023   2.72403   2.72669
 Alpha virt. eigenvalues --    2.73903   2.74528   2.74815   2.75678   2.76785
 Alpha virt. eigenvalues --    2.77918   2.78770   2.79378   2.79963   2.81629
 Alpha virt. eigenvalues --    2.82025   2.83697   2.84376   2.84682   2.86362
 Alpha virt. eigenvalues --    2.86902   2.87716   2.88253   2.89032   2.89564
 Alpha virt. eigenvalues --    2.90226   2.90567   2.91326   2.92592   2.92928
 Alpha virt. eigenvalues --    2.93431   2.94336   2.94956   2.95499   2.95978
 Alpha virt. eigenvalues --    2.96678   2.97111   2.97775   2.98469   2.98681
 Alpha virt. eigenvalues --    3.00021   3.00162   3.01196   3.01539   3.02536
 Alpha virt. eigenvalues --    3.03227   3.03535   3.04279   3.04483   3.05333
 Alpha virt. eigenvalues --    3.05936   3.06825   3.07626   3.08649   3.09149
 Alpha virt. eigenvalues --    3.10204   3.11440   3.12378   3.12715   3.13730
 Alpha virt. eigenvalues --    3.14654   3.14959   3.15862   3.16892   3.17065
 Alpha virt. eigenvalues --    3.18155   3.19240   3.19507   3.20034   3.21811
 Alpha virt. eigenvalues --    3.22205   3.22866   3.23554   3.23952   3.25330
 Alpha virt. eigenvalues --    3.26573   3.27189   3.27879   3.28247   3.28654
 Alpha virt. eigenvalues --    3.29479   3.29551   3.30172   3.30871   3.31353
 Alpha virt. eigenvalues --    3.31850   3.32596   3.33612   3.33749   3.34287
 Alpha virt. eigenvalues --    3.35001   3.35916   3.36177   3.37765   3.38941
 Alpha virt. eigenvalues --    3.40032   3.40719   3.42323   3.42512   3.43149
 Alpha virt. eigenvalues --    3.43332   3.44541   3.45030   3.45631   3.46568
 Alpha virt. eigenvalues --    3.46931   3.48451   3.50506   3.50710   3.52235
 Alpha virt. eigenvalues --    3.52487   3.54387   3.54966   3.56045   3.56680
 Alpha virt. eigenvalues --    3.58372   3.59048   3.60147   3.60851   3.61165
 Alpha virt. eigenvalues --    3.61852   3.63313   3.64341   3.65220   3.66036
 Alpha virt. eigenvalues --    3.67084   3.68243   3.69516   3.70297   3.71169
 Alpha virt. eigenvalues --    3.72184   3.72696   3.73315   3.73800   3.74561
 Alpha virt. eigenvalues --    3.74788   3.75954   3.76484   3.77677   3.78005
 Alpha virt. eigenvalues --    3.78891   3.79381   3.79712   3.81066   3.82052
 Alpha virt. eigenvalues --    3.82498   3.83504   3.84344   3.85375   3.86165
 Alpha virt. eigenvalues --    3.86590   3.87066   3.87873   3.89022   3.89775
 Alpha virt. eigenvalues --    3.91411   3.92473   3.93539   3.93644   3.94075
 Alpha virt. eigenvalues --    3.95217   3.96097   3.98677   3.99115   3.99973
 Alpha virt. eigenvalues --    4.01495   4.02731   4.03667   4.05169   4.05825
 Alpha virt. eigenvalues --    4.06256   4.06684   4.07485   4.07929   4.08799
 Alpha virt. eigenvalues --    4.10101   4.11344   4.11666   4.12992   4.14727
 Alpha virt. eigenvalues --    4.15510   4.16112   4.17275   4.17702   4.18485
 Alpha virt. eigenvalues --    4.19282   4.20110   4.20758   4.22274   4.22601
 Alpha virt. eigenvalues --    4.24162   4.25178   4.25236   4.25685   4.26490
 Alpha virt. eigenvalues --    4.27585   4.28027   4.28770   4.29513   4.30966
 Alpha virt. eigenvalues --    4.32362   4.33294   4.33886   4.36394   4.38617
 Alpha virt. eigenvalues --    4.39445   4.40360   4.41669   4.42732   4.44361
 Alpha virt. eigenvalues --    4.45339   4.47466   4.47782   4.50274   4.51324
 Alpha virt. eigenvalues --    4.52948   4.54611   4.56663   4.57643   4.59254
 Alpha virt. eigenvalues --    4.59457   4.60273   4.61335   4.61943   4.63123
 Alpha virt. eigenvalues --    4.64566   4.66098   4.66782   4.67767   4.68494
 Alpha virt. eigenvalues --    4.68967   4.69363   4.70134   4.71337   4.72846
 Alpha virt. eigenvalues --    4.73290   4.75305   4.75537   4.78347   4.80482
 Alpha virt. eigenvalues --    4.80874   4.81694   4.83852   4.85308   4.86723
 Alpha virt. eigenvalues --    4.87018   4.88171   4.89305   4.91337   4.91540
 Alpha virt. eigenvalues --    4.92453   4.93330   4.94430   4.95565   4.97025
 Alpha virt. eigenvalues --    4.98538   4.99124   5.00141   5.01716   5.02126
 Alpha virt. eigenvalues --    5.04292   5.05038   5.05681   5.07339   5.09850
 Alpha virt. eigenvalues --    5.10363   5.11690   5.13087   5.13823   5.14837
 Alpha virt. eigenvalues --    5.15325   5.15964   5.16234   5.17865   5.18661
 Alpha virt. eigenvalues --    5.19455   5.22674   5.24276   5.25992   5.28582
 Alpha virt. eigenvalues --    5.28885   5.33161   5.35286   5.35954   5.38150
 Alpha virt. eigenvalues --    5.42137   5.42954   5.45208   5.47037   5.49345
 Alpha virt. eigenvalues --    5.51652   5.52588   5.52657   5.54916   5.55695
 Alpha virt. eigenvalues --    5.56854   5.57888   5.59548   5.61006   5.62308
 Alpha virt. eigenvalues --    5.64063   5.64921   5.66455   5.66730   5.67426
 Alpha virt. eigenvalues --    5.68783   5.69731   5.72723   5.73485   5.75372
 Alpha virt. eigenvalues --    5.75780   5.78524   5.79148   5.81105   5.82062
 Alpha virt. eigenvalues --    5.84222   5.86486   5.90395   5.92195   5.97754
 Alpha virt. eigenvalues --    5.97938   5.99652   6.04172   6.07969   6.10668
 Alpha virt. eigenvalues --    6.17815   6.18885   6.20094   6.23345   6.26477
 Alpha virt. eigenvalues --    6.46644   6.47133   6.52186   6.52831   6.56817
 Alpha virt. eigenvalues --    6.61294   6.62860   6.63485   6.64452   6.66789
 Alpha virt. eigenvalues --    6.79087   6.80659   6.80819   6.88716   6.89500
 Alpha virt. eigenvalues --    6.91353   6.92070   6.93082   6.95251   7.07115
 Alpha virt. eigenvalues --    7.17905   7.19412   7.22713   7.28522   7.29796
 Alpha virt. eigenvalues --    7.68058   8.01126   8.11476   8.13015   8.13913
 Alpha virt. eigenvalues --    8.19007   8.27331   8.30616   8.37519   8.67515
 Alpha virt. eigenvalues --    8.74275   8.75938   8.77697   8.80703   8.82394
 Alpha virt. eigenvalues --    8.84048   8.84572   8.85763   8.87881   8.90036
 Alpha virt. eigenvalues --    8.93723   8.95311   8.98209   9.00094   9.04271
 Alpha virt. eigenvalues --    9.08993   9.15211   9.19631   9.21482   9.31837
 Alpha virt. eigenvalues --    9.36256   9.40777   9.41793   9.46079   9.48592
 Alpha virt. eigenvalues --    9.59162   9.62788   9.78649   9.82046  10.03415
 Alpha virt. eigenvalues --   10.08728  10.11643  10.12743  10.13697  10.17143
[...]
 Alpha virt. eigenvalues --    6.78829   6.81145   6.86262   6.86462   6.88689
 Alpha virt. eigenvalues --    6.91513   6.96485   7.08849   7.09324   7.12585
 Alpha virt. eigenvalues --    7.15697   7.17618   7.29468   7.44082   8.79527
 Alpha virt. eigenvalues --    9.58228   9.88636  11.93752  12.14504  12.32157
 Alpha virt. eigenvalues --   12.41832  12.72843  12.83629  12.93466  13.23110
 Alpha virt. eigenvalues --   13.50657  13.54084  13.65827  13.73654  13.97249
 Alpha virt. eigenvalues --   15.59970
          Condensed to atoms (all electrons):
               1          2          3          4          5          6
     1  C    5.461256   0.185662   0.014090  -0.038881  -0.015967   0.296510
     2  C    0.185662   5.543780   0.204549   0.001196  -0.046904   0.042707
     3  C    0.014090   0.204549   5.358587   0.349307  -0.036078  -0.074990
     4  C   -0.038881   0.001196   0.349307   5.088187   0.453833  -0.023793
     5  C   -0.015967  -0.046904  -0.036078   0.453833   5.028753   0.388298
     6  C    0.296510   0.042707  -0.074990  -0.023793   0.388298   4.857324
     7  H    0.450462  -0.039944   0.009669  -0.000695   0.004330  -0.070697
     8  H   -0.018740   0.436050  -0.085148   0.003904  -0.000959   0.006358
     9  H   -0.003859   0.010252  -0.089337   0.454691  -0.035003   0.011714
    10  H    0.014231  -0.005900   0.014417  -0.055889   0.452622  -0.080498
    11  C    0.005917  -0.031302   0.230403  -0.048931   0.004569  -0.001381
    12  H    0.000327  -0.008363  -0.063970   0.006150   0.000058  -0.000062
    13  H   -0.000357   0.007904  -0.029753  -0.010472   0.000150   0.000048
    14  C    0.001117  -0.026088  -0.021872  -0.002601   0.001230  -0.000161
    15  H   -0.000095   0.001437  -0.008334   0.001151  -0.000071   0.000026
    16  C    0.001702   0.000936   0.037302  -0.002937   0.000822  -0.000934
    17  O   -0.089912   0.013760  -0.000585   0.002705  -0.048735   0.393259
    18  H   -0.005566   0.004885  -0.000474  -0.000643   0.002096  -0.043175
    19  O    0.001305  -0.007717  -0.002714   0.001296   0.001117  -0.000561
    20  N   -0.000048   0.000525   0.003793   0.000166  -0.000015   0.000002
    21  H   -0.000002   0.000011   0.000879  -0.000046   0.000003  -0.000001
    22  N   -0.000445   0.015948  -0.027738   0.000077  -0.000177   0.000409
    23  H   -0.000045   0.001377  -0.002842  -0.000040  -0.000012   0.000010
    24  C    0.000001  -0.000111   0.000004   0.000020   0.000001   0.000000
    25  C    0.000000   0.000003   0.000017  -0.000001   0.000000   0.000000
    26  H    0.000000   0.000000  -0.000004   0.000000   0.000000   0.000000
    27  H    0.000000  -0.000001   0.000003   0.000000   0.000000   0.000000
    28  H    0.000000  -0.000002  -0.000007   0.000001   0.000000   0.000000
    29  C   -0.001157  -0.002340   0.001478   0.000020   0.000016  -0.000005
    30  H    0.001164  -0.001304   0.001960  -0.000203   0.000030  -0.000119
    31  H    0.000049  -0.000391   0.000199   0.000009   0.000001  -0.000011
    32  H    0.000011   0.000456  -0.000190  -0.000025  -0.000008   0.000005
    33  O    0.000000   0.000008   0.000071  -0.000015   0.000000   0.000000
               7          8          9         10         11         12
     1  C    0.450462  -0.018740  -0.003859   0.014231   0.005917   0.000327
     2  C   -0.039944   0.436050   0.010252  -0.005900  -0.031302  -0.008363
     3  C    0.009669  -0.085148  -0.089337   0.014417   0.230403  -0.063970
     4  C   -0.000695   0.003904   0.454691  -0.055889  -0.048931   0.006150
     5  C    0.004330  -0.000959  -0.035003   0.452622   0.004569   0.000058
     6  C   -0.070697   0.006358   0.011714  -0.080498  -0.001381  -0.000062
     7  H    0.530110  -0.006830   0.000040  -0.000231  -0.000346  -0.000052
     8  H   -0.006830   0.484900  -0.000240   0.000057   0.003658   0.000460
     9  H    0.000040  -0.000240   0.509363  -0.009531   0.002987   0.000248
    10  H   -0.000231   0.000057  -0.009531   0.546913  -0.000203   0.000019
    11  C   -0.000346   0.003658   0.002987  -0.000203   5.353523   0.439223
    12  H   -0.000052   0.000460   0.000248   0.000019   0.439223   0.489646
    13  H    0.000014   0.000631   0.000799  -0.000019   0.431760  -0.011405
    14  C    0.000020  -0.001090  -0.001642   0.000012   0.177533  -0.046239
    15  H   -0.000003  -0.000036   0.000835  -0.000006  -0.002845   0.003740
    16  C    0.000151   0.000122  -0.000338   0.000043  -0.071500  -0.002806
    17  O   -0.004127  -0.000122  -0.000134   0.006347   0.000002   0.000000
    18  H    0.004567  -0.000005   0.000046  -0.000973  -0.000007   0.000000
    19  O    0.000055  -0.000470  -0.000032   0.000071  -0.001827   0.000073
    20  N    0.000000  -0.000510  -0.000007   0.000000  -0.037664  -0.006501
    21  H    0.000000   0.000107   0.000003   0.000000  -0.000188   0.006860
    22  N   -0.000255   0.004860   0.000023  -0.000003   0.020482  -0.003617
    23  H   -0.000021   0.000829   0.000002   0.000000   0.005556   0.002692
    24  C    0.000000  -0.000064  -0.000010   0.000000   0.007465   0.000039
    25  C    0.000000  -0.000002  -0.000001   0.000000  -0.000157  -0.000117
    26  H    0.000000   0.000000   0.000000   0.000000  -0.000021   0.000024
    27  H    0.000000   0.000000   0.000000   0.000000   0.000009  -0.000021
    28  H    0.000000  -0.000001   0.000000   0.000000  -0.000265  -0.000029
    29  C    0.000096   0.000178  -0.000005   0.000001  -0.001612  -0.000111
    30  H    0.000581  -0.001747  -0.000002   0.000003  -0.000702   0.000031
    31  H    0.000007   0.000119   0.000000   0.000000  -0.000107   0.000034
    32  H   -0.000018   0.000192   0.000000   0.000000   0.000136  -0.000019
    33  O    0.000000   0.000003  -0.000005   0.000000   0.001593  -0.000026
              13         14         15         16         17         18
     1  C   -0.000357   0.001117  -0.000095   0.001702  -0.089912  -0.005566
     2  C    0.007904  -0.026088   0.001437   0.000936   0.013760   0.004885
     3  C   -0.029753  -0.021872  -0.008334   0.037302  -0.000585  -0.000474
     4  C   -0.010472  -0.002601   0.001151  -0.002937   0.002705  -0.000643
     5  C    0.000150   0.001230  -0.000071   0.000822  -0.048735   0.002096
     6  C    0.000048  -0.000161   0.000026  -0.000934   0.393259  -0.043175
     7  H    0.000014   0.000020  -0.000003   0.000151  -0.004127   0.004567
     8  H    0.000631  -0.001090  -0.000036   0.000122  -0.000122  -0.000005
     9  H    0.000799  -0.001642   0.000835  -0.000338  -0.000134   0.000046
    10  H   -0.000019   0.000012  -0.000006   0.000043   0.006347  -0.000973
    11  C    0.431760   0.177533  -0.002845  -0.071500   0.000002  -0.000007
    12  H   -0.011405  -0.046239   0.003740  -0.002806   0.000000   0.000000
    13  H    0.475153  -0.062237  -0.006126   0.008539  -0.000001   0.000000
    14  C   -0.062237   5.514446   0.429584   0.185075   0.000000   0.000000
    15  H   -0.006126   0.429584   0.447432  -0.075408   0.000000   0.000000
    16  C    0.008539   0.185075  -0.075408   4.840297   0.000001  -0.000001
    17  O   -0.000001   0.000000   0.000000   0.000001   7.661470   0.359180
    18  H    0.000000   0.000000   0.000000  -0.000001   0.359180   0.492919
    19  O   -0.000565  -0.064961   0.007605   0.730333  -0.000001   0.000000
    20  N    0.000983   0.149394  -0.031361  -0.043615   0.000000   0.000000
    21  H    0.002208  -0.031619   0.001126   0.003829   0.000000   0.000000
    22  N   -0.000151  -0.102652   0.008519   0.227654   0.000000   0.000000
    23  H   -0.000003  -0.005535   0.000873  -0.031579   0.000000   0.000000
    24  C   -0.000914  -0.079404  -0.001916  -0.001910   0.000000   0.000000
    25  C   -0.000035   0.011764   0.001528  -0.003176   0.000000   0.000000
    26  H   -0.000008  -0.000252   0.000123  -0.000180   0.000000   0.000000
    27  H    0.000001  -0.000586  -0.000162   0.000623   0.000000   0.000000
    28  H   -0.000004   0.000484  -0.000237   0.000123   0.000000   0.000000
    29  C    0.000043   0.010371  -0.000622  -0.049046   0.000001  -0.000001
    30  H   -0.000023  -0.000504  -0.000180   0.006758  -0.000017  -0.000004
    31  H    0.000001   0.000549  -0.000005   0.010304   0.000000   0.000000
    32  H    0.000009   0.001061   0.000062  -0.010275   0.000000   0.000000
    33  O   -0.000008   0.017110   0.011931  -0.000415   0.000000   0.000000
              19         20         21         22         23         24
     1  C    0.001305  -0.000048  -0.000002  -0.000445  -0.000045   0.000001
     2  C   -0.007717   0.000525   0.000011   0.015948   0.001377  -0.000111
     3  C   -0.002714   0.003793   0.000879  -0.027738  -0.002842   0.000004
     4  C    0.001296   0.000166  -0.000046   0.000077  -0.000040   0.000020
     5  C    0.001117  -0.000015   0.000003  -0.000177  -0.000012   0.000001
     6  C   -0.000561   0.000002  -0.000001   0.000409   0.000010   0.000000
     7  H    0.000055   0.000000   0.000000  -0.000255  -0.000021   0.000000
     8  H   -0.000470  -0.000510   0.000107   0.004860   0.000829  -0.000064
     9  H   -0.000032  -0.000007   0.000003   0.000023   0.000002  -0.000010
    10  H    0.000071   0.000000   0.000000  -0.000003   0.000000   0.000000
    11  C   -0.001827  -0.037664  -0.000188   0.020482   0.005556   0.007465
    12  H    0.000073  -0.006501   0.006860  -0.003617   0.002692   0.000039
    13  H   -0.000565   0.000983   0.002208  -0.000151  -0.000003  -0.000914
    14  C   -0.064961   0.149394  -0.031619  -0.102652  -0.005535  -0.079404
    15  H    0.007605  -0.031361   0.001126   0.008519   0.000873  -0.001916
    16  C    0.730333  -0.043615   0.003829   0.227654  -0.031579  -0.001910
    17  O   -0.000001   0.000000   0.000000   0.000000   0.000000   0.000000
    18  H    0.000000   0.000000   0.000000   0.000000   0.000000   0.000000
    19  O    7.805762   0.005065  -0.000322  -0.127414   0.005645  -0.001514
    20  N    0.005065   6.684321   0.359274   0.004393   0.025616   0.319222
    21  H   -0.000322   0.359274   0.516064  -0.001534  -0.000319  -0.016772
    22  N   -0.127414   0.004393  -0.001534   6.568484   0.380513   0.013350
    23  H    0.005645   0.025616  -0.000319   0.380513   0.529361  -0.004100
    24  C   -0.001514   0.319222  -0.016772   0.013350  -0.004100   4.596339
    25  C   -0.000012  -0.067415  -0.000660  -0.000149   0.000564   0.271256
    26  H    0.000001   0.000215  -0.000470   0.000009   0.000101  -0.026862
    27  H   -0.000005  -0.001444   0.000414   0.000253  -0.000422  -0.022672
    28  H    0.000001   0.013496  -0.000584   0.000058   0.000012  -0.057449
    29  C    0.008070  -0.001756   0.000102   0.282593  -0.034838  -0.000055
    30  H    0.003600  -0.000103   0.000000  -0.063696   0.000173   0.000196
    31  H    0.001524  -0.000157   0.000035  -0.030595  -0.008370  -0.000071
    32  H    0.006513  -0.000207   0.000014  -0.037789   0.003822  -0.000427
    33  O   -0.000850  -0.137109   0.004870  -0.004032  -0.001891   0.725833
              25         26         27         28         29         30
     1  C    0.000000   0.000000   0.000000   0.000000  -0.001157   0.001164
     2  C    0.000003   0.000000  -0.000001  -0.000002  -0.002340  -0.001304
     3  C    0.000017  -0.000004   0.000003  -0.000007   0.001478   0.001960
     4  C   -0.000001   0.000000   0.000000   0.000001   0.000020  -0.000203
     5  C    0.000000   0.000000   0.000000   0.000000   0.000016   0.000030
     6  C    0.000000   0.000000   0.000000   0.000000  -0.000005  -0.000119
     7  H    0.000000   0.000000   0.000000   0.000000   0.000096   0.000581
     8  H   -0.000002   0.000000   0.000000  -0.000001   0.000178  -0.001747
     9  H   -0.000001   0.000000   0.000000   0.000000  -0.000005  -0.000002
    10  H    0.000000   0.000000   0.000000   0.000000   0.000001   0.000003
    11  C   -0.000157  -0.000021   0.000009  -0.000265  -0.001612  -0.000702
    12  H   -0.000117   0.000024  -0.000021  -0.000029  -0.000111   0.000031
    13  H   -0.000035  -0.000008   0.000001  -0.000004   0.000043  -0.000023
    14  C    0.011764  -0.000252  -0.000586   0.000484   0.010371  -0.000504
    15  H    0.001528   0.000123  -0.000162  -0.000237  -0.000622  -0.000180
    16  C   -0.003176  -0.000180   0.000623   0.000123  -0.049046   0.006758
    17  O    0.000000   0.000000   0.000000   0.000000   0.000001  -0.000017
    18  H    0.000000   0.000000   0.000000   0.000000  -0.000001  -0.000004
    19  O   -0.000012   0.000001  -0.000005   0.000001   0.008070   0.003600
    20  N   -0.067415   0.000215  -0.001444   0.013496  -0.001756  -0.000103
    21  H   -0.000660  -0.000470   0.000414  -0.000584   0.000102   0.000000
    22  N   -0.000149   0.000009   0.000253   0.000058   0.282593  -0.063696
    23  H    0.000564   0.000101  -0.000422   0.000012  -0.034838   0.000173
    24  C    0.271256  -0.026862  -0.022672  -0.057449  -0.000055   0.000196
    25  C    5.005537   0.390698   0.382254   0.394141  -0.000044  -0.000001
    26  H    0.390698   0.560502  -0.022698  -0.025206  -0.000002   0.000000
    27  H    0.382254  -0.022698   0.570759  -0.027262   0.000019   0.000003
    28  H    0.394141  -0.025206  -0.027262   0.601847   0.000001   0.000000
    29  C   -0.000044  -0.000002   0.000019   0.000001   4.804109   0.389231
    30  H   -0.000001   0.000000   0.000003   0.000000   0.389231   0.625994
    31  H   -0.000009   0.000000   0.000008   0.000001   0.391918  -0.031760
    32  H   -0.000008  -0.000001  -0.000003  -0.000001   0.406729  -0.051359
    33  O   -0.068405   0.001737   0.001321   0.004526   0.000133   0.000005
              31         32         33
     1  C    0.000049   0.000011   0.000000
     2  C   -0.000391   0.000456   0.000008
     3  C    0.000199  -0.000190   0.000071
     4  C    0.000009  -0.000025  -0.000015
     5  C    0.000001  -0.000008   0.000000
     6  C   -0.000011   0.000005   0.000000
     7  H    0.000007  -0.000018   0.000000
     8  H    0.000119   0.000192   0.000003
     9  H    0.000000   0.000000  -0.000005
    10  H    0.000000   0.000000   0.000000
    11  C   -0.000107   0.000136   0.001593
    12  H    0.000034  -0.000019  -0.000026
    13  H    0.000001   0.000009  -0.000008
    14  C    0.000549   0.001061   0.017110
    15  H   -0.000005   0.000062   0.011931
    16  C    0.010304  -0.010275  -0.000415
    17  O    0.000000   0.000000   0.000000
    18  H    0.000000   0.000000   0.000000
    19  O    0.001524   0.006513  -0.000850
    20  N   -0.000157  -0.000207  -0.137109
    21  H    0.000035   0.000014   0.004870
    22  N   -0.030595  -0.037789  -0.004032
    23  H   -0.008370   0.003822  -0.001891
    24  C   -0.000071  -0.000427   0.725833
    25  C   -0.000009  -0.000008  -0.068405
    26  H    0.000000  -0.000001   0.001737
    27  H    0.000008  -0.000003   0.001321
    28  H    0.000001  -0.000001   0.004526
    29  C    0.391918   0.406729   0.000133
    30  H   -0.031760  -0.051359   0.000005
    31  H    0.603391  -0.024536   0.000005
    32  H   -0.024536   0.574945   0.000247
    33  O    0.000005   0.000247   7.820651
 Mulliken charges:
               1
     1  C   -0.258732
     2  C   -0.301079
     3  C    0.217306
     4  C   -0.177539
     5  C   -0.154000
     6  C    0.299717
     7  H    0.123114
     8  H    0.173539
     9  H    0.149144
    10  H    0.118517
    11  C   -0.485758
    12  H    0.193716
    13  H    0.193837
    14  C   -0.052305
    15  H    0.211436
    16  C    0.239507
    17  O   -0.293092
    18  H    0.187155
    19  O   -0.369069
    20  N   -0.238552
    21  H    0.156716
    22  N   -0.127377
    23  H    0.132869
    24  C    0.280527
    25  C   -0.317570
    26  H    0.122295
    27  H    0.119609
    28  H    0.096357
    29  C   -0.203517
    30  H    0.121995
    31  H    0.087858
    32  H    0.130663
    33  O   -0.377289
 Sum of Mulliken charges =   0.00000
 Mulliken charges with hydrogens summed into heavy atoms:
               1
     1  C   -0.135618
     2  C   -0.127540
     3  C    0.217306
     4  C   -0.028396
     5  C   -0.035484
     6  C    0.299717
    11  C   -0.098205
    14  C    0.159131
    16  C    0.239507
    17  O   -0.105936
    19  O   -0.369069
    20  N   -0.081836
    22  N    0.005492
    24  C    0.280527
    25  C    0.020692
    29  C    0.136999
    33  O   -0.377289
 Electronic spatial extent (au):  <R**2>=           4821.5541
 Charge=              0.0000 electrons
 Dipole moment (field-independent basis, Debye):
    X=             -0.5769    Y=             -0.2336    Z=             -7.0552  Tot=              7.0826
 Quadrupole moment (field-independent basis, Debye-Ang):
   XX=            -94.7329   YY=            -90.7794   ZZ=           -104.5856
   XY=              9.2197   XZ=              9.2200   YZ=             -7.2451
 Traceless Quadrupole moment (field-independent basis, Debye-Ang):
   XX=              1.9664   YY=              5.9199   ZZ=             -7.8863
   XY=              9.2197   XZ=              9.2200   YZ=             -7.2451
 Octapole moment (field-independent basis, Debye-Ang**2):
  XXX=            -12.9077  YYY=             23.2586  ZZZ=            -10.8865  XYY=             -2.7712
  XXY=             23.5454  XXZ=            -64.1994  XZZ=              6.1595  YZZ=             -2.1994
  YYZ=              2.1520  XYZ=            -13.1672
 Hexadecapole moment (field-independent basis, Debye-Ang**3):
 XXXX=          -4499.0003 YYYY=           -928.2258 ZZZZ=           -536.4681 XXXY=            263.9739
 XXXZ=             10.8477 YYYX=             20.3580 YYYZ=            -13.3856 ZZZX=             37.4836
 ZZZY=            -14.9619 XXYY=           -890.0778 XXZZ=           -911.2526 YYZZ=           -239.2652
 XXYZ=            -62.3086 YYXZ=              7.8382 ZZXY=              9.1670
 N-N= 1.232030894341D+03 E-N=-4.334646775055D+03  KE= 7.961818087683D+02
 Calculating spin-rotation constants.
 Leave Link  601 at Wed Jun 25 06:58:22 2014, MaxMem=  4294967296 cpu:        95.4
 (Enter /home/ztw1e12/g09/l9999.exe)

 Test job not archived.
 1\1\GINC-GREEN0597\SP\RM06\Gen\C12H16N2O3\ROOT\25-Jun-2014\0\\#P Geom=
 AllCheck Guess=TCheck SCRF=Check GenChk RM06/ChkBas NMR=ReadFC IOp(3/6
 =22)\\NMR spin-spin scan\\0,1\C,0,2.465046,-0.761054,1.947434\C,0,1.88
 9519,-0.107131,0.870657\C,0,1.350614,-0.813679,-0.195196\C,0,1.412982,
 -2.203196,-0.160271\C,0,1.984901,-2.871745,0.904058\C,0,2.509904,-2.14
 6707,1.964883\H,0,2.887823,-0.202606,2.774671\H,0,1.85818,0.976831,0.8
 6169\H,0,0.995574,-2.77071,-0.985208\H,0,2.033094,-3.952961,0.92782\C,
 0,0.659876,-0.114742,-1.324722\H,0,1.041012,0.910144,-1.377093\H,0,0.8
 83923,-0.592982,-2.279181\C,0,-0.871974,-0.028453,-1.177258\H,0,-1.338
 616,-0.926004,-1.590748\C,0,-1.266789,-0.015202,0.293624\O,0,3.064038,
 -2.844062,2.995476\H,0,3.389886,-2.227382,3.660651\O,0,-1.559053,-1.06
 0658,0.870019\N,0,-1.345629,1.144732,-1.879321\H,0,-0.672375,1.760293,
 -2.309708\N,0,-1.221748,1.165391,0.914943\H,0,-0.927736,1.973999,0.390
 336\C,0,-2.660137,1.374242,-2.064558\C,0,-3.021653,2.585246,-2.85827\H
 ,0,-3.643044,2.27936,-3.699464\H,0,-3.622401,3.246239,-2.233547\H,0,-2
 .157792,3.132159,-3.229352\C,0,-1.398129,1.274883,2.344181\H,0,-0.6313
 41,0.71109,2.880694\H,0,-1.328368,2.320195,2.629889\H,0,-2.374066,0.89
 5599,2.646785\O,0,-3.51468,0.626403,-1.595044\\Version=EM64L-G09RevD.0
 1\State=1-A\HF=-801.856818\RMSD=4.817e-09\Dipole=1.5971309,2.2409667,-
 0.4379548\Quadrupole=-12.7045842,3.3597619,9.3448223,-2.7355411,3.6589
 17,0.2261627\PG=C01 [X(C12H16N2O3)]\\@


 THERE IS SOMETHING FASCINATING ABOUT SCIENCE.
 ONE GETS SUCH WHOLESALE CONJECTURE OUT OF SUCH TRIFLING INVESTMENTS.

                                                       -- MARK TWAIN
 Job cpu time:       3 days 11 hours 48 minutes 37.5 seconds.
 File lengths (MBytes):  RWF=   3656 Int=      0 D2E=      0 Chk=     64 Scr=      8
 Normal termination of Gaussian 09 at Wed Jun 25 06:58:23 2014.
