 Entering Gaussian System, Link 0=g09
 Input=scan_input_25.gjf
 Output=scan_input_25.log
 Initial command:
 /home/ztw1e12/g09/l1.exe "/home/ztw1e12/tyrosine_scan/tyrosine_chi1_scan/Gau-4334.inp" -scrdir="/home/ztw1e12/tyrosine_scan/tyrosine_chi1_scan/"
 Default is to use a total of   8 processors:
                                8 via shared-memory
                                1 via Linda
 Entering Link 1 = /home/ztw1e12/g09/l1.exe PID=      4335.
  
 Copyright (c) 1988,1990,1992,1993,1995,1998,2003,2009,2013,
            Gaussian, Inc.  All Rights Reserved.
  
 This is part of the Gaussian(R) 09 program.  It is based on
 the Gaussian(R) 03 system (copyright 2003, Gaussian, Inc.),
 the Gaussian(R) 98 system (copyright 1998, Gaussian, Inc.),
 the Gaussian(R) 94 system (copyright 1995, Gaussian, Inc.),
 the Gaussian 92(TM) system (copyright 1992, Gaussian, Inc.),
 the Gaussian 90(TM) system (copyright 1990, Gaussian, Inc.),
 the Gaussian 88(TM) system (copyright 1988, Gaussian, Inc.),
 the Gaussian 86(TM) system (copyright 1986, Carnegie Mellon
 University), and the Gaussian 82(TM) system (copyright 1983,
 Carnegie Mellon University). Gaussian is a federally registered
 trademark of Gaussian, Inc.
  
 This software contains proprietary and confidential information,
 including trade secrets, belonging to Gaussian, Inc.
  
 This software is provided under written license and may be
 used, copied, transmitted, or stored only in accord with that
 written license.
  
 The following legend is applicable only to US Government
 contracts under FAR:
  
                    RESTRICTED RIGHTS LEGEND
  
 Use, reproduction and disclosure by the US Government is
 subject to restrictions as set forth in subparagraphs (a)
 and (c) of the Commercial Computer Software - Restricted
 Rights clause in FAR 52.227-19.
  
 Gaussian, Inc.
 340 Quinnipiac St., Bldg. 40, Wallingford CT 06492
  
  
 ---------------------------------------------------------------
 Warning -- This program may not be used in any manner that
 competes with the business of Gaussian, Inc. or will provide
 assistance to any competitor of Gaussian, Inc.  The licensee
 of this program is prohibited from giving any competitor of
 Gaussian, Inc. access to this program.  By using this program,
 the user acknowledges that Gaussian, Inc. is engaged in the
 business of creating and licensing software in the field of
 computational chemistry and represents and warrants to the
 licensee that it is not a competitor of Gaussian, Inc. and that
 it will not use this program in any manner prohibited above.
 ---------------------------------------------------------------
  

 Cite this work as:
 Gaussian 09, Revision D.01,
 M. J. Frisch, G. W. Trucks, H. B. Schlegel, G. E. Scuseria, 
 M. A. Robb, J. R. Cheeseman, G. Scalmani, V. Barone, B. Mennucci, 
 G. A. Petersson, H. Nakatsuji, M. Caricato, X. Li, H. P. Hratchian, 
 A. F. Izmaylov, J. Bloino, G. Zheng, J. L. Sonnenberg, M. Hada, 
 M. Ehara, K. Toyota, R. Fukuda, J. Hasegawa, M. Ishida, T. Nakajima, 
 Y. Honda, O. Kitao, H. Nakai, T. Vreven, J. A. Montgomery, Jr., 
 J. E. Peralta, F. Ogliaro, M. Bearpark, J. J. Heyd, E. Brothers, 
 K. N. Kudin, V. N. Staroverov, T. Keith, R. Kobayashi, J. Normand, 
 K. Raghavachari, A. Rendell, J. C. Burant, S. S. Iyengar, J. Tomasi, 
 M. Cossi, N. Rega, J. M. Millam, M. Klene, J. E. Knox, J. B. Cross, 
 V. Bakken, C. Adamo, J. Jaramillo, R. Gomperts, R. E. Stratmann, 
 O. Yazyev, A. J. Austin, R. Cammi, C. Pomelli, J. W. Ochterski, 
 R. L. Martin, K. Morokuma, V. G. Zakrzewski, G. A. Voth, 
 P. Salvador, J. J. Dannenberg, S. Dapprich, A. D. Daniels, 
 O. Farkas, J. B. Foresman, J. V. Ortiz, J. Cioslowski, 
 and D. J. Fox, Gaussian, Inc., Wallingford CT, 2013.
 
 ******************************************
 Gaussian 09:  EM64L-G09RevD.01 24-Apr-2013
                24-Jun-2014 
 ******************************************
 %Mem=32GB
 %NProcShared=16
 Will use up to   16 processors via shared memory.
 Default route:  MaxDisk=100GB
 ----------------------------------------------------------------------
 #p nmr=(giao,mixed,spinspin) m06/cc-pvtz scf=tight integral=(grid=ultr
 afine)
 ----------------------------------------------------------------------
 1/38=1/1;
 2/12=2,17=6,18=5,40=1/2;
 3/5=16,6=1,10=1100000,11=2,16=1,25=1,30=1,74=-54,75=-5/1,2,8,3;
 4//1;
 5/5=2,32=2,38=5/2;
 8/6=1,10=90,11=11/1;
 10/13=100,45=16,47=3/2;
 6/7=2,8=2,9=2,10=2,28=1/1;
 99/9=1/99;
 Leave Link    1 at Tue Jun 24 17:04:57 2014, MaxMem=  4294967296 cpu:         6.2
 (Enter /home/ztw1e12/g09/l101.exe)
 ------------------
 NMR spin-spin scan
 ------------------
 Symbolic Z-matrix:
 Charge =  0 Multiplicity = 1
 C                     2.66423  -1.59197   2.00133 
 C                     2.0386   -0.55313   1.33268 
 C                     1.49026  -0.73444   0.07078 
 C                     1.5808   -1.99528  -0.50974 
 C                     2.20172  -3.04248   0.14245 
 C                     2.74588  -2.83923   1.40328 
 H                     3.0901   -1.44297   2.98681 
 H                     1.9736    0.4222    1.8033 
 H                     1.15818  -2.15628  -1.49584 
 H                     2.2762   -4.02165  -0.31337 
 C                     0.79609   0.38362  -0.64267 
 H                     1.09213   1.35218  -0.23155 
 H                     1.09699   0.37649  -1.69455 
 C                    -0.73188   0.26148  -0.61392 
 H                    -1.00603  -0.79102  -0.73367 
 C                    -1.24997   0.66075   0.7564 
 O                     3.35278  -3.89788   2.00979 
 H                     3.69604  -3.61978   2.86635 
 O                    -1.34114  -0.1803    1.64924 
 N                    -1.30349   1.0198   -1.70426 
 H                    -0.69129   1.55255  -2.30341 
 N                    -1.522     1.95294   0.94745 
 H                    -1.46528   2.57926   0.16039 
 C                    -2.6174    0.9564   -1.99311 
 C                    -3.08117   1.75119  -3.16766 
 H                    -3.5927    1.08729  -3.86376 
 H                    -3.80912   2.48624  -2.82391 
 H                    -2.27242   2.26363  -3.6842 
 C                    -1.98657   2.4519    2.22135 
 H                    -1.27551   2.21815   3.01366 
 H                    -2.09569   3.53035   2.15854 
 H                    -2.95081   2.01736   2.48865 
 O                    -3.39028   0.28016  -1.31794 
 
 NAtoms=     33 NQM=       33 NQMF=       0 NMMI=      0 NMMIF=      0
                NMic=       0 NMicF=      0.
                    Isotopes and Nuclear Properties:
 (Nuclear quadrupole moments (NQMom) in fm**2, nuclear magnetic moments (NMagM)
  in nuclear magnetons)

  Atom         1           2           3           4           5           6           7           8           9          10
 IAtWgt=          12          12          12          12          12          12           1           1           1           1
 AtmWgt=  12.0000000  12.0000000  12.0000000  12.0000000  12.0000000  12.0000000   1.0078250   1.0078250   1.0078250   1.0078250
 NucSpn=           0           0           0           0           0           0           1           1           1           1
 AtZEff=   0.0000000   0.0000000   0.0000000   0.0000000   0.0000000   0.0000000   0.0000000   0.0000000   0.0000000   0.0000000
 NQMom=    0.0000000   0.0000000   0.0000000   0.0000000   0.0000000   0.0000000   0.0000000   0.0000000   0.0000000   0.0000000
 NMagM=    0.0000000   0.0000000   0.0000000   0.0000000   0.0000000   0.0000000   2.7928460   2.7928460   2.7928460   2.7928460
 AtZNuc=   6.0000000   6.0000000   6.0000000   6.0000000   6.0000000   6.0000000   1.0000000   1.0000000   1.0000000   1.0000000

  Atom        11          12          13          14          15          16          17          18          19          20
 IAtWgt=          12           1           1          12           1          12          16           1          16          14
 AtmWgt=  12.0000000   1.0078250   1.0078250  12.0000000   1.0078250  12.0000000  15.9949146   1.0078250  15.9949146  14.0030740
 NucSpn=           0           1           1           0           1           0           0           1           0           2
 AtZEff=   0.0000000   0.0000000   0.0000000   0.0000000   0.0000000   0.0000000   0.0000000   0.0000000   0.0000000   0.0000000
 NQMom=    0.0000000   0.0000000   0.0000000   0.0000000   0.0000000   0.0000000   0.0000000   0.0000000   0.0000000   2.0440000
 NMagM=    0.0000000   2.7928460   2.7928460   0.0000000   2.7928460   0.0000000   0.0000000   2.7928460   0.0000000   0.4037610
 AtZNuc=   6.0000000   1.0000000   1.0000000   6.0000000   1.0000000   6.0000000   8.0000000   1.0000000   8.0000000   7.0000000

  Atom        21          22          23          24          25          26          27          28          29          30
 IAtWgt=           1          14           1          12          12           1           1           1          12           1
 AtmWgt=   1.0078250  14.0030740   1.0078250  12.0000000  12.0000000   1.0078250   1.0078250   1.0078250  12.0000000   1.0078250
 NucSpn=           1           2           1           0           0           1           1           1           0           1
 AtZEff=   0.0000000   0.0000000   0.0000000   0.0000000   0.0000000   0.0000000   0.0000000   0.0000000   0.0000000   0.0000000
 NQMom=    0.0000000   2.0440000   0.0000000   0.0000000   0.0000000   0.0000000   0.0000000   0.0000000   0.0000000   0.0000000
 NMagM=    2.7928460   0.4037610   2.7928460   0.0000000   0.0000000   2.7928460   2.7928460   2.7928460   0.0000000   2.7928460
 AtZNuc=   1.0000000   7.0000000   1.0000000   6.0000000   6.0000000   1.0000000   1.0000000   1.0000000   6.0000000   1.0000000

  Atom        31          32          33
 IAtWgt=           1           1          16
 AtmWgt=   1.0078250   1.0078250  15.9949146
 NucSpn=           1           1           0
 AtZEff=   0.0000000   0.0000000   0.0000000
 NQMom=    0.0000000   0.0000000   0.0000000
 NMagM=    2.7928460   2.7928460   0.0000000
 AtZNuc=   1.0000000   1.0000000   8.0000000
 Leave Link  101 at Tue Jun 24 17:04:57 2014, MaxMem=  4294967296 cpu:         1.7
 (Enter /home/ztw1e12/g09/l202.exe)
                          Input orientation:                          
 ---------------------------------------------------------------------
 Center     Atomic      Atomic             Coordinates (Angstroms)
 Number     Number       Type             X           Y           Z
 ---------------------------------------------------------------------
      1          6           0        2.664232   -1.591967    2.001327
      2          6           0        2.038599   -0.553126    1.332676
      3          6           0        1.490260   -0.734435    0.070783
      4          6           0        1.580797   -1.995275   -0.509740
      5          6           0        2.201722   -3.042476    0.142452
      6          6           0        2.745881   -2.839234    1.403280
      7          1           0        3.090103   -1.442972    2.986814
      8          1           0        1.973603    0.422200    1.803300
      9          1           0        1.158175   -2.156280   -1.495838
     10          1           0        2.276196   -4.021647   -0.313374
     11          6           0        0.796085    0.383615   -0.642673
     12          1           0        1.092130    1.352183   -0.231548
     13          1           0        1.096986    0.376494   -1.694545
     14          6           0       -0.731880    0.261484   -0.613916
     15          1           0       -1.006032   -0.791023   -0.733666
     16          6           0       -1.249970    0.660745    0.756404
     17          8           0        3.352779   -3.897884    2.009789
     18          1           0        3.696040   -3.619782    2.866345
     19          8           0       -1.341138   -0.180295    1.649235
     20          7           0       -1.303494    1.019798   -1.704255
     21          1           0       -0.691290    1.552547   -2.303411
     22          7           0       -1.521996    1.952935    0.947446
     23          1           0       -1.465281    2.579259    0.160392
     24          6           0       -2.617398    0.956400   -1.993114
     25          6           0       -3.081166    1.751190   -3.167663
     26          1           0       -3.592695    1.087293   -3.863761
     27          1           0       -3.809124    2.486242   -2.823913
     28          1           0       -2.272422    2.263626   -3.684200
     29          6           0       -1.986571    2.451898    2.221348
     30          1           0       -1.275511    2.218152    3.013656
     31          1           0       -2.095686    3.530346    2.158535
     32          1           0       -2.950806    2.017362    2.488646
     33          8           0       -3.390283    0.280164   -1.317942
 ---------------------------------------------------------------------
                    Distance matrix (angstroms):
                    1          2          3          4          5
     1  C    0.000000
     2  C    1.384811   0.000000
     3  C    2.416727   1.387776   0.000000
     4  C    2.764407   2.384087   1.391015   0.000000
     5  C    2.402771   2.764074   2.416271   1.381134   0.000000
     6  C    1.385641   2.394060   2.789679   2.393603   1.388202
     7  H    1.083859   2.152594   3.400700   3.848238   3.382016
     8  H    2.138470   1.084884   2.138467   3.368774   3.848952
     9  H    3.849262   3.368344   2.141547   1.084860   2.135024
    10  H    3.378129   3.846631   3.401622   2.151354   1.082635
    11  C    3.792576   2.514623   1.496975   2.508498   3.785543
    12  H    4.015626   2.640606   2.145667   3.394357   4.547977
    13  H    4.471081   3.303770   2.122548   2.695018   4.035388
    14  C    4.669941   3.482580   2.529540   3.233000   4.482663
    15  H    4.646777   3.687295   2.623321   2.862176   4.015758
    16  C    4.684605   3.552500   3.150470   4.082990   5.099506
    17  O    2.406537   3.656905   4.151642   3.620479   2.354486
    18  H    2.434115   3.808363   4.583215   4.302467   3.160041
    19  O    4.261429   3.414943   3.288677   4.061161   4.797326
    20  N    6.024575   4.781906   3.746085   4.340123   5.674411
    21  H    6.299069   5.010717   3.953004   4.578938   5.955334
    22  N    5.585830   4.371107   4.130881   5.228678   6.282374
    23  H    6.151508   4.843889   4.441151   5.536608   6.712014
    24  C    7.095446   5.917589   4.898107   5.342062   6.616311
    25  C    8.420496   7.195479   6.128931   6.544804   7.864159
    26  H    8.984811   7.836160   6.681000   6.893236   8.165782
    27  H    9.045389   7.791717   6.843646   7.381778   8.688861
    28  H    8.459395   7.189439   6.102954   6.562220   7.925651
    29  C    6.166946   5.101167   5.183242   6.321574   7.214690
    30  H    5.573454   4.635623   5.002775   6.190782   6.928865
    31  H    6.994257   5.869335   5.950300   7.153230   8.107669
    32  H    6.692786   5.730431   5.756867   6.754776   7.593098
    33  O    7.153990   6.098599   5.174714   5.526522   6.666574
                    6          7          8          9         10
     6  C    0.000000
     7  H    2.139069   0.000000
     8  H    3.375408   2.475105   0.000000
     9  H    3.375222   4.933085   4.265887   0.000000
    10  H    2.136728   4.266527   4.931495   2.475437   0.000000
    11  C    4.286535   4.666060   2.714926   2.703713   4.658916
    12  H    4.793280   4.707721   2.404677   3.729893   5.503340
    13  H    4.759861   5.403526   3.606309   2.541294   4.758341
    14  C    5.077239   5.520687   3.631584   3.193067   5.242524
    15  H    4.778970   5.571834   4.097113   2.669948   4.624565
    16  C    5.351180   5.313811   3.397693   4.336748   5.958445
    17  O    1.362688   2.655216   4.539591   4.487638   2.563481
    18  H    1.911182   2.262780   4.520450   5.254640   3.505434
    19  O    4.882026   4.797850   3.372572   4.476892   5.629647
    20  N    6.398933   6.882954   4.837296   4.023770   6.337578
    21  H    6.696375   7.159508   5.024382   4.222333   6.621016
    22  N    6.433307   6.079693   3.910863   5.480748   7.191075
    23  H    6.974147   6.702129   4.379266   5.661356   7.602307
    24  C    7.396424   7.945580   5.981256   4.918436   7.179815
    25  C    8.713208   9.282501   7.213001   6.002944   8.376989
    26  H    9.128904   9.899111   7.971299   6.220819   8.552801
    27  H    9.444466   9.838831   7.688387   6.927543   9.256703
    28  H    8.780945   9.327270   7.178596   6.007786   8.459140
    29  C    7.145727   6.444266   4.469610   6.703895   8.154924
    30  H    6.658983   5.697643   3.904760   6.737508   7.913207
    31  H    8.036338   7.232727   5.132823   7.501984   9.069525
    32  H    7.564178   6.979589   5.221498   7.083723   8.464189
    33  O    7.401905   7.968408   6.207544   5.162981   7.184965
                   11         12         13         14         15
    11  C    0.000000
    12  H    1.093065   0.000000
    13  H    1.094087   1.758509   0.000000
    14  C    1.533108   2.159361   2.127378   0.000000
    15  H    2.153063   3.041009   2.590187   1.094199   0.000000
    16  C    2.494105   2.634306   3.405312   1.518421   2.094623
    17  O    5.648316   6.139815   6.089417   6.392856   6.014845
    18  H    6.062189   6.410751   6.597501   6.839804   6.562883
    19  O    3.184110   3.436077   4.175563   2.384998   2.482640
    20  N    2.437195   2.831671   2.485204   1.445898   2.075957
    21  H    2.517288   2.741049   2.225253   2.126707   2.838218
    22  N    3.219432   2.929946   4.040340   2.433750   3.259089
    23  H    3.252621   2.863509   3.854631   2.551374   3.516966
    24  C    3.715325   4.125574   3.771218   2.437268   2.690018
    25  C    4.824822   5.118240   4.638623   3.776241   4.085752
    26  H    5.489259   5.933862   5.215730   4.407688   4.473968
    27  H    5.512422   5.659394   5.458610   4.393525   4.792382
    28  H    4.711800   4.906296   4.344296   3.975989   4.431735
    29  C    4.497064   4.087110   5.399060   3.796167   4.495565
    30  H    4.585387   4.109376   5.584586   4.157326   4.813541
    31  H    5.109894   4.540822   5.914910   4.497990   5.312853
    32  H    5.149124   4.918053   6.047822   4.199123   4.696005
    33  O    4.241741   4.735135   4.504075   2.750111   2.678334
                   16         17         18         19         20
    16  C    0.000000
    17  O    6.598285   0.000000
    18  H    6.872974   0.963772   0.000000
    19  O    1.229962   5.998610   6.219694   0.000000
    20  N    2.487293   7.723898   8.210446   3.561957   0.000000
    21  H    3.235723   8.041479   8.528073   4.364453   1.008763
    22  N    1.334260   7.689219   7.871801   2.252973   2.819575
    23  H    2.020467   8.281748   8.508203   3.138025   2.436186
    24  C    3.084983   8.673541   9.187779   4.023384   1.346775
    25  C    4.465496  10.005683  10.544530   5.473649   2.415909
    26  H    5.197714  10.372569  10.980735   6.088466   3.147771
    27  H    4.764491  10.743118  11.224529   5.762849   3.111635
    28  H    4.830486  10.100921  10.637042   5.940166   2.531030
    29  C    2.428347   8.298985   8.341066   2.769898   4.234131
    30  H    2.742509   7.735290   7.669387   2.760163   4.867804
    31  H    3.303909   9.213387   9.228728   3.820679   4.674566
    32  H    2.780992   8.657634   8.723566   2.850498   4.614021
    33  O    3.004778   8.602253   9.106800   3.635266   2.247440
                   21         22         23         24         25
    21  H    0.000000
    22  N    3.379120   0.000000
    23  H    2.779123   1.007448   0.000000
    24  C    2.039992   3.292397   2.932343   0.000000
    25  C    2.549097   4.405205   3.791139   1.492092   0.000000
    26  H    3.327056   5.308940   4.790163   2.113683   1.089483
    27  H    3.295997   4.442805   3.795830   2.109705   1.090132
    28  H    2.216346   4.702320   3.941064   2.165091   1.087873
    29  C    4.791662   1.444860   2.129672   4.516209   5.543516
    30  H    5.390320   2.097694   2.882278   5.334831   6.456559
    31  H    5.078679   2.069802   2.300989   4.912593   5.701311
    32  H    5.318390   2.102605   2.818382   4.617681   5.664069
    33  O    3.142399   3.379444   3.343193   1.229025   2.383472
                   26         27         28         29         30
    26  H    0.000000
    27  H    1.756469   0.000000
    28  H    1.777392   1.775135   0.000000
    29  C    6.439746   5.364470   5.915459   0.000000
    30  H    7.344865   6.369323   6.771793   1.089952   0.000000
    31  H    6.669152   5.371295   5.981084   1.085772   1.767985
    32  H    6.452141   5.401837   6.214892   1.090880   1.767078
    33  O    2.678362   2.703730   3.283734   4.383310   5.195267
                   31         32         33
    31  H    0.000000
    32  H    1.768990   0.000000
    33  O    4.932095   4.207269   0.000000
 Stoichiometry    C12H16N2O3
 Framework group  C1[X(C12H16N2O3)]
 Deg. of freedom    93
 Full point group                 C1      NOp   1
 Largest Abelian subgroup         C1      NOp   1
 Largest concise Abelian subgroup C1      NOp   1
                         Standard orientation:                         
 ---------------------------------------------------------------------
 Center     Atomic      Atomic             Coordinates (Angstroms)
 Number     Number       Type             X           Y           Z
 ---------------------------------------------------------------------
      1          6           0        3.482958    0.824872   -0.415607
      2          6           0        2.186128    0.726771   -0.891328
      3          6           0        1.443212   -0.433643   -0.725688
      4          6           0        2.034892   -1.503166   -0.061641
      5          6           0        3.327298   -1.422994    0.418765
      6          6           0        4.054073   -0.253766    0.240418
      7          1           0        4.057128    1.734494   -0.548523
      8          1           0        1.739733    1.573012   -1.402778
      9          1           0        1.469846   -2.418778    0.077278
     10          1           0        3.788102   -2.258467    0.930375
     11          6           0        0.034349   -0.531706   -1.222096
     12          1           0       -0.163499    0.224149   -1.986510
     13          1           0       -0.110657   -1.508802   -1.692503
     14          6           0       -1.008874   -0.414168   -0.104826
     15          1           0       -0.643727   -0.946003    0.778967
     16          6           0       -1.138377    1.037348    0.321712
     17          8           0        5.326696   -0.218241    0.726307
     18          1           0        5.719981    0.638441    0.525609
     19          8           0       -0.404341    1.489078    1.199173
     20          7           0       -2.252170   -1.016422   -0.531588
     21          1           0       -2.321099   -1.384993   -1.468074
     22          7           0       -2.018883    1.787193   -0.343639
     23          1           0       -2.616771    1.342010   -1.021352
     24          6           0       -3.283773   -1.179493    0.318709
     25          6           0       -4.498500   -1.852021   -0.227627
     26          1           0       -4.735826   -2.713535    0.395625
     27          1           0       -5.338249   -1.160141   -0.160464
     28          1           0       -4.381996   -2.173505   -1.260363
     29          6           0       -2.200668    3.189609   -0.047319
     30          1           0       -1.263284    3.735052   -0.155935
     31          1           0       -2.927067    3.604493   -0.739502
     32          1           0       -2.564414    3.334957    0.970807
     33          8           0       -3.223248   -0.788793    1.482407
 ---------------------------------------------------------------------
 Rotational constants (GHZ):      0.8717013      0.2387123      0.2076110
 Leave Link  202 at Tue Jun 24 17:04:58 2014, MaxMem=  4294967296 cpu:         1.9
 (Enter /home/ztw1e12/g09/l301.exe)
 Standard basis: CC-pVTZ (5D, 7F)
 Converting basis for Fermi contact spin-spin IFCMod=1.
 AO basis functions are being uncontracted.
 Ernie: Thresh=  0.10000D-02 Tol=  0.10000D-05 Strict=F.
 There are  1305 symmetry adapted cartesian basis functions of A   symmetry.
 There are  1204 symmetry adapted basis functions of A   symmetry.
  1204 basis functions,  1305 primitive gaussians,  1305 cartesian basis functions
    63 alpha electrons       63 beta electrons
       nuclear repulsion energy      1205.4080671607 Hartrees.
 IExCor= 4235 DFT=T Ex+Corr=M06 ExCW=0 ScaHFX=  0.270000
 ScaDFX=  1.000000  1.000000  1.000000  1.000000 ScalE2=  1.000000  1.000000
 IRadAn= 199590 IRanWt=     -1 IRanGd=            0 ICorTp=0 IEmpDi=  4
 NAtoms=   33 NActive=   33 NUniq=   33 SFac= 1.00D+00 NAtFMM=   60 NAOKFM=F Big=F
 Integral buffers will be    131072 words long.
 Raffenetti 2 integral format.
 Two-electron integral symmetry is turned on.
 Leave Link  301 at Tue Jun 24 17:04:58 2014, MaxMem=  4294967296 cpu:         5.3
 (Enter /home/ztw1e12/g09/l302.exe)
 NPDir=0 NMtPBC=     1 NCelOv=     1 NCel=       1 NClECP=     1 NCelD=      1
         NCelK=      1 NCelE2=     1 NClLst=     1 CellRange=     0.0.
 One-electron integrals computed using PRISM.
 GSVD:  received Info=                   1 from GESDD.
 NBasis=  1204 RedAO= T EigKep=  2.59D-05  NBF=  1204
 NBsUse=  1068 1.00D-06 EigRej=  5.13D-15 NBFU=  1068
 Precomputing XC quadrature grid using
 IXCGrd= 4 IRadAn=      199590 IRanWt=          -1 IRanGd=           0 AccXCQ= 0.00D+00.
 Generated NRdTot=       0 NPtTot=           0 NUsed=           0 NTot=          32
 NSgBfM=   988   988   988   988   988 MxSgAt=    33 MxSgA2=    33.
 Leave Link  302 at Tue Jun 24 17:05:04 2014, MaxMem=  4294967296 cpu:        95.1
 (Enter /home/ztw1e12/g09/l308.exe)
 Leave Link  308 at Tue Jun 24 17:05:05 2014, MaxMem=  4294967296 cpu:         7.1
 (Enter /home/ztw1e12/g09/l303.exe)
 DipDrv:  MaxL=1.
 Leave Link  303 at Tue Jun 24 17:05:05 2014, MaxMem=  4294967296 cpu:         4.2
 (Enter /home/ztw1e12/g09/l401.exe)
 ExpMin= 1.03D-01 ExpMax= 1.38D+05 ExpMxC= 1.38D+05 IAcc=4 IRadAn=    199590 AccDes= 0.00D+00
 Harris functional with IExCor= 1009 and IRadAn=  199590 diagonalized for initial guess.
 HarFok:  IExCor= 1009 AccDes= 0.00D+00 IRadAn=    199590 IDoV= 1 UseB2=F ITyADJ=14
 ICtDFT=  3500011 ScaDFX=  1.000000  1.000000  1.000000  1.000000
 FoFCou: FMM=F IPFlag=           0 FMFlag=      100000 FMFlg1=           0
         NFxFlg=           0 DoJE=T BraDBF=F KetDBF=T FulRan=T
         wScrn=  0.000000 ICntrl=     500 IOpCl=  0 I1Cent=   200000004 NGrid=           0
         NMat0=    1 NMatS0=      1 NMatT0=    0 NMatD0=    1 NMtDS0=    0 NMtDT0=    0
 Petite list used in FoFCou.
 Harris En= -801.782204696172    
 JPrj=0 DoOrth=F DoCkMO=F.
 Leave Link  401 at Tue Jun 24 17:05:24 2014, MaxMem=  4294967296 cpu:       291.9
 (Enter /home/ztw1e12/g09/l502.exe)
 Closed shell SCF:
 Using DIIS extrapolation, IDIIS=  1040.
 Integral symmetry usage will be decided dynamically.
 IVT=     5158273 IEndB=     5158273 NGot=  4294967296 MDV=  4291529994
 LenX=  4291529994 LenY=  4289825664
 Requested convergence on RMS density matrix=1.00D-08 within 128 cycles.
 Requested convergence on MAX density matrix=1.00D-06.
 Requested convergence on             energy=1.00D-06.
 No special actions if energy rises.
 Fock matrices will be formed incrementally for  20 cycles.
 Integral accuracy reduced to 1.0D-05 until final iterations.

 Cycle   1  Pass 0  IDiag  1:
 FoFJK:  IHMeth= 1 ICntrl=       0 DoSepK=F KAlg= 0 I1Cent=   0 FoldK=F
 IRaf= 420000000 NMat=   1 IRICut=       1 DoRegI=T DoRafI=F ISym2E= 0.
 FoFCou: FMM=F IPFlag=           0 FMFlag=      100000 FMFlg1=           0
         NFxFlg=           0 DoJE=F BraDBF=F KetDBF=F FulRan=T
         wScrn=  0.000000 ICntrl=       0 IOpCl=  0 I1Cent=           0 NGrid=           0
         NMat0=    1 NMatS0=      1 NMatT0=    0 NMatD0=    1 NMtDS0=    0 NMtDT0=    0
 Symmetry not used in FoFCou.
 E= -801.447631507074    
 DIIS: error= 1.11D-01 at cycle   1 NSaved=   1.
 NSaved= 1 IEnMin= 1 EnMin= -801.447631507074     IErMin= 1 ErrMin= 1.11D-01
 ErrMax= 1.11D-01  0.00D+00 EMaxC= 1.00D-01 BMatC= 1.69D+01 BMatP= 1.69D+01
 IDIUse=3 WtCom= 0.00D+00 WtEn= 1.00D+00
 Coeff-Com:  0.100D+01
 Coeff-En:   0.100D+01
 Coeff:      0.100D+01
 Gap=     0.245 Goal=   None    Shift=    0.000
 GapD=    0.245 DampG=1.000 DampE=0.250 DampFc=0.2500 IDamp=-1.
 Damping current iteration by 2.50D-01
 RMSDP=2.28D-03 MaxDP=3.97D-01              OVMax= 3.17D-01

 Cycle   2  Pass 0  IDiag  1:
 RMSU=  5.68D-04    CP:  1.02D+00
 E= -801.607062795892     Delta-E=       -0.159431288818 Rises=F Damp=T
 DIIS: error= 8.46D-02 at cycle   2 NSaved=   2.
 NSaved= 2 IEnMin= 2 EnMin= -801.607062795892     IErMin= 2 ErrMin= 8.46D-02
 ErrMax= 8.46D-02  0.00D+00 EMaxC= 1.00D-01 BMatC= 1.00D+01 BMatP= 1.69D+01
 IDIUse=3 WtCom= 1.54D-01 WtEn= 8.46D-01
 Coeff-Com: -0.288D+01 0.388D+01
 Coeff-En:   0.000D+00 0.100D+01
 Coeff:     -0.443D+00 0.144D+01
 Gap=     0.287 Goal=   None    Shift=    0.000
 RMSDP=5.78D-04 MaxDP=8.56D-02 DE=-1.59D-01 OVMax= 2.21D-01

 Cycle   3  Pass 0  IDiag  1:
 RMSU=  5.67D-04    CP:  1.05D+00  1.16D+00
 E= -801.863554718962     Delta-E=       -0.256491923071 Rises=F Damp=F
 DIIS: error= 9.99D-03 at cycle   3 NSaved=   3.
 NSaved= 3 IEnMin= 3 EnMin= -801.863554718962     IErMin= 3 ErrMin= 9.99D-03
 ErrMax= 9.99D-03  0.00D+00 EMaxC= 1.00D-01 BMatC= 1.69D-01 BMatP= 1.00D+01
 IDIUse=3 WtCom= 9.00D-01 WtEn= 9.99D-02
 Coeff-Com: -0.185D+00 0.189D+00 0.996D+00
 Coeff-En:   0.000D+00 0.000D+00 0.100D+01
 Coeff:     -0.167D+00 0.170D+00 0.997D+00
 Gap=     0.229 Goal=   None    Shift=    0.000
 RMSDP=4.45D-04 MaxDP=5.03D-02 DE=-2.56D-01 OVMax= 1.48D-01

 Cycle   4  Pass 0  IDiag  1:
 RMSU=  4.08D-04    CP:  1.04D+00  1.14D+00  6.87D-01
 E= -801.788417564614     Delta-E=        0.075137154348 Rises=F Damp=F
 DIIS: error= 9.44D-03 at cycle   4 NSaved=   4.
 NSaved= 4 IEnMin= 3 EnMin= -801.863554718962     IErMin= 4 ErrMin= 9.44D-03
 ErrMax= 9.44D-03  0.00D+00 EMaxC= 1.00D-01 BMatC= 1.64D-01 BMatP= 1.69D-01
 IDIUse=3 WtCom= 9.06D-01 WtEn= 9.44D-02
 Coeff-Com:  0.120D+00-0.192D+00 0.567D+00 0.505D+00
 Coeff-En:   0.000D+00 0.000D+00 0.682D+00 0.318D+00
 Coeff:      0.109D+00-0.174D+00 0.578D+00 0.488D+00
 Gap=     0.257 Goal=   None    Shift=    0.000
 RMSDP=3.24D-04 MaxDP=3.21D-02 DE= 7.51D-02 OVMax= 8.95D-02

 Cycle   5  Pass 0  IDiag  1:
 RMSU=  8.04D-05    CP:  1.05D+00  1.16D+00  8.61D-01  2.71D-01
 E= -801.909154354043     Delta-E=       -0.120736789428 Rises=F Damp=F
 DIIS: error= 1.81D-03 at cycle   5 NSaved=   5.
 NSaved= 5 IEnMin= 5 EnMin= -801.909154354043     IErMin= 5 ErrMin= 1.81D-03
 ErrMax= 1.81D-03  0.00D+00 EMaxC= 1.00D-01 BMatC= 6.12D-03 BMatP= 1.64D-01
 IDIUse=3 WtCom= 9.82D-01 WtEn= 1.81D-02
 Coeff-Com:  0.430D-01-0.579D-01 0.127D-01 0.158D+00 0.844D+00
 Coeff-En:   0.000D+00 0.000D+00 0.000D+00 0.000D+00 0.100D+01
 Coeff:      0.422D-01-0.569D-01 0.125D-01 0.156D+00 0.847D+00
 Gap=     0.225 Goal=   None    Shift=    0.000
 RMSDP=6.97D-05 MaxDP=5.84D-03 DE=-1.21D-01 OVMax= 2.37D-02

 Cycle   6  Pass 0  IDiag  1:
 RMSU=  3.44D-05    CP:  1.05D+00  1.15D+00  8.67D-01  3.86D-01  5.35D-01
 E= -801.911793849838     Delta-E=       -0.002639495796 Rises=F Damp=F
 DIIS: error= 9.85D-04 at cycle   6 NSaved=   6.
 NSaved= 6 IEnMin= 6 EnMin= -801.911793849838     IErMin= 6 ErrMin= 9.85D-04
 ErrMax= 9.85D-04  0.00D+00 EMaxC= 1.00D-01 BMatC= 1.65D-03 BMatP= 6.12D-03
 IDIUse=3 WtCom= 9.90D-01 WtEn= 9.85D-03
 Coeff-Com:  0.231D-01-0.301D-01-0.107D-01 0.719D-01 0.474D+00 0.472D+00
 Coeff-En:   0.000D+00 0.000D+00 0.000D+00 0.000D+00 0.239D+00 0.761D+00
 Coeff:      0.228D-01-0.298D-01-0.106D-01 0.712D-01 0.472D+00 0.475D+00
 Gap=     0.225 Goal=   None    Shift=    0.000
 RMSDP=3.24D-05 MaxDP=2.96D-03 DE=-2.64D-03 OVMax= 1.52D-02

 Cycle   7  Pass 0  IDiag  1:
 RMSU=  1.21D-05    CP:  1.05D+00  1.14D+00  8.58D-01  3.87D-01  6.69D-01
                    CP:  2.10D-01
 E= -801.913133712017     Delta-E=       -0.001339862179 Rises=F Damp=F
 DIIS: error= 3.61D-04 at cycle   7 NSaved=   7.
 NSaved= 7 IEnMin= 7 EnMin= -801.913133712017     IErMin= 7 ErrMin= 3.61D-04
 ErrMax= 3.61D-04  0.00D+00 EMaxC= 1.00D-01 BMatC= 1.60D-04 BMatP= 1.65D-03
 IDIUse=3 WtCom= 9.96D-01 WtEn= 3.61D-03
 Coeff-Com:  0.966D-02-0.126D-01-0.420D-02 0.179D-01 0.123D+00 0.256D+00
 Coeff-Com:  0.610D+00
 Coeff-En:   0.000D+00 0.000D+00 0.000D+00 0.000D+00 0.000D+00 0.673D-01
 Coeff-En:   0.933D+00
 Coeff:      0.962D-02-0.126D-01-0.418D-02 0.179D-01 0.122D+00 0.255D+00
 Coeff:      0.612D+00
 Gap=     0.225 Goal=   None    Shift=    0.000
 RMSDP=1.17D-05 MaxDP=1.26D-03 DE=-1.34D-03 OVMax= 4.40D-03

 Cycle   8  Pass 0  IDiag  1:
 RMSU=  7.27D-06    CP:  1.05D+00  1.14D+00  8.62D-01  3.94D-01  6.40D-01
                    CP:  3.87D-01  5.66D-01
 E= -801.913256919802     Delta-E=       -0.000123207785 Rises=F Damp=F
 DIIS: error= 1.06D-04 at cycle   8 NSaved=   8.
 NSaved= 8 IEnMin= 8 EnMin= -801.913256919802     IErMin= 8 ErrMin= 1.06D-04
 ErrMax= 1.06D-04  0.00D+00 EMaxC= 1.00D-01 BMatC= 2.17D-05 BMatP= 1.60D-04
 IDIUse=3 WtCom= 9.99D-01 WtEn= 1.06D-03
 Coeff-Com:  0.476D-02-0.631D-02-0.107D-02 0.597D-02 0.386D-01 0.116D+00
 Coeff-Com:  0.362D+00 0.480D+00
 Coeff-En:   0.000D+00 0.000D+00 0.000D+00 0.000D+00 0.000D+00 0.000D+00
 Coeff-En:   0.590D-01 0.941D+00
 Coeff:      0.476D-02-0.630D-02-0.107D-02 0.596D-02 0.386D-01 0.116D+00
 Coeff:      0.362D+00 0.480D+00
 Gap=     0.225 Goal=   None    Shift=    0.000
 RMSDP=3.61D-06 MaxDP=3.40D-04 DE=-1.23D-04 OVMax= 8.37D-04

 Initial convergence to 1.0D-05 achieved.  Increase integral accuracy.
 Cycle   9  Pass 1  IDiag  1:
 E= -801.913168101895     Delta-E=        0.000088817907 Rises=F Damp=F
 DIIS: error= 2.40D-04 at cycle   1 NSaved=   1.
 NSaved= 1 IEnMin= 1 EnMin= -801.913168101895     IErMin= 1 ErrMin= 2.40D-04
 ErrMax= 2.40D-04  0.00D+00 EMaxC= 1.00D-01 BMatC= 2.13D-05 BMatP= 2.13D-05
 IDIUse=3 WtCom= 9.98D-01 WtEn= 2.40D-03
 Coeff-Com:  0.100D+01
 Coeff-En:   0.100D+01
 Coeff:      0.100D+01
 Gap=     0.225 Goal=   None    Shift=    0.000
 RMSDP=3.61D-06 MaxDP=3.40D-04 DE= 8.88D-05 OVMax= 9.47D-04

 Cycle  10  Pass 1  IDiag  1:
 RMSU=  1.25D-04    CP:  9.94D-01
 E= -801.913181274523     Delta-E=       -0.000013172627 Rises=F Damp=F
 DIIS: error= 3.60D-05 at cycle   2 NSaved=   2.
 NSaved= 2 IEnMin= 2 EnMin= -801.913181274523     IErMin= 2 ErrMin= 3.60D-05
 ErrMax= 3.60D-05  0.00D+00 EMaxC= 1.00D-01 BMatC= 2.06D-06 BMatP= 2.13D-05
 IDIUse=1 WtCom= 1.00D+00 WtEn= 0.00D+00
 Coeff-Com:  0.120D+00 0.880D+00
 Coeff:      0.120D+00 0.880D+00
 Gap=     0.225 Goal=   None    Shift=    0.000
 RMSDP=2.97D-06 MaxDP=2.51D-04 DE=-1.32D-05 OVMax= 9.11D-04

 Cycle  11  Pass 1  IDiag  1:
 RMSU=  2.36D-06    CP:  9.94D-01  1.01D+00
 E= -801.913179052591     Delta-E=        0.000002221931 Rises=F Damp=F
 DIIS: error= 6.32D-05 at cycle   3 NSaved=   3.
 NSaved= 3 IEnMin= 2 EnMin= -801.913181274523     IErMin= 2 ErrMin= 3.60D-05
 ErrMax= 6.32D-05  0.00D+00 EMaxC= 1.00D-01 BMatC= 5.09D-06 BMatP= 2.06D-06
 IDIUse=1 WtCom= 1.00D+00 WtEn= 0.00D+00
 Coeff-Com: -0.878D-03 0.613D+00 0.388D+00
 Coeff:     -0.878D-03 0.613D+00 0.388D+00
 Gap=     0.225 Goal=   None    Shift=    0.000
 RMSDP=1.46D-06 MaxDP=1.77D-04 DE= 2.22D-06 OVMax= 6.15D-04

 Cycle  12  Pass 1  IDiag  1:
 RMSU=  5.50D-07    CP:  9.94D-01  1.02D+00  4.40D-01
 E= -801.913182766213     Delta-E=       -0.000003713622 Rises=F Damp=F
 DIIS: error= 6.11D-06 at cycle   4 NSaved=   4.
 NSaved= 4 IEnMin= 4 EnMin= -801.913182766213     IErMin= 4 ErrMin= 6.11D-06
 ErrMax= 6.11D-06  0.00D+00 EMaxC= 1.00D-01 BMatC= 5.74D-08 BMatP= 2.06D-06
 IDIUse=1 WtCom= 1.00D+00 WtEn= 0.00D+00
 Coeff-Com: -0.304D-02 0.330D+00 0.220D+00 0.453D+00
 Coeff:     -0.304D-02 0.330D+00 0.220D+00 0.453D+00
 Gap=     0.225 Goal=   None    Shift=    0.000
 RMSDP=1.73D-07 MaxDP=2.22D-05 DE=-3.71D-06 OVMax= 4.94D-05

 Cycle  13  Pass 1  IDiag  1:
 RMSU=  1.53D-07    CP:  9.94D-01  1.02D+00  4.59D-01  8.90D-01
 E= -801.913182805056     Delta-E=       -0.000000038844 Rises=F Damp=F
 DIIS: error= 1.36D-06 at cycle   5 NSaved=   5.
 NSaved= 5 IEnMin= 5 EnMin= -801.913182805056     IErMin= 5 ErrMin= 1.36D-06
 ErrMax= 1.36D-06  0.00D+00 EMaxC= 1.00D-01 BMatC= 2.39D-09 BMatP= 5.74D-08
 IDIUse=1 WtCom= 1.00D+00 WtEn= 0.00D+00
 Coeff-Com: -0.132D-02 0.107D+00 0.725D-01 0.221D+00 0.600D+00
 Coeff:     -0.132D-02 0.107D+00 0.725D-01 0.221D+00 0.600D+00
 Gap=     0.225 Goal=   None    Shift=    0.000
 RMSDP=4.51D-08 MaxDP=6.16D-06 DE=-3.88D-08 OVMax= 8.67D-06

 Cycle  14  Pass 1  IDiag  1:
 RMSU=  3.74D-08    CP:  9.94D-01  1.02D+00  4.60D-01  9.21D-01  9.32D-01
 E= -801.913182806564     Delta-E=       -0.000000001507 Rises=F Damp=F
 DIIS: error= 3.48D-07 at cycle   6 NSaved=   6.
 NSaved= 6 IEnMin= 6 EnMin= -801.913182806564     IErMin= 6 ErrMin= 3.48D-07
 ErrMax= 3.48D-07  0.00D+00 EMaxC= 1.00D-01 BMatC= 2.25D-10 BMatP= 2.39D-09
 IDIUse=1 WtCom= 1.00D+00 WtEn= 0.00D+00
 Coeff-Com: -0.416D-03 0.272D-01 0.186D-01 0.707D-01 0.291D+00 0.593D+00
 Coeff:     -0.416D-03 0.272D-01 0.186D-01 0.707D-01 0.291D+00 0.593D+00
 Gap=     0.225 Goal=   None    Shift=    0.000
 RMSDP=2.21D-08 MaxDP=4.43D-06 DE=-1.51D-09 OVMax= 4.56D-06

 Cycle  15  Pass 1  IDiag  1:
 RMSU=  1.52D-08    CP:  9.94D-01  1.02D+00  4.61D-01  9.38D-01  9.64D-01
                    CP:  7.24D-01
 E= -801.913182806662     Delta-E=       -0.000000000098 Rises=F Damp=F
 DIIS: error= 2.53D-07 at cycle   7 NSaved=   7.
 NSaved= 7 IEnMin= 7 EnMin= -801.913182806662     IErMin= 7 ErrMin= 2.53D-07
 ErrMax= 2.53D-07  0.00D+00 EMaxC= 1.00D-01 BMatC= 7.41D-11 BMatP= 2.25D-10
 IDIUse=1 WtCom= 1.00D+00 WtEn= 0.00D+00
 Coeff-Com: -0.765D-05-0.395D-02-0.257D-02 0.140D-02 0.709D-01 0.387D+00
 Coeff-Com:  0.547D+00
 Coeff:     -0.765D-05-0.395D-02-0.257D-02 0.140D-02 0.709D-01 0.387D+00
 Coeff:      0.547D+00
 Gap=     0.225 Goal=   None    Shift=    0.000
 RMSDP=8.01D-09 MaxDP=6.12D-07 DE=-9.85D-11 OVMax= 2.57D-06

 SCF Done:  E(RM06) =  -801.913182807     A.U. after   15 cycles
            NFock= 15  Conv=0.80D-08     -V/T= 2.0044
 KE= 7.983670947925D+02 PE=-4.283675651618D+03 EE= 1.477987306858D+03
 Leave Link  502 at Tue Jun 24 17:39:27 2014, MaxMem=  4294967296 cpu:     32600.3
 (Enter /home/ztw1e12/g09/l801.exe)
 DoSCS=F DFT=T ScalE2(SS,OS)=  1.000000  1.000000
 Range of M.O.s used for correlation:     1  1068
 NBasis=  1204 NAE=    63 NBE=    63 NFC=     0 NFV=     0
 NROrb=   1068 NOA=    63 NOB=    63 NVA=  1005 NVB=  1005

 **** Warning!!: The largest alpha MO coefficient is  0.28755952D+02

 Leave Link  801 at Tue Jun 24 17:39:27 2014, MaxMem=  4294967296 cpu:         0.4
 (Enter /home/ztw1e12/g09/l1002.exe)
 Minotr:  Closed shell wavefunction.
          IDoAtm=111111111111111111111111111111111
          Direct CPHF calculation.
          Differentiating once with respect to Fermi-contact.
          Electric field/nuclear overlap derivatives assumed to be zero.
          Requested convergence is 1.0D-10 RMS, and 1.0D-09 maximum.
          Secondary convergence is 1.0D-12 RMS, and 1.0D-12 maximum.
          NewPWx=T KeepS1=F KeepF1=F KeepIn=T MapXYZ=F SortEE=F KeepMc=T.
          MDV=    4294965894 using IRadAn=  199590.
 Using stored XC quadrature information.
          Solving linear equations simultaneously, MaxMat=       0.
          There are    33 degrees of freedom in the 1st order CPHF.  IDoFFX=0 NUNeed=    33.
     33 vectors produced by pass  0 Test12= 1.92D-17 3.03D-11 XBig12= 4.29D+01 2.58D+00.
 AX will form    33 AO Fock derivatives at one time.
 FoFJK:  IHMeth= 1 ICntrl=       0 DoSepK=F KAlg= 0 I1Cent=   0 FoldK=F
 IRaf= 440000000 NMat=  33 IRICut=       1 DoRegI=T DoRafI=F ISym2E=-1.
 FoFCou: FMM=F IPFlag=           0 FMFlag=      100000 FMFlg1=           0
         NFxFlg=           0 DoJE=F BraDBF=F KetDBF=F FulRan=T
         wScrn=  0.000000 ICntrl=       0 IOpCl=  0 I1Cent=           0 NGrid=           0
         NMat0=   33 NMatS0=      0 NMatT0=   33 NMatD0=   33 NMtDS0=    0 NMtDT0=    0
 Petite list used in FoFCou.
     33 vectors produced by pass  1 Test12= 1.92D-17 3.03D-11 XBig12= 3.46D-01 1.89D-01.
     33 vectors produced by pass  2 Test12= 1.92D-17 3.03D-11 XBig12= 1.58D-02 4.40D-02.
     33 vectors produced by pass  3 Test12= 1.92D-17 3.03D-11 XBig12= 3.48D-04 5.98D-03.
     33 vectors produced by pass  4 Test12= 1.92D-17 3.03D-11 XBig12= 7.02D-06 1.15D-03.
     33 vectors produced by pass  5 Test12= 1.92D-17 3.03D-11 XBig12= 1.41D-07 1.67D-04.
     33 vectors produced by pass  6 Test12= 1.92D-17 3.03D-11 XBig12= 3.99D-09 1.71D-05.
     33 vectors produced by pass  7 Test12= 1.92D-17 3.03D-11 XBig12= 1.08D-10 4.08D-06.
     33 vectors produced by pass  8 Test12= 1.92D-17 3.03D-11 XBig12= 4.08D-12 2.74D-07.
     33 vectors produced by pass  9 Test12= 1.92D-17 3.03D-11 XBig12= 5.96D-14 8.11D-08.
     33 vectors produced by pass 10 Test12= 1.92D-17 3.03D-11 XBig12= 1.93D-15 7.85D-09.
     33 vectors produced by pass 11 Test12= 1.92D-17 3.03D-11 XBig12= 1.95D-17 5.46D-10.
      7 vectors produced by pass 12 Test12= 1.92D-17 3.03D-11 XBig12= 2.10D-19 7.34D-11.
 InvSVY:  IOpt=1 It=  1 EMax= 6.22D-15
 Solved reduced A of dimension   403 with    33 vectors.
 Max diff in FC couplings:  IJMax=    24     4 Diff= 4.44D-04 IJMaxR=    21     4 DiffR= 6.70D-01
 Fermi Contact (FC) contribution to K (Hz):
                1             2             3             4             5 
      1  0.123400D+11
      2  0.349365D+02  0.123400D+11
      3 -0.118190D+01  0.346076D+02  0.123400D+11
      4  0.307794D+01  0.265350D+00  0.339298D+02  0.123400D+11
      5  0.162421D+01  0.303934D+01 -0.123760D+01  0.352943D+02  0.123400D+11
      6  0.361489D+02 -0.237715D+00  0.433969D+01  0.233012D+00  0.389309D+02
      7  0.217712D+02 -0.313401D+00  0.969239D+00 -0.212015D+00  0.616553D+00
      8 -0.222554D+00  0.223846D+02 -0.293866D+00  0.991313D+00 -0.282590D+00
      9 -0.290156D+00  0.101175D+01 -0.255352D+00  0.219774D+02 -0.213563D+00
     10  0.670412D+00 -0.217997D+00  0.105448D+01 -0.278056D+00  0.229359D+02
     11  0.212209D+01  0.161659D+01  0.246578D+02  0.150386D+01  0.197358D+01
     12  0.113412D-01  0.785666D+00 -0.847044D+00  0.795503D+00  0.939908D-01
     13 -0.479183D-01  0.717643D+00 -0.118424D+01  0.637262D+00 -0.102217D+00
     14 -0.461461D+00  0.841224D+00 -0.217433D+00  0.858697D+00 -0.572119D+00
     15  0.118717D-01 -0.169946D-01  0.509000D+00 -0.302153D-01  0.828562D-02
     16  0.157339D-01 -0.304689D-01  0.277056D-01 -0.547107D-01  0.194082D-01
     17 -0.723121D+00 -0.838763D-01  0.266130D+00  0.309107D+01  0.116980D+02
     18  0.419599D+00 -0.108911D-01 -0.465041D-01  0.212468D+00  0.115497D+01
     19 -0.851537D-03  0.485374D+00  0.355279D+00  0.448677D-01  0.108858D-01
     20  0.124745D+00  0.135898D+00  0.294834D+01 -0.993389D-01  0.307146D-01
     21  0.545199D-03  0.341558D-02 -0.271733D-01 -0.139199D-04  0.912339D-03
     22 -0.805464D-02  0.134843D-01 -0.268370D-01  0.631948D-01 -0.273860D-03
     23  0.381894D-03  0.293097D-03  0.279620D-02 -0.903656D-03  0.308768D-03
     24  0.975202D-02  0.412640D-01  0.197759D+00 -0.358380D-02 -0.877226D-03
     25  0.244135D-02  0.372805D-02  0.110342D+00 -0.245637D-02 -0.389320D-03
     26 -0.588377D-04  0.105974D-02  0.291746D-02  0.970524D-03 -0.530434D-03
     27 -0.584096D-04 -0.671642D-03 -0.277567D-02  0.366971D-03  0.265961D-03
     28 -0.150586D-03  0.149478D-03 -0.135738D-02  0.145787D-03 -0.121644D-03
     29  0.163949D-02 -0.138722D-02  0.130134D-02 -0.322025D-02  0.183230D-02
     30 -0.519100D-03  0.166365D-02 -0.269012D-02  0.106063D-02 -0.181423D-03
     31  0.499134D-04 -0.105436D-03  0.425277D-05 -0.812012D-04  0.874979D-04
     32 -0.313181D-03  0.735605D-04 -0.195910D-02  0.141303D-02  0.554467D-04
     33 -0.477468D-02  0.108617D-01 -0.193995D-01  0.127597D-01 -0.266288D-02
                6             7             8             9            10 
      6  0.123400D+11
      7 -0.554757D+00  0.123400D+11
      8  0.118743D+01  0.330091D+00  0.123400D+11
      9  0.121235D+01  0.389445D-01  0.394174D-01  0.123400D+11
     10 -0.703892D+00  0.632041D-01  0.403157D-01  0.352537D+00  0.123400D+11
     11 -0.474239D+00  0.101090D-01  0.733582D+00  0.668775D+00  0.273362D-01
     12  0.177151D-01  0.350038D-02 -0.227019D-01 -0.530043D-02  0.683944D-02
     13  0.121618D+00  0.128770D-01 -0.300423D-01 -0.373810D-01  0.120255D-01
     14  0.553823D+00  0.433530D-01 -0.135109D+00 -0.105139D+00  0.527434D-01
     15 -0.473192D-02 -0.890030D-03  0.112415D-02 -0.343078D-02 -0.139419D-03
     16 -0.178197D-01 -0.279903D-02  0.461184D-02  0.606945D-02 -0.268881D-02
     17 -0.119365D+02  0.568431D+00  0.693922D-01  0.250480D+00  0.707732D+00
     18 -0.660805D+00 -0.131402D-01  0.187366D-02  0.132257D-01  0.769165D-03
     19  0.220201D-01 -0.114360D-02  0.599624D-01 -0.105004D-01 -0.855190D-02
     20 -0.696622D-02  0.907031D-02  0.150831D-01  0.376880D-02  0.419324D-02
     21 -0.453469D-03 -0.163918D-04  0.211548D-03  0.884509D-03 -0.158534D-03
     22  0.110376D-01  0.772248D-03  0.535326D-02  0.451106D-02  0.111503D-02
     23 -0.434916D-03 -0.535343D-04 -0.266974D-03  0.525681D-04 -0.287593D-04
     24  0.511570D-02  0.207653D-02  0.880197D-03  0.730163D-03  0.592601D-03
     25  0.158082D-02  0.347055D-03  0.284581D-03 -0.212223D-03  0.316593D-03
     26  0.438505D-03  0.340536D-04 -0.116777D-03 -0.102786D-03  0.392445D-04
     27 -0.147998D-03 -0.224976D-04  0.191000D-04  0.683827D-04 -0.211379D-04
     28  0.128494D-03  0.120915D-04 -0.343884D-04 -0.329312D-04  0.846148D-05
     29 -0.170307D-02 -0.279165D-03  0.668976D-03  0.909432D-03 -0.309449D-03
     30  0.657532D-03  0.818395D-04  0.112869D-02 -0.374946D-04  0.531213D-05
     31 -0.515027D-04 -0.796027D-05  0.457773D-04  0.119567D-04 -0.118958D-04
     32  0.345266D-03  0.450742D-04  0.762701D-04  0.520302D-04  0.239475D-04
     33  0.469362D-02  0.342653D-03 -0.963371D-03 -0.821939D-03  0.137989D-03
               11            12            13            14            15 
     11  0.123400D+11
     12  0.176300D+02  0.123400D+11
     13  0.169431D+02 -0.793008D+00  0.123400D+11
     14  0.156198D+02 -0.755601D+00 -0.964896D+00  0.123400D+11
     15 -0.780013D+00  0.368596D+00  0.754352D-01  0.213043D+02  0.123400D+11
     16 -0.548459D+00  0.601563D+00  0.851281D+00  0.283193D+02 -0.114167D+01
     17  0.613199D-01  0.565983D-02  0.421803D-01  0.215581D+00 -0.294369D-02
     18  0.118563D-01 -0.608776D-03 -0.445196D-02 -0.226891D-01  0.267212D-03
     19  0.629918D+00 -0.964863D-02  0.211400D-01  0.466595D+01  0.317542D+00
     20  0.106364D+01  0.147566D-01  0.120251D+01  0.131025D+02 -0.492822D+00
     21  0.593779D+00 -0.860807D-02 -0.285714D-01  0.230694D+00  0.116521D+00
     22  0.412557D-01 -0.146774D-01  0.474153D-01  0.103789D+02  0.273979D+00
     23 -0.410208D-01 -0.206810D-02 -0.128160D-02  0.537200D-01  0.535816D-02
     24  0.161110D+01 -0.522895D-01  0.230417D-01 -0.999589D-01  0.270584D+00
     25 -0.318410D-01  0.224795D-02  0.226896D-01  0.690256D+00 -0.760714D-01
     26  0.474822D-02 -0.646243D-03 -0.362220D-03  0.343135D-01  0.237410D-01
     27 -0.238006D-02 -0.755153D-03 -0.535935D-03  0.146784D-01  0.301160D-01
     28 -0.259186D-02 -0.102051D-03 -0.275692D-03  0.889377D-01 -0.185948D-02
     29 -0.121309D+00  0.572739D-02  0.100977D-01  0.706238D+00  0.857027D-01
     30  0.572409D-01 -0.255396D-03  0.229601D-02 -0.799781D-01  0.127415D-01
     31  0.303101D-02  0.103619D-02  0.758040D-03 -0.247720D-01  0.335081D-02
     32  0.933743D-01  0.531486D-03  0.363686D-02 -0.758405D-01  0.493467D-02
     33  0.131147D+00  0.229354D-01  0.522277D-02  0.777911D+00  0.249319D+00
               16            17            18            19            20 
     16  0.123400D+11
     17 -0.628211D-02  0.123400D+11
     18  0.627527D-03  0.198674D+02  0.123400D+11
     19 -0.976606D+01  0.135641D-01 -0.188968D-02  0.123400D+11
     20  0.230872D+00  0.557363D-02 -0.849340D-04  0.107900D+01  0.123400D+11
     21  0.210427D+00 -0.372407D-04  0.165935D-04  0.901646D-01  0.308759D+02
     22  0.295885D+02  0.349041D-02 -0.273264D-03  0.607101D+01 -0.525547D+00
     23  0.347671D+00 -0.111470D-03  0.115083D-04  0.444447D+00 -0.538321D-01
     24  0.107107D+00  0.352779D-02 -0.303862D-03 -0.182933D-01  0.252327D+02
     25 -0.143882D+00  0.879497D-03 -0.706397D-04  0.553859D-01  0.124527D+02
     26  0.510348D-01  0.152969D-03 -0.158368D-04 -0.167372D-02  0.425142D+00
     27  0.687567D-01 -0.452889D-04  0.509940D-05  0.465341D-02  0.296628D+00
     28 -0.184498D-02  0.514194D-04 -0.561437D-05  0.359363D-02  0.323111D+00
     29 -0.238276D+00 -0.425453D-03  0.508870D-04  0.588212D+00  0.752395D-01
     30  0.165175D+00  0.183671D-03 -0.198038D-04  0.244073D+00  0.402504D-01
     31  0.963168D+00 -0.127738D-04  0.116713D-05  0.174642D+00  0.581672D-02
     32  0.194841D+00  0.143847D-03 -0.110201D-04  0.242755D+00  0.139574D-01
     33  0.496197D+00  0.226491D-02 -0.249738D-03  0.253052D+00  0.603500D+01
               21            22            23            24            25 
     21  0.123400D+11
     22  0.381331D-01  0.123400D+11
     23  0.527039D-02  0.312570D+02  0.123400D+11
     24  0.465895D+00 -0.334058D-01  0.643071D-02  0.123400D+11
     25  0.775603D-01 -0.564279D-02  0.229276D-02  0.268632D+02  0.123400D+11
     26 -0.122830D-01  0.261887D-02  0.148725D-03 -0.118038D+01  0.182122D+02
     27 -0.990418D-02  0.609519D-03 -0.711672D-05 -0.120599D+01  0.177974D+02
     28 -0.913376D-02 -0.159143D-02  0.102370D-03 -0.755225D+00  0.170167D+02
     29 -0.176472D-02  0.174751D+02  0.334710D+00 -0.498946D-02 -0.395450D-02
     30 -0.925789D-03 -0.596817D+00  0.150928D+00  0.170720D-02  0.194671D-02
     31 -0.441029D-03 -0.377564D+00  0.290636D+00 -0.128763D-03 -0.100621D-03
     32  0.145962D-02 -0.607618D+00  0.689590D-01 -0.937254D-03  0.203599D-02
     33  0.440264D+00  0.289924D+00 -0.100830D-01 -0.981900D+01  0.350700D+01
               26            27            28            29            30 
     26  0.123400D+11
     27 -0.928757D+00  0.123400D+11
     28 -0.728579D+00 -0.738332D+00  0.123400D+11
     29 -0.412672D-04 -0.360487D-03  0.115023D-03  0.123400D+11
     30  0.319518D-03  0.320184D-03 -0.300467D-04  0.198839D+02  0.123400D+11
     31  0.191903D-03  0.804234D-04  0.338637D-05  0.181655D+02 -0.748052D+00
     32 -0.714266D-04 -0.965383D-04 -0.172856D-04  0.201356D+02 -0.735746D+00
     33  0.446526D+00  0.456143D+00  0.802348D+00 -0.204332D-01  0.132570D-01
               31            32            33 
     31  0.123400D+11
     32 -0.741260D+00  0.123400D+11
     33  0.372409D-02  0.216096D-01  0.123400D+11
 Fermi Contact (FC) contribution to J (Hz):
                1             2             3             4             5 
      1  0.243533D+11
      2  0.689480D+02  0.243533D+11
      3 -0.233250D+01  0.682990D+02  0.243533D+11
      4  0.607439D+01  0.523676D+00  0.669613D+02  0.243533D+11
      5  0.320541D+01  0.599821D+01 -0.244243D+01  0.696543D+02  0.243533D+11
      6  0.713407D+02 -0.469136D+00  0.856448D+01  0.459855D+00  0.768312D+02
      7  0.170836D+03 -0.245923D+01  0.760552D+01 -0.166366D+01  0.483803D+01
      8 -0.174636D+01  0.175650D+03 -0.230594D+01  0.777874D+01 -0.221746D+01
      9 -0.227682D+01  0.793911D+01 -0.200372D+01  0.172455D+03 -0.167581D+01
     10  0.526066D+01 -0.171060D+01  0.827437D+01 -0.218188D+01  0.179976D+03
     11  0.418800D+01  0.319038D+01  0.486628D+02  0.296791D+01  0.389491D+01
     12  0.889935D-01  0.616505D+01 -0.664667D+01  0.624224D+01  0.737536D+00
     13 -0.376010D+00  0.563128D+01 -0.929265D+01  0.500053D+01 -0.802085D+00
     14 -0.910704D+00  0.166018D+01 -0.429110D+00  0.169466D+01 -0.112909D+01
     15  0.931561D-01 -0.133355D+00  0.399408D+01 -0.237096D+00  0.650165D-01
     16  0.310512D-01 -0.601311D-01  0.546776D-01 -0.107973D+00  0.383027D-01
     17  0.769532D+00  0.892596D-01 -0.283210D+00 -0.328946D+01 -0.124488D+02
     18  0.329256D+01 -0.854611D-01 -0.364913D+00  0.166721D+01  0.906293D+01
     19  0.906189D-03 -0.516526D+00 -0.378082D+00 -0.477473D-01 -0.115844D-01
     20  0.707570D-01  0.770830D-01  0.167234D+01 -0.563463D-01  0.174217D-01
     21  0.427812D-02  0.268017D-01 -0.213226D+00 -0.109228D-03  0.715904D-02
     22 -0.456869D-02  0.764843D-02 -0.152223D-01  0.358449D-01 -0.155337D-03
     23  0.299668D-02  0.229990D-02  0.219415D-01 -0.709090D-02  0.242287D-02
     24  0.192458D-01  0.814356D-01  0.390282D+00 -0.707272D-02 -0.173123D-02
     25  0.481806D-02  0.735741D-02  0.217762D+00 -0.484771D-02 -0.768332D-03
     26 -0.461694D-03  0.831569D-02  0.228931D-01  0.761561D-02 -0.416227D-02
     27 -0.458334D-03 -0.527031D-02 -0.217804D-01  0.287959D-02  0.208697D-02
     28 -0.118163D-02  0.117294D-02 -0.106512D-01  0.114397D-02 -0.954528D-03
     29  0.323558D-02 -0.273771D-02  0.256822D-02 -0.635524D-02  0.361610D-02
     30 -0.407333D-02  0.130545D-01 -0.211091D-01  0.832269D-02 -0.142361D-02
     31  0.391666D-03 -0.827350D-03  0.333711D-04 -0.637178D-03  0.686587D-03
     32 -0.245750D-02  0.577222D-03 -0.153729D-01  0.110879D-01  0.435085D-03
     33  0.508112D-02 -0.115588D-01  0.206445D-01 -0.135786D-01  0.283379D-02
                6             7             8             9            10 
      6  0.243533D+11
      7 -0.435312D+01  0.385007D+12
      8  0.931767D+01  0.102988D+02  0.385007D+12
      9  0.951320D+01  0.121507D+01  0.122982D+01  0.385007D+12
     10 -0.552337D+01  0.197196D+01  0.125785D+01  0.109991D+02  0.385007D+12
     11 -0.935923D+00  0.793246D-01  0.575635D+01  0.524781D+01  0.214504D+00
     12  0.139008D+00  0.109212D+00 -0.708297D+00 -0.165373D+00  0.213390D+00
     13  0.954321D+00  0.401763D+00 -0.937320D+00 -0.116629D+01  0.375195D+00
     14  0.109298D+01  0.340186D+00 -0.106019D+01 -0.825019D+00  0.413872D+00
     15 -0.371309D-01 -0.277689D-01  0.350734D-01 -0.107040D+00 -0.434985D-02
     16 -0.351677D-01 -0.219637D-01  0.361887D-01  0.476264D-01 -0.210988D-01
     17  0.127025D+02 -0.240518D+01 -0.293617D+00 -0.105985D+01 -0.299461D+01
     18 -0.518527D+01 -0.409974D+00  0.584580D-01  0.412642D+00  0.239979D-01
     19 -0.234333D-01  0.483891D-02 -0.253717D+00  0.444302D-01  0.361854D-01
     20 -0.395133D-02  0.204561D-01  0.340166D-01  0.849972D-02  0.945696D-02
     21 -0.355833D-02 -0.511425D-03  0.660028D-02  0.275966D-01 -0.494626D-02
     22  0.626065D-02  0.174164D-02  0.120731D-01  0.101737D-01  0.251472D-02
     23 -0.341275D-02 -0.167027D-02 -0.832959D-02  0.164012D-02 -0.897290D-03
     24  0.100960D-01  0.162944D-01  0.690682D-02  0.572952D-02  0.465009D-02
     25  0.311979D-02  0.272330D-02  0.223308D-02 -0.166530D-02  0.248427D-02
     26  0.344091D-02  0.106247D-02 -0.364344D-02 -0.320691D-02  0.122443D-02
     27 -0.116132D-02 -0.701925D-03  0.595920D-03  0.213354D-02 -0.659500D-03
     28  0.100828D-02  0.377255D-03 -0.107292D-02 -0.102745D-02  0.263998D-03
     29 -0.336105D-02 -0.219058D-02  0.524939D-02  0.713622D-02 -0.242822D-02
     30  0.515959D-02  0.255339D-02  0.352151D-01 -0.116983D-02  0.165738D-03
     31 -0.404137D-03 -0.248360D-03  0.142825D-02  0.373047D-03 -0.371148D-03
     32  0.270927D-02  0.140631D-02  0.237962D-02  0.162334D-02  0.747161D-03
     33 -0.499487D-02 -0.144986D-02  0.407629D-02  0.347785D-02 -0.583867D-03
               11            12            13            14            15 
     11  0.243533D+11
     12  0.138341D+03  0.385007D+12
     13  0.132950D+03 -0.247418D+02  0.385007D+12
     14  0.308260D+02 -0.592913D+01 -0.757145D+01  0.243533D+11
     15 -0.612068D+01  0.115002D+02  0.235358D+01  0.167172D+03  0.385007D+12
     16 -0.108240D+01  0.472041D+01  0.667992D+01  0.558889D+02 -0.895861D+01
     17 -0.652554D-01 -0.239483D-01 -0.178476D+00 -0.229417D+00  0.124556D-01
     18  0.930352D-01 -0.189938D-01 -0.138901D+00 -0.178039D+00  0.833700D-02
     19 -0.670347D+00  0.408260D-01 -0.894491D-01 -0.496541D+01 -0.134361D+01
     20  0.603308D+00  0.332802D-01  0.271199D+01  0.743192D+01 -0.111145D+01
     21  0.465933D+01 -0.268571D+00 -0.891427D+00  0.181023D+01  0.363546D+01
     22  0.234007D-01 -0.331017D-01  0.106935D+00  0.588706D+01  0.617900D+00
     23 -0.321886D+00 -0.645247D-01 -0.399859D-01  0.421536D+00  0.167174D+00
     24  0.317955D+01 -0.410311D+00  0.180806D+00 -0.197271D+00  0.212324D+01
     25 -0.628389D-01  0.176394D-01  0.178043D+00  0.136224D+01 -0.596925D+00
     26  0.372588D-01 -0.201628D-01 -0.113012D-01  0.269255D+00  0.740719D+00
     27 -0.186761D-01 -0.235607D-01 -0.167211D-01  0.115180D+00  0.939619D+00
     28 -0.203380D-01 -0.318400D-02 -0.860158D-02  0.697886D+00 -0.580156D-01
     29 -0.239406D+00  0.449422D-01  0.792359D-01  0.139378D+01  0.672501D+00
     30  0.449164D+00 -0.796834D-02  0.716355D-01 -0.627581D+00  0.397535D+00
     31  0.237840D-01  0.323291D-01  0.236508D-01 -0.194383D+00  0.104545D+00
     32  0.732699D+00  0.165823D-01  0.113470D+00 -0.595113D+00  0.153962D+00
     33 -0.139564D+00 -0.970460D-01 -0.220990D-01 -0.827837D+00 -0.105494D+01
               16            17            18            19            20 
     16  0.243533D+11
     17  0.668530D-02  0.708114D+10
     18  0.492414D-02 -0.840646D+02  0.385007D+12
     19  0.103929D+02  0.778357D-02  0.799577D-02  0.708114D+10
     20  0.130954D+00 -0.170473D-02 -0.191550D-03 -0.330020D+00  0.201170D+10
     21  0.165120D+01  0.157576D-03  0.517715D-03 -0.381511D+00  0.696341D+02
     22  0.167830D+02 -0.106757D-02 -0.616288D-03 -0.185686D+01 -0.856763D-01
     23  0.272814D+01  0.471660D-03  0.359059D-03 -0.188058D+01 -0.121407D+00
     24  0.211378D+00 -0.375420D-02 -0.238438D-02  0.194674D-01  0.143123D+02
     25 -0.283954D+00 -0.935944D-03 -0.554302D-03 -0.589406D-01  0.706332D+01
     26  0.400465D+00 -0.647255D-03 -0.494109D-03  0.708195D-02  0.958816D+00
     27  0.539527D+00  0.191630D-03  0.159101D-03 -0.196898D-01  0.668980D+00
     28 -0.144774D-01 -0.217569D-03 -0.175168D-03 -0.152056D-01  0.728706D+00
     29 -0.470243D+00  0.452759D-03  0.399305D-03 -0.625964D+00  0.426767D-01
     30  0.129611D+01 -0.777162D-03 -0.617879D-03 -0.103274D+01  0.907760D-01
     31  0.755789D+01  0.540495D-04  0.364143D-04 -0.738960D+00  0.131183D-01
     32  0.152890D+01 -0.608657D-03 -0.343826D-03 -0.102716D+01  0.314778D-01
     33 -0.528044D+00  0.129969D-02  0.105671D-02  0.145211D+00 -0.184585D+01
               21            22            23            24            25 
     21  0.385007D+12
     22  0.860009D-01  0.201170D+10
     23  0.164436D+00  0.704935D+02  0.385007D+12
     24  0.365583D+01 -0.189482D-01  0.504612D-01  0.243533D+11
     25  0.608608D+00 -0.320066D-02  0.179910D-01  0.530153D+02  0.243533D+11
     26 -0.383230D+00  0.590629D-02  0.464021D-02 -0.926230D+01  0.142909D+03
     27 -0.309010D+00  0.137464D-02 -0.222041D-03 -0.946328D+01  0.139654D+03
     28 -0.284973D+00 -0.358913D-02  0.319395D-02 -0.592618D+01  0.133529D+03
     29 -0.138476D-01  0.991207D+01  0.262644D+01 -0.984683D-02 -0.780431D-02
     30 -0.288846D-01 -0.134599D+01  0.470894D+01  0.133962D-01  0.152756D-01
     31 -0.137601D-01 -0.851515D+00  0.906784D+01 -0.101039D-02 -0.789560D-03
     32  0.455399D-01 -0.137035D+01  0.215152D+01 -0.735454D-02  0.159762D-01
     33 -0.186288D+01 -0.886753D-01  0.426638D-01  0.104492D+02 -0.373209D+01
               26            27            28            29            30 
     26  0.385007D+12
     27 -0.289772D+02  0.385007D+12
     28 -0.227316D+02 -0.230359D+02  0.385007D+12
     29 -0.323819D-03 -0.282871D-02  0.902577D-03  0.243533D+11
     30  0.996894D-02  0.998973D-02 -0.937457D-03  0.156027D+03  0.385007D+12
     31  0.598736D-02  0.250921D-02  0.105655D-03  0.142543D+03 -0.233392D+02
     32 -0.222851D-02 -0.301199D-02 -0.539309D-03  0.158002D+03 -0.229552D+02
     33 -0.188937D+01 -0.193006D+01 -0.339495D+01  0.217446D-01 -0.560939D-01
               31            32            33 
     31  0.385007D+12
     32 -0.231273D+02  0.385007D+12
     33 -0.157576D-01 -0.914360D-01  0.708114D+10
 End of Minotr F.D. properties file   721 does not exist.
 End of Minotr F.D. properties file   722 does not exist.
 End of Minotr F.D. properties file   788 does not exist.
 Leave Link 1002 at Wed Jun 25 01:30:59 2014, MaxMem=  4294967296 cpu:    451569.6
 (Enter /home/ztw1e12/g09/l601.exe)
 Copying SCF densities to generalized density rwf, IOpCl= 0 IROHF=0.

 **********************************************************************

            Population analysis using the SCF density.

 **********************************************************************

 Orbital symmetries:
       Occupied  (A) (A) (A) (A) (A) (A) (A) (A) (A) (A) (A) (A)
                 (A) (A) (A) (A) (A) (A) (A) (A) (A) (A) (A) (A)
                 (A) (A) (A) (A) (A) (A) (A) (A) (A) (A) (A) (A)
                 (A) (A) (A) (A) (A) (A) (A) (A) (A) (A) (A) (A)
                 (A) (A) (A) (A) (A) (A) (A) (A) (A) (A) (A) (A)
                 (A) (A) (A)
       Virtual   (A) (A) (A) (A) (A) (A) (A) (A) (A) (A) (A) (A)
                 (A) (A) (A) (A) (A) (A) (A) (A) (A) (A) (A) (A)
                 (A) (A) (A) (A) (A) (A) (A) (A) (A) (A) (A) (A)
                 (A) (A) (A) (A) (A) (A) (A) (A) (A) (A) (A) (A)
                 (A) (A) (A) (A) (A) (A) (A) (A) (A) (A) (A) (A)
                 (A) (A) (A) (A) (A) (A) (A) (A) (A) (A) (A) (A)
                 (A) (A) (A) (A) (A) (A) (A) (A) (A) (A) (A) (A)
                 (A) (A) (A) (A) (A) (A) (A) (A) (A) (A) (A) (A)
                 (A) (A) (A) (A) (A) (A) (A) (A) (A) (A) (A) (A)
                 (A) (A) (A) (A) (A) (A) (A) (A) (A) (A) (A) (A)
                 (A) (A) (A) (A) (A) (A) (A) (A) (A) (A) (A) (A)
                 (A) (A) (A) (A) (A) (A) (A) (A) (A) (A) (A) (A)
                 (A) (A) (A) (A) (A) (A) (A) (A) (A) (A) (A) (A)
                 (A) (A) (A) (A) (A) (A) (A) (A) (A) (A) (A) (A)
                 (A) (A) (A) (A) (A) (A) (A) (A) (A) (A) (A) (A)
                 (A) (A) (A) (A) (A) (A) (A) (A) (A) (A) (A) (A)
                 (A) (A) (A) (A) (A) (A) (A) (A) (A) (A) (A) (A)
                 (A) (A) (A) (A) (A) (A) (A) (A) (A) (A) (A) (A)
                 (A) (A) (A) (A) (A) (A) (A) (A) (A) (A) (A) (A)
                 (A) (A) (A) (A) (A) (A) (A) (A) (A) (A) (A) (A)
                 (A) (A) (A) (A) (A) (A) (A) (A) (A) (A) (A) (A)
                 (A) (A) (A) (A) (A) (A) (A) (A) (A) (A) (A) (A)
                 (A) (A) (A) (A) (A) (A) (A) (A) (A) (A) (A) (A)
                 (A) (A) (A) (A) (A) (A) (A) (A) (A) (A) (A) (A)
                 (A) (A) (A) (A) (A) (A) (A) (A) (A) (A) (A) (A)
                 (A) (A) (A) (A) (A) (A) (A) (A) (A) (A) (A) (A)
                 (A) (A) (A) (A) (A) (A) (A) (A) (A) (A) (A) (A)
                 (A) (A) (A) (A) (A) (A) (A) (A) (A) (A) (A) (A)
                 (A) (A) (A) (A) (A) (A) (A) (A) (A) (A) (A) (A)
                 (A) (A) (A) (A) (A) (A) (A) (A) (A) (A) (A) (A)
                 (A) (A) (A) (A) (A) (A) (A) (A) (A) (A) (A) (A)
                 (A) (A) (A) (A) (A) (A) (A) (A) (A) (A) (A) (A)
                 (A) (A) (A) (A) (A) (A) (A) (A) (A) (A) (A) (A)
                 (A) (A) (A) (A) (A) (A) (A) (A) (A) (A) (A) (A)
                 (A) (A) (A) (A) (A) (A) (A) (A) (A) (A) (A) (A)
                 (A) (A) (A) (A) (A) (A) (A) (A) (A) (A) (A) (A)
                 (A) (A) (A) (A) (A) (A) (A) (A) (A) (A) (A) (A)
                 (A) (A) (A) (A) (A) (A) (A) (A) (A) (A) (A) (A)
                 (A) (A) (A) (A) (A) (A) (A) (A) (A) (A) (A) (A)
                 (A) (A) (A) (A) (A) (A) (A) (A) (A) (A) (A) (A)
                 (A) (A) (A) (A) (A) (A) (A) (A) (A) (A) (A) (A)
                 (A) (A) (A) (A) (A) (A) (A) (A) (A) (A) (A) (A)
                 (A) (A) (A) (A) (A) (A) (A) (A) (A) (A) (A) (A)
                 (A) (A) (A) (A) (A) (A) (A) (A) (A) (A) (A) (A)
                 (A) (A) (A) (A) (A) (A) (A) (A) (A) (A) (A) (A)
                 (A) (A) (A) (A) (A) (A) (A) (A) (A) (A) (A) (A)
                 (A) (A) (A) (A) (A) (A) (A) (A) (A) (A) (A) (A)
                 (A) (A) (A) (A) (A) (A) (A) (A) (A) (A) (A) (A)
                 (A) (A) (A) (A) (A) (A) (A) (A) (A) (A) (A) (A)
                 (A) (A) (A) (A) (A) (A) (A) (A) (A) (A) (A) (A)
                 (A) (A) (A) (A) (A) (A) (A) (A) (A) (A) (A) (A)
                 (A) (A) (A) (A) (A) (A) (A) (A) (A) (A) (A) (A)
                 (A) (A) (A) (A) (A) (A) (A) (A) (A) (A) (A) (A)
                 (A) (A) (A) (A) (A) (A) (A) (A) (A) (A) (A) (A)
                 (A) (A) (A) (A) (A) (A) (A) (A) (A) (A) (A) (A)
                 (A) (A) (A) (A) (A) (A) (A) (A) (A) (A) (A) (A)
                 (A) (A) (A) (A) (A) (A) (A) (A) (A) (A) (A) (A)
                 (A) (A) (A) (A) (A) (A) (A) (A) (A) (A) (A) (A)
                 (A) (A) (A) (A) (A) (A) (A) (A) (A) (A) (A) (A)
                 (A) (A) (A) (A) (A) (A) (A) (A) (A) (A) (A) (A)
                 (A) (A) (A) (A) (A) (A) (A) (A) (A) (A) (A) (A)
                 (A) (A) (A) (A) (A) (A) (A) (A) (A) (A) (A) (A)
                 (A) (A) (A) (A) (A) (A) (A) (A) (A) (A) (A) (A)
                 (A) (A) (A) (A) (A) (A) (A) (A) (A) (A) (A) (A)
                 (A) (A) (A) (A) (A) (A) (A) (A) (A) (A) (A) (A)
                 (A) (A) (A) (A) (A) (A) (A) (A) (A) (A) (A) (A)
                 (A) (A) (A) (A) (A) (A) (A) (A) (A) (A) (A) (A)
                 (A) (A) (A) (A) (A) (A) (A) (A) (A) (A) (A) (A)
                 (A) (A) (A) (A) (A) (A) (A) (A) (A) (A) (A) (A)
                 (A) (A) (A) (A) (A) (A) (A) (A) (A) (A) (A) (A)
                 (A) (A) (A) (A) (A) (A) (A) (A) (A) (A) (A) (A)
                 (A) (A) (A) (A) (A) (A) (A) (A) (A) (A) (A) (A)
                 (A) (A) (A) (A) (A) (A) (A) (A) (A) (A) (A) (A)
                 (A) (A) (A) (A) (A) (A) (A) (A) (A) (A) (A) (A)
                 (A) (A) (A) (A) (A) (A) (A) (A) (A) (A) (A) (A)
                 (A) (A) (A) (A) (A) (A) (A) (A) (A) (A) (A) (A)
                 (A) (A) (A) (A) (A) (A) (A) (A) (A) (A) (A) (A)
                 (A) (A) (A) (A) (A) (A) (A) (A) (A) (A) (A) (A)
                 (A) (A) (A) (A) (A) (A) (A) (A) (A) (A) (A) (A)
                 (A) (A) (A) (A) (A) (A) (A) (A) (A) (A) (A) (A)
                 (A) (A) (A) (A) (A) (A) (A) (A) (A) (A) (A) (A)
                 (A) (A) (A) (A) (A) (A) (A) (A) (A) (A) (A) (A)
                 (A) (A) (A) (A) (A) (A) (A) (A) (A) (A) (A) (A)
                 (A) (A) (A) (A) (A) (A) (A) (A) (A)
 The electronic state is 1-A.
 Alpha  occ. eigenvalues --  -19.24205 -19.17777 -19.16594 -14.42955 -14.41557
 Alpha  occ. eigenvalues --  -10.34675 -10.33103 -10.30205 -10.29123 -10.26995
 Alpha  occ. eigenvalues --  -10.26190 -10.25168 -10.24472 -10.24295 -10.24251
 Alpha  occ. eigenvalues --  -10.23859 -10.23486  -1.08522  -1.05985  -1.04340
 Alpha  occ. eigenvalues --   -0.95863  -0.93615  -0.87309  -0.81585  -0.77168
 Alpha  occ. eigenvalues --   -0.76136  -0.74088  -0.71658  -0.66677  -0.63648
 Alpha  occ. eigenvalues --   -0.62066  -0.59807  -0.59501  -0.55902  -0.54941
 Alpha  occ. eigenvalues --   -0.52385  -0.50660  -0.49579  -0.48136  -0.47166
 Alpha  occ. eigenvalues --   -0.46768  -0.45619  -0.44866  -0.43886  -0.43277
 Alpha  occ. eigenvalues --   -0.42747  -0.42239  -0.42118  -0.41268  -0.41004
 Alpha  occ. eigenvalues --   -0.39844  -0.39290  -0.37887  -0.37020  -0.36099
 Alpha  occ. eigenvalues --   -0.34841  -0.34628  -0.29749  -0.27359  -0.27261
 Alpha  occ. eigenvalues --   -0.26590  -0.25774  -0.23107
 Alpha virt. eigenvalues --   -0.00644   0.00278   0.01421   0.01767   0.02672
 Alpha virt. eigenvalues --    0.03025   0.03551   0.04628   0.05642   0.06122
 Alpha virt. eigenvalues --    0.06650   0.07854   0.09178   0.09664   0.10427
 Alpha virt. eigenvalues --    0.10604   0.11456   0.12698   0.12963   0.13964
 Alpha virt. eigenvalues --    0.15098   0.15800   0.16622   0.17421   0.18902
 Alpha virt. eigenvalues --    0.20108   0.21308   0.22165   0.22889   0.23392
 Alpha virt. eigenvalues --    0.24192   0.24924   0.25223   0.26172   0.26385
 Alpha virt. eigenvalues --    0.26780   0.27842   0.28627   0.29625   0.30342
 Alpha virt. eigenvalues --    0.30533   0.31215   0.31962   0.32390   0.32716
 Alpha virt. eigenvalues --    0.33378   0.33998   0.34882   0.35354   0.35551
 Alpha virt. eigenvalues --    0.35994   0.36285   0.36457   0.37340   0.37482
 Alpha virt. eigenvalues --    0.38240   0.38563   0.39132   0.39609   0.39729
 Alpha virt. eigenvalues --    0.40100   0.40438   0.41051   0.41749   0.41839
 Alpha virt. eigenvalues --    0.42168   0.42723   0.42963   0.43541   0.44316
 Alpha virt. eigenvalues --    0.44646   0.44936   0.45393   0.46681   0.47259
 Alpha virt. eigenvalues --    0.47387   0.47953   0.48657   0.50018   0.50381
 Alpha virt. eigenvalues --    0.50877   0.51675   0.52140   0.52205   0.53145
 Alpha virt. eigenvalues --    0.53944   0.55001   0.55382   0.55814   0.56437
 Alpha virt. eigenvalues --    0.57282   0.58408   0.60330   0.60370   0.61493
 Alpha virt. eigenvalues --    0.62197   0.63288   0.63487   0.64222   0.65003
 Alpha virt. eigenvalues --    0.66136   0.66594   0.67427   0.67633   0.68544
 Alpha virt. eigenvalues --    0.69493   0.70341   0.71436   0.71746   0.72460
 Alpha virt. eigenvalues --    0.72879   0.73884   0.75201   0.75758   0.76465
 Alpha virt. eigenvalues --    0.76782   0.77337   0.78262   0.79710   0.80249
 Alpha virt. eigenvalues --    0.80440   0.81433   0.82265   0.82760   0.83335
 Alpha virt. eigenvalues --    0.84051   0.84151   0.84788   0.85584   0.85802
 Alpha virt. eigenvalues --    0.86975   0.88069   0.89434   0.90339   0.90612
 Alpha virt. eigenvalues --    0.91550   0.92437   0.92917   0.94189   0.94430
 Alpha virt. eigenvalues --    0.94957   0.95907   0.96033   0.96944   0.97892
 Alpha virt. eigenvalues --    0.98276   0.99198   0.99597   1.00226   1.01041
 Alpha virt. eigenvalues --    1.02438   1.03333   1.04222   1.04663   1.05546
 Alpha virt. eigenvalues --    1.06414   1.06938   1.08223   1.09043   1.09313
 Alpha virt. eigenvalues --    1.09839   1.11560   1.12726   1.13290   1.13859
 Alpha virt. eigenvalues --    1.14415   1.15824   1.15971   1.16980   1.17297
 Alpha virt. eigenvalues --    1.18006   1.18295   1.18820   1.19319   1.19668
 Alpha virt. eigenvalues --    1.20890   1.21468   1.22070   1.22899   1.22949
 Alpha virt. eigenvalues --    1.23017   1.23921   1.24600   1.25076   1.25388
 Alpha virt. eigenvalues --    1.25955   1.26017   1.26753   1.27186   1.27276
 Alpha virt. eigenvalues --    1.27512   1.29009   1.29932   1.30450   1.31038
 Alpha virt. eigenvalues --    1.31495   1.32616   1.32932   1.33413   1.34091
 Alpha virt. eigenvalues --    1.34374   1.35236   1.36381   1.36722   1.38022
 Alpha virt. eigenvalues --    1.38883   1.39781   1.40103   1.42172   1.42964
 Alpha virt. eigenvalues --    1.44414   1.45697   1.47138   1.48495   1.49849
 Alpha virt. eigenvalues --    1.52747   1.52940   1.54917   1.56727   1.58059
 Alpha virt. eigenvalues --    1.58698   1.60368   1.61134   1.61889   1.63295
 Alpha virt. eigenvalues --    1.64860   1.66007   1.68272   1.70016   1.72276
 Alpha virt. eigenvalues --    1.72620   1.74776   1.75244   1.76499   1.78858
 Alpha virt. eigenvalues --    1.80009   1.82623   1.82802   1.83978   1.85872
 Alpha virt. eigenvalues --    1.86308   1.88530   1.89180   1.89522   1.90004
 Alpha virt. eigenvalues --    1.91562   1.92788   1.92934   1.94875   1.96201
 Alpha virt. eigenvalues --    1.97098   1.99044   2.00227   2.01721   2.02480
 Alpha virt. eigenvalues --    2.03339   2.04421   2.07624   2.07899   2.09341
 Alpha virt. eigenvalues --    2.10829   2.11231   2.11928   2.13801   2.14993
 Alpha virt. eigenvalues --    2.15647   2.17715   2.18972   2.19108   2.20549
 Alpha virt. eigenvalues --    2.21535   2.23028   2.24148   2.25185   2.27417
 Alpha virt. eigenvalues --    2.27573   2.28673   2.30003   2.31849   2.32569
 Alpha virt. eigenvalues --    2.33593   2.36371   2.36632   2.37962   2.38699
 Alpha virt. eigenvalues --    2.39264   2.40503   2.40909   2.42428   2.43844
 Alpha virt. eigenvalues --    2.44383   2.44885   2.45454   2.47997   2.48732
 Alpha virt. eigenvalues --    2.49123   2.50124   2.51748   2.53517   2.54160
 Alpha virt. eigenvalues --    2.56320   2.56526   2.57081   2.58421   2.60109
 Alpha virt. eigenvalues --    2.62799   2.63430   2.64235   2.65625   2.66060
 Alpha virt. eigenvalues --    2.67947   2.68167   2.68960   2.69243   2.70011
 Alpha virt. eigenvalues --    2.70811   2.71005   2.71070   2.72524   2.72792
 Alpha virt. eigenvalues --    2.73665   2.74018   2.75317   2.75698   2.76695
 Alpha virt. eigenvalues --    2.76892   2.77238   2.77684   2.79712   2.80474
 Alpha virt. eigenvalues --    2.82195   2.83339   2.84489   2.85661   2.86725
 Alpha virt. eigenvalues --    2.87252   2.88008   2.88482   2.89103   2.90162
 Alpha virt. eigenvalues --    2.90325   2.90490   2.91053   2.92082   2.92583
 Alpha virt. eigenvalues --    2.93242   2.93666   2.94364   2.95457   2.95703
 Alpha virt. eigenvalues --    2.96414   2.96950   2.97380   2.97939   2.98598
 Alpha virt. eigenvalues --    2.99449   2.99735   3.00653   3.00829   3.01560
 Alpha virt. eigenvalues --    3.02283   3.02902   3.04045   3.04455   3.04780
 Alpha virt. eigenvalues --    3.05063   3.06036   3.06825   3.08268   3.10141
 Alpha virt. eigenvalues --    3.11080   3.11140   3.12236   3.12383   3.13065
 Alpha virt. eigenvalues --    3.14050   3.14745   3.15600   3.16807   3.17518
 Alpha virt. eigenvalues --    3.18267   3.18367   3.18840   3.19784   3.19980
 Alpha virt. eigenvalues --    3.20974   3.21796   3.22834   3.23568   3.25657
 Alpha virt. eigenvalues --    3.25928   3.26176   3.26941   3.27674   3.27781
 Alpha virt. eigenvalues --    3.28593   3.29326   3.29417   3.30986   3.31048
 Alpha virt. eigenvalues --    3.31429   3.32247   3.32966   3.33935   3.34454
 Alpha virt. eigenvalues --    3.35046   3.36539   3.37962   3.38529   3.38705
 Alpha virt. eigenvalues --    3.39979   3.40946   3.41038   3.42386   3.42732
 Alpha virt. eigenvalues --    3.43547   3.44199   3.44967   3.46086   3.46944
 Alpha virt. eigenvalues --    3.47114   3.47220   3.48343   3.49235   3.51155
 Alpha virt. eigenvalues --    3.51754   3.52817   3.53144   3.54309   3.56911
 Alpha virt. eigenvalues --    3.57915   3.58581   3.59585   3.60296   3.60741
 Alpha virt. eigenvalues --    3.62082   3.62737   3.64265   3.64331   3.65349
 Alpha virt. eigenvalues --    3.66892   3.68412   3.68621   3.69285   3.70205
 Alpha virt. eigenvalues --    3.71501   3.71958   3.72919   3.73412   3.73891
 Alpha virt. eigenvalues --    3.74938   3.75551   3.75810   3.76738   3.77245
 Alpha virt. eigenvalues --    3.77974   3.79300   3.80266   3.80769   3.81401
 Alpha virt. eigenvalues --    3.82276   3.83530   3.85100   3.85653   3.86050
 Alpha virt. eigenvalues --    3.86692   3.87478   3.88098   3.88924   3.89893
 Alpha virt. eigenvalues --    3.90555   3.91181   3.92222   3.94308   3.94986
 Alpha virt. eigenvalues --    3.95461   3.96732   3.97311   3.98098   4.00252
 Alpha virt. eigenvalues --    4.00791   4.01225   4.03161   4.04537   4.04860
 Alpha virt. eigenvalues --    4.05454   4.05591   4.07104   4.07666   4.09760
 Alpha virt. eigenvalues --    4.10112   4.10746   4.11147   4.12382   4.14289
 Alpha virt. eigenvalues --    4.15152   4.15409   4.16352   4.17233   4.18594
 Alpha virt. eigenvalues --    4.19111   4.20549   4.21453   4.22315   4.23090
 Alpha virt. eigenvalues --    4.23919   4.24606   4.25172   4.25600   4.26790
 Alpha virt. eigenvalues --    4.27519   4.28385   4.28733   4.29794   4.30326
 Alpha virt. eigenvalues --    4.33075   4.33336   4.35321   4.36213   4.37722
 Alpha virt. eigenvalues --    4.38677   4.39937   4.41538   4.43982   4.44909
 Alpha virt. eigenvalues --    4.45911   4.46250   4.48041   4.49294   4.51412
 Alpha virt. eigenvalues --    4.52444   4.54064   4.55824   4.57630   4.58954
 Alpha virt. eigenvalues --    4.58997   4.59692   4.61956   4.62010   4.63894
 Alpha virt. eigenvalues --    4.64741   4.65286   4.66363   4.66832   4.68164
 Alpha virt. eigenvalues --    4.69684   4.70013   4.70490   4.71473   4.73107
 Alpha virt. eigenvalues --    4.74185   4.75364   4.76669   4.78083   4.78623
 Alpha virt. eigenvalues --    4.80951   4.82212   4.82962   4.84265   4.86228
 Alpha virt. eigenvalues --    4.87269   4.88437   4.89243   4.90634   4.91066
 Alpha virt. eigenvalues --    4.91557   4.92843   4.94501   4.95114   4.96023
 Alpha virt. eigenvalues --    4.96796   4.98813   5.00692   5.01850   5.02771
 Alpha virt. eigenvalues --    5.04049   5.04778   5.06372   5.08142   5.08341
 Alpha virt. eigenvalues --    5.09708   5.10616   5.12384   5.12870   5.14677
 Alpha virt. eigenvalues --    5.15845   5.17174   5.18046   5.18155   5.20525
 Alpha virt. eigenvalues --    5.21886   5.22710   5.23835   5.25232   5.28584
 Alpha virt. eigenvalues --    5.31021   5.33742   5.36094   5.36705   5.37609
 Alpha virt. eigenvalues --    5.42334   5.42776   5.45235   5.45784   5.48092
 Alpha virt. eigenvalues --    5.51235   5.52300   5.52880   5.53739   5.55892
 Alpha virt. eigenvalues --    5.56475   5.57876   5.60372   5.60836   5.61924
 Alpha virt. eigenvalues --    5.63507   5.65016   5.65352   5.66025   5.67622
 Alpha virt. eigenvalues --    5.68539   5.69284   5.71743   5.72489   5.73263
 Alpha virt. eigenvalues --    5.74879   5.76619   5.80103   5.80463   5.82262
 Alpha virt. eigenvalues --    5.85761   5.89191   5.90538   5.92331   5.97056
 Alpha virt. eigenvalues --    5.97938   5.99060   6.04101   6.07234   6.11373
 Alpha virt. eigenvalues --    6.17823   6.18984   6.19461   6.21570   6.26000
 Alpha virt. eigenvalues --    6.46638   6.47390   6.51798   6.52601   6.56663
 Alpha virt. eigenvalues --    6.61436   6.61632   6.63214   6.64567   6.66483
 Alpha virt. eigenvalues --    6.79036   6.79655   6.80926   6.88788   6.89168
 Alpha virt. eigenvalues --    6.90853   6.91782   6.92312   6.94990   7.07250
 Alpha virt. eigenvalues --    7.17893   7.19975   7.22641   7.27044   7.29868
 Alpha virt. eigenvalues --    7.68352   7.99639   8.10574   8.12848   8.13455
 Alpha virt. eigenvalues --    8.19955   8.24511   8.27087   8.36816   8.66305
 Alpha virt. eigenvalues --    8.74013   8.76519   8.77730   8.81269   8.82518
 Alpha virt. eigenvalues --    8.83583   8.85065   8.87152   8.89975   8.91946
 Alpha virt. eigenvalues --    8.92244   8.93388   8.96519   9.00396   9.06414
 Alpha virt. eigenvalues --    9.08717   9.12100   9.18131   9.21655   9.32110
 Alpha virt. eigenvalues --    9.36365   9.40973   9.41836   9.46445   9.49323
 Alpha virt. eigenvalues --    9.58384   9.61031   9.77752   9.81817  10.02843
 Alpha virt. eigenvalues --   10.08178  10.11582  10.13125  10.13626  10.17667
 Alpha virt. eigenvalues --   10.18804  10.19929  10.20924  10.26197  10.27589
 Alpha virt. eigenvalues --   10.30106  10.34521  10.83441  11.70513  11.76271
 Alpha virt. eigenvalues --   11.80744  11.92924  11.96471  12.01863  12.11990
 Alpha virt. eigenvalues --   12.16246  12.22837  12.24296  12.30467  12.32783
 Alpha virt. eigenvalues --   12.41480  12.54984  12.59179  12.83389  12.87663
 Alpha virt. eigenvalues --   12.92436  14.85356  14.95330  15.01705  15.23753
 Alpha virt. eigenvalues --   15.26634  15.43198  15.98456  15.99457  16.02134
 Alpha virt. eigenvalues --   16.81871  16.91529  21.90235  22.00668  22.07517
 Alpha virt. eigenvalues --   40.12092  40.16888  40.20049  40.21810  40.24673
 Alpha virt. eigenvalues --   40.27737  40.29863  40.37762  40.57725  40.66081
[...]
 Alpha virt. eigenvalues --    6.57690   6.62187   6.63104   6.64989   6.67731
 Alpha virt. eigenvalues --    6.79060   6.81348   6.86561   6.86837   6.88307
 Alpha virt. eigenvalues --    6.91206   6.95645   7.09083   7.09716   7.11836
 Alpha virt. eigenvalues --    7.15519   7.17519   7.29550   7.44160   8.61836
 Alpha virt. eigenvalues --    9.51010   9.88536  11.92488  12.14298  12.31198
 Alpha virt. eigenvalues --   12.41776  12.56855  12.75035  12.93599  13.23763
 Alpha virt. eigenvalues --   13.43859  13.56779  13.60399  13.73390  13.97928
 Alpha virt. eigenvalues --   15.55377
          Condensed to atoms (all electrons):
               1          2          3          4          5          6
     1  C    5.377815   0.241967  -0.002037  -0.035345  -0.024868   0.315085
     2  C    0.241967   5.339243   0.294462  -0.012488  -0.032647   0.024784
     3  C   -0.002037   0.294462   5.259378   0.349114  -0.042765  -0.067385
     4  C   -0.035345  -0.012488   0.349114   5.152172   0.445832  -0.025947
     5  C   -0.024868  -0.032647  -0.042765   0.445832   5.049775   0.393363
     6  C    0.315085   0.024784  -0.067385  -0.025947   0.393363   4.859832
     7  H    0.450758  -0.034349   0.008621  -0.000501   0.003958  -0.072795
     8  H   -0.014933   0.439481  -0.087730   0.004828  -0.000659   0.006713
     9  H   -0.003355   0.008229  -0.092784   0.457093  -0.032840   0.011283
    10  H    0.013515  -0.005463   0.013923  -0.056957   0.453296  -0.079062
    11  C    0.007747  -0.063201   0.278010  -0.060131   0.001639  -0.001063
    12  H    0.000679   0.002003  -0.031140   0.003015  -0.000044   0.000046
    13  H   -0.000278   0.001777  -0.034276  -0.005142   0.000003   0.000078
    14  C   -0.000205  -0.002592  -0.042557  -0.000681   0.001180  -0.000258
    15  H   -0.000097   0.003342   0.003178  -0.004363   0.000386  -0.000053
    16  C    0.000007  -0.008218   0.014041   0.003251  -0.000152  -0.000066
    17  O   -0.090076   0.013630  -0.000522   0.002774  -0.048804   0.391962
    18  H   -0.004848   0.004681  -0.000429  -0.000684   0.002150  -0.043795
    19  O    0.000304   0.000252  -0.000880  -0.000210  -0.000137  -0.000069
    20  N    0.000002   0.000265   0.001635  -0.000380  -0.000057   0.000004
    21  H   -0.000001  -0.000103   0.001719   0.000185   0.000006  -0.000001
    22  N    0.000035   0.000728  -0.002333  -0.000291  -0.000002   0.000005
    23  H    0.000001   0.000081   0.000691  -0.000028   0.000002   0.000000
    24  C    0.000001  -0.000017  -0.000665   0.000017   0.000000   0.000000
    25  C    0.000000   0.000000  -0.000003  -0.000005   0.000000   0.000000
    26  H    0.000000   0.000000   0.000002   0.000000   0.000000   0.000000
    27  H    0.000000   0.000000  -0.000003   0.000000   0.000000   0.000000
    28  H    0.000000   0.000000  -0.000005   0.000003   0.000000   0.000000
    29  C   -0.000020  -0.000139   0.000046   0.000019   0.000000   0.000000
    30  H   -0.000015   0.000181   0.000193   0.000020  -0.000001  -0.000003
    31  H   -0.000001  -0.000002  -0.000003   0.000000   0.000000   0.000000
    32  H    0.000000  -0.000004   0.000005  -0.000003   0.000000   0.000000
    33  O    0.000000   0.000000   0.000070  -0.000040   0.000000   0.000000
               7          8          9         10         11         12
     1  C    0.450758  -0.014933  -0.003355   0.013515   0.007747   0.000679
     2  C   -0.034349   0.439481   0.008229  -0.005463  -0.063201   0.002003
     3  C    0.008621  -0.087730  -0.092784   0.013923   0.278010  -0.031140
     4  C   -0.000501   0.004828   0.457093  -0.056957  -0.060131   0.003015
     5  C    0.003958  -0.000659  -0.032840   0.453296   0.001639  -0.000044
     6  C   -0.072795   0.006713   0.011283  -0.079062  -0.001063   0.000046
     7  H    0.540991  -0.006796   0.000052  -0.000244  -0.000326  -0.000063
     8  H   -0.006796   0.508067  -0.000252   0.000057   0.004076   0.002247
     9  H    0.000052  -0.000252   0.512740  -0.009402   0.001613   0.000147
    10  H   -0.000244   0.000057  -0.009402   0.544431  -0.000298   0.000018
    11  C   -0.000326   0.004076   0.001613  -0.000298   5.393192   0.409244
    12  H   -0.000063   0.002247   0.000147   0.000018   0.409244   0.444103
    13  H    0.000020   0.000419   0.000739  -0.000039   0.427944  -0.007687
    14  C    0.000023  -0.001485  -0.001820   0.000041   0.173899  -0.035901
    15  H   -0.000001   0.000101  -0.000084   0.000054  -0.023578   0.004143
    16  C    0.000023  -0.000820   0.000311  -0.000008  -0.045774  -0.014230
    17  O   -0.004232  -0.000116  -0.000139   0.006387   0.000001  -0.000001
    18  H    0.004629  -0.000006   0.000047  -0.000963  -0.000006   0.000000
    19  O    0.000037  -0.000404   0.000028  -0.000001  -0.002125  -0.000708
    20  N    0.000000  -0.000001   0.000214  -0.000002  -0.032344  -0.001528
    21  H    0.000000   0.000008   0.000070   0.000000  -0.002656   0.000618
    22  N   -0.000003   0.000772  -0.000001   0.000000   0.003577   0.011531
    23  H    0.000000   0.000078  -0.000004   0.000000   0.002365   0.001454
    24  C    0.000000  -0.000009   0.000035   0.000000   0.008280  -0.000992
    25  C    0.000000   0.000000  -0.000004   0.000000   0.000197   0.000018
    26  H    0.000000   0.000000  -0.000001   0.000000   0.000012   0.000000
    27  H    0.000000   0.000000   0.000000   0.000000  -0.000040  -0.000009
    28  H    0.000000   0.000000   0.000001   0.000000  -0.000291  -0.000019
    29  C    0.000000   0.000095   0.000000   0.000000  -0.000387  -0.000314
    30  H    0.000004   0.000008   0.000000   0.000000  -0.000316  -0.000571
    31  H    0.000000  -0.000006   0.000000   0.000000  -0.000040  -0.000047
    32  H    0.000000   0.000015   0.000000   0.000000   0.000156   0.000133
    33  O    0.000000   0.000000  -0.000013   0.000000   0.002305   0.000070
              13         14         15         16         17         18
     1  C   -0.000278  -0.000205  -0.000097   0.000007  -0.090076  -0.004848
     2  C    0.001777  -0.002592   0.003342  -0.008218   0.013630   0.004681
     3  C   -0.034276  -0.042557   0.003178   0.014041  -0.000522  -0.000429
     4  C   -0.005142  -0.000681  -0.004363   0.003251   0.002774  -0.000684
     5  C    0.000003   0.001180   0.000386  -0.000152  -0.048804   0.002150
     6  C    0.000078  -0.000258  -0.000053  -0.000066   0.391962  -0.043795
     7  H    0.000020   0.000023  -0.000001   0.000023  -0.004232   0.004629
     8  H    0.000419  -0.001485   0.000101  -0.000820  -0.000116  -0.000006
     9  H    0.000739  -0.001820  -0.000084   0.000311  -0.000139   0.000047
    10  H   -0.000039   0.000041   0.000054  -0.000008   0.006387  -0.000963
    11  C    0.427944   0.173899  -0.023578  -0.045774   0.000001  -0.000006
    12  H   -0.007687  -0.035901   0.004143  -0.014230  -0.000001   0.000000
    13  H    0.483051  -0.070867  -0.005017   0.009973  -0.000001   0.000000
    14  C   -0.070867   5.476999   0.433831   0.220746   0.000001   0.000000
    15  H   -0.005017   0.433831   0.434201  -0.065587   0.000000   0.000000
    16  C    0.009973   0.220746  -0.065587   4.738707   0.000000   0.000000
    17  O   -0.000001   0.000001   0.000000   0.000000   7.664766   0.360070
    18  H    0.000000   0.000000   0.000000   0.000000   0.360070   0.490940
    19  O   -0.000519  -0.069383   0.009969   0.723130   0.000000   0.000000
    20  N   -0.001191   0.172650  -0.038094  -0.044542   0.000000   0.000000
    21  H    0.005972  -0.022483   0.001033   0.002107   0.000000   0.000000
    22  N   -0.000484  -0.100792   0.007847   0.293055   0.000000   0.000000
    23  H   -0.000464  -0.000819   0.000764  -0.033612   0.000000   0.000000
    24  C   -0.000367  -0.090737  -0.003734   0.002201   0.000000   0.000000
    25  C   -0.000198   0.007097   0.001433  -0.001936   0.000000   0.000000
    26  H   -0.000027  -0.000108   0.000128  -0.000188   0.000000   0.000000
    27  H    0.000019  -0.000484  -0.000159   0.000538   0.000000   0.000000
    28  H   -0.000021   0.001189  -0.000273   0.000011   0.000000   0.000000
    29  C    0.000072   0.009599  -0.000627  -0.054492   0.000000   0.000000
    30  H   -0.000008   0.000220  -0.000165  -0.002083   0.000000   0.000000
    31  H    0.000002   0.000585  -0.000013   0.008806   0.000000   0.000000
    32  H    0.000009   0.000728   0.000089  -0.004919   0.000000   0.000000
    33  O   -0.000083   0.010836   0.012735   0.003092   0.000000   0.000000
              19         20         21         22         23         24
     1  C    0.000304   0.000002  -0.000001   0.000035   0.000001   0.000001
     2  C    0.000252   0.000265  -0.000103   0.000728   0.000081  -0.000017
     3  C   -0.000880   0.001635   0.001719  -0.002333   0.000691  -0.000665
     4  C   -0.000210  -0.000380   0.000185  -0.000291  -0.000028   0.000017
     5  C   -0.000137  -0.000057   0.000006  -0.000002   0.000002   0.000000
     6  C   -0.000069   0.000004  -0.000001   0.000005   0.000000   0.000000
     7  H    0.000037   0.000000   0.000000  -0.000003   0.000000   0.000000
     8  H   -0.000404  -0.000001   0.000008   0.000772   0.000078  -0.000009
     9  H    0.000028   0.000214   0.000070  -0.000001  -0.000004   0.000035
    10  H   -0.000001  -0.000002   0.000000   0.000000   0.000000   0.000000
    11  C   -0.002125  -0.032344  -0.002656   0.003577   0.002365   0.008280
    12  H   -0.000708  -0.001528   0.000618   0.011531   0.001454  -0.000992
    13  H   -0.000519  -0.001191   0.005972  -0.000484  -0.000464  -0.000367
    14  C   -0.069383   0.172650  -0.022483  -0.100792  -0.000819  -0.090737
    15  H    0.009969  -0.038094   0.001033   0.007847   0.000764  -0.003734
    16  C    0.723130  -0.044542   0.002107   0.293055  -0.033612   0.002201
    17  O    0.000000   0.000000   0.000000   0.000000   0.000000   0.000000
    18  H    0.000000   0.000000   0.000000   0.000000   0.000000   0.000000
    19  O    7.815994   0.004869  -0.000302  -0.127458   0.005506  -0.001593
    20  N    0.004869   6.656443   0.355788   0.001173   0.024624   0.317488
    21  H   -0.000302   0.355788   0.518825  -0.001165  -0.000041  -0.016802
    22  N   -0.127458   0.001173  -0.001165   6.501482   0.381047   0.012879
    23  H    0.005506   0.024624  -0.000041   0.381047   0.530503  -0.003915
    24  C   -0.001593   0.317488  -0.016802   0.012879  -0.003915   4.619757
    25  C   -0.000015  -0.064942  -0.000956  -0.000345   0.000642   0.274310
    26  H    0.000001   0.000732  -0.000208   0.000008   0.000133  -0.028806
    27  H   -0.000003  -0.001854   0.000229   0.000273  -0.000496  -0.021644
    28  H    0.000001   0.013249  -0.000730   0.000074   0.000021  -0.059060
    29  C    0.008740  -0.001673   0.000083   0.292799  -0.034171  -0.000025
    30  H    0.006101  -0.000156   0.000009  -0.049839   0.002488   0.000204
    31  H    0.001551  -0.000168   0.000033  -0.029072  -0.008198  -0.000067
    32  H    0.003883  -0.000124   0.000000  -0.048251   0.002015  -0.000555
    33  O   -0.000644  -0.132924   0.004993  -0.005464  -0.002794   0.720713
              25         26         27         28         29         30
     1  C    0.000000   0.000000   0.000000   0.000000  -0.000020  -0.000015
     2  C    0.000000   0.000000   0.000000   0.000000  -0.000139   0.000181
     3  C   -0.000003   0.000002  -0.000003  -0.000005   0.000046   0.000193
     4  C   -0.000005   0.000000   0.000000   0.000003   0.000019   0.000020
     5  C    0.000000   0.000000   0.000000   0.000000   0.000000  -0.000001
     6  C    0.000000   0.000000   0.000000   0.000000   0.000000  -0.000003
     7  H    0.000000   0.000000   0.000000   0.000000   0.000000   0.000004
     8  H    0.000000   0.000000   0.000000   0.000000   0.000095   0.000008
     9  H   -0.000004  -0.000001   0.000000   0.000001   0.000000   0.000000
    10  H    0.000000   0.000000   0.000000   0.000000   0.000000   0.000000
    11  C    0.000197   0.000012  -0.000040  -0.000291  -0.000387  -0.000316
    12  H    0.000018   0.000000  -0.000009  -0.000019  -0.000314  -0.000571
    13  H   -0.000198  -0.000027   0.000019  -0.000021   0.000072  -0.000008
    14  C    0.007097  -0.000108  -0.000484   0.001189   0.009599   0.000220
    15  H    0.001433   0.000128  -0.000159  -0.000273  -0.000627  -0.000165
    16  C   -0.001936  -0.000188   0.000538   0.000011  -0.054492  -0.002083
    17  O    0.000000   0.000000   0.000000   0.000000   0.000000   0.000000
    18  H    0.000000   0.000000   0.000000   0.000000   0.000000   0.000000
    19  O   -0.000015   0.000001  -0.000003   0.000001   0.008740   0.006101
    20  N   -0.064942   0.000732  -0.001854   0.013249  -0.001673  -0.000156
    21  H   -0.000956  -0.000208   0.000229  -0.000730   0.000083   0.000009
    22  N   -0.000345   0.000008   0.000273   0.000074   0.292799  -0.049839
    23  H    0.000642   0.000133  -0.000496   0.000021  -0.034171   0.002488
    24  C    0.274310  -0.028806  -0.021644  -0.059060  -0.000025   0.000204
    25  C    4.998974   0.392466   0.380470   0.395506  -0.000067   0.000000
    26  H    0.392466   0.558831  -0.022795  -0.025176  -0.000003   0.000000
    27  H    0.380470  -0.022795   0.572722  -0.027048   0.000029   0.000003
    28  H    0.395506  -0.025176  -0.027048   0.600784   0.000001   0.000000
    29  C   -0.000067  -0.000003   0.000029   0.000001   4.764351   0.393897
    30  H    0.000000   0.000000   0.000003   0.000000   0.393897   0.618290
    31  H   -0.000012   0.000000   0.000011   0.000001   0.392783  -0.027094
    32  H   -0.000010  -0.000001  -0.000010  -0.000001   0.402703  -0.055230
    33  O   -0.067593   0.001890   0.001342   0.004497   0.000249   0.000012
              31         32         33
     1  C   -0.000001   0.000000   0.000000
     2  C   -0.000002  -0.000004   0.000000
     3  C   -0.000003   0.000005   0.000070
     4  C    0.000000  -0.000003  -0.000040
     5  C    0.000000   0.000000   0.000000
     6  C    0.000000   0.000000   0.000000
     7  H    0.000000   0.000000   0.000000
     8  H   -0.000006   0.000015   0.000000
     9  H    0.000000   0.000000  -0.000013
    10  H    0.000000   0.000000   0.000000
    11  C   -0.000040   0.000156   0.002305
    12  H   -0.000047   0.000133   0.000070
    13  H    0.000002   0.000009  -0.000083
    14  C    0.000585   0.000728   0.010836
    15  H   -0.000013   0.000089   0.012735
    16  C    0.008806  -0.004919   0.003092
    17  O    0.000000   0.000000   0.000000
    18  H    0.000000   0.000000   0.000000
    19  O    0.001551   0.003883  -0.000644
    20  N   -0.000168  -0.000124  -0.132924
    21  H    0.000033   0.000000   0.004993
    22  N   -0.029072  -0.048251  -0.005464
    23  H   -0.008198   0.002015  -0.002794
    24  C   -0.000067  -0.000555   0.720713
    25  C   -0.000012  -0.000010  -0.067593
    26  H    0.000000  -0.000001   0.001890
    27  H    0.000011  -0.000010   0.001342
    28  H    0.000001  -0.000001   0.004497
    29  C    0.392783   0.402703   0.000249
    30  H   -0.027094  -0.055230   0.000012
    31  H    0.606347  -0.029023   0.000002
    32  H   -0.029023   0.610082   0.000465
    33  O    0.000002   0.000465   7.824038
 Mulliken charges:
               1
     1  C   -0.231836
     2  C   -0.215885
     3  C    0.180430
     4  C   -0.215127
     5  C   -0.168613
     6  C    0.287341
     7  H    0.110194
     8  H    0.146250
     9  H    0.148094
    10  H    0.120718
    11  C   -0.481682
    12  H    0.213785
    13  H    0.196589
    14  C   -0.068453
    15  H    0.228611
    16  C    0.256629
    17  O   -0.295700
    18  H    0.188214
    19  O   -0.375915
    20  N   -0.229155
    21  H    0.153768
    22  N   -0.141783
    23  H    0.132126
    24  C    0.273104
    25  C   -0.315028
    26  H    0.123108
    27  H    0.118908
    28  H    0.097289
    29  C   -0.173548
    30  H    0.113850
    31  H    0.083622
    32  H    0.117847
    33  O   -0.377753
 Sum of Mulliken charges =   0.00000
 Mulliken charges with hydrogens summed into heavy atoms:
               1
     1  C   -0.121642
     2  C   -0.069634
     3  C    0.180430
     4  C   -0.067033
     5  C   -0.047895
     6  C    0.287341
    11  C   -0.071308
    14  C    0.160159
    16  C    0.256629
    17  O   -0.107486
    19  O   -0.375915
    20  N   -0.075387
    22  N   -0.009657
    24  C    0.273104
    25  C    0.024277
    29  C    0.141771
    33  O   -0.377753
 Electronic spatial extent (au):  <R**2>=           5255.3760
 Charge=              0.0000 electrons
 Dipole moment (field-independent basis, Debye):
    X=             -1.6683    Y=             -0.0593    Z=             -6.2109  Tot=              6.4314
 Quadrupole moment (field-independent basis, Debye-Ang):
   XX=            -86.7738   YY=            -89.5853   ZZ=           -107.2443
   XY=              7.6593   XZ=             11.8233   YZ=             -2.1633
 Traceless Quadrupole moment (field-independent basis, Debye-Ang):
   XX=              7.7606   YY=              4.9492   ZZ=            -12.7098
   XY=              7.6593   XZ=             11.8233   YZ=             -2.1633
 Octapole moment (field-independent basis, Debye-Ang**2):
  XXX=             -8.2228  YYY=             10.4919  ZZZ=             -5.6985  XYY=            -16.6513
  XXY=             49.5142  XXZ=            -37.0996  XZZ=             -2.9798  YZZ=             -0.0695
  YYZ=             -2.7827  XYZ=             -7.6412
 Hexadecapole moment (field-independent basis, Debye-Ang**3):
 XXXX=          -4618.7281 YYYY=          -1238.1166 ZZZZ=           -453.3043 XXXY=            341.8299
 XXXZ=             93.1926 YYYX=            -15.2144 YYYZ=            -19.1640 ZZZX=             47.9326
 ZZZY=              7.5264 XXYY=           -924.9224 XXZZ=           -994.5271 YYZZ=           -293.8311
 XXYZ=             19.8338 YYXZ=             18.0095 ZZXY=             -2.3481
 N-N= 1.205408067161D+03 E-N=-4.281458096552D+03  KE= 7.961903449331D+02
 Calculating spin-rotation constants.
 Leave Link  601 at Wed Jun 25 06:22:32 2014, MaxMem=  4294967296 cpu:        92.9
 (Enter /home/ztw1e12/g09/l9999.exe)

 Test job not archived.
 1\1\GINC-GREEN0582\SP\RM06\Gen\C12H16N2O3\ROOT\25-Jun-2014\0\\#P Geom=
 AllCheck Guess=TCheck SCRF=Check GenChk RM06/ChkBas NMR=ReadFC IOp(3/6
 =22)\\NMR spin-spin scan\\0,1\C,0,2.664232,-1.591967,2.001327\C,0,2.03
 8599,-0.553126,1.332676\C,0,1.49026,-0.734435,0.070783\C,0,1.580797,-1
 .995275,-0.50974\C,0,2.201722,-3.042476,0.142452\C,0,2.745881,-2.83923
 4,1.40328\H,0,3.090103,-1.442972,2.986814\H,0,1.973603,0.4222,1.8033\H
 ,0,1.158175,-2.15628,-1.495838\H,0,2.276196,-4.021647,-0.313374\C,0,0.
 796085,0.383615,-0.642673\H,0,1.09213,1.352183,-0.231548\H,0,1.096986,
 0.376494,-1.694545\C,0,-0.73188,0.261484,-0.613916\H,0,-1.006032,-0.79
 1023,-0.733666\C,0,-1.24997,0.660745,0.756404\O,0,3.352779,-3.897884,2
 .009789\H,0,3.69604,-3.619782,2.866345\O,0,-1.341138,-0.180295,1.64923
 5\N,0,-1.303494,1.019798,-1.704255\H,0,-0.69129,1.552547,-2.303411\N,0
 ,-1.521996,1.952935,0.947446\H,0,-1.465281,2.579259,0.160392\C,0,-2.61
 7398,0.9564,-1.993114\C,0,-3.081166,1.75119,-3.167663\H,0,-3.592695,1.
 087293,-3.863761\H,0,-3.809124,2.486242,-2.823913\H,0,-2.272422,2.2636
 26,-3.6842\C,0,-1.986571,2.451898,2.221348\H,0,-1.275511,2.218152,3.01
 3656\H,0,-2.095686,3.530346,2.158535\H,0,-2.950806,2.017362,2.488646\O
 ,0,-3.390283,0.280164,-1.317942\\Version=EM64L-G09RevD.01\State=1-A\HF
 =-801.8588694\RMSD=4.573e-09\Dipole=1.1585155,2.0670041,-0.8875337\Qua
 drupole=-10.7646892,3.2489501,7.5157391,-5.6287692,7.0229176,-2.807086
 8\PG=C01 [X(C12H16N2O3)]\\@


 THERE'S SMALL CHOICE IN A BOWL OF ROTTEN APPLES.
                     SHAKESPEARE
 Job cpu time:       3 days  5 hours 20 minutes 44.2 seconds.
 File lengths (MBytes):  RWF=   3656 Int=      0 D2E=      0 Chk=     64 Scr=      8
 Normal termination of Gaussian 09 at Wed Jun 25 06:22:32 2014.
