 Entering Gaussian System, Link 0=g09
 Input=scan_input_23.gjf
 Output=scan_input_23.log
 Initial command:
 /home/ztw1e12/g09/l1.exe "/home/ztw1e12/tyrosine_scan/tyrosine_chi1_scan/Gau-31891.inp" -scrdir="/home/ztw1e12/tyrosine_scan/tyrosine_chi1_scan/"
 Default is to use a total of   8 processors:
                                8 via shared-memory
                                1 via Linda
 Entering Link 1 = /home/ztw1e12/g09/l1.exe PID=     31892.
  
 Copyright (c) 1988,1990,1992,1993,1995,1998,2003,2009,2013,
            Gaussian, Inc.  All Rights Reserved.
  
 This is part of the Gaussian(R) 09 program.  It is based on
 the Gaussian(R) 03 system (copyright 2003, Gaussian, Inc.),
 the Gaussian(R) 98 system (copyright 1998, Gaussian, Inc.),
 the Gaussian(R) 94 system (copyright 1995, Gaussian, Inc.),
 the Gaussian 92(TM) system (copyright 1992, Gaussian, Inc.),
 the Gaussian 90(TM) system (copyright 1990, Gaussian, Inc.),
 the Gaussian 88(TM) system (copyright 1988, Gaussian, Inc.),
 the Gaussian 86(TM) system (copyright 1986, Carnegie Mellon
 University), and the Gaussian 82(TM) system (copyright 1983,
 Carnegie Mellon University). Gaussian is a federally registered
 trademark of Gaussian, Inc.
  
 This software contains proprietary and confidential information,
 including trade secrets, belonging to Gaussian, Inc.
  
 This software is provided under written license and may be
 used, copied, transmitted, or stored only in accord with that
 written license.
  
 The following legend is applicable only to US Government
 contracts under FAR:
  
                    RESTRICTED RIGHTS LEGEND
  
 Use, reproduction and disclosure by the US Government is
 subject to restrictions as set forth in subparagraphs (a)
 and (c) of the Commercial Computer Software - Restricted
 Rights clause in FAR 52.227-19.
  
 Gaussian, Inc.
 340 Quinnipiac St., Bldg. 40, Wallingford CT 06492
  
  
 ---------------------------------------------------------------
 Warning -- This program may not be used in any manner that
 competes with the business of Gaussian, Inc. or will provide
 assistance to any competitor of Gaussian, Inc.  The licensee
 of this program is prohibited from giving any competitor of
 Gaussian, Inc. access to this program.  By using this program,
 the user acknowledges that Gaussian, Inc. is engaged in the
 business of creating and licensing software in the field of
 computational chemistry and represents and warrants to the
 licensee that it is not a competitor of Gaussian, Inc. and that
 it will not use this program in any manner prohibited above.
 ---------------------------------------------------------------
  

 Cite this work as:
 Gaussian 09, Revision D.01,
 M. J. Frisch, G. W. Trucks, H. B. Schlegel, G. E. Scuseria, 
 M. A. Robb, J. R. Cheeseman, G. Scalmani, V. Barone, B. Mennucci, 
 G. A. Petersson, H. Nakatsuji, M. Caricato, X. Li, H. P. Hratchian, 
 A. F. Izmaylov, J. Bloino, G. Zheng, J. L. Sonnenberg, M. Hada, 
 M. Ehara, K. Toyota, R. Fukuda, J. Hasegawa, M. Ishida, T. Nakajima, 
 Y. Honda, O. Kitao, H. Nakai, T. Vreven, J. A. Montgomery, Jr., 
 J. E. Peralta, F. Ogliaro, M. Bearpark, J. J. Heyd, E. Brothers, 
 K. N. Kudin, V. N. Staroverov, T. Keith, R. Kobayashi, J. Normand, 
 K. Raghavachari, A. Rendell, J. C. Burant, S. S. Iyengar, J. Tomasi, 
 M. Cossi, N. Rega, J. M. Millam, M. Klene, J. E. Knox, J. B. Cross, 
 V. Bakken, C. Adamo, J. Jaramillo, R. Gomperts, R. E. Stratmann, 
 O. Yazyev, A. J. Austin, R. Cammi, C. Pomelli, J. W. Ochterski, 
 R. L. Martin, K. Morokuma, V. G. Zakrzewski, G. A. Voth, 
 P. Salvador, J. J. Dannenberg, S. Dapprich, A. D. Daniels, 
 O. Farkas, J. B. Foresman, J. V. Ortiz, J. Cioslowski, 
 and D. J. Fox, Gaussian, Inc., Wallingford CT, 2013.
 
 ******************************************
 Gaussian 09:  EM64L-G09RevD.01 24-Apr-2013
                24-Jun-2014 
 ******************************************
 %Mem=32GB
 %NProcShared=16
 Will use up to   16 processors via shared memory.
 Default route:  MaxDisk=100GB
 ----------------------------------------------------------------------
 #p nmr=(giao,mixed,spinspin) m06/cc-pvtz scf=tight integral=(grid=ultr
 afine)
 ----------------------------------------------------------------------
 1/38=1/1;
 2/12=2,17=6,18=5,40=1/2;
 3/5=16,6=1,10=1100000,11=2,16=1,25=1,30=1,74=-54,75=-5/1,2,8,3;
 4//1;
 5/5=2,32=2,38=5/2;
 8/6=1,10=90,11=11/1;
 10/13=100,45=16,47=3/2;
 6/7=2,8=2,9=2,10=2,28=1/1;
 99/9=1/99;
 Leave Link    1 at Tue Jun 24 16:42:42 2014, MaxMem=  4294967296 cpu:         4.7
 (Enter /home/ztw1e12/g09/l101.exe)
 ------------------
 NMR spin-spin scan
 ------------------
 Symbolic Z-matrix:
 Charge =  0 Multiplicity = 1
 C                     2.62018  -1.22581   2.00894 
 C                     2.02476  -0.32241   1.14426 
 C                     1.45417  -0.73768  -0.05062 
 C                     1.49181  -2.09342  -0.36019 
 C                     2.08066  -3.0078    0.49074 
 C                     2.6467   -2.57223   1.68142 
 H                     3.06597  -0.89305   2.93931 
 H                     2.00554   0.73011   1.40622 
 H                     1.05002  -2.43707  -1.28953 
 H                     2.11174  -4.062     0.24636 
 C                     0.76584   0.23045  -0.96069 
 H                     1.0616    1.25581  -0.71997 
 H                     1.05188   0.04481  -1.99971 
 C                    -0.75843   0.13334  -0.88867 
 H                    -1.06801  -0.88493  -1.14306 
 C                    -1.23243   0.35022   0.54002 
 O                     3.21825  -3.51028   2.48786 
 H                     3.57884  -3.08453   3.27375 
 O                    -1.43935  -0.61234   1.27657 
 N                    -1.33056   1.06546  -1.83358 
 H                    -0.71151   1.63242  -2.39309 
 N                    -1.34256   1.61399   0.95445 
 H                    -1.18318   2.35799   0.29431 
 C                    -2.65953   1.13873  -2.03737 
 C                    -3.12333   2.11308  -3.06785 
 H                    -3.71172   1.58037  -3.81442 
 H                    -3.78212   2.83922  -2.59164 
 H                    -2.30745   2.63865  -3.55936 
 C                    -1.7388    1.93632   2.30595 
 H                    -1.04451   1.50688   3.02919 
 H                    -1.74089   3.01556   2.4246 
 H                    -2.73786   1.55741   2.52468 
 O                    -3.44488   0.44028  -1.4 
 
 NAtoms=     33 NQM=       33 NQMF=       0 NMMI=      0 NMMIF=      0
                NMic=       0 NMicF=      0.
                    Isotopes and Nuclear Properties:
 (Nuclear quadrupole moments (NQMom) in fm**2, nuclear magnetic moments (NMagM)
  in nuclear magnetons)

  Atom         1           2           3           4           5           6           7           8           9          10
 IAtWgt=          12          12          12          12          12          12           1           1           1           1
 AtmWgt=  12.0000000  12.0000000  12.0000000  12.0000000  12.0000000  12.0000000   1.0078250   1.0078250   1.0078250   1.0078250
 NucSpn=           0           0           0           0           0           0           1           1           1           1
 AtZEff=   0.0000000   0.0000000   0.0000000   0.0000000   0.0000000   0.0000000   0.0000000   0.0000000   0.0000000   0.0000000
 NQMom=    0.0000000   0.0000000   0.0000000   0.0000000   0.0000000   0.0000000   0.0000000   0.0000000   0.0000000   0.0000000
 NMagM=    0.0000000   0.0000000   0.0000000   0.0000000   0.0000000   0.0000000   2.7928460   2.7928460   2.7928460   2.7928460
 AtZNuc=   6.0000000   6.0000000   6.0000000   6.0000000   6.0000000   6.0000000   1.0000000   1.0000000   1.0000000   1.0000000

  Atom        11          12          13          14          15          16          17          18          19          20
 IAtWgt=          12           1           1          12           1          12          16           1          16          14
 AtmWgt=  12.0000000   1.0078250   1.0078250  12.0000000   1.0078250  12.0000000  15.9949146   1.0078250  15.9949146  14.0030740
 NucSpn=           0           1           1           0           1           0           0           1           0           2
 AtZEff=   0.0000000   0.0000000   0.0000000   0.0000000   0.0000000   0.0000000   0.0000000   0.0000000   0.0000000   0.0000000
 NQMom=    0.0000000   0.0000000   0.0000000   0.0000000   0.0000000   0.0000000   0.0000000   0.0000000   0.0000000   2.0440000
 NMagM=    0.0000000   2.7928460   2.7928460   0.0000000   2.7928460   0.0000000   0.0000000   2.7928460   0.0000000   0.4037610
 AtZNuc=   6.0000000   1.0000000   1.0000000   6.0000000   1.0000000   6.0000000   8.0000000   1.0000000   8.0000000   7.0000000

  Atom        21          22          23          24          25          26          27          28          29          30
 IAtWgt=           1          14           1          12          12           1           1           1          12           1
 AtmWgt=   1.0078250  14.0030740   1.0078250  12.0000000  12.0000000   1.0078250   1.0078250   1.0078250  12.0000000   1.0078250
 NucSpn=           1           2           1           0           0           1           1           1           0           1
 AtZEff=   0.0000000   0.0000000   0.0000000   0.0000000   0.0000000   0.0000000   0.0000000   0.0000000   0.0000000   0.0000000
 NQMom=    0.0000000   2.0440000   0.0000000   0.0000000   0.0000000   0.0000000   0.0000000   0.0000000   0.0000000   0.0000000
 NMagM=    2.7928460   0.4037610   2.7928460   0.0000000   0.0000000   2.7928460   2.7928460   2.7928460   0.0000000   2.7928460
 AtZNuc=   1.0000000   7.0000000   1.0000000   6.0000000   6.0000000   1.0000000   1.0000000   1.0000000   6.0000000   1.0000000

  Atom        31          32          33
 IAtWgt=           1           1          16
 AtmWgt=   1.0078250   1.0078250  15.9949146
 NucSpn=           1           1           0
 AtZEff=   0.0000000   0.0000000   0.0000000
 NQMom=    0.0000000   0.0000000   0.0000000
 NMagM=    2.7928460   2.7928460   0.0000000
 AtZNuc=   1.0000000   1.0000000   8.0000000
 Leave Link  101 at Tue Jun 24 16:42:42 2014, MaxMem=  4294967296 cpu:         1.8
 (Enter /home/ztw1e12/g09/l202.exe)
                          Input orientation:                          
 ---------------------------------------------------------------------
 Center     Atomic      Atomic             Coordinates (Angstroms)
 Number     Number       Type             X           Y           Z
 ---------------------------------------------------------------------
      1          6           0        2.620179   -1.225814    2.008938
      2          6           0        2.024762   -0.322411    1.144259
      3          6           0        1.454173   -0.737684   -0.050619
      4          6           0        1.491807   -2.093420   -0.360185
      5          6           0        2.080657   -3.007800    0.490743
      6          6           0        2.646704   -2.572228    1.681423
      7          1           0        3.065971   -0.893054    2.939305
      8          1           0        2.005539    0.730110    1.406221
      9          1           0        1.050018   -2.437073   -1.289530
     10          1           0        2.111745   -4.062003    0.246358
     11          6           0        0.765838    0.230450   -0.960691
     12          1           0        1.061596    1.255810   -0.719971
     13          1           0        1.051877    0.044810   -1.999713
     14          6           0       -0.758432    0.133343   -0.888665
     15          1           0       -1.068015   -0.884934   -1.143061
     16          6           0       -1.232426    0.350217    0.540019
     17          8           0        3.218249   -3.510276    2.487855
     18          1           0        3.578844   -3.084525    3.273747
     19          8           0       -1.439353   -0.612340    1.276570
     20          7           0       -1.330563    1.065455   -1.833582
     21          1           0       -0.711509    1.632416   -2.393092
     22          7           0       -1.342555    1.613994    0.954454
     23          1           0       -1.183176    2.357990    0.294308
     24          6           0       -2.659526    1.138726   -2.037370
     25          6           0       -3.123327    2.113085   -3.067851
     26          1           0       -3.711723    1.580369   -3.814423
     27          1           0       -3.782120    2.839220   -2.591636
     28          1           0       -2.307452    2.638654   -3.559357
     29          6           0       -1.738803    1.936318    2.305950
     30          1           0       -1.044512    1.506881    3.029193
     31          1           0       -1.740885    3.015560    2.424599
     32          1           0       -2.737859    1.557405    2.524677
     33          8           0       -3.444880    0.440283   -1.400003
 ---------------------------------------------------------------------
                    Distance matrix (angstroms):
                    1          2          3          4          5
     1  C    0.000000
     2  C    1.385037   0.000000
     3  C    2.416530   1.387716   0.000000
     4  C    2.763821   2.384086   1.391139   0.000000
     5  C    2.402389   2.764330   2.416398   1.380910   0.000000
     6  C    1.385929   2.395211   2.790636   2.393994   1.388471
     7  H    1.083994   2.152194   3.400247   3.847792   3.382078
     8  H    2.136981   1.084801   2.140282   3.369931   3.849119
     9  H    3.848694   3.368271   2.141533   1.084877   2.134788
    10  H    3.377745   3.846861   3.401719   2.151171   1.082605
    11  C    3.791831   2.514231   1.496436   2.507591   3.784399
    12  H    4.004321   2.625609   2.139198   3.395861   4.547822
    13  H    4.488133   3.311483   2.138482   2.730131   4.071755
    14  C    4.653861   3.476587   2.521236   3.209570   4.453086
    15  H    4.863545   3.887613   2.752552   2.937009   4.134007
    16  C    4.414087   3.380356   2.958073   3.768710   4.717544
    17  O    2.409526   3.659528   4.152479   3.619311   2.352670
    18  H    2.444092   3.818267   4.590566   4.306213   3.161576
    19  O    4.170433   3.478744   3.185849   3.669368   4.329691
    20  N    5.968520   4.695947   3.766301   4.484993   5.799165
    21  H    6.216711   4.880715   3.974259   4.782172   6.135495
    22  N    4.987956   3.889025   3.789756   4.848381   5.770129
    23  H    5.499920   4.265892   4.081395   5.234400   6.283542
    24  C    7.059670   5.848097   4.938685   5.522072   6.786337
    25  C    8.361214   7.083525   6.179327   6.806291   8.122100
    26  H    9.048711   7.817695   6.798976   7.246048   8.552042
    27  H    8.870130   7.594254   6.831528   7.558083   8.835206
    28  H    8.379831   7.046984   6.153107   6.860145   8.218349
    29  C    5.393331   4.540463   4.785269   5.812392   6.505963
    30  H    4.683856   4.039768   4.557054   5.557244   6.049195
    31  H    6.097615   5.192439   5.515609   6.656350   7.390862
    32  H    6.059774   5.303001   5.428878   6.288166   6.942340
    33  O    7.154139   6.080457   5.216240   5.645507   6.782017
                    6          7          8          9         10
     6  C    0.000000
     7  H    2.139551   0.000000
     8  H    3.375243   2.471745   0.000000
     9  H    3.375535   4.932657   4.267451   0.000000
    10  H    2.136591   4.266702   4.931623   2.475200   0.000000
    11  C    4.286424   4.665066   2.718233   2.702697   4.657637
    12  H    4.788855   4.693127   2.384970   3.736565   5.505973
    13  H    4.789898   5.415724   3.602706   2.581493   4.799382
    14  C    5.051774   5.507532   3.641726   3.168315   5.208370
    15  H    4.962238   5.809959   4.307428   2.629953   4.704798
    16  C    4.989102   5.077254   3.373284   4.040518   5.544132
    17  O    1.362692   2.660234   4.541087   4.485714   2.559895
    18  H    1.914897   2.275398   4.529281   5.257152   3.503274
    19  O    4.549827   4.810554   3.699495   4.013912   5.056858
    20  N    6.434800   6.778327   4.662441   4.269761   6.516630
    21  H    6.749689   7.005841   4.757235   4.569635   6.882141
    22  N    5.828132   5.446102   3.492145   5.212582   6.682105
    23  H    6.395242   5.968295   3.748899   5.521624   7.216309
    24  C    7.467039   7.853454   5.812755   5.206373   7.418088
    25  C    8.820489   9.134014   6.945157   6.425198   8.747667
    26  H    9.374326   9.882702   7.788784   6.722284   9.068577
    27  H    9.427226   9.561251   7.343582   7.272160   9.508877
    28  H    8.897344   9.142168   6.848459   6.495208   8.883219
    29  C    6.320577   5.611803   4.035412   6.311224   7.419467
    30  H    5.663982   4.760655   3.541218   6.212342   6.979871
    31  H    7.143292   6.216756   4.505116   7.163456   8.347418
    32  H    6.838016   6.313565   4.943196   6.697167   7.764480
    33  O    7.461756   7.937163   6.137260   5.338117   7.338744
                   11         12         13         14         15
    11  C    0.000000
    12  H    1.093975   0.000000
    13  H    1.093548   1.761918   0.000000
    14  C    1.529057   2.144969   2.125908   0.000000
    15  H    2.154149   3.049104   2.468242   1.094279   0.000000
    16  C    2.501906   2.769514   3.429512   1.520803   2.094132
    17  O    5.647993   6.136520   6.121280   6.363241   6.200648
    18  H    6.068981   6.412864   6.632321   6.818527   6.777883
    19  O    3.252460   3.705524   4.167986   2.389129   2.463090
    20  N    2.419518   2.645522   2.597178   1.445349   2.085610
    21  H    2.489947   2.466793   2.405155   2.124317   2.833148
    22  N    3.166591   2.951599   4.113726   2.435285   3.274077
    23  H    3.146443   2.698623   3.950797   2.555169   3.549063
    24  C    3.703690   3.949177   3.869442   2.438130   2.725417
    25  C    4.807291   4.874530   4.780273   3.776368   4.113057
    26  H    5.478560   5.697855   5.323814   4.401803   4.494784
    27  H    5.490864   5.428803   5.614858   4.400519   4.830534
    28  H    4.690162   4.617884   4.521682   3.976008   4.448636
    29  C    4.455800   4.178699   5.468494   3.797027   4.506118
    30  H    4.563531   4.307547   5.641134   4.161497   4.809266
    31  H    5.049820   4.564969   6.016595   4.500012   5.328678
    32  H    5.117078   5.005453   6.092631   4.194876   4.712293
    33  O    4.238770   4.629887   4.553776   2.751851   2.733442
                   16         17         18         19         20
    16  C    0.000000
    17  O    6.205319   0.000000
    18  H    6.512990   0.963804   0.000000
    19  O    1.229570   5.617695   5.939926   0.000000
    20  N    2.480963   7.765554   8.210324   3.535516   0.000000
    21  H    3.243228   8.106412   8.530517   4.362924   1.008823
    22  N    1.334548   7.029253   7.188558   2.251598   2.841511
    23  H    2.023352   7.656418   7.821436   3.139001   2.494050
    24  C    3.049802   8.754377   9.217433   3.941732   1.346492
    25  C    4.438461  10.134281  10.590095   5.397935   2.415564
    26  H    5.159588  10.661045  11.187303   5.990814   3.139871
    27  H    4.743768  10.729515  11.121028   5.689011   3.119458
    28  H    4.816379  10.242631  10.681506   5.891413   2.531317
    29  C    2.427065   7.366875   7.377185   2.764950   4.249799
    30  H    2.751213   6.605758   6.520448   2.778252   4.891141
    31  H    3.303669   8.196557   8.138280   3.817139   4.701423
    32  H    2.768122   7.820356   7.874602   2.819873   4.606183
    33  O    2.943934   8.667159   9.143353   3.506308   2.247035
                   21         22         23         24         25
    21  H    0.000000
    22  N    3.406556   0.000000
    23  H    2.823304   1.007335   0.000000
    24  C    2.040843   3.303226   3.017107   0.000000
    25  C    2.550139   4.427096   3.889509   1.492105   0.000000
    26  H    3.320267   5.325061   4.886708   2.111891   1.089663
    27  H    3.305215   4.475199   3.913408   2.111660   1.089982
    28  H    2.218045   4.728154   4.024115   2.165683   1.087866
    29  C    4.819615   1.444800   2.129139   4.510910   5.552107
    30  H    5.433951   2.098772   2.867614   5.330466   6.470155
    31  H    5.116918   2.069874   2.298168   4.927025   5.735208
    32  H    5.319415   2.101351   2.834170   4.581888   5.633270
    33  O    3.143044   3.367616   3.415201   1.229162   2.383984
                   26         27         28         29         30
    26  H    0.000000
    27  H    1.756380   0.000000
    28  H    1.776796   1.775206   0.000000
    29  C    6.440348   5.383003   5.934515   0.000000
    30  H    7.345372   6.392444   6.803302   1.090659   0.000000
    31  H    6.698460   5.418519   6.022523   1.085746   1.768214
    32  H    6.413511   5.376820   6.194338   1.090656   1.767629
    33  O    2.683361   2.699744   3.284720   4.345447   5.149483
                   31         32         33
    31  H    0.000000
    32  H    1.769234   0.000000
    33  O    4.915611   4.141371   0.000000
 Stoichiometry    C12H16N2O3
 Framework group  C1[X(C12H16N2O3)]
 Deg. of freedom    93
 Full point group                 C1      NOp   1
 Largest Abelian subgroup         C1      NOp   1
 Largest concise Abelian subgroup C1      NOp   1
                         Standard orientation:                         
 ---------------------------------------------------------------------
 Center     Atomic      Atomic             Coordinates (Angstroms)
 Number     Number       Type             X           Y           Z
 ---------------------------------------------------------------------
      1          6           0        3.335584    0.646723   -0.715547
      2          6           0        2.044198    0.387560   -1.143897
      3          6           0        1.340579   -0.716571   -0.683928
      4          6           0        1.966524   -1.561493    0.226878
      5          6           0        3.253161   -1.317612    0.665058
      6          6           0        3.940721   -0.207768    0.192448
      7          1           0        3.879450    1.510016   -1.081578
      8          1           0        1.574804    1.060450   -1.853604
      9          1           0        1.431876   -2.429278    0.598440
     10          1           0        3.739622   -1.978250    1.371420
     11          6           0       -0.072493   -0.968764   -1.106948
     12          1           0       -0.308841   -0.394299   -2.007454
     13          1           0       -0.214060   -2.025769   -1.348913
     14          6           0       -1.090076   -0.614606   -0.022000
     15          1           0       -0.873444   -1.195207    0.879898
     16          6           0       -0.932965    0.840370    0.391769
     17          8           0        5.208436   -0.009268    0.651171
     18          1           0        5.578159    0.783541    0.246600
     19          8           0       -0.244541    1.135949    1.366730
     20          7           0       -2.414783   -0.937770   -0.501321
     21          1           0       -2.515365   -1.330801   -1.424974
     22          7           0       -1.516338    1.755451   -0.384967
     23          1           0       -2.088062    1.446871   -1.154794
     24          6           0       -3.502369   -0.798845    0.280278
     25          6           0       -4.808575   -1.203551   -0.316730
     26          1           0       -5.268106   -1.956622    0.322865
     27          1           0       -5.471196   -0.338187   -0.328512
     28          1           0       -4.715259   -1.596438   -1.326872
     29          6           0       -1.393346    3.169184   -0.113525
     30          1           0       -0.347624    3.478885   -0.122804
     31          1           0       -1.926652    3.722865   -0.880250
     32          1           0       -1.815959    3.421822    0.859666
     33          8           0       -3.417289   -0.355573    1.423567
 ---------------------------------------------------------------------
 Rotational constants (GHZ):      0.9586717      0.2423753      0.2180961
 Leave Link  202 at Tue Jun 24 16:42:42 2014, MaxMem=  4294967296 cpu:         2.7
 (Enter /home/ztw1e12/g09/l301.exe)
 Standard basis: CC-pVTZ (5D, 7F)
 Converting basis for Fermi contact spin-spin IFCMod=1.
 AO basis functions are being uncontracted.
 Ernie: Thresh=  0.10000D-02 Tol=  0.10000D-05 Strict=F.
 There are  1305 symmetry adapted cartesian basis functions of A   symmetry.
 There are  1204 symmetry adapted basis functions of A   symmetry.
  1204 basis functions,  1305 primitive gaussians,  1305 cartesian basis functions
    63 alpha electrons       63 beta electrons
       nuclear repulsion energy      1217.2428596591 Hartrees.
 IExCor= 4235 DFT=T Ex+Corr=M06 ExCW=0 ScaHFX=  0.270000
 ScaDFX=  1.000000  1.000000  1.000000  1.000000 ScalE2=  1.000000  1.000000
 IRadAn= 199590 IRanWt=     -1 IRanGd=            0 ICorTp=0 IEmpDi=  4
 NAtoms=   33 NActive=   33 NUniq=   33 SFac= 1.00D+00 NAtFMM=   60 NAOKFM=F Big=F
 Integral buffers will be    131072 words long.
 Raffenetti 2 integral format.
 Two-electron integral symmetry is turned on.
 Leave Link  301 at Tue Jun 24 16:42:43 2014, MaxMem=  4294967296 cpu:         7.3
 (Enter /home/ztw1e12/g09/l302.exe)
 NPDir=0 NMtPBC=     1 NCelOv=     1 NCel=       1 NClECP=     1 NCelD=      1
         NCelK=      1 NCelE2=     1 NClLst=     1 CellRange=     0.0.
 One-electron integrals computed using PRISM.
 GSVD:  received Info=                   1 from GESDD.
 NBasis=  1204 RedAO= T EigKep=  2.55D-05  NBF=  1204
 NBsUse=  1068 1.00D-06 EigRej=  8.37D-15 NBFU=  1068
 Precomputing XC quadrature grid using
 IXCGrd= 4 IRadAn=      199590 IRanWt=          -1 IRanGd=           0 AccXCQ= 0.00D+00.
 Generated NRdTot=       0 NPtTot=           0 NUsed=           0 NTot=          32
 NSgBfM=   983   983   986   986   988 MxSgAt=    33 MxSgA2=    33.
 Leave Link  302 at Tue Jun 24 16:42:49 2014, MaxMem=  4294967296 cpu:        91.9
 (Enter /home/ztw1e12/g09/l308.exe)
 Leave Link  308 at Tue Jun 24 16:42:49 2014, MaxMem=  4294967296 cpu:         7.2
 (Enter /home/ztw1e12/g09/l303.exe)
 DipDrv:  MaxL=1.
 Leave Link  303 at Tue Jun 24 16:42:49 2014, MaxMem=  4294967296 cpu:         4.2
 (Enter /home/ztw1e12/g09/l401.exe)
 ExpMin= 1.03D-01 ExpMax= 1.38D+05 ExpMxC= 1.38D+05 IAcc=4 IRadAn=    199590 AccDes= 0.00D+00
 Harris functional with IExCor= 1009 and IRadAn=  199590 diagonalized for initial guess.
 HarFok:  IExCor= 1009 AccDes= 0.00D+00 IRadAn=    199590 IDoV= 1 UseB2=F ITyADJ=14
 ICtDFT=  3500011 ScaDFX=  1.000000  1.000000  1.000000  1.000000
 FoFCou: FMM=F IPFlag=           0 FMFlag=      100000 FMFlg1=           0
         NFxFlg=           0 DoJE=T BraDBF=F KetDBF=T FulRan=T
         wScrn=  0.000000 ICntrl=     500 IOpCl=  0 I1Cent=   200000004 NGrid=           0
         NMat0=    1 NMatS0=      1 NMatT0=    0 NMatD0=    1 NMtDS0=    0 NMtDT0=    0
 Petite list used in FoFCou.
 Harris En= -801.782632297579    
 JPrj=0 DoOrth=F DoCkMO=F.
 Leave Link  401 at Tue Jun 24 16:43:08 2014, MaxMem=  4294967296 cpu:       292.9
 (Enter /home/ztw1e12/g09/l502.exe)
 Closed shell SCF:
 Using DIIS extrapolation, IDIIS=  1040.
 Integral symmetry usage will be decided dynamically.
 IVT=     5158273 IEndB=     5158273 NGot=  4294967296 MDV=  4291529994
 LenX=  4291529994 LenY=  4289825664
 Requested convergence on RMS density matrix=1.00D-08 within 128 cycles.
 Requested convergence on MAX density matrix=1.00D-06.
 Requested convergence on             energy=1.00D-06.
 No special actions if energy rises.
 Fock matrices will be formed incrementally for  20 cycles.
 Integral accuracy reduced to 1.0D-05 until final iterations.

 Cycle   1  Pass 0  IDiag  1:
 FoFJK:  IHMeth= 1 ICntrl=       0 DoSepK=F KAlg= 0 I1Cent=   0 FoldK=F
 IRaf= 430000000 NMat=   1 IRICut=       1 DoRegI=T DoRafI=F ISym2E= 0.
 FoFCou: FMM=F IPFlag=           0 FMFlag=      100000 FMFlg1=           0
         NFxFlg=           0 DoJE=F BraDBF=F KetDBF=F FulRan=T
         wScrn=  0.000000 ICntrl=       0 IOpCl=  0 I1Cent=           0 NGrid=           0
         NMat0=    1 NMatS0=      1 NMatT0=    0 NMatD0=    1 NMtDS0=    0 NMtDT0=    0
 Symmetry not used in FoFCou.
 E= -801.446807162869    
 DIIS: error= 1.12D-01 at cycle   1 NSaved=   1.
 NSaved= 1 IEnMin= 1 EnMin= -801.446807162869     IErMin= 1 ErrMin= 1.12D-01
 ErrMax= 1.12D-01  0.00D+00 EMaxC= 1.00D-01 BMatC= 1.69D+01 BMatP= 1.69D+01
 IDIUse=3 WtCom= 0.00D+00 WtEn= 1.00D+00
 Coeff-Com:  0.100D+01
 Coeff-En:   0.100D+01
 Coeff:      0.100D+01
 Gap=     0.242 Goal=   None    Shift=    0.000
 GapD=    0.242 DampG=1.000 DampE=0.250 DampFc=0.2500 IDamp=-1.
 Damping current iteration by 2.50D-01
 RMSDP=2.50D-03 MaxDP=4.00D-01              OVMax= 3.18D-01

 Cycle   2  Pass 0  IDiag  1:
 RMSU=  6.22D-04    CP:  1.02D+00
 E= -801.605767199524     Delta-E=       -0.158960036655 Rises=F Damp=T
 DIIS: error= 8.61D-02 at cycle   2 NSaved=   2.
 NSaved= 2 IEnMin= 2 EnMin= -801.605767199524     IErMin= 2 ErrMin= 8.61D-02
 ErrMax= 8.61D-02  0.00D+00 EMaxC= 1.00D-01 BMatC= 1.00D+01 BMatP= 1.69D+01
 IDIUse=3 WtCom= 1.39D-01 WtEn= 8.61D-01
 Coeff-Com: -0.287D+01 0.387D+01
 Coeff-En:   0.000D+00 0.100D+01
 Coeff:     -0.400D+00 0.140D+01
 Gap=     0.279 Goal=   None    Shift=    0.000
 RMSDP=6.23D-04 MaxDP=9.69D-02 DE=-1.59D-01 OVMax= 2.32D-01

 Cycle   3  Pass 0  IDiag  1:
 RMSU=  6.14D-04    CP:  1.05D+00  1.13D+00
 E= -801.865379389036     Delta-E=       -0.259612189513 Rises=F Damp=F
 DIIS: error= 1.19D-02 at cycle   3 NSaved=   3.
 NSaved= 3 IEnMin= 3 EnMin= -801.865379389036     IErMin= 3 ErrMin= 1.19D-02
 ErrMax= 1.19D-02  0.00D+00 EMaxC= 1.00D-01 BMatC= 1.70D-01 BMatP= 1.00D+01
 IDIUse=3 WtCom= 8.81D-01 WtEn= 1.19D-01
 Coeff-Com: -0.131D+00 0.117D+00 0.101D+01
 Coeff-En:   0.000D+00 0.000D+00 0.100D+01
 Coeff:     -0.115D+00 0.103D+00 0.101D+01
 Gap=     0.229 Goal=   None    Shift=    0.000
 RMSDP=4.59D-04 MaxDP=4.98D-02 DE=-2.60D-01 OVMax= 1.45D-01

 Cycle   4  Pass 0  IDiag  1:
 RMSU=  4.20D-04    CP:  1.05D+00  1.08D+00  7.04D-01
 E= -801.784676393354     Delta-E=        0.080702995683 Rises=F Damp=F
 DIIS: error= 8.64D-03 at cycle   4 NSaved=   4.
 NSaved= 4 IEnMin= 3 EnMin= -801.865379389036     IErMin= 4 ErrMin= 8.64D-03
 ErrMax= 8.64D-03  0.00D+00 EMaxC= 1.00D-01 BMatC= 1.69D-01 BMatP= 1.70D-01
 IDIUse=3 WtCom= 9.14D-01 WtEn= 8.64D-02
 Coeff-Com:  0.151D+00-0.234D+00 0.579D+00 0.504D+00
 Coeff-En:   0.000D+00 0.000D+00 0.695D+00 0.305D+00
 Coeff:      0.138D+00-0.213D+00 0.589D+00 0.487D+00
 Gap=     0.256 Goal=   None    Shift=    0.000
 RMSDP=3.37D-04 MaxDP=3.23D-02 DE= 8.07D-02 OVMax= 9.56D-02

 Cycle   5  Pass 0  IDiag  1:
 RMSU=  9.33D-05    CP:  1.05D+00  1.11D+00  8.65D-01  2.67D-01
 E= -801.909693733918     Delta-E=       -0.125017340564 Rises=F Damp=F
 DIIS: error= 2.06D-03 at cycle   5 NSaved=   5.
 NSaved= 5 IEnMin= 5 EnMin= -801.909693733918     IErMin= 5 ErrMin= 2.06D-03
 ErrMax= 2.06D-03  0.00D+00 EMaxC= 1.00D-01 BMatC= 6.61D-03 BMatP= 1.69D-01
 IDIUse=3 WtCom= 9.79D-01 WtEn= 2.06D-02
 Coeff-Com:  0.453D-01-0.617D-01 0.212D-01 0.163D+00 0.832D+00
 Coeff-En:   0.000D+00 0.000D+00 0.000D+00 0.000D+00 0.100D+01
 Coeff:      0.444D-01-0.604D-01 0.208D-01 0.160D+00 0.836D+00
 Gap=     0.225 Goal=   None    Shift=    0.000
 RMSDP=8.14D-05 MaxDP=6.43D-03 DE=-1.25D-01 OVMax= 2.44D-02

 Cycle   6  Pass 0  IDiag  1:
 RMSU=  3.96D-05    CP:  1.05D+00  1.09D+00  8.81D-01  3.85D-01  4.76D-01
 E= -801.912250262680     Delta-E=       -0.002556528762 Rises=F Damp=F
 DIIS: error= 1.56D-03 at cycle   6 NSaved=   6.
 NSaved= 6 IEnMin= 6 EnMin= -801.912250262680     IErMin= 6 ErrMin= 1.56D-03
 ErrMax= 1.56D-03  0.00D+00 EMaxC= 1.00D-01 BMatC= 2.18D-03 BMatP= 6.61D-03
 IDIUse=3 WtCom= 9.84D-01 WtEn= 1.56D-02
 Coeff-Com:  0.237D-01-0.311D-01-0.941D-02 0.750D-01 0.487D+00 0.455D+00
 Coeff-En:   0.000D+00 0.000D+00 0.000D+00 0.000D+00 0.291D+00 0.709D+00
 Coeff:      0.233D-01-0.306D-01-0.927D-02 0.739D-01 0.484D+00 0.459D+00
 Gap=     0.225 Goal=   None    Shift=    0.000
 RMSDP=3.88D-05 MaxDP=4.34D-03 DE=-2.56D-03 OVMax= 1.67D-02

 Cycle   7  Pass 0  IDiag  1:
 RMSU=  1.44D-05    CP:  1.05D+00  1.08D+00  8.67D-01  3.84D-01  6.24D-01
                    CP:  2.02D-01
 E= -801.914032818698     Delta-E=       -0.001782556019 Rises=F Damp=F
 DIIS: error= 4.44D-04 at cycle   7 NSaved=   7.
 NSaved= 7 IEnMin= 7 EnMin= -801.914032818698     IErMin= 7 ErrMin= 4.44D-04
 ErrMax= 4.44D-04  0.00D+00 EMaxC= 1.00D-01 BMatC= 1.84D-04 BMatP= 2.18D-03
 IDIUse=3 WtCom= 9.96D-01 WtEn= 4.44D-03
 Coeff-Com:  0.103D-01-0.134D-01-0.421D-02 0.190D-01 0.131D+00 0.247D+00
 Coeff-Com:  0.611D+00
 Coeff-En:   0.000D+00 0.000D+00 0.000D+00 0.000D+00 0.000D+00 0.464D-01
 Coeff-En:   0.954D+00
 Coeff:      0.102D-01-0.134D-01-0.419D-02 0.189D-01 0.130D+00 0.246D+00
 Coeff:      0.613D+00
 Gap=     0.225 Goal=   None    Shift=    0.000
 RMSDP=1.35D-05 MaxDP=1.73D-03 DE=-1.78D-03 OVMax= 4.18D-03

 Cycle   8  Pass 0  IDiag  1:
 RMSU=  8.80D-06    CP:  1.05D+00  1.09D+00  8.72D-01  3.93D-01  6.08D-01
                    CP:  3.82D-01  6.24D-01
 E= -801.914169286449     Delta-E=       -0.000136467751 Rises=F Damp=F
 DIIS: error= 1.23D-04 at cycle   8 NSaved=   8.
 NSaved= 8 IEnMin= 8 EnMin= -801.914169286449     IErMin= 8 ErrMin= 1.23D-04
 ErrMax= 1.23D-04  0.00D+00 EMaxC= 1.00D-01 BMatC= 2.47D-05 BMatP= 1.84D-04
 IDIUse=3 WtCom= 9.99D-01 WtEn= 1.23D-03
 Coeff-Com:  0.497D-02-0.659D-02-0.988D-03 0.589D-02 0.386D-01 0.107D+00
 Coeff-Com:  0.359D+00 0.492D+00
 Coeff-En:   0.000D+00 0.000D+00 0.000D+00 0.000D+00 0.000D+00 0.000D+00
 Coeff-En:   0.556D-01 0.944D+00
 Coeff:      0.496D-02-0.658D-02-0.987D-03 0.588D-02 0.385D-01 0.107D+00
 Coeff:      0.358D+00 0.493D+00
 Gap=     0.225 Goal=   None    Shift=    0.000
 RMSDP=4.22D-06 MaxDP=4.55D-04 DE=-1.36D-04 OVMax= 9.66D-04

 Initial convergence to 1.0D-05 achieved.  Increase integral accuracy.
 Cycle   9  Pass 1  IDiag  1:
 E= -801.914117437279     Delta-E=        0.000051849170 Rises=F Damp=F
 DIIS: error= 2.42D-04 at cycle   1 NSaved=   1.
 NSaved= 1 IEnMin= 1 EnMin= -801.914117437279     IErMin= 1 ErrMin= 2.42D-04
 ErrMax= 2.42D-04  0.00D+00 EMaxC= 1.00D-01 BMatC= 2.81D-05 BMatP= 2.81D-05
 IDIUse=3 WtCom= 9.98D-01 WtEn= 2.42D-03
 Coeff-Com:  0.100D+01
 Coeff-En:   0.100D+01
 Coeff:      0.100D+01
 Gap=     0.225 Goal=   None    Shift=    0.000
 RMSDP=4.22D-06 MaxDP=4.55D-04 DE= 5.18D-05 OVMax= 1.14D-03

 Cycle  10  Pass 1  IDiag  1:
 RMSU=  1.53D-04    CP:  9.91D-01
 E= -801.914135099830     Delta-E=       -0.000017662551 Rises=F Damp=F
 DIIS: error= 4.36D-05 at cycle   2 NSaved=   2.
 NSaved= 2 IEnMin= 2 EnMin= -801.914135099830     IErMin= 2 ErrMin= 4.36D-05
 ErrMax= 4.36D-05  0.00D+00 EMaxC= 1.00D-01 BMatC= 2.47D-06 BMatP= 2.81D-05
 IDIUse=1 WtCom= 1.00D+00 WtEn= 0.00D+00
 Coeff-Com:  0.109D+00 0.891D+00
 Coeff:      0.109D+00 0.891D+00
 Gap=     0.225 Goal=   None    Shift=    0.000
 RMSDP=3.51D-06 MaxDP=2.93D-04 DE=-1.77D-05 OVMax= 1.04D-03

 Cycle  11  Pass 1  IDiag  1:
 RMSU=  2.69D-06    CP:  9.91D-01  1.01D+00
 E= -801.914132020798     Delta-E=        0.000003079032 Rises=F Damp=F
 DIIS: error= 7.90D-05 at cycle   3 NSaved=   3.
 NSaved= 3 IEnMin= 2 EnMin= -801.914135099830     IErMin= 2 ErrMin= 4.36D-05
 ErrMax= 7.90D-05  0.00D+00 EMaxC= 1.00D-01 BMatC= 6.50D-06 BMatP= 2.47D-06
 IDIUse=1 WtCom= 1.00D+00 WtEn= 0.00D+00
 Coeff-Com: -0.189D-02 0.621D+00 0.381D+00
 Coeff:     -0.189D-02 0.621D+00 0.381D+00
 Gap=     0.225 Goal=   None    Shift=    0.000
 RMSDP=1.73D-06 MaxDP=2.04D-04 DE= 3.08D-06 OVMax= 6.97D-04

 Cycle  12  Pass 1  IDiag  1:
 RMSU=  7.69D-07    CP:  9.91D-01  1.02D+00  4.45D-01
 E= -801.914136966778     Delta-E=       -0.000004945980 Rises=F Damp=F
 DIIS: error= 6.31D-06 at cycle   4 NSaved=   4.
 NSaved= 4 IEnMin= 4 EnMin= -801.914136966778     IErMin= 4 ErrMin= 6.31D-06
 ErrMax= 6.31D-06  0.00D+00 EMaxC= 1.00D-01 BMatC= 6.37D-08 BMatP= 2.47D-06
 IDIUse=1 WtCom= 1.00D+00 WtEn= 0.00D+00
 Coeff-Com: -0.321D-02 0.334D+00 0.214D+00 0.455D+00
 Coeff:     -0.321D-02 0.334D+00 0.214D+00 0.455D+00
 Gap=     0.225 Goal=   None    Shift=    0.000
 RMSDP=1.91D-07 MaxDP=2.24D-05 DE=-4.95D-06 OVMax= 5.16D-05

 Cycle  13  Pass 1  IDiag  1:
 RMSU=  1.78D-07    CP:  9.91D-01  1.02D+00  4.55D-01  9.33D-01
 E= -801.914137009584     Delta-E=       -0.000000042806 Rises=F Damp=F
 DIIS: error= 1.18D-06 at cycle   5 NSaved=   5.
 NSaved= 5 IEnMin= 5 EnMin= -801.914137009584     IErMin= 5 ErrMin= 1.18D-06
 ErrMax= 1.18D-06  0.00D+00 EMaxC= 1.00D-01 BMatC= 2.88D-09 BMatP= 6.37D-08
 IDIUse=1 WtCom= 1.00D+00 WtEn= 0.00D+00
 Coeff-Com: -0.137D-02 0.112D+00 0.729D-01 0.226D+00 0.591D+00
 Coeff:     -0.137D-02 0.112D+00 0.729D-01 0.226D+00 0.591D+00
 Gap=     0.225 Goal=   None    Shift=    0.000
 RMSDP=4.99D-08 MaxDP=4.41D-06 DE=-4.28D-08 OVMax= 1.10D-05

 Cycle  14  Pass 1  IDiag  1:
 RMSU=  4.04D-08    CP:  9.91D-01  1.02D+00  4.55D-01  9.62D-01  9.40D-01
 E= -801.914137011404     Delta-E=       -0.000000001820 Rises=F Damp=F
 DIIS: error= 4.23D-07 at cycle   6 NSaved=   6.
 NSaved= 6 IEnMin= 6 EnMin= -801.914137011404     IErMin= 6 ErrMin= 4.23D-07
 ErrMax= 4.23D-07  0.00D+00 EMaxC= 1.00D-01 BMatC= 3.36D-10 BMatP= 2.88D-09
 IDIUse=1 WtCom= 1.00D+00 WtEn= 0.00D+00
 Coeff-Com: -0.404D-03 0.261D-01 0.173D-01 0.710D-01 0.300D+00 0.586D+00
 Coeff:     -0.404D-03 0.261D-01 0.173D-01 0.710D-01 0.300D+00 0.586D+00
 Gap=     0.225 Goal=   None    Shift=    0.000
 RMSDP=3.06D-08 MaxDP=5.09D-06 DE=-1.82D-09 OVMax= 7.22D-06

 Cycle  15  Pass 1  IDiag  1:
 RMSU=  2.08D-08    CP:  9.91D-01  1.02D+00  4.56D-01  9.84D-01  9.82D-01
                    CP:  7.39D-01
 E= -801.914137011632     Delta-E=       -0.000000000229 Rises=F Damp=F
 DIIS: error= 2.72D-07 at cycle   7 NSaved=   7.
 NSaved= 7 IEnMin= 7 EnMin= -801.914137011632     IErMin= 7 ErrMin= 2.72D-07
 ErrMax= 2.72D-07  0.00D+00 EMaxC= 1.00D-01 BMatC= 1.05D-10 BMatP= 3.36D-10
 IDIUse=1 WtCom= 1.00D+00 WtEn= 0.00D+00
 Coeff-Com:  0.428D-04-0.826D-02-0.521D-02-0.477D-02 0.632D-01 0.385D+00
 Coeff-Com:  0.570D+00
 Coeff:      0.428D-04-0.826D-02-0.521D-02-0.477D-02 0.632D-01 0.385D+00
 Coeff:      0.570D+00
 Gap=     0.225 Goal=   None    Shift=    0.000
 RMSDP=1.06D-08 MaxDP=9.92D-07 DE=-2.29D-10 OVMax= 3.75D-06

 Cycle  16  Pass 1  IDiag  1:
 RMSU=  7.86D-09    CP:  9.91D-01  1.02D+00  4.56D-01  9.90D-01  9.97D-01
                    CP:  8.48D-01  9.75D-01
 E= -801.914137011656     Delta-E=       -0.000000000023 Rises=F Damp=F
 DIIS: error= 7.48D-08 at cycle   8 NSaved=   8.
 NSaved= 8 IEnMin= 8 EnMin= -801.914137011656     IErMin= 8 ErrMin= 7.48D-08
 ErrMax= 7.48D-08  0.00D+00 EMaxC= 1.00D-01 BMatC= 6.78D-12 BMatP= 1.05D-10
 IDIUse=1 WtCom= 1.00D+00 WtEn= 0.00D+00
 Coeff-Com:  0.595D-04-0.667D-02-0.431D-02-0.959D-02 0.221D-02 0.140D+00
 Coeff-Com:  0.289D+00 0.590D+00
 Coeff:      0.595D-04-0.667D-02-0.431D-02-0.959D-02 0.221D-02 0.140D+00
 Coeff:      0.289D+00 0.590D+00
 Gap=     0.225 Goal=   None    Shift=    0.000
 RMSDP=3.52D-09 MaxDP=5.41D-07 DE=-2.34D-11 OVMax= 7.41D-07

 SCF Done:  E(RM06) =  -801.914137012     A.U. after   16 cycles
            NFock= 16  Conv=0.35D-08     -V/T= 2.0044
 KE= 7.983628850750D+02 PE=-4.307391734558D+03 EE= 1.489871852813D+03
 Leave Link  502 at Tue Jun 24 17:20:23 2014, MaxMem=  4294967296 cpu:     35667.8
 (Enter /home/ztw1e12/g09/l801.exe)
 DoSCS=F DFT=T ScalE2(SS,OS)=  1.000000  1.000000
 Range of M.O.s used for correlation:     1  1068
 NBasis=  1204 NAE=    63 NBE=    63 NFC=     0 NFV=     0
 NROrb=   1068 NOA=    63 NOB=    63 NVA=  1005 NVB=  1005

 **** Warning!!: The largest alpha MO coefficient is  0.27843183D+02

 Leave Link  801 at Tue Jun 24 17:20:24 2014, MaxMem=  4294967296 cpu:         0.4
 (Enter /home/ztw1e12/g09/l1002.exe)
 Minotr:  Closed shell wavefunction.
          IDoAtm=111111111111111111111111111111111
          Direct CPHF calculation.
          Differentiating once with respect to Fermi-contact.
          Electric field/nuclear overlap derivatives assumed to be zero.
          Requested convergence is 1.0D-10 RMS, and 1.0D-09 maximum.
          Secondary convergence is 1.0D-12 RMS, and 1.0D-12 maximum.
          NewPWx=T KeepS1=F KeepF1=F KeepIn=T MapXYZ=F SortEE=F KeepMc=T.
          MDV=    4294965894 using IRadAn=  199590.
 Using stored XC quadrature information.
          Solving linear equations simultaneously, MaxMat=       0.
          There are    33 degrees of freedom in the 1st order CPHF.  IDoFFX=0 NUNeed=    33.
     33 vectors produced by pass  0 Test12= 1.92D-17 3.03D-11 XBig12= 4.29D+01 2.58D+00.
 AX will form    33 AO Fock derivatives at one time.
 FoFJK:  IHMeth= 1 ICntrl=       0 DoSepK=F KAlg= 0 I1Cent=   0 FoldK=F
 IRaf= 450000000 NMat=  33 IRICut=       1 DoRegI=T DoRafI=F ISym2E=-1.
 FoFCou: FMM=F IPFlag=           0 FMFlag=      100000 FMFlg1=           0
         NFxFlg=           0 DoJE=F BraDBF=F KetDBF=F FulRan=T
         wScrn=  0.000000 ICntrl=       0 IOpCl=  0 I1Cent=           0 NGrid=           0
         NMat0=   33 NMatS0=      0 NMatT0=   33 NMatD0=   33 NMtDS0=    0 NMtDT0=    0
 Petite list used in FoFCou.
     33 vectors produced by pass  1 Test12= 1.92D-17 3.03D-11 XBig12= 3.46D-01 1.89D-01.
     33 vectors produced by pass  2 Test12= 1.92D-17 3.03D-11 XBig12= 1.58D-02 4.34D-02.
     33 vectors produced by pass  3 Test12= 1.92D-17 3.03D-11 XBig12= 3.52D-04 6.01D-03.
     33 vectors produced by pass  4 Test12= 1.92D-17 3.03D-11 XBig12= 7.15D-06 1.17D-03.
     33 vectors produced by pass  5 Test12= 1.92D-17 3.03D-11 XBig12= 1.48D-07 1.74D-04.
     33 vectors produced by pass  6 Test12= 1.92D-17 3.03D-11 XBig12= 4.56D-09 1.81D-05.
     33 vectors produced by pass  7 Test12= 1.92D-17 3.03D-11 XBig12= 1.22D-10 4.31D-06.
     33 vectors produced by pass  8 Test12= 1.92D-17 3.03D-11 XBig12= 4.82D-12 3.29D-07.
     33 vectors produced by pass  9 Test12= 1.92D-17 3.03D-11 XBig12= 6.70D-14 8.77D-08.
     33 vectors produced by pass 10 Test12= 1.92D-17 3.03D-11 XBig12= 2.03D-15 8.95D-09.
     33 vectors produced by pass 11 Test12= 1.92D-17 3.03D-11 XBig12= 2.11D-17 5.93D-10.
      8 vectors produced by pass 12 Test12= 1.92D-17 3.03D-11 XBig12= 2.33D-19 7.14D-11.
 InvSVY:  IOpt=1 It=  1 EMax= 5.33D-15
 Solved reduced A of dimension   404 with    33 vectors.
 Max diff in FC couplings:  IJMax=    11     3 Diff= 4.05D-04 IJMaxR=    32    17 DiffR= 1.44D+00
 Fermi Contact (FC) contribution to K (Hz):
                1             2             3             4             5 
      1  0.123400D+11
      2  0.350067D+02  0.123400D+11
      3 -0.117162D+01  0.347847D+02  0.123400D+11
      4  0.310573D+01  0.181684D+00  0.337500D+02  0.123400D+11
      5  0.160903D+01  0.306140D+01 -0.128072D+01  0.353420D+02  0.123400D+11
      6  0.362497D+02 -0.240344D+00  0.434839D+01  0.218032D+00  0.388835D+02
      7  0.217006D+02 -0.310191D+00  0.967478D+00 -0.208762D+00  0.615293D+00
      8 -0.219484D+00  0.220656D+02 -0.266914D+00  0.990099D+00 -0.281766D+00
      9 -0.291167D+00  0.102996D+01 -0.232767D+00  0.221501D+02 -0.218570D+00
     10  0.670037D+00 -0.221280D+00  0.105633D+01 -0.283851D+00  0.230235D+02
     11  0.213200D+01  0.159550D+01  0.245560D+02  0.144219D+01  0.195849D+01
     12  0.172694D-01  0.805957D+00 -0.902271D+00  0.807939D+00  0.889283D-01
     13 -0.474932D-01  0.701331D+00 -0.110402D+01  0.561665D+00 -0.115956D+00
     14 -0.470529D+00  0.851893D+00 -0.138943D+00  0.857338D+00 -0.554204D+00
     15  0.141356D-01 -0.223737D-01  0.234453D+00 -0.198498D-01  0.139093D-01
     16  0.230995D-01 -0.284587D-01  0.247403D+00 -0.314095D-01  0.234267D-01
     17 -0.759526D+00 -0.964947D-01  0.263690D+00  0.310464D+01  0.117590D+02
     18  0.420419D+00 -0.102756D-01 -0.466905D-01  0.214115D+00  0.115925D+01
     19 -0.644565D-01  0.321765D+00  0.258900D+00  0.163946D+00 -0.461418D-01
     20  0.101455D+00  0.204537D-01  0.333154D+01 -0.812485D-01  0.335166D-01
     21 -0.105881D-03  0.234769D-02 -0.282469D-01  0.443484D-03  0.747809D-03
     22  0.140667D-01  0.885209D-01  0.130768D-01  0.659557D-01  0.676670D-02
     23 -0.926993D-03 -0.281590D-02  0.296127D-02 -0.150514D-03  0.161556D-03
     24  0.260975D-02  0.253026D-01  0.249696D+00  0.260243D-02 -0.702801D-03
     25  0.220233D-02  0.268216D-02  0.118161D+00 -0.286242D-02 -0.115961D-02
     26  0.146498D-03  0.604629D-03  0.156171D-02  0.928496D-03 -0.232269D-03
     27 -0.260418D-03 -0.522301D-03 -0.228980D-02  0.769091D-03  0.309378D-03
     28 -0.151733D-03  0.197804D-03 -0.114725D-02  0.177413D-03 -0.177489D-03
     29 -0.517489D-03 -0.153473D-01  0.782991D-02 -0.177218D-02  0.260014D-02
     30  0.176278D-02  0.309672D-02 -0.120898D-02 -0.351021D-03  0.792242D-03
     31  0.136049D-03  0.647820D-03 -0.130063D-03 -0.186936D-03  0.118930D-03
     32  0.105192D-02  0.262686D-02 -0.249576D-02 -0.169356D-03  0.207282D-03
     33 -0.584077D-02  0.159476D-01 -0.271188D-01  0.177511D-01 -0.308386D-02
                6             7             8             9            10 
      6  0.123400D+11
      7 -0.562186D+00  0.123400D+11
      8  0.117307D+01  0.328708D+00  0.123400D+11
      9  0.121805D+01  0.387610D-01  0.388448D-01  0.123400D+11
     10 -0.704224D+00  0.630280D-01  0.401305D-01  0.353325D+00  0.123400D+11
     11 -0.474721D+00  0.103433D-01  0.734849D+00  0.666135D+00  0.243858D-01
     12  0.168546D-01  0.330335D-02 -0.256203D-01 -0.474124D-02  0.745001D-02
     13  0.126158D+00  0.127907D-01 -0.302745D-01 -0.373305D-01  0.122750D-01
     14  0.559015D+00  0.442173D-01 -0.131516D+00 -0.949535D-01  0.516862D-01
     15 -0.919355D-02 -0.186664D-02  0.312679D-02 -0.203726D-02 -0.139071D-02
     16 -0.186926D-01 -0.252968D-02  0.969710D-02  0.579441D-02 -0.282667D-02
     17 -0.119741D+02  0.559169D+00  0.685212D-01  0.252557D+00  0.715714D+00
     18 -0.651192D+00 -0.125223D-01  0.166574D-02  0.134682D-01  0.978269D-03
     19  0.588090D-01  0.595667D-02 -0.930705D-02 -0.130014D-01  0.256104D-02
     20  0.897057D-04  0.694568D-02  0.102803D-01 -0.641803D-03  0.872627D-02
     21 -0.136209D-03  0.516672D-04  0.144328D-03  0.873428D-03 -0.165648D-03
     22  0.120601D-01  0.527735D-03  0.270047D-01  0.758741D-02  0.243556D-03
     23 -0.479228D-04  0.268148D-04 -0.359743D-04 -0.157128D-04  0.116681D-04
     24  0.843760D-02  0.222915D-02 -0.395357D-03  0.754480D-03  0.124069D-02
     25  0.185802D-02  0.277136D-03  0.143253D-03 -0.447160D-03  0.421221D-03
     26  0.154048D-03  0.137762D-04 -0.540252D-04 -0.104511D-04  0.765598D-05
     27  0.235175D-04 -0.369235D-05 -0.648920D-05  0.950722D-04 -0.182016D-04
     28  0.143025D-03  0.138473D-04 -0.422781D-04 -0.419825D-04  0.134054D-04
     29 -0.165346D-02 -0.732724D-04 -0.118055D-02  0.954378D-03 -0.356741D-03
     30 -0.247227D-03 -0.118233D-03  0.353305D-02  0.104668D-03 -0.157633D-03
     31 -0.514523D-04 -0.214036D-04  0.187836D-03 -0.814235D-05 -0.247510D-04
     32  0.176412D-03  0.759484D-05  0.128296D-02  0.107013D-03 -0.235854D-04
     33  0.563197D-02  0.523202D-03 -0.122695D-02 -0.125391D-02  0.184313D-03
               11            12            13            14            15 
     11  0.123400D+11
     12  0.171466D+02  0.123400D+11
     13  0.174285D+02 -0.778616D+00  0.123400D+11
     14  0.154228D+02 -0.868350D+00 -0.934709D+00  0.123400D+11
     15 -0.726293D+00  0.389068D+00  0.190591D+00  0.213904D+02  0.123400D+11
     16 -0.611764D+00  0.367132D+00  0.101557D+01  0.284288D+02 -0.111341D+01
     17  0.586180D-01  0.490062D-02  0.439313D-01  0.216798D+00 -0.415404D-02
     18  0.120122D-01 -0.542543D-03 -0.470065D-02 -0.228012D-01  0.402606D-03
     19  0.635098D+00 -0.125343D-01 -0.578428D-02  0.449227D+01  0.315273D+00
     20  0.101799D+01  0.496433D+00  0.520895D+00  0.130564D+02 -0.438113D+00
     21  0.596844D+00 -0.171836D-01 -0.186998D-01  0.234517D+00  0.992738D-01
     22  0.296072D-02 -0.251533D-02  0.369540D-01  0.105708D+02  0.317528D+00
     23 -0.311818D-01 -0.500211D-02 -0.461721D-02  0.477343D-01  0.779660D-02
     24  0.163821D+01 -0.327176D-01 -0.198930D-01 -0.972941D-01  0.227670D+00
     25 -0.331605D-01  0.124982D-01  0.923317D-02  0.709857D+00 -0.747512D-01
     26  0.144600D-02 -0.677482D-03 -0.552034D-03  0.330147D-01  0.250312D-01
     27  0.211159D-03 -0.754072D-03 -0.493688D-03  0.146484D-01  0.290536D-01
     28 -0.244614D-02 -0.369195D-03 -0.223822D-03  0.867008D-01 -0.171833D-02
     29 -0.111933D+00  0.118929D-03  0.630034D-03  0.712995D+00  0.939835D-01
     30  0.564293D-01 -0.441644D-03  0.447776D-02 -0.808816D-01  0.102686D-01
     31  0.173105D-02  0.887889D-03  0.879663D-03 -0.240522D-01  0.490912D-02
     32  0.861009D-01 -0.223599D-03  0.679071D-02 -0.701791D-01  0.295743D-02
     33  0.102345D+00  0.212922D-01  0.620315D-02  0.706298D+00  0.223406D+00
               16            17            18            19            20 
     16  0.123400D+11
     17 -0.562750D-02  0.123400D+11
     18  0.649190D-03  0.198995D+02  0.123400D+11
     19 -0.960788D+01  0.212670D-01 -0.245633D-02  0.123400D+11
     20  0.162798D+00  0.679168D-02 -0.295020D-03  0.983934D+00  0.123400D+11
     21  0.252873D+00  0.103060D-03  0.389996D-05  0.971349D-01  0.308500D+02
     22  0.295483D+02  0.283017D-02 -0.143699D-03  0.619909D+01 -0.543946D+00
     23  0.373714D+00 -0.352823D-05 -0.211752D-05  0.442599D+00 -0.461466D-01
     24  0.150963D+00  0.498236D-02 -0.422497D-03 -0.165495D-01  0.253642D+02
     25 -0.146194D+00  0.899374D-03 -0.846202D-04  0.591455D-01  0.125332D+02
     26  0.500591D-01  0.252169D-04 -0.269179D-05 -0.156813D-02  0.406023D+00
     27  0.617769D-01  0.393431D-04 -0.163186D-05  0.321613D-02  0.308820D+00
     28 -0.209680D-02  0.632298D-04 -0.682198D-05  0.419609D-02  0.320789D+00
     29 -0.244700D+00 -0.271085D-03  0.368282D-04  0.587856D+00  0.306995D-01
     30  0.152146D+00 -0.109410D-03  0.716009D-05  0.251545D+00  0.518290D-01
     31  0.958274D+00 -0.128633D-04  0.000000D+00  0.178064D+00  0.529886D-02
     32  0.206456D+00 -0.290297D-05  0.290346D-05  0.250668D+00  0.254773D-01
     33  0.489447D+00  0.258211D-02 -0.279367D-03  0.407871D+00  0.609883D+01
               21            22            23            24            25 
     21  0.123400D+11
     22  0.472512D-01  0.123400D+11
     23  0.476803D-02  0.311580D+02  0.123400D+11
     24  0.470606D+00 -0.360370D-01  0.714070D-02  0.123400D+11
     25  0.757408D-01  0.282903D-02  0.871993D-03  0.268671D+02  0.123400D+11
     26 -0.120958D-01  0.228723D-02  0.972784D-04 -0.119114D+01  0.181290D+02
     27 -0.967342D-02  0.889504D-03 -0.140822D-03 -0.119459D+01  0.178599D+02
     28 -0.905834D-02 -0.140827D-02  0.101614D-03 -0.752104D+00  0.170096D+02
     29 -0.485439D-03  0.175796D+02  0.333845D+00 -0.360492D-02 -0.536217D-02
     30 -0.110804D-02 -0.594304D+00  0.128261D+00  0.106642D-02  0.265807D-02
     31 -0.521558D-03 -0.380581D+00  0.291894D+00 -0.126514D-03 -0.136536D-03
     32  0.126233D-02 -0.608254D+00  0.855961D-01 -0.121367D-02  0.274905D-02
     33  0.445325D+00  0.303541D+00 -0.157369D-01 -0.986280D+01  0.347364D+01
               26            27            28            29            30 
     26  0.123400D+11
     27 -0.929078D+00  0.123400D+11
     28 -0.732028D+00 -0.735416D+00  0.123400D+11
     29 -0.345881D-04 -0.480939D-03  0.153729D-03  0.123400D+11
     30  0.320438D-03  0.389962D-03 -0.372752D-04  0.198625D+02  0.123400D+11
     31  0.188773D-03  0.912833D-04  0.325808D-05  0.181122D+02 -0.743644D+00
     32 -0.660771D-04 -0.417746D-04 -0.175216D-04  0.202226D+02 -0.733758D+00
     33  0.449119D+00  0.454432D+00  0.798078D+00 -0.188037D-01  0.153150D-01
               31            32            33 
     31  0.123400D+11
     32 -0.743665D+00  0.123400D+11
     33  0.364295D-02  0.241963D-01  0.123400D+11
 Fermi Contact (FC) contribution to J (Hz):
                1             2             3             4             5 
      1  0.243533D+11
      2  0.690865D+02  0.243533D+11
      3 -0.231222D+01  0.686485D+02  0.243533D+11
      4  0.612923D+01  0.358559D+00  0.666064D+02  0.243533D+11
      5  0.317545D+01  0.604176D+01 -0.252753D+01  0.697483D+02  0.243533D+11
      6  0.715398D+02 -0.474326D+00  0.858165D+01  0.430292D+00  0.767375D+02
      7  0.170283D+03 -0.243403D+01  0.759171D+01 -0.163814D+01  0.482814D+01
      8 -0.172227D+01  0.173147D+03 -0.209444D+01  0.776921D+01 -0.221099D+01
      9 -0.228476D+01  0.808199D+01 -0.182650D+01  0.173810D+03 -0.171510D+01
     10  0.525771D+01 -0.173637D+01  0.828893D+01 -0.222735D+01  0.180663D+03
     11  0.420755D+01  0.314876D+01  0.484618D+02  0.284621D+01  0.386513D+01
     12  0.135511D+00  0.632427D+01 -0.708003D+01  0.633982D+01  0.697812D+00
     13 -0.372675D+00  0.550328D+01 -0.866312D+01  0.440733D+01 -0.909896D+00
     14 -0.928601D+00  0.168123D+01 -0.274208D+00  0.169198D+01 -0.109374D+01
     15  0.110921D+00 -0.175564D+00  0.183973D+01 -0.155760D+00  0.109145D+00
     16  0.455874D-01 -0.561640D-01  0.488256D+00 -0.619875D-01  0.462332D-01
     17  0.808273D+00  0.102688D+00 -0.280614D+00 -0.330390D+01 -0.125137D+02
     18  0.329899D+01 -0.806319D-01 -0.366376D+00  0.168014D+01  0.909654D+01
     19  0.685934D-01 -0.342416D+00 -0.275516D+00 -0.174468D+00  0.491033D-01
     20  0.575465D-01  0.116016D-01  0.188969D+01 -0.460852D-01  0.190110D-01
     21 -0.830836D-03  0.184221D-01 -0.221651D+00  0.347997D-02  0.586799D-02
     22  0.797883D-02  0.502101D-01  0.741733D-02  0.374109D-01  0.383816D-02
     23 -0.727403D-02 -0.220961D-01  0.232368D-01 -0.118107D-02  0.126772D-02
     24  0.515041D-02  0.499354D-01  0.492781D+00  0.513596D-02 -0.138700D-02
     25  0.434634D-02  0.529331D-02  0.233194D+00 -0.564906D-02 -0.228852D-02
     26  0.114955D-02  0.474447D-02  0.122546D-01  0.728582D-02 -0.182260D-02
     27 -0.204347D-02 -0.409845D-02 -0.179679D-01  0.603498D-02  0.242766D-02
     28 -0.119064D-02  0.155215D-02 -0.900234D-02  0.139214D-02 -0.139274D-02
     29 -0.102128D-02 -0.302883D-01  0.154525D-01 -0.349744D-02  0.513144D-02
     30  0.138323D-01  0.242997D-01 -0.948673D-02 -0.275443D-02  0.621665D-02
     31  0.106756D-02  0.508338D-02 -0.102059D-02 -0.146687D-02  0.933230D-03
     32  0.825430D-02  0.206127D-01 -0.195840D-01 -0.132892D-02  0.162653D-02
     33  0.621563D-02 -0.169711D-01  0.288593D-01 -0.188904D-01  0.328179D-02
                6             7             8             9            10 
      6  0.243533D+11
      7 -0.441142D+01  0.385007D+12
      8  0.920493D+01  0.102557D+02  0.385007D+12
      9  0.955792D+01  0.120934D+01  0.121196D+01  0.385007D+12
     10 -0.552597D+01  0.196647D+01  0.125207D+01  0.110237D+02  0.385007D+12
     11 -0.936875D+00  0.811626D-01  0.576629D+01  0.522710D+01  0.191353D+00
     12  0.132256D+00  0.103064D+00 -0.799353D+00 -0.147927D+00  0.232440D+00
     13  0.989950D+00  0.399068D+00 -0.944561D+00 -0.116471D+01  0.382981D+00
     14  0.110323D+01  0.346969D+00 -0.103200D+01 -0.745091D+00  0.405577D+00
     15 -0.721409D-01 -0.582390D-01  0.975556D-01 -0.635625D-01 -0.433901D-01
     16 -0.368903D-01 -0.198502D-01  0.760922D-01  0.454682D-01 -0.221806D-01
     17  0.127426D+02 -0.236600D+01 -0.289932D+00 -0.106864D+01 -0.302838D+01
     18 -0.510984D+01 -0.390696D+00  0.519711D-01  0.420208D+00  0.305219D-01
     19 -0.625834D-01 -0.252043D-01  0.393807D-01  0.550124D-01 -0.108365D-01
     20  0.508822D-04  0.156645D-01  0.231850D-01 -0.144745D-02  0.196802D-01
     21 -0.106882D-02  0.161201D-02  0.450304D-02  0.272509D-01 -0.516822D-02
     22  0.684062D-02  0.119019D-02  0.609032D-01  0.171118D-01  0.549289D-03
     23 -0.376045D-03  0.836621D-03 -0.112240D-02 -0.490237D-03  0.364044D-03
     24  0.166518D-01  0.174919D-01 -0.310232D-02  0.592033D-02  0.973554D-02
     25  0.366685D-02  0.217466D-02  0.112409D-02 -0.350882D-02  0.330528D-02
     26  0.120880D-02  0.429816D-03 -0.168558D-02 -0.326073D-03  0.238866D-03
     27  0.184539D-03 -0.115201D-03 -0.202463D-03  0.296625D-02 -0.567890D-03
     28  0.112230D-02  0.432034D-03 -0.131907D-02 -0.130985D-02  0.418248D-03
     29 -0.326315D-02 -0.574962D-03 -0.926366D-02  0.748891D-02 -0.279931D-02
     30 -0.193997D-02 -0.368886D-02  0.110231D+00  0.326563D-02 -0.491814D-02
     31 -0.403742D-03 -0.667793D-03  0.586048D-02 -0.254041D-03 -0.772229D-03
     32  0.138429D-02  0.236959D-03  0.400284D-01  0.333880D-02 -0.735863D-03
     33 -0.599344D-02 -0.221381D-02  0.519155D-02  0.530562D-02 -0.779879D-03
               11            12            13            14            15 
     11  0.243533D+11
     12  0.134548D+03  0.385007D+12
     13  0.136760D+03 -0.242928D+02  0.385007D+12
     14  0.304373D+02 -0.681386D+01 -0.733457D+01  0.243533D+11
     15 -0.569915D+01  0.121389D+02  0.594642D+01  0.167849D+03  0.385007D+12
     16 -0.120733D+01  0.288085D+01  0.796905D+01  0.561049D+02 -0.873686D+01
     17 -0.623801D-01 -0.207359D-01 -0.185885D+00 -0.230712D+00  0.175769D-01
     18  0.942589D-01 -0.169273D-01 -0.146660D+00 -0.178919D+00  0.125613D-01
     19 -0.675860D+00  0.530360D-01  0.244749D-01 -0.478058D+01 -0.133401D+01
     20  0.577416D+00  0.111960D+01  0.117477D+01  0.740573D+01 -0.988069D+00
     21  0.468337D+01 -0.536128D+00 -0.583432D+00  0.184023D+01  0.309734D+01
     22  0.167936D-02 -0.567278D-02  0.833418D-01  0.599586D+01  0.716115D+00
     23 -0.244681D+00 -0.156066D+00 -0.144057D+00  0.374566D+00  0.243254D+00
     24  0.323306D+01 -0.256732D+00 -0.156098D+00 -0.192012D+00  0.178650D+01
     25 -0.654431D-01  0.980722D-01  0.724518D-01  0.140092D+01 -0.586565D+00
     26  0.113466D-01 -0.211374D-01 -0.172234D-01  0.259063D+00  0.780973D+00
     27  0.165694D-02 -0.235270D-01 -0.154030D-01  0.114945D+00  0.906472D+00
     28 -0.191946D-01 -0.115189D-01 -0.698325D-02  0.680333D+00 -0.536117D-01
     29 -0.220902D+00  0.933222D-03  0.494381D-02  0.140711D+01  0.737479D+00
     30  0.442796D+00 -0.137793D-01  0.139706D+00 -0.634670D+00  0.320379D+00
     31  0.135834D-01  0.277021D-01  0.274454D-01 -0.188735D+00  0.153164D+00
     32  0.675625D+00 -0.697628D-02  0.211870D+00 -0.550689D+00  0.922716D-01
     33 -0.108913D+00 -0.900932D-01 -0.262472D-01 -0.751629D+00 -0.945292D+00
               16            17            18            19            20 
     16  0.243533D+11
     17  0.598868D-02  0.708114D+10
     18  0.509413D-02 -0.842002D+02  0.385007D+12
     19  0.102245D+02  0.122038D-01  0.103934D-01  0.708114D+10
     20  0.923410D-01 -0.207728D-02 -0.665354D-03 -0.300943D+00  0.201170D+10
     21  0.198427D+01 -0.436076D-03  0.121678D-03 -0.411004D+00  0.695756D+02
     22  0.167602D+02 -0.865628D-03 -0.324083D-03 -0.189603D+01 -0.886757D-01
     23  0.293249D+01  0.149289D-04 -0.660665D-04 -0.187276D+01 -0.104074D+00
     24  0.297929D+00 -0.530213D-02 -0.331530D-02  0.176117D-01  0.143869D+02
     25 -0.288518D+00 -0.957097D-03 -0.664007D-03 -0.629416D-01  0.710901D+01
     26  0.392809D+00 -0.106699D-03 -0.839839D-04  0.663519D-02  0.915698D+00
     27  0.484758D+00 -0.166471D-03 -0.509139D-04 -0.136083D-01  0.696478D+00
     28 -0.164534D-01 -0.267542D-03 -0.212846D-03 -0.177548D-01  0.723470D+00
     29 -0.482921D+00  0.288484D-03  0.288987D-03 -0.625585D+00  0.174131D-01
     30  0.119387D+01  0.462944D-03  0.223394D-03 -0.106436D+01  0.116889D+00
     31  0.751948D+01  0.544283D-04  0.203782D-04 -0.753439D+00  0.119504D-01
     32  0.162004D+01  0.122833D-04  0.905877D-04 -0.106065D+01  0.574585D-01
     33 -0.520860D+00  0.148171D-02  0.118208D-02  0.234051D+00 -0.186537D+01
               21            22            23            24            25 
     21  0.385007D+12
     22  0.106565D+00  0.201170D+10
     23  0.148762D+00  0.702702D+02  0.385007D+12
     24  0.369280D+01 -0.204406D-01  0.560324D-01  0.243533D+11
     25  0.594331D+00  0.160466D-02  0.684245D-02  0.530230D+02  0.243533D+11
     26 -0.377389D+00  0.515835D-02  0.303508D-02 -0.934672D+01  0.142256D+03
     27 -0.301810D+00  0.200609D-02 -0.439363D-02 -0.937386D+01  0.140145D+03
     28 -0.282620D+00 -0.317605D-02  0.317036D-02 -0.590169D+01  0.133473D+03
     29 -0.380919D-02  0.997136D+01  0.261965D+01 -0.711440D-02 -0.105824D-01
     30 -0.345707D-01 -0.134033D+01  0.400174D+01  0.836811D-02  0.208576D-01
     31 -0.162726D-01 -0.858319D+00  0.910707D+01 -0.992744D-03 -0.107139D-02
     32  0.393845D-01 -0.137179D+01  0.267059D+01 -0.952357D-02  0.215716D-01
     33 -0.188429D+01 -0.928403D-01  0.665873D-01  0.104958D+02 -0.369658D+01
               26            27            28            29            30 
     26  0.385007D+12
     27 -0.289872D+02  0.385007D+12
     28 -0.228392D+02 -0.229449D+02  0.385007D+12
     29 -0.271410D-03 -0.377388D-02  0.120630D-02  0.243533D+11
     30  0.999764D-02  0.121668D-01 -0.116298D-02  0.155859D+03  0.385007D+12
     31  0.588972D-02  0.284803D-02  0.101652D-03  0.142125D+03 -0.232017D+02
     32 -0.206160D-02 -0.130337D-02 -0.546673D-03  0.158685D+03 -0.228932D+02
     33 -0.190035D+01 -0.192283D+01 -0.337689D+01  0.200105D-01 -0.648019D-01
               31            32            33 
     31  0.385007D+12
     32 -0.232023D+02  0.385007D+12
     33 -0.154143D-01 -0.102381D+00  0.708114D+10
 End of Minotr F.D. properties file   721 does not exist.
 End of Minotr F.D. properties file   722 does not exist.
 End of Minotr F.D. properties file   788 does not exist.
 Leave Link 1002 at Wed Jun 25 01:24:58 2014, MaxMem=  4294967296 cpu:    464053.4
 (Enter /home/ztw1e12/g09/l601.exe)
 Copying SCF densities to generalized density rwf, IOpCl= 0 IROHF=0.

 **********************************************************************

            Population analysis using the SCF density.

 **********************************************************************

 Orbital symmetries:
       Occupied  (A) (A) (A) (A) (A) (A) (A) (A) (A) (A) (A) (A)
                 (A) (A) (A) (A) (A) (A) (A) (A) (A) (A) (A) (A)
                 (A) (A) (A) (A) (A) (A) (A) (A) (A) (A) (A) (A)
                 (A) (A) (A) (A) (A) (A) (A) (A) (A) (A) (A) (A)
                 (A) (A) (A) (A) (A) (A) (A) (A) (A) (A) (A) (A)
                 (A) (A) (A)
       Virtual   (A) (A) (A) (A) (A) (A) (A) (A) (A) (A) (A) (A)
                 (A) (A) (A) (A) (A) (A) (A) (A) (A) (A) (A) (A)
                 (A) (A) (A) (A) (A) (A) (A) (A) (A) (A) (A) (A)
                 (A) (A) (A) (A) (A) (A) (A) (A) (A) (A) (A) (A)
                 (A) (A) (A) (A) (A) (A) (A) (A) (A) (A) (A) (A)
                 (A) (A) (A) (A) (A) (A) (A) (A) (A) (A) (A) (A)
                 (A) (A) (A) (A) (A) (A) (A) (A) (A) (A) (A) (A)
                 (A) (A) (A) (A) (A) (A) (A) (A) (A) (A) (A) (A)
                 (A) (A) (A) (A) (A) (A) (A) (A) (A) (A) (A) (A)
                 (A) (A) (A) (A) (A) (A) (A) (A) (A) (A) (A) (A)
                 (A) (A) (A) (A) (A) (A) (A) (A) (A) (A) (A) (A)
                 (A) (A) (A) (A) (A) (A) (A) (A) (A) (A) (A) (A)
                 (A) (A) (A) (A) (A) (A) (A) (A) (A) (A) (A) (A)
                 (A) (A) (A) (A) (A) (A) (A) (A) (A) (A) (A) (A)
                 (A) (A) (A) (A) (A) (A) (A) (A) (A) (A) (A) (A)
                 (A) (A) (A) (A) (A) (A) (A) (A) (A) (A) (A) (A)
                 (A) (A) (A) (A) (A) (A) (A) (A) (A) (A) (A) (A)
                 (A) (A) (A) (A) (A) (A) (A) (A) (A) (A) (A) (A)
                 (A) (A) (A) (A) (A) (A) (A) (A) (A) (A) (A) (A)
                 (A) (A) (A) (A) (A) (A) (A) (A) (A) (A) (A) (A)
                 (A) (A) (A) (A) (A) (A) (A) (A) (A) (A) (A) (A)
                 (A) (A) (A) (A) (A) (A) (A) (A) (A) (A) (A) (A)
                 (A) (A) (A) (A) (A) (A) (A) (A) (A) (A) (A) (A)
                 (A) (A) (A) (A) (A) (A) (A) (A) (A) (A) (A) (A)
                 (A) (A) (A) (A) (A) (A) (A) (A) (A) (A) (A) (A)
                 (A) (A) (A) (A) (A) (A) (A) (A) (A) (A) (A) (A)
                 (A) (A) (A) (A) (A) (A) (A) (A) (A) (A) (A) (A)
                 (A) (A) (A) (A) (A) (A) (A) (A) (A) (A) (A) (A)
                 (A) (A) (A) (A) (A) (A) (A) (A) (A) (A) (A) (A)
                 (A) (A) (A) (A) (A) (A) (A) (A) (A) (A) (A) (A)
                 (A) (A) (A) (A) (A) (A) (A) (A) (A) (A) (A) (A)
                 (A) (A) (A) (A) (A) (A) (A) (A) (A) (A) (A) (A)
                 (A) (A) (A) (A) (A) (A) (A) (A) (A) (A) (A) (A)
                 (A) (A) (A) (A) (A) (A) (A) (A) (A) (A) (A) (A)
                 (A) (A) (A) (A) (A) (A) (A) (A) (A) (A) (A) (A)
                 (A) (A) (A) (A) (A) (A) (A) (A) (A) (A) (A) (A)
                 (A) (A) (A) (A) (A) (A) (A) (A) (A) (A) (A) (A)
                 (A) (A) (A) (A) (A) (A) (A) (A) (A) (A) (A) (A)
                 (A) (A) (A) (A) (A) (A) (A) (A) (A) (A) (A) (A)
                 (A) (A) (A) (A) (A) (A) (A) (A) (A) (A) (A) (A)
                 (A) (A) (A) (A) (A) (A) (A) (A) (A) (A) (A) (A)
                 (A) (A) (A) (A) (A) (A) (A) (A) (A) (A) (A) (A)
                 (A) (A) (A) (A) (A) (A) (A) (A) (A) (A) (A) (A)
                 (A) (A) (A) (A) (A) (A) (A) (A) (A) (A) (A) (A)
                 (A) (A) (A) (A) (A) (A) (A) (A) (A) (A) (A) (A)
                 (A) (A) (A) (A) (A) (A) (A) (A) (A) (A) (A) (A)
                 (A) (A) (A) (A) (A) (A) (A) (A) (A) (A) (A) (A)
                 (A) (A) (A) (A) (A) (A) (A) (A) (A) (A) (A) (A)
                 (A) (A) (A) (A) (A) (A) (A) (A) (A) (A) (A) (A)
                 (A) (A) (A) (A) (A) (A) (A) (A) (A) (A) (A) (A)
                 (A) (A) (A) (A) (A) (A) (A) (A) (A) (A) (A) (A)
                 (A) (A) (A) (A) (A) (A) (A) (A) (A) (A) (A) (A)
                 (A) (A) (A) (A) (A) (A) (A) (A) (A) (A) (A) (A)
                 (A) (A) (A) (A) (A) (A) (A) (A) (A) (A) (A) (A)
                 (A) (A) (A) (A) (A) (A) (A) (A) (A) (A) (A) (A)
                 (A) (A) (A) (A) (A) (A) (A) (A) (A) (A) (A) (A)
                 (A) (A) (A) (A) (A) (A) (A) (A) (A) (A) (A) (A)
                 (A) (A) (A) (A) (A) (A) (A) (A) (A) (A) (A) (A)
                 (A) (A) (A) (A) (A) (A) (A) (A) (A) (A) (A) (A)
                 (A) (A) (A) (A) (A) (A) (A) (A) (A) (A) (A) (A)
                 (A) (A) (A) (A) (A) (A) (A) (A) (A) (A) (A) (A)
                 (A) (A) (A) (A) (A) (A) (A) (A) (A) (A) (A) (A)
                 (A) (A) (A) (A) (A) (A) (A) (A) (A) (A) (A) (A)
                 (A) (A) (A) (A) (A) (A) (A) (A) (A) (A) (A) (A)
                 (A) (A) (A) (A) (A) (A) (A) (A) (A) (A) (A) (A)
                 (A) (A) (A) (A) (A) (A) (A) (A) (A) (A) (A) (A)
                 (A) (A) (A) (A) (A) (A) (A) (A) (A) (A) (A) (A)
                 (A) (A) (A) (A) (A) (A) (A) (A) (A) (A) (A) (A)
                 (A) (A) (A) (A) (A) (A) (A) (A) (A) (A) (A) (A)
                 (A) (A) (A) (A) (A) (A) (A) (A) (A) (A) (A) (A)
                 (A) (A) (A) (A) (A) (A) (A) (A) (A) (A) (A) (A)
                 (A) (A) (A) (A) (A) (A) (A) (A) (A) (A) (A) (A)
                 (A) (A) (A) (A) (A) (A) (A) (A) (A) (A) (A) (A)
                 (A) (A) (A) (A) (A) (A) (A) (A) (A) (A) (A) (A)
                 (A) (A) (A) (A) (A) (A) (A) (A) (A) (A) (A) (A)
                 (A) (A) (A) (A) (A) (A) (A) (A) (A) (A) (A) (A)
                 (A) (A) (A) (A) (A) (A) (A) (A) (A) (A) (A) (A)
                 (A) (A) (A) (A) (A) (A) (A) (A) (A) (A) (A) (A)
                 (A) (A) (A) (A) (A) (A) (A) (A) (A) (A) (A) (A)
                 (A) (A) (A) (A) (A) (A) (A) (A) (A) (A) (A) (A)
                 (A) (A) (A) (A) (A) (A) (A) (A) (A) (A) (A) (A)
                 (A) (A) (A) (A) (A) (A) (A) (A) (A) (A) (A) (A)
                 (A) (A) (A) (A) (A) (A) (A) (A) (A) (A) (A) (A)
                 (A) (A) (A) (A) (A) (A) (A) (A) (A)
 The electronic state is 1-A.
 Alpha  occ. eigenvalues --  -19.24242 -19.17665 -19.16353 -14.42868 -14.41461
 Alpha  occ. eigenvalues --  -10.34576 -10.32916 -10.30263 -10.29121 -10.26886
 Alpha  occ. eigenvalues --  -10.26240 -10.25077 -10.24528 -10.24434 -10.24226
 Alpha  occ. eigenvalues --  -10.23978 -10.23485  -1.08537  -1.05877  -1.04112
 Alpha  occ. eigenvalues --   -0.95778  -0.93494  -0.87365  -0.81646  -0.77118
 Alpha  occ. eigenvalues --   -0.76186  -0.73959  -0.71626  -0.66669  -0.63662
 Alpha  occ. eigenvalues --   -0.62180  -0.59669  -0.59432  -0.55943  -0.54825
 Alpha  occ. eigenvalues --   -0.52499  -0.50483  -0.49676  -0.47756  -0.47106
 Alpha  occ. eigenvalues --   -0.46852  -0.45615  -0.44841  -0.44176  -0.43373
 Alpha  occ. eigenvalues --   -0.42736  -0.42162  -0.41959  -0.41168  -0.40966
 Alpha  occ. eigenvalues --   -0.39708  -0.39140  -0.37669  -0.37270  -0.35934
 Alpha  occ. eigenvalues --   -0.34875  -0.34717  -0.29579  -0.27218  -0.27039
 Alpha  occ. eigenvalues --   -0.26745  -0.25500  -0.23202
 Alpha virt. eigenvalues --   -0.00701   0.00213   0.01259   0.02037   0.02533
 Alpha virt. eigenvalues --    0.02922   0.03557   0.04773   0.05416   0.06161
 Alpha virt. eigenvalues --    0.06578   0.07864   0.09214   0.09820   0.10373
 Alpha virt. eigenvalues --    0.10693   0.11819   0.12348   0.13343   0.13474
 Alpha virt. eigenvalues --    0.15589   0.16186   0.16587   0.17006   0.19400
 Alpha virt. eigenvalues --    0.20491   0.21235   0.22034   0.22439   0.23296
 Alpha virt. eigenvalues --    0.24083   0.24497   0.25448   0.25787   0.26402
 Alpha virt. eigenvalues --    0.27059   0.27619   0.28737   0.29313   0.30117
 Alpha virt. eigenvalues --    0.30727   0.31163   0.32060   0.32488   0.32619
 Alpha virt. eigenvalues --    0.32811   0.34055   0.34480   0.34795   0.35605
 Alpha virt. eigenvalues --    0.35990   0.36284   0.36532   0.37412   0.37809
 Alpha virt. eigenvalues --    0.38138   0.38266   0.38851   0.39480   0.39890
 Alpha virt. eigenvalues --    0.40326   0.40724   0.41307   0.41683   0.41997
 Alpha virt. eigenvalues --    0.42493   0.42741   0.42917   0.43142   0.44333
 Alpha virt. eigenvalues --    0.44920   0.45046   0.45618   0.46678   0.47208
 Alpha virt. eigenvalues --    0.47770   0.48432   0.49053   0.50063   0.50650
 Alpha virt. eigenvalues --    0.50798   0.51849   0.52087   0.52392   0.53860
 Alpha virt. eigenvalues --    0.54357   0.55098   0.55314   0.56451   0.56990
 Alpha virt. eigenvalues --    0.57524   0.58506   0.60305   0.60550   0.60867
 Alpha virt. eigenvalues --    0.62448   0.63174   0.63716   0.64760   0.65191
 Alpha virt. eigenvalues --    0.66113   0.66524   0.67374   0.68694   0.69081
 Alpha virt. eigenvalues --    0.69782   0.70668   0.71418   0.71870   0.73105
 Alpha virt. eigenvalues --    0.73191   0.74071   0.74303   0.75822   0.76730
 Alpha virt. eigenvalues --    0.77179   0.77522   0.77954   0.79365   0.80651
 Alpha virt. eigenvalues --    0.80987   0.81354   0.82333   0.83041   0.83423
 Alpha virt. eigenvalues --    0.84450   0.85097   0.85262   0.85607   0.86990
 Alpha virt. eigenvalues --    0.87844   0.89000   0.89835   0.90487   0.90844
 Alpha virt. eigenvalues --    0.91702   0.92117   0.93461   0.93728   0.94956
 Alpha virt. eigenvalues --    0.95381   0.96135   0.96745   0.97310   0.97727
 Alpha virt. eigenvalues --    0.98517   0.98883   0.99168   0.99414   1.01267
 Alpha virt. eigenvalues --    1.02421   1.03154   1.04318   1.05312   1.05524
 Alpha virt. eigenvalues --    1.06452   1.07345   1.07683   1.08083   1.09336
 Alpha virt. eigenvalues --    1.10804   1.11815   1.12375   1.13472   1.13795
 Alpha virt. eigenvalues --    1.14864   1.15440   1.15846   1.16334   1.16918
 Alpha virt. eigenvalues --    1.17659   1.18815   1.19283   1.19636   1.20628
 Alpha virt. eigenvalues --    1.20926   1.21275   1.22781   1.23054   1.23282
 Alpha virt. eigenvalues --    1.23776   1.24457   1.24834   1.24987   1.25386
 Alpha virt. eigenvalues --    1.25513   1.26670   1.26929   1.27081   1.27977
 Alpha virt. eigenvalues --    1.28358   1.28578   1.29122   1.30347   1.31525
 Alpha virt. eigenvalues --    1.32031   1.32642   1.33060   1.33326   1.34591
 Alpha virt. eigenvalues --    1.35630   1.36040   1.36672   1.37012   1.38562
 Alpha virt. eigenvalues --    1.40069   1.41788   1.41840   1.42574   1.43451
 Alpha virt. eigenvalues --    1.44583   1.46338   1.47576   1.48476   1.51679
 Alpha virt. eigenvalues --    1.51742   1.54347   1.55598   1.56950   1.58276
 Alpha virt. eigenvalues --    1.58881   1.60303   1.61103   1.62303   1.62415
 Alpha virt. eigenvalues --    1.65142   1.65765   1.67762   1.69381   1.72766
 Alpha virt. eigenvalues --    1.73716   1.74819   1.75798   1.77866   1.79257
 Alpha virt. eigenvalues --    1.80943   1.82161   1.82680   1.83651   1.85983
 Alpha virt. eigenvalues --    1.86221   1.88659   1.89069   1.89406   1.90726
 Alpha virt. eigenvalues --    1.91865   1.92641   1.93841   1.96000   1.96874
 Alpha virt. eigenvalues --    1.97235   1.99330   2.01047   2.01694   2.02768
 Alpha virt. eigenvalues --    2.03647   2.04837   2.06884   2.07508   2.10785
 Alpha virt. eigenvalues --    2.11349   2.11787   2.12780   2.14216   2.15339
 Alpha virt. eigenvalues --    2.16221   2.16826   2.18191   2.20096   2.21395
 Alpha virt. eigenvalues --    2.21615   2.23598   2.25632   2.26304   2.27186
 Alpha virt. eigenvalues --    2.28365   2.28947   2.29843   2.32432   2.33682
 Alpha virt. eigenvalues --    2.34799   2.35995   2.36513   2.37923   2.39215
 Alpha virt. eigenvalues --    2.39766   2.39999   2.41725   2.43185   2.43826
 Alpha virt. eigenvalues --    2.44679   2.45730   2.46758   2.48253   2.48705
 Alpha virt. eigenvalues --    2.49888   2.50492   2.51927   2.53198   2.54509
 Alpha virt. eigenvalues --    2.56415   2.56853   2.57120   2.57739   2.61367
 Alpha virt. eigenvalues --    2.63681   2.63694   2.64002   2.66614   2.67003
 Alpha virt. eigenvalues --    2.68200   2.68659   2.69312   2.69908   2.70371
 Alpha virt. eigenvalues --    2.70683   2.71142   2.71255   2.72165   2.73266
 Alpha virt. eigenvalues --    2.73817   2.74540   2.75259   2.75728   2.76573
 Alpha virt. eigenvalues --    2.76838   2.77307   2.78807   2.79348   2.81020
 Alpha virt. eigenvalues --    2.82428   2.83528   2.84188   2.85563   2.86741
 Alpha virt. eigenvalues --    2.87472   2.88240   2.88866   2.89469   2.89522
 Alpha virt. eigenvalues --    2.90057   2.91370   2.91699   2.92011   2.92428
 Alpha virt. eigenvalues --    2.92629   2.94068   2.95062   2.95727   2.96292
 Alpha virt. eigenvalues --    2.96642   2.97398   2.98017   2.98608   2.99116
 Alpha virt. eigenvalues --    2.99385   3.00118   3.00832   3.01541   3.02238
 Alpha virt. eigenvalues --    3.02637   3.03497   3.03935   3.04755   3.05355
 Alpha virt. eigenvalues --    3.05596   3.06501   3.07286   3.08651   3.09520
 Alpha virt. eigenvalues --    3.10463   3.11107   3.12092   3.12668   3.13431
 Alpha virt. eigenvalues --    3.14205   3.14484   3.15914   3.16669   3.17376
 Alpha virt. eigenvalues --    3.17670   3.18228   3.19299   3.19913   3.20652
 Alpha virt. eigenvalues --    3.21442   3.22664   3.23404   3.24379   3.24826
 Alpha virt. eigenvalues --    3.26545   3.26693   3.27636   3.27734   3.28046
 Alpha virt. eigenvalues --    3.28880   3.29275   3.29935   3.30733   3.31518
 Alpha virt. eigenvalues --    3.32354   3.32766   3.33142   3.34154   3.34563
 Alpha virt. eigenvalues --    3.35110   3.35438   3.37546   3.38104   3.38663
 Alpha virt. eigenvalues --    3.40003   3.41261   3.42109   3.42304   3.43486
 Alpha virt. eigenvalues --    3.43745   3.44378   3.44801   3.45736   3.46328
 Alpha virt. eigenvalues --    3.47607   3.48149   3.48434   3.49426   3.51868
 Alpha virt. eigenvalues --    3.52988   3.53737   3.54080   3.55410   3.57299
 Alpha virt. eigenvalues --    3.57590   3.58747   3.59117   3.59786   3.61909
 Alpha virt. eigenvalues --    3.62154   3.63089   3.64021   3.65756   3.66287
 Alpha virt. eigenvalues --    3.67772   3.68506   3.69277   3.69998   3.70712
 Alpha virt. eigenvalues --    3.71521   3.72071   3.73297   3.73753   3.73916
 Alpha virt. eigenvalues --    3.75367   3.75747   3.76222   3.76862   3.77394
 Alpha virt. eigenvalues --    3.78516   3.78860   3.79850   3.80599   3.82287
 Alpha virt. eigenvalues --    3.82868   3.83357   3.84771   3.85508   3.86007
 Alpha virt. eigenvalues --    3.86423   3.87335   3.87981   3.88711   3.90078
 Alpha virt. eigenvalues --    3.90488   3.90905   3.92327   3.94010   3.94723
 Alpha virt. eigenvalues --    3.95798   3.96886   3.98314   3.98567   3.99744
 Alpha virt. eigenvalues --    4.00378   4.02047   4.03109   4.04968   4.05454
 Alpha virt. eigenvalues --    4.05754   4.06492   4.07158   4.07650   4.08944
 Alpha virt. eigenvalues --    4.09872   4.10384   4.11818   4.12945   4.14697
 Alpha virt. eigenvalues --    4.15332   4.16012   4.16388   4.17901   4.18374
 Alpha virt. eigenvalues --    4.19473   4.20209   4.21303   4.22048   4.22887
 Alpha virt. eigenvalues --    4.23815   4.24409   4.24650   4.25345   4.26561
 Alpha virt. eigenvalues --    4.27417   4.28864   4.29136   4.29817   4.30360
 Alpha virt. eigenvalues --    4.32617   4.34392   4.34891   4.36454   4.37526
 Alpha virt. eigenvalues --    4.38844   4.40260   4.42403   4.43279   4.45305
 Alpha virt. eigenvalues --    4.46154   4.46547   4.48138   4.49119   4.50662
 Alpha virt. eigenvalues --    4.53444   4.54586   4.56405   4.57743   4.58872
 Alpha virt. eigenvalues --    4.59382   4.60136   4.61352   4.62742   4.64917
 Alpha virt. eigenvalues --    4.65255   4.66238   4.67021   4.67447   4.68643
 Alpha virt. eigenvalues --    4.69284   4.69949   4.70758   4.71422   4.72322
 Alpha virt. eigenvalues --    4.74043   4.74855   4.75679   4.78009   4.79040
 Alpha virt. eigenvalues --    4.81296   4.82292   4.83112   4.86326   4.86849
 Alpha virt. eigenvalues --    4.87564   4.88058   4.90307   4.90347   4.91067
 Alpha virt. eigenvalues --    4.91487   4.93580   4.94074   4.94310   4.96232
 Alpha virt. eigenvalues --    4.97694   4.98605   4.99556   5.01366   5.03072
 Alpha virt. eigenvalues --    5.03479   5.05746   5.06372   5.07491   5.08709
 Alpha virt. eigenvalues --    5.10439   5.11454   5.12564   5.13037   5.14503
 Alpha virt. eigenvalues --    5.15966   5.17010   5.17759   5.18672   5.20848
 Alpha virt. eigenvalues --    5.22050   5.23190   5.24691   5.25222   5.28789
 Alpha virt. eigenvalues --    5.31146   5.33532   5.36547   5.37018   5.39008
 Alpha virt. eigenvalues --    5.41717   5.43520   5.45106   5.46028   5.49178
 Alpha virt. eigenvalues --    5.51898   5.52566   5.53166   5.54559   5.55856
 Alpha virt. eigenvalues --    5.56871   5.58451   5.59777   5.61046   5.61610
 Alpha virt. eigenvalues --    5.63535   5.65122   5.65832   5.66344   5.67796
 Alpha virt. eigenvalues --    5.68489   5.69267   5.72133   5.72822   5.73946
 Alpha virt. eigenvalues --    5.75153   5.77107   5.79929   5.81207   5.82472
 Alpha virt. eigenvalues --    5.85162   5.89524   5.90765   5.93877   5.97191
 Alpha virt. eigenvalues --    5.97998   5.99446   6.04261   6.07084   6.11667
 Alpha virt. eigenvalues --    6.18042   6.19172   6.20949   6.22343   6.26116
 Alpha virt. eigenvalues --    6.46871   6.47389   6.52044   6.53556   6.56975
 Alpha virt. eigenvalues --    6.61421   6.62108   6.62984   6.64871   6.66601
 Alpha virt. eigenvalues --    6.79099   6.80118   6.80896   6.88733   6.89369
 Alpha virt. eigenvalues --    6.91250   6.91607   6.92633   6.93646   7.07370
 Alpha virt. eigenvalues --    7.18047   7.20182   7.22750   7.27968   7.30184
 Alpha virt. eigenvalues --    7.68178   8.00472   8.11069   8.12823   8.13265
 Alpha virt. eigenvalues --    8.20177   8.23760   8.29884   8.38603   8.66544
 Alpha virt. eigenvalues --    8.74506   8.76094   8.77633   8.81424   8.82482
 Alpha virt. eigenvalues --    8.83868   8.84978   8.87283   8.89350   8.90685
 Alpha virt. eigenvalues --    8.92993   8.96342   8.97262   9.01621   9.04441
 Alpha virt. eigenvalues --    9.08170   9.12432   9.18653   9.22458   9.32086
 Alpha virt. eigenvalues --    9.36348   9.41029   9.41808   9.46408   9.49155
 Alpha virt. eigenvalues --    9.58848   9.61740   9.78118   9.82028  10.04051
 Alpha virt. eigenvalues --   10.08458  10.12003  10.13586  10.14734  10.17908
[...]
 Alpha virt. eigenvalues --    6.79155   6.81316   6.86438   6.86958   6.88261
 Alpha virt. eigenvalues --    6.91374   6.94879   7.08998   7.10083   7.12494
 Alpha virt. eigenvalues --    7.15794   7.17839   7.29276   7.44469   8.65491
 Alpha virt. eigenvalues --    9.58715   9.90623  11.95769  12.13905  12.30966
 Alpha virt. eigenvalues --   12.39358  12.65034  12.79152  12.94074  13.24864
 Alpha virt. eigenvalues --   13.46447  13.57646  13.64064  13.75003  13.98847
 Alpha virt. eigenvalues --   15.56555
          Condensed to atoms (all electrons):
               1          2          3          4          5          6
     1  C    5.388731   0.220602   0.008791  -0.037982  -0.021040   0.310863
     2  C    0.220602   5.446933   0.234017  -0.004774  -0.039105   0.034601
     3  C    0.008791   0.234017   5.289833   0.348389  -0.038498  -0.073308
     4  C   -0.037982  -0.004774   0.348389   5.135515   0.443238  -0.022785
     5  C   -0.021040  -0.039105  -0.038498   0.443238   5.044679   0.389391
     6  C    0.310863   0.034601  -0.073308  -0.022785   0.389391   4.857329
     7  H    0.449366  -0.035764   0.009092  -0.000640   0.004280  -0.070978
     8  H   -0.019082   0.445175  -0.093429   0.004564  -0.001203   0.007384
     9  H   -0.003565   0.008832  -0.091415   0.453542  -0.030936   0.011244
    10  H    0.013720  -0.005542   0.013804  -0.056171   0.452480  -0.079074
    11  C    0.007287  -0.040306   0.292051  -0.066524   0.002132  -0.001169
    12  H    0.000224  -0.000007  -0.037124   0.005879   0.000104   0.000021
    13  H   -0.000339   0.005101  -0.025455  -0.009736  -0.000153   0.000075
    14  C    0.000495  -0.017600  -0.045593   0.003943   0.001973  -0.000319
    15  H   -0.000112   0.002214  -0.006441   0.001230   0.000282   0.000029
    16  C    0.000398  -0.005072   0.029971   0.000057  -0.000131  -0.000347
    17  O   -0.089302   0.013283  -0.000469   0.002588  -0.048707   0.392581
    18  H   -0.005372   0.004646  -0.000444  -0.000661   0.002221  -0.043140
    19  O    0.001246  -0.005238   0.000021   0.001674  -0.000165  -0.000318
    20  N   -0.000011   0.000469   0.004852  -0.000724  -0.000056   0.000003
    21  H   -0.000001  -0.000131   0.001653   0.000121   0.000009  -0.000001
    22  N   -0.000104   0.003125  -0.013349  -0.000292  -0.000036   0.000060
    23  H   -0.000033   0.000109   0.000574  -0.000008   0.000007   0.000000
    24  C    0.000002  -0.000050  -0.000192   0.000013   0.000000   0.000000
    25  C    0.000000   0.000001   0.000003  -0.000002   0.000000   0.000000
    26  H    0.000000   0.000000  -0.000001   0.000000   0.000000   0.000000
    27  H    0.000000   0.000000  -0.000001   0.000000   0.000000   0.000000
    28  H    0.000000   0.000000  -0.000003   0.000002   0.000000   0.000000
    29  C   -0.000090  -0.000335   0.000442   0.000001   0.000004  -0.000007
    30  H    0.000203   0.000130   0.001175   0.000013   0.000004  -0.000050
    31  H   -0.000005  -0.000013   0.000029   0.000002   0.000000   0.000000
    32  H   -0.000007   0.000089  -0.000102  -0.000008  -0.000001   0.000002
    33  O    0.000000   0.000002   0.000048  -0.000027   0.000000   0.000000
               7          8          9         10         11         12
     1  C    0.449366  -0.019082  -0.003565   0.013720   0.007287   0.000224
     2  C   -0.035764   0.445175   0.008832  -0.005542  -0.040306  -0.000007
     3  C    0.009092  -0.093429  -0.091415   0.013804   0.292051  -0.037124
     4  C   -0.000640   0.004564   0.453542  -0.056171  -0.066524   0.005879
     5  C    0.004280  -0.001203  -0.030936   0.452480   0.002132   0.000104
     6  C   -0.070978   0.007384   0.011244  -0.079074  -0.001169   0.000021
     7  H    0.540935  -0.006975   0.000049  -0.000245  -0.000353  -0.000068
     8  H   -0.006975   0.492807  -0.000258   0.000055   0.005500   0.001897
     9  H    0.000049  -0.000258   0.512806  -0.009392   0.001655   0.000272
    10  H   -0.000245   0.000055  -0.009392   0.545650  -0.000245   0.000019
    11  C   -0.000353   0.005500   0.001655  -0.000245   5.354161   0.408058
    12  H   -0.000068   0.001897   0.000272   0.000019   0.408058   0.455466
    13  H    0.000015   0.000709   0.000419  -0.000026   0.424209  -0.014169
    14  C    0.000031  -0.002652  -0.001088   0.000031   0.180871  -0.023567
    15  H   -0.000002   0.000064   0.001512   0.000021  -0.011548   0.004169
    16  C    0.000067  -0.001180  -0.000084   0.000001  -0.059813  -0.013873
    17  O   -0.004167  -0.000121  -0.000139   0.006480   0.000002  -0.000001
    18  H    0.004596  -0.000005   0.000046  -0.000974  -0.000006   0.000000
    19  O    0.000073  -0.001175  -0.000091   0.000013  -0.003300   0.000179
    20  N    0.000000  -0.000005  -0.000250  -0.000001  -0.040495  -0.005286
    21  H    0.000000  -0.000003   0.000038   0.000000  -0.002343   0.002013
    22  N   -0.000042   0.004631  -0.000005   0.000000   0.021550   0.003521
    23  H   -0.000001   0.000154   0.000004   0.000000   0.001251   0.003689
    24  C    0.000000  -0.000026  -0.000009   0.000000   0.006346  -0.000738
    25  C    0.000000  -0.000001  -0.000003   0.000000   0.000160  -0.000019
    26  H    0.000000   0.000000   0.000000   0.000000   0.000011   0.000008
    27  H    0.000000   0.000000   0.000000   0.000000  -0.000036  -0.000016
    28  H    0.000000   0.000000   0.000001   0.000000  -0.000277  -0.000026
    29  C    0.000003   0.000144   0.000000   0.000000  -0.000819  -0.000323
    30  H    0.000073  -0.000963   0.000000   0.000000  -0.001016  -0.000167
    31  H    0.000000  -0.000044   0.000000   0.000000  -0.000064   0.000000
    32  H   -0.000002   0.000108   0.000000   0.000000   0.000338   0.000033
    33  O    0.000000   0.000000  -0.000009   0.000000   0.002264   0.000024
              13         14         15         16         17         18
     1  C   -0.000339   0.000495  -0.000112   0.000398  -0.089302  -0.005372
     2  C    0.005101  -0.017600   0.002214  -0.005072   0.013283   0.004646
     3  C   -0.025455  -0.045593  -0.006441   0.029971  -0.000469  -0.000444
     4  C   -0.009736   0.003943   0.001230   0.000057   0.002588  -0.000661
     5  C   -0.000153   0.001973   0.000282  -0.000131  -0.048707   0.002221
     6  C    0.000075  -0.000319   0.000029  -0.000347   0.392581  -0.043140
     7  H    0.000015   0.000031  -0.000002   0.000067  -0.004167   0.004596
     8  H    0.000709  -0.002652   0.000064  -0.001180  -0.000121  -0.000005
     9  H    0.000419  -0.001088   0.001512  -0.000084  -0.000139   0.000046
    10  H   -0.000026   0.000031   0.000021   0.000001   0.006480  -0.000974
    11  C    0.424209   0.180871  -0.011548  -0.059813   0.000002  -0.000006
    12  H   -0.014169  -0.023567   0.004169  -0.013873  -0.000001   0.000000
    13  H    0.487930  -0.072072  -0.007875   0.011856  -0.000001   0.000000
    14  C   -0.072072   5.479112   0.436072   0.210018   0.000001   0.000000
    15  H   -0.007875   0.436072   0.440624  -0.070979   0.000000   0.000000
    16  C    0.011856   0.210018  -0.070979   4.805368   0.000001   0.000000
    17  O   -0.000001   0.000001   0.000000   0.000001   7.663057   0.359559
    18  H    0.000000   0.000000   0.000000   0.000000   0.359559   0.492137
    19  O   -0.000563  -0.067452   0.008628   0.731492   0.000000   0.000000
    20  N    0.002564   0.164635  -0.035276  -0.046229   0.000000   0.000000
    21  H    0.003450  -0.021566   0.000933   0.003254   0.000000   0.000000
    22  N   -0.000231  -0.116661   0.008540   0.249506   0.000000   0.000000
    23  H   -0.000375  -0.002076   0.000588  -0.026171   0.000000   0.000000
    24  C   -0.001023  -0.079533  -0.001167  -0.005037   0.000000   0.000000
    25  C   -0.000099   0.008785   0.001206  -0.002716   0.000000   0.000000
    26  H   -0.000025  -0.000169   0.000133  -0.000204   0.000000   0.000000
    27  H    0.000011  -0.000495  -0.000136   0.000581   0.000000   0.000000
    28  H   -0.000018   0.001172  -0.000214   0.000082   0.000000   0.000000
    29  C    0.000066   0.009452  -0.000580  -0.053764   0.000000   0.000000
    30  H   -0.000017   0.000954  -0.000129  -0.000460   0.000000   0.000000
    31  H    0.000002   0.000553  -0.000007   0.009623   0.000000   0.000000
    32  H    0.000012   0.000051   0.000026  -0.004808   0.000000   0.000000
    33  O   -0.000058   0.014060   0.010011   0.001968   0.000000   0.000000
              19         20         21         22         23         24
     1  C    0.001246  -0.000011  -0.000001  -0.000104  -0.000033   0.000002
     2  C   -0.005238   0.000469  -0.000131   0.003125   0.000109  -0.000050
     3  C    0.000021   0.004852   0.001653  -0.013349   0.000574  -0.000192
     4  C    0.001674  -0.000724   0.000121  -0.000292  -0.000008   0.000013
     5  C   -0.000165  -0.000056   0.000009  -0.000036   0.000007   0.000000
     6  C   -0.000318   0.000003  -0.000001   0.000060   0.000000   0.000000
     7  H    0.000073   0.000000   0.000000  -0.000042  -0.000001   0.000000
     8  H   -0.001175  -0.000005  -0.000003   0.004631   0.000154  -0.000026
     9  H   -0.000091  -0.000250   0.000038  -0.000005   0.000004  -0.000009
    10  H    0.000013  -0.000001   0.000000   0.000000   0.000000   0.000000
    11  C   -0.003300  -0.040495  -0.002343   0.021550   0.001251   0.006346
    12  H    0.000179  -0.005286   0.002013   0.003521   0.003689  -0.000738
    13  H   -0.000563   0.002564   0.003450  -0.000231  -0.000375  -0.001023
    14  C   -0.067452   0.164635  -0.021566  -0.116661  -0.002076  -0.079533
    15  H    0.008628  -0.035276   0.000933   0.008540   0.000588  -0.001167
    16  C    0.731492  -0.046229   0.003254   0.249506  -0.026171  -0.005037
    17  O    0.000000   0.000000   0.000000   0.000000   0.000000   0.000000
    18  H    0.000000   0.000000   0.000000   0.000000   0.000000   0.000000
    19  O    7.809251   0.004992  -0.000343  -0.131522   0.005597  -0.001817
    20  N    0.004992   6.677531   0.351658   0.003224   0.022436   0.314981
    21  H   -0.000343   0.351658   0.523821  -0.001560  -0.000024  -0.016767
    22  N   -0.131522   0.003224  -0.001560   6.552529   0.373251   0.014616
    23  H    0.005597   0.022436  -0.000024   0.373251   0.534486  -0.003065
    24  C   -0.001817   0.314981  -0.016767   0.014616  -0.003065   4.608134
    25  C   -0.000018  -0.066750  -0.000961  -0.000198   0.000531   0.273756
    26  H    0.000001   0.000238  -0.000261   0.000008   0.000105  -0.027472
    27  H   -0.000005  -0.001448   0.000297   0.000255  -0.000405  -0.022288
    28  H    0.000001   0.013584  -0.000818   0.000043   0.000046  -0.058808
    29  C    0.008067  -0.001629   0.000091   0.291928  -0.034831  -0.000066
    30  H    0.005333  -0.000193   0.000010  -0.053734   0.002486   0.000207
    31  H    0.001610  -0.000156   0.000034  -0.029600  -0.008074  -0.000078
    32  H    0.004657  -0.000052  -0.000001  -0.047501   0.002227  -0.000567
    33  O   -0.001076  -0.133592   0.005003  -0.005219  -0.002389   0.724096
              25         26         27         28         29         30
     1  C    0.000000   0.000000   0.000000   0.000000  -0.000090   0.000203
     2  C    0.000001   0.000000   0.000000   0.000000  -0.000335   0.000130
     3  C    0.000003  -0.000001  -0.000001  -0.000003   0.000442   0.001175
     4  C   -0.000002   0.000000   0.000000   0.000002   0.000001   0.000013
     5  C    0.000000   0.000000   0.000000   0.000000   0.000004   0.000004
     6  C    0.000000   0.000000   0.000000   0.000000  -0.000007  -0.000050
     7  H    0.000000   0.000000   0.000000   0.000000   0.000003   0.000073
     8  H   -0.000001   0.000000   0.000000   0.000000   0.000144  -0.000963
     9  H   -0.000003   0.000000   0.000000   0.000001   0.000000   0.000000
    10  H    0.000000   0.000000   0.000000   0.000000   0.000000   0.000000
    11  C    0.000160   0.000011  -0.000036  -0.000277  -0.000819  -0.001016
    12  H   -0.000019   0.000008  -0.000016  -0.000026  -0.000323  -0.000167
    13  H   -0.000099  -0.000025   0.000011  -0.000018   0.000066  -0.000017
    14  C    0.008785  -0.000169  -0.000495   0.001172   0.009452   0.000954
    15  H    0.001206   0.000133  -0.000136  -0.000214  -0.000580  -0.000129
    16  C   -0.002716  -0.000204   0.000581   0.000082  -0.053764  -0.000460
    17  O    0.000000   0.000000   0.000000   0.000000   0.000000   0.000000
    18  H    0.000000   0.000000   0.000000   0.000000   0.000000   0.000000
    19  O   -0.000018   0.000001  -0.000005   0.000001   0.008067   0.005333
    20  N   -0.066750   0.000238  -0.001448   0.013584  -0.001629  -0.000193
    21  H   -0.000961  -0.000261   0.000297  -0.000818   0.000091   0.000010
    22  N   -0.000198   0.000008   0.000255   0.000043   0.291928  -0.053734
    23  H    0.000531   0.000105  -0.000405   0.000046  -0.034831   0.002486
    24  C    0.273756  -0.027472  -0.022288  -0.058808  -0.000066   0.000207
    25  C    5.003592   0.390961   0.381508   0.394770  -0.000058   0.000000
    26  H    0.390961   0.560451  -0.022888  -0.025198  -0.000003   0.000000
    27  H    0.381508  -0.022888   0.571687  -0.027150   0.000026   0.000003
    28  H    0.394770  -0.025198  -0.027150   0.601712  -0.000001   0.000000
    29  C   -0.000058  -0.000003   0.000026  -0.000001   4.771404   0.391605
    30  H    0.000000   0.000000   0.000003   0.000000   0.391605   0.625075
    31  H   -0.000011   0.000000   0.000009   0.000001   0.391601  -0.028379
    32  H   -0.000008  -0.000001  -0.000010  -0.000002   0.404180  -0.055307
    33  O   -0.068193   0.001695   0.001557   0.004493   0.000273   0.000011
              31         32         33
     1  C   -0.000005  -0.000007   0.000000
     2  C   -0.000013   0.000089   0.000002
     3  C    0.000029  -0.000102   0.000048
     4  C    0.000002  -0.000008  -0.000027
     5  C    0.000000  -0.000001   0.000000
     6  C    0.000000   0.000002   0.000000
     7  H    0.000000  -0.000002   0.000000
     8  H   -0.000044   0.000108   0.000000
     9  H    0.000000   0.000000  -0.000009
    10  H    0.000000   0.000000   0.000000
    11  C   -0.000064   0.000338   0.002264
    12  H    0.000000   0.000033   0.000024
    13  H    0.000002   0.000012  -0.000058
    14  C    0.000553   0.000051   0.014060
    15  H   -0.000007   0.000026   0.010011
    16  C    0.009623  -0.004808   0.001968
    17  O    0.000000   0.000000   0.000000
    18  H    0.000000   0.000000   0.000000
    19  O    0.001610   0.004657  -0.001076
    20  N   -0.000156  -0.000052  -0.133592
    21  H    0.000034  -0.000001   0.005003
    22  N   -0.029600  -0.047501  -0.005219
    23  H   -0.008074   0.002227  -0.002389
    24  C   -0.000078  -0.000567   0.724096
    25  C   -0.000011  -0.000008  -0.068193
    26  H    0.000000  -0.000001   0.001695
    27  H    0.000009  -0.000010   0.001557
    28  H    0.000001  -0.000002   0.004493
    29  C    0.391601   0.404180   0.000273
    30  H   -0.028379  -0.055307   0.000011
    31  H    0.607364  -0.027815   0.000004
    32  H   -0.027815   0.602599   0.000536
    33  O    0.000004   0.000536   7.821517
 Mulliken charges:
               1
     1  C   -0.224885
     2  C   -0.265392
     3  C    0.191077
     4  C   -0.200436
     5  C   -0.160772
     6  C    0.287914
     7  H    0.110656
     8  H    0.163931
     9  H    0.146823
    10  H    0.119397
    11  C   -0.479528
    12  H    0.209810
    13  H    0.195815
    14  C   -0.061366
    15  H    0.218188
    16  C    0.236625
    17  O   -0.294645
    18  H    0.187398
    19  O   -0.369751
    20  N   -0.229013
    21  H    0.152395
    22  N   -0.126733
    23  H    0.129913
    24  C    0.276549
    25  C   -0.316234
    26  H    0.122611
    27  H    0.118945
    28  H    0.096609
    29  C   -0.176781
    30  H    0.113131
    31  H    0.083414
    32  H    0.121335
    33  O   -0.376999
 Sum of Mulliken charges =   0.00000
 Mulliken charges with hydrogens summed into heavy atoms:
               1
     1  C   -0.114230
     2  C   -0.101461
     3  C    0.191077
     4  C   -0.053612
     5  C   -0.041375
     6  C    0.287914
    11  C   -0.073903
    14  C    0.156822
    16  C    0.236625
    17  O   -0.107246
    19  O   -0.369751
    20  N   -0.076619
    22  N    0.003180
    24  C    0.276549
    25  C    0.021930
    29  C    0.141100
    33  O   -0.376999
 Electronic spatial extent (au):  <R**2>=           5059.3025
 Charge=              0.0000 electrons
 Dipole moment (field-independent basis, Debye):
    X=             -1.3197    Y=             -0.0318    Z=             -6.6352  Tot=              6.7653
 Quadrupole moment (field-independent basis, Debye-Ang):
   XX=            -89.2880   YY=            -89.1880   ZZ=           -106.4889
   XY=              8.6714   XZ=             10.3259   YZ=             -4.8036
 Traceless Quadrupole moment (field-independent basis, Debye-Ang):
   XX=              5.7003   YY=              5.8003   ZZ=            -11.5006
   XY=              8.6714   XZ=             10.3259   YZ=             -4.8036
 Octapole moment (field-independent basis, Debye-Ang**2):
  XXX=             -7.4888  YYY=             19.8361  ZZZ=             -7.5042  XYY=            -11.3021
  XXY=             36.7308  XXZ=            -50.5442  XZZ=             -1.0237  YZZ=             -1.3941
  YYZ=              0.7393  XYZ=             -9.8081
 Hexadecapole moment (field-independent basis, Debye-Ang**3):
 XXXX=          -4526.4565 YYYY=          -1076.9176 ZZZZ=           -498.8458 XXXY=            336.4103
 XXXZ=             35.1386 YYYX=             -5.8204 YYYZ=            -15.9217 ZZZX=             46.8096
 ZZZY=             -5.0312 XXYY=           -908.9401 XXZZ=           -973.7521 YYZZ=           -262.4320
 XXYZ=            -19.5647 YYXZ=             17.3501 ZZXY=              1.3556
 N-N= 1.217242859659D+03 E-N=-4.305176205519D+03  KE= 7.961879875261D+02
 Calculating spin-rotation constants.
 Leave Link  601 at Wed Jun 25 06:26:52 2014, MaxMem=  4294967296 cpu:        91.7
 (Enter /home/ztw1e12/g09/l9999.exe)

 Test job not archived.
 1\1\GINC-GREEN0734\SP\RM06\Gen\C12H16N2O3\ROOT\25-Jun-2014\0\\#P Geom=
 AllCheck Guess=TCheck SCRF=Check GenChk RM06/ChkBas NMR=ReadFC IOp(3/6
 =22)\\NMR spin-spin scan\\0,1\C,0,2.620179,-1.225814,2.008938\C,0,2.02
 4762,-0.322411,1.144259\C,0,1.454173,-0.737684,-0.050619\C,0,1.491807,
 -2.09342,-0.360185\C,0,2.080657,-3.0078,0.490743\C,0,2.646704,-2.57222
 8,1.681423\H,0,3.065971,-0.893054,2.939305\H,0,2.005539,0.73011,1.4062
 21\H,0,1.050018,-2.437073,-1.28953\H,0,2.111745,-4.062003,0.246358\C,0
 ,0.765838,0.23045,-0.960691\H,0,1.061596,1.25581,-0.719971\H,0,1.05187
 7,0.04481,-1.999713\C,0,-0.758432,0.133343,-0.888665\H,0,-1.068015,-0.
 884934,-1.143061\C,0,-1.232426,0.350217,0.540019\O,0,3.218249,-3.51027
 6,2.487855\H,0,3.578844,-3.084525,3.273747\O,0,-1.439353,-0.61234,1.27
 657\N,0,-1.330563,1.065455,-1.833582\H,0,-0.711509,1.632416,-2.393092\
 N,0,-1.342555,1.613994,0.954454\H,0,-1.183176,2.35799,0.294308\C,0,-2.
 659526,1.138726,-2.03737\C,0,-3.123327,2.113085,-3.067851\H,0,-3.71172
 3,1.580369,-3.814423\H,0,-3.78212,2.83922,-2.591636\H,0,-2.307452,2.63
 8654,-3.559357\C,0,-1.738803,1.936318,2.30595\H,0,-1.044512,1.506881,3
 .029193\H,0,-1.740885,3.01556,2.424599\H,0,-2.737859,1.557405,2.524677
 \O,0,-3.44488,0.440283,-1.400003\\Version=EM64L-G09RevD.01\State=1-A\H
 F=-801.8598502\RMSD=4.704e-09\Dipole=1.3414948,2.1856459,-0.7125925\Qu
 adrupole=-11.5924087,2.7498221,8.8425866,-4.3886043,6.0825921,-1.32749
 53\PG=C01 [X(C12H16N2O3)]\\@


 TRUTH, IN SCIENCE, CAN BE DEFINED AS THE WORKING HYPOTHESIS 
 BEST FITTED TO OPEN THE WAY TO THE NEXT BETTER ONE.

                              -- KONRAD LORENZ
 Job cpu time:       3 days  8 hours  5 minutes 53.5 seconds.
 File lengths (MBytes):  RWF=   3656 Int=      0 D2E=      0 Chk=     64 Scr=      8
 Normal termination of Gaussian 09 at Wed Jun 25 06:26:53 2014.
