 Entering Gaussian System, Link 0=g09
 Input=scan_input_14.gjf
 Output=scan_input_14.log
 Initial command:
 /home/ztw1e12/g09/l1.exe "/home/ztw1e12/tyrosine_scan/tyrosine_chi1_scan/Gau-15388.inp" -scrdir="/home/ztw1e12/tyrosine_scan/tyrosine_chi1_scan/"
 Default is to use a total of   8 processors:
                                8 via shared-memory
                                1 via Linda
 Entering Link 1 = /home/ztw1e12/g09/l1.exe PID=     15389.
  
 Copyright (c) 1988,1990,1992,1993,1995,1998,2003,2009,2013,
            Gaussian, Inc.  All Rights Reserved.
  
 This is part of the Gaussian(R) 09 program.  It is based on
 the Gaussian(R) 03 system (copyright 2003, Gaussian, Inc.),
 the Gaussian(R) 98 system (copyright 1998, Gaussian, Inc.),
 the Gaussian(R) 94 system (copyright 1995, Gaussian, Inc.),
 the Gaussian 92(TM) system (copyright 1992, Gaussian, Inc.),
 the Gaussian 90(TM) system (copyright 1990, Gaussian, Inc.),
 the Gaussian 88(TM) system (copyright 1988, Gaussian, Inc.),
 the Gaussian 86(TM) system (copyright 1986, Carnegie Mellon
 University), and the Gaussian 82(TM) system (copyright 1983,
 Carnegie Mellon University). Gaussian is a federally registered
 trademark of Gaussian, Inc.
  
 This software contains proprietary and confidential information,
 including trade secrets, belonging to Gaussian, Inc.
  
 This software is provided under written license and may be
 used, copied, transmitted, or stored only in accord with that
 written license.
  
 The following legend is applicable only to US Government
 contracts under FAR:
  
                    RESTRICTED RIGHTS LEGEND
  
 Use, reproduction and disclosure by the US Government is
 subject to restrictions as set forth in subparagraphs (a)
 and (c) of the Commercial Computer Software - Restricted
 Rights clause in FAR 52.227-19.
  
 Gaussian, Inc.
 340 Quinnipiac St., Bldg. 40, Wallingford CT 06492
  
  
 ---------------------------------------------------------------
 Warning -- This program may not be used in any manner that
 competes with the business of Gaussian, Inc. or will provide
 assistance to any competitor of Gaussian, Inc.  The licensee
 of this program is prohibited from giving any competitor of
 Gaussian, Inc. access to this program.  By using this program,
 the user acknowledges that Gaussian, Inc. is engaged in the
 business of creating and licensing software in the field of
 computational chemistry and represents and warrants to the
 licensee that it is not a competitor of Gaussian, Inc. and that
 it will not use this program in any manner prohibited above.
 ---------------------------------------------------------------
  

 Cite this work as:
 Gaussian 09, Revision D.01,
 M. J. Frisch, G. W. Trucks, H. B. Schlegel, G. E. Scuseria, 
 M. A. Robb, J. R. Cheeseman, G. Scalmani, V. Barone, B. Mennucci, 
 G. A. Petersson, H. Nakatsuji, M. Caricato, X. Li, H. P. Hratchian, 
 A. F. Izmaylov, J. Bloino, G. Zheng, J. L. Sonnenberg, M. Hada, 
 M. Ehara, K. Toyota, R. Fukuda, J. Hasegawa, M. Ishida, T. Nakajima, 
 Y. Honda, O. Kitao, H. Nakai, T. Vreven, J. A. Montgomery, Jr., 
 J. E. Peralta, F. Ogliaro, M. Bearpark, J. J. Heyd, E. Brothers, 
 K. N. Kudin, V. N. Staroverov, T. Keith, R. Kobayashi, J. Normand, 
 K. Raghavachari, A. Rendell, J. C. Burant, S. S. Iyengar, J. Tomasi, 
 M. Cossi, N. Rega, J. M. Millam, M. Klene, J. E. Knox, J. B. Cross, 
 V. Bakken, C. Adamo, J. Jaramillo, R. Gomperts, R. E. Stratmann, 
 O. Yazyev, A. J. Austin, R. Cammi, C. Pomelli, J. W. Ochterski, 
 R. L. Martin, K. Morokuma, V. G. Zakrzewski, G. A. Voth, 
 P. Salvador, J. J. Dannenberg, S. Dapprich, A. D. Daniels, 
 O. Farkas, J. B. Foresman, J. V. Ortiz, J. Cioslowski, 
 and D. J. Fox, Gaussian, Inc., Wallingford CT, 2013.
 
 ******************************************
 Gaussian 09:  EM64L-G09RevD.01 24-Apr-2013
                24-Jun-2014 
 ******************************************
 %Mem=32GB
 %NProcShared=16
 Will use up to   16 processors via shared memory.
 Default route:  MaxDisk=100GB
 ----------------------------------------------------------------------
 #p nmr=(giao,mixed,spinspin) m06/cc-pvtz scf=tight integral=(grid=ultr
 afine)
 ----------------------------------------------------------------------
 1/38=1/1;
 2/12=2,17=6,18=5,40=1/2;
 3/5=16,6=1,10=1100000,11=2,16=1,25=1,30=1,74=-54,75=-5/1,2,8,3;
 4//1;
 5/5=2,32=2,38=5/2;
 8/6=1,10=90,11=11/1;
 10/13=100,45=16,47=3/2;
 6/7=2,8=2,9=2,10=2,28=1/1;
 99/9=1/99;
 Leave Link    1 at Tue Jun 24 16:36:28 2014, MaxMem=  4294967296 cpu:         5.5
 (Enter /home/ztw1e12/g09/l101.exe)
 ------------------
 NMR spin-spin scan
 ------------------
 Symbolic Z-matrix:
 Charge =  0 Multiplicity = 1
 C                     2.62339   0.06565   1.11147 
 C                     1.86267   0.06983  -0.04381 
 C                     1.08764  -1.02704  -0.40591 
 C                     1.11156  -2.14477   0.4207 
 C                     1.86884  -2.16701   1.57794 
 C                     2.62258  -1.05652   1.92716 
 H                     3.22546   0.92429   1.38606 
 H                     1.86821   0.94917  -0.67979 
 H                     0.52118  -3.01429   0.15483 
 H                     1.88687  -3.04019   2.21769 
 C                     0.20096  -0.97057  -1.61388 
 H                     0.69139  -0.44879  -2.43765 
 H                     0.00213  -1.98752  -1.95485 
 C                    -1.16425  -0.2958   -1.36945 
 H                    -1.89017  -0.74575  -2.0517 
 C                    -1.67772  -0.63172   0.0165 
 O                     3.35297  -1.12019   3.07517 
 H                     3.82548  -0.28935   3.19937 
 O                    -2.14279  -1.75187   0.2246 
 N                    -1.09436   1.11716  -1.67199 
 H                    -0.18919   1.53711  -1.82138 
 N                    -1.5614    0.29466   0.96752 
 H                    -1.10165   1.16177   0.73768 
 C                    -2.20173   1.86802  -1.82886 
 C                    -1.98927   3.3015   -2.18715 
 H                    -2.51065   3.50869  -3.12149 
 H                    -2.44247   3.92453  -1.41633 
 H                    -0.94      3.56884  -2.29344 
 C                    -1.8542   -0.00813   2.34986 
 H                    -1.17636  -0.77295   2.73618 
 H                    -1.74153   0.89483   2.94212 
 H                    -2.87586  -0.37083   2.45756 
 O                    -3.32688   1.39478  -1.68587 
 
 NAtoms=     33 NQM=       33 NQMF=       0 NMMI=      0 NMMIF=      0
                NMic=       0 NMicF=      0.
                    Isotopes and Nuclear Properties:
 (Nuclear quadrupole moments (NQMom) in fm**2, nuclear magnetic moments (NMagM)
  in nuclear magnetons)

  Atom         1           2           3           4           5           6           7           8           9          10
 IAtWgt=          12          12          12          12          12          12           1           1           1           1
 AtmWgt=  12.0000000  12.0000000  12.0000000  12.0000000  12.0000000  12.0000000   1.0078250   1.0078250   1.0078250   1.0078250
 NucSpn=           0           0           0           0           0           0           1           1           1           1
 AtZEff=   0.0000000   0.0000000   0.0000000   0.0000000   0.0000000   0.0000000   0.0000000   0.0000000   0.0000000   0.0000000
 NQMom=    0.0000000   0.0000000   0.0000000   0.0000000   0.0000000   0.0000000   0.0000000   0.0000000   0.0000000   0.0000000
 NMagM=    0.0000000   0.0000000   0.0000000   0.0000000   0.0000000   0.0000000   2.7928460   2.7928460   2.7928460   2.7928460
 AtZNuc=   6.0000000   6.0000000   6.0000000   6.0000000   6.0000000   6.0000000   1.0000000   1.0000000   1.0000000   1.0000000

  Atom        11          12          13          14          15          16          17          18          19          20
 IAtWgt=          12           1           1          12           1          12          16           1          16          14
 AtmWgt=  12.0000000   1.0078250   1.0078250  12.0000000   1.0078250  12.0000000  15.9949146   1.0078250  15.9949146  14.0030740
 NucSpn=           0           1           1           0           1           0           0           1           0           2
 AtZEff=   0.0000000   0.0000000   0.0000000   0.0000000   0.0000000   0.0000000   0.0000000   0.0000000   0.0000000   0.0000000
 NQMom=    0.0000000   0.0000000   0.0000000   0.0000000   0.0000000   0.0000000   0.0000000   0.0000000   0.0000000   2.0440000
 NMagM=    0.0000000   2.7928460   2.7928460   0.0000000   2.7928460   0.0000000   0.0000000   2.7928460   0.0000000   0.4037610
 AtZNuc=   6.0000000   1.0000000   1.0000000   6.0000000   1.0000000   6.0000000   8.0000000   1.0000000   8.0000000   7.0000000

  Atom        21          22          23          24          25          26          27          28          29          30
 IAtWgt=           1          14           1          12          12           1           1           1          12           1
 AtmWgt=   1.0078250  14.0030740   1.0078250  12.0000000  12.0000000   1.0078250   1.0078250   1.0078250  12.0000000   1.0078250
 NucSpn=           1           2           1           0           0           1           1           1           0           1
 AtZEff=   0.0000000   0.0000000   0.0000000   0.0000000   0.0000000   0.0000000   0.0000000   0.0000000   0.0000000   0.0000000
 NQMom=    0.0000000   2.0440000   0.0000000   0.0000000   0.0000000   0.0000000   0.0000000   0.0000000   0.0000000   0.0000000
 NMagM=    2.7928460   0.4037610   2.7928460   0.0000000   0.0000000   2.7928460   2.7928460   2.7928460   0.0000000   2.7928460
 AtZNuc=   1.0000000   7.0000000   1.0000000   6.0000000   6.0000000   1.0000000   1.0000000   1.0000000   6.0000000   1.0000000

  Atom        31          32          33
 IAtWgt=           1           1          16
 AtmWgt=   1.0078250   1.0078250  15.9949146
 NucSpn=           1           1           0
 AtZEff=   0.0000000   0.0000000   0.0000000
 NQMom=    0.0000000   0.0000000   0.0000000
 NMagM=    2.7928460   2.7928460   0.0000000
 AtZNuc=   1.0000000   1.0000000   8.0000000
 Leave Link  101 at Tue Jun 24 16:36:28 2014, MaxMem=  4294967296 cpu:         1.8
 (Enter /home/ztw1e12/g09/l202.exe)
                          Input orientation:                          
 ---------------------------------------------------------------------
 Center     Atomic      Atomic             Coordinates (Angstroms)
 Number     Number       Type             X           Y           Z
 ---------------------------------------------------------------------
      1          6           0        2.623394    0.065652    1.111472
      2          6           0        1.862667    0.069827   -0.043813
      3          6           0        1.087635   -1.027043   -0.405914
      4          6           0        1.111561   -2.144768    0.420696
      5          6           0        1.868839   -2.167012    1.577944
      6          6           0        2.622576   -1.056517    1.927158
      7          1           0        3.225458    0.924285    1.386055
      8          1           0        1.868205    0.949165   -0.679793
      9          1           0        0.521175   -3.014286    0.154829
     10          1           0        1.886872   -3.040190    2.217693
     11          6           0        0.200964   -0.970566   -1.613880
     12          1           0        0.691385   -0.448792   -2.437646
     13          1           0        0.002129   -1.987521   -1.954854
     14          6           0       -1.164250   -0.295798   -1.369446
     15          1           0       -1.890171   -0.745747   -2.051698
     16          6           0       -1.677717   -0.631720    0.016503
     17          8           0        3.352965   -1.120193    3.075171
     18          1           0        3.825482   -0.289351    3.199374
     19          8           0       -2.142789   -1.751865    0.224596
     20          7           0       -1.094361    1.117160   -1.671991
     21          1           0       -0.189186    1.537107   -1.821381
     22          7           0       -1.561396    0.294660    0.967521
     23          1           0       -1.101646    1.161767    0.737680
     24          6           0       -2.201726    1.868018   -1.828856
     25          6           0       -1.989271    3.301499   -2.187145
     26          1           0       -2.510648    3.508689   -3.121490
     27          1           0       -2.442467    3.924533   -1.416333
     28          1           0       -0.939999    3.568835   -2.293436
     29          6           0       -1.854200   -0.008131    2.349855
     30          1           0       -1.176361   -0.772948    2.736181
     31          1           0       -1.741530    0.894833    2.942124
     32          1           0       -2.875863   -0.370826    2.457557
     33          8           0       -3.326883    1.394775   -1.685866
 ---------------------------------------------------------------------
                    Distance matrix (angstroms):
                    1          2          3          4          5
     1  C    0.000000
     2  C    1.383259   0.000000
     3  C    2.419710   1.391012   0.000000
     4  C    2.765640   2.384190   1.390383   0.000000
     5  C    2.402444   2.762894   2.417747   1.383180   0.000000
     6  C    1.387302   2.393917   2.792873   2.395179   1.386820
     7  H    1.084033   2.152166   3.404280   3.849619   3.381324
     8  H    2.135307   1.085236   2.142358   3.369868   3.848108
     9  H    3.849741   3.369097   2.141132   1.084114   2.135258
    10  H    3.378231   3.845413   3.402184   2.152228   1.082610
    11  C    3.790707   2.511729   1.499519   2.519412   3.794869
    12  H    4.073518   2.715014   2.149261   3.350075   4.523676
    13  H    4.526467   3.368436   2.121334   2.626557   3.999686
    14  C    4.542229   3.324637   2.556188   3.435493   4.624736
    15  H    5.571022   4.333654   3.413951   4.132842   5.415206
    16  C    4.492754   3.609726   2.825224   3.198868   4.168127
    17  O    2.407201   3.655844   4.154317   3.622138   2.353752
    18  H    2.435237   3.807875   4.586731   4.304531   3.159604
    19  O    5.177491   4.408433   3.370245   3.283843   4.254064
    20  N    4.761831   3.534386   3.310840   4.459328   5.488936
    21  H    4.321737   3.085897   3.195103   4.502783   5.432437
    22  N    4.193523   3.577367   3.263524   3.659853   4.266024
    23  H    3.900912   3.254261   3.300250   3.991483   4.539889
    24  C    5.930922   4.789484   4.607172   5.669286   6.667627
    25  C    6.529032   5.465803   5.601465   6.788064   7.678901
    26  H    7.492053   6.357968   6.394909   7.591380   8.571941
    27  H    6.851548   5.939423   6.164468   7.269264   8.041143
    28  H    6.046773   5.015855   5.366203   6.649862   7.468406
    29  C    4.646276   4.421631   4.157744   4.133111   4.372372
    30  H    4.216760   4.204085   3.881108   3.532414   3.543751
    31  H    4.805350   4.752546   4.786140   4.872053   4.926525
    32  H    5.678405   5.376309   4.933498   4.816142   5.149000
    33  O    6.708015   5.602076   5.195330   6.055225   7.094668
                    6          7          8          9         10
     6  C    0.000000
     7  H    2.140055   0.000000
     8  H    3.374615   2.471939   0.000000
     9  H    3.374892   4.933701   4.268492   0.000000
    10  H    2.135563   4.266204   4.930591   2.474107   0.000000
    11  C    4.290751   4.662364   2.708796   2.721701   4.669752
    12  H    4.811480   4.788273   2.535594   3.651254   5.460468
    13  H    4.775304   5.479976   3.705691   2.403002   4.697927
    14  C    5.078025   5.324559   3.349826   3.543198   5.450560
    15  H    6.024347   6.385672   4.345140   3.978646   6.144772
    16  C    4.724783   5.323340   3.944311   3.245132   4.832418
    17  O    1.362151   2.655044   4.537236   4.487206   2.563413
    18  H    1.911560   2.262977   4.518052   5.254804   3.505570
    19  O    5.107928   6.109733   4.919508   2.948776   4.676578
    20  N    5.611984   5.296195   3.128814   4.797507   6.426582
    21  H    5.355785   4.724721   2.425233   5.012504   6.447929
    22  N    4.500245   4.846191   3.860594   3.993331   4.957288
    23  H    4.495050   4.381851   3.297642   4.518040   5.364524
    24  C    6.777495   6.378135   4.327699   5.931786   7.561858
    25  C    7.562336   6.753688   4.762951   7.188624   8.639682
    26  H    8.525253   7.739510   5.629156   7.904139   9.525380
    27  H    7.851398   6.998588   5.289348   7.707070   8.969765
    28  H    7.204112   6.154944   4.165636   7.174017   8.486501
    29  C    4.617284   5.253688   4.894025   4.415599   4.817309
    30  H    3.894464   4.907082   4.889165   3.816884   3.846117
    31  H    4.887059   5.205112   5.113846   5.307547   5.401343
    32  H    5.566357   6.328629   5.838795   4.881629   5.465042
    33  O    7.379623   7.251981   5.310338   6.134780   7.879716
                   11         12         13         14         15
    11  C    0.000000
    12  H    1.091490   0.000000
    13  H    1.090869   1.753810   0.000000
    14  C    1.542358   2.146588   2.136602   0.000000
    15  H    2.148272   2.627084   2.265432   1.093107   0.000000
    16  C    2.510460   3.415985   2.923410   1.515700   2.082209
    17  O    5.651964   6.158404   6.105859   6.390577   7.342715
    18  H    6.063712   6.451665   6.638364   6.765470   7.775008
    19  O    3.079545   4.100985   3.066954   2.370367   2.501520
    20  N    2.457609   2.495460   3.304746   1.446675   2.061047
    21  H    2.546311   2.258093   3.532339   2.124744   2.856189
    22  N    3.371994   4.150049   4.024082   2.442904   3.210331
    23  H    3.431249   3.986421   4.287898   2.562888   3.470016
    24  C    3.725143   3.756105   4.442751   2.443259   2.641684
    25  C    4.834904   4.616638   5.656268   3.780190   4.050724
    26  H    5.448803   5.136372   6.154950   4.399610   4.430539
    27  H    5.566754   5.476320   6.420159   4.409901   4.745549
    28  H    4.729667   4.338610   5.645825   3.979879   4.424577
    29  C    4.567404   5.440069   5.088660   3.793677   4.463075
    30  H    4.567177   5.510176   4.986967   4.133279   4.840873
    31  H    5.292463   6.055273   5.943795   4.510043   5.258503
    32  H    5.138400   6.057586   5.510527   4.192994   4.630932
    33  O    4.248026   4.484461   4.753378   2.763176   2.603807
                   16         17         18         19         20
    16  C    0.000000
    17  O    5.907776   0.000000
    18  H    6.366560   0.963845   0.000000
    19  O    1.230577   6.223190   6.827043   0.000000
    20  N    2.499979   6.878954   7.064936   3.595490   0.000000
    21  H    3.208949   6.601841   6.682925   4.338194   1.008967
    22  N    1.332721   5.531269   5.860093   2.253491   2.803864
    23  H    2.017065   5.524017   5.695812   3.136317   2.410095
    24  C    3.150972   7.989586   8.140306   4.162174   1.347090
    25  C    4.519219   8.705333   8.701732   5.601477   2.416109
    26  H    5.261536   9.706035   9.722395   6.245402   3.134697
    27  H    4.837076   8.899994   8.851483   5.916414   3.124755
    28  H    4.850228   8.320965   8.232033   6.008081   2.533916
    29  C    2.421681   5.373763   5.749744   2.764167   4.244865
    30  H    2.769107   4.555248   5.046469   2.863620   4.797000
    31  H    3.300560   5.480138   5.697376   3.814574   4.664581
    32  H    2.731733   6.304070   6.742771   2.725946   4.737195
    33  O    3.118412   8.579796   8.823728   3.866948   2.249759
                   21         22         23         24         25
    21  H    0.000000
    22  N    3.347329   0.000000
    23  H    2.742673   1.008004   0.000000
    24  C    2.039577   3.271881   2.880291   0.000000
    25  C    2.546992   4.379050   3.731077   1.492775   0.000000
    26  H    3.311586   5.286877   4.731440   2.111430   1.089845
    27  H    3.307740   4.431143   3.751060   2.111252   1.089821
    28  H    2.216861   4.662638   3.873986   2.168079   1.087997
    29  C    4.749657   1.445083   2.129344   4.593728   5.617496
    30  H    5.204060   2.101475   2.782573   5.372675   6.442133
    31  H    5.051066   2.071645   2.310904   4.890922   5.671227
    32  H    5.400718   2.095448   2.907691   4.882645   5.987092
    33  O    3.143846   3.371596   3.298416   1.228977   2.382453
                   26         27         28         29         30
    26  H    0.000000
    27  H    1.756455   0.000000
    28  H    1.776578   1.775737   0.000000
    29  C    6.537168   5.476867   5.932167   0.000000
    30  H    7.377333   6.396306   6.648608   1.092547   0.000000
    31  H    6.647646   5.354115   5.933281   1.085735   1.772942
    32  H    6.805129   5.800428   6.468418   1.089469   1.768514
    33  O    2.682515   2.693421   3.285254   4.519290   5.373850
                   31         32         33
    31  H    0.000000
    32  H    1.767317   0.000000
    33  O    4.917477   4.526447   0.000000
 Stoichiometry    C12H16N2O3
 Framework group  C1[X(C12H16N2O3)]
 Deg. of freedom    93
 Full point group                 C1      NOp   1
 Largest Abelian subgroup         C1      NOp   1
 Largest concise Abelian subgroup C1      NOp   1
                         Standard orientation:                         
 ---------------------------------------------------------------------
 Center     Atomic      Atomic             Coordinates (Angstroms)
 Number     Number       Type             X           Y           Z
 ---------------------------------------------------------------------
      1          6           0        2.523861   -1.487248   -0.666602
      2          6           0        1.354988   -1.549196    0.070490
      3          6           0        1.075462   -0.619364    1.066578
      4          6           0        2.017620    0.371909    1.317339
      5          6           0        3.192878    0.446784    0.591839
      6          6           0        3.444150   -0.482190   -0.406730
      7          1           0        2.734593   -2.216407   -1.440583
      8          1           0        0.639104   -2.338508   -0.135017
      9          1           0        1.824742    1.103236    2.094039
     10          1           0        3.925232    1.218613    0.791795
     11          6           0       -0.235724   -0.649426    1.793520
     12          1           0       -0.543358   -1.674580    2.007463
     13          1           0       -0.119664   -0.145114    2.753830
     14          6           0       -1.391978    0.048098    1.048264
     15          1           0       -2.086931    0.440577    1.795180
     16          6           0       -0.883182    1.272424    0.313757
     17          8           0        4.612945   -0.371594   -1.097485
     18          1           0        4.661636   -1.072927   -1.756847
     19          8           0       -0.624230    2.288841    0.957310
     20          7           0       -2.115751   -0.901004    0.230813
     21          1           0       -1.719211   -1.817246    0.084964
     22          7           0       -0.695810    1.178573   -1.002384
     23          1           0       -0.860252    0.289120   -1.447247
     24          6           0       -3.330719   -0.621349   -0.279380
     25          6           0       -3.989332   -1.706720   -1.064602
     26          1           0       -4.954944   -1.929084   -0.610829
     27          1           0       -4.180129   -1.340887   -2.073301
     28          1           0       -3.398786   -2.618844   -1.119586
     29          6           0       -0.042835    2.232728   -1.744440
     30          1           0        0.987698    2.369087   -1.408186
     31          1           0       -0.038536    1.973827   -2.798846
     32          1           0       -0.571121    3.177282   -1.619245
     33          8           0       -3.867502    0.470273   -0.104423
 ---------------------------------------------------------------------
 Rotational constants (GHZ):      0.8307385      0.2813759      0.2638963
 Leave Link  202 at Tue Jun 24 16:36:28 2014, MaxMem=  4294967296 cpu:         1.9
 (Enter /home/ztw1e12/g09/l301.exe)
 Standard basis: CC-pVTZ (5D, 7F)
 Converting basis for Fermi contact spin-spin IFCMod=1.
 AO basis functions are being uncontracted.
 Ernie: Thresh=  0.10000D-02 Tol=  0.10000D-05 Strict=F.
 There are  1305 symmetry adapted cartesian basis functions of A   symmetry.
 There are  1204 symmetry adapted basis functions of A   symmetry.
  1204 basis functions,  1305 primitive gaussians,  1305 cartesian basis functions
    63 alpha electrons       63 beta electrons
       nuclear repulsion energy      1243.4015972302 Hartrees.
 IExCor= 4235 DFT=T Ex+Corr=M06 ExCW=0 ScaHFX=  0.270000
 ScaDFX=  1.000000  1.000000  1.000000  1.000000 ScalE2=  1.000000  1.000000
 IRadAn= 199590 IRanWt=     -1 IRanGd=            0 ICorTp=0 IEmpDi=  4
 NAtoms=   33 NActive=   33 NUniq=   33 SFac= 1.00D+00 NAtFMM=   60 NAOKFM=F Big=F
 Integral buffers will be    131072 words long.
 Raffenetti 2 integral format.
 Two-electron integral symmetry is turned on.
 Leave Link  301 at Tue Jun 24 16:36:29 2014, MaxMem=  4294967296 cpu:         4.8
 (Enter /home/ztw1e12/g09/l302.exe)
 NPDir=0 NMtPBC=     1 NCelOv=     1 NCel=       1 NClECP=     1 NCelD=      1
         NCelK=      1 NCelE2=     1 NClLst=     1 CellRange=     0.0.
 One-electron integrals computed using PRISM.
 GSVD:  received Info=                   1 from GESDD.
 NBasis=  1204 RedAO= T EigKep=  2.41D-05  NBF=  1204
 NBsUse=  1068 1.00D-06 EigRej=  6.84D-15 NBFU=  1068
 Precomputing XC quadrature grid using
 IXCGrd= 4 IRadAn=      199590 IRanWt=          -1 IRanGd=           0 AccXCQ= 0.00D+00.
 Generated NRdTot=       0 NPtTot=           0 NUsed=           0 NTot=          32
 NSgBfM=  1010  1010  1010  1012  1014 MxSgAt=    33 MxSgA2=    33.
 Leave Link  302 at Tue Jun 24 16:36:35 2014, MaxMem=  4294967296 cpu:        92.6
 (Enter /home/ztw1e12/g09/l308.exe)
 Leave Link  308 at Tue Jun 24 16:36:35 2014, MaxMem=  4294967296 cpu:         7.4
 (Enter /home/ztw1e12/g09/l303.exe)
 DipDrv:  MaxL=1.
 Leave Link  303 at Tue Jun 24 16:36:36 2014, MaxMem=  4294967296 cpu:         4.7
 (Enter /home/ztw1e12/g09/l401.exe)
 ExpMin= 1.03D-01 ExpMax= 1.38D+05 ExpMxC= 1.38D+05 IAcc=4 IRadAn=    199590 AccDes= 0.00D+00
 Harris functional with IExCor= 1009 and IRadAn=  199590 diagonalized for initial guess.
 HarFok:  IExCor= 1009 AccDes= 0.00D+00 IRadAn=    199590 IDoV= 1 UseB2=F ITyADJ=14
 ICtDFT=  3500011 ScaDFX=  1.000000  1.000000  1.000000  1.000000
 FoFCou: FMM=F IPFlag=           0 FMFlag=      100000 FMFlg1=           0
         NFxFlg=           0 DoJE=T BraDBF=F KetDBF=T FulRan=T
         wScrn=  0.000000 ICntrl=     500 IOpCl=  0 I1Cent=   200000004 NGrid=           0
         NMat0=    1 NMatS0=      1 NMatT0=    0 NMatD0=    1 NMtDS0=    0 NMtDT0=    0
 Petite list used in FoFCou.
 Harris En= -801.779184986005    
 JPrj=0 DoOrth=F DoCkMO=F.
 Leave Link  401 at Tue Jun 24 16:36:58 2014, MaxMem=  4294967296 cpu:       338.3
 (Enter /home/ztw1e12/g09/l502.exe)
 Closed shell SCF:
 Using DIIS extrapolation, IDIIS=  1040.
 Integral symmetry usage will be decided dynamically.
 IVT=     5158273 IEndB=     5158273 NGot=  4294967296 MDV=  4291529994
 LenX=  4291529994 LenY=  4289825664
 Requested convergence on RMS density matrix=1.00D-08 within 128 cycles.
 Requested convergence on MAX density matrix=1.00D-06.
 Requested convergence on             energy=1.00D-06.
 No special actions if energy rises.
 Fock matrices will be formed incrementally for  20 cycles.
 Integral accuracy reduced to 1.0D-05 until final iterations.

 Cycle   1  Pass 0  IDiag  1:
 FoFJK:  IHMeth= 1 ICntrl=       0 DoSepK=F KAlg= 0 I1Cent=   0 FoldK=F
 IRaf= 450000000 NMat=   1 IRICut=       1 DoRegI=T DoRafI=F ISym2E= 0.
 FoFCou: FMM=F IPFlag=           0 FMFlag=      100000 FMFlg1=           0
         NFxFlg=           0 DoJE=F BraDBF=F KetDBF=F FulRan=T
         wScrn=  0.000000 ICntrl=       0 IOpCl=  0 I1Cent=           0 NGrid=           0
         NMat0=    1 NMatS0=      1 NMatT0=    0 NMatD0=    1 NMtDS0=    0 NMtDT0=    0
 Symmetry not used in FoFCou.
 E= -801.457761513986    
 DIIS: error= 1.13D-01 at cycle   1 NSaved=   1.
 NSaved= 1 IEnMin= 1 EnMin= -801.457761513986     IErMin= 1 ErrMin= 1.13D-01
 ErrMax= 1.13D-01  0.00D+00 EMaxC= 1.00D-01 BMatC= 1.69D+01 BMatP= 1.69D+01
 IDIUse=3 WtCom= 0.00D+00 WtEn= 1.00D+00
 Coeff-Com:  0.100D+01
 Coeff-En:   0.100D+01
 Coeff:      0.100D+01
 Gap=     0.241 Goal=   None    Shift=    0.000
 GapD=    0.241 DampG=1.000 DampE=0.250 DampFc=0.2500 IDamp=-1.
 Damping current iteration by 2.50D-01
 RMSDP=2.33D-03 MaxDP=4.76D-01              OVMax= 3.11D-01

 Cycle   2  Pass 0  IDiag  1:
 RMSU=  5.79D-04    CP:  1.03D+00
 E= -801.616457398837     Delta-E=       -0.158695884851 Rises=F Damp=T
 DIIS: error= 8.62D-02 at cycle   2 NSaved=   2.
 NSaved= 2 IEnMin= 2 EnMin= -801.616457398837     IErMin= 2 ErrMin= 8.62D-02
 ErrMax= 8.62D-02  0.00D+00 EMaxC= 1.00D-01 BMatC= 1.00D+01 BMatP= 1.69D+01
 IDIUse=3 WtCom= 1.38D-01 WtEn= 8.62D-01
 Coeff-Com: -0.291D+01 0.391D+01
 Coeff-En:   0.000D+00 0.100D+01
 Coeff:     -0.401D+00 0.140D+01
 Gap=     0.274 Goal=   None    Shift=    0.000
 RMSDP=6.20D-04 MaxDP=8.91D-02 DE=-1.59D-01 OVMax= 1.93D-01

 Cycle   3  Pass 0  IDiag  1:
 RMSU=  5.80D-04    CP:  1.06D+00  1.36D+00
 E= -801.874176696841     Delta-E=       -0.257719298003 Rises=F Damp=F
 DIIS: error= 1.03D-02 at cycle   3 NSaved=   3.
 NSaved= 3 IEnMin= 3 EnMin= -801.874176696841     IErMin= 3 ErrMin= 1.03D-02
 ErrMax= 1.03D-02  0.00D+00 EMaxC= 1.00D-01 BMatC= 1.60D-01 BMatP= 1.00D+01
 IDIUse=3 WtCom= 8.97D-01 WtEn= 1.03D-01
 Coeff-Com: -0.267D-01-0.206D-01 0.105D+01
 Coeff-En:   0.000D+00 0.000D+00 0.100D+01
 Coeff:     -0.239D-01-0.185D-01 0.104D+01
 Gap=     0.228 Goal=   None    Shift=    0.000
 RMSDP=4.26D-04 MaxDP=4.33D-02 DE=-2.58D-01 OVMax= 1.16D-01

 Cycle   4  Pass 0  IDiag  1:
 RMSU=  4.01D-04    CP:  1.06D+00  1.36D+00  7.51D-01
 E= -801.793814058639     Delta-E=        0.080362638201 Rises=F Damp=F
 DIIS: error= 9.39D-03 at cycle   4 NSaved=   4.
 NSaved= 4 IEnMin= 3 EnMin= -801.874176696841     IErMin= 4 ErrMin= 9.39D-03
 ErrMax= 9.39D-03  0.00D+00 EMaxC= 1.00D-01 BMatC= 1.56D-01 BMatP= 1.60D-01
 IDIUse=3 WtCom= 9.06D-01 WtEn= 9.39D-02
 Coeff-Com:  0.206D+00-0.306D+00 0.595D+00 0.505D+00
 Coeff-En:   0.000D+00 0.000D+00 0.718D+00 0.282D+00
 Coeff:      0.187D+00-0.277D+00 0.606D+00 0.484D+00
 Gap=     0.251 Goal=   None    Shift=    0.000
 RMSDP=3.31D-04 MaxDP=4.95D-02 DE= 8.04D-02 OVMax= 8.41D-02

 Cycle   5  Pass 0  IDiag  1:
 RMSU=  8.65D-05    CP:  1.06D+00  1.28D+00  8.67D-01  2.28D-01
 E= -801.910412282400     Delta-E=       -0.116598223761 Rises=F Damp=F
 DIIS: error= 1.78D-03 at cycle   5 NSaved=   5.
 NSaved= 5 IEnMin= 5 EnMin= -801.910412282400     IErMin= 5 ErrMin= 1.78D-03
 ErrMax= 1.78D-03  0.00D+00 EMaxC= 1.00D-01 BMatC= 7.39D-03 BMatP= 1.56D-01
 IDIUse=3 WtCom= 9.82D-01 WtEn= 1.78D-02
 Coeff-Com:  0.418D-01-0.578D-01 0.231D-01 0.177D+00 0.816D+00
 Coeff-En:   0.000D+00 0.000D+00 0.000D+00 0.000D+00 0.100D+01
 Coeff:      0.411D-01-0.568D-01 0.227D-01 0.174D+00 0.819D+00
 Gap=     0.224 Goal=   None    Shift=    0.000
 RMSDP=9.21D-05 MaxDP=1.34D-02 DE=-1.17D-01 OVMax= 2.65D-02

 Cycle   6  Pass 0  IDiag  1:
 RMSU=  3.65D-05    CP:  1.06D+00  1.31D+00  9.06D-01  3.76D-01  3.86D-01
 E= -801.913850841274     Delta-E=       -0.003438558874 Rises=F Damp=F
 DIIS: error= 1.15D-03 at cycle   6 NSaved=   6.
 NSaved= 6 IEnMin= 6 EnMin= -801.913850841274     IErMin= 6 ErrMin= 1.15D-03
 ErrMax= 1.15D-03  0.00D+00 EMaxC= 1.00D-01 BMatC= 1.89D-03 BMatP= 7.39D-03
 IDIUse=3 WtCom= 9.88D-01 WtEn= 1.15D-02
 Coeff-Com:  0.202D-01-0.268D-01-0.894D-02 0.795D-01 0.461D+00 0.475D+00
 Coeff-En:   0.000D+00 0.000D+00 0.000D+00 0.000D+00 0.238D+00 0.762D+00
 Coeff:      0.199D-01-0.265D-01-0.883D-02 0.786D-01 0.458D+00 0.479D+00
 Gap=     0.225 Goal=   None    Shift=    0.000
 RMSDP=4.08D-05 MaxDP=6.78D-03 DE=-3.44D-03 OVMax= 1.88D-02

 Cycle   7  Pass 0  IDiag  1:
 RMSU=  1.50D-05    CP:  1.06D+00  1.29D+00  8.87D-01  3.79D-01  5.95D-01
                    CP:  2.15D-01
 E= -801.915457540840     Delta-E=       -0.001606699566 Rises=F Damp=F
 DIIS: error= 4.45D-04 at cycle   7 NSaved=   7.
 NSaved= 7 IEnMin= 7 EnMin= -801.915457540840     IErMin= 7 ErrMin= 4.45D-04
 ErrMax= 4.45D-04  0.00D+00 EMaxC= 1.00D-01 BMatC= 1.73D-04 BMatP= 1.89D-03
 IDIUse=3 WtCom= 9.96D-01 WtEn= 4.45D-03
 Coeff-Com:  0.945D-02-0.124D-01-0.408D-02 0.197D-01 0.121D+00 0.255D+00
 Coeff-Com:  0.612D+00
 Coeff-En:   0.000D+00 0.000D+00 0.000D+00 0.000D+00 0.000D+00 0.666D-01
 Coeff-En:   0.933D+00
 Coeff:      0.941D-02-0.124D-01-0.406D-02 0.196D-01 0.120D+00 0.254D+00
 Coeff:      0.613D+00
 Gap=     0.224 Goal=   None    Shift=    0.000
 RMSDP=1.33D-05 MaxDP=2.31D-03 DE=-1.61D-03 OVMax= 6.00D-03

 Cycle   8  Pass 0  IDiag  1:
 RMSU=  8.25D-06    CP:  1.06D+00  1.29D+00  8.92D-01  3.85D-01  5.55D-01
                    CP:  4.17D-01  6.71D-01
 E= -801.915607920858     Delta-E=       -0.000150380018 Rises=F Damp=F
 DIIS: error= 1.16D-04 at cycle   8 NSaved=   8.
 NSaved= 8 IEnMin= 8 EnMin= -801.915607920858     IErMin= 8 ErrMin= 1.16D-04
 ErrMax= 1.16D-04  0.00D+00 EMaxC= 1.00D-01 BMatC= 2.20D-05 BMatP= 1.73D-04
 IDIUse=3 WtCom= 9.99D-01 WtEn= 1.16D-03
 Coeff-Com:  0.492D-02-0.652D-02-0.108D-02 0.656D-02 0.386D-01 0.114D+00
 Coeff-Com:  0.359D+00 0.484D+00
 Coeff-En:   0.000D+00 0.000D+00 0.000D+00 0.000D+00 0.000D+00 0.000D+00
 Coeff-En:   0.509D-01 0.949D+00
 Coeff:      0.491D-02-0.651D-02-0.108D-02 0.656D-02 0.386D-01 0.114D+00
 Coeff:      0.359D+00 0.485D+00
 Gap=     0.224 Goal=   None    Shift=    0.000
 RMSDP=4.14D-06 MaxDP=6.25D-04 DE=-1.50D-04 OVMax= 1.12D-03

 Initial convergence to 1.0D-05 achieved.  Increase integral accuracy.
 Cycle   9  Pass 1  IDiag  1:
 E= -801.915616382398     Delta-E=       -0.000008461541 Rises=F Damp=F
 DIIS: error= 1.42D-04 at cycle   1 NSaved=   1.
 NSaved= 1 IEnMin= 1 EnMin= -801.915616382398     IErMin= 1 ErrMin= 1.42D-04
 ErrMax= 1.42D-04  0.00D+00 EMaxC= 1.00D-01 BMatC= 1.97D-05 BMatP= 1.97D-05
 IDIUse=3 WtCom= 9.99D-01 WtEn= 1.42D-03
 Coeff-Com:  0.100D+01
 Coeff-En:   0.100D+01
 Coeff:      0.100D+01
 Gap=     0.224 Goal=   None    Shift=    0.000
 RMSDP=4.14D-06 MaxDP=6.25D-04 DE=-8.46D-06 OVMax= 9.10D-04

 Cycle  10  Pass 1  IDiag  1:
 RMSU=  1.05D-04    CP:  9.98D-01
 E= -801.915628068896     Delta-E=       -0.000011686497 Rises=F Damp=F
 DIIS: error= 3.38D-05 at cycle   2 NSaved=   2.
 NSaved= 2 IEnMin= 2 EnMin= -801.915628068896     IErMin= 2 ErrMin= 3.38D-05
 ErrMax= 3.38D-05  0.00D+00 EMaxC= 1.00D-01 BMatC= 1.73D-06 BMatP= 1.97D-05
 IDIUse=1 WtCom= 1.00D+00 WtEn= 0.00D+00
 Coeff-Com:  0.113D+00 0.887D+00
 Coeff:      0.113D+00 0.887D+00
 Gap=     0.224 Goal=   None    Shift=    0.000
 RMSDP=2.63D-06 MaxDP=2.27D-04 DE=-1.17D-05 OVMax= 6.24D-04

 Cycle  11  Pass 1  IDiag  1:
 RMSU=  2.15D-06    CP:  9.98D-01  1.01D+00
 E= -801.915626599578     Delta-E=        0.000001469318 Rises=F Damp=F
 DIIS: error= 6.08D-05 at cycle   3 NSaved=   3.
 NSaved= 3 IEnMin= 2 EnMin= -801.915628068896     IErMin= 2 ErrMin= 3.38D-05
 ErrMax= 6.08D-05  0.00D+00 EMaxC= 1.00D-01 BMatC= 3.70D-06 BMatP= 1.73D-06
 IDIUse=1 WtCom= 1.00D+00 WtEn= 0.00D+00
 Coeff-Com: -0.100D-03 0.596D+00 0.405D+00
 Coeff:     -0.100D-03 0.596D+00 0.405D+00
 Gap=     0.224 Goal=   None    Shift=    0.000
 RMSDP=1.30D-06 MaxDP=1.42D-04 DE= 1.47D-06 OVMax= 4.39D-04

 Cycle  12  Pass 1  IDiag  1:
 RMSU=  5.21D-07    CP:  9.98D-01  1.02D+00  4.59D-01
 E= -801.915629286505     Delta-E=       -0.000002686927 Rises=F Damp=F
 DIIS: error= 8.79D-06 at cycle   4 NSaved=   4.
 NSaved= 4 IEnMin= 4 EnMin= -801.915629286505     IErMin= 4 ErrMin= 8.79D-06
 ErrMax= 8.79D-06  0.00D+00 EMaxC= 1.00D-01 BMatC= 6.24D-08 BMatP= 1.73D-06
 IDIUse=1 WtCom= 1.00D+00 WtEn= 0.00D+00
 Coeff-Com: -0.272D-02 0.330D+00 0.238D+00 0.434D+00
 Coeff:     -0.272D-02 0.330D+00 0.238D+00 0.434D+00
 Gap=     0.224 Goal=   None    Shift=    0.000
 RMSDP=1.90D-07 MaxDP=2.47D-05 DE=-2.69D-06 OVMax= 5.88D-05

 Cycle  13  Pass 1  IDiag  1:
 RMSU=  1.71D-07    CP:  9.98D-01  1.02D+00  4.76D-01  8.75D-01
 E= -801.915629329480     Delta-E=       -0.000000042975 Rises=F Damp=F
 DIIS: error= 1.38D-06 at cycle   5 NSaved=   5.
 NSaved= 5 IEnMin= 5 EnMin= -801.915629329480     IErMin= 5 ErrMin= 1.38D-06
 ErrMax= 1.38D-06  0.00D+00 EMaxC= 1.00D-01 BMatC= 2.52D-09 BMatP= 6.24D-08
 IDIUse=1 WtCom= 1.00D+00 WtEn= 0.00D+00
 Coeff-Com: -0.128D-02 0.109D+00 0.812D-01 0.217D+00 0.593D+00
 Coeff:     -0.128D-02 0.109D+00 0.812D-01 0.217D+00 0.593D+00
 Gap=     0.224 Goal=   None    Shift=    0.000
 RMSDP=5.54D-08 MaxDP=7.00D-06 DE=-4.30D-08 OVMax= 1.06D-05

 Cycle  14  Pass 1  IDiag  1:
 RMSU=  4.47D-08    CP:  9.98D-01  1.02D+00  4.79D-01  9.33D-01  9.64D-01
 E= -801.915629331074     Delta-E=       -0.000000001594 Rises=F Damp=F
 DIIS: error= 3.60D-07 at cycle   6 NSaved=   6.
 NSaved= 6 IEnMin= 6 EnMin= -801.915629331074     IErMin= 6 ErrMin= 3.60D-07
 ErrMax= 3.60D-07  0.00D+00 EMaxC= 1.00D-01 BMatC= 1.94D-10 BMatP= 2.52D-09
 IDIUse=1 WtCom= 1.00D+00 WtEn= 0.00D+00
 Coeff-Com: -0.380D-03 0.242D-01 0.185D-01 0.635D-01 0.268D+00 0.626D+00
 Coeff:     -0.380D-03 0.242D-01 0.185D-01 0.635D-01 0.268D+00 0.626D+00
 Gap=     0.224 Goal=   None    Shift=    0.000
 RMSDP=2.74D-08 MaxDP=4.20D-06 DE=-1.59D-09 OVMax= 6.26D-06

 Cycle  15  Pass 1  IDiag  1:
 RMSU=  1.80D-08    CP:  9.98D-01  1.02D+00  4.79D-01  9.62D-01  1.03D+00
                    CP:  9.23D-01
 E= -801.915629331184     Delta-E=       -0.000000000110 Rises=F Damp=F
 DIIS: error= 2.18D-07 at cycle   7 NSaved=   7.
 NSaved= 7 IEnMin= 7 EnMin= -801.915629331184     IErMin= 7 ErrMin= 2.18D-07
 ErrMax= 2.18D-07  0.00D+00 EMaxC= 1.00D-01 BMatC= 7.85D-11 BMatP= 1.94D-10
 IDIUse=1 WtCom= 1.00D+00 WtEn= 0.00D+00
 Coeff-Com:  0.843D-05-0.612D-02-0.420D-02-0.231D-02 0.560D-01 0.413D+00
 Coeff-Com:  0.543D+00
 Coeff:      0.843D-05-0.612D-02-0.420D-02-0.231D-02 0.560D-01 0.413D+00
 Coeff:      0.543D+00
 Gap=     0.224 Goal=   None    Shift=    0.000
 RMSDP=1.35D-08 MaxDP=1.79D-06 DE=-1.10D-10 OVMax= 2.79D-06

 Cycle  16  Pass 1  IDiag  1:
 RMSU=  8.35D-09    CP:  9.98D-01  1.02D+00  4.81D-01  9.75D-01  1.05D+00
                    CP:  1.06D+00  9.21D-01
 E= -801.915629331234     Delta-E=       -0.000000000050 Rises=F Damp=F
 DIIS: error= 5.97D-08 at cycle   8 NSaved=   8.
 NSaved= 8 IEnMin= 8 EnMin= -801.915629331234     IErMin= 8 ErrMin= 5.97D-08
 ErrMax= 5.97D-08  0.00D+00 EMaxC= 1.00D-01 BMatC= 6.34D-12 BMatP= 7.85D-11
 IDIUse=1 WtCom= 1.00D+00 WtEn= 0.00D+00
 Coeff-Com:  0.500D-04-0.626D-02-0.451D-02-0.930D-02-0.320D-02 0.141D+00
 Coeff-Com:  0.290D+00 0.592D+00
 Coeff:      0.500D-04-0.626D-02-0.451D-02-0.930D-02-0.320D-02 0.141D+00
 Coeff:      0.290D+00 0.592D+00
 Gap=     0.224 Goal=   None    Shift=    0.000
 RMSDP=4.77D-09 MaxDP=6.95D-07 DE=-5.02D-11 OVMax= 6.70D-07

 SCF Done:  E(RM06) =  -801.915629331     A.U. after   16 cycles
            NFock= 16  Conv=0.48D-08     -V/T= 2.0044
 KE= 7.983634698849D+02 PE=-4.359229674212D+03 EE= 1.515548977766D+03
 Leave Link  502 at Tue Jun 24 17:17:46 2014, MaxMem=  4294967296 cpu:     39061.1
 (Enter /home/ztw1e12/g09/l801.exe)
 DoSCS=F DFT=T ScalE2(SS,OS)=  1.000000  1.000000
 Range of M.O.s used for correlation:     1  1068
 NBasis=  1204 NAE=    63 NBE=    63 NFC=     0 NFV=     0
 NROrb=   1068 NOA=    63 NOB=    63 NVA=  1005 NVB=  1005

 **** Warning!!: The largest alpha MO coefficient is  0.29628124D+02

 Leave Link  801 at Tue Jun 24 17:17:46 2014, MaxMem=  4294967296 cpu:         0.4
 (Enter /home/ztw1e12/g09/l1002.exe)
 Minotr:  Closed shell wavefunction.
          IDoAtm=111111111111111111111111111111111
          Direct CPHF calculation.
          Differentiating once with respect to Fermi-contact.
          Electric field/nuclear overlap derivatives assumed to be zero.
          Requested convergence is 1.0D-10 RMS, and 1.0D-09 maximum.
          Secondary convergence is 1.0D-12 RMS, and 1.0D-12 maximum.
          NewPWx=T KeepS1=F KeepF1=F KeepIn=T MapXYZ=F SortEE=F KeepMc=T.
          MDV=    4294965894 using IRadAn=  199590.
 Using stored XC quadrature information.
          Solving linear equations simultaneously, MaxMat=       0.
          There are    33 degrees of freedom in the 1st order CPHF.  IDoFFX=0 NUNeed=    33.
     33 vectors produced by pass  0 Test12= 1.92D-17 3.03D-11 XBig12= 4.29D+01 2.58D+00.
 AX will form    33 AO Fock derivatives at one time.
 FoFJK:  IHMeth= 1 ICntrl=       0 DoSepK=F KAlg= 0 I1Cent=   0 FoldK=F
 IRaf= 470000000 NMat=  33 IRICut=       1 DoRegI=T DoRafI=F ISym2E=-1.
 FoFCou: FMM=F IPFlag=           0 FMFlag=      100000 FMFlg1=           0
         NFxFlg=           0 DoJE=F BraDBF=F KetDBF=F FulRan=T
         wScrn=  0.000000 ICntrl=       0 IOpCl=  0 I1Cent=           0 NGrid=           0
         NMat0=   33 NMatS0=      0 NMatT0=   33 NMatD0=   33 NMtDS0=    0 NMtDT0=    0
 Petite list used in FoFCou.
     33 vectors produced by pass  1 Test12= 1.92D-17 3.03D-11 XBig12= 3.46D-01 1.89D-01.
     33 vectors produced by pass  2 Test12= 1.92D-17 3.03D-11 XBig12= 1.58D-02 4.41D-02.
     33 vectors produced by pass  3 Test12= 1.92D-17 3.03D-11 XBig12= 3.59D-04 5.89D-03.
     33 vectors produced by pass  4 Test12= 1.92D-17 3.03D-11 XBig12= 7.39D-06 1.18D-03.
     33 vectors produced by pass  5 Test12= 1.92D-17 3.03D-11 XBig12= 1.62D-07 1.82D-04.
     33 vectors produced by pass  6 Test12= 1.92D-17 3.03D-11 XBig12= 5.62D-09 1.90D-05.
     33 vectors produced by pass  7 Test12= 1.92D-17 3.03D-11 XBig12= 1.47D-10 4.46D-06.
     33 vectors produced by pass  8 Test12= 1.92D-17 3.03D-11 XBig12= 5.75D-12 4.05D-07.
     33 vectors produced by pass  9 Test12= 1.92D-17 3.03D-11 XBig12= 8.32D-14 1.14D-07.
     33 vectors produced by pass 10 Test12= 1.92D-17 3.03D-11 XBig12= 4.00D-15 1.40D-08.
     33 vectors produced by pass 11 Test12= 1.92D-17 3.03D-11 XBig12= 4.12D-17 7.91D-10.
      8 vectors produced by pass 12 Test12= 1.92D-17 3.03D-11 XBig12= 3.61D-19 8.09D-11.
 InvSVY:  IOpt=1 It=  1 EMax= 1.07D-14
 Solved reduced A of dimension   404 with    33 vectors.
 Max diff in FC couplings:  IJMax=    22    16 Diff= 9.97D-04 IJMaxR=    25    22 DiffR= 9.09D-01
 Fermi Contact (FC) contribution to K (Hz):
                1             2             3             4             5 
      1  0.123400D+11
      2  0.348862D+02  0.123400D+11
      3 -0.127269D+01  0.330915D+02  0.123400D+11
      4  0.295625D+01  0.328827D+00  0.337607D+02  0.123400D+11
      5  0.161269D+01  0.307837D+01 -0.132516D+01  0.341939D+02  0.123400D+11
      6  0.359524D+02 -0.163621D+00  0.430466D+01  0.996862D-01  0.386128D+02
      7  0.215753D+02 -0.324011D+00  0.925696D+00 -0.191785D+00  0.599151D+00
      8 -0.214334D+00  0.212445D+02 -0.171559D+00  0.963054D+00 -0.292168D+00
      9 -0.292235D+00  0.106971D+01 -0.220565D+00  0.233489D+02 -0.173749D+00
     10  0.680620D+00 -0.230369D+00  0.105991D+01 -0.218309D+00  0.231984D+02
     11  0.190319D+01  0.140379D+01  0.236715D+02  0.151195D+01  0.198177D+01
     12 -0.629244D-01  0.703059D+00 -0.875644D+00  0.715508D+00  0.966502D-02
     13  0.107036D+00  0.101859D+01 -0.103557D+01  0.776817D+00 -0.159127D-01
     14 -0.536477D+00  0.752460D+00 -0.123896D+01  0.753205D+00 -0.554438D+00
     15  0.172768D-01 -0.140715D-02  0.891161D+00 -0.167783D-01  0.109544D-01
     16  0.108950D-01 -0.376716D-01  0.124077D+01 -0.258121D-01  0.290311D-01
     17 -0.766366D+00 -0.134968D+00  0.263469D+00  0.294968D+01  0.115308D+02
     18  0.427188D+00 -0.959407D-02 -0.466684D-01  0.202007D+00  0.113865D+01
     19  0.114976D+00 -0.706549D-01  0.181233D+00  0.813278D+00  0.167412D+00
     20  0.981735D-01  0.264836D+00 -0.694627D-01  0.669746D-01  0.798828D-01
     21  0.322055D-03  0.316398D-02  0.276496D-02  0.421356D-02 -0.178213D-02
     22 -0.518957D-01  0.233231D+00  0.142470D+00  0.868037D-01 -0.199837D-01
     23  0.176860D-02  0.697033D-02  0.429311D-02 -0.281008D-03 -0.893694D-03
     24  0.470570D-02  0.367861D-01 -0.512111D-01  0.271192D-01 -0.626380D-02
     25  0.381650D-03 -0.906546D-02 -0.160002D-02  0.145553D-02  0.127299D-02
     26 -0.411053D-04  0.872768D-03 -0.164823D-02  0.727759D-03 -0.651345D-04
     27  0.268602D-03  0.474993D-03 -0.482186D-03 -0.335390D-03 -0.150584D-03
     28 -0.142800D-03 -0.591968D-03  0.341801D-03  0.238096D-03 -0.777390D-04
     29  0.856020D-02 -0.189711D-01  0.391435D-01  0.715048D-01  0.876181D-01
     30  0.181893D-02  0.921920D-03  0.592643D-02  0.212317D-01  0.145631D-01
     31  0.669285D-03  0.100274D-03  0.115848D-02  0.958763D-03  0.199812D-03
     32  0.700236D-03  0.464890D-02  0.296068D-02  0.242287D-02  0.268726D-02
     33 -0.666067D-02  0.409779D-01  0.422351D-01  0.184517D-01 -0.566607D-02
                6             7             8             9            10 
      6  0.123400D+11
      7 -0.552861D+00  0.123400D+11
      8  0.114172D+01  0.325033D+00  0.123400D+11
      9  0.125624D+01  0.380342D-01  0.378509D-01  0.123400D+11
     10 -0.686215D+00  0.641679D-01  0.424098D-01  0.357014D+00  0.123400D+11
     11 -0.460108D+00  0.186004D-01  0.649700D+00  0.655816D+00  0.197382D-01
     12  0.827679D-01  0.699157D-02 -0.388666D-01 -0.214364D-01  0.133216D-01
     13  0.390362D-01  0.857121D-02 -0.463313D-02 -0.333427D-01  0.574883D-02
     14  0.559910D+00  0.404422D-01 -0.127593D+00 -0.135369D+00  0.550019D-01
     15  0.201821D-02  0.760380D-03  0.848873D-02  0.165724D-02  0.450301D-03
     16 -0.103008D-01  0.987707D-03  0.394028D-02  0.176418D-01 -0.781840D-03
     17 -0.120698D+02  0.553315D+00  0.687452D-01  0.269247D+00  0.712526D+00
     18 -0.668175D+00 -0.135278D-01  0.176553D-02  0.142036D-01  0.880053D-03
     19 -0.416398D-01 -0.221641D-01  0.694261D-02  0.204767D+00 -0.181422D-01
     20  0.110232D-01 -0.171133D-02  0.190889D+00  0.781925D-02 -0.116543D-01
     21 -0.127403D-02 -0.391683D-03 -0.118123D-01  0.213942D-04  0.412579D-03
     22  0.229795D-01  0.402452D-02  0.539270D-02 -0.687296D-02 -0.793810D-03
     23  0.108974D-03 -0.184749D-05  0.979728D-03 -0.273321D-03  0.174990D-03
     24  0.124223D-01 -0.442828D-04  0.134947D-01 -0.101533D-02  0.927607D-03
     25 -0.979432D-03 -0.151443D-03  0.871421D-04  0.287422D-03 -0.142364D-03
     26  0.121687D-03  0.243287D-04 -0.591042D-05 -0.417621D-04  0.153906D-04
     27 -0.361156D-04 -0.179641D-04  0.994084D-04 -0.197367D-04 -0.523141D-05
     28  0.856563D-04  0.179228D-04  0.317556D-03 -0.227847D-04  0.110285D-04
     29 -0.128464D-01 -0.160826D-02  0.144308D-02  0.106862D-02 -0.100540D-01
     30  0.197221D-02 -0.638516D-03 -0.227764D-03  0.129974D-02 -0.699101D-03
     31 -0.164011D-03 -0.129250D-03 -0.105002D-03  0.244264D-03 -0.427454D-04
     32  0.194573D-02 -0.162395D-03  0.537550D-03 -0.577765D-03 -0.360215D-03
     33  0.111630D-01  0.113619D-02  0.133986D-02 -0.188778D-02  0.588089D-03
               11            12            13            14            15 
     11  0.123400D+11
     12  0.176031D+02  0.123400D+11
     13  0.182927D+02 -0.887830D+00  0.123400D+11
     14  0.159111D+02 -0.874253D+00 -0.570029D+00  0.123400D+11
     15 -0.871746D+00  0.208249D-01  0.328836D+00  0.207622D+02  0.123400D+11
     16 -0.360630D+00  0.643114D+00  0.180181D-01  0.290135D+02 -0.128069D+01
     17  0.582990D-01  0.285599D-01  0.138961D-01  0.224599D+00  0.223291D-02
     18  0.120750D-01 -0.293420D-02 -0.167488D-02 -0.234925D-01 -0.123352D-03
     19  0.620785D+00  0.303988D-01  0.455776D-01  0.509957D+01  0.359063D+00
     20  0.933665D+00  0.147013D+01  0.155299D+01  0.132259D+02 -0.548364D+00
     21  0.540493D+00 -0.331244D-01 -0.178109D-01  0.210514D+00  0.162199D+00
     22  0.641686D-01  0.104079D+00 -0.982571D-02  0.931008D+01  0.138893D+00
     23 -0.271637D-01  0.308730D-02  0.108151D-02  0.641007D-01  0.587248D-02
     24  0.148208D+01  0.288278D-01  0.100944D+00 -0.191951D+00  0.331196D+00
     25 -0.336782D-01  0.302072D-01  0.487611D-01  0.688042D+00 -0.781856D-01
     26  0.109291D-01  0.421208D-04  0.190442D-02  0.273729D-01  0.213600D-01
     27 -0.511598D-02 -0.868767D-03 -0.129751D-02  0.233777D-01  0.271111D-01
     28 -0.261529D-02 -0.258526D-03 -0.194195D-03  0.906711D-01 -0.222702D-02
     29 -0.735727D-01  0.230303D-01 -0.386322D-03  0.678238D+00  0.299291D-01
     30  0.636805D-01 -0.380919D-03 -0.116718D-02 -0.954511D-01  0.257270D-01
     31 -0.731772D-03 -0.188377D-03 -0.168370D-03 -0.202115D-01  0.814362D-02
     32  0.553068D-01 -0.805476D-03 -0.652333D-03 -0.808299D-01  0.715435D-02
     33  0.172744D+00  0.690460D-02 -0.351108D-02  0.828690D+00  0.252607D+00
               16            17            18            19            20 
     16  0.123400D+11
     17 -0.200834D-02  0.123400D+11
     18  0.450734D-03  0.198272D+02  0.123400D+11
     19 -0.932898D+01  0.310505D-03  0.150246D-02  0.123400D+11
     20  0.182420D+00 -0.916117D-02  0.708269D-03  0.106861D+01  0.123400D+11
     21  0.114117D+00  0.102529D-02 -0.685110D-04  0.752241D-01  0.307700D+02
     22  0.304010D+02  0.894930D-02 -0.944461D-03  0.645680D+01 -0.402508D+00
     23  0.332949D+00  0.229069D-03 -0.180648D-04  0.484296D+00 -0.675427D-01
     24  0.455499D-01  0.415466D-02 -0.370660D-03 -0.187084D-01  0.251879D+02
     25 -0.139793D+00 -0.311096D-03  0.350779D-04  0.517600D-01  0.124614D+02
     26  0.539699D-01  0.367484D-04 -0.453107D-05 -0.184726D-02  0.377312D+00
     27  0.767723D-01  0.634241D-05  0.000000D+00  0.634485D-02  0.342221D+00
     28 -0.156789D-02  0.337731D-04 -0.362185D-05  0.265080D-02  0.317260D+00
     29 -0.234438D+00 -0.636017D-03 -0.387750D-03  0.709830D+00  0.130545D+00
     30  0.171710D+00  0.270977D-03 -0.102069D-03  0.234882D+00  0.196642D-01
     31  0.965690D+00 -0.371635D-04 -0.432989D-05  0.182451D+00  0.634761D-02
     32  0.216267D+00  0.357640D-03 -0.667637D-04  0.242503D+00  0.356298D-02
     33  0.471189D+00  0.420746D-02 -0.459416D-03  0.910805D-01  0.591739D+01
               21            22            23            24            25 
     21  0.123400D+11
     22  0.203730D-01  0.123400D+11
     23  0.392615D-02  0.315171D+02  0.123400D+11
     24  0.470297D+00 -0.358086D-02  0.654303D-02  0.123400D+11
     25  0.843653D-01 -0.161154D-03  0.293196D-02  0.269301D+02  0.123400D+11
     26 -0.121565D-01  0.403467D-02  0.195758D-03 -0.119556D+01  0.181068D+02
     27 -0.101591D-01  0.175256D-03  0.000000D+00 -0.119723D+01  0.178877D+02
     28 -0.900331D-02 -0.180071D-02  0.147718D-03 -0.745056D+00  0.170139D+02
     29 -0.302817D-02  0.170392D+02  0.320708D+00 -0.464807D-02  0.279476D-03
     30 -0.362092D-03 -0.662909D+00  0.417072D-01  0.255737D-02  0.162114D-02
     31 -0.383482D-03 -0.337293D+00  0.280050D+00  0.755902D-03 -0.366810D-03
     32  0.139593D-02 -0.613338D+00  0.197105D+00 -0.661475D-03  0.534315D-03
     33  0.416332D+00  0.490356D+00 -0.750786D-02 -0.978875D+01  0.356952D+01
               26            27            28            29            30 
     26  0.123400D+11
     27 -0.928158D+00  0.123400D+11
     28 -0.734077D+00 -0.732039D+00  0.123400D+11
     29 -0.588874D-04 -0.157304D-04 -0.851735D-04  0.123400D+11
     30  0.261597D-03  0.115892D-03 -0.210658D-04  0.197201D+02  0.123400D+11
     31  0.286090D-03  0.140523D-03  0.908831D-05  0.183126D+02 -0.714153D+00
     32 -0.614949D-04 -0.166538D-03  0.229469D-04  0.201984D+02 -0.740159D+00
     33  0.448127D+00  0.448921D+00  0.805025D+00 -0.254986D-01  0.220787D-01
               31            32            33 
     31  0.123400D+11
     32 -0.761361D+00  0.123400D+11
     33  0.127636D-02  0.159429D-01  0.123400D+11
 Fermi Contact (FC) contribution to J (Hz):
                1             2             3             4             5 
      1  0.243533D+11
      2  0.688487D+02  0.243533D+11
      3 -0.251168D+01  0.653069D+02  0.243533D+11
      4  0.583424D+01  0.648948D+00  0.666276D+02  0.243533D+11
      5  0.318269D+01  0.607525D+01 -0.261524D+01  0.674825D+02  0.243533D+11
      6  0.709529D+02 -0.322910D+00  0.849536D+01  0.196733D+00  0.762033D+02
      7  0.169299D+03 -0.254248D+01  0.726384D+01 -0.150492D+01  0.470148D+01
      8 -0.168186D+01  0.166704D+03 -0.134621D+01  0.755700D+01 -0.229262D+01
      9 -0.229314D+01  0.839389D+01 -0.173075D+01  0.183217D+03 -0.136339D+01
     10  0.534076D+01 -0.180768D+01  0.831699D+01 -0.171305D+01  0.182036D+03
     11  0.375599D+01  0.277041D+01  0.467163D+02  0.298387D+01  0.391106D+01
     12 -0.493762D+00  0.551684D+01 -0.687110D+01  0.561452D+01  0.758405D-01
     13  0.839899D+00  0.799274D+01 -0.812602D+01  0.609560D+01 -0.124865D+00
     14 -0.105875D+01  0.148500D+01 -0.244513D+01  0.148647D+01 -0.109420D+01
     15  0.135570D+00 -0.110418D-01  0.699286D+01 -0.131657D+00  0.859581D-01
     16  0.215015D-01 -0.743458D-01  0.244868D+01 -0.509408D-01  0.572937D-01
     17  0.815551D+00  0.143630D+00 -0.280379D+00 -0.313899D+01 -0.122709D+02
     18  0.335210D+01 -0.752838D-01 -0.366203D+00  0.158513D+01  0.893489D+01
     19 -0.122355D+00  0.751896D-01 -0.192865D+00 -0.865475D+00 -0.178156D+00
     20  0.556852D-01  0.150218D+00 -0.394001D-01  0.379888D-01  0.453105D-01
     21  0.252713D-02  0.248274D-01  0.216964D-01  0.330634D-01 -0.139842D-01
     22 -0.294359D-01  0.132292D+00  0.808105D-01  0.492361D-01 -0.113350D-01
     23  0.138780D-01  0.546955D-01  0.336876D-01 -0.220504D-02 -0.701273D-02
     24  0.928681D-02  0.725982D-01 -0.101066D+00  0.535204D-01 -0.123618D-01
     25  0.753195D-03 -0.178909D-01 -0.315768D-02  0.287253D-02  0.251227D-02
     26 -0.322549D-03  0.684853D-02 -0.129335D-01  0.571065D-02 -0.511104D-03
     27  0.210769D-02  0.372723D-02 -0.378367D-02 -0.263178D-02 -0.118162D-02
     28 -0.112054D-02 -0.464512D-02  0.268208D-02  0.186831D-02 -0.610010D-03
     29  0.168938D-01 -0.374400D-01  0.772507D-01  0.141116D+00  0.172917D+00
     30  0.142730D-01  0.723421D-02  0.465041D-01  0.166603D+00  0.114275D+00
     31  0.525181D-02  0.786840D-03  0.909047D-02  0.752332D-02  0.156791D-02
     32  0.549468D-02  0.364795D-01  0.232321D-01  0.190120D-01  0.210867D-01
     33  0.708815D-02 -0.436079D-01 -0.449458D-01 -0.196359D-01  0.602972D-02
                6             7             8             9            10 
      6  0.243533D+11
      7 -0.433825D+01  0.385007D+12
      8  0.895900D+01  0.101410D+02  0.385007D+12
      9  0.985757D+01  0.118667D+01  0.118095D+01  0.385007D+12
     10 -0.538467D+01  0.200204D+01  0.132318D+01  0.111388D+02  0.385007D+12
     11 -0.908034D+00  0.145956D+00  0.509813D+01  0.514612D+01  0.154884D+00
     12  0.649472D+00  0.218137D+00 -0.121264D+01 -0.668815D+00  0.415634D+00
     13  0.306314D+00  0.267421D+00 -0.144553D+00 -0.104029D+01  0.179363D+00
     14  0.110500D+01  0.317346D+00 -0.100121D+01 -0.106222D+01  0.431594D+00
     15  0.158367D-01  0.237238D-01  0.264848D+00  0.517058D-01  0.140494D-01
     16 -0.203290D-01  0.775044D-02  0.309190D-01  0.138434D+00 -0.613502D-02
     17  0.128445D+02 -0.234123D+01 -0.290880D+00 -0.113926D+01 -0.301489D+01
     18 -0.524311D+01 -0.422068D+00  0.550844D-01  0.443151D+00  0.274576D-01
     19  0.443123D-01  0.937825D-01 -0.293761D-01 -0.866426D+00  0.767646D-01
     20  0.625248D-02 -0.385954D-02  0.430510D+00  0.176346D-01 -0.262837D-01
     21 -0.999717D-02 -0.122205D-01 -0.368542D+00  0.667497D-03  0.128725D-01
     22  0.130342D-01  0.907644D-02  0.121621D-01 -0.155005D-01 -0.179027D-02
     23  0.855110D-03 -0.576417D-04  0.305675D-01 -0.852760D-02  0.545968D-02
     24  0.245157D-01 -0.347482D-03  0.105891D+00 -0.796719D-02  0.727884D-02
     25 -0.193293D-02 -0.118835D-02  0.683795D-03  0.225537D-02 -0.111711D-02
     26  0.954867D-03  0.759055D-03 -0.184405D-03 -0.130298D-02  0.480187D-03
     27 -0.283396D-03 -0.560479D-03  0.310154D-02 -0.615784D-03 -0.163220D-03
     28  0.672137D-03  0.559192D-03  0.990773D-02 -0.710883D-03  0.344089D-03
     29 -0.253527D-01 -0.126199D-01  0.113237D-01  0.838539D-02 -0.788931D-01
     30  0.154757D-01 -0.199217D-01 -0.710623D-02  0.405518D-01 -0.218119D-01
     31 -0.128698D-02 -0.403260D-02 -0.327605D-02  0.762101D-02 -0.133365D-02
     32  0.152679D-01 -0.506672D-02  0.167715D-01 -0.180263D-01 -0.112387D-01
     33 -0.118794D-01 -0.480752D-02 -0.566930D-02  0.798773D-02 -0.248836D-02
               11            12            13            14            15 
     11  0.243533D+11
     12  0.138130D+03  0.385007D+12
     13  0.143541D+03 -0.277003D+02  0.385007D+12
     14  0.314010D+02 -0.686018D+01 -0.447296D+01  0.243533D+11
     15 -0.684050D+01  0.649736D+00  0.102597D+02  0.162919D+03  0.385007D+12
     16 -0.711712D+00  0.504645D+01  0.141387D+00  0.572588D+02 -0.100494D+02
     17 -0.620407D-01 -0.120845D+00 -0.587980D-01 -0.239014D+00 -0.944804D-02
     18  0.947515D-01 -0.915468D-01 -0.522560D-01 -0.184343D+00 -0.384859D-02
     19 -0.660628D+00 -0.128626D+00 -0.192851D+00 -0.542687D+01 -0.151929D+01
     20  0.529586D+00  0.331557D+01  0.350243D+01  0.750188D+01 -0.123672D+01
     21  0.424120D+01 -0.103348D+01 -0.555700D+00  0.165188D+01  0.506060D+01
     22  0.363972D-01  0.234728D+00 -0.221598D-01  0.528079D+01  0.313242D+00
     23 -0.213151D+00  0.963238D-01  0.337430D-01  0.502992D+00  0.183221D+00
     24  0.292492D+01  0.226209D+00  0.792099D+00 -0.378821D+00  0.259886D+01
     25 -0.664648D-01  0.237033D+00  0.382623D+00  0.135787D+01 -0.613515D+00
     26  0.857599D-01  0.131417D-02  0.594178D-01  0.214792D+00  0.666431D+00
     27 -0.401446D-01 -0.271055D-01 -0.404822D-01  0.183443D+00  0.845865D+00
     28 -0.205220D-01 -0.806601D-02 -0.605886D-02  0.711488D+00 -0.694830D-01
     29 -0.145197D+00  0.180717D+00 -0.303143D-02  0.133852D+01  0.234850D+00
     30  0.499694D+00 -0.118846D-01 -0.364159D-01 -0.748996D+00  0.802681D+00
     31 -0.574214D-02 -0.587736D-02 -0.525315D-02 -0.158598D+00  0.254081D+00
     32  0.433987D+00 -0.251308D-01 -0.203528D-01 -0.634264D+00  0.223215D+00
     33 -0.183831D+00 -0.292153D-01  0.148563D-01 -0.881875D+00 -0.106885D+01
               16            17            18            19            20 
     16  0.243533D+11
     17  0.213723D-02  0.708114D+10
     18  0.353686D-02 -0.838941D+02  0.385007D+12
     19  0.992773D+01  0.178179D-03 -0.635732D-02  0.708114D+10
     20  0.103471D+00  0.280201D-02  0.159735D-02 -0.326840D+00  0.201170D+10
     21  0.895463D+00 -0.433828D-02 -0.213754D-02 -0.318294D+00  0.693951D+02
     22  0.172438D+02 -0.273721D-02 -0.213003D-02 -0.197486D+01 -0.656181D-01
     23  0.261262D+01 -0.969255D-03 -0.563620D-03 -0.204919D+01 -0.152328D+00
     24  0.898938D-01 -0.442131D-02 -0.290853D-02  0.199092D-01  0.142869D+02
     25 -0.275886D+00  0.331063D-03  0.275253D-03 -0.550820D-01  0.706823D+01
     26  0.423496D+00 -0.155493D-03 -0.141369D-03  0.781626D-02  0.850946D+00
     27  0.602425D+00 -0.268365D-04 -0.182940D-04 -0.268468D-01  0.771806D+00
     28 -0.123031D-01 -0.142903D-03 -0.113001D-03 -0.112162D-01  0.715512D+00
     29 -0.462669D+00  0.676837D-03 -0.304264D-02 -0.755387D+00  0.740468D-01
     30  0.134739D+01 -0.114658D-02 -0.318454D-02 -0.993849D+00  0.443484D-01
     31  0.757768D+01  0.157249D-03 -0.135092D-03 -0.772001D+00  0.143157D-01
     32  0.169703D+01 -0.151327D-02 -0.208302D-02 -0.102609D+01  0.803554D-02
     33 -0.501430D+00  0.241439D-02  0.194392D-02  0.522653D-01 -0.180988D+01
               21            22            23            24            25 
     21  0.385007D+12
     22  0.459469D-01  0.201170D+10
     23  0.122496D+00  0.710800D+02  0.385007D+12
     24  0.369037D+01 -0.203111D-02  0.513425D-01  0.243533D+11
     25  0.662006D+00 -0.914086D-04  0.230068D-01  0.531473D+02  0.243533D+11
     26 -0.379282D+00  0.909932D-02  0.610765D-02 -0.938143D+01  0.142082D+03
     27 -0.316963D+00  0.395252D-03 -0.162683D-04 -0.939458D+01  0.140363D+03
     28 -0.280903D+00 -0.406112D-02  0.460879D-02 -0.584638D+01  0.133506D+03
     29 -0.237617D-01  0.966482D+01  0.251656D+01 -0.917309D-02  0.551553D-03
     30 -0.112972D-01 -0.149505D+01  0.130126D+01  0.200674D-01  0.127209D-01
     31 -0.119646D-01 -0.760692D+00  0.873756D+01  0.593149D-02 -0.287832D-02
     32  0.435529D-01 -0.138325D+01  0.614967D+01 -0.519053D-02  0.419272D-02
     33 -0.176161D+01 -0.149979D+00  0.317678D-01  0.104170D+02 -0.379862D+01
               26            27            28            29            30 
     26  0.385007D+12
     27 -0.289585D+02  0.385007D+12
     28 -0.229032D+02 -0.228396D+02  0.385007D+12
     29 -0.462084D-03 -0.123435D-03 -0.668348D-03  0.243533D+11
     30  0.816182D-02  0.361583D-02 -0.657251D-03  0.154742D+03  0.385007D+12
     31  0.892599D-02  0.438431D-02  0.283555D-03  0.143697D+03 -0.222816D+02
     32 -0.191864D-02 -0.519599D-02  0.715942D-03  0.158495D+03 -0.230929D+02
     33 -0.189615D+01 -0.189951D+01 -0.340628D+01  0.271351D-01 -0.934209D-01
               31            32            33 
     31  0.385007D+12
     32 -0.237544D+02  0.385007D+12
     33 -0.540062D-02 -0.674590D-01  0.708114D+10
 End of Minotr F.D. properties file   721 does not exist.
 End of Minotr F.D. properties file   722 does not exist.
 End of Minotr F.D. properties file   788 does not exist.
 Leave Link 1002 at Wed Jun 25 02:03:09 2014, MaxMem=  4294967296 cpu:    503130.7
 (Enter /home/ztw1e12/g09/l601.exe)
 Copying SCF densities to generalized density rwf, IOpCl= 0 IROHF=0.

 **********************************************************************

            Population analysis using the SCF density.

 **********************************************************************

 Orbital symmetries:
       Occupied  (A) (A) (A) (A) (A) (A) (A) (A) (A) (A) (A) (A)
                 (A) (A) (A) (A) (A) (A) (A) (A) (A) (A) (A) (A)
                 (A) (A) (A) (A) (A) (A) (A) (A) (A) (A) (A) (A)
                 (A) (A) (A) (A) (A) (A) (A) (A) (A) (A) (A) (A)
                 (A) (A) (A) (A) (A) (A) (A) (A) (A) (A) (A) (A)
                 (A) (A) (A)
       Virtual   (A) (A) (A) (A) (A) (A) (A) (A) (A) (A) (A) (A)
                 (A) (A) (A) (A) (A) (A) (A) (A) (A) (A) (A) (A)
                 (A) (A) (A) (A) (A) (A) (A) (A) (A) (A) (A) (A)
                 (A) (A) (A) (A) (A) (A) (A) (A) (A) (A) (A) (A)
                 (A) (A) (A) (A) (A) (A) (A) (A) (A) (A) (A) (A)
                 (A) (A) (A) (A) (A) (A) (A) (A) (A) (A) (A) (A)
                 (A) (A) (A) (A) (A) (A) (A) (A) (A) (A) (A) (A)
                 (A) (A) (A) (A) (A) (A) (A) (A) (A) (A) (A) (A)
                 (A) (A) (A) (A) (A) (A) (A) (A) (A) (A) (A) (A)
                 (A) (A) (A) (A) (A) (A) (A) (A) (A) (A) (A) (A)
                 (A) (A) (A) (A) (A) (A) (A) (A) (A) (A) (A) (A)
                 (A) (A) (A) (A) (A) (A) (A) (A) (A) (A) (A) (A)
                 (A) (A) (A) (A) (A) (A) (A) (A) (A) (A) (A) (A)
                 (A) (A) (A) (A) (A) (A) (A) (A) (A) (A) (A) (A)
                 (A) (A) (A) (A) (A) (A) (A) (A) (A) (A) (A) (A)
                 (A) (A) (A) (A) (A) (A) (A) (A) (A) (A) (A) (A)
                 (A) (A) (A) (A) (A) (A) (A) (A) (A) (A) (A) (A)
                 (A) (A) (A) (A) (A) (A) (A) (A) (A) (A) (A) (A)
                 (A) (A) (A) (A) (A) (A) (A) (A) (A) (A) (A) (A)
                 (A) (A) (A) (A) (A) (A) (A) (A) (A) (A) (A) (A)
                 (A) (A) (A) (A) (A) (A) (A) (A) (A) (A) (A) (A)
                 (A) (A) (A) (A) (A) (A) (A) (A) (A) (A) (A) (A)
                 (A) (A) (A) (A) (A) (A) (A) (A) (A) (A) (A) (A)
                 (A) (A) (A) (A) (A) (A) (A) (A) (A) (A) (A) (A)
                 (A) (A) (A) (A) (A) (A) (A) (A) (A) (A) (A) (A)
                 (A) (A) (A) (A) (A) (A) (A) (A) (A) (A) (A) (A)
                 (A) (A) (A) (A) (A) (A) (A) (A) (A) (A) (A) (A)
                 (A) (A) (A) (A) (A) (A) (A) (A) (A) (A) (A) (A)
                 (A) (A) (A) (A) (A) (A) (A) (A) (A) (A) (A) (A)
                 (A) (A) (A) (A) (A) (A) (A) (A) (A) (A) (A) (A)
                 (A) (A) (A) (A) (A) (A) (A) (A) (A) (A) (A) (A)
                 (A) (A) (A) (A) (A) (A) (A) (A) (A) (A) (A) (A)
                 (A) (A) (A) (A) (A) (A) (A) (A) (A) (A) (A) (A)
                 (A) (A) (A) (A) (A) (A) (A) (A) (A) (A) (A) (A)
                 (A) (A) (A) (A) (A) (A) (A) (A) (A) (A) (A) (A)
                 (A) (A) (A) (A) (A) (A) (A) (A) (A) (A) (A) (A)
                 (A) (A) (A) (A) (A) (A) (A) (A) (A) (A) (A) (A)
                 (A) (A) (A) (A) (A) (A) (A) (A) (A) (A) (A) (A)
                 (A) (A) (A) (A) (A) (A) (A) (A) (A) (A) (A) (A)
                 (A) (A) (A) (A) (A) (A) (A) (A) (A) (A) (A) (A)
                 (A) (A) (A) (A) (A) (A) (A) (A) (A) (A) (A) (A)
                 (A) (A) (A) (A) (A) (A) (A) (A) (A) (A) (A) (A)
                 (A) (A) (A) (A) (A) (A) (A) (A) (A) (A) (A) (A)
                 (A) (A) (A) (A) (A) (A) (A) (A) (A) (A) (A) (A)
                 (A) (A) (A) (A) (A) (A) (A) (A) (A) (A) (A) (A)
                 (A) (A) (A) (A) (A) (A) (A) (A) (A) (A) (A) (A)
                 (A) (A) (A) (A) (A) (A) (A) (A) (A) (A) (A) (A)
                 (A) (A) (A) (A) (A) (A) (A) (A) (A) (A) (A) (A)
                 (A) (A) (A) (A) (A) (A) (A) (A) (A) (A) (A) (A)
                 (A) (A) (A) (A) (A) (A) (A) (A) (A) (A) (A) (A)
                 (A) (A) (A) (A) (A) (A) (A) (A) (A) (A) (A) (A)
                 (A) (A) (A) (A) (A) (A) (A) (A) (A) (A) (A) (A)
                 (A) (A) (A) (A) (A) (A) (A) (A) (A) (A) (A) (A)
                 (A) (A) (A) (A) (A) (A) (A) (A) (A) (A) (A) (A)
                 (A) (A) (A) (A) (A) (A) (A) (A) (A) (A) (A) (A)
                 (A) (A) (A) (A) (A) (A) (A) (A) (A) (A) (A) (A)
                 (A) (A) (A) (A) (A) (A) (A) (A) (A) (A) (A) (A)
                 (A) (A) (A) (A) (A) (A) (A) (A) (A) (A) (A) (A)
                 (A) (A) (A) (A) (A) (A) (A) (A) (A) (A) (A) (A)
                 (A) (A) (A) (A) (A) (A) (A) (A) (A) (A) (A) (A)
                 (A) (A) (A) (A) (A) (A) (A) (A) (A) (A) (A) (A)
                 (A) (A) (A) (A) (A) (A) (A) (A) (A) (A) (A) (A)
                 (A) (A) (A) (A) (A) (A) (A) (A) (A) (A) (A) (A)
                 (A) (A) (A) (A) (A) (A) (A) (A) (A) (A) (A) (A)
                 (A) (A) (A) (A) (A) (A) (A) (A) (A) (A) (A) (A)
                 (A) (A) (A) (A) (A) (A) (A) (A) (A) (A) (A) (A)
                 (A) (A) (A) (A) (A) (A) (A) (A) (A) (A) (A) (A)
                 (A) (A) (A) (A) (A) (A) (A) (A) (A) (A) (A) (A)
                 (A) (A) (A) (A) (A) (A) (A) (A) (A) (A) (A) (A)
                 (A) (A) (A) (A) (A) (A) (A) (A) (A) (A) (A) (A)
                 (A) (A) (A) (A) (A) (A) (A) (A) (A) (A) (A) (A)
                 (A) (A) (A) (A) (A) (A) (A) (A) (A) (A) (A) (A)
                 (A) (A) (A) (A) (A) (A) (A) (A) (A) (A) (A) (A)
                 (A) (A) (A) (A) (A) (A) (A) (A) (A) (A) (A) (A)
                 (A) (A) (A) (A) (A) (A) (A) (A) (A) (A) (A) (A)
                 (A) (A) (A) (A) (A) (A) (A) (A) (A) (A) (A) (A)
                 (A) (A) (A) (A) (A) (A) (A) (A) (A) (A) (A) (A)
                 (A) (A) (A) (A) (A) (A) (A) (A) (A) (A) (A) (A)
                 (A) (A) (A) (A) (A) (A) (A) (A) (A) (A) (A) (A)
                 (A) (A) (A) (A) (A) (A) (A) (A) (A) (A) (A) (A)
                 (A) (A) (A) (A) (A) (A) (A) (A) (A) (A) (A) (A)
                 (A) (A) (A) (A) (A) (A) (A) (A) (A) (A) (A) (A)
                 (A) (A) (A) (A) (A) (A) (A) (A) (A) (A) (A) (A)
                 (A) (A) (A) (A) (A) (A) (A) (A) (A)
 The electronic state is 1-A.
 Alpha  occ. eigenvalues --  -19.25250 -19.17709 -19.16623 -14.42905 -14.41328
 Alpha  occ. eigenvalues --  -10.34642 -10.33082 -10.31315 -10.29180 -10.26647
 Alpha  occ. eigenvalues --  -10.26042 -10.25695 -10.25285 -10.25201 -10.25151
 Alpha  occ. eigenvalues --  -10.24876 -10.24379  -1.09588  -1.05893  -1.04418
 Alpha  occ. eigenvalues --   -0.95785  -0.93431  -0.88235  -0.81704  -0.77403
 Alpha  occ. eigenvalues --   -0.77213  -0.74156  -0.71896  -0.66820  -0.64569
 Alpha  occ. eigenvalues --   -0.62210  -0.60571  -0.59240  -0.56812  -0.55209
 Alpha  occ. eigenvalues --   -0.52635  -0.50629  -0.49713  -0.48660  -0.47157
 Alpha  occ. eigenvalues --   -0.47003  -0.46074  -0.44610  -0.44445  -0.44237
 Alpha  occ. eigenvalues --   -0.43612  -0.42768  -0.41900  -0.41311  -0.41302
 Alpha  occ. eigenvalues --   -0.39938  -0.39178  -0.38369  -0.37689  -0.35829
 Alpha  occ. eigenvalues --   -0.35593  -0.35226  -0.29896  -0.28073  -0.27310
 Alpha  occ. eigenvalues --   -0.26837  -0.25643  -0.24294
 Alpha virt. eigenvalues --   -0.01867  -0.00323   0.00340   0.01662   0.01965
 Alpha virt. eigenvalues --    0.03095   0.03773   0.04785   0.05805   0.06460
 Alpha virt. eigenvalues --    0.06754   0.08131   0.09039   0.09860   0.10461
 Alpha virt. eigenvalues --    0.10729   0.11626   0.12447   0.12934   0.13396
 Alpha virt. eigenvalues --    0.14829   0.15291   0.16088   0.17261   0.18960
 Alpha virt. eigenvalues --    0.19390   0.21564   0.21711   0.22842   0.23224
 Alpha virt. eigenvalues --    0.24021   0.24061   0.24687   0.25296   0.26441
 Alpha virt. eigenvalues --    0.27161   0.27708   0.28293   0.28629   0.29480
 Alpha virt. eigenvalues --    0.30365   0.31058   0.31292   0.32002   0.32555
 Alpha virt. eigenvalues --    0.33174   0.33527   0.33624   0.34899   0.34984
 Alpha virt. eigenvalues --    0.35173   0.36079   0.36968   0.37024   0.37544
 Alpha virt. eigenvalues --    0.37999   0.38513   0.39041   0.39209   0.39828
 Alpha virt. eigenvalues --    0.40263   0.40535   0.40968   0.41578   0.41940
 Alpha virt. eigenvalues --    0.42335   0.42569   0.43048   0.43944   0.44127
 Alpha virt. eigenvalues --    0.45167   0.45764   0.46193   0.46602   0.46761
 Alpha virt. eigenvalues --    0.47005   0.48003   0.49229   0.49720   0.50214
 Alpha virt. eigenvalues --    0.50863   0.51478   0.51957   0.53533   0.53860
 Alpha virt. eigenvalues --    0.54696   0.55271   0.55656   0.56444   0.57272
 Alpha virt. eigenvalues --    0.58304   0.58901   0.59134   0.60093   0.60824
 Alpha virt. eigenvalues --    0.61981   0.62326   0.63661   0.63807   0.64146
 Alpha virt. eigenvalues --    0.65634   0.66109   0.67133   0.67458   0.68756
 Alpha virt. eigenvalues --    0.69222   0.69820   0.70281   0.71830   0.72108
 Alpha virt. eigenvalues --    0.73338   0.73605   0.74645   0.74805   0.75889
 Alpha virt. eigenvalues --    0.77724   0.78485   0.78819   0.79275   0.79883
 Alpha virt. eigenvalues --    0.80554   0.81281   0.81970   0.82601   0.83350
 Alpha virt. eigenvalues --    0.84305   0.85048   0.85471   0.86772   0.87260
 Alpha virt. eigenvalues --    0.87981   0.88996   0.90152   0.90867   0.91562
 Alpha virt. eigenvalues --    0.92043   0.92492   0.93532   0.93815   0.95089
 Alpha virt. eigenvalues --    0.95308   0.96081   0.96950   0.97508   0.97963
 Alpha virt. eigenvalues --    0.98449   0.99678   1.00328   1.00505   1.01743
 Alpha virt. eigenvalues --    1.02121   1.02983   1.03548   1.04395   1.05412
 Alpha virt. eigenvalues --    1.06081   1.07348   1.08228   1.08729   1.09528
 Alpha virt. eigenvalues --    1.09910   1.11754   1.12565   1.13331   1.13857
 Alpha virt. eigenvalues --    1.14311   1.15067   1.15755   1.16156   1.17118
 Alpha virt. eigenvalues --    1.17886   1.19058   1.19242   1.19759   1.20163
 Alpha virt. eigenvalues --    1.20916   1.21476   1.21554   1.21827   1.23189
 Alpha virt. eigenvalues --    1.23470   1.23672   1.24276   1.24856   1.25523
 Alpha virt. eigenvalues --    1.25724   1.26625   1.26982   1.28028   1.28500
 Alpha virt. eigenvalues --    1.28749   1.29409   1.29732   1.30006   1.30654
 Alpha virt. eigenvalues --    1.31251   1.32029   1.32907   1.33706   1.34539
 Alpha virt. eigenvalues --    1.35355   1.35543   1.35962   1.37542   1.38029
 Alpha virt. eigenvalues --    1.38921   1.40545   1.41845   1.43263   1.43465
 Alpha virt. eigenvalues --    1.46670   1.48113   1.48554   1.49592   1.51642
 Alpha virt. eigenvalues --    1.53681   1.53896   1.55774   1.57150   1.58338
 Alpha virt. eigenvalues --    1.59548   1.60200   1.60800   1.61567   1.63022
 Alpha virt. eigenvalues --    1.64546   1.65577   1.68844   1.70218   1.71439
 Alpha virt. eigenvalues --    1.73642   1.74125   1.75671   1.77312   1.79119
 Alpha virt. eigenvalues --    1.79840   1.81922   1.82866   1.83553   1.85243
 Alpha virt. eigenvalues --    1.86214   1.87138   1.88435   1.89323   1.91078
 Alpha virt. eigenvalues --    1.91584   1.94199   1.94783   1.95164   1.96157
 Alpha virt. eigenvalues --    1.97070   1.99048   2.01441   2.02799   2.02968
 Alpha virt. eigenvalues --    2.04441   2.05643   2.07234   2.08333   2.08696
 Alpha virt. eigenvalues --    2.09852   2.11185   2.12419   2.12835   2.14719
 Alpha virt. eigenvalues --    2.15768   2.16892   2.18614   2.19551   2.21156
 Alpha virt. eigenvalues --    2.21736   2.23751   2.24995   2.25496   2.26781
 Alpha virt. eigenvalues --    2.29123   2.29682   2.30178   2.31747   2.32317
 Alpha virt. eigenvalues --    2.34055   2.34956   2.36532   2.37893   2.38352
 Alpha virt. eigenvalues --    2.39292   2.40026   2.40739   2.41316   2.43543
 Alpha virt. eigenvalues --    2.44136   2.45271   2.45929   2.47978   2.48435
 Alpha virt. eigenvalues --    2.48983   2.50940   2.52696   2.54017   2.54369
 Alpha virt. eigenvalues --    2.55959   2.56642   2.57857   2.58717   2.60025
 Alpha virt. eigenvalues --    2.61858   2.64069   2.64628   2.65733   2.66558
 Alpha virt. eigenvalues --    2.67393   2.67754   2.68479   2.69221   2.69652
 Alpha virt. eigenvalues --    2.70187   2.70647   2.71377   2.71713   2.73075
 Alpha virt. eigenvalues --    2.73445   2.74153   2.75079   2.75727   2.76304
 Alpha virt. eigenvalues --    2.77005   2.77596   2.78814   2.80368   2.81693
 Alpha virt. eigenvalues --    2.82313   2.83872   2.84542   2.84690   2.86217
 Alpha virt. eigenvalues --    2.86636   2.87538   2.88237   2.88549   2.88956
 Alpha virt. eigenvalues --    2.89756   2.90783   2.91865   2.92236   2.93029
 Alpha virt. eigenvalues --    2.93865   2.94495   2.94768   2.95424   2.95907
 Alpha virt. eigenvalues --    2.96719   2.97458   2.97848   2.98198   2.99117
 Alpha virt. eigenvalues --    2.99859   2.99917   3.00602   3.01235   3.02321
 Alpha virt. eigenvalues --    3.02970   3.03201   3.03649   3.04169   3.04899
 Alpha virt. eigenvalues --    3.05240   3.06833   3.08023   3.08855   3.09815
 Alpha virt. eigenvalues --    3.11103   3.11238   3.12165   3.12689   3.13603
 Alpha virt. eigenvalues --    3.14277   3.14335   3.15203   3.16471   3.16755
 Alpha virt. eigenvalues --    3.17682   3.18537   3.18944   3.20178   3.20564
 Alpha virt. eigenvalues --    3.21147   3.22028   3.22668   3.24381   3.25316
 Alpha virt. eigenvalues --    3.25979   3.26877   3.27555   3.28194   3.28263
 Alpha virt. eigenvalues --    3.28617   3.29171   3.29950   3.30798   3.31366
 Alpha virt. eigenvalues --    3.31911   3.32204   3.32597   3.33831   3.34748
 Alpha virt. eigenvalues --    3.35500   3.36099   3.37677   3.38531   3.38902
 Alpha virt. eigenvalues --    3.39167   3.41080   3.41452   3.41909   3.43330
 Alpha virt. eigenvalues --    3.43989   3.44385   3.45593   3.45975   3.46986
 Alpha virt. eigenvalues --    3.47482   3.48140   3.50205   3.51166   3.51416
 Alpha virt. eigenvalues --    3.52388   3.53273   3.53999   3.54730   3.55490
 Alpha virt. eigenvalues --    3.56407   3.57888   3.58836   3.59903   3.61752
 Alpha virt. eigenvalues --    3.62892   3.63216   3.63822   3.64620   3.65875
 Alpha virt. eigenvalues --    3.67070   3.67664   3.69163   3.70465   3.70741
 Alpha virt. eigenvalues --    3.70965   3.71900   3.72396   3.73133   3.73402
 Alpha virt. eigenvalues --    3.74491   3.75598   3.75710   3.76810   3.78063
 Alpha virt. eigenvalues --    3.78579   3.78861   3.79972   3.80819   3.81361
 Alpha virt. eigenvalues --    3.81769   3.83713   3.84625   3.85104   3.85541
 Alpha virt. eigenvalues --    3.86383   3.87333   3.87683   3.88848   3.90009
 Alpha virt. eigenvalues --    3.91398   3.92423   3.92691   3.93329   3.95444
 Alpha virt. eigenvalues --    3.96357   3.97618   3.98388   3.99353   3.99495
 Alpha virt. eigenvalues --    4.00452   4.01906   4.02418   4.04251   4.04960
 Alpha virt. eigenvalues --    4.05345   4.06732   4.07559   4.07839   4.08686
 Alpha virt. eigenvalues --    4.10209   4.11515   4.12365   4.13261   4.14099
 Alpha virt. eigenvalues --    4.14896   4.15673   4.17090   4.17777   4.18554
 Alpha virt. eigenvalues --    4.19341   4.20765   4.20849   4.21304   4.22872
 Alpha virt. eigenvalues --    4.24230   4.24576   4.25155   4.25991   4.26258
 Alpha virt. eigenvalues --    4.26899   4.28218   4.28667   4.29230   4.30202
 Alpha virt. eigenvalues --    4.30926   4.32295   4.34076   4.36338   4.37779
 Alpha virt. eigenvalues --    4.38880   4.40024   4.40996   4.44399   4.45237
 Alpha virt. eigenvalues --    4.45526   4.47312   4.48691   4.49161   4.50151
 Alpha virt. eigenvalues --    4.51480   4.54341   4.55862   4.57369   4.58243
 Alpha virt. eigenvalues --    4.59399   4.59880   4.60503   4.61831   4.62668
 Alpha virt. eigenvalues --    4.63917   4.65120   4.65336   4.66103   4.66842
 Alpha virt. eigenvalues --    4.68459   4.69324   4.71052   4.71890   4.73232
 Alpha virt. eigenvalues --    4.74941   4.76343   4.77604   4.78644   4.79865
 Alpha virt. eigenvalues --    4.82009   4.82637   4.83284   4.84211   4.85356
 Alpha virt. eigenvalues --    4.86710   4.88550   4.89153   4.90546   4.91485
 Alpha virt. eigenvalues --    4.92080   4.93158   4.95044   4.95577   4.95978
 Alpha virt. eigenvalues --    4.97297   4.97829   5.00405   5.02646   5.03308
 Alpha virt. eigenvalues --    5.03449   5.04192   5.05984   5.07668   5.09199
 Alpha virt. eigenvalues --    5.10972   5.11806   5.13248   5.14112   5.14488
 Alpha virt. eigenvalues --    5.15053   5.15920   5.17138   5.17713   5.19215
 Alpha virt. eigenvalues --    5.20477   5.21740   5.23730   5.26716   5.28179
 Alpha virt. eigenvalues --    5.29655   5.32916   5.34545   5.35856   5.38242
 Alpha virt. eigenvalues --    5.41060   5.43593   5.44029   5.45799   5.48190
 Alpha virt. eigenvalues --    5.50146   5.51764   5.52053   5.53873   5.54692
 Alpha virt. eigenvalues --    5.57567   5.58649   5.59519   5.60548   5.62578
 Alpha virt. eigenvalues --    5.63821   5.64811   5.66375   5.66665   5.67658
 Alpha virt. eigenvalues --    5.68787   5.70669   5.71498   5.72511   5.74060
 Alpha virt. eigenvalues --    5.74993   5.77546   5.79088   5.80313   5.81243
 Alpha virt. eigenvalues --    5.84384   5.88697   5.89554   5.89870   5.96881
 Alpha virt. eigenvalues --    5.97593   5.98821   6.03548   6.06666   6.09660
 Alpha virt. eigenvalues --    6.17318   6.17769   6.18735   6.21620   6.28188
 Alpha virt. eigenvalues --    6.45836   6.46332   6.51189   6.52973   6.56477
 Alpha virt. eigenvalues --    6.60547   6.61324   6.62018   6.64448   6.68270
 Alpha virt. eigenvalues --    6.79912   6.79983   6.80953   6.87945   6.89090
 Alpha virt. eigenvalues --    6.90758   6.91360   6.92267   6.95658   7.06406
 Alpha virt. eigenvalues --    7.17457   7.19432   7.23540   7.27965   7.28964
 Alpha virt. eigenvalues --    7.67315   8.01450   8.10683   8.12640   8.14038
 Alpha virt. eigenvalues --    8.18595   8.25707   8.31401   8.36941   8.68243
 Alpha virt. eigenvalues --    8.74706   8.75785   8.77605   8.81365   8.81677
 Alpha virt. eigenvalues --    8.83006   8.84145   8.87249   8.87477   8.90283
 Alpha virt. eigenvalues --    8.92415   8.94334   8.95960   9.00418   9.07702
 Alpha virt. eigenvalues --    9.08041   9.12488   9.17195   9.20862   9.30874
 Alpha virt. eigenvalues --    9.35616   9.39873   9.40859   9.44910   9.48223
 Alpha virt. eigenvalues --    9.58524   9.61608   9.78164   9.81845  10.03166
 Alpha virt. eigenvalues --   10.07259  10.10745  10.12920  10.13625  10.15801
[...]
 Alpha virt. eigenvalues --    6.77904   6.80372   6.85685   6.87019   6.88896
 Alpha virt. eigenvalues --    6.91232   6.96265   7.08089   7.09454   7.11241
 Alpha virt. eigenvalues --    7.15500   7.18508   7.28856   7.43281   8.72470
 Alpha virt. eigenvalues --    9.55842   9.92819  11.89288  12.11771  12.33187
 Alpha virt. eigenvalues --   12.44173  12.60363  12.72122  12.92070  13.28658
 Alpha virt. eigenvalues --   13.47621  13.51188  13.60460  13.72096  14.03277
 Alpha virt. eigenvalues --   15.57866
          Condensed to atoms (all electrons):
               1          2          3          4          5          6
     1  C    5.420437   0.217844  -0.002382  -0.042138  -0.015066   0.310688
     2  C    0.217844   5.474595   0.271426  -0.003769  -0.045101   0.027323
     3  C   -0.002382   0.271426   5.458025   0.265557  -0.015606  -0.075815
     4  C   -0.042138  -0.003769   0.265557   5.228547   0.390157  -0.011173
     5  C   -0.015066  -0.045101  -0.015606   0.390157   5.145376   0.352588
     6  C    0.310688   0.027323  -0.075815  -0.011173   0.352588   4.882968
     7  H    0.448871  -0.035864   0.008483  -0.000881   0.004237  -0.069066
     8  H   -0.011438   0.425900  -0.086738   0.004342  -0.001024   0.005639
     9  H   -0.004234   0.009582  -0.089573   0.465232  -0.045079   0.013140
    10  H    0.014548  -0.006127   0.015288  -0.059230   0.458330  -0.085113
    11  C    0.006898  -0.046427   0.180497  -0.038903   0.005686  -0.001321
    12  H    0.000256  -0.008671  -0.057720   0.004755  -0.000300   0.000004
    13  H   -0.000502   0.006333  -0.047709  -0.003273   0.000246   0.000080
    14  C    0.001048   0.001405   0.025063  -0.019199   0.000322  -0.000232
    15  H    0.000007   0.000811   0.004911   0.000100  -0.000009  -0.000001
    16  C   -0.000461  -0.005121  -0.012697   0.013091  -0.000365  -0.000175
    17  O   -0.091112   0.013919  -0.000550   0.002650  -0.050155   0.394128
    18  H   -0.005426   0.004757  -0.000375  -0.000738   0.002407  -0.043207
    19  O    0.000003  -0.000193  -0.013796   0.001994  -0.001348   0.000088
    20  N   -0.000203  -0.004615  -0.002389   0.002326  -0.000024   0.000029
    21  H    0.000236   0.005409  -0.003123  -0.000288  -0.000032   0.000011
    22  N    0.000291  -0.001564   0.002720  -0.006527   0.002729  -0.000406
    23  H    0.001504   0.002642   0.000904  -0.001703   0.000075  -0.000110
    24  C   -0.000033  -0.000117  -0.001288   0.000099  -0.000006   0.000005
    25  C   -0.000004  -0.000050  -0.000071   0.000008   0.000000   0.000000
    26  H    0.000000   0.000002   0.000001   0.000000   0.000000   0.000000
    27  H    0.000000  -0.000008   0.000006   0.000000   0.000000   0.000000
    28  H   -0.000005  -0.000033   0.000086   0.000002   0.000000   0.000000
    29  C    0.000795   0.000193  -0.000006  -0.000661  -0.000993   0.000060
    30  H   -0.000502  -0.000607  -0.002041   0.003801  -0.002478   0.000999
    31  H    0.000127  -0.000095   0.000088  -0.000110   0.000077  -0.000043
    32  H    0.000022   0.000043   0.000252  -0.000269   0.000187  -0.000020
    33  O    0.000000   0.000028  -0.000126  -0.000003   0.000000   0.000000
               7          8          9         10         11         12
     1  C    0.448871  -0.011438  -0.004234   0.014548   0.006898   0.000256
     2  C   -0.035864   0.425900   0.009582  -0.006127  -0.046427  -0.008671
     3  C    0.008483  -0.086738  -0.089573   0.015288   0.180497  -0.057720
     4  C   -0.000881   0.004342   0.465232  -0.059230  -0.038903   0.004755
     5  C    0.004237  -0.001024  -0.045079   0.458330   0.005686  -0.000300
     6  C   -0.069066   0.005639   0.013140  -0.085113  -0.001321   0.000004
     7  H    0.532030  -0.006228   0.000024  -0.000211  -0.000297  -0.000018
     8  H   -0.006228   0.483428  -0.000206   0.000057   0.007451  -0.001115
     9  H    0.000024  -0.000206   0.482743  -0.009650  -0.000512   0.000267
    10  H   -0.000211   0.000057  -0.009650   0.533865  -0.000149   0.000015
    11  C   -0.000297   0.007451  -0.000512  -0.000149   5.337190   0.439184
    12  H   -0.000018  -0.001115   0.000267   0.000015   0.439184   0.481041
    13  H    0.000017   0.000060   0.002331  -0.000043   0.437711  -0.000753
    14  C    0.000057  -0.000981  -0.001666   0.000018   0.144657  -0.065493
    15  H   -0.000001   0.000061   0.000059  -0.000002  -0.025170  -0.003991
    16  C    0.000003   0.000005   0.000183   0.000021  -0.008217   0.011879
    17  O   -0.004211  -0.000132  -0.000122   0.006159  -0.000001   0.000000
    18  H    0.004670  -0.000018   0.000041  -0.000948  -0.000007   0.000000
    19  O    0.000000  -0.000003   0.007499  -0.000057   0.010254  -0.000073
    20  N   -0.000012  -0.000018   0.000126  -0.000001  -0.034766   0.002224
    21  H   -0.000024   0.003025  -0.000009   0.000000  -0.000586   0.004603
    22  N    0.000048  -0.000410   0.000041   0.000011  -0.006908  -0.000705
    23  H    0.000011   0.000004  -0.000163   0.000008  -0.000420  -0.000409
    24  C   -0.000002   0.000335   0.000019   0.000000   0.012309  -0.000145
    25  C   -0.000001   0.000125   0.000000   0.000000   0.000222  -0.000198
    26  H    0.000000   0.000002   0.000000   0.000000   0.000022  -0.000030
    27  H    0.000000  -0.000020   0.000000   0.000000  -0.000004   0.000027
    28  H    0.000000   0.000001   0.000000   0.000000  -0.000227  -0.000034
    29  C    0.000012  -0.000031   0.000108   0.000023  -0.000668   0.000064
    30  H   -0.000022   0.000007   0.000551  -0.000091   0.000962   0.000010
    31  H    0.000005  -0.000003  -0.000005   0.000001  -0.000068   0.000001
    32  H    0.000001   0.000000  -0.000091   0.000009  -0.000299   0.000001
    33  O    0.000000   0.000015   0.000000   0.000000   0.001603  -0.000143
              13         14         15         16         17         18
     1  C   -0.000502   0.001048   0.000007  -0.000461  -0.091112  -0.005426
     2  C    0.006333   0.001405   0.000811  -0.005121   0.013919   0.004757
     3  C   -0.047709   0.025063   0.004911  -0.012697  -0.000550  -0.000375
     4  C   -0.003273  -0.019199   0.000100   0.013091   0.002650  -0.000738
     5  C    0.000246   0.000322  -0.000009  -0.000365  -0.050155   0.002407
     6  C    0.000080  -0.000232  -0.000001  -0.000175   0.394128  -0.043207
     7  H    0.000017   0.000057  -0.000001   0.000003  -0.004211   0.004670
     8  H    0.000060  -0.000981   0.000061   0.000005  -0.000132  -0.000018
     9  H    0.002331  -0.001666   0.000059   0.000183  -0.000122   0.000041
    10  H   -0.000043   0.000018  -0.000002   0.000021   0.006159  -0.000948
    11  C    0.437711   0.144657  -0.025170  -0.008217  -0.000001  -0.000007
    12  H   -0.000753  -0.065493  -0.003991   0.011879   0.000000   0.000000
    13  H    0.467296  -0.044900  -0.005850   0.000625   0.000000   0.000000
    14  C   -0.044900   5.544201   0.458812   0.140981   0.000000   0.000000
    15  H   -0.005850   0.458812   0.464055  -0.070354   0.000000   0.000000
    16  C    0.000625   0.140981  -0.070354   4.797236   0.000004   0.000000
    17  O    0.000000   0.000000   0.000000   0.000004   7.660866   0.358911
    18  H    0.000000   0.000000   0.000000   0.000000   0.358911   0.492280
    19  O    0.001574  -0.073057   0.002917   0.731155   0.000000   0.000000
    20  N    0.004153   0.126196  -0.044731  -0.035859   0.000000   0.000000
    21  H    0.000220  -0.023350   0.001528   0.002379   0.000000   0.000000
    22  N    0.000391  -0.096341   0.005523   0.265940  -0.000001  -0.000001
    23  H   -0.000152   0.003447   0.001032  -0.029707   0.000000   0.000000
    24  C   -0.000178  -0.091362  -0.001643   0.002616   0.000000   0.000000
    25  C    0.000019   0.007716   0.001905  -0.001688   0.000000   0.000000
    26  H   -0.000003  -0.000196   0.000143  -0.000171   0.000000   0.000000
    27  H   -0.000001  -0.000425  -0.000186   0.000510   0.000000   0.000000
    28  H    0.000001   0.001043  -0.000237  -0.000183   0.000000   0.000000
    29  C   -0.000001   0.009479  -0.000619  -0.051954  -0.000031   0.000001
    30  H   -0.000014  -0.001986  -0.000135   0.003058   0.000052   0.000000
    31  H   -0.000002   0.000684  -0.000003   0.008476  -0.000002   0.000000
    32  H   -0.000001   0.001971   0.000061  -0.008742  -0.000001   0.000000
    33  O    0.000030   0.010076   0.014139   0.004225   0.000000   0.000000
              19         20         21         22         23         24
     1  C    0.000003  -0.000203   0.000236   0.000291   0.001504  -0.000033
     2  C   -0.000193  -0.004615   0.005409  -0.001564   0.002642  -0.000117
     3  C   -0.013796  -0.002389  -0.003123   0.002720   0.000904  -0.001288
     4  C    0.001994   0.002326  -0.000288  -0.006527  -0.001703   0.000099
     5  C   -0.001348  -0.000024  -0.000032   0.002729   0.000075  -0.000006
     6  C    0.000088   0.000029   0.000011  -0.000406  -0.000110   0.000005
     7  H    0.000000  -0.000012  -0.000024   0.000048   0.000011  -0.000002
     8  H   -0.000003  -0.000018   0.003025  -0.000410   0.000004   0.000335
     9  H    0.007499   0.000126  -0.000009   0.000041  -0.000163   0.000019
    10  H   -0.000057  -0.000001   0.000000   0.000011   0.000008   0.000000
    11  C    0.010254  -0.034766  -0.000586  -0.006908  -0.000420   0.012309
    12  H   -0.000073   0.002224   0.004603  -0.000705  -0.000409  -0.000145
    13  H    0.001574   0.004153   0.000220   0.000391  -0.000152  -0.000178
    14  C   -0.073057   0.126196  -0.023350  -0.096341   0.003447  -0.091362
    15  H    0.002917  -0.044731   0.001528   0.005523   0.001032  -0.001643
    16  C    0.731155  -0.035859   0.002379   0.265940  -0.029707   0.002616
    17  O    0.000000   0.000000   0.000000  -0.000001   0.000000   0.000000
    18  H    0.000000   0.000000   0.000000  -0.000001   0.000000   0.000000
    19  O    7.827409   0.005282  -0.000267  -0.129338   0.005413  -0.000549
    20  N    0.005282   6.708217   0.359561   0.007585   0.023593   0.321225
    21  H   -0.000267   0.359561   0.498468  -0.000945  -0.000835  -0.017766
    22  N   -0.129338   0.007585  -0.000945   6.524382   0.378485   0.009932
    23  H    0.005413   0.023593  -0.000835   0.378485   0.524541  -0.004921
    24  C   -0.000549   0.321225  -0.017766   0.009932  -0.004921   4.607047
    25  C   -0.000003  -0.064458  -0.002852  -0.000425   0.000524   0.273411
    26  H    0.000000   0.000340  -0.000268   0.000003   0.000138  -0.028134
    27  H   -0.000002  -0.001425   0.000610   0.000260  -0.000487  -0.021121
    28  H    0.000001   0.013075  -0.000634   0.000098   0.000125  -0.058196
    29  C    0.004394  -0.001692   0.000102   0.287005  -0.033732  -0.000052
    30  H    0.003563  -0.000031   0.000009  -0.058938   0.000037   0.000139
    31  H    0.001445  -0.000174   0.000027  -0.028113  -0.007827  -0.000060
    32  H    0.007266  -0.000250   0.000003  -0.040368   0.003929  -0.000290
    33  O   -0.000241  -0.137200   0.004390  -0.005795  -0.002961   0.725422
              25         26         27         28         29         30
     1  C   -0.000004   0.000000   0.000000  -0.000005   0.000795  -0.000502
     2  C   -0.000050   0.000002  -0.000008  -0.000033   0.000193  -0.000607
     3  C   -0.000071   0.000001   0.000006   0.000086  -0.000006  -0.002041
     4  C    0.000008   0.000000   0.000000   0.000002  -0.000661   0.003801
     5  C    0.000000   0.000000   0.000000   0.000000  -0.000993  -0.002478
     6  C    0.000000   0.000000   0.000000   0.000000   0.000060   0.000999
     7  H   -0.000001   0.000000   0.000000   0.000000   0.000012  -0.000022
     8  H    0.000125   0.000002  -0.000020   0.000001  -0.000031   0.000007
     9  H    0.000000   0.000000   0.000000   0.000000   0.000108   0.000551
    10  H    0.000000   0.000000   0.000000   0.000000   0.000023  -0.000091
    11  C    0.000222   0.000022  -0.000004  -0.000227  -0.000668   0.000962
    12  H   -0.000198  -0.000030   0.000027  -0.000034   0.000064   0.000010
    13  H    0.000019  -0.000003  -0.000001   0.000001  -0.000001  -0.000014
    14  C    0.007716  -0.000196  -0.000425   0.001043   0.009479  -0.001986
    15  H    0.001905   0.000143  -0.000186  -0.000237  -0.000619  -0.000135
    16  C   -0.001688  -0.000171   0.000510  -0.000183  -0.051954   0.003058
    17  O    0.000000   0.000000   0.000000   0.000000  -0.000031   0.000052
    18  H    0.000000   0.000000   0.000000   0.000000   0.000001   0.000000
    19  O   -0.000003   0.000000  -0.000002   0.000001   0.004394   0.003563
    20  N   -0.064458   0.000340  -0.001425   0.013075  -0.001692  -0.000031
    21  H   -0.002852  -0.000268   0.000610  -0.000634   0.000102   0.000009
    22  N   -0.000425   0.000003   0.000260   0.000098   0.287005  -0.058938
    23  H    0.000524   0.000138  -0.000487   0.000125  -0.033732   0.000037
    24  C    0.273411  -0.028134  -0.021121  -0.058196  -0.000052   0.000139
    25  C    5.004489   0.391647   0.380688   0.395838  -0.000053  -0.000001
    26  H    0.391647   0.559622  -0.023196  -0.024984  -0.000002   0.000000
    27  H    0.380688  -0.023196   0.572141  -0.027835   0.000015   0.000002
    28  H    0.395838  -0.024984  -0.027835   0.600756   0.000002   0.000000
    29  C   -0.000053  -0.000002   0.000015   0.000002   4.797787   0.394529
    30  H   -0.000001   0.000000   0.000002   0.000000   0.394529   0.617336
    31  H   -0.000010   0.000000   0.000010   0.000000   0.393804  -0.030267
    32  H   -0.000007   0.000000   0.000000   0.000000   0.400628  -0.052200
    33  O   -0.068623   0.001789   0.001337   0.004550   0.000175   0.000001
              31         32         33
     1  C    0.000127   0.000022   0.000000
     2  C   -0.000095   0.000043   0.000028
     3  C    0.000088   0.000252  -0.000126
     4  C   -0.000110  -0.000269  -0.000003
     5  C    0.000077   0.000187   0.000000
     6  C   -0.000043  -0.000020   0.000000
     7  H    0.000005   0.000001   0.000000
     8  H   -0.000003   0.000000   0.000015
     9  H   -0.000005  -0.000091   0.000000
    10  H    0.000001   0.000009   0.000000
    11  C   -0.000068  -0.000299   0.001603
    12  H    0.000001   0.000001  -0.000143
    13  H   -0.000002  -0.000001   0.000030
    14  C    0.000684   0.001971   0.010076
    15  H   -0.000003   0.000061   0.014139
    16  C    0.008476  -0.008742   0.004225
    17  O   -0.000002  -0.000001   0.000000
    18  H    0.000000   0.000000   0.000000
    19  O    0.001445   0.007266  -0.000241
    20  N   -0.000174  -0.000250  -0.137200
    21  H    0.000027   0.000003   0.004390
    22  N   -0.028113  -0.040368  -0.005795
    23  H   -0.007827   0.003929  -0.002961
    24  C   -0.000060  -0.000290   0.725422
    25  C   -0.000010  -0.000007  -0.068623
    26  H    0.000000   0.000000   0.001789
    27  H    0.000010   0.000000   0.001337
    28  H    0.000000   0.000000   0.004550
    29  C    0.393804   0.400628   0.000175
    30  H   -0.030267  -0.052200   0.000001
    31  H    0.598023  -0.024089   0.000011
    32  H   -0.024089   0.583071   0.000173
    33  O    0.000011   0.000173   7.826985
 Mulliken charges:
               1
     1  C   -0.250068
     2  C   -0.303845
     3  C    0.178696
     4  C   -0.193794
     5  C   -0.184832
     6  C    0.298931
     7  H    0.118366
     8  H    0.177910
     9  H    0.169363
    10  H    0.133267
    11  C   -0.419696
    12  H    0.195468
    13  H    0.182293
    14  C   -0.057991
    15  H    0.196866
    16  C    0.243307
    17  O   -0.290372
    18  H    0.187653
    19  O   -0.391329
    20  N   -0.246085
    21  H    0.170396
    22  N   -0.108658
    23  H    0.137014
    24  C    0.273305
    25  C   -0.318149
    26  H    0.123274
    27  H    0.119104
    28  H    0.096790
    29  C   -0.198684
    30  H    0.124256
    31  H    0.088092
    32  H    0.129008
    33  O   -0.379858
 Sum of Mulliken charges =   0.00000
 Mulliken charges with hydrogens summed into heavy atoms:
               1
     1  C   -0.131702
     2  C   -0.125935
     3  C    0.178696
     4  C   -0.024432
     5  C   -0.051564
     6  C    0.298931
    11  C   -0.041935
    14  C    0.138875
    16  C    0.243307
    17  O   -0.102719
    19  O   -0.391329
    20  N   -0.075689
    22  N    0.028356
    24  C    0.273305
    25  C    0.021019
    29  C    0.142673
    33  O   -0.379858
 Electronic spatial extent (au):  <R**2>=           4453.1625
 Charge=              0.0000 electrons
 Dipole moment (field-independent basis, Debye):
    X=              1.9118    Y=             -6.1568    Z=             -3.2149  Tot=              7.2040
 Quadrupole moment (field-independent basis, Debye-Ang):
   XX=           -109.7914   YY=           -100.4228   ZZ=            -91.8004
   XY=              9.4135   XZ=             -1.9686   YZ=             -0.0730
 Traceless Quadrupole moment (field-independent basis, Debye-Ang):
   XX=             -9.1199   YY=              0.2487   ZZ=              8.8712
   XY=              9.4135   XZ=             -1.9686   YZ=             -0.0730
 Octapole moment (field-independent basis, Debye-Ang**2):
  XXX=             27.1536  YYY=            -17.4675  ZZZ=            -17.5839  XYY=              5.3417
  XXY=            -52.9850  XXZ=            -28.8101  XZZ=              4.3659  YZZ=             -1.1645
  YYZ=            -25.4972  XYZ=             18.5185
 Hexadecapole moment (field-independent basis, Debye-Ang**3):
 XXXX=          -4156.5028 YYYY=          -1086.6734 ZZZZ=           -729.1459 XXXY=             67.0045
 XXXZ=            -87.2521 YYYX=             11.7798 YYYZ=            -22.1472 ZZZX=            -51.3570
 ZZZY=             14.0954 XXYY=           -771.6485 XXZZ=           -702.5608 YYZZ=           -301.3311
 XXYZ=            100.9073 YYXZ=            -19.6285 ZZXY=            -19.9650
 N-N= 1.243401597230D+03 E-N=-4.357013241862D+03  KE= 7.961864134905D+02
 Calculating spin-rotation constants.
 Leave Link  601 at Wed Jun 25 07:30:07 2014, MaxMem=  4294967296 cpu:        93.2
 (Enter /home/ztw1e12/g09/l9999.exe)

 Test job not archived.
 1\1\GINC-GREEN0147\SP\RM06\Gen\C12H16N2O3\ROOT\25-Jun-2014\0\\#P Geom=
 AllCheck Guess=TCheck SCRF=Check GenChk RM06/ChkBas NMR=ReadFC IOp(3/6
 =22)\\NMR spin-spin scan\\0,1\C,0,2.623394,0.065652,1.111472\C,0,1.862
 667,0.069827,-0.043813\C,0,1.087635,-1.027043,-0.405914\C,0,1.111561,-
 2.144768,0.420696\C,0,1.868839,-2.167012,1.577944\C,0,2.622576,-1.0565
 17,1.927158\H,0,3.225458,0.924285,1.386055\H,0,1.868205,0.949165,-0.67
 9793\H,0,0.521175,-3.014286,0.154829\H,0,1.886872,-3.04019,2.217693\C,
 0,0.200964,-0.970566,-1.61388\H,0,0.691385,-0.448792,-2.437646\H,0,0.0
 02129,-1.987521,-1.954854\C,0,-1.16425,-0.295798,-1.369446\H,0,-1.8901
 71,-0.745747,-2.051698\C,0,-1.677717,-0.63172,0.016503\O,0,3.352965,-1
 .120193,3.075171\H,0,3.825482,-0.289351,3.199374\O,0,-2.142789,-1.7518
 65,0.224596\N,0,-1.094361,1.11716,-1.671991\H,0,-0.189186,1.537107,-1.
 821381\N,0,-1.561396,0.29466,0.967521\H,0,-1.101646,1.161767,0.73768\C
 ,0,-2.201726,1.868018,-1.828856\C,0,-1.989271,3.301499,-2.187145\H,0,-
 2.510648,3.508689,-3.12149\H,0,-2.442467,3.924533,-1.416333\H,0,-0.939
 999,3.568835,-2.293436\C,0,-1.8542,-0.008131,2.349855\H,0,-1.176361,-0
 .772948,2.736181\H,0,-1.74153,0.894833,2.942124\H,0,-2.875863,-0.37082
 6,2.457557\O,0,-3.326883,1.394775,-1.685866\\Version=EM64L-G09RevD.01\
 State=1-A\HF=-801.861326\RMSD=4.382e-09\Dipole=2.1214168,1.8789109,0.0
 479976\Quadrupole=-10.561426,4.5250766,6.0363494,2.0704871,-2.3081376,
 1.427548\PG=C01 [X(C12H16N2O3)]\\@


 IT IS A CAPITAL MISTAKE TO THEORIZE BEFORE ONE HAS
 DATA.  INSENSIBLY ONE BEGINS TO TWIST FACTS TO SUIT
 THEORIES RATHER THAN THEORIES TO SUIT FACTS.

                                         -- SHERLOCK HOLMES
 Job cpu time:       3 days 14 hours 45 minutes 16.6 seconds.
 File lengths (MBytes):  RWF=   3656 Int=      0 D2E=      0 Chk=     64 Scr=      8
 Normal termination of Gaussian 09 at Wed Jun 25 07:30:07 2014.
