 Entering Gaussian System, Link 0=g09
 Input=scan_input_18.gjf
 Output=scan_input_18.log
 Initial command:
 /home/ztw1e12/g09/l1.exe "/home/ztw1e12/tyrosine_scan/tyrosine_chi1_scan/Gau-15256.inp" -scrdir="/home/ztw1e12/tyrosine_scan/tyrosine_chi1_scan/"
 Default is to use a total of   8 processors:
                                8 via shared-memory
                                1 via Linda
 Entering Link 1 = /home/ztw1e12/g09/l1.exe PID=     15257.
  
 Copyright (c) 1988,1990,1992,1993,1995,1998,2003,2009,2013,
            Gaussian, Inc.  All Rights Reserved.
  
 This is part of the Gaussian(R) 09 program.  It is based on
 the Gaussian(R) 03 system (copyright 2003, Gaussian, Inc.),
 the Gaussian(R) 98 system (copyright 1998, Gaussian, Inc.),
 the Gaussian(R) 94 system (copyright 1995, Gaussian, Inc.),
 the Gaussian 92(TM) system (copyright 1992, Gaussian, Inc.),
 the Gaussian 90(TM) system (copyright 1990, Gaussian, Inc.),
 the Gaussian 88(TM) system (copyright 1988, Gaussian, Inc.),
 the Gaussian 86(TM) system (copyright 1986, Carnegie Mellon
 University), and the Gaussian 82(TM) system (copyright 1983,
 Carnegie Mellon University). Gaussian is a federally registered
 trademark of Gaussian, Inc.
  
 This software contains proprietary and confidential information,
 including trade secrets, belonging to Gaussian, Inc.
  
 This software is provided under written license and may be
 used, copied, transmitted, or stored only in accord with that
 written license.
  
 The following legend is applicable only to US Government
 contracts under FAR:
  
                    RESTRICTED RIGHTS LEGEND
  
 Use, reproduction and disclosure by the US Government is
 subject to restrictions as set forth in subparagraphs (a)
 and (c) of the Commercial Computer Software - Restricted
 Rights clause in FAR 52.227-19.
  
 Gaussian, Inc.
 340 Quinnipiac St., Bldg. 40, Wallingford CT 06492
  
  
 ---------------------------------------------------------------
 Warning -- This program may not be used in any manner that
 competes with the business of Gaussian, Inc. or will provide
 assistance to any competitor of Gaussian, Inc.  The licensee
 of this program is prohibited from giving any competitor of
 Gaussian, Inc. access to this program.  By using this program,
 the user acknowledges that Gaussian, Inc. is engaged in the
 business of creating and licensing software in the field of
 computational chemistry and represents and warrants to the
 licensee that it is not a competitor of Gaussian, Inc. and that
 it will not use this program in any manner prohibited above.
 ---------------------------------------------------------------
  

 Cite this work as:
 Gaussian 09, Revision D.01,
 M. J. Frisch, G. W. Trucks, H. B. Schlegel, G. E. Scuseria, 
 M. A. Robb, J. R. Cheeseman, G. Scalmani, V. Barone, B. Mennucci, 
 G. A. Petersson, H. Nakatsuji, M. Caricato, X. Li, H. P. Hratchian, 
 A. F. Izmaylov, J. Bloino, G. Zheng, J. L. Sonnenberg, M. Hada, 
 M. Ehara, K. Toyota, R. Fukuda, J. Hasegawa, M. Ishida, T. Nakajima, 
 Y. Honda, O. Kitao, H. Nakai, T. Vreven, J. A. Montgomery, Jr., 
 J. E. Peralta, F. Ogliaro, M. Bearpark, J. J. Heyd, E. Brothers, 
 K. N. Kudin, V. N. Staroverov, T. Keith, R. Kobayashi, J. Normand, 
 K. Raghavachari, A. Rendell, J. C. Burant, S. S. Iyengar, J. Tomasi, 
 M. Cossi, N. Rega, J. M. Millam, M. Klene, J. E. Knox, J. B. Cross, 
 V. Bakken, C. Adamo, J. Jaramillo, R. Gomperts, R. E. Stratmann, 
 O. Yazyev, A. J. Austin, R. Cammi, C. Pomelli, J. W. Ochterski, 
 R. L. Martin, K. Morokuma, V. G. Zakrzewski, G. A. Voth, 
 P. Salvador, J. J. Dannenberg, S. Dapprich, A. D. Daniels, 
 O. Farkas, J. B. Foresman, J. V. Ortiz, J. Cioslowski, 
 and D. J. Fox, Gaussian, Inc., Wallingford CT, 2013.
 
 ******************************************
 Gaussian 09:  EM64L-G09RevD.01 24-Apr-2013
                24-Jun-2014 
 ******************************************
 %Mem=32GB
 %NProcShared=16
 Will use up to   16 processors via shared memory.
 Default route:  MaxDisk=100GB
 ----------------------------------------------------------------------
 #p nmr=(giao,mixed,spinspin) m06/cc-pvtz scf=tight integral=(grid=ultr
 afine)
 ----------------------------------------------------------------------
 1/38=1/1;
 2/12=2,17=6,18=5,40=1/2;
 3/5=16,6=1,10=1100000,11=2,16=1,25=1,30=1,74=-54,75=-5/1,2,8,3;
 4//1;
 5/5=2,32=2,38=5/2;
 8/6=1,10=90,11=11/1;
 10/13=100,45=16,47=3/2;
 6/7=2,8=2,9=2,10=2,28=1/1;
 99/9=1/99;
 Leave Link    1 at Tue Jun 24 16:38:19 2014, MaxMem=  4294967296 cpu:         5.7
 (Enter /home/ztw1e12/g09/l101.exe)
 ------------------
 NMR spin-spin scan
 ------------------
 Symbolic Z-matrix:
 Charge =  0 Multiplicity = 1
 C                     2.42625  -0.46616   1.77337 
 C                     1.79191  -0.03713   0.62073 
 C                     1.25285  -0.94106  -0.28626 
 C                     1.38177  -2.2979   -0.01252 
 C                     2.01332  -2.74487   1.13277 
 C                     2.53073  -1.82479   2.03319 
 H                     2.84651   0.24537   2.47508 
 H                     1.71115   1.02641   0.42194 
 H                     0.9683   -3.01883  -0.70915 
 H                     2.10984  -3.8023    1.34366 
 C                     0.50848  -0.46287  -1.4957 
 H                     0.99616   0.44302  -1.86469 
 H                     0.57865  -1.20252  -2.29281 
 C                    -0.99167  -0.12874  -1.27413 
 H                    -1.60621  -0.88897  -1.7597 
 C                    -1.36586  -0.21426   0.19685 
 O                     3.1384   -2.30653   3.15337 
 H                     3.43834  -1.57073   3.69926 
 O                    -1.65998  -1.30091   0.69113 
 N                    -1.30085   1.15744  -1.85822 
 H                    -0.5453    1.77706  -2.10825 
 N                    -1.31053   0.91254   0.91018 
 H                    -0.98516   1.75194   0.45667 
 C                    -2.57148   1.56275  -2.04782 
 C                    -2.75526   2.91301  -2.65778 
 H                    -3.34505   2.8093   -3.56822 
 H                    -3.32844   3.53313  -1.96877 
 H                    -1.8165    3.41044  -2.89228 
 C                    -1.40872   0.88818   2.35166 
 H                    -0.61224   0.28041   2.78877 
 H                    -1.32621   1.9028    2.72975 
 H                    -2.36593   0.47592   2.66941 
 O                    -3.52643   0.8564   -1.73261 
 
 NAtoms=     33 NQM=       33 NQMF=       0 NMMI=      0 NMMIF=      0
                NMic=       0 NMicF=      0.
                    Isotopes and Nuclear Properties:
 (Nuclear quadrupole moments (NQMom) in fm**2, nuclear magnetic moments (NMagM)
  in nuclear magnetons)

  Atom         1           2           3           4           5           6           7           8           9          10
 IAtWgt=          12          12          12          12          12          12           1           1           1           1
 AtmWgt=  12.0000000  12.0000000  12.0000000  12.0000000  12.0000000  12.0000000   1.0078250   1.0078250   1.0078250   1.0078250
 NucSpn=           0           0           0           0           0           0           1           1           1           1
 AtZEff=   0.0000000   0.0000000   0.0000000   0.0000000   0.0000000   0.0000000   0.0000000   0.0000000   0.0000000   0.0000000
 NQMom=    0.0000000   0.0000000   0.0000000   0.0000000   0.0000000   0.0000000   0.0000000   0.0000000   0.0000000   0.0000000
 NMagM=    0.0000000   0.0000000   0.0000000   0.0000000   0.0000000   0.0000000   2.7928460   2.7928460   2.7928460   2.7928460
 AtZNuc=   6.0000000   6.0000000   6.0000000   6.0000000   6.0000000   6.0000000   1.0000000   1.0000000   1.0000000   1.0000000

  Atom        11          12          13          14          15          16          17          18          19          20
 IAtWgt=          12           1           1          12           1          12          16           1          16          14
 AtmWgt=  12.0000000   1.0078250   1.0078250  12.0000000   1.0078250  12.0000000  15.9949146   1.0078250  15.9949146  14.0030740
 NucSpn=           0           1           1           0           1           0           0           1           0           2
 AtZEff=   0.0000000   0.0000000   0.0000000   0.0000000   0.0000000   0.0000000   0.0000000   0.0000000   0.0000000   0.0000000
 NQMom=    0.0000000   0.0000000   0.0000000   0.0000000   0.0000000   0.0000000   0.0000000   0.0000000   0.0000000   2.0440000
 NMagM=    0.0000000   2.7928460   2.7928460   0.0000000   2.7928460   0.0000000   0.0000000   2.7928460   0.0000000   0.4037610
 AtZNuc=   6.0000000   1.0000000   1.0000000   6.0000000   1.0000000   6.0000000   8.0000000   1.0000000   8.0000000   7.0000000

  Atom        21          22          23          24          25          26          27          28          29          30
 IAtWgt=           1          14           1          12          12           1           1           1          12           1
 AtmWgt=   1.0078250  14.0030740   1.0078250  12.0000000  12.0000000   1.0078250   1.0078250   1.0078250  12.0000000   1.0078250
 NucSpn=           1           2           1           0           0           1           1           1           0           1
 AtZEff=   0.0000000   0.0000000   0.0000000   0.0000000   0.0000000   0.0000000   0.0000000   0.0000000   0.0000000   0.0000000
 NQMom=    0.0000000   2.0440000   0.0000000   0.0000000   0.0000000   0.0000000   0.0000000   0.0000000   0.0000000   0.0000000
 NMagM=    2.7928460   0.4037610   2.7928460   0.0000000   0.0000000   2.7928460   2.7928460   2.7928460   0.0000000   2.7928460
 AtZNuc=   1.0000000   7.0000000   1.0000000   6.0000000   6.0000000   1.0000000   1.0000000   1.0000000   6.0000000   1.0000000

  Atom        31          32          33
 IAtWgt=           1           1          16
 AtmWgt=   1.0078250   1.0078250  15.9949146
 NucSpn=           1           1           0
 AtZEff=   0.0000000   0.0000000   0.0000000
 NQMom=    0.0000000   0.0000000   0.0000000
 NMagM=    2.7928460   2.7928460   0.0000000
 AtZNuc=   1.0000000   1.0000000   8.0000000
 Leave Link  101 at Tue Jun 24 16:38:19 2014, MaxMem=  4294967296 cpu:         2.0
 (Enter /home/ztw1e12/g09/l202.exe)
                          Input orientation:                          
 ---------------------------------------------------------------------
 Center     Atomic      Atomic             Coordinates (Angstroms)
 Number     Number       Type             X           Y           Z
 ---------------------------------------------------------------------
      1          6           0        2.426246   -0.466161    1.773365
      2          6           0        1.791907   -0.037127    0.620729
      3          6           0        1.252853   -0.941061   -0.286260
      4          6           0        1.381769   -2.297902   -0.012520
      5          6           0        2.013319   -2.744865    1.132766
      6          6           0        2.530732   -1.824794    2.033192
      7          1           0        2.846509    0.245373    2.475080
      8          1           0        1.711148    1.026405    0.421939
      9          1           0        0.968297   -3.018830   -0.709151
     10          1           0        2.109837   -3.802299    1.343664
     11          6           0        0.508478   -0.462867   -1.495697
     12          1           0        0.996164    0.443023   -1.864689
     13          1           0        0.578652   -1.202522   -2.292811
     14          6           0       -0.991671   -0.128744   -1.274129
     15          1           0       -1.606208   -0.888969   -1.759701
     16          6           0       -1.365856   -0.214264    0.196845
     17          8           0        3.138401   -2.306529    3.153370
     18          1           0        3.438340   -1.570729    3.699264
     19          8           0       -1.659979   -1.300914    0.691126
     20          7           0       -1.300847    1.157436   -1.858220
     21          1           0       -0.545298    1.777055   -2.108250
     22          7           0       -1.310530    0.912535    0.910180
     23          1           0       -0.985158    1.751940    0.456667
     24          6           0       -2.571475    1.562745   -2.047821
     25          6           0       -2.755264    2.913007   -2.657775
     26          1           0       -3.345051    2.809303   -3.568218
     27          1           0       -3.328440    3.533130   -1.968769
     28          1           0       -1.816499    3.410442   -2.892282
     29          6           0       -1.408723    0.888181    2.351657
     30          1           0       -0.612244    0.280413    2.788771
     31          1           0       -1.326208    1.902804    2.729750
     32          1           0       -2.365932    0.475920    2.669410
     33          8           0       -3.526428    0.856397   -1.732610
 ---------------------------------------------------------------------
                    Distance matrix (angstroms):
                    1          2          3          4          5
     1  C    0.000000
     2  C    1.383845   0.000000
     3  C    2.417527   1.389354   0.000000
     4  C    2.763258   2.383342   1.390169   0.000000
     5  C    2.402783   2.764607   2.417778   1.382140   0.000000
     6  C    1.387195   2.395134   2.791741   2.393509   1.387449
     7  H    1.084115   2.151885   3.401818   3.847319   3.381943
     8  H    2.136696   1.084961   2.140678   3.368718   3.849553
     9  H    3.847677   3.367116   2.139377   1.084431   2.135366
    10  H    3.378546   3.847107   3.402610   2.152331   1.082571
    11  C    3.790067   2.511514   1.498500   2.515910   3.792213
    12  H    4.013376   2.653498   2.114951   3.330449   4.492435
    13  H    4.526546   3.364350   2.132875   2.654163   4.021401
    14  C    4.591647   3.368559   2.583337   3.454001   4.654804
    15  H    5.377918   4.235477   3.216826   3.737076   4.991161
    16  C    4.114475   3.191006   2.760301   3.454681   4.324201
    17  O    2.408014   3.657527   4.153414   3.620592   2.353888
    18  H    2.439978   3.813142   4.588816   4.305300   3.161676
    19  O    4.308746   3.676633   3.093439   3.277397   3.971544
    20  N    5.451211   4.139722   3.660073   4.747884   5.929388
    21  H    5.378571   4.025060   3.733785   4.971011   6.123599
    22  N    4.075461   3.257415   3.382044   4.290309   4.947130
    23  H    4.276838   3.307532   3.579509   4.714202   5.446947
    24  C    6.610230   5.359091   4.898737   5.888564   7.049253
    25  C    7.609325   6.334717   6.045074   7.160027   8.313790
    26  H    8.518747   7.213722   6.780649   7.814689   9.036601
    27  H    7.944451   6.757972   6.620987   7.746865   8.807220
    28  H    7.402513   6.103079   5.928562   7.148926   8.291943
    29  C    4.107998   3.754509   4.169978   4.850495   5.137615
    30  H    3.289505   3.252873   3.798210   4.297793   4.334540
    31  H    4.539557   4.234849   4.882155   5.700800   5.941685
    32  H    4.965419   4.663468   4.882563   5.378857   5.649121
    33  O    7.033871   5.883985   5.307006   6.082656   7.201963
                    6          7          8          9         10
     6  C    0.000000
     7  H    2.140227   0.000000
     8  H    3.375972   2.472740   0.000000
     9  H    3.374518   4.931737   4.265574   0.000000
    10  H    2.136148   4.266900   4.932029   2.476083   0.000000
    11  C    4.289221   4.662088   2.709552   2.713491   4.666704
    12  H    4.763546   4.721910   2.465807   3.649722   5.436594
    13  H    4.786663   5.474702   3.690600   2.441061   4.725179
    14  C    5.120770   5.378490   3.393560   3.537410   5.474230
    15  H    5.689998   6.248743   4.408295   3.502576   5.650430
    16  C    4.598845   4.810992   3.325339   3.759613   5.125391
    17  O    1.362398   2.656592   4.539407   4.487292   2.563261
    18  H    1.914183   2.268726   4.524285   5.256637   3.506234
    19  O    4.431439   5.087429   4.105286   3.438000   4.571022
    20  N    6.222361   6.067117   3.780001   4.889844   6.817903
    21  H    6.291806   5.904009   3.472302   5.220054   7.077757
    22  N    4.848651   4.491658   3.062986   4.823994   5.840931
    23  H    5.257370   4.585347   2.792431   5.285392   6.419917
    24  C    7.359525   7.179600   4.972749   5.942462   7.886733
    25  C    8.508448   8.052474   5.743931   7.269713   9.207391
    26  H    9.347485   9.023891   6.683205   7.793996   9.879052
    27  H    8.891172   8.287770   6.115276   7.935790   9.713680
    28  H    8.400381   7.782665   5.395552   7.338712   9.240291
    29  C    4.793846   4.305280   3.671037   5.503045   5.949531
    30  H    3.857602   3.473126   3.399492   5.061479   5.115330
    31  H    5.408897   4.497055   3.914026   6.427540   6.802635
    32  H    5.447511   5.221155   4.687936   5.894492   6.331925
    33  O    7.619661   7.661092   5.665967   6.022243   7.933120
                   11         12         13         14         15
    11  C    0.000000
    12  H    1.092991   0.000000
    13  H    1.089681   1.750835   0.000000
    14  C    1.552797   2.151085   2.157922   0.000000
    15  H    2.173283   2.925332   2.270712   1.091503   0.000000
    16  C    2.537643   3.203293   3.310008   1.520228   2.083523
    17  O    5.650611   6.109839   6.118172   6.434515   6.975604
    18  H    6.066224   6.401327   6.649688   6.814613   7.464085
    19  O    3.191665   4.077818   3.731626   2.383872   2.485788
    20  N    2.455700   2.405553   3.048079   1.446033   2.071406
    21  H    2.550081   2.053063   3.189860   2.127693   2.890450
    22  N    3.314931   3.638843   4.278040   2.440725   3.234363
    23  H    3.308783   3.320782   4.328276   2.555909   3.503197
    24  C    3.727473   3.743710   4.198812   2.440392   2.650595
    25  C    4.837247   4.561033   5.309028   3.778490   4.072086
    26  H    5.463710   5.229478   5.754724   4.408329   4.468951
    27  H    5.560012   5.316182   6.147908   4.399129   4.750237
    28  H    4.728477   4.215756   5.232165   3.978014   4.451056
    29  C    4.505899   4.874343   5.467338   3.788719   4.483361
    30  H    4.490562   4.926267   5.425846   4.101040   4.800418
    31  H    5.178501   5.351004   6.204648   4.502238   5.294107
    32  H    5.147006   5.644717   6.009274   4.219681   4.696502
    33  O    4.251712   4.543365   4.626516   2.757843   2.595049
                   16         17         18         19         20
    16  C    0.000000
    17  O    5.779874   0.000000
    18  H    6.098134   0.964036   0.000000
    19  O    1.229484   5.486197   5.925753   0.000000
    20  N    2.471655   7.538038   7.796692   3.559723   0.000000
    21  H    3.154700   7.611172   7.797708   4.307309   1.008611
    22  N    1.334760   5.931885   6.041304   2.251545   2.779228
    23  H    2.019504   6.383347   6.412636   3.135326   2.410767
    24  C    3.106413   8.638655   8.886255   4.066104   1.347115
    25  C    4.456359   9.785103   9.943670   5.492897   2.415915
    26  H    5.218704  10.648316  10.863488   6.154296   3.135527
    27  H    4.752324  10.107322  10.196337   5.764268   3.125264
    28  H    4.783751   9.684250   9.791521   5.921333   2.532038
    29  C    2.420834   5.614735   5.599670   2.759099   4.219858
    30  H    2.744215   4.570836   4.545652   2.828155   4.778898
    31  H    3.301387   6.150664   5.975475   3.811981   4.648192
    32  H    2.755011   6.186592   6.240108   2.751203   4.700883
    33  O    3.088233   8.848551   9.159923   3.743276   2.249358
                   21         22         23         24         25
    21  H    0.000000
    22  N    3.231701   0.000000
    23  H    2.602481   1.008039   0.000000
    24  C    2.038375   3.280629   2.970632   0.000000
    25  C    2.544860   4.338139   3.765780   1.492994   0.000000
    26  H    3.321996   5.271912   4.784016   2.112802   1.089729
    27  H    3.293802   4.384955   3.813968   2.112265   1.089868
    28  H    2.213281   4.577582   3.828474   2.167276   1.087987
    29  C    4.628863   1.445023   2.125200   4.600265   5.568438
    30  H    5.121058   2.101496   2.782654   5.373601   6.417784
    31  H    4.902232   2.071645   2.303472   4.948890   5.664639
    32  H    5.275765   2.097474   2.903618   4.845173   5.871105
    33  O    3.142587   3.449303   3.471741   1.228910   2.383331
                   26         27         28         29         30
    26  H    0.000000
    27  H    1.755687   0.000000
    28  H    1.776156   1.775921   0.000000
    29  C    6.518052   5.417301   5.833265   0.000000
    30  H    7.367145   6.371191   6.597096   1.093083   0.000000
    31  H    6.675468   5.361248   5.841284   1.085920   1.773522
    32  H    6.731371   5.637877   6.312346   1.089576   1.768585
    33  O    2.686298   2.694415   3.285094   4.600752   5.409909
                   31         32         33
    31  H    0.000000
    32  H    1.766540   0.000000
    33  O    5.084151   4.568292   0.000000
 Stoichiometry    C12H16N2O3
 Framework group  C1[X(C12H16N2O3)]
 Deg. of freedom    93
 Full point group                 C1      NOp   1
 Largest Abelian subgroup         C1      NOp   1
 Largest concise Abelian subgroup C1      NOp   1
                         Standard orientation:                         
 ---------------------------------------------------------------------
 Center     Atomic      Atomic             Coordinates (Angstroms)
 Number     Number       Type             X           Y           Z
 ---------------------------------------------------------------------
      1          6           0        2.831089    0.277427   -1.240825
      2          6           0        1.572742   -0.298232   -1.255149
      3          6           0        1.159002   -1.155375   -0.243008
      4          6           0        2.053464   -1.434747    0.783860
      5          6           0        3.314719   -0.870265    0.813992
      6          6           0        3.702071   -0.004444   -0.198593
      7          1           0        3.147496    0.943399   -2.035604
      8          1           0        0.894086   -0.074097   -2.071439
      9          1           0        1.749039   -2.102341    1.582381
     10          1           0        4.007768   -1.088454    1.616511
     11          6           0       -0.229862   -1.717937   -0.233994
     12          1           0       -0.525583   -1.922413   -1.266161
     13          1           0       -0.241268   -2.673501    0.289620
     14          6           0       -1.320582   -0.807750    0.392956
     15          1           0       -1.634659   -1.227868    1.350158
     16          6           0       -0.764066    0.563848    0.739511
     17          8           0        4.950377    0.536645   -0.127292
     18          1           0        5.089011    1.127408   -0.876389
     19          8           0       -0.179492    0.734899    1.807521
     20          7           0       -2.469840   -0.742573   -0.482241
     21          1           0       -2.376940   -1.051731   -1.437797
     22          7           0       -0.897828    1.528431   -0.173326
     23          1           0       -1.318813    1.295588   -1.059158
     24          6           0       -3.652111   -0.250482   -0.064147
     25          6           0       -4.758853   -0.236463   -1.066122
     26          1           0       -5.599206   -0.804996   -0.668521
     27          1           0       -5.096637    0.791052   -1.200023
     28          1           0       -4.470686   -0.648189   -2.031087
     29          6           0       -0.194390    2.783663   -0.040444
     30          1           0        0.886641    2.625605   -0.005501
     31          1           0       -0.431368    3.414652   -0.891864
     32          1           0       -0.492967    3.302380    0.870028
     33          8           0       -3.807331    0.165587    1.081721
 ---------------------------------------------------------------------
 Rotational constants (GHZ):      1.0490841      0.2531732      0.2385151
 Leave Link  202 at Tue Jun 24 16:38:19 2014, MaxMem=  4294967296 cpu:         1.4
 (Enter /home/ztw1e12/g09/l301.exe)
 Standard basis: CC-pVTZ (5D, 7F)
 Converting basis for Fermi contact spin-spin IFCMod=1.
 AO basis functions are being uncontracted.
 Ernie: Thresh=  0.10000D-02 Tol=  0.10000D-05 Strict=F.
 There are  1305 symmetry adapted cartesian basis functions of A   symmetry.
 There are  1204 symmetry adapted basis functions of A   symmetry.
  1204 basis functions,  1305 primitive gaussians,  1305 cartesian basis functions
    63 alpha electrons       63 beta electrons
       nuclear repulsion energy      1236.1764455749 Hartrees.
 IExCor= 4235 DFT=T Ex+Corr=M06 ExCW=0 ScaHFX=  0.270000
 ScaDFX=  1.000000  1.000000  1.000000  1.000000 ScalE2=  1.000000  1.000000
 IRadAn= 199590 IRanWt=     -1 IRanGd=            0 ICorTp=0 IEmpDi=  4
 NAtoms=   33 NActive=   33 NUniq=   33 SFac= 1.00D+00 NAtFMM=   60 NAOKFM=F Big=F
 Integral buffers will be    131072 words long.
 Raffenetti 2 integral format.
 Two-electron integral symmetry is turned on.
 Leave Link  301 at Tue Jun 24 16:38:19 2014, MaxMem=  4294967296 cpu:         4.8
 (Enter /home/ztw1e12/g09/l302.exe)
 NPDir=0 NMtPBC=     1 NCelOv=     1 NCel=       1 NClECP=     1 NCelD=      1
         NCelK=      1 NCelE2=     1 NClLst=     1 CellRange=     0.0.
 One-electron integrals computed using PRISM.
 GSVD:  received Info=                   1 from GESDD.
 NBasis=  1204 RedAO= T EigKep=  2.42D-05  NBF=  1204
 NBsUse=  1068 1.00D-06 EigRej=  6.12D-15 NBFU=  1068
 Precomputing XC quadrature grid using
 IXCGrd= 4 IRadAn=      199590 IRanWt=          -1 IRanGd=           0 AccXCQ= 0.00D+00.
 Generated NRdTot=       0 NPtTot=           0 NUsed=           0 NTot=          32
 NSgBfM=   992   992   992   992   992 MxSgAt=    33 MxSgA2=    33.
 Leave Link  302 at Tue Jun 24 16:38:26 2014, MaxMem=  4294967296 cpu:        96.1
 (Enter /home/ztw1e12/g09/l308.exe)
 Leave Link  308 at Tue Jun 24 16:38:26 2014, MaxMem=  4294967296 cpu:         7.5
 (Enter /home/ztw1e12/g09/l303.exe)
 DipDrv:  MaxL=1.
 Leave Link  303 at Tue Jun 24 16:38:27 2014, MaxMem=  4294967296 cpu:         4.2
 (Enter /home/ztw1e12/g09/l401.exe)
 ExpMin= 1.03D-01 ExpMax= 1.38D+05 ExpMxC= 1.38D+05 IAcc=4 IRadAn=    199590 AccDes= 0.00D+00
 Harris functional with IExCor= 1009 and IRadAn=  199590 diagonalized for initial guess.
 HarFok:  IExCor= 1009 AccDes= 0.00D+00 IRadAn=    199590 IDoV= 1 UseB2=F ITyADJ=14
 ICtDFT=  3500011 ScaDFX=  1.000000  1.000000  1.000000  1.000000
 FoFCou: FMM=F IPFlag=           0 FMFlag=      100000 FMFlg1=           0
         NFxFlg=           0 DoJE=T BraDBF=F KetDBF=T FulRan=T
         wScrn=  0.000000 ICntrl=     500 IOpCl=  0 I1Cent=   200000004 NGrid=           0
         NMat0=    1 NMatS0=      1 NMatT0=    0 NMatD0=    1 NMtDS0=    0 NMtDT0=    0
 Petite list used in FoFCou.
 Harris En= -801.775974646366    
 JPrj=0 DoOrth=F DoCkMO=F.
 Leave Link  401 at Tue Jun 24 16:38:48 2014, MaxMem=  4294967296 cpu:       314.6
 (Enter /home/ztw1e12/g09/l502.exe)
 Closed shell SCF:
 Using DIIS extrapolation, IDIIS=  1040.
 Integral symmetry usage will be decided dynamically.
 IVT=     5158273 IEndB=     5158273 NGot=  4294967296 MDV=  4291529994
 LenX=  4291529994 LenY=  4289825664
 Requested convergence on RMS density matrix=1.00D-08 within 128 cycles.
 Requested convergence on MAX density matrix=1.00D-06.
 Requested convergence on             energy=1.00D-06.
 No special actions if energy rises.
 Fock matrices will be formed incrementally for  20 cycles.
 Integral accuracy reduced to 1.0D-05 until final iterations.

 Cycle   1  Pass 0  IDiag  1:
 FoFJK:  IHMeth= 1 ICntrl=       0 DoSepK=F KAlg= 0 I1Cent=   0 FoldK=F
 IRaf= 440000000 NMat=   1 IRICut=       1 DoRegI=T DoRafI=F ISym2E= 0.
 FoFCou: FMM=F IPFlag=           0 FMFlag=      100000 FMFlg1=           0
         NFxFlg=           0 DoJE=F BraDBF=F KetDBF=F FulRan=T
         wScrn=  0.000000 ICntrl=       0 IOpCl=  0 I1Cent=           0 NGrid=           0
         NMat0=    1 NMatS0=      1 NMatT0=    0 NMatD0=    1 NMtDS0=    0 NMtDT0=    0
 Symmetry not used in FoFCou.
 E= -801.442915085256    
 DIIS: error= 1.30D-01 at cycle   1 NSaved=   1.
 NSaved= 1 IEnMin= 1 EnMin= -801.442915085256     IErMin= 1 ErrMin= 1.30D-01
 ErrMax= 1.30D-01  0.00D+00 EMaxC= 1.00D-01 BMatC= 1.69D+01 BMatP= 1.69D+01
 IDIUse=3 WtCom= 0.00D+00 WtEn= 1.00D+00
 Coeff-Com:  0.100D+01
 Coeff-En:   0.100D+01
 Coeff:      0.100D+01
 Gap=     0.243 Goal=   None    Shift=    0.000
 GapD=    0.243 DampG=1.000 DampE=0.250 DampFc=0.2500 IDamp=-1.
 Damping current iteration by 2.50D-01
 RMSDP=2.77D-03 MaxDP=4.89D-01              OVMax= 3.18D-01

 Cycle   2  Pass 0  IDiag  1:
 RMSU=  6.88D-04    CP:  1.03D+00
 E= -801.601178041217     Delta-E=       -0.158262955961 Rises=F Damp=T
 DIIS: error= 9.84D-02 at cycle   2 NSaved=   2.
 NSaved= 2 IEnMin= 2 EnMin= -801.601178041217     IErMin= 2 ErrMin= 9.84D-02
 ErrMax= 9.84D-02  0.00D+00 EMaxC= 1.00D-01 BMatC= 1.00D+01 BMatP= 1.69D+01
 IDIUse=3 WtCom= 1.65D-02 WtEn= 9.84D-01
 Coeff-Com: -0.288D+01 0.388D+01
 Coeff-En:   0.000D+00 0.100D+01
 Coeff:     -0.474D-01 0.105D+01
 Gap=     0.218 Goal=   None    Shift=    0.000
 RMSDP=7.95D-04 MaxDP=1.41D-01 DE=-1.58D-01 OVMax= 1.88D-01

 Cycle   3  Pass 0  IDiag  1:
 RMSU=  7.50D-04    CP:  1.07D+00  1.35D+00
 E= -801.833721356692     Delta-E=       -0.232543315475 Rises=F Damp=F
 DIIS: error= 1.51D-02 at cycle   3 NSaved=   3.
 NSaved= 3 IEnMin= 3 EnMin= -801.833721356692     IErMin= 3 ErrMin= 1.51D-02
 ErrMax= 1.51D-02  0.00D+00 EMaxC= 1.00D-01 BMatC= 2.32D-01 BMatP= 1.00D+01
 IDIUse=3 WtCom= 8.49D-01 WtEn= 1.51D-01
 Coeff-Com:  0.744D+00-0.104D+01 0.130D+01
 Coeff-En:   0.502D-01 0.000D+00 0.950D+00
 Coeff:      0.639D+00-0.884D+00 0.124D+01
 Gap=     0.241 Goal=   None    Shift=    0.000
 RMSDP=5.31D-04 MaxDP=8.69D-02 DE=-2.33D-01 OVMax= 8.71D-02

 Cycle   4  Pass 0  IDiag  1:
 RMSU=  3.94D-04    CP:  1.05D+00  9.50D-01  7.07D-01
 E= -801.790851912582     Delta-E=        0.042869444110 Rises=F Damp=F
 DIIS: error= 7.89D-03 at cycle   4 NSaved=   4.
 NSaved= 4 IEnMin= 3 EnMin= -801.833721356692     IErMin= 4 ErrMin= 7.89D-03
 ErrMax= 7.89D-03  0.00D+00 EMaxC= 1.00D-01 BMatC= 1.48D-01 BMatP= 2.32D-01
 IDIUse=3 WtCom= 9.21D-01 WtEn= 7.89D-02
 Coeff-Com:  0.581D+00-0.807D+00 0.696D+00 0.530D+00
 Coeff-En:   0.000D+00 0.000D+00 0.632D+00 0.368D+00
 Coeff:      0.535D+00-0.743D+00 0.691D+00 0.517D+00
 Gap=     0.261 Goal=   None    Shift=    0.000
 RMSDP=3.49D-04 MaxDP=3.87D-02 DE= 4.29D-02 OVMax= 7.20D-02

 Cycle   5  Pass 0  IDiag  1:
 RMSU=  1.36D-04    CP:  1.06D+00  9.84D-01  8.00D-01  2.08D-01
 E= -801.900149666412     Delta-E=       -0.109297753831 Rises=F Damp=F
 DIIS: error= 2.07D-03 at cycle   5 NSaved=   5.
 NSaved= 5 IEnMin= 5 EnMin= -801.900149666412     IErMin= 5 ErrMin= 2.07D-03
 ErrMax= 2.07D-03  0.00D+00 EMaxC= 1.00D-01 BMatC= 1.21D-02 BMatP= 1.48D-01
 IDIUse=3 WtCom= 9.79D-01 WtEn= 2.07D-02
 Coeff-Com:  0.841D-01-0.121D+00 0.806D-01 0.226D+00 0.730D+00
 Coeff-En:   0.000D+00 0.000D+00 0.000D+00 0.109D-01 0.989D+00
 Coeff:      0.823D-01-0.118D+00 0.790D-01 0.222D+00 0.735D+00
 Gap=     0.231 Goal=   None    Shift=    0.000
 RMSDP=1.60D-04 MaxDP=1.83D-02 DE=-1.09D-01 OVMax= 2.94D-02

 Cycle   6  Pass 0  IDiag  1:
 RMSU=  9.58D-05    CP:  1.06D+00  9.97D-01  8.70D-01  4.13D-01  3.84D-01
 E= -801.905770711083     Delta-E=       -0.005621044671 Rises=F Damp=F
 DIIS: error= 1.52D-03 at cycle   6 NSaved=   6.
 NSaved= 6 IEnMin= 6 EnMin= -801.905770711083     IErMin= 6 ErrMin= 1.52D-03
 ErrMax= 1.52D-03  0.00D+00 EMaxC= 1.00D-01 BMatC= 2.71D-03 BMatP= 1.21D-02
 IDIUse=3 WtCom= 9.85D-01 WtEn= 1.52D-02
 Coeff-Com:  0.296D-01-0.419D-01 0.798D-02 0.895D-01 0.394D+00 0.521D+00
 Coeff-En:   0.000D+00 0.000D+00 0.000D+00 0.000D+00 0.214D+00 0.786D+00
 Coeff:      0.291D-01-0.413D-01 0.786D-02 0.881D-01 0.391D+00 0.525D+00
 Gap=     0.227 Goal=   None    Shift=    0.000
 RMSDP=5.21D-05 MaxDP=7.76D-03 DE=-5.62D-03 OVMax= 1.91D-02

 Cycle   7  Pass 0  IDiag  1:
 RMSU=  4.38D-05    CP:  1.06D+00  9.79D-01  8.51D-01  4.19D-01  4.90D-01
                    CP:  8.51D-01
 E= -801.907660402721     Delta-E=       -0.001889691638 Rises=F Damp=F
 DIIS: error= 7.02D-04 at cycle   7 NSaved=   7.
 NSaved= 7 IEnMin= 7 EnMin= -801.907660402721     IErMin= 7 ErrMin= 7.02D-04
 ErrMax= 7.02D-04  0.00D+00 EMaxC= 1.00D-01 BMatC= 5.19D-04 BMatP= 2.71D-03
 IDIUse=3 WtCom= 9.93D-01 WtEn= 7.02D-03
 Coeff-Com:  0.207D-01-0.279D-01 0.275D-02 0.206D-01 0.101D+00 0.318D+00
 Coeff-Com:  0.565D+00
 Coeff-En:   0.000D+00 0.000D+00 0.000D+00 0.000D+00 0.000D+00 0.173D+00
 Coeff-En:   0.827D+00
 Coeff:      0.206D-01-0.277D-01 0.273D-02 0.205D-01 0.101D+00 0.317D+00
 Coeff:      0.567D+00
 Gap=     0.226 Goal=   None    Shift=    0.000
 RMSDP=1.99D-05 MaxDP=3.20D-03 DE=-1.89D-03 OVMax= 6.48D-03

 Cycle   8  Pass 0  IDiag  1:
 RMSU=  1.10D-05    CP:  1.06D+00  9.83D-01  8.56D-01  4.29D-01  4.78D-01
                    CP:  9.59D-01  7.47D-01
 E= -801.908072565726     Delta-E=       -0.000412163006 Rises=F Damp=F
 DIIS: error= 1.44D-04 at cycle   8 NSaved=   8.
 NSaved= 8 IEnMin= 8 EnMin= -801.908072565726     IErMin= 8 ErrMin= 1.44D-04
 ErrMax= 1.44D-04  0.00D+00 EMaxC= 1.00D-01 BMatC= 3.22D-05 BMatP= 5.19D-04
 IDIUse=3 WtCom= 9.99D-01 WtEn= 1.44D-03
 Coeff-Com:  0.119D-01-0.160D-01 0.277D-02 0.548D-02 0.274D-01 0.139D+00
 Coeff-Com:  0.312D+00 0.517D+00
 Coeff-En:   0.000D+00 0.000D+00 0.000D+00 0.000D+00 0.000D+00 0.000D+00
 Coeff-En:   0.000D+00 0.100D+01
 Coeff:      0.119D-01-0.160D-01 0.277D-02 0.547D-02 0.274D-01 0.139D+00
 Coeff:      0.311D+00 0.518D+00
 Gap=     0.226 Goal=   None    Shift=    0.000
 RMSDP=5.76D-06 MaxDP=5.50D-04 DE=-4.12D-04 OVMax= 1.05D-03

 Initial convergence to 1.0D-05 achieved.  Increase integral accuracy.
 Cycle   9  Pass 1  IDiag  1:
 E= -801.908071514017     Delta-E=        0.000001051709 Rises=F Damp=F
 DIIS: error= 2.26D-04 at cycle   1 NSaved=   1.
 NSaved= 1 IEnMin= 1 EnMin= -801.908071514017     IErMin= 1 ErrMin= 2.26D-04
 ErrMax= 2.26D-04  0.00D+00 EMaxC= 1.00D-01 BMatC= 2.47D-05 BMatP= 2.47D-05
 IDIUse=3 WtCom= 9.98D-01 WtEn= 2.26D-03
 Coeff-Com:  0.100D+01
 Coeff-En:   0.100D+01
 Coeff:      0.100D+01
 Gap=     0.226 Goal=   None    Shift=    0.000
 RMSDP=5.76D-06 MaxDP=5.50D-04 DE= 1.05D-06 OVMax= 1.27D-03

 Cycle  10  Pass 1  IDiag  1:
 RMSU=  1.71D-04    CP:  9.94D-01
 E= -801.908083173527     Delta-E=       -0.000011659510 Rises=F Damp=F
 DIIS: error= 7.52D-05 at cycle   2 NSaved=   2.
 NSaved= 2 IEnMin= 2 EnMin= -801.908083173527     IErMin= 2 ErrMin= 7.52D-05
 ErrMax= 7.52D-05  0.00D+00 EMaxC= 1.00D-01 BMatC= 6.18D-06 BMatP= 2.47D-05
 IDIUse=1 WtCom= 1.00D+00 WtEn= 0.00D+00
 Coeff-Com:  0.251D+00 0.749D+00
 Coeff:      0.251D+00 0.749D+00
 Gap=     0.226 Goal=   None    Shift=    0.000
 RMSDP=4.44D-06 MaxDP=5.01D-04 DE=-1.17D-05 OVMax= 1.38D-03

 Cycle  11  Pass 1  IDiag  1:
 RMSU=  3.71D-06    CP:  9.95D-01  1.01D+00
 E= -801.908080851304     Delta-E=        0.000002322223 Rises=F Damp=F
 DIIS: error= 1.03D-04 at cycle   3 NSaved=   3.
 NSaved= 3 IEnMin= 2 EnMin= -801.908083173527     IErMin= 2 ErrMin= 7.52D-05
 ErrMax= 1.03D-04  0.00D+00 EMaxC= 1.00D-01 BMatC= 9.19D-06 BMatP= 6.18D-06
 IDIUse=3 WtCom= 4.96D-01 WtEn= 5.04D-01
 Coeff-Com:  0.933D-02 0.547D+00 0.444D+00
 Coeff-En:   0.000D+00 0.576D+00 0.424D+00
 Coeff:      0.463D-02 0.562D+00 0.434D+00
 Gap=     0.226 Goal=   None    Shift=    0.000
 RMSDP=2.10D-06 MaxDP=2.85D-04 DE= 2.32D-06 OVMax= 8.08D-04

 Cycle  12  Pass 1  IDiag  1:
 RMSU=  7.37D-07    CP:  9.94D-01  1.02D+00  5.14D-01
 E= -801.908087781715     Delta-E=       -0.000006930411 Rises=F Damp=F
 DIIS: error= 1.12D-05 at cycle   4 NSaved=   4.
 NSaved= 4 IEnMin= 4 EnMin= -801.908087781715     IErMin= 4 ErrMin= 1.12D-05
 ErrMax= 1.12D-05  0.00D+00 EMaxC= 1.00D-01 BMatC= 1.70D-07 BMatP= 6.18D-06
 IDIUse=1 WtCom= 1.00D+00 WtEn= 0.00D+00
 Coeff-Com: -0.203D-02 0.304D+00 0.240D+00 0.458D+00
 Coeff:     -0.203D-02 0.304D+00 0.240D+00 0.458D+00
 Gap=     0.226 Goal=   None    Shift=    0.000
 RMSDP=3.63D-07 MaxDP=5.66D-05 DE=-6.93D-06 OVMax= 6.53D-05

 Cycle  13  Pass 1  IDiag  1:
 RMSU=  3.29D-07    CP:  9.94D-01  1.02D+00  5.12D-01  8.52D-01
 E= -801.908087892734     Delta-E=       -0.000000111019 Rises=F Damp=F
 DIIS: error= 2.22D-06 at cycle   5 NSaved=   5.
 NSaved= 5 IEnMin= 5 EnMin= -801.908087892734     IErMin= 5 ErrMin= 2.22D-06
 ErrMax= 2.22D-06  0.00D+00 EMaxC= 1.00D-01 BMatC= 7.84D-09 BMatP= 1.70D-07
 IDIUse=1 WtCom= 1.00D+00 WtEn= 0.00D+00
 Coeff-Com: -0.165D-02 0.106D+00 0.819D-01 0.234D+00 0.580D+00
 Coeff:     -0.165D-02 0.106D+00 0.819D-01 0.234D+00 0.580D+00
 Gap=     0.226 Goal=   None    Shift=    0.000
 RMSDP=7.98D-08 MaxDP=1.15D-05 DE=-1.11D-07 OVMax= 1.56D-05

 Cycle  14  Pass 1  IDiag  1:
 RMSU=  6.25D-08    CP:  9.94D-01  1.02D+00  5.12D-01  8.97D-01  9.07D-01
 E= -801.908087897316     Delta-E=       -0.000000004582 Rises=F Damp=F
 DIIS: error= 8.03D-07 at cycle   6 NSaved=   6.
 NSaved= 6 IEnMin= 6 EnMin= -801.908087897316     IErMin= 6 ErrMin= 8.03D-07
 ErrMax= 8.03D-07  0.00D+00 EMaxC= 1.00D-01 BMatC= 8.21D-10 BMatP= 7.84D-09
 IDIUse=1 WtCom= 1.00D+00 WtEn= 0.00D+00
 Coeff-Com: -0.795D-03 0.393D-01 0.303D-01 0.101D+00 0.321D+00 0.509D+00
 Coeff:     -0.795D-03 0.393D-01 0.303D-01 0.101D+00 0.321D+00 0.509D+00
 Gap=     0.226 Goal=   None    Shift=    0.000
 RMSDP=3.74D-08 MaxDP=8.61D-06 DE=-4.58D-09 OVMax= 8.56D-06

 Cycle  15  Pass 1  IDiag  1:
 RMSU=  2.83D-08    CP:  9.94D-01  1.02D+00  5.13D-01  9.09D-01  9.60D-01
                    CP:  8.25D-01
 E= -801.908087897861     Delta-E=       -0.000000000545 Rises=F Damp=F
 DIIS: error= 2.89D-07 at cycle   7 NSaved=   7.
 NSaved= 7 IEnMin= 7 EnMin= -801.908087897861     IErMin= 7 ErrMin= 2.89D-07
 ErrMax= 2.89D-07  0.00D+00 EMaxC= 1.00D-01 BMatC= 1.49D-10 BMatP= 8.21D-10
 IDIUse=1 WtCom= 1.00D+00 WtEn= 0.00D+00
 Coeff-Com: -0.158D-04-0.598D-02-0.465D-02-0.411D-02 0.330D-01 0.309D+00
 Coeff-Com:  0.673D+00
 Coeff:     -0.158D-04-0.598D-02-0.465D-02-0.411D-02 0.330D-01 0.309D+00
 Coeff:      0.673D+00
 Gap=     0.226 Goal=   None    Shift=    0.000
 RMSDP=1.77D-08 MaxDP=2.06D-06 DE=-5.45D-10 OVMax= 3.59D-06

 Cycle  16  Pass 1  IDiag  1:
 RMSU=  1.17D-08    CP:  9.94D-01  1.02D+00  5.14D-01  9.18D-01  9.76D-01
                    CP:  9.48D-01  1.01D+00
 E= -801.908087898021     Delta-E=       -0.000000000160 Rises=F Damp=F
 DIIS: error= 7.81D-08 at cycle   8 NSaved=   8.
 NSaved= 8 IEnMin= 8 EnMin= -801.908087898021     IErMin= 8 ErrMin= 7.81D-08
 ErrMax= 7.81D-08  0.00D+00 EMaxC= 1.00D-01 BMatC= 1.26D-11 BMatP= 1.49D-10
 IDIUse=1 WtCom= 1.00D+00 WtEn= 0.00D+00
 Coeff-Com:  0.635D-04-0.656D-02-0.505D-02-0.115D-01-0.137D-01 0.109D+00
 Coeff-Com:  0.342D+00 0.587D+00
 Coeff:      0.635D-04-0.656D-02-0.505D-02-0.115D-01-0.137D-01 0.109D+00
 Coeff:      0.342D+00 0.587D+00
 Gap=     0.226 Goal=   None    Shift=    0.000
 RMSDP=5.50D-09 MaxDP=7.19D-07 DE=-1.60D-10 OVMax= 8.65D-07

 SCF Done:  E(RM06) =  -801.908087898     A.U. after   16 cycles
            NFock= 16  Conv=0.55D-08     -V/T= 2.0045
 KE= 7.983546680172D+02 PE=-4.345009296382D+03 EE= 1.508570094892D+03
 Leave Link  502 at Tue Jun 24 17:17:43 2014, MaxMem=  4294967296 cpu:     37266.1
 (Enter /home/ztw1e12/g09/l801.exe)
 DoSCS=F DFT=T ScalE2(SS,OS)=  1.000000  1.000000
 Range of M.O.s used for correlation:     1  1068
 NBasis=  1204 NAE=    63 NBE=    63 NFC=     0 NFV=     0
 NROrb=   1068 NOA=    63 NOB=    63 NVA=  1005 NVB=  1005

 **** Warning!!: The largest alpha MO coefficient is  0.22866607D+02

 Leave Link  801 at Tue Jun 24 17:17:43 2014, MaxMem=  4294967296 cpu:         0.4
 (Enter /home/ztw1e12/g09/l1002.exe)
 Minotr:  Closed shell wavefunction.
          IDoAtm=111111111111111111111111111111111
          Direct CPHF calculation.
          Differentiating once with respect to Fermi-contact.
          Electric field/nuclear overlap derivatives assumed to be zero.
          Requested convergence is 1.0D-10 RMS, and 1.0D-09 maximum.
          Secondary convergence is 1.0D-12 RMS, and 1.0D-12 maximum.
          NewPWx=T KeepS1=F KeepF1=F KeepIn=T MapXYZ=F SortEE=F KeepMc=T.
          MDV=    4294965894 using IRadAn=  199590.
 Using stored XC quadrature information.
          Solving linear equations simultaneously, MaxMat=       0.
          There are    33 degrees of freedom in the 1st order CPHF.  IDoFFX=0 NUNeed=    33.
     33 vectors produced by pass  0 Test12= 1.92D-17 3.03D-11 XBig12= 4.29D+01 2.58D+00.
 AX will form    33 AO Fock derivatives at one time.
 FoFJK:  IHMeth= 1 ICntrl=       0 DoSepK=F KAlg= 0 I1Cent=   0 FoldK=F
 IRaf= 460000000 NMat=  33 IRICut=       1 DoRegI=T DoRafI=F ISym2E=-1.
 FoFCou: FMM=F IPFlag=           0 FMFlag=      100000 FMFlg1=           0
         NFxFlg=           0 DoJE=F BraDBF=F KetDBF=F FulRan=T
         wScrn=  0.000000 ICntrl=       0 IOpCl=  0 I1Cent=           0 NGrid=           0
         NMat0=   33 NMatS0=      0 NMatT0=   33 NMatD0=   33 NMtDS0=    0 NMtDT0=    0
 Petite list used in FoFCou.
     33 vectors produced by pass  1 Test12= 1.92D-17 3.03D-11 XBig12= 3.46D-01 1.89D-01.
     33 vectors produced by pass  2 Test12= 1.92D-17 3.03D-11 XBig12= 1.56D-02 3.99D-02.
     33 vectors produced by pass  3 Test12= 1.92D-17 3.03D-11 XBig12= 3.50D-04 5.82D-03.
     33 vectors produced by pass  4 Test12= 1.92D-17 3.03D-11 XBig12= 7.30D-06 1.19D-03.
     33 vectors produced by pass  5 Test12= 1.92D-17 3.03D-11 XBig12= 1.54D-07 1.79D-04.
     33 vectors produced by pass  6 Test12= 1.92D-17 3.03D-11 XBig12= 4.83D-09 1.89D-05.
     33 vectors produced by pass  7 Test12= 1.92D-17 3.03D-11 XBig12= 1.32D-10 3.93D-06.
     33 vectors produced by pass  8 Test12= 1.92D-17 3.03D-11 XBig12= 5.16D-12 3.65D-07.
     33 vectors produced by pass  9 Test12= 1.92D-17 3.03D-11 XBig12= 7.07D-14 9.69D-08.
     33 vectors produced by pass 10 Test12= 1.92D-17 3.03D-11 XBig12= 2.17D-15 1.06D-08.
     33 vectors produced by pass 11 Test12= 1.92D-17 3.03D-11 XBig12= 2.27D-17 5.06D-10.
      8 vectors produced by pass 12 Test12= 1.92D-17 3.03D-11 XBig12= 2.76D-19 5.34D-11.
 InvSVY:  IOpt=1 It=  1 EMax= 6.22D-15
 Solved reduced A of dimension   404 with    33 vectors.
 Max diff in FC couplings:  IJMax=    11     3 Diff= 2.53D-04 IJMaxR=    26     4 DiffR= 5.89D-01
 Fermi Contact (FC) contribution to K (Hz):
                1             2             3             4             5 
      1  0.123400D+11
      2  0.349787D+02  0.123400D+11
      3 -0.119261D+01  0.340548D+02  0.123400D+11
      4  0.305477D+01  0.359549D+00  0.340111D+02  0.123400D+11
      5  0.161949D+01  0.302318D+01 -0.136219D+01  0.349327D+02  0.123400D+11
      6  0.361027D+02 -0.153878D+00  0.436963D+01  0.188434D+00  0.388441D+02
      7  0.215400D+02 -0.296839D+00  0.951814D+00 -0.198514D+00  0.604827D+00
      8 -0.220928D+00  0.215364D+02 -0.276995D+00  0.979879D+00 -0.296356D+00
      9 -0.283516D+00  0.102737D+01 -0.229165D+00  0.228372D+02 -0.186644D+00
     10  0.685293D+00 -0.223818D+00  0.107087D+01 -0.277867D+00  0.231671D+02
     11  0.201472D+01  0.142924D+01  0.243758D+02  0.154741D+01  0.206419D+01
     12 -0.442484D-01  0.790671D+00 -0.112045D+01  0.776943D+00  0.893375D-02
     13  0.899173D-01  0.928512D+00 -0.965899D+00  0.752886D+00 -0.246812D-01
     14 -0.593218D+00  0.788804D+00 -0.647116D+00  0.776610D+00 -0.566475D+00
     15  0.139384D-01 -0.224339D-01  0.163338D+00 -0.197753D-01  0.136732D-01
     16  0.404679D-01 -0.242816D-01  0.125861D+01 -0.453474D-01  0.249903D-01
     17 -0.764099D+00 -0.113968D+00  0.269887D+00  0.304271D+01  0.116115D+02
     18  0.426271D+00 -0.105246D-01 -0.473425D-01  0.207920D+00  0.114498D+01
     19  0.208227D-02  0.710640D-01  0.391230D+00  0.496620D+00  0.632999D-02
     20  0.310029D-01 -0.845485D-01  0.149735D+01  0.196048D+00  0.108770D+00
     21 -0.546454D-03  0.210893D-02 -0.131402D-01  0.518378D-02 -0.246209D-03
     22  0.906635D-01  0.502432D+00  0.218087D+00 -0.463172D-01  0.841852D-01
     23  0.288940D-02  0.191181D-01  0.314122D-02 -0.172056D-04  0.669459D-03
     24 -0.872918D-02  0.571453D-02  0.139975D+00  0.575988D-01  0.432919D-02
     25  0.122148D-02 -0.264582D-02  0.440683D-01  0.100751D-02  0.172351D-02
     26 -0.798555D-04  0.758994D-04  0.459565D-03  0.196021D-04 -0.417197D-04
     27 -0.720209D-04  0.427407D-03 -0.196393D-02  0.713334D-04 -0.185218D-03
     28 -0.122625D-03  0.158957D-03  0.326409D-03  0.152424D-03 -0.157194D-03
     29  0.136030D+00  0.959019D-01  0.372937D-01 -0.137366D-01  0.111284D-01
     30  0.182500D-01  0.168908D-01  0.878079D-02 -0.139531D-02  0.592401D-02
     31 -0.191098D-02  0.747997D-03  0.225191D-02  0.949153D-04  0.348901D-03
     32  0.121397D-01  0.121236D-01  0.247475D-02 -0.189520D-03  0.199492D-02
     33 -0.923552D-02  0.143345D-01 -0.992365D-02  0.116295D-01 -0.821582D-02
                6             7             8             9            10 
      6  0.123400D+11
      7 -0.556515D+00  0.123400D+11
      8  0.116545D+01  0.329468D+00  0.123400D+11
      9  0.123639D+01  0.371658D-01  0.378626D-01  0.123400D+11
     10 -0.703712D+00  0.633773D-01  0.433406D-01  0.352057D+00  0.123400D+11
     11 -0.471237D+00  0.178848D-01  0.678767D+00  0.710643D+00  0.153148D-01
     12  0.795468D-01  0.728235D-02 -0.351830D-01 -0.169916D-01  0.117151D-01
     13  0.450546D-01  0.791026D-02 -0.895349D-02 -0.270185D-01  0.634494D-02
     14  0.595517D+00  0.490527D-01 -0.149969D+00 -0.145034D+00  0.586236D-01
     15 -0.875464D-02 -0.108652D-02  0.704533D-02  0.528652D-02 -0.156601D-02
     16 -0.205672D-01 -0.106155D-02  0.238324D-01  0.295317D-02 -0.179989D-02
     17 -0.120667D+02  0.553797D+00  0.702224D-01  0.262641D+00  0.713719D+00
     18 -0.658715D+00 -0.133162D-01  0.158778D-02  0.140998D-01  0.893702D-03
     19  0.169430D-01 -0.701579D-02 -0.239742D-01  0.409681D-01 -0.306146D-02
     20 -0.198853D-01 -0.226018D-02  0.177021D-01  0.123707D-01  0.685622D-02
     21  0.137046D-02  0.741915D-04  0.171514D-02  0.118906D-03  0.181197D-04
     22 -0.407896D-01 -0.120256D-01  0.156103D+00  0.111524D-01 -0.166825D-01
     23 -0.307416D-03 -0.371490D-03  0.403266D-02  0.242977D-03 -0.788755D-04
     24  0.977087D-02  0.588934D-03 -0.164882D-02 -0.285390D-03  0.224703D-02
     25 -0.233810D-03 -0.114158D-03  0.322084D-03  0.401931D-03  0.173487D-03
     26  0.887800D-04  0.303642D-05 -0.102137D-03  0.694842D-05  0.218012D-04
     27  0.115228D-03  0.439669D-05 -0.221998D-04 -0.308729D-04 -0.408314D-05
     28  0.129036D-03  0.125987D-04 -0.912886D-04 -0.465262D-04  0.174801D-04
     29 -0.237882D-01 -0.100608D-01  0.130946D-01  0.444903D-03 -0.274619D-02
     30  0.120374D-02  0.200340D-02  0.530370D-02  0.176652D-04 -0.117977D-02
     31  0.131934D-03  0.874753D-04  0.156879D-02  0.611062D-05 -0.775220D-04
     32 -0.362926D-03  0.761100D-03  0.269997D-02 -0.570288D-04 -0.418152D-03
     33  0.977210D-02  0.106964D-02 -0.225450D-03 -0.234505D-02  0.601448D-03
               11            12            13            14            15 
     11  0.123400D+11
     12  0.167227D+02  0.123400D+11
     13  0.185698D+02 -0.842230D+00  0.123400D+11
     14  0.157630D+02 -0.941004D+00 -0.686607D+00  0.123400D+11
     15 -0.781589D+00  0.129515D+00  0.446179D+00  0.214925D+02  0.123400D+11
     16 -0.339720D+00  0.440163D-01  0.513798D+00  0.284230D+02 -0.127567D+01
     17  0.647140D-01  0.272484D-01  0.162543D-01  0.242076D+00 -0.311768D-02
     18  0.122820D-01 -0.270211D-02 -0.185947D-02 -0.256067D-01  0.347555D-03
     19  0.728533D+00  0.112567D-01 -0.181334D-02  0.447436D+01  0.357827D+00
     20  0.133607D+01  0.204350D+01  0.211389D+00  0.132439D+02 -0.374164D+00
     21  0.595863D+00 -0.390724D-01 -0.100628D-01  0.215759D+00  0.182887D+00
     22 -0.532933D-01  0.285545D-01  0.671134D-01  0.948419D+01  0.207108D+00
     23 -0.234780D-01  0.300708D-02  0.569932D-04  0.627718D-01  0.965988D-02
     24  0.167097D+01  0.505530D-01 -0.126579D-02 -0.163924D+00  0.284430D+00
     25 -0.356719D-01  0.464975D-01  0.994228D-02  0.682741D+00 -0.755939D-01
     26  0.107379D-01  0.372532D-03 -0.791926D-03  0.289089D-01  0.194306D-01
     27 -0.450607D-02 -0.114747D-02 -0.374871D-03  0.234647D-01  0.246057D-01
     28 -0.323291D-02 -0.739492D-03 -0.877578D-04  0.925188D-01 -0.213435D-02
     29 -0.793785D-01  0.229863D-02  0.754560D-02  0.690930D+00  0.518848D-01
     30  0.575703D-01 -0.106227D-02  0.170625D-02 -0.876850D-01  0.244546D-01
     31 -0.446921D-03 -0.998286D-04 -0.761151D-04 -0.228876D-01  0.737132D-02
     32  0.479829D-01 -0.593073D-03  0.214674D-02 -0.709239D-01  0.705457D-02
     33  0.147811D+00  0.368240D-01 -0.362024D-03  0.868306D+00  0.260130D+00
               16            17            18            19            20 
     16  0.123400D+11
     17 -0.671834D-02  0.123400D+11
     18  0.648442D-03  0.198404D+02  0.123400D+11
     19 -0.942967D+01  0.123166D-01 -0.135421D-02  0.123400D+11
     20  0.829719D-02 -0.114703D-02  0.596619D-03  0.109167D+01  0.123400D+11
     21  0.551018D-01  0.462023D-03 -0.416525D-04  0.772726D-01  0.308707D+02
     22  0.295992D+02 -0.767583D-02  0.341528D-03  0.645761D+01 -0.411437D+00
     23  0.346628D+00 -0.164964D-03  0.241898D-04  0.479150D+00 -0.427152D-01
     24  0.734209D-01  0.498990D-02 -0.431618D-03 -0.243792D-01  0.251257D+02
     25 -0.163328D+00  0.177699D-03 -0.573073D-05  0.487910D-01  0.124260D+02
     26  0.624375D-01  0.277273D-04 -0.193410D-05 -0.138936D-02  0.352661D+00
     27  0.825425D-01  0.457176D-04 -0.487881D-05  0.659160D-02  0.367400D+00
     28 -0.179440D-02  0.573135D-04 -0.609861D-05  0.301050D-02  0.327548D+00
     29 -0.257576D+00  0.134744D-02 -0.211288D-03  0.760052D+00  0.136131D+00
     30  0.183300D+00 -0.621837D-03  0.495209D-05  0.241916D+00  0.252490D-01
     31  0.957743D+00 -0.101151D-03  0.782671D-05  0.186743D+00  0.571834D-02
     32  0.181780D+00  0.278331D-03 -0.368230D-04  0.239474D+00  0.763697D-02
     33  0.456532D+00  0.399950D-02 -0.446835D-03  0.173758D+00  0.581438D+01
               21            22            23            24            25 
     21  0.123400D+11
     22  0.390922D-01  0.123400D+11
     23  0.240141D-02  0.310395D+02  0.123400D+11
     24  0.475814D+00 -0.173343D-01  0.737489D-02  0.123400D+11
     25  0.822417D-01  0.285695D-03  0.278538D-02  0.268965D+02  0.123400D+11
     26 -0.951627D-02  0.390321D-02  0.475002D-03 -0.120023D+01  0.181233D+02
     27 -0.123401D-01 -0.144994D-03  0.152868D-03 -0.118328D+01  0.178940D+02
     28 -0.964975D-02 -0.234841D-02  0.216569D-03 -0.745721D+00  0.169817D+02
     29 -0.344366D-02  0.170345D+02  0.293384D+00 -0.634099D-02 -0.246793D-03
     30 -0.434379D-03 -0.672319D+00  0.444135D-01  0.289888D-02  0.169639D-02
     31 -0.364978D-04 -0.324320D+00  0.282420D+00  0.325923D-03 -0.342413D-03
     32  0.224083D-02 -0.539503D+00  0.191313D+00 -0.650273D-03  0.838428D-03
     33  0.412693D+00  0.302960D+00 -0.144375D-01 -0.980435D+01  0.355017D+01
               26            27            28            29            30 
     26  0.123400D+11
     27 -0.930231D+00  0.123400D+11
     28 -0.736736D+00 -0.729898D+00  0.123400D+11
     29 -0.963032D-04 -0.179008D-03 -0.511351D-04  0.123400D+11
     30  0.299808D-03  0.224412D-03 -0.136291D-04  0.197233D+02  0.123400D+11
     31  0.266548D-03  0.129986D-03  0.138820D-04  0.181612D+02 -0.709314D+00
     32 -0.108130D-03 -0.155828D-03 -0.193173D-05  0.202760D+02 -0.744025D+00
     33  0.452345D+00  0.450173D+00  0.801264D+00 -0.182309D-01  0.131376D-01
               31            32            33 
     31  0.123400D+11
     32 -0.763254D+00  0.123400D+11
     33  0.198917D-02  0.135450D-01  0.123400D+11
 Fermi Contact (FC) contribution to J (Hz):
                1             2             3             4             5 
      1  0.243533D+11
      2  0.690314D+02  0.243533D+11
      3 -0.235365D+01  0.672081D+02  0.243533D+11
      4  0.602866D+01  0.709579D+00  0.671218D+02  0.243533D+11
      5  0.319611D+01  0.596631D+01 -0.268831D+01  0.689406D+02  0.243533D+11
      6  0.712497D+02 -0.303681D+00  0.862358D+01  0.371879D+00  0.766599D+02
      7  0.169023D+03 -0.232926D+01  0.746879D+01 -0.155772D+01  0.474602D+01
      8 -0.173360D+01  0.168994D+03 -0.217356D+01  0.768902D+01 -0.232548D+01
      9 -0.222472D+01  0.806164D+01 -0.179824D+01  0.179201D+03 -0.146458D+01
     10  0.537742D+01 -0.175628D+01  0.840298D+01 -0.218040D+01  0.181790D+03
     11  0.397610D+01  0.282063D+01  0.481063D+02  0.305386D+01  0.407374D+01
     12 -0.347213D+00  0.620432D+01 -0.879209D+01  0.609660D+01  0.701023D-01
     13  0.705572D+00  0.728595D+01 -0.757932D+01  0.590783D+01 -0.193671D+00
     14 -0.117073D+01  0.155672D+01 -0.127710D+01  0.153266D+01 -0.111795D+01
     15  0.109374D+00 -0.176037D+00  0.128169D+01 -0.155175D+00  0.107293D+00
     16  0.798643D-01 -0.479204D-01  0.248390D+01 -0.894942D-01  0.493190D-01
     17  0.813139D+00  0.121282D+00 -0.287208D+00 -0.323799D+01 -0.123567D+02
     18  0.334491D+01 -0.825853D-01 -0.371492D+00  0.163153D+01  0.898455D+01
     19 -0.221591D-02 -0.756249D-01 -0.416340D+00 -0.528493D+00 -0.673625D-02
     20  0.175852D-01 -0.479570D-01  0.849318D+00  0.111201D+00  0.616956D-01
     21 -0.428798D-02  0.165485D-01 -0.103110D+00  0.406766D-01 -0.193198D-02
     22  0.514255D-01  0.284986D+00  0.123702D+00 -0.262717D-01  0.477509D-01
     23  0.226729D-01  0.150018D+00  0.246489D-01 -0.135010D-03  0.525318D-02
     24 -0.172273D-01  0.112778D-01  0.276244D+00  0.113673D+00  0.854377D-02
     25  0.241061D-02 -0.522159D-02  0.869698D-01  0.198835D-02  0.340139D-02
     26 -0.626618D-03  0.595575D-03  0.360616D-02  0.153816D-03 -0.327370D-03
     27 -0.565141D-03  0.335382D-02 -0.154107D-01  0.559746D-03 -0.145339D-02
     28 -0.962229D-03  0.124732D-02  0.256130D-02  0.119606D-02 -0.123349D-02
     29  0.268458D+00  0.189265D+00  0.736000D-01 -0.271094D-01  0.219623D-01
     30  0.143206D+00  0.132541D+00  0.689020D-01 -0.109488D-01  0.464851D-01
     31 -0.149953D-01  0.586946D-02  0.176705D-01  0.744791D-03  0.273779D-02
     32  0.952589D-01  0.951328D-01  0.194191D-01 -0.148715D-02  0.156540D-01
     33  0.982826D-02 -0.152545D-01  0.105606D-01 -0.123759D-01  0.874312D-02
                6             7             8             9            10 
      6  0.243533D+11
      7 -0.436692D+01  0.385007D+12
      8  0.914520D+01  0.102794D+02  0.385007D+12
      9  0.970183D+01  0.115957D+01  0.118131D+01  0.385007D+12
     10 -0.552196D+01  0.197737D+01  0.135223D+01  0.109842D+02  0.385007D+12
     11 -0.929999D+00  0.140340D+00  0.532622D+01  0.557634D+01  0.120174D+00
     12  0.624196D+00  0.227209D+00 -0.109771D+01 -0.530138D+00  0.365510D+00
     13  0.353539D+00  0.246800D+00 -0.279349D+00 -0.842975D+00  0.197962D+00
     14  0.117527D+01  0.384912D+00 -0.117679D+01 -0.113807D+01  0.460014D+00
     15 -0.686968D-01 -0.338993D-01  0.219814D+00  0.164939D+00 -0.488594D-01
     16 -0.405898D-01 -0.832988D-02  0.187010D+00  0.231733D-01 -0.141236D-01
     17  0.128411D+02 -0.234327D+01 -0.297130D+00 -0.111131D+01 -0.301994D+01
     18 -0.516887D+01 -0.415464D+00  0.495387D-01  0.439914D+00  0.278835D-01
     19 -0.180304D-01  0.296857D-01  0.101442D+00 -0.173347D+00  0.129539D-01
     20 -0.112792D-01 -0.509735D-02  0.399232D-01  0.278995D-01  0.154627D-01
     21  0.107539D-01  0.231477D-02  0.535124D-01  0.370985D-02  0.565335D-03
     22 -0.231364D-01 -0.271211D-01  0.352056D+00  0.251519D-01 -0.376238D-01
     23 -0.241226D-02 -0.115905D-01  0.125819D+00  0.758087D-02 -0.246091D-02
     24  0.192831D-01  0.462131D-02 -0.129382D-01 -0.223943D-02  0.176322D-01
     25 -0.461430D-03 -0.895791D-03  0.252736D-02  0.315391D-02  0.136134D-02
     26  0.696648D-03  0.947362D-04 -0.318667D-02  0.216790D-03  0.680197D-03
     27  0.904186D-03  0.137177D-03 -0.692633D-03 -0.963233D-03 -0.127394D-03
     28  0.101254D-02  0.393079D-03 -0.284820D-02 -0.145162D-02  0.545377D-03
     29 -0.469466D-01 -0.789461D-01  0.102752D+00  0.349111D-02 -0.215491D-01
     30  0.944566D-02  0.625058D-01  0.165475D+00  0.551155D-03 -0.368087D-01
     31  0.103527D-02  0.272922D-02  0.489462D-01  0.190651D-03 -0.241868D-02
     32 -0.284785D-02  0.237463D-01  0.842389D-01 -0.177930D-02 -0.130463D-01
     33 -0.103993D-01 -0.452592D-02  0.953941D-03  0.992253D-02 -0.254489D-02
               11            12            13            14            15 
     11  0.243533D+11
     12  0.131221D+03  0.385007D+12
     13  0.145715D+03 -0.262775D+02  0.385007D+12
     14  0.311086D+02 -0.738397D+01 -0.538774D+01  0.243533D+11
     15 -0.613306D+01  0.404087D+01  0.139208D+02  0.168650D+03  0.385007D+12
     16 -0.670445D+00  0.345392D+00  0.403172D+01  0.560935D+02 -0.100101D+02
     17 -0.688674D-01 -0.115295D+00 -0.687763D-01 -0.257612D+00  0.131918D-01
     18  0.963754D-01 -0.843058D-01 -0.580153D-01 -0.200933D+00  0.108437D-01
     19 -0.775291D+00 -0.476300D-01  0.767273D-02 -0.476153D+01 -0.151406D+01
     20  0.757836D+00  0.460868D+01  0.476743D+00  0.751211D+01 -0.843847D+00
     21  0.467568D+01 -0.121906D+01 -0.313959D+00  0.169304D+01  0.570606D+01
     22 -0.302286D-01  0.643984D-01  0.151360D+00  0.537955D+01  0.467086D+00
     23 -0.184230D+00  0.938208D-01  0.177818D-02  0.492564D+00  0.301388D+00
     24  0.329771D+01  0.396685D+00 -0.993256D-02 -0.323509D+00  0.223190D+01
     25 -0.703995D-01  0.364861D+00  0.780161D-01  0.134741D+01 -0.593178D+00
     26  0.842594D-01  0.116230D-01 -0.247081D-01  0.226845D+00  0.606234D+00
     27 -0.353587D-01 -0.358009D-01 -0.116959D-01  0.184125D+00  0.767698D+00
     28 -0.253683D-01 -0.230721D-01 -0.273804D-02  0.725986D+00 -0.665916D-01
     29 -0.156655D+00  0.180372D-01  0.592096D-01  0.136357D+01  0.407135D+00
     30  0.451749D+00 -0.331429D-01  0.532349D-01 -0.688055D+00  0.762984D+00
     31 -0.350695D-02 -0.311465D-02 -0.237479D-02 -0.179597D+00  0.229985D+00
     32  0.376517D+00 -0.185039D-01  0.669783D-01 -0.556533D+00  0.220102D+00
     33 -0.157297D+00 -0.155813D+00  0.153182D-02 -0.924034D+00 -0.110068D+01
               16            17            18            19            20 
     16  0.243533D+11
     17  0.714953D-02  0.708114D+10
     18  0.508826D-02 -0.839503D+02  0.385007D+12
     19  0.100349D+02  0.706774D-02  0.573004D-02  0.708114D+10
     20  0.470627D-02  0.350826D-03  0.134555D-02 -0.333894D+00  0.201170D+10
     21  0.432378D+00 -0.195495D-02 -0.129956D-02 -0.326962D+00  0.696222D+02
     22  0.167890D+02  0.234771D-02  0.770242D-03 -0.197511D+01 -0.670737D-01
     23  0.271996D+01  0.698007D-03  0.754720D-03 -0.202742D+01 -0.963348D-01
     24  0.144898D+00 -0.531015D-02 -0.338687D-02  0.259439D-01  0.142516D+02
     25 -0.322332D+00 -0.189104D-03 -0.449685D-04 -0.519224D-01  0.704817D+01
     26  0.489941D+00 -0.117322D-03 -0.603437D-04  0.587877D-02  0.795352D+00
     27  0.647703D+00 -0.193444D-03 -0.152219D-03 -0.278909D-01  0.828592D+00
     28 -0.140805D-01 -0.242509D-03 -0.190277D-03 -0.127383D-01  0.738715D+00
     29 -0.508332D+00 -0.143392D-02 -0.165795D-02 -0.808833D+00  0.772152D-01
     30  0.143834D+01  0.263116D-02  0.154505D-03 -0.102361D+01  0.569436D-01
     31  0.751532D+01  0.427999D-03  0.244193D-03 -0.790160D+00  0.128965D-01
     32  0.142641D+01 -0.117770D-02 -0.114888D-02 -0.101328D+01  0.172235D-01
     33 -0.485833D+00  0.229506D-02  0.189068D-02  0.997089D-01 -0.177837D+01
               21            22            23            24            25 
     21  0.385007D+12
     22  0.881640D-01  0.201170D+10
     23  0.749240D-01  0.700030D+02  0.385007D+12
     24  0.373367D+01 -0.983224D-02  0.578700D-01  0.243533D+11
     25  0.645343D+00  0.162050D-03  0.218566D-01  0.530809D+02  0.243533D+11
     26 -0.296907D+00  0.880284D-02  0.148200D-01 -0.941806D+01  0.142212D+03
     27 -0.385011D+00 -0.327003D-03  0.476948D-02 -0.928511D+01  0.140412D+03
     28 -0.301072D+00 -0.529634D-02  0.675695D-02 -0.585160D+01  0.133254D+03
     29 -0.270220D-01  0.966219D+01  0.230215D+01 -0.125141D-01 -0.487052D-03
     30 -0.135526D-01 -0.151627D+01  0.138570D+01  0.227472D-01  0.133114D-01
     31 -0.113873D-02 -0.731434D+00  0.881150D+01  0.255748D-02 -0.268688D-02
     32  0.699138D-01 -0.121673D+01  0.596897D+01 -0.510263D-02  0.657906D-02
     33 -0.174622D+01 -0.926624D-01  0.610891D-01  0.104336D+02 -0.377802D+01
               26            27            28            29            30 
     26  0.385007D+12
     27 -0.290232D+02  0.385007D+12
     28 -0.229861D+02 -0.227728D+02  0.385007D+12
     29 -0.755682D-03 -0.140466D-02 -0.401252D-03  0.243533D+11
     30  0.935400D-02  0.700163D-02 -0.425228D-03  0.154767D+03  0.385007D+12
     31  0.831629D-02  0.405557D-02  0.433117D-03  0.142509D+03 -0.221306D+02
     32 -0.337365D-02 -0.486184D-02 -0.602698D-04  0.159104D+03 -0.232136D+02
     33 -0.191399D+01 -0.190481D+01 -0.339037D+01  0.194010D-01 -0.555888D-01
               31            32            33 
     31  0.385007D+12
     32 -0.238135D+02  0.385007D+12
     33 -0.841674D-02 -0.573128D-01  0.708114D+10
 End of Minotr F.D. properties file   721 does not exist.
 End of Minotr F.D. properties file   722 does not exist.
 End of Minotr F.D. properties file   788 does not exist.
 Leave Link 1002 at Wed Jun 25 01:50:40 2014, MaxMem=  4294967296 cpu:    491229.7
 (Enter /home/ztw1e12/g09/l601.exe)
 Copying SCF densities to generalized density rwf, IOpCl= 0 IROHF=0.

 **********************************************************************

            Population analysis using the SCF density.

 **********************************************************************

 Orbital symmetries:
       Occupied  (A) (A) (A) (A) (A) (A) (A) (A) (A) (A) (A) (A)
                 (A) (A) (A) (A) (A) (A) (A) (A) (A) (A) (A) (A)
                 (A) (A) (A) (A) (A) (A) (A) (A) (A) (A) (A) (A)
                 (A) (A) (A) (A) (A) (A) (A) (A) (A) (A) (A) (A)
                 (A) (A) (A) (A) (A) (A) (A) (A) (A) (A) (A) (A)
                 (A) (A) (A)
       Virtual   (A) (A) (A) (A) (A) (A) (A) (A) (A) (A) (A) (A)
                 (A) (A) (A) (A) (A) (A) (A) (A) (A) (A) (A) (A)
                 (A) (A) (A) (A) (A) (A) (A) (A) (A) (A) (A) (A)
                 (A) (A) (A) (A) (A) (A) (A) (A) (A) (A) (A) (A)
                 (A) (A) (A) (A) (A) (A) (A) (A) (A) (A) (A) (A)
                 (A) (A) (A) (A) (A) (A) (A) (A) (A) (A) (A) (A)
                 (A) (A) (A) (A) (A) (A) (A) (A) (A) (A) (A) (A)
                 (A) (A) (A) (A) (A) (A) (A) (A) (A) (A) (A) (A)
                 (A) (A) (A) (A) (A) (A) (A) (A) (A) (A) (A) (A)
                 (A) (A) (A) (A) (A) (A) (A) (A) (A) (A) (A) (A)
                 (A) (A) (A) (A) (A) (A) (A) (A) (A) (A) (A) (A)
                 (A) (A) (A) (A) (A) (A) (A) (A) (A) (A) (A) (A)
                 (A) (A) (A) (A) (A) (A) (A) (A) (A) (A) (A) (A)
                 (A) (A) (A) (A) (A) (A) (A) (A) (A) (A) (A) (A)
                 (A) (A) (A) (A) (A) (A) (A) (A) (A) (A) (A) (A)
                 (A) (A) (A) (A) (A) (A) (A) (A) (A) (A) (A) (A)
                 (A) (A) (A) (A) (A) (A) (A) (A) (A) (A) (A) (A)
                 (A) (A) (A) (A) (A) (A) (A) (A) (A) (A) (A) (A)
                 (A) (A) (A) (A) (A) (A) (A) (A) (A) (A) (A) (A)
                 (A) (A) (A) (A) (A) (A) (A) (A) (A) (A) (A) (A)
                 (A) (A) (A) (A) (A) (A) (A) (A) (A) (A) (A) (A)
                 (A) (A) (A) (A) (A) (A) (A) (A) (A) (A) (A) (A)
                 (A) (A) (A) (A) (A) (A) (A) (A) (A) (A) (A) (A)
                 (A) (A) (A) (A) (A) (A) (A) (A) (A) (A) (A) (A)
                 (A) (A) (A) (A) (A) (A) (A) (A) (A) (A) (A) (A)
                 (A) (A) (A) (A) (A) (A) (A) (A) (A) (A) (A) (A)
                 (A) (A) (A) (A) (A) (A) (A) (A) (A) (A) (A) (A)
                 (A) (A) (A) (A) (A) (A) (A) (A) (A) (A) (A) (A)
                 (A) (A) (A) (A) (A) (A) (A) (A) (A) (A) (A) (A)
                 (A) (A) (A) (A) (A) (A) (A) (A) (A) (A) (A) (A)
                 (A) (A) (A) (A) (A) (A) (A) (A) (A) (A) (A) (A)
                 (A) (A) (A) (A) (A) (A) (A) (A) (A) (A) (A) (A)
                 (A) (A) (A) (A) (A) (A) (A) (A) (A) (A) (A) (A)
                 (A) (A) (A) (A) (A) (A) (A) (A) (A) (A) (A) (A)
                 (A) (A) (A) (A) (A) (A) (A) (A) (A) (A) (A) (A)
                 (A) (A) (A) (A) (A) (A) (A) (A) (A) (A) (A) (A)
                 (A) (A) (A) (A) (A) (A) (A) (A) (A) (A) (A) (A)
                 (A) (A) (A) (A) (A) (A) (A) (A) (A) (A) (A) (A)
                 (A) (A) (A) (A) (A) (A) (A) (A) (A) (A) (A) (A)
                 (A) (A) (A) (A) (A) (A) (A) (A) (A) (A) (A) (A)
                 (A) (A) (A) (A) (A) (A) (A) (A) (A) (A) (A) (A)
                 (A) (A) (A) (A) (A) (A) (A) (A) (A) (A) (A) (A)
                 (A) (A) (A) (A) (A) (A) (A) (A) (A) (A) (A) (A)
                 (A) (A) (A) (A) (A) (A) (A) (A) (A) (A) (A) (A)
                 (A) (A) (A) (A) (A) (A) (A) (A) (A) (A) (A) (A)
                 (A) (A) (A) (A) (A) (A) (A) (A) (A) (A) (A) (A)
                 (A) (A) (A) (A) (A) (A) (A) (A) (A) (A) (A) (A)
                 (A) (A) (A) (A) (A) (A) (A) (A) (A) (A) (A) (A)
                 (A) (A) (A) (A) (A) (A) (A) (A) (A) (A) (A) (A)
                 (A) (A) (A) (A) (A) (A) (A) (A) (A) (A) (A) (A)
                 (A) (A) (A) (A) (A) (A) (A) (A) (A) (A) (A) (A)
                 (A) (A) (A) (A) (A) (A) (A) (A) (A) (A) (A) (A)
                 (A) (A) (A) (A) (A) (A) (A) (A) (A) (A) (A) (A)
                 (A) (A) (A) (A) (A) (A) (A) (A) (A) (A) (A) (A)
                 (A) (A) (A) (A) (A) (A) (A) (A) (A) (A) (A) (A)
                 (A) (A) (A) (A) (A) (A) (A) (A) (A) (A) (A) (A)
                 (A) (A) (A) (A) (A) (A) (A) (A) (A) (A) (A) (A)
                 (A) (A) (A) (A) (A) (A) (A) (A) (A) (A) (A) (A)
                 (A) (A) (A) (A) (A) (A) (A) (A) (A) (A) (A) (A)
                 (A) (A) (A) (A) (A) (A) (A) (A) (A) (A) (A) (A)
                 (A) (A) (A) (A) (A) (A) (A) (A) (A) (A) (A) (A)
                 (A) (A) (A) (A) (A) (A) (A) (A) (A) (A) (A) (A)
                 (A) (A) (A) (A) (A) (A) (A) (A) (A) (A) (A) (A)
                 (A) (A) (A) (A) (A) (A) (A) (A) (A) (A) (A) (A)
                 (A) (A) (A) (A) (A) (A) (A) (A) (A) (A) (A) (A)
                 (A) (A) (A) (A) (A) (A) (A) (A) (A) (A) (A) (A)
                 (A) (A) (A) (A) (A) (A) (A) (A) (A) (A) (A) (A)
                 (A) (A) (A) (A) (A) (A) (A) (A) (A) (A) (A) (A)
                 (A) (A) (A) (A) (A) (A) (A) (A) (A) (A) (A) (A)
                 (A) (A) (A) (A) (A) (A) (A) (A) (A) (A) (A) (A)
                 (A) (A) (A) (A) (A) (A) (A) (A) (A) (A) (A) (A)
                 (A) (A) (A) (A) (A) (A) (A) (A) (A) (A) (A) (A)
                 (A) (A) (A) (A) (A) (A) (A) (A) (A) (A) (A) (A)
                 (A) (A) (A) (A) (A) (A) (A) (A) (A) (A) (A) (A)
                 (A) (A) (A) (A) (A) (A) (A) (A) (A) (A) (A) (A)
                 (A) (A) (A) (A) (A) (A) (A) (A) (A) (A) (A) (A)
                 (A) (A) (A) (A) (A) (A) (A) (A) (A) (A) (A) (A)
                 (A) (A) (A) (A) (A) (A) (A) (A) (A) (A) (A) (A)
                 (A) (A) (A) (A) (A) (A) (A) (A) (A) (A) (A) (A)
                 (A) (A) (A) (A) (A) (A) (A) (A) (A) (A) (A) (A)
                 (A) (A) (A) (A) (A) (A) (A) (A) (A) (A) (A) (A)
                 (A) (A) (A) (A) (A) (A) (A) (A) (A) (A) (A) (A)
                 (A) (A) (A) (A) (A) (A) (A) (A) (A) (A) (A) (A)
                 (A) (A) (A) (A) (A) (A) (A) (A) (A)
 The electronic state is 1-A.
 Alpha  occ. eigenvalues --  -19.24672 -19.17667 -19.16636 -14.42911 -14.41564
 Alpha  occ. eigenvalues --  -10.34579 -10.33027 -10.30720 -10.29267 -10.26866
 Alpha  occ. eigenvalues --  -10.26330 -10.25106 -10.25058 -10.24785 -10.24556
 Alpha  occ. eigenvalues --  -10.24440 -10.23729  -1.08976  -1.05875  -1.04384
 Alpha  occ. eigenvalues --   -0.95858  -0.93556  -0.87698  -0.81469  -0.77275
 Alpha  occ. eigenvalues --   -0.76602  -0.73940  -0.71832  -0.66873  -0.64039
 Alpha  occ. eigenvalues --   -0.62329  -0.60006  -0.59455  -0.56260  -0.55242
 Alpha  occ. eigenvalues --   -0.52386  -0.50271  -0.49917  -0.48019  -0.47303
 Alpha  occ. eigenvalues --   -0.46855  -0.45530  -0.45189  -0.44210  -0.43853
 Alpha  occ. eigenvalues --   -0.43093  -0.42400  -0.41879  -0.41346  -0.41038
 Alpha  occ. eigenvalues --   -0.39931  -0.39216  -0.37927  -0.37378  -0.35575
 Alpha  occ. eigenvalues --   -0.35263  -0.35012  -0.29959  -0.27849  -0.27173
 Alpha  occ. eigenvalues --   -0.26608  -0.25486  -0.23686
 Alpha virt. eigenvalues --   -0.01091  -0.00506   0.00632   0.01901   0.02030
 Alpha virt. eigenvalues --    0.02936   0.03862   0.04574   0.05418   0.06572
 Alpha virt. eigenvalues --    0.06914   0.07820   0.09045   0.10053   0.10619
 Alpha virt. eigenvalues --    0.10826   0.11847   0.12051   0.12477   0.13047
 Alpha virt. eigenvalues --    0.14725   0.15365   0.16870   0.17433   0.19403
 Alpha virt. eigenvalues --    0.20209   0.21314   0.21827   0.22795   0.23425
 Alpha virt. eigenvalues --    0.23675   0.24305   0.24890   0.25644   0.25864
 Alpha virt. eigenvalues --    0.26825   0.28023   0.28592   0.29538   0.30152
 Alpha virt. eigenvalues --    0.30407   0.31338   0.31509   0.31825   0.31907
 Alpha virt. eigenvalues --    0.32938   0.33654   0.34176   0.34650   0.35224
 Alpha virt. eigenvalues --    0.35803   0.36141   0.36803   0.36915   0.37840
 Alpha virt. eigenvalues --    0.38263   0.38441   0.38972   0.39147   0.39956
 Alpha virt. eigenvalues --    0.40328   0.41028   0.41232   0.41532   0.42025
 Alpha virt. eigenvalues --    0.42423   0.42744   0.43078   0.43557   0.44370
 Alpha virt. eigenvalues --    0.44712   0.44974   0.45778   0.46666   0.47315
 Alpha virt. eigenvalues --    0.47823   0.48510   0.49265   0.49500   0.50719
 Alpha virt. eigenvalues --    0.51031   0.51463   0.51839   0.52825   0.54014
 Alpha virt. eigenvalues --    0.54204   0.54836   0.56332   0.56884   0.57740
 Alpha virt. eigenvalues --    0.58946   0.59091   0.59803   0.60989   0.61610
 Alpha virt. eigenvalues --    0.61748   0.62729   0.63060   0.64753   0.65445
 Alpha virt. eigenvalues --    0.65619   0.66774   0.66998   0.67909   0.69328
 Alpha virt. eigenvalues --    0.70138   0.70827   0.70993   0.71756   0.72317
 Alpha virt. eigenvalues --    0.72965   0.74046   0.74576   0.75459   0.76667
 Alpha virt. eigenvalues --    0.76785   0.77456   0.78457   0.79479   0.80379
 Alpha virt. eigenvalues --    0.81357   0.81506   0.82584   0.82778   0.83601
 Alpha virt. eigenvalues --    0.83985   0.84568   0.85096   0.86394   0.87422
 Alpha virt. eigenvalues --    0.88087   0.89176   0.89811   0.90361   0.91491
 Alpha virt. eigenvalues --    0.92274   0.92772   0.94079   0.95176   0.95547
 Alpha virt. eigenvalues --    0.95685   0.96392   0.96498   0.97250   0.98086
 Alpha virt. eigenvalues --    0.99335   1.00179   1.00556   1.01926   1.02043
 Alpha virt. eigenvalues --    1.02679   1.02940   1.04272   1.04818   1.05115
 Alpha virt. eigenvalues --    1.06511   1.07369   1.08120   1.08509   1.09564
 Alpha virt. eigenvalues --    1.10119   1.11667   1.11991   1.13130   1.13785
 Alpha virt. eigenvalues --    1.13904   1.15813   1.16099   1.16567   1.17186
 Alpha virt. eigenvalues --    1.17883   1.18104   1.19069   1.19504   1.20204
 Alpha virt. eigenvalues --    1.20673   1.21051   1.21577   1.22609   1.22847
 Alpha virt. eigenvalues --    1.23111   1.23394   1.24490   1.24920   1.25588
 Alpha virt. eigenvalues --    1.26200   1.26406   1.26934   1.27585   1.27930
 Alpha virt. eigenvalues --    1.28348   1.29103   1.29856   1.30457   1.31573
 Alpha virt. eigenvalues --    1.32134   1.32331   1.32600   1.33786   1.34252
 Alpha virt. eigenvalues --    1.35011   1.35486   1.35748   1.37729   1.38484
 Alpha virt. eigenvalues --    1.39716   1.41160   1.42136   1.43618   1.43974
 Alpha virt. eigenvalues --    1.45364   1.48011   1.49434   1.50799   1.51523
 Alpha virt. eigenvalues --    1.53248   1.53927   1.54187   1.57335   1.57768
 Alpha virt. eigenvalues --    1.58406   1.60265   1.61966   1.63696   1.64396
 Alpha virt. eigenvalues --    1.66573   1.66894   1.69724   1.70515   1.72324
 Alpha virt. eigenvalues --    1.74306   1.74879   1.76510   1.77389   1.80096
 Alpha virt. eigenvalues --    1.81068   1.82233   1.83179   1.84166   1.85195
 Alpha virt. eigenvalues --    1.86395   1.86643   1.88665   1.90046   1.92088
 Alpha virt. eigenvalues --    1.92453   1.93623   1.95148   1.96587   1.96821
 Alpha virt. eigenvalues --    1.97901   1.98874   2.01364   2.02477   2.04134
 Alpha virt. eigenvalues --    2.04486   2.05208   2.07436   2.08393   2.08850
 Alpha virt. eigenvalues --    2.10081   2.13704   2.14345   2.14923   2.15701
 Alpha virt. eigenvalues --    2.16767   2.18017   2.19243   2.19837   2.19952
 Alpha virt. eigenvalues --    2.21380   2.21804   2.23552   2.25482   2.26973
 Alpha virt. eigenvalues --    2.27945   2.28633   2.30923   2.32632   2.32938
 Alpha virt. eigenvalues --    2.34681   2.36200   2.37227   2.37670   2.37945
 Alpha virt. eigenvalues --    2.39424   2.40161   2.41618   2.42032   2.42873
 Alpha virt. eigenvalues --    2.43889   2.45392   2.47343   2.47806   2.49241
 Alpha virt. eigenvalues --    2.50413   2.51185   2.52687   2.53498   2.53764
 Alpha virt. eigenvalues --    2.56500   2.57151   2.58213   2.58496   2.60198
 Alpha virt. eigenvalues --    2.62609   2.64242   2.65449   2.66368   2.67332
 Alpha virt. eigenvalues --    2.67750   2.68385   2.68941   2.69431   2.69783
 Alpha virt. eigenvalues --    2.69944   2.71054   2.71635   2.72201   2.72596
 Alpha virt. eigenvalues --    2.73461   2.74794   2.75193   2.76118   2.76420
 Alpha virt. eigenvalues --    2.76912   2.78323   2.79675   2.80103   2.81521
 Alpha virt. eigenvalues --    2.82182   2.82616   2.84806   2.85157   2.85899
 Alpha virt. eigenvalues --    2.87243   2.87733   2.88312   2.88698   2.89810
 Alpha virt. eigenvalues --    2.90421   2.90639   2.91193   2.92338   2.93538
 Alpha virt. eigenvalues --    2.94168   2.94524   2.95159   2.95821   2.96137
 Alpha virt. eigenvalues --    2.97130   2.97265   2.97427   2.98413   2.98908
 Alpha virt. eigenvalues --    2.99098   2.99720   3.00999   3.01510   3.01765
 Alpha virt. eigenvalues --    3.03103   3.03363   3.04439   3.05265   3.05580
 Alpha virt. eigenvalues --    3.05693   3.06708   3.07199   3.08215   3.09294
 Alpha virt. eigenvalues --    3.10712   3.11440   3.12948   3.13189   3.14391
 Alpha virt. eigenvalues --    3.14461   3.15229   3.15655   3.15921   3.17723
 Alpha virt. eigenvalues --    3.18376   3.18765   3.19810   3.20054   3.21130
 Alpha virt. eigenvalues --    3.21993   3.22687   3.22871   3.24970   3.25622
 Alpha virt. eigenvalues --    3.25980   3.27233   3.27963   3.28318   3.28823
 Alpha virt. eigenvalues --    3.28982   3.29542   3.30491   3.30735   3.30980
 Alpha virt. eigenvalues --    3.31825   3.32199   3.33214   3.33631   3.34052
 Alpha virt. eigenvalues --    3.34821   3.36064   3.37104   3.37455   3.38869
 Alpha virt. eigenvalues --    3.39739   3.40785   3.42106   3.42393   3.42724
 Alpha virt. eigenvalues --    3.43229   3.44534   3.45191   3.46409   3.46849
 Alpha virt. eigenvalues --    3.47994   3.48374   3.50928   3.51395   3.52186
 Alpha virt. eigenvalues --    3.52782   3.53422   3.54174   3.55238   3.56371
 Alpha virt. eigenvalues --    3.57176   3.58706   3.60140   3.61381   3.62153
 Alpha virt. eigenvalues --    3.63037   3.63264   3.64128   3.64774   3.66886
 Alpha virt. eigenvalues --    3.67375   3.68412   3.69340   3.70314   3.71407
 Alpha virt. eigenvalues --    3.72171   3.72685   3.73093   3.74172   3.74410
 Alpha virt. eigenvalues --    3.74867   3.74945   3.76102   3.77159   3.78513
 Alpha virt. eigenvalues --    3.79522   3.79629   3.80871   3.81336   3.81964
 Alpha virt. eigenvalues --    3.82129   3.83576   3.83974   3.85695   3.86011
 Alpha virt. eigenvalues --    3.86682   3.87824   3.88681   3.89344   3.90235
 Alpha virt. eigenvalues --    3.91545   3.92184   3.92865   3.93177   3.95031
 Alpha virt. eigenvalues --    3.96798   3.97638   3.98425   3.99062   4.00255
 Alpha virt. eigenvalues --    4.00725   4.02560   4.03739   4.04763   4.05127
 Alpha virt. eigenvalues --    4.05475   4.05998   4.07837   4.08273   4.09026
 Alpha virt. eigenvalues --    4.09916   4.11479   4.12430   4.13053   4.14240
 Alpha virt. eigenvalues --    4.14938   4.15924   4.17040   4.17534   4.19068
 Alpha virt. eigenvalues --    4.19350   4.19406   4.21307   4.21771   4.22576
 Alpha virt. eigenvalues --    4.22984   4.24413   4.25544   4.25791   4.26182
 Alpha virt. eigenvalues --    4.27641   4.27828   4.28348   4.29909   4.30197
 Alpha virt. eigenvalues --    4.31362   4.32035   4.33328   4.36632   4.38147
 Alpha virt. eigenvalues --    4.39127   4.40115   4.42386   4.42823   4.43515
 Alpha virt. eigenvalues --    4.45424   4.47974   4.48820   4.49081   4.52333
 Alpha virt. eigenvalues --    4.53410   4.56162   4.56973   4.57344   4.57629
 Alpha virt. eigenvalues --    4.58350   4.60227   4.60375   4.61883   4.62411
 Alpha virt. eigenvalues --    4.64388   4.64915   4.66333   4.67711   4.68014
 Alpha virt. eigenvalues --    4.68388   4.69617   4.70790   4.71807   4.73326
 Alpha virt. eigenvalues --    4.73490   4.75858   4.75901   4.77505   4.79322
 Alpha virt. eigenvalues --    4.80380   4.83247   4.84963   4.85485   4.86282
 Alpha virt. eigenvalues --    4.87197   4.89166   4.90414   4.90940   4.91535
 Alpha virt. eigenvalues --    4.92063   4.93738   4.93891   4.95414   4.96972
 Alpha virt. eigenvalues --    4.97328   4.99636   5.00668   5.00847   5.03102
 Alpha virt. eigenvalues --    5.04150   5.05052   5.06137   5.06533   5.07578
 Alpha virt. eigenvalues --    5.09645   5.11641   5.12668   5.13404   5.14331
 Alpha virt. eigenvalues --    5.15274   5.15812   5.17161   5.17993   5.18961
 Alpha virt. eigenvalues --    5.19849   5.21968   5.24439   5.26577   5.28875
 Alpha virt. eigenvalues --    5.30937   5.33614   5.34404   5.36135   5.38384
 Alpha virt. eigenvalues --    5.40452   5.43783   5.44512   5.47114   5.47760
 Alpha virt. eigenvalues --    5.51442   5.52155   5.52630   5.54571   5.55398
 Alpha virt. eigenvalues --    5.57477   5.58161   5.58943   5.60802   5.63440
 Alpha virt. eigenvalues --    5.63794   5.64867   5.66330   5.67008   5.68446
 Alpha virt. eigenvalues --    5.68974   5.70441   5.71700   5.72983   5.74899
 Alpha virt. eigenvalues --    5.75279   5.75668   5.79216   5.80306   5.81483
 Alpha virt. eigenvalues --    5.85211   5.88382   5.89993   5.90885   5.96826
 Alpha virt. eigenvalues --    5.98291   5.99262   6.03766   6.08134   6.10890
 Alpha virt. eigenvalues --    6.17568   6.18220   6.18828   6.22462   6.26762
 Alpha virt. eigenvalues --    6.46656   6.46958   6.51544   6.52399   6.56413
 Alpha virt. eigenvalues --    6.61022   6.62290   6.62658   6.65034   6.67730
 Alpha virt. eigenvalues --    6.79713   6.80541   6.82037   6.88653   6.89327
 Alpha virt. eigenvalues --    6.91825   6.92147   6.92527   6.96324   7.07060
 Alpha virt. eigenvalues --    7.17524   7.19326   7.23108   7.28406   7.29823
 Alpha virt. eigenvalues --    7.67673   8.01498   8.11438   8.13469   8.14047
 Alpha virt. eigenvalues --    8.19328   8.27788   8.29183   8.36813   8.68044
 Alpha virt. eigenvalues --    8.74107   8.75864   8.77797   8.78441   8.82021
 Alpha virt. eigenvalues --    8.83565   8.83994   8.85208   8.87496   8.88519
 Alpha virt. eigenvalues --    8.93112   8.95777   8.96503   8.99095   9.07806
 Alpha virt. eigenvalues --    9.08793   9.15490   9.20349   9.22203   9.31612
 Alpha virt. eigenvalues --    9.36235   9.40590   9.41452   9.45865   9.48440
 Alpha virt. eigenvalues --    9.58894   9.62471   9.78938   9.81930  10.01900
 Alpha virt. eigenvalues --   10.07328  10.09630  10.12911  10.13670  10.18349
[...]
 Alpha virt. eigenvalues --    7.15458   7.17625   7.29206   7.43980   8.87409
 Alpha virt. eigenvalues --    9.53580   9.88287  11.84758  12.14671  12.32354
 Alpha virt. eigenvalues --   12.44951  12.70861  12.80369  12.93400  13.33216
 Alpha virt. eigenvalues --   13.40118  13.55730  13.65139  13.71670  13.97459
 Alpha virt. eigenvalues --   15.60687
          Condensed to atoms (all electrons):
               1          2          3          4          5          6
     1  C    5.501937   0.174499   0.002446  -0.035469  -0.018760   0.291373
     2  C    0.174499   5.599533   0.186885   0.003694  -0.047694   0.037039
     3  C    0.002446   0.186885   5.440742   0.349830  -0.035856  -0.073193
     4  C   -0.035469   0.003694   0.349830   5.081094   0.448928  -0.023317
     5  C   -0.018760  -0.047694  -0.035856   0.448928   5.036925   0.388037
     6  C    0.291373   0.037039  -0.073193  -0.023317   0.388037   4.865810
     7  H    0.449067  -0.037784   0.009546  -0.000666   0.004174  -0.072548
     8  H   -0.014660   0.430799  -0.089373   0.003409  -0.000809   0.006162
     9  H   -0.003932   0.011387  -0.086354   0.457087  -0.039834   0.011827
    10  H    0.014544  -0.006121   0.014342  -0.056028   0.453051  -0.080702
    11  C    0.008018  -0.024299   0.157173  -0.046430   0.004209  -0.001148
    12  H    0.000476  -0.010264  -0.059441   0.004089  -0.000076  -0.000048
    13  H   -0.000475   0.007093  -0.041024  -0.009013   0.000067   0.000049
    14  C    0.000829  -0.018087   0.001619  -0.008318   0.000350   0.000000
    15  H    0.000008   0.002306  -0.003258   0.000421  -0.000137   0.000015
    16  C   -0.000379  -0.004266   0.024208   0.000314   0.001226  -0.000726
    17  O   -0.090638   0.014226  -0.000573   0.002673  -0.049441   0.393706
    18  H   -0.005857   0.004899  -0.000436  -0.000639   0.002199  -0.042861
    19  O    0.000335  -0.003786  -0.009131   0.002093   0.001071  -0.000219
    20  N    0.000030   0.001030  -0.001253   0.000658   0.000000   0.000003
    21  H    0.000007   0.000970  -0.001461  -0.000128  -0.000002   0.000001
    22  N    0.001547   0.015449  -0.017611   0.000852  -0.000285   0.000458
    23  H    0.000732   0.003113  -0.004762  -0.000289  -0.000031   0.000046
    24  C   -0.000004  -0.000167  -0.000174   0.000024   0.000001   0.000000
    25  C    0.000000   0.000008   0.000011   0.000000   0.000000   0.000000
    26  H    0.000000   0.000000  -0.000005   0.000000   0.000000   0.000000
    27  H    0.000000  -0.000003   0.000008   0.000000   0.000000   0.000000
    28  H    0.000000  -0.000011   0.000006   0.000001   0.000000   0.000000
    29  C   -0.003212  -0.001607   0.001085   0.000289   0.000010   0.000084
    30  H   -0.000620   0.000674  -0.000640  -0.000292   0.000083   0.000546
    31  H    0.000104  -0.000526   0.000263   0.000003   0.000008  -0.000023
    32  H    0.000109   0.000423   0.000071  -0.000056  -0.000011  -0.000019
    33  O    0.000000   0.000011   0.000030  -0.000008   0.000000   0.000000
               7          8          9         10         11         12
     1  C    0.449067  -0.014660  -0.003932   0.014544   0.008018   0.000476
     2  C   -0.037784   0.430799   0.011387  -0.006121  -0.024299  -0.010264
     3  C    0.009546  -0.089373  -0.086354   0.014342   0.157173  -0.059441
     4  C   -0.000666   0.003409   0.457087  -0.056028  -0.046430   0.004089
     5  C    0.004174  -0.000809  -0.039834   0.453051   0.004209  -0.000076
     6  C   -0.072548   0.006162   0.011827  -0.080702  -0.001148  -0.000048
     7  H    0.522666  -0.006547   0.000038  -0.000224  -0.000351  -0.000032
     8  H   -0.006547   0.478819  -0.000257   0.000062   0.008514   0.000312
     9  H    0.000038  -0.000257   0.513216  -0.009675   0.000975   0.000053
    10  H   -0.000224   0.000062  -0.009675   0.545592  -0.000158   0.000020
    11  C   -0.000351   0.008514   0.000975  -0.000158   5.434113   0.451188
    12  H   -0.000032   0.000312   0.000053   0.000020   0.451188   0.458644
    13  H    0.000017   0.000434   0.001123  -0.000025   0.439922  -0.002253
    14  C    0.000005  -0.000511  -0.001769   0.000001   0.113939  -0.068825
    15  H   -0.000002   0.000109   0.000377  -0.000006  -0.012433   0.000367
    16  C    0.000155  -0.001209   0.000099   0.000047  -0.038165   0.008762
    17  O   -0.004002  -0.000135  -0.000128   0.006259   0.000001   0.000000
    18  H    0.004457  -0.000013   0.000044  -0.000970  -0.000006   0.000000
    19  O    0.000013  -0.000123   0.001034   0.000059   0.001471  -0.000237
    20  N   -0.000002  -0.000204   0.000049   0.000000  -0.015485  -0.005064
    21  H   -0.000002   0.000722  -0.000008   0.000000   0.002798   0.008144
    22  N   -0.000188   0.001416   0.000103  -0.000008  -0.002353  -0.002122
    23  H   -0.000054   0.002010  -0.000013   0.000000   0.004455  -0.000422
    24  C    0.000000  -0.000084   0.000002   0.000000   0.009402   0.000409
    25  C    0.000000   0.000004   0.000000   0.000000  -0.000294  -0.000209
    26  H    0.000000   0.000000   0.000000   0.000000  -0.000001  -0.000003
    27  H    0.000000  -0.000003   0.000000   0.000000   0.000002   0.000017
    28  H    0.000000  -0.000008   0.000000   0.000000  -0.000166  -0.000045
    29  C    0.000083   0.000327  -0.000009   0.000003  -0.001160   0.000090
    30  H    0.000235  -0.000595  -0.000004   0.000012   0.000506   0.000024
    31  H    0.000037   0.000101  -0.000001   0.000000  -0.000052   0.000013
    32  H   -0.000008   0.000060  -0.000001   0.000000  -0.000179  -0.000001
    33  O    0.000000   0.000005  -0.000001   0.000000   0.000991  -0.000039
              13         14         15         16         17         18
     1  C   -0.000475   0.000829   0.000008  -0.000379  -0.090638  -0.005857
     2  C    0.007093  -0.018087   0.002306  -0.004266   0.014226   0.004899
     3  C   -0.041024   0.001619  -0.003258   0.024208  -0.000573  -0.000436
     4  C   -0.009013  -0.008318   0.000421   0.000314   0.002673  -0.000639
     5  C    0.000067   0.000350  -0.000137   0.001226  -0.049441   0.002199
     6  C    0.000049   0.000000   0.000015  -0.000726   0.393706  -0.042861
     7  H    0.000017   0.000005  -0.000002   0.000155  -0.004002   0.004457
     8  H    0.000434  -0.000511   0.000109  -0.001209  -0.000135  -0.000013
     9  H    0.001123  -0.001769   0.000377   0.000099  -0.000128   0.000044
    10  H   -0.000025   0.000001  -0.000006   0.000047   0.006259  -0.000970
    11  C    0.439922   0.113939  -0.012433  -0.038165   0.000001  -0.000006
    12  H   -0.002253  -0.068825   0.000367   0.008762   0.000000   0.000000
    13  H    0.472554  -0.053434  -0.004621   0.005677   0.000000   0.000000
    14  C   -0.053434   5.622382   0.434918   0.146220   0.000000   0.000000
    15  H   -0.004621   0.434918   0.454303  -0.072205   0.000000   0.000000
    16  C    0.005677   0.146220  -0.072205   4.829934   0.000001   0.000000
    17  O    0.000000   0.000000   0.000000   0.000001   7.661623   0.358934
    18  H    0.000000   0.000000   0.000000   0.000000   0.358934   0.492984
    19  O   -0.000920  -0.063353   0.006791   0.724268   0.000000   0.000000
    20  N   -0.000163   0.094602  -0.035231  -0.029911   0.000000   0.000000
    21  H    0.001372  -0.027724   0.003113  -0.000799   0.000000   0.000000
    22  N   -0.000499  -0.076116   0.007684   0.234179   0.000000   0.000000
    23  H    0.000065   0.000984   0.001136  -0.040887   0.000000   0.000000
    24  C   -0.000564  -0.088994  -0.003847   0.004538   0.000000   0.000000
    25  C   -0.000019   0.011049   0.001866  -0.002315   0.000000   0.000000
    26  H   -0.000002  -0.000317   0.000095  -0.000144   0.000000   0.000000
    27  H   -0.000001  -0.000437  -0.000193   0.000592   0.000000   0.000000
    28  H    0.000006   0.000039  -0.000333   0.000092   0.000000   0.000000
    29  C    0.000041   0.010117  -0.000668  -0.047549   0.000000  -0.000001
    30  H   -0.000004  -0.002326  -0.000252   0.011860  -0.000032  -0.000003
    31  H    0.000001   0.000468  -0.000007   0.009736   0.000000   0.000000
    32  H    0.000004   0.002155   0.000126  -0.012617   0.000000   0.000000
    33  O    0.000018   0.016005   0.015517   0.000236   0.000000   0.000000
              19         20         21         22         23         24
     1  C    0.000335   0.000030   0.000007   0.001547   0.000732  -0.000004
     2  C   -0.003786   0.001030   0.000970   0.015449   0.003113  -0.000167
     3  C   -0.009131  -0.001253  -0.001461  -0.017611  -0.004762  -0.000174
     4  C    0.002093   0.000658  -0.000128   0.000852  -0.000289   0.000024
     5  C    0.001071   0.000000  -0.000002  -0.000285  -0.000031   0.000001
     6  C   -0.000219   0.000003   0.000001   0.000458   0.000046   0.000000
     7  H    0.000013  -0.000002  -0.000002  -0.000188  -0.000054   0.000000
     8  H   -0.000123  -0.000204   0.000722   0.001416   0.002010  -0.000084
     9  H    0.001034   0.000049  -0.000008   0.000103  -0.000013   0.000002
    10  H    0.000059   0.000000   0.000000  -0.000008   0.000000   0.000000
    11  C    0.001471  -0.015485   0.002798  -0.002353   0.004455   0.009402
    12  H   -0.000237  -0.005064   0.008144  -0.002122  -0.000422   0.000409
    13  H   -0.000920  -0.000163   0.001372  -0.000499   0.000065  -0.000564
    14  C   -0.063353   0.094602  -0.027724  -0.076116   0.000984  -0.088994
    15  H    0.006791  -0.035231   0.003113   0.007684   0.001136  -0.003847
    16  C    0.724268  -0.029911  -0.000799   0.234179  -0.040887   0.004538
    17  O    0.000000   0.000000   0.000000   0.000000   0.000000   0.000000
    18  H    0.000000   0.000000   0.000000   0.000000   0.000000   0.000000
    19  O    7.810393   0.005440  -0.000239  -0.124086   0.005535  -0.000937
    20  N    0.005440   6.703640   0.363089   0.003457   0.025121   0.324721
    21  H   -0.000239   0.363089   0.510094  -0.000889   0.000870  -0.018951
    22  N   -0.124086   0.003457  -0.000889   6.537592   0.389058   0.010882
    23  H    0.005535   0.025121   0.000870   0.389058   0.527254  -0.005054
    24  C   -0.000937   0.324721  -0.018951   0.010882  -0.005054   4.601871
    25  C   -0.000006  -0.067129  -0.000412  -0.000369   0.000577   0.271222
    26  H    0.000001   0.000496  -0.000024   0.000009   0.000127  -0.025781
    27  H   -0.000004  -0.001581  -0.000092   0.000326  -0.000540  -0.023566
    28  H    0.000000   0.013609  -0.000814   0.000123  -0.000069  -0.057703
    29  C    0.006350  -0.001784   0.000042   0.280329  -0.034660  -0.000064
    30  H    0.004298  -0.000013  -0.000018  -0.068113  -0.000627   0.000177
    31  H    0.001475  -0.000147   0.000032  -0.030219  -0.008693  -0.000067
    32  H    0.006863  -0.000328   0.000016  -0.033105   0.004183  -0.000307
    33  O   -0.000449  -0.139847   0.004932  -0.004252  -0.002129   0.723938
              25         26         27         28         29         30
     1  C    0.000000   0.000000   0.000000   0.000000  -0.003212  -0.000620
     2  C    0.000008   0.000000  -0.000003  -0.000011  -0.001607   0.000674
     3  C    0.000011  -0.000005   0.000008   0.000006   0.001085  -0.000640
     4  C    0.000000   0.000000   0.000000   0.000001   0.000289  -0.000292
     5  C    0.000000   0.000000   0.000000   0.000000   0.000010   0.000083
     6  C    0.000000   0.000000   0.000000   0.000000   0.000084   0.000546
     7  H    0.000000   0.000000   0.000000   0.000000   0.000083   0.000235
     8  H    0.000004   0.000000  -0.000003  -0.000008   0.000327  -0.000595
     9  H    0.000000   0.000000   0.000000   0.000000  -0.000009  -0.000004
    10  H    0.000000   0.000000   0.000000   0.000000   0.000003   0.000012
    11  C   -0.000294  -0.000001   0.000002  -0.000166  -0.001160   0.000506
    12  H   -0.000209  -0.000003   0.000017  -0.000045   0.000090   0.000024
    13  H   -0.000019  -0.000002  -0.000001   0.000006   0.000041  -0.000004
    14  C    0.011049  -0.000317  -0.000437   0.000039   0.010117  -0.002326
    15  H    0.001866   0.000095  -0.000193  -0.000333  -0.000668  -0.000252
    16  C   -0.002315  -0.000144   0.000592   0.000092  -0.047549   0.011860
    17  O    0.000000   0.000000   0.000000   0.000000   0.000000  -0.000032
    18  H    0.000000   0.000000   0.000000   0.000000  -0.000001  -0.000003
    19  O   -0.000006   0.000001  -0.000004   0.000000   0.006350   0.004298
    20  N   -0.067129   0.000496  -0.001581   0.013609  -0.001784  -0.000013
    21  H   -0.000412  -0.000024  -0.000092  -0.000814   0.000042  -0.000018
    22  N   -0.000369   0.000009   0.000326   0.000123   0.280329  -0.068113
    23  H    0.000577   0.000127  -0.000540  -0.000069  -0.034660  -0.000627
    24  C    0.271222  -0.025781  -0.023566  -0.057703  -0.000064   0.000177
    25  C    5.004113   0.390654   0.382188   0.394683  -0.000050  -0.000001
    26  H    0.390654   0.557586  -0.022392  -0.025247  -0.000002   0.000000
    27  H    0.382188  -0.022392   0.571392  -0.027093   0.000022   0.000003
    28  H    0.394683  -0.025247  -0.027093   0.601457   0.000005   0.000000
    29  C   -0.000050  -0.000002   0.000022   0.000005   4.816405   0.388422
    30  H   -0.000001   0.000000   0.000003   0.000000   0.388422   0.623038
    31  H   -0.000008   0.000000   0.000010   0.000001   0.392985  -0.031747
    32  H   -0.000007  -0.000001   0.000000  -0.000001   0.406560  -0.049175
    33  O   -0.068023   0.001578   0.001406   0.004536   0.000080   0.000003
              31         32         33
     1  C    0.000104   0.000109   0.000000
     2  C   -0.000526   0.000423   0.000011
     3  C    0.000263   0.000071   0.000030
     4  C    0.000003  -0.000056  -0.000008
     5  C    0.000008  -0.000011   0.000000
     6  C   -0.000023  -0.000019   0.000000
     7  H    0.000037  -0.000008   0.000000
     8  H    0.000101   0.000060   0.000005
     9  H   -0.000001  -0.000001  -0.000001
    10  H    0.000000   0.000000   0.000000
    11  C   -0.000052  -0.000179   0.000991
    12  H    0.000013  -0.000001  -0.000039
    13  H    0.000001   0.000004   0.000018
    14  C    0.000468   0.002155   0.016005
    15  H   -0.000007   0.000126   0.015517
    16  C    0.009736  -0.012617   0.000236
    17  O    0.000000   0.000000   0.000000
    18  H    0.000000   0.000000   0.000000
    19  O    0.001475   0.006863  -0.000449
    20  N   -0.000147  -0.000328  -0.139847
    21  H    0.000032   0.000016   0.004932
    22  N   -0.030219  -0.033105  -0.004252
    23  H   -0.008693   0.004183  -0.002129
    24  C   -0.000067  -0.000307   0.723938
    25  C   -0.000008  -0.000007  -0.068023
    26  H    0.000000  -0.000001   0.001578
    27  H    0.000010   0.000000   0.001406
    28  H    0.000001  -0.000001   0.004536
    29  C    0.392985   0.406560   0.000080
    30  H   -0.031747  -0.049175   0.000003
    31  H    0.599890  -0.024146   0.000004
    32  H   -0.024146   0.565785   0.000160
    33  O    0.000004   0.000160   7.824697
 Mulliken charges:
               1
     1  C   -0.272057
     2  C   -0.339425
     3  C    0.236280
     4  C   -0.174805
     5  C   -0.147405
     6  C    0.299645
     7  H    0.131920
     8  H    0.181266
     9  H    0.144568
    10  H    0.119925
    11  C   -0.494998
    12  H    0.216474
    13  H    0.184575
    14  C   -0.045468
    15  H    0.204043
    16  C    0.249029
    17  O   -0.292473
    18  H    0.187269
    19  O   -0.374000
    20  N   -0.237805
    21  H    0.155360
    22  N   -0.123251
    23  H    0.132964
    24  C    0.279078
    25  C   -0.317528
    26  H    0.123373
    27  H    0.119940
    28  H    0.096931
    29  C   -0.212562
    30  H    0.124580
    31  H    0.090507
    32  H    0.133447
    33  O   -0.379398
 Sum of Mulliken charges =   0.00000
 Mulliken charges with hydrogens summed into heavy atoms:
               1
     1  C   -0.140137
     2  C   -0.158160
     3  C    0.236280
     4  C   -0.030236
     5  C   -0.027480
     6  C    0.299645
    11  C   -0.093949
    14  C    0.158575
    16  C    0.249029
    17  O   -0.105205
    19  O   -0.374000
    20  N   -0.082445
    22  N    0.009713
    24  C    0.279078
    25  C    0.022716
    29  C    0.135972
    33  O   -0.379398
 Electronic spatial extent (au):  <R**2>=           4727.0149
 Charge=              0.0000 electrons
 Dipole moment (field-independent basis, Debye):
    X=              0.0142    Y=             -0.3604    Z=             -7.1161  Tot=              7.1252
 Quadrupole moment (field-independent basis, Debye-Ang):
   XX=           -100.7270   YY=            -92.2420   ZZ=           -102.1005
   XY=              8.3428   XZ=              8.8926   YZ=             -8.1392
 Traceless Quadrupole moment (field-independent basis, Debye-Ang):
   XX=             -2.3705   YY=              6.1145   ZZ=             -3.7440
   XY=              8.3428   XZ=              8.8926   YZ=             -8.1392
 Octapole moment (field-independent basis, Debye-Ang**2):
  XXX=             -6.6650  YYY=             25.1597  ZZZ=            -15.2060  XYY=             -2.1596
  XXY=             15.1095  XXZ=            -69.7095  XZZ=             11.6769  YZZ=             -2.0753
  YYZ=              1.9282  XYZ=            -14.9142
 Hexadecapole moment (field-independent basis, Debye-Ang**3):
 XXXX=          -4571.4836 YYYY=           -897.3839 ZZZZ=           -589.7683 XXXY=            201.8675
 XXXZ=             35.1432 YYYX=             29.6018 YYYZ=            -13.3924 ZZZX=             12.9172
 ZZZY=            -19.3756 XXYY=           -882.8373 XXZZ=           -839.4258 YYZZ=           -239.1922
 XXYZ=            -83.0542 YYXZ=             -3.0089 ZZXY=             19.3405
 N-N= 1.236176445575D+03 E-N=-4.342793288486D+03  KE= 7.961786864859D+02
 Calculating spin-rotation constants.
 Leave Link  601 at Wed Jun 25 07:08:33 2014, MaxMem=  4294967296 cpu:        94.6
 (Enter /home/ztw1e12/g09/l9999.exe)

 Test job not archived.
 1\1\GINC-GREEN0566\SP\RM06\Gen\C12H16N2O3\ROOT\25-Jun-2014\0\\#P Geom=
 AllCheck Guess=TCheck SCRF=Check GenChk RM06/ChkBas NMR=ReadFC IOp(3/6
 =22)\\NMR spin-spin scan\\0,1\C,0,2.426246,-0.466161,1.773365\C,0,1.79
 1907,-0.037127,0.620729\C,0,1.252853,-0.941061,-0.28626\C,0,1.381769,-
 2.297902,-0.01252\C,0,2.013319,-2.744865,1.132766\C,0,2.530732,-1.8247
 94,2.033192\H,0,2.846509,0.245373,2.47508\H,0,1.711148,1.026405,0.4219
 39\H,0,0.968297,-3.01883,-0.709151\H,0,2.109837,-3.802299,1.343664\C,0
 ,0.508478,-0.462867,-1.495697\H,0,0.996164,0.443023,-1.864689\H,0,0.57
 8652,-1.202522,-2.292811\C,0,-0.991671,-0.128744,-1.274129\H,0,-1.6062
 08,-0.888969,-1.759701\C,0,-1.365856,-0.214264,0.196845\O,0,3.138401,-
 2.306529,3.15337\H,0,3.43834,-1.570729,3.699264\O,0,-1.659979,-1.30091
 4,0.691126\N,0,-1.300847,1.157436,-1.85822\H,0,-0.545298,1.777055,-2.1
 0825\N,0,-1.31053,0.912535,0.91018\H,0,-0.985158,1.75194,0.456667\C,0,
 -2.571475,1.562745,-2.047821\C,0,-2.755264,2.913007,-2.657775\H,0,-3.3
 45051,2.809303,-3.568218\H,0,-3.32844,3.53313,-1.968769\H,0,-1.816499,
 3.410442,-2.892282\C,0,-1.408723,0.888181,2.351657\H,0,-0.612244,0.280
 413,2.788771\H,0,-1.326208,1.902804,2.72975\H,0,-2.365932,0.47592,2.66
 941\O,0,-3.526428,0.856397,-1.73261\\Version=EM64L-G09RevD.01\State=1-
 A\HF=-801.8537941\RMSD=4.905e-09\Dipole=1.7178405,2.2038325,-0.2245931
 \Quadrupole=-12.9438849,4.7366256,8.2072593,-1.2362129,1.4363764,1.517
 3241\PG=C01 [X(C12H16N2O3)]\\@


 SCIENCE IS A VERY HUMAN FORM OF KNOWLEDGE.
 WE ARE ALWAYS AT THE BRINK OF THE KNOWN,
 WE ALWAYS FEEL FORWARD FOR WHAT IS HOPED.
 EVERY JUDGEMENT IN SCIENCE STANDS ON THE EDGE OF ERROR, AND IS PERSONAL.
 SCIENCE IS A TRIBUTE TO WHAT WE CAN KNOW ALTHOUGH WE ARE FALLIBLE.

                     -- J. BRONOWSKI
 Job cpu time:       3 days 12 hours 20 minutes 34.9 seconds.
 File lengths (MBytes):  RWF=   3656 Int=      0 D2E=      0 Chk=     64 Scr=      8
 Normal termination of Gaussian 09 at Wed Jun 25 07:08:34 2014.
