 Entering Gaussian System, Link 0=g09
 Input=scan_input_13.gjf
 Output=scan_input_13.log
 Initial command:
 /home/ztw1e12/g09/l1.exe "/home/ztw1e12/tyrosine_scan/tyrosine_chi1_scan/Gau-25437.inp" -scrdir="/home/ztw1e12/tyrosine_scan/tyrosine_chi1_scan/"
 Default is to use a total of   8 processors:
                                8 via shared-memory
                                1 via Linda
 Entering Link 1 = /home/ztw1e12/g09/l1.exe PID=     25438.
  
 Copyright (c) 1988,1990,1992,1993,1995,1998,2003,2009,2013,
            Gaussian, Inc.  All Rights Reserved.
  
 This is part of the Gaussian(R) 09 program.  It is based on
 the Gaussian(R) 03 system (copyright 2003, Gaussian, Inc.),
 the Gaussian(R) 98 system (copyright 1998, Gaussian, Inc.),
 the Gaussian(R) 94 system (copyright 1995, Gaussian, Inc.),
 the Gaussian 92(TM) system (copyright 1992, Gaussian, Inc.),
 the Gaussian 90(TM) system (copyright 1990, Gaussian, Inc.),
 the Gaussian 88(TM) system (copyright 1988, Gaussian, Inc.),
 the Gaussian 86(TM) system (copyright 1986, Carnegie Mellon
 University), and the Gaussian 82(TM) system (copyright 1983,
 Carnegie Mellon University). Gaussian is a federally registered
 trademark of Gaussian, Inc.
  
 This software contains proprietary and confidential information,
 including trade secrets, belonging to Gaussian, Inc.
  
 This software is provided under written license and may be
 used, copied, transmitted, or stored only in accord with that
 written license.
  
 The following legend is applicable only to US Government
 contracts under FAR:
  
                    RESTRICTED RIGHTS LEGEND
  
 Use, reproduction and disclosure by the US Government is
 subject to restrictions as set forth in subparagraphs (a)
 and (c) of the Commercial Computer Software - Restricted
 Rights clause in FAR 52.227-19.
  
 Gaussian, Inc.
 340 Quinnipiac St., Bldg. 40, Wallingford CT 06492
  
  
 ---------------------------------------------------------------
 Warning -- This program may not be used in any manner that
 competes with the business of Gaussian, Inc. or will provide
 assistance to any competitor of Gaussian, Inc.  The licensee
 of this program is prohibited from giving any competitor of
 Gaussian, Inc. access to this program.  By using this program,
 the user acknowledges that Gaussian, Inc. is engaged in the
 business of creating and licensing software in the field of
 computational chemistry and represents and warrants to the
 licensee that it is not a competitor of Gaussian, Inc. and that
 it will not use this program in any manner prohibited above.
 ---------------------------------------------------------------
  

 Cite this work as:
 Gaussian 09, Revision D.01,
 M. J. Frisch, G. W. Trucks, H. B. Schlegel, G. E. Scuseria, 
 M. A. Robb, J. R. Cheeseman, G. Scalmani, V. Barone, B. Mennucci, 
 G. A. Petersson, H. Nakatsuji, M. Caricato, X. Li, H. P. Hratchian, 
 A. F. Izmaylov, J. Bloino, G. Zheng, J. L. Sonnenberg, M. Hada, 
 M. Ehara, K. Toyota, R. Fukuda, J. Hasegawa, M. Ishida, T. Nakajima, 
 Y. Honda, O. Kitao, H. Nakai, T. Vreven, J. A. Montgomery, Jr., 
 J. E. Peralta, F. Ogliaro, M. Bearpark, J. J. Heyd, E. Brothers, 
 K. N. Kudin, V. N. Staroverov, T. Keith, R. Kobayashi, J. Normand, 
 K. Raghavachari, A. Rendell, J. C. Burant, S. S. Iyengar, J. Tomasi, 
 M. Cossi, N. Rega, J. M. Millam, M. Klene, J. E. Knox, J. B. Cross, 
 V. Bakken, C. Adamo, J. Jaramillo, R. Gomperts, R. E. Stratmann, 
 O. Yazyev, A. J. Austin, R. Cammi, C. Pomelli, J. W. Ochterski, 
 R. L. Martin, K. Morokuma, V. G. Zakrzewski, G. A. Voth, 
 P. Salvador, J. J. Dannenberg, S. Dapprich, A. D. Daniels, 
 O. Farkas, J. B. Foresman, J. V. Ortiz, J. Cioslowski, 
 and D. J. Fox, Gaussian, Inc., Wallingford CT, 2013.
 
 ******************************************
 Gaussian 09:  EM64L-G09RevD.01 24-Apr-2013
                24-Jun-2014 
 ******************************************
 %Mem=32GB
 %NProcShared=16
 Will use up to   16 processors via shared memory.
 Default route:  MaxDisk=100GB
 ----------------------------------------------------------------------
 #p nmr=(giao,mixed,spinspin) m06/cc-pvtz scf=tight integral=(grid=ultr
 afine)
 ----------------------------------------------------------------------
 1/38=1/1;
 2/12=2,17=6,18=5,40=1/2;
 3/5=16,6=1,10=1100000,11=2,16=1,25=1,30=1,74=-54,75=-5/1,2,8,3;
 4//1;
 5/5=2,32=2,38=5/2;
 8/6=1,10=90,11=11/1;
 10/13=100,45=16,47=3/2;
 6/7=2,8=2,9=2,10=2,28=1/1;
 99/9=1/99;
 Leave Link    1 at Tue Jun 24 16:35:36 2014, MaxMem=  4294967296 cpu:         6.1
 (Enter /home/ztw1e12/g09/l101.exe)
 ------------------
 NMR spin-spin scan
 ------------------
 Symbolic Z-matrix:
 Charge =  0 Multiplicity = 1
 C                     2.73322   0.1263    0.92615 
 C                     1.93065   0.0579   -0.19926 
 C                     1.07167  -1.01408  -0.41327 
 C                     1.05408  -2.03337   0.53404 
 C                     1.85011  -1.98177   1.66283 
 C                     2.68913  -0.89539   1.86233 
 H                     3.40314   0.96436   1.08001 
 H                     1.98497   0.85518  -0.93302 
 H                     0.40009  -2.88521   0.38509 
 H                     1.83571  -2.77959   2.39455 
 C                     0.14834  -1.04745  -1.59469 
 H                     0.61966  -0.60844  -2.47625 
 H                    -0.08639  -2.08488  -1.83736 
 C                    -1.18982  -0.32443  -1.37014 
 H                    -1.90552  -0.70239  -2.10501 
 C                    -1.7654   -0.71601  -0.02249 
 O                     3.45807  -0.88423   2.98648 
 H                     4.001    -0.08794   2.99182 
 O                    -2.25963  -1.83482   0.11485 
 N                    -1.04635   1.10017  -1.57668 
 H                    -0.12205   1.49159  -1.67692 
 N                    -1.66766   0.16141   0.97518 
 H                    -1.2074    1.04053   0.79914 
 C                    -2.11357   1.90153  -1.76843 
 C                    -1.82074   3.3362   -2.05729 
 H                    -2.22409   3.58446  -3.0389 
 H                    -2.3386    3.95578  -1.32578 
 H                    -0.75812   3.56775  -2.03742 
 C                    -2.05902  -0.1848    2.32228 
 H                    -1.45159  -1.00636   2.7081 
 H                    -1.92514   0.68171   2.96255 
 H                    -3.10557  -0.48652   2.35735 
 O                    -3.26234   1.47032  -1.71098 
 
 NAtoms=     33 NQM=       33 NQMF=       0 NMMI=      0 NMMIF=      0
                NMic=       0 NMicF=      0.
                    Isotopes and Nuclear Properties:
 (Nuclear quadrupole moments (NQMom) in fm**2, nuclear magnetic moments (NMagM)
  in nuclear magnetons)

  Atom         1           2           3           4           5           6           7           8           9          10
 IAtWgt=          12          12          12          12          12          12           1           1           1           1
 AtmWgt=  12.0000000  12.0000000  12.0000000  12.0000000  12.0000000  12.0000000   1.0078250   1.0078250   1.0078250   1.0078250
 NucSpn=           0           0           0           0           0           0           1           1           1           1
 AtZEff=   0.0000000   0.0000000   0.0000000   0.0000000   0.0000000   0.0000000   0.0000000   0.0000000   0.0000000   0.0000000
 NQMom=    0.0000000   0.0000000   0.0000000   0.0000000   0.0000000   0.0000000   0.0000000   0.0000000   0.0000000   0.0000000
 NMagM=    0.0000000   0.0000000   0.0000000   0.0000000   0.0000000   0.0000000   2.7928460   2.7928460   2.7928460   2.7928460
 AtZNuc=   6.0000000   6.0000000   6.0000000   6.0000000   6.0000000   6.0000000   1.0000000   1.0000000   1.0000000   1.0000000

  Atom        11          12          13          14          15          16          17          18          19          20
 IAtWgt=          12           1           1          12           1          12          16           1          16          14
 AtmWgt=  12.0000000   1.0078250   1.0078250  12.0000000   1.0078250  12.0000000  15.9949146   1.0078250  15.9949146  14.0030740
 NucSpn=           0           1           1           0           1           0           0           1           0           2
 AtZEff=   0.0000000   0.0000000   0.0000000   0.0000000   0.0000000   0.0000000   0.0000000   0.0000000   0.0000000   0.0000000
 NQMom=    0.0000000   0.0000000   0.0000000   0.0000000   0.0000000   0.0000000   0.0000000   0.0000000   0.0000000   2.0440000
 NMagM=    0.0000000   2.7928460   2.7928460   0.0000000   2.7928460   0.0000000   0.0000000   2.7928460   0.0000000   0.4037610
 AtZNuc=   6.0000000   1.0000000   1.0000000   6.0000000   1.0000000   6.0000000   8.0000000   1.0000000   8.0000000   7.0000000

  Atom        21          22          23          24          25          26          27          28          29          30
 IAtWgt=           1          14           1          12          12           1           1           1          12           1
 AtmWgt=   1.0078250  14.0030740   1.0078250  12.0000000  12.0000000   1.0078250   1.0078250   1.0078250  12.0000000   1.0078250
 NucSpn=           1           2           1           0           0           1           1           1           0           1
 AtZEff=   0.0000000   0.0000000   0.0000000   0.0000000   0.0000000   0.0000000   0.0000000   0.0000000   0.0000000   0.0000000
 NQMom=    0.0000000   2.0440000   0.0000000   0.0000000   0.0000000   0.0000000   0.0000000   0.0000000   0.0000000   0.0000000
 NMagM=    2.7928460   0.4037610   2.7928460   0.0000000   0.0000000   2.7928460   2.7928460   2.7928460   0.0000000   2.7928460
 AtZNuc=   1.0000000   7.0000000   1.0000000   6.0000000   6.0000000   1.0000000   1.0000000   1.0000000   6.0000000   1.0000000

  Atom        31          32          33
 IAtWgt=           1           1          16
 AtmWgt=   1.0078250   1.0078250  15.9949146
 NucSpn=           1           1           0
 AtZEff=   0.0000000   0.0000000   0.0000000
 NQMom=    0.0000000   0.0000000   0.0000000
 NMagM=    2.7928460   2.7928460   0.0000000
 AtZNuc=   1.0000000   1.0000000   8.0000000
 Leave Link  101 at Tue Jun 24 16:35:36 2014, MaxMem=  4294967296 cpu:         1.7
 (Enter /home/ztw1e12/g09/l202.exe)
                          Input orientation:                          
 ---------------------------------------------------------------------
 Center     Atomic      Atomic             Coordinates (Angstroms)
 Number     Number       Type             X           Y           Z
 ---------------------------------------------------------------------
      1          6           0        2.733215    0.126300    0.926148
      2          6           0        1.930651    0.057900   -0.199255
      3          6           0        1.071667   -1.014078   -0.413270
      4          6           0        1.054080   -2.033370    0.534041
      5          6           0        1.850108   -1.981765    1.662832
      6          6           0        2.689130   -0.895392    1.862331
      7          1           0        3.403143    0.964364    1.080013
      8          1           0        1.984970    0.855181   -0.933024
      9          1           0        0.400087   -2.885206    0.385092
     10          1           0        1.835711   -2.779588    2.394546
     11          6           0        0.148340   -1.047452   -1.594689
     12          1           0        0.619659   -0.608444   -2.476247
     13          1           0       -0.086394   -2.084875   -1.837356
     14          6           0       -1.189820   -0.324427   -1.370140
     15          1           0       -1.905519   -0.702387   -2.105014
     16          6           0       -1.765399   -0.716006   -0.022487
     17          8           0        3.458066   -0.884226    2.986478
     18          1           0        4.000999   -0.087938    2.991824
     19          8           0       -2.259628   -1.834824    0.114851
     20          7           0       -1.046346    1.100168   -1.576679
     21          1           0       -0.122046    1.491591   -1.676923
     22          7           0       -1.667659    0.161410    0.975180
     23          1           0       -1.207401    1.040527    0.799140
     24          6           0       -2.113567    1.901534   -1.768428
     25          6           0       -1.820740    3.336203   -2.057290
     26          1           0       -2.224090    3.584461   -3.038902
     27          1           0       -2.338600    3.955775   -1.325784
     28          1           0       -0.758123    3.567749   -2.037415
     29          6           0       -2.059019   -0.184803    2.322279
     30          1           0       -1.451587   -1.006356    2.708097
     31          1           0       -1.925135    0.681709    2.962554
     32          1           0       -3.105568   -0.486521    2.357348
     33          8           0       -3.262344    1.470318   -1.710980
 ---------------------------------------------------------------------
                    Distance matrix (angstroms):
                    1          2          3          4          5
     1  C    0.000000
     2  C    1.383951   0.000000
     3  C    2.419761   1.390249   0.000000
     4  C    2.763588   2.383172   1.391641   0.000000
     5  C    2.401358   2.762985   2.419212   1.382206   0.000000
     6  C    1.386447   2.394617   2.794393   2.394313   1.387070
     7  H    1.083895   2.150915   3.402926   3.847414   3.381016
     8  H    2.132524   1.084908   2.144387   3.370840   3.847716
     9  H    3.847778   3.368377   2.142317   1.084213   2.133398
    10  H    3.377261   3.845537   3.403619   2.151573   1.082651
    11  C    3.796563   2.519062   1.499799   2.514735   3.792150
    12  H    4.072255   2.710610   2.150517   3.358715   4.531224
    13  H    4.525091   3.367986   2.125025   2.631892   4.001498
    14  C    4.567964   3.354770   2.550596   3.403157   4.602918
    15  H    5.602903   4.350420   3.438428   4.182745   5.471582
    16  C    4.674068   3.780339   2.879323   3.161429   4.185013
    17  O    2.406560   3.656432   4.155725   3.621343   2.354179
    18  H    2.433144   3.806651   4.586217   4.302294   3.158977
    19  O    5.425190   4.608634   3.471320   3.346013   4.394060
    20  N    4.636555   3.441821   3.210847   4.322729   5.327494
    21  H    4.097867   2.907325   3.049614   4.324001   5.206492
    22  N    4.401287   3.786535   3.288384   3.524135   4.176212
    23  H    4.047270   3.436527   3.299317   3.825365   4.385040
    24  C    5.822670   4.713490   4.525811   5.551470   6.524130
    25  C    6.320038   5.317189   5.476656   6.619056   7.456220
    26  H    7.228788   6.145087   6.237188   7.421074   8.347950
    27  H    6.742357   5.889737   6.096068   7.130153   7.856938
    28  H    5.728500   4.788254   5.194143   6.424095   7.161830
    29  C    5.001147   4.725940   4.239354   4.038116   4.352610
    30  H    4.687304   4.585288   4.013702   3.472700   3.597943
    31  H    5.114260   5.025262   4.822106   4.705853   4.799566
    32  H    6.042787   5.674162   5.040231   4.797902   5.222723
    33  O    6.686371   5.589940   5.161388   5.995620   7.031120
                    6          7          8          9         10
     6  C    0.000000
     7  H    2.140217   0.000000
     8  H    3.372589   2.464844   0.000000
     9  H    3.373620   4.931577   4.270805   0.000000
    10  H    2.135830   4.266382   4.930167   2.471857   0.000000
    11  C    4.292985   4.668530   2.725990   2.712978   4.664924
    12  H    4.815424   4.782101   2.527412   3.663211   5.469668
    13  H    4.775572   5.475926   3.708409   2.411736   4.699586
    14  C    5.081449   5.362792   3.414943   3.488013   5.417981
    15  H    6.073539   6.411267   4.351492   4.034990   6.209477
    16  C    4.840201   5.545537   4.166890   3.092067   4.802959
    17  O    1.362018   2.656108   4.534098   4.485796   2.564140
    18  H    1.910167   2.262696   4.512015   5.252269   3.505737
    19  O    5.331644   6.390146   5.133301   2.872354   4.781359
    20  N    5.455532   5.184053   3.108567   4.671608   6.255349
    21  H    5.111430   4.506176   2.323342   4.866301   6.217125
    22  N    4.570063   5.135052   4.179026   3.729028   4.789329
    23  H    4.478963   4.619719   3.636754   4.262257   5.138008
    24  C    6.638607   6.279012   4.311700   5.819707   7.405407
    25  C    7.321800   6.538902   4.680051   7.042956   8.401867
    26  H    8.260200   7.449572   5.440577   7.776029   9.300831
    27  H    7.679581   6.906809   5.334904   7.564821   8.753904
    28  H    6.856471   5.814818   4.012763   6.989322   8.164493
    29  C    4.823008   5.718306   5.294564   4.134256   4.680497
    30  H    4.227667   5.486602   5.341630   3.514986   3.748199
    31  H    4.998918   5.658127   5.522186   4.977233   5.142681
    32  H    5.830158   6.789696   6.208083   4.683279   5.447548
    33  O    7.333838   7.243918   5.340217   6.064446   7.804307
                   11         12         13         14         15
    11  C    0.000000
    12  H    1.091794   0.000000
    13  H    1.090978   1.756855   0.000000
    14  C    1.537485   2.139709   2.129558   0.000000
    15  H    2.144257   2.554048   2.300463   1.093215   0.000000
    16  C    2.498814   3.423596   2.826059   1.516837   2.087280
    17  O    5.654027   6.162303   6.105254   6.395025   7.397594
    18  H    6.066280   6.450131   6.634419   6.784339   7.825743
    19  O    3.056271   4.063015   2.931993   2.372970   2.517063
    20  N    2.457615   2.550324   3.336759   1.446622   2.065556
    21  H    2.554723   2.366261   3.580240   2.128891   2.859646
    22  N    3.370968   4.211514   3.931482   2.442313   3.207853
    23  H    3.453709   4.097001   4.239800   2.563042   3.458212
    24  C    3.720608   3.777767   4.472766   2.442712   2.633814
    25  C    4.827806   4.657393   5.696000   3.777625   4.039762
    26  H    5.400814   5.097445   6.176959   4.374230   4.398943
    27  H    5.593698   5.559403   6.467116   4.431906   4.742703
    28  H    4.724168   4.419439   5.695911   3.972487   4.422120
    29  C    4.578126   5.511864   4.980370   3.795914   4.460087
    30  H    4.590798   5.596947   4.867042   4.143135   4.844016
    31  H    5.296958   6.141745   5.837302   4.508352   5.253223
    32  H    5.149870   6.103755   5.409777   4.194107   4.625948
    33  O    4.240926   4.469545   4.768860   2.762723   2.591695
                   16         17         18         19         20
    16  C    0.000000
    17  O    6.030485   0.000000
    18  H    6.536963   0.963784   0.000000
    19  O    1.230804   6.468532   7.108026   0.000000
    20  N    2.496205   6.711926   6.910753   3.598264   0.000000
    21  H    3.211114   6.341058   6.425855   4.341054   1.008757
    22  N    1.332198   5.604617   6.021853   2.252897   2.789136
    23  H    2.017880   5.500519   5.762701   3.137368   2.382018
    24  C    3.165604   7.836625   8.000370   4.186699   1.348301
    25  C    4.534742   8.433114   8.432730   5.625863   2.414648
    26  H    5.272871   9.410699   9.413177   6.270253   3.113983
    27  H    4.883921   8.696123   8.670863   5.967638   3.144417
    28  H    4.839948   7.926906   7.829849   6.006210   2.526718
    29  C    2.422048   5.600766   6.097663   2.763250   4.228301
    30  H    2.763851   4.919055   5.536667   2.839756   4.791761
    31  H    3.299938   5.606387   5.975975   3.815001   4.642415
    32  H    2.740863   6.605699   7.145958   2.749969   4.715352
    33  O    3.141953   8.530762   8.792080   3.906797   2.250710
                   21         22         23         24         25
    21  H    0.000000
    22  N    3.345437   0.000000
    23  H    2.740865   1.007807   0.000000
    24  C    2.035333   3.279367   2.855674   0.000000
    25  C    2.536303   4.393019   3.715576   1.492469   0.000000
    26  H    3.263998   5.304691   4.715488   2.111531   1.089902
    27  H    3.332959   4.487962   3.780686   2.113405   1.089564
    28  H    2.201132   4.637470   3.825539   2.164684   1.087733
    29  C    4.749292   1.444888   2.132285   4.592348   5.624490
    30  H    5.218795   2.100801   2.809533   5.378970   6.457786
    31  H    5.042994   2.070425   2.307434   4.889343   5.679443
    32  H    5.393484   2.097090   2.891872   4.869179   5.979384
    33  O    3.140555   3.386992   3.272341   1.228388   2.383208
                   26         27         28         29         30
    26  H    0.000000
    27  H    1.756633   0.000000
    28  H    1.775476   1.776201   0.000000
    29  C    6.555674   5.525479   5.897534   0.000000
    30  H    7.395969   6.456139   6.627459   1.092144   0.000000
    31  H    6.673291   5.411128   5.889893   1.085689   1.771598
    32  H    6.816848   5.821314   6.423515   1.089738   1.768872
    33  O    2.703877   2.679398   3.282819   4.522676   5.379684
                   31         32         33
    31  H    0.000000
    32  H    1.767614   0.000000
    33  O    4.924627   4.517199   0.000000
 Stoichiometry    C12H16N2O3
 Framework group  C1[X(C12H16N2O3)]
 Deg. of freedom    93
 Full point group                 C1      NOp   1
 Largest Abelian subgroup         C1      NOp   1
 Largest concise Abelian subgroup C1      NOp   1
                         Standard orientation:                         
 ---------------------------------------------------------------------
 Center     Atomic      Atomic             Coordinates (Angstroms)
 Number     Number       Type             X           Y           Z
 ---------------------------------------------------------------------
      1          6           0        2.559187   -1.613331   -0.418451
      2          6           0        1.400615   -1.576103    0.337621
      3          6           0        1.078572   -0.470862    1.117057
      4          6           0        1.969312    0.598284    1.130169
      5          6           0        3.131538    0.577033    0.382324
      6          6           0        3.425188   -0.530787   -0.399001
      7          1           0        2.802786   -2.482598   -1.018336
      8          1           0        0.738172   -2.435222    0.327240
      9          1           0        1.745858    1.467896    1.737919
     10          1           0        3.823216    1.409751    0.399534
     11          6           0       -0.214173   -0.402905    1.874415
     12          1           0       -0.493225   -1.382625    2.267217
     13          1           0       -0.094776    0.265040    2.728714
     14          6           0       -1.400130    0.126904    1.051816
     15          1           0       -2.165562    0.477034    1.749413
     16          6           0       -0.977971    1.361544    0.278356
     17          8           0        4.581040   -0.512182   -1.119246
     18          1           0        4.669172   -1.343068   -1.599600
     19          8           0       -0.824557    2.422785    0.882600
     20          7           0       -1.977856   -0.925403    0.244602
     21          1           0       -1.492426   -1.806045    0.164479
     22          7           0       -0.745268    1.229544   -1.026702
     23          1           0       -0.846850    0.317612   -1.443519
     24          6           0       -3.206727   -0.811274   -0.298322
     25          6           0       -3.718582   -2.004333   -1.034581
     26          1           0       -4.630778   -2.350113   -0.548555
     27          1           0       -3.982436   -1.706086   -2.048770
     28          1           0       -3.001870   -2.821578   -1.074574
     29          6           0       -0.203049    2.317479   -1.807789
     30          1           0        0.787949    2.602538   -1.448007
     31          1           0       -0.123425    2.002850   -2.843833
     32          1           0       -0.850731    3.192403   -1.757349
     33          8           0       -3.867221    0.218562   -0.188224
 ---------------------------------------------------------------------
 Rotational constants (GHZ):      0.7742579      0.2906589      0.2642187
 Leave Link  202 at Tue Jun 24 16:35:37 2014, MaxMem=  4294967296 cpu:         2.1
 (Enter /home/ztw1e12/g09/l301.exe)
 Standard basis: CC-pVTZ (5D, 7F)
 Converting basis for Fermi contact spin-spin IFCMod=1.
 AO basis functions are being uncontracted.
 Ernie: Thresh=  0.10000D-02 Tol=  0.10000D-05 Strict=F.
 There are  1305 symmetry adapted cartesian basis functions of A   symmetry.
 There are  1204 symmetry adapted basis functions of A   symmetry.
  1204 basis functions,  1305 primitive gaussians,  1305 cartesian basis functions
    63 alpha electrons       63 beta electrons
       nuclear repulsion energy      1242.1241546300 Hartrees.
 IExCor= 4235 DFT=T Ex+Corr=M06 ExCW=0 ScaHFX=  0.270000
 ScaDFX=  1.000000  1.000000  1.000000  1.000000 ScalE2=  1.000000  1.000000
 IRadAn= 199590 IRanWt=     -1 IRanGd=            0 ICorTp=0 IEmpDi=  4
 NAtoms=   33 NActive=   33 NUniq=   33 SFac= 1.00D+00 NAtFMM=   60 NAOKFM=F Big=F
 Integral buffers will be    131072 words long.
 Raffenetti 2 integral format.
 Two-electron integral symmetry is turned on.
 Leave Link  301 at Tue Jun 24 16:35:37 2014, MaxMem=  4294967296 cpu:         4.8
 (Enter /home/ztw1e12/g09/l302.exe)
 NPDir=0 NMtPBC=     1 NCelOv=     1 NCel=       1 NClECP=     1 NCelD=      1
         NCelK=      1 NCelE2=     1 NClLst=     1 CellRange=     0.0.
 One-electron integrals computed using PRISM.
 GSVD:  received Info=                   1 from GESDD.
 NBasis=  1204 RedAO= T EigKep=  2.44D-05  NBF=  1204
 NBsUse=  1068 1.00D-06 EigRej=  5.16D-15 NBFU=  1068
 Precomputing XC quadrature grid using
 IXCGrd= 4 IRadAn=      199590 IRanWt=          -1 IRanGd=           0 AccXCQ= 0.00D+00.
 Generated NRdTot=       0 NPtTot=           0 NUsed=           0 NTot=          32
 NSgBfM=  1030  1030  1030  1030  1030 MxSgAt=    33 MxSgA2=    33.
 Leave Link  302 at Tue Jun 24 16:35:43 2014, MaxMem=  4294967296 cpu:        94.4
 (Enter /home/ztw1e12/g09/l308.exe)
 Leave Link  308 at Tue Jun 24 16:35:44 2014, MaxMem=  4294967296 cpu:         7.2
 (Enter /home/ztw1e12/g09/l303.exe)
 DipDrv:  MaxL=1.
 Leave Link  303 at Tue Jun 24 16:35:44 2014, MaxMem=  4294967296 cpu:         4.7
 (Enter /home/ztw1e12/g09/l401.exe)
 ExpMin= 1.03D-01 ExpMax= 1.38D+05 ExpMxC= 1.38D+05 IAcc=4 IRadAn=    199590 AccDes= 0.00D+00
 Harris functional with IExCor= 1009 and IRadAn=  199590 diagonalized for initial guess.
 HarFok:  IExCor= 1009 AccDes= 0.00D+00 IRadAn=    199590 IDoV= 1 UseB2=F ITyADJ=14
 ICtDFT=  3500011 ScaDFX=  1.000000  1.000000  1.000000  1.000000
 FoFCou: FMM=F IPFlag=           0 FMFlag=      100000 FMFlg1=           0
         NFxFlg=           0 DoJE=T BraDBF=F KetDBF=T FulRan=T
         wScrn=  0.000000 ICntrl=     500 IOpCl=  0 I1Cent=   200000004 NGrid=           0
         NMat0=    1 NMatS0=      1 NMatT0=    0 NMatD0=    1 NMtDS0=    0 NMtDT0=    0
 Petite list used in FoFCou.
 Harris En= -801.780845196074    
 JPrj=0 DoOrth=F DoCkMO=F.
 Leave Link  401 at Tue Jun 24 16:36:06 2014, MaxMem=  4294967296 cpu:       318.8
 (Enter /home/ztw1e12/g09/l502.exe)
 Closed shell SCF:
 Using DIIS extrapolation, IDIIS=  1040.
 Integral symmetry usage will be decided dynamically.
 IVT=     5158273 IEndB=     5158273 NGot=  4294967296 MDV=  4291529994
 LenX=  4291529994 LenY=  4289825664
 Requested convergence on RMS density matrix=1.00D-08 within 128 cycles.
 Requested convergence on MAX density matrix=1.00D-06.
 Requested convergence on             energy=1.00D-06.
 No special actions if energy rises.
 Fock matrices will be formed incrementally for  20 cycles.
 Integral accuracy reduced to 1.0D-05 until final iterations.

 Cycle   1  Pass 0  IDiag  1:
 FoFJK:  IHMeth= 1 ICntrl=       0 DoSepK=F KAlg= 0 I1Cent=   0 FoldK=F
 IRaf= 450000000 NMat=   1 IRICut=       1 DoRegI=T DoRafI=F ISym2E= 0.
 FoFCou: FMM=F IPFlag=           0 FMFlag=      100000 FMFlg1=           0
         NFxFlg=           0 DoJE=F BraDBF=F KetDBF=F FulRan=T
         wScrn=  0.000000 ICntrl=       0 IOpCl=  0 I1Cent=           0 NGrid=           0
         NMat0=    1 NMatS0=      1 NMatT0=    0 NMatD0=    1 NMtDS0=    0 NMtDT0=    0
 Symmetry not used in FoFCou.
 E= -801.462891080946    
 DIIS: error= 1.10D-01 at cycle   1 NSaved=   1.
 NSaved= 1 IEnMin= 1 EnMin= -801.462891080946     IErMin= 1 ErrMin= 1.10D-01
 ErrMax= 1.10D-01  0.00D+00 EMaxC= 1.00D-01 BMatC= 1.69D+01 BMatP= 1.69D+01
 IDIUse=3 WtCom= 0.00D+00 WtEn= 1.00D+00
 Coeff-Com:  0.100D+01
 Coeff-En:   0.100D+01
 Coeff:      0.100D+01
 Gap=     0.241 Goal=   None    Shift=    0.000
 GapD=    0.241 DampG=1.000 DampE=0.250 DampFc=0.2500 IDamp=-1.
 Damping current iteration by 2.50D-01
 RMSDP=2.31D-03 MaxDP=4.46D-01              OVMax= 3.07D-01

 Cycle   2  Pass 0  IDiag  1:
 RMSU=  5.75D-04    CP:  1.03D+00
 E= -801.621249716158     Delta-E=       -0.158358635212 Rises=F Damp=T
 DIIS: error= 8.28D-02 at cycle   2 NSaved=   2.
 NSaved= 2 IEnMin= 2 EnMin= -801.621249716158     IErMin= 2 ErrMin= 8.28D-02
 ErrMax= 8.28D-02  0.00D+00 EMaxC= 1.00D-01 BMatC= 1.00D+01 BMatP= 1.69D+01
 IDIUse=3 WtCom= 1.72D-01 WtEn= 8.28D-01
 Coeff-Com: -0.291D+01 0.391D+01
 Coeff-En:   0.000D+00 0.100D+01
 Coeff:     -0.501D+00 0.150D+01
 Gap=     0.289 Goal=   None    Shift=    0.000
 RMSDP=5.97D-04 MaxDP=8.75D-02 DE=-1.58D-01 OVMax= 1.90D-01

 Cycle   3  Pass 0  IDiag  1:
 RMSU=  5.65D-04    CP:  1.06D+00  1.31D+00
 E= -801.873044204915     Delta-E=       -0.251794488757 Rises=F Damp=F
 DIIS: error= 9.70D-03 at cycle   3 NSaved=   3.
 NSaved= 3 IEnMin= 3 EnMin= -801.873044204915     IErMin= 3 ErrMin= 9.70D-03
 ErrMax= 9.70D-03  0.00D+00 EMaxC= 1.00D-01 BMatC= 1.60D-01 BMatP= 1.00D+01
 IDIUse=3 WtCom= 9.03D-01 WtEn= 9.70D-02
 Coeff-Com: -0.190D+00 0.196D+00 0.994D+00
 Coeff-En:   0.000D+00 0.000D+00 0.100D+01
 Coeff:     -0.172D+00 0.177D+00 0.995D+00
 Gap=     0.227 Goal=   None    Shift=    0.000
 RMSDP=4.29D-04 MaxDP=4.83D-02 DE=-2.52D-01 OVMax= 1.23D-01

 Cycle   4  Pass 0  IDiag  1:
 RMSU=  4.04D-04    CP:  1.06D+00  1.40D+00  7.62D-01
 E= -801.797508015607     Delta-E=        0.075536189308 Rises=F Damp=F
 DIIS: error= 1.00D-02 at cycle   4 NSaved=   4.
 NSaved= 4 IEnMin= 3 EnMin= -801.873044204915     IErMin= 3 ErrMin= 9.70D-03
 ErrMax= 1.00D-02  0.00D+00 EMaxC= 1.00D-01 BMatC= 1.56D-01 BMatP= 1.60D-01
 IDIUse=3 WtCom= 9.00D-01 WtEn= 1.00D-01
 Coeff-Com:  0.119D+00-0.189D+00 0.569D+00 0.502D+00
 Coeff-En:   0.000D+00 0.000D+00 0.691D+00 0.309D+00
 Coeff:      0.107D+00-0.170D+00 0.581D+00 0.482D+00
 Gap=     0.249 Goal=   None    Shift=    0.000
 RMSDP=3.29D-04 MaxDP=4.48D-02 DE= 7.55D-02 OVMax= 8.67D-02

 Cycle   5  Pass 0  IDiag  1:
 RMSU=  8.67D-05    CP:  1.06D+00  1.33D+00  8.67D-01  2.35D-01
 E= -801.913201231618     Delta-E=       -0.115693216011 Rises=F Damp=F
 DIIS: error= 1.61D-03 at cycle   5 NSaved=   5.
 NSaved= 5 IEnMin= 5 EnMin= -801.913201231618     IErMin= 5 ErrMin= 1.61D-03
 ErrMax= 1.61D-03  0.00D+00 EMaxC= 1.00D-01 BMatC= 7.06D-03 BMatP= 1.56D-01
 IDIUse=3 WtCom= 9.84D-01 WtEn= 1.61D-02
 Coeff-Com:  0.443D-01-0.598D-01 0.168D-01 0.173D+00 0.825D+00
 Coeff-En:   0.000D+00 0.000D+00 0.000D+00 0.000D+00 0.100D+01
 Coeff:      0.436D-01-0.588D-01 0.165D-01 0.170D+00 0.828D+00
 Gap=     0.224 Goal=   None    Shift=    0.000
 RMSDP=8.48D-05 MaxDP=1.08D-02 DE=-1.16D-01 OVMax= 2.62D-02

 Cycle   6  Pass 0  IDiag  1:
 RMSU=  3.79D-05    CP:  1.06D+00  1.35D+00  8.96D-01  3.68D-01  4.42D-01
 E= -801.916482587391     Delta-E=       -0.003281355773 Rises=F Damp=F
 DIIS: error= 1.42D-03 at cycle   6 NSaved=   6.
 NSaved= 6 IEnMin= 6 EnMin= -801.916482587391     IErMin= 6 ErrMin= 1.42D-03
 ErrMax= 1.42D-03  0.00D+00 EMaxC= 1.00D-01 BMatC= 1.89D-03 BMatP= 7.06D-03
 IDIUse=3 WtCom= 9.86D-01 WtEn= 1.42D-02
 Coeff-Com:  0.238D-01-0.310D-01-0.109D-01 0.791D-01 0.473D+00 0.466D+00
 Coeff-En:   0.000D+00 0.000D+00 0.000D+00 0.000D+00 0.246D+00 0.754D+00
 Coeff:      0.234D-01-0.305D-01-0.107D-01 0.779D-01 0.470D+00 0.470D+00
 Gap=     0.224 Goal=   None    Shift=    0.000
 RMSDP=4.02D-05 MaxDP=6.36D-03 DE=-3.28D-03 OVMax= 1.85D-02

 Cycle   7  Pass 0  IDiag  1:
 RMSU=  1.13D-05    CP:  1.06D+00  1.33D+00  8.77D-01  3.70D-01  6.47D-01
                    CP:  2.09D-01
 E= -801.918132875316     Delta-E=       -0.001650287925 Rises=F Damp=F
 DIIS: error= 4.90D-04 at cycle   7 NSaved=   7.
 NSaved= 7 IEnMin= 7 EnMin= -801.918132875316     IErMin= 7 ErrMin= 4.90D-04
 ErrMax= 4.90D-04  0.00D+00 EMaxC= 1.00D-01 BMatC= 1.44D-04 BMatP= 1.89D-03
 IDIUse=3 WtCom= 9.95D-01 WtEn= 4.90D-03
 Coeff-Com:  0.973D-02-0.127D-01-0.427D-02 0.193D-01 0.123D+00 0.241D+00
 Coeff-Com:  0.624D+00
 Coeff-En:   0.000D+00 0.000D+00 0.000D+00 0.000D+00 0.000D+00 0.405D-01
 Coeff-En:   0.960D+00
 Coeff:      0.968D-02-0.127D-01-0.425D-02 0.192D-01 0.122D+00 0.240D+00
 Coeff:      0.626D+00
 Gap=     0.224 Goal=   None    Shift=    0.000
 RMSDP=1.27D-05 MaxDP=2.11D-03 DE=-1.65D-03 OVMax= 5.72D-03

 Cycle   8  Pass 0  IDiag  1:
 RMSU=  7.26D-06    CP:  1.06D+00  1.33D+00  8.84D-01  3.75D-01  6.09D-01
                    CP:  3.64D-01  4.07D-01
 E= -801.918256945713     Delta-E=       -0.000124070397 Rises=F Damp=F
 DIIS: error= 1.25D-04 at cycle   8 NSaved=   8.
 NSaved= 8 IEnMin= 8 EnMin= -801.918256945713     IErMin= 8 ErrMin= 1.25D-04
 ErrMax= 1.25D-04  0.00D+00 EMaxC= 1.00D-01 BMatC= 2.17D-05 BMatP= 1.44D-04
 IDIUse=3 WtCom= 9.99D-01 WtEn= 1.25D-03
 Coeff-Com:  0.480D-02-0.635D-02-0.111D-02 0.639D-02 0.389D-01 0.106D+00
 Coeff-Com:  0.370D+00 0.481D+00
 Coeff-En:   0.000D+00 0.000D+00 0.000D+00 0.000D+00 0.000D+00 0.000D+00
 Coeff-En:   0.838D-01 0.916D+00
 Coeff:      0.479D-02-0.634D-02-0.111D-02 0.638D-02 0.389D-01 0.106D+00
 Coeff:      0.370D+00 0.482D+00
 Gap=     0.224 Goal=   None    Shift=    0.000
 RMSDP=4.09D-06 MaxDP=5.18D-04 DE=-1.24D-04 OVMax= 1.23D-03

 Initial convergence to 1.0D-05 achieved.  Increase integral accuracy.
 Cycle   9  Pass 1  IDiag  1:
 E= -801.918266253877     Delta-E=       -0.000009308165 Rises=F Damp=F
 DIIS: error= 1.89D-04 at cycle   1 NSaved=   1.
 NSaved= 1 IEnMin= 1 EnMin= -801.918266253877     IErMin= 1 ErrMin= 1.89D-04
 ErrMax= 1.89D-04  0.00D+00 EMaxC= 1.00D-01 BMatC= 1.91D-05 BMatP= 1.91D-05
 IDIUse=3 WtCom= 9.98D-01 WtEn= 1.89D-03
 Coeff-Com:  0.100D+01
 Coeff-En:   0.100D+01
 Coeff:      0.100D+01
 Gap=     0.224 Goal=   None    Shift=    0.000
 RMSDP=4.09D-06 MaxDP=5.18D-04 DE=-9.31D-06 OVMax= 7.63D-04

 Cycle  10  Pass 1  IDiag  1:
 RMSU=  1.22D-04    CP:  9.96D-01
 E= -801.918277267933     Delta-E=       -0.000011014056 Rises=F Damp=F
 DIIS: error= 2.68D-05 at cycle   2 NSaved=   2.
 NSaved= 2 IEnMin= 2 EnMin= -801.918277267933     IErMin= 2 ErrMin= 2.68D-05
 ErrMax= 2.68D-05  0.00D+00 EMaxC= 1.00D-01 BMatC= 1.42D-06 BMatP= 1.91D-05
 IDIUse=1 WtCom= 1.00D+00 WtEn= 0.00D+00
 Coeff-Com:  0.978D-01 0.902D+00
 Coeff:      0.978D-01 0.902D+00
 Gap=     0.224 Goal=   None    Shift=    0.000
 RMSDP=2.66D-06 MaxDP=2.37D-04 DE=-1.10D-05 OVMax= 4.84D-04

 Cycle  11  Pass 1  IDiag  1:
 RMSU=  2.00D-06    CP:  9.96D-01  1.01D+00
 E= -801.918276026227     Delta-E=        0.000001241706 Rises=F Damp=F
 DIIS: error= 4.60D-05 at cycle   3 NSaved=   3.
 NSaved= 3 IEnMin= 2 EnMin= -801.918277267933     IErMin= 2 ErrMin= 2.68D-05
 ErrMax= 4.60D-05  0.00D+00 EMaxC= 1.00D-01 BMatC= 3.00D-06 BMatP= 1.42D-06
 IDIUse=1 WtCom= 1.00D+00 WtEn= 0.00D+00
 Coeff-Com: -0.705D-03 0.595D+00 0.406D+00
 Coeff:     -0.705D-03 0.595D+00 0.406D+00
 Gap=     0.224 Goal=   None    Shift=    0.000
 RMSDP=1.23D-06 MaxDP=1.50D-04 DE= 1.24D-06 OVMax= 3.46D-04

 Cycle  12  Pass 1  IDiag  1:
 RMSU=  5.11D-07    CP:  9.96D-01  1.02D+00  4.60D-01
 E= -801.918278286302     Delta-E=       -0.000002260074 Rises=F Damp=F
 DIIS: error= 7.21D-06 at cycle   4 NSaved=   4.
 NSaved= 4 IEnMin= 4 EnMin= -801.918278286302     IErMin= 4 ErrMin= 7.21D-06
 ErrMax= 7.21D-06  0.00D+00 EMaxC= 1.00D-01 BMatC= 4.96D-08 BMatP= 1.42D-06
 IDIUse=1 WtCom= 1.00D+00 WtEn= 0.00D+00
 Coeff-Com: -0.270D-02 0.323D+00 0.235D+00 0.445D+00
 Coeff:     -0.270D-02 0.323D+00 0.235D+00 0.445D+00
 Gap=     0.224 Goal=   None    Shift=    0.000
 RMSDP=1.74D-07 MaxDP=2.14D-05 DE=-2.26D-06 OVMax= 5.25D-05

 Cycle  13  Pass 1  IDiag  1:
 RMSU=  1.59D-07    CP:  9.96D-01  1.02D+00  4.79D-01  9.01D-01
 E= -801.918278320899     Delta-E=       -0.000000034598 Rises=F Damp=F
 DIIS: error= 1.45D-06 at cycle   5 NSaved=   5.
 NSaved= 5 IEnMin= 5 EnMin= -801.918278320899     IErMin= 5 ErrMin= 1.45D-06
 ErrMax= 1.45D-06  0.00D+00 EMaxC= 1.00D-01 BMatC= 2.53D-09 BMatP= 4.96D-08
 IDIUse=1 WtCom= 1.00D+00 WtEn= 0.00D+00
 Coeff-Com: -0.127D-02 0.111D+00 0.832D-01 0.233D+00 0.574D+00
 Coeff:     -0.127D-02 0.111D+00 0.832D-01 0.233D+00 0.574D+00
 Gap=     0.224 Goal=   None    Shift=    0.000
 RMSDP=4.71D-08 MaxDP=4.75D-06 DE=-3.46D-08 OVMax= 1.16D-05

 Cycle  14  Pass 1  IDiag  1:
 RMSU=  4.00D-08    CP:  9.96D-01  1.02D+00  4.81D-01  9.39D-01  9.20D-01
 E= -801.918278322614     Delta-E=       -0.000000001715 Rises=F Damp=F
 DIIS: error= 3.69D-07 at cycle   6 NSaved=   6.
 NSaved= 6 IEnMin= 6 EnMin= -801.918278322614     IErMin= 6 ErrMin= 3.69D-07
 ErrMax= 3.69D-07  0.00D+00 EMaxC= 1.00D-01 BMatC= 1.75D-10 BMatP= 2.53D-09
 IDIUse=1 WtCom= 1.00D+00 WtEn= 0.00D+00
 Coeff-Com: -0.367D-03 0.243D-01 0.187D-01 0.695D-01 0.263D+00 0.625D+00
 Coeff:     -0.367D-03 0.243D-01 0.187D-01 0.695D-01 0.263D+00 0.625D+00
 Gap=     0.224 Goal=   None    Shift=    0.000
 RMSDP=2.24D-08 MaxDP=3.67D-06 DE=-1.71D-09 OVMax= 5.66D-06

 Cycle  15  Pass 1  IDiag  1:
 RMSU=  1.53D-08    CP:  9.96D-01  1.02D+00  4.81D-01  9.61D-01  9.70D-01
                    CP:  8.68D-01
 E= -801.918278322621     Delta-E=       -0.000000000007 Rises=F Damp=F
 DIIS: error= 2.75D-07 at cycle   7 NSaved=   7.
 NSaved= 7 IEnMin= 7 EnMin= -801.918278322621     IErMin= 7 ErrMin= 2.75D-07
 ErrMax= 2.75D-07  0.00D+00 EMaxC= 1.00D-01 BMatC= 6.17D-11 BMatP= 1.75D-10
 IDIUse=1 WtCom= 1.00D+00 WtEn= 0.00D+00
 Coeff-Com: -0.958D-05-0.420D-02-0.289D-02 0.267D-02 0.656D-01 0.401D+00
 Coeff-Com:  0.538D+00
 Coeff:     -0.958D-05-0.420D-02-0.289D-02 0.267D-02 0.656D-01 0.401D+00
 Coeff:      0.538D+00
 Gap=     0.224 Goal=   None    Shift=    0.000
 RMSDP=9.20D-09 MaxDP=7.80D-07 DE=-7.28D-12 OVMax= 2.97D-06

 SCF Done:  E(RM06) =  -801.918278323     A.U. after   15 cycles
            NFock= 15  Conv=0.92D-08     -V/T= 2.0044
 KE= 7.983685692142D+02 PE=-4.356616729232D+03 EE= 1.514205727065D+03
 Leave Link  502 at Tue Jun 24 17:12:53 2014, MaxMem=  4294967296 cpu:     35230.6
 (Enter /home/ztw1e12/g09/l801.exe)
 DoSCS=F DFT=T ScalE2(SS,OS)=  1.000000  1.000000
 Range of M.O.s used for correlation:     1  1068
 NBasis=  1204 NAE=    63 NBE=    63 NFC=     0 NFV=     0
 NROrb=   1068 NOA=    63 NOB=    63 NVA=  1005 NVB=  1005

 **** Warning!!: The largest alpha MO coefficient is  0.30411029D+02

 Leave Link  801 at Tue Jun 24 17:12:53 2014, MaxMem=  4294967296 cpu:         0.5
 (Enter /home/ztw1e12/g09/l1002.exe)
 Minotr:  Closed shell wavefunction.
          IDoAtm=111111111111111111111111111111111
          Direct CPHF calculation.
          Differentiating once with respect to Fermi-contact.
          Electric field/nuclear overlap derivatives assumed to be zero.
          Requested convergence is 1.0D-10 RMS, and 1.0D-09 maximum.
          Secondary convergence is 1.0D-12 RMS, and 1.0D-12 maximum.
          NewPWx=T KeepS1=F KeepF1=F KeepIn=T MapXYZ=F SortEE=F KeepMc=T.
          MDV=    4294965894 using IRadAn=  199590.
 Using stored XC quadrature information.
          Solving linear equations simultaneously, MaxMat=       0.
          There are    33 degrees of freedom in the 1st order CPHF.  IDoFFX=0 NUNeed=    33.
     33 vectors produced by pass  0 Test12= 1.92D-17 3.03D-11 XBig12= 4.29D+01 2.58D+00.
 AX will form    33 AO Fock derivatives at one time.
 FoFJK:  IHMeth= 1 ICntrl=       0 DoSepK=F KAlg= 0 I1Cent=   0 FoldK=F
 IRaf= 470000000 NMat=  33 IRICut=       1 DoRegI=T DoRafI=F ISym2E=-1.
 FoFCou: FMM=F IPFlag=           0 FMFlag=      100000 FMFlg1=           0
         NFxFlg=           0 DoJE=F BraDBF=F KetDBF=F FulRan=T
         wScrn=  0.000000 ICntrl=       0 IOpCl=  0 I1Cent=           0 NGrid=           0
         NMat0=   33 NMatS0=      0 NMatT0=   33 NMatD0=   33 NMtDS0=    0 NMtDT0=    0
 Petite list used in FoFCou.
     33 vectors produced by pass  1 Test12= 1.92D-17 3.03D-11 XBig12= 3.46D-01 1.89D-01.
     33 vectors produced by pass  2 Test12= 1.92D-17 3.03D-11 XBig12= 1.59D-02 4.33D-02.
     33 vectors produced by pass  3 Test12= 1.92D-17 3.03D-11 XBig12= 3.64D-04 5.89D-03.
     33 vectors produced by pass  4 Test12= 1.92D-17 3.03D-11 XBig12= 7.45D-06 1.18D-03.
     33 vectors produced by pass  5 Test12= 1.92D-17 3.03D-11 XBig12= 1.62D-07 1.80D-04.
     33 vectors produced by pass  6 Test12= 1.92D-17 3.03D-11 XBig12= 5.55D-09 2.35D-05.
     33 vectors produced by pass  7 Test12= 1.92D-17 3.03D-11 XBig12= 1.43D-10 4.44D-06.
     33 vectors produced by pass  8 Test12= 1.92D-17 3.03D-11 XBig12= 5.78D-12 3.89D-07.
     33 vectors produced by pass  9 Test12= 1.92D-17 3.03D-11 XBig12= 8.03D-14 1.08D-07.
     33 vectors produced by pass 10 Test12= 1.92D-17 3.03D-11 XBig12= 3.50D-15 1.15D-08.
     32 vectors produced by pass 11 Test12= 1.92D-17 3.03D-11 XBig12= 3.55D-17 7.91D-10.
     11 vectors produced by pass 12 Test12= 1.92D-17 3.03D-11 XBig12= 2.94D-19 6.60D-11.
 InvSVY:  IOpt=1 It=  1 EMax= 9.77D-15
 Solved reduced A of dimension   406 with    33 vectors.
 Max diff in FC couplings:  IJMax=    22    16 Diff= 5.10D-04 IJMaxR=    31    11 DiffR= 1.36D+00
 Fermi Contact (FC) contribution to K (Hz):
                1             2             3             4             5 
      1  0.123400D+11
      2  0.347305D+02  0.123400D+11
      3 -0.125517D+01  0.333004D+02  0.123400D+11
      4  0.299782D+01  0.318978D+00  0.333600D+02  0.123400D+11
      5  0.163418D+01  0.308638D+01 -0.133009D+01  0.341381D+02  0.123400D+11
      6  0.360450D+02 -0.165018D+00  0.429068D+01  0.921047D-01  0.384729D+02
      7  0.215961D+02 -0.326435D+00  0.925878D+00 -0.186328D+00  0.605375D+00
      8 -0.227752D+00  0.212427D+02 -0.160673D+00  0.969345D+00 -0.284619D+00
      9 -0.294071D+00  0.108091D+01 -0.206476D+00  0.232916D+02 -0.186099D+00
     10  0.678268D+00 -0.226014D+00  0.105396D+01 -0.208036D+00  0.231786D+02
     11  0.187247D+01  0.134914D+01  0.235217D+02  0.149375D+01  0.194787D+01
     12 -0.558091D-01  0.700004D+00 -0.832866D+00  0.739663D+00  0.293936D-01
     13  0.819871D-01  0.970538D+00 -0.102654D+01  0.751624D+00 -0.278301D-01
     14 -0.514090D+00  0.711184D+00 -0.133153D+01  0.705332D+00 -0.552974D+00
     15  0.217294D-01  0.428881D-02  0.101400D+01 -0.183679D-01  0.120613D-01
     16  0.154471D-01 -0.434249D-01  0.106864D+01 -0.410033D-02  0.346650D-01
     17 -0.763884D+00 -0.137901D+00  0.261330D+00  0.291668D+01  0.114770D+02
     18  0.426918D+00 -0.947875D-02 -0.461823D-01  0.199522D+00  0.113620D+01
     19  0.748010D-01 -0.334781D-01  0.738655D-01  0.864930D+00  0.148362D+00
     20  0.123691D+00  0.353873D+00  0.352110D-01 -0.152065D-01  0.929400D-01
     21 -0.492748D-02 -0.308400D-01 -0.827910D-03  0.521241D-02 -0.328553D-02
     22 -0.516635D-01  0.124114D+00  0.117473D+00  0.175738D+00 -0.320134D-01
     23  0.779928D-03  0.353927D-02 -0.240531D-02 -0.568116D-03 -0.200322D-02
     24  0.125781D-01  0.536152D-01 -0.676508D-01  0.108830D-01 -0.441089D-02
     25  0.723792D-03 -0.914331D-02  0.161551D-02  0.243896D-03  0.116526D-02
     26 -0.151478D-03  0.760301D-03 -0.165377D-02  0.702758D-03 -0.186384D-03
     27  0.243597D-03  0.215698D-03 -0.183017D-03 -0.368192D-03  0.169755D-04
     28 -0.132100D-03 -0.538863D-03 -0.202515D-04  0.248994D-03 -0.391807D-04
     29  0.164369D-01 -0.185753D-01  0.279896D-01  0.537658D-01  0.637831D-01
     30  0.301988D-02 -0.147893D-02  0.662384D-02  0.200951D-01  0.867214D-02
     31  0.243390D-03  0.984992D-05  0.555944D-03  0.702863D-03  0.405808D-03
     32  0.106673D-03  0.258702D-02  0.254008D-02  0.401605D-02  0.144608D-02
     33 -0.889152D-02  0.316116D-01  0.586098D-01  0.195264D-01 -0.452361D-02
                6             7             8             9            10 
      6  0.123400D+11
      7 -0.551894D+00  0.123400D+11
      8  0.113113D+01  0.324964D+00  0.123400D+11
      9  0.126795D+01  0.392750D-01  0.389533D-01  0.123400D+11
     10 -0.682672D+00  0.647921D-01  0.415543D-01  0.360657D+00  0.123400D+11
     11 -0.454660D+00  0.202988D-01  0.622532D+00  0.645528D+00  0.206057D-01
     12  0.704484D-01  0.625599D-02 -0.391281D-01 -0.190760D-01  0.128875D-01
     13  0.496758D-01  0.938602D-02 -0.114040D-01 -0.368453D-01  0.671915D-02
     14  0.542612D+00  0.372437D-01 -0.131410D+00 -0.121926D+00  0.534465D-01
     15  0.208190D-02  0.746941D-03  0.796104D-02  0.232326D-02  0.692571D-03
     16 -0.133785D-01 -0.795205D-03  0.149957D-02  0.209711D-01 -0.168289D-02
     17 -0.120651D+02  0.553180D+00  0.673651D-01  0.270946D+00  0.705159D+00
     18 -0.673262D+00 -0.134759D-01  0.186314D-02  0.141698D-01  0.432228D-03
     19  0.969651D-03 -0.140719D-01  0.529325D-02  0.181657D+00 -0.873955D-02
     20  0.148512D-02 -0.378457D-02  0.232985D+00  0.818284D-02 -0.182204D-01
     21 -0.380127D-02 -0.469299D-03 -0.222146D-01  0.136512D-03  0.787183D-03
     22  0.268471D-01  0.412441D-02 -0.128387D-01 -0.150153D-03  0.184308D-02
     23  0.913175D-03  0.591395D-04  0.697325D-03 -0.952602D-03  0.355130D-03
     24  0.865653D-02 -0.859663D-03  0.170705D-01 -0.366463D-03  0.153282D-03
     25 -0.114658D-02 -0.166965D-03  0.243253D-03  0.225637D-03 -0.194069D-03
     26  0.212684D-03  0.423486D-04 -0.336370D-04 -0.632493D-04  0.182398D-04
     27 -0.114690D-03 -0.205210D-04  0.395343D-04  0.134351D-04 -0.193605D-04
     28  0.105436D-03  0.227215D-04  0.650358D-03 -0.105515D-04 -0.174167D-05
     29 -0.214977D-01 -0.312766D-02  0.176855D-02  0.145265D-01 -0.104955D-01
     30 -0.737605D-03 -0.773661D-03  0.167910D-04  0.513928D-02 -0.462954D-03
     31  0.284016D-04 -0.792567D-04 -0.376290D-04  0.470778D-03 -0.273536D-04
     32  0.141035D-02 -0.157038D-03  0.159163D-03  0.123638D-03 -0.235716D-03
     33  0.113239D-01  0.129330D-02  0.173948D-02 -0.200342D-02  0.367521D-03
               11            12            13            14            15 
     11  0.123400D+11
     12  0.175900D+02  0.123400D+11
     13  0.184300D+02 -0.883462D+00  0.123400D+11
     14  0.158890D+02 -0.877372D+00 -0.550721D+00  0.123400D+11
     15 -0.860846D+00  0.576647D-01  0.260542D+00  0.208285D+02  0.123400D+11
     16 -0.442422D+00  0.778103D+00  0.309092D-01  0.287219D+02 -0.124768D+01
     17  0.560591D-01  0.244900D-01  0.179103D-01  0.218744D+00  0.280577D-02
     18  0.118723D-01 -0.258259D-02 -0.205881D-02 -0.227125D-01 -0.122670D-03
     19  0.645398D+00  0.335238D-01  0.560654D-01  0.509878D+01  0.341377D+00
     20  0.721080D+00  0.116092D+01  0.171679D+01  0.136432D+02 -0.553272D+00
     21  0.518476D+00 -0.301051D-01 -0.189322D-01  0.220154D+00  0.159227D+00
     22  0.606520D-01  0.117116D+00 -0.203959D-01  0.926949D+01  0.140095D+00
     23 -0.258728D-01  0.351994D-02  0.108799D-02  0.648530D-01  0.338532D-02
     24  0.139976D+01  0.125234D-01  0.106277D+00 -0.173597D+00  0.357566D+00
     25 -0.338046D-01  0.229912D-01  0.545079D-01  0.695714D+00 -0.764118D-01
     26  0.106372D-01 -0.271611D-03  0.242354D-02  0.170075D-01  0.212244D-01
     27 -0.541237D-02 -0.689395D-03 -0.161980D-02  0.340763D-01  0.244266D-01
     28 -0.226633D-02 -0.976178D-04 -0.581101D-04  0.933499D-01 -0.238026D-02
     29 -0.727645D-01  0.268536D-01  0.445435D-03  0.686450D+00  0.292034D-01
     30  0.586212D-01 -0.222995D-03 -0.125093D-02 -0.931651D-01  0.259589D-01
     31 -0.374703D-05 -0.558806D-04 -0.584793D-05 -0.206160D-01  0.679043D-02
     32  0.605880D-01 -0.602395D-03 -0.977437D-03 -0.816120D-01  0.871207D-02
     33  0.177216D+00  0.239969D-02 -0.303680D-02  0.843501D+00  0.242643D+00
               16            17            18            19            20 
     16  0.123400D+11
     17 -0.351627D-02  0.123400D+11
     18  0.555760D-03  0.198216D+02  0.123400D+11
     19 -0.944610D+01  0.957032D-02  0.158291D-02  0.123400D+11
     20  0.357246D+00 -0.120616D-01  0.700831D-03  0.101572D+01  0.123400D+11
     21  0.131696D+00  0.111877D-02 -0.607159D-04  0.758468D-01  0.307865D+02
     22  0.306281D+02  0.116650D-01 -0.115074D-02  0.639722D+01 -0.236791D+00
     23  0.347316D+00  0.261022D-03 -0.263682D-04  0.481744D+00 -0.879034D-01
     24  0.355952D-01  0.294602D-02 -0.250973D-03 -0.142914D-01  0.249140D+02
     25 -0.132372D+00 -0.449129D-03  0.471408D-04  0.493146D-01  0.125452D+02
     26  0.567216D-01  0.727150D-04 -0.872510D-05 -0.181736D-02  0.353420D+00
     27  0.746905D-01 -0.315404D-04  0.217563D-05  0.697018D-02  0.376124D+00
     28 -0.177702D-02  0.290171D-04 -0.306056D-05  0.245134D-02  0.338622D+00
     29 -0.221980D+00 -0.184314D-02 -0.185889D-03  0.681799D+00  0.137805D+00
     30  0.170611D+00 -0.123529D-03 -0.419986D-04  0.245475D+00  0.221432D-01
     31  0.960598D+00 -0.308250D-04 -0.429372D-05  0.187650D+00  0.640875D-02
     32  0.214018D+00  0.268197D-03 -0.535124D-04  0.247670D+00  0.290286D-02
     33  0.451199D+00  0.439433D-02 -0.482006D-03  0.770693D-01  0.592782D+01
               21            22            23            24            25 
     21  0.123400D+11
     22  0.144586D-01  0.123400D+11
     23  0.460363D-02  0.317567D+02  0.123400D+11
     24  0.428809D+00 -0.128652D-01  0.677324D-02  0.123400D+11
     25  0.886367D-01 -0.846948D-02  0.310798D-02  0.269692D+02  0.123400D+11
     26 -0.151323D-01  0.404673D-02  0.375617D-04 -0.119195D+01  0.179910D+02
     27 -0.722722D-02 -0.331197D-03 -0.115670D-03 -0.118863D+01  0.180209D+02
     28 -0.993181D-02 -0.159439D-02  0.155673D-03 -0.759462D+00  0.169866D+02
     29 -0.314220D-02  0.172153D+02  0.344449D+00 -0.481799D-02 -0.276007D-03
     30 -0.431596D-03 -0.657558D+00  0.623448D-01  0.234538D-02  0.140777D-02
     31 -0.402460D-03 -0.357940D+00  0.288262D+00  0.571282D-03 -0.332844D-03
     32  0.129487D-02 -0.623011D+00  0.166215D+00 -0.854300D-03  0.549642D-03
     33  0.422035D+00  0.419025D+00 -0.422278D-02 -0.970517D+01  0.355548D+01
               26            27            28            29            30 
     26  0.123400D+11
     27 -0.927762D+00  0.123400D+11
     28 -0.742025D+00 -0.725158D+00  0.123400D+11
     29 -0.882630D-04  0.296990D-04 -0.655929D-04  0.123400D+11
     30  0.261228D-03  0.914765D-04 -0.148579D-04  0.197570D+02  0.123400D+11
     31  0.286297D-03  0.118400D-03  0.120278D-04  0.183049D+02 -0.724332D+00
     32 -0.732089D-04 -0.163698D-03  0.182246D-04  0.201663D+02 -0.738341D+00
     33  0.448477D+00  0.442748D+00  0.802549D+00 -0.232040D-01  0.186662D-01
               31            32            33 
     31  0.123400D+11
     32 -0.757372D+00  0.123400D+11
     33  0.141062D-02  0.150968D-01  0.123400D+11
 Fermi Contact (FC) contribution to J (Hz):
                1             2             3             4             5 
      1  0.243533D+11
      2  0.685416D+02  0.243533D+11
      3 -0.247710D+01  0.657191D+02  0.243533D+11
      4  0.591628D+01  0.629511D+00  0.658368D+02  0.243533D+11
      5  0.322510D+01  0.609106D+01 -0.262497D+01  0.673725D+02  0.243533D+11
      6  0.711357D+02 -0.325667D+00  0.846777D+01  0.181771D+00  0.759272D+02
      7  0.169463D+03 -0.256151D+01  0.726527D+01 -0.146210D+01  0.475032D+01
      8 -0.178715D+01  0.166689D+03 -0.126079D+01  0.760635D+01 -0.223338D+01
      9 -0.230754D+01  0.848180D+01 -0.162020D+01  0.182767D+03 -0.146030D+01
     10  0.532230D+01 -0.177351D+01  0.827034D+01 -0.163243D+01  0.181880D+03
     11  0.369537D+01  0.266256D+01  0.464207D+02  0.294795D+01  0.384418D+01
     12 -0.437929D+00  0.549286D+01 -0.653542D+01  0.580406D+01  0.230648D+00
     13  0.643344D+00  0.761572D+01 -0.805515D+01  0.589792D+01 -0.218380D+00
     14 -0.101457D+01  0.140354D+01 -0.262781D+01  0.139199D+01 -0.109131D+01
     15  0.170509D+00  0.336539D-01  0.795679D+01 -0.144131D+00  0.946440D-01
     16  0.304853D-01 -0.857002D-01  0.210898D+01 -0.809210D-02  0.684122D-01
     17  0.812911D+00  0.146751D+00 -0.278102D+00 -0.310388D+01 -0.122136D+02
     18  0.334999D+01 -0.743788D-01 -0.362388D+00  0.156563D+01  0.891567D+01
     19 -0.796018D-01  0.356268D-01 -0.786063D-01 -0.920441D+00 -0.157884D+00
     20  0.701589D-01  0.200721D+00  0.199721D-01 -0.862533D-02  0.527167D-01
     21 -0.386654D-01 -0.241998D+00 -0.649653D-02  0.409012D-01 -0.257813D-01
     22 -0.293041D-01  0.703988D-01  0.666323D-01  0.996807D-01 -0.181584D-01
     23  0.612002D-02  0.277723D-01 -0.188742D-01 -0.445795D-02 -0.157191D-01
     24  0.248232D-01  0.105811D+00 -0.133511D+00  0.214779D-01 -0.870499D-02
     25  0.142842D-02 -0.180445D-01  0.318825D-02  0.481334D-03  0.229968D-02
     26 -0.118863D-02  0.596601D-02 -0.129769D-01  0.551448D-02 -0.146254D-02
     27  0.191148D-02  0.169256D-02 -0.143612D-02 -0.288917D-02  0.133205D-03
     28 -0.103658D-02 -0.422840D-02 -0.158911D-03  0.195383D-02 -0.307447D-03
     29  0.324385D-01 -0.366589D-01  0.552383D-01  0.106108D+00  0.125878D+00
     30  0.236967D-01 -0.116051D-01  0.519766D-01  0.157684D+00  0.680495D-01
     31  0.190986D-02  0.772914D-04  0.436244D-02  0.551530D-02  0.318434D-02
     32  0.837052D-03  0.203001D-01  0.199318D-01  0.315135D-01  0.113473D-01
     33  0.946218D-02 -0.336404D-01 -0.623714D-01 -0.207796D-01  0.481394D-02
                6             7             8             9            10 
      6  0.243533D+11
      7 -0.433066D+01  0.385007D+12
      8  0.887584D+01  0.101389D+02  0.385007D+12
      9  0.994947D+01  0.122538D+01  0.121534D+01  0.385007D+12
     10 -0.535686D+01  0.202151D+01  0.129649D+01  0.112525D+02  0.385007D+12
     11 -0.897283D+00  0.159282D+00  0.488495D+01  0.506540D+01  0.161691D+00
     12  0.552802D+00  0.195187D+00 -0.122079D+01 -0.595170D+00  0.402090D+00
     13  0.389801D+00  0.292843D+00 -0.355805D+00 -0.114957D+01  0.209637D+00
     14  0.107086D+01  0.292247D+00 -0.103116D+01 -0.956739D+00  0.419389D+00
     15  0.163364D-01  0.233045D-01  0.248384D+00  0.724857D-01  0.216082D-01
     16 -0.264028D-01 -0.623989D-02  0.117670D-01  0.164558D+00 -0.132055D-01
     17  0.128394D+02 -0.234066D+01 -0.285040D+00 -0.114644D+01 -0.298372D+01
     18 -0.528303D+01 -0.420447D+00  0.581299D-01  0.442096D+00  0.134855D-01
     19 -0.103188D-02  0.595418D-01 -0.223972D-01 -0.768640D+00  0.369794D-01
     20  0.842381D-03 -0.853528D-02  0.525448D+00  0.184546D-01 -0.410922D-01
     21 -0.298282D-01 -0.146421D-01 -0.693094D+00  0.425918D-02  0.245601D-01
     22  0.152280D-01  0.930171D-02 -0.289548D-01 -0.338637D-03  0.415667D-02
     23  0.716560D-02  0.184515D-02  0.217565D-01 -0.297212D-01  0.110800D-01
     24  0.170839D-01 -0.674569D-02  0.133950D+00 -0.287560D-02  0.120279D-02
     25 -0.226280D-02 -0.131016D-02  0.190878D-02  0.177055D-02 -0.152284D-02
     26  0.166891D-02  0.132127D-02 -0.104947D-02 -0.197337D-02  0.569081D-03
     27 -0.899958D-03 -0.640253D-03  0.123347D-02  0.419173D-03 -0.604048D-03
     28  0.827345D-03  0.708911D-03  0.202911D-01 -0.329207D-03 -0.543400D-04
     29 -0.424261D-01 -0.245425D-01  0.138777D-01  0.113988D+00 -0.823570D-01
     30 -0.578791D-02 -0.241382D-01  0.523878D-03  0.160345D+00 -0.144441D-01
     31  0.222864D-03 -0.247281D-02 -0.117402D-02  0.146882D-01 -0.853431D-03
     32  0.110669D-01 -0.489958D-02  0.496588D-02  0.385750D-02 -0.735432D-02
     33 -0.120507D-01 -0.547230D-02 -0.736023D-02  0.847701D-02 -0.155508D-02
               11            12            13            14            15 
     11  0.243533D+11
     12  0.138027D+03  0.385007D+12
     13  0.144619D+03 -0.275640D+02  0.385007D+12
     14  0.313573D+02 -0.688465D+01 -0.432145D+01  0.243533D+11
     15 -0.675497D+01  0.179914D+01  0.812890D+01  0.163440D+03  0.385007D+12
     16 -0.873130D+00  0.610570D+01  0.242542D+00  0.566833D+02 -0.979044D+01
     17 -0.596570D-01 -0.103624D+00 -0.757836D-01 -0.232783D+00 -0.118720D-01
     18  0.931611D-01 -0.805768D-01 -0.642347D-01 -0.178223D+00 -0.382730D-02
     19 -0.686820D+00 -0.141848D+00 -0.237228D+00 -0.542602D+01 -0.144446D+01
     20  0.409006D+00  0.261821D+01  0.387185D+01  0.773859D+01 -0.124779D+01
     21  0.406843D+01 -0.939277D+00 -0.590685D+00  0.172752D+01  0.496788D+01
     22  0.344026D-01  0.264130D+00 -0.459986D-01  0.525777D+01  0.315954D+00
     23 -0.203021D+00  0.109822D+00  0.339452D-01  0.508895D+00  0.105622D+00
     24  0.276247D+01  0.982696D-01  0.833946D+00 -0.342598D+00  0.280579D+01
     25 -0.667142D-01  0.180410D+00  0.427718D+00  0.137301D+01 -0.599596D+00
     26  0.834688D-01 -0.847427D-02  0.756144D-01  0.133456D+00  0.662202D+00
     27 -0.424703D-01 -0.215091D-01 -0.505375D-01  0.267393D+00  0.762109D+00
     28 -0.177836D-01 -0.304567D-02 -0.181303D-02  0.732508D+00 -0.742642D-01
     29 -0.143603D+00  0.210717D+00  0.349528D-02  0.135473D+01  0.229157D+00
     30  0.459995D+00 -0.695745D-02 -0.390290D-01 -0.731057D+00  0.809917D+00
     31 -0.294026D-04 -0.174347D-02 -0.182455D-03 -0.161772D+00  0.211861D+00
     32  0.475429D+00 -0.187947D-01 -0.304960D-01 -0.640402D+00  0.271816D+00
     33 -0.188590D+00 -0.101538D-01  0.128495D-01 -0.897638D+00 -0.102669D+01
               16            17            18            19            20 
     16  0.243533D+11
     17  0.374195D-02  0.708114D+10
     18  0.436099D-02 -0.838704D+02  0.385007D+12
     19  0.100524D+02  0.549180D-02 -0.669771D-02  0.708114D+10
     20  0.202635D+00  0.368914D-02  0.158057D-02 -0.310667D+00  0.201170D+10
     21  0.103341D+01 -0.473383D-02 -0.189433D-02 -0.320929D+00  0.694323D+02
     22  0.173726D+02 -0.356784D-02 -0.259524D-02 -0.195663D+01 -0.386024D-01
     23  0.272536D+01 -0.110445D-02 -0.822688D-03 -0.203839D+01 -0.198247D+00
     24  0.702479D-01 -0.313509D-02 -0.196936D-02  0.152086D-01  0.141315D+02
     25 -0.261238D+00  0.477955D-03  0.369909D-03 -0.524797D-01  0.711582D+01
     26  0.445089D+00 -0.307677D-03 -0.272223D-03  0.768974D-02  0.797063D+00
     27  0.586089D+00  0.133456D-03  0.678797D-04 -0.294927D-01  0.848267D+00
     28 -0.139441D-01 -0.122779D-03 -0.954894D-04 -0.103723D-01  0.763688D+00
     29 -0.438083D+00  0.196144D-02 -0.145865D-02 -0.725557D+00  0.781645D-01
     30  0.133876D+01  0.522683D-03 -0.131035D-02 -0.103867D+01  0.499392D-01
     31  0.753772D+01  0.130429D-03 -0.133964D-03 -0.793997D+00  0.144536D-01
     32  0.167938D+01 -0.113482D-02 -0.166958D-02 -0.104796D+01  0.654678D-02
     33 -0.480157D+00  0.252163D-02  0.203950D-02  0.442252D-01 -0.181306D+01
               21            22            23            24            25 
     21  0.385007D+12
     22  0.326081D-01  0.201170D+10
     23  0.143633D+00  0.716205D+02  0.385007D+12
     24  0.336483D+01 -0.729733D-02  0.531489D-01  0.243533D+11
     25  0.695524D+00 -0.480399D-02  0.243880D-01  0.532245D+02  0.243533D+11
     26 -0.472128D+00  0.912652D-02  0.117192D-02 -0.935314D+01  0.141174D+03
     27 -0.225489D+00 -0.746945D-03 -0.360891D-02 -0.932709D+01  0.141408D+03
     28 -0.309872D+00 -0.359580D-02  0.485700D-02 -0.595942D+01  0.133292D+03
     29 -0.246565D-01  0.976475D+01  0.270285D+01 -0.950843D-02 -0.544708D-03
     30 -0.134658D-01 -0.148298D+01  0.194516D+01  0.184040D-01  0.110467D-01
     31 -0.125567D-01 -0.807255D+00  0.899376D+01  0.448280D-02 -0.261180D-02
     32  0.403998D-01 -0.140507D+01  0.518591D+01 -0.670361D-02  0.431299D-02
     33 -0.178575D+01 -0.128162D+00  0.178677D-01  0.103281D+02 -0.378367D+01
               26            27            28            29            30 
     26  0.385007D+12
     27 -0.289461D+02  0.385007D+12
     28 -0.231511D+02 -0.226249D+02  0.385007D+12
     29 -0.692591D-03  0.233045D-03 -0.514701D-03  0.243533D+11
     30  0.815029D-02  0.285406D-02 -0.463565D-03  0.155031D+03  0.385007D+12
     31  0.893246D-02  0.369406D-02  0.375266D-03  0.143637D+03 -0.225991D+02
     32 -0.228411D-02 -0.510737D-02  0.568606D-03  0.158243D+03 -0.230362D+02
     33 -0.189763D+01 -0.187339D+01 -0.339580D+01  0.246933D-01 -0.789818D-01
               31            32            33 
     31  0.385007D+12
     32 -0.236300D+02  0.385007D+12
     33 -0.596873D-02 -0.638786D-01  0.708114D+10
 End of Minotr F.D. properties file   721 does not exist.
 End of Minotr F.D. properties file   722 does not exist.
 End of Minotr F.D. properties file   788 does not exist.
 Leave Link 1002 at Wed Jun 25 01:59:02 2014, MaxMem=  4294967296 cpu:    503860.5
 (Enter /home/ztw1e12/g09/l601.exe)
 Copying SCF densities to generalized density rwf, IOpCl= 0 IROHF=0.

 **********************************************************************

            Population analysis using the SCF density.

 **********************************************************************

 Orbital symmetries:
       Occupied  (A) (A) (A) (A) (A) (A) (A) (A) (A) (A) (A) (A)
                 (A) (A) (A) (A) (A) (A) (A) (A) (A) (A) (A) (A)
                 (A) (A) (A) (A) (A) (A) (A) (A) (A) (A) (A) (A)
                 (A) (A) (A) (A) (A) (A) (A) (A) (A) (A) (A) (A)
                 (A) (A) (A) (A) (A) (A) (A) (A) (A) (A) (A) (A)
                 (A) (A) (A)
       Virtual   (A) (A) (A) (A) (A) (A) (A) (A) (A) (A) (A) (A)
                 (A) (A) (A) (A) (A) (A) (A) (A) (A) (A) (A) (A)
                 (A) (A) (A) (A) (A) (A) (A) (A) (A) (A) (A) (A)
                 (A) (A) (A) (A) (A) (A) (A) (A) (A) (A) (A) (A)
                 (A) (A) (A) (A) (A) (A) (A) (A) (A) (A) (A) (A)
                 (A) (A) (A) (A) (A) (A) (A) (A) (A) (A) (A) (A)
                 (A) (A) (A) (A) (A) (A) (A) (A) (A) (A) (A) (A)
                 (A) (A) (A) (A) (A) (A) (A) (A) (A) (A) (A) (A)
                 (A) (A) (A) (A) (A) (A) (A) (A) (A) (A) (A) (A)
                 (A) (A) (A) (A) (A) (A) (A) (A) (A) (A) (A) (A)
                 (A) (A) (A) (A) (A) (A) (A) (A) (A) (A) (A) (A)
                 (A) (A) (A) (A) (A) (A) (A) (A) (A) (A) (A) (A)
                 (A) (A) (A) (A) (A) (A) (A) (A) (A) (A) (A) (A)
                 (A) (A) (A) (A) (A) (A) (A) (A) (A) (A) (A) (A)
                 (A) (A) (A) (A) (A) (A) (A) (A) (A) (A) (A) (A)
                 (A) (A) (A) (A) (A) (A) (A) (A) (A) (A) (A) (A)
                 (A) (A) (A) (A) (A) (A) (A) (A) (A) (A) (A) (A)
                 (A) (A) (A) (A) (A) (A) (A) (A) (A) (A) (A) (A)
                 (A) (A) (A) (A) (A) (A) (A) (A) (A) (A) (A) (A)
                 (A) (A) (A) (A) (A) (A) (A) (A) (A) (A) (A) (A)
                 (A) (A) (A) (A) (A) (A) (A) (A) (A) (A) (A) (A)
                 (A) (A) (A) (A) (A) (A) (A) (A) (A) (A) (A) (A)
                 (A) (A) (A) (A) (A) (A) (A) (A) (A) (A) (A) (A)
                 (A) (A) (A) (A) (A) (A) (A) (A) (A) (A) (A) (A)
                 (A) (A) (A) (A) (A) (A) (A) (A) (A) (A) (A) (A)
                 (A) (A) (A) (A) (A) (A) (A) (A) (A) (A) (A) (A)
                 (A) (A) (A) (A) (A) (A) (A) (A) (A) (A) (A) (A)
                 (A) (A) (A) (A) (A) (A) (A) (A) (A) (A) (A) (A)
                 (A) (A) (A) (A) (A) (A) (A) (A) (A) (A) (A) (A)
                 (A) (A) (A) (A) (A) (A) (A) (A) (A) (A) (A) (A)
                 (A) (A) (A) (A) (A) (A) (A) (A) (A) (A) (A) (A)
                 (A) (A) (A) (A) (A) (A) (A) (A) (A) (A) (A) (A)
                 (A) (A) (A) (A) (A) (A) (A) (A) (A) (A) (A) (A)
                 (A) (A) (A) (A) (A) (A) (A) (A) (A) (A) (A) (A)
                 (A) (A) (A) (A) (A) (A) (A) (A) (A) (A) (A) (A)
                 (A) (A) (A) (A) (A) (A) (A) (A) (A) (A) (A) (A)
                 (A) (A) (A) (A) (A) (A) (A) (A) (A) (A) (A) (A)
                 (A) (A) (A) (A) (A) (A) (A) (A) (A) (A) (A) (A)
                 (A) (A) (A) (A) (A) (A) (A) (A) (A) (A) (A) (A)
                 (A) (A) (A) (A) (A) (A) (A) (A) (A) (A) (A) (A)
                 (A) (A) (A) (A) (A) (A) (A) (A) (A) (A) (A) (A)
                 (A) (A) (A) (A) (A) (A) (A) (A) (A) (A) (A) (A)
                 (A) (A) (A) (A) (A) (A) (A) (A) (A) (A) (A) (A)
                 (A) (A) (A) (A) (A) (A) (A) (A) (A) (A) (A) (A)
                 (A) (A) (A) (A) (A) (A) (A) (A) (A) (A) (A) (A)
                 (A) (A) (A) (A) (A) (A) (A) (A) (A) (A) (A) (A)
                 (A) (A) (A) (A) (A) (A) (A) (A) (A) (A) (A) (A)
                 (A) (A) (A) (A) (A) (A) (A) (A) (A) (A) (A) (A)
                 (A) (A) (A) (A) (A) (A) (A) (A) (A) (A) (A) (A)
                 (A) (A) (A) (A) (A) (A) (A) (A) (A) (A) (A) (A)
                 (A) (A) (A) (A) (A) (A) (A) (A) (A) (A) (A) (A)
                 (A) (A) (A) (A) (A) (A) (A) (A) (A) (A) (A) (A)
                 (A) (A) (A) (A) (A) (A) (A) (A) (A) (A) (A) (A)
                 (A) (A) (A) (A) (A) (A) (A) (A) (A) (A) (A) (A)
                 (A) (A) (A) (A) (A) (A) (A) (A) (A) (A) (A) (A)
                 (A) (A) (A) (A) (A) (A) (A) (A) (A) (A) (A) (A)
                 (A) (A) (A) (A) (A) (A) (A) (A) (A) (A) (A) (A)
                 (A) (A) (A) (A) (A) (A) (A) (A) (A) (A) (A) (A)
                 (A) (A) (A) (A) (A) (A) (A) (A) (A) (A) (A) (A)
                 (A) (A) (A) (A) (A) (A) (A) (A) (A) (A) (A) (A)
                 (A) (A) (A) (A) (A) (A) (A) (A) (A) (A) (A) (A)
                 (A) (A) (A) (A) (A) (A) (A) (A) (A) (A) (A) (A)
                 (A) (A) (A) (A) (A) (A) (A) (A) (A) (A) (A) (A)
                 (A) (A) (A) (A) (A) (A) (A) (A) (A) (A) (A) (A)
                 (A) (A) (A) (A) (A) (A) (A) (A) (A) (A) (A) (A)
                 (A) (A) (A) (A) (A) (A) (A) (A) (A) (A) (A) (A)
                 (A) (A) (A) (A) (A) (A) (A) (A) (A) (A) (A) (A)
                 (A) (A) (A) (A) (A) (A) (A) (A) (A) (A) (A) (A)
                 (A) (A) (A) (A) (A) (A) (A) (A) (A) (A) (A) (A)
                 (A) (A) (A) (A) (A) (A) (A) (A) (A) (A) (A) (A)
                 (A) (A) (A) (A) (A) (A) (A) (A) (A) (A) (A) (A)
                 (A) (A) (A) (A) (A) (A) (A) (A) (A) (A) (A) (A)
                 (A) (A) (A) (A) (A) (A) (A) (A) (A) (A) (A) (A)
                 (A) (A) (A) (A) (A) (A) (A) (A) (A) (A) (A) (A)
                 (A) (A) (A) (A) (A) (A) (A) (A) (A) (A) (A) (A)
                 (A) (A) (A) (A) (A) (A) (A) (A) (A) (A) (A) (A)
                 (A) (A) (A) (A) (A) (A) (A) (A) (A) (A) (A) (A)
                 (A) (A) (A) (A) (A) (A) (A) (A) (A) (A) (A) (A)
                 (A) (A) (A) (A) (A) (A) (A) (A) (A) (A) (A) (A)
                 (A) (A) (A) (A) (A) (A) (A) (A) (A) (A) (A) (A)
                 (A) (A) (A) (A) (A) (A) (A) (A) (A) (A) (A) (A)
                 (A) (A) (A) (A) (A) (A) (A) (A) (A) (A) (A) (A)
                 (A) (A) (A) (A) (A) (A) (A) (A) (A) (A) (A) (A)
                 (A) (A) (A) (A) (A) (A) (A) (A) (A)
 The electronic state is 1-A.
 Alpha  occ. eigenvalues --  -19.25351 -19.17754 -19.16666 -14.42864 -14.41348
 Alpha  occ. eigenvalues --  -10.34666 -10.33099 -10.31415 -10.29187 -10.26680
 Alpha  occ. eigenvalues --  -10.25951 -10.25815 -10.25412 -10.25295 -10.25166
 Alpha  occ. eigenvalues --  -10.24930 -10.24513  -1.09700  -1.05937  -1.04466
 Alpha  occ. eigenvalues --   -0.95800  -0.93432  -0.88337  -0.81774  -0.77459
 Alpha  occ. eigenvalues --   -0.77321  -0.74240  -0.71934  -0.66812  -0.64666
 Alpha  occ. eigenvalues --   -0.62060  -0.60686  -0.59279  -0.56940  -0.55208
 Alpha  occ. eigenvalues --   -0.52674  -0.50712  -0.49829  -0.48684  -0.47155
 Alpha  occ. eigenvalues --   -0.47044  -0.46184  -0.44610  -0.44479  -0.44280
 Alpha  occ. eigenvalues --   -0.43652  -0.42886  -0.41962  -0.41376  -0.41326
 Alpha  occ. eigenvalues --   -0.40000  -0.39062  -0.38452  -0.37922  -0.35906
 Alpha  occ. eigenvalues --   -0.35712  -0.35219  -0.29971  -0.27986  -0.27405
 Alpha  occ. eigenvalues --   -0.27019  -0.25701  -0.24398
 Alpha virt. eigenvalues --   -0.02015  -0.00274   0.00458   0.01644   0.01986
 Alpha virt. eigenvalues --    0.03069   0.03564   0.04717   0.05962   0.06456
 Alpha virt. eigenvalues --    0.06939   0.08087   0.09148   0.09963   0.10743
 Alpha virt. eigenvalues --    0.10928   0.11640   0.12685   0.12933   0.13285
 Alpha virt. eigenvalues --    0.14770   0.15646   0.16110   0.17204   0.18725
 Alpha virt. eigenvalues --    0.19236   0.21321   0.21794   0.22854   0.23245
 Alpha virt. eigenvalues --    0.23983   0.24195   0.24821   0.25447   0.26292
 Alpha virt. eigenvalues --    0.26929   0.27746   0.28258   0.28670   0.29545
 Alpha virt. eigenvalues --    0.30338   0.30780   0.31047   0.31816   0.32765
 Alpha virt. eigenvalues --    0.32793   0.33393   0.33691   0.34929   0.35055
 Alpha virt. eigenvalues --    0.35691   0.36127   0.36644   0.37137   0.37526
 Alpha virt. eigenvalues --    0.37850   0.38192   0.39046   0.39227   0.39762
 Alpha virt. eigenvalues --    0.39967   0.40379   0.40907   0.41468   0.41790
 Alpha virt. eigenvalues --    0.42369   0.42526   0.42795   0.43697   0.44325
 Alpha virt. eigenvalues --    0.45263   0.45440   0.45884   0.46350   0.46851
 Alpha virt. eigenvalues --    0.46959   0.48021   0.49102   0.49712   0.50002
 Alpha virt. eigenvalues --    0.50705   0.51183   0.52402   0.52700   0.53568
 Alpha virt. eigenvalues --    0.54320   0.55102   0.56001   0.56792   0.57220
 Alpha virt. eigenvalues --    0.58540   0.59115   0.59282   0.60232   0.61243
 Alpha virt. eigenvalues --    0.62091   0.62386   0.63140   0.63852   0.64435
 Alpha virt. eigenvalues --    0.65443   0.66498   0.67095   0.67528   0.68428
 Alpha virt. eigenvalues --    0.68716   0.70222   0.70525   0.71409   0.72376
 Alpha virt. eigenvalues --    0.73174   0.73799   0.74684   0.75176   0.75620
 Alpha virt. eigenvalues --    0.77296   0.78094   0.78251   0.79281   0.80235
 Alpha virt. eigenvalues --    0.80882   0.81168   0.81849   0.82595   0.82916
 Alpha virt. eigenvalues --    0.84397   0.84909   0.85950   0.86163   0.86952
 Alpha virt. eigenvalues --    0.87711   0.88002   0.90495   0.90646   0.91416
 Alpha virt. eigenvalues --    0.91606   0.92951   0.93778   0.94280   0.94481
 Alpha virt. eigenvalues --    0.95653   0.95935   0.96732   0.97399   0.97681
 Alpha virt. eigenvalues --    0.98789   0.99287   0.99974   1.00549   1.02027
 Alpha virt. eigenvalues --    1.02427   1.02936   1.03810   1.04487   1.05634
 Alpha virt. eigenvalues --    1.05823   1.07626   1.08203   1.08859   1.09210
 Alpha virt. eigenvalues --    1.10519   1.11361   1.12353   1.13449   1.14170
 Alpha virt. eigenvalues --    1.14853   1.15072   1.15427   1.16135   1.16689
 Alpha virt. eigenvalues --    1.17444   1.18609   1.19238   1.19266   1.20001
 Alpha virt. eigenvalues --    1.20507   1.21176   1.21535   1.22306   1.22611
 Alpha virt. eigenvalues --    1.23109   1.23377   1.24046   1.24433   1.25103
 Alpha virt. eigenvalues --    1.25855   1.26611   1.27138   1.27772   1.28211
 Alpha virt. eigenvalues --    1.28799   1.29280   1.29485   1.30165   1.30501
 Alpha virt. eigenvalues --    1.31097   1.31689   1.33053   1.33905   1.34709
 Alpha virt. eigenvalues --    1.35289   1.35562   1.36606   1.37768   1.38177
 Alpha virt. eigenvalues --    1.39116   1.40645   1.42596   1.43235   1.44781
 Alpha virt. eigenvalues --    1.46485   1.47909   1.48175   1.48917   1.51326
 Alpha virt. eigenvalues --    1.52879   1.54099   1.54873   1.57280   1.58350
 Alpha virt. eigenvalues --    1.58720   1.60386   1.60842   1.62194   1.63141
 Alpha virt. eigenvalues --    1.64357   1.66626   1.68581   1.69932   1.72127
 Alpha virt. eigenvalues --    1.74065   1.74578   1.75513   1.76997   1.78514
 Alpha virt. eigenvalues --    1.80447   1.82019   1.82768   1.83237   1.84647
 Alpha virt. eigenvalues --    1.85880   1.86556   1.88029   1.88998   1.91594
 Alpha virt. eigenvalues --    1.92049   1.94463   1.94780   1.95074   1.96180
 Alpha virt. eigenvalues --    1.97077   1.98755   2.01597   2.02862   2.03131
 Alpha virt. eigenvalues --    2.04102   2.05420   2.05806   2.07927   2.08682
 Alpha virt. eigenvalues --    2.10169   2.11201   2.12556   2.13296   2.15055
 Alpha virt. eigenvalues --    2.16421   2.16918   2.19282   2.20051   2.21358
 Alpha virt. eigenvalues --    2.22470   2.22657   2.24986   2.25866   2.27144
 Alpha virt. eigenvalues --    2.28317   2.29863   2.31128   2.31306   2.32244
 Alpha virt. eigenvalues --    2.33954   2.34959   2.36409   2.37512   2.37885
 Alpha virt. eigenvalues --    2.39283   2.39714   2.40614   2.41366   2.43566
 Alpha virt. eigenvalues --    2.44376   2.45527   2.45718   2.47144   2.47992
 Alpha virt. eigenvalues --    2.48550   2.51075   2.53243   2.53593   2.53979
 Alpha virt. eigenvalues --    2.55732   2.57052   2.57918   2.58647   2.60308
 Alpha virt. eigenvalues --    2.61673   2.63976   2.64065   2.65738   2.66474
 Alpha virt. eigenvalues --    2.66871   2.67995   2.68740   2.69181   2.69615
 Alpha virt. eigenvalues --    2.70377   2.71033   2.71209   2.71767   2.72834
 Alpha virt. eigenvalues --    2.73378   2.73972   2.75178   2.75698   2.76310
 Alpha virt. eigenvalues --    2.76550   2.77752   2.78714   2.79588   2.81507
 Alpha virt. eigenvalues --    2.83104   2.83297   2.84219   2.85110   2.85995
 Alpha virt. eigenvalues --    2.86427   2.87171   2.88216   2.88632   2.89136
 Alpha virt. eigenvalues --    2.90136   2.90611   2.91783   2.92106   2.92907
 Alpha virt. eigenvalues --    2.93363   2.94106   2.94576   2.94874   2.96002
 Alpha virt. eigenvalues --    2.96766   2.96832   2.97707   2.98221   2.99440
 Alpha virt. eigenvalues --    2.99719   2.99911   3.00288   3.01276   3.02447
 Alpha virt. eigenvalues --    3.02497   3.03223   3.03604   3.04141   3.04797
 Alpha virt. eigenvalues --    3.05181   3.06637   3.07645   3.08549   3.09820
 Alpha virt. eigenvalues --    3.10505   3.11241   3.12359   3.12464   3.13472
 Alpha virt. eigenvalues --    3.14082   3.14833   3.15433   3.16186   3.17009
 Alpha virt. eigenvalues --    3.17734   3.18556   3.19054   3.20518   3.21069
 Alpha virt. eigenvalues --    3.21418   3.22492   3.22939   3.25091   3.25404
 Alpha virt. eigenvalues --    3.26121   3.26660   3.27136   3.27703   3.28163
 Alpha virt. eigenvalues --    3.28546   3.28780   3.29599   3.30512   3.30824
 Alpha virt. eigenvalues --    3.31372   3.32342   3.33077   3.33748   3.34812
 Alpha virt. eigenvalues --    3.35841   3.36042   3.36841   3.38266   3.39164
 Alpha virt. eigenvalues --    3.39925   3.40617   3.41655   3.42179   3.43615
 Alpha virt. eigenvalues --    3.43975   3.44499   3.44886   3.45938   3.46536
 Alpha virt. eigenvalues --    3.47328   3.47948   3.49460   3.50184   3.51246
 Alpha virt. eigenvalues --    3.52391   3.53265   3.54610   3.55265   3.55307
 Alpha virt. eigenvalues --    3.56223   3.57785   3.58551   3.60064   3.62213
 Alpha virt. eigenvalues --    3.62798   3.63509   3.63942   3.65531   3.66319
 Alpha virt. eigenvalues --    3.67511   3.67835   3.68677   3.70315   3.70664
 Alpha virt. eigenvalues --    3.71488   3.71966   3.72300   3.73390   3.73465
 Alpha virt. eigenvalues --    3.74778   3.75691   3.76313   3.76626   3.77613
 Alpha virt. eigenvalues --    3.78599   3.78766   3.80549   3.81044   3.81616
 Alpha virt. eigenvalues --    3.82243   3.83558   3.84482   3.84975   3.85558
 Alpha virt. eigenvalues --    3.86553   3.86789   3.87537   3.89556   3.90166
 Alpha virt. eigenvalues --    3.90977   3.92229   3.92693   3.93919   3.95307
 Alpha virt. eigenvalues --    3.96328   3.96922   3.98336   3.99709   4.00029
 Alpha virt. eigenvalues --    4.00893   4.01663   4.02591   4.04699   4.05171
 Alpha virt. eigenvalues --    4.06116   4.06874   4.07779   4.08106   4.08447
 Alpha virt. eigenvalues --    4.09765   4.10964   4.12200   4.12716   4.14403
 Alpha virt. eigenvalues --    4.14903   4.15673   4.16470   4.17750   4.18119
 Alpha virt. eigenvalues --    4.20020   4.20308   4.20593   4.20848   4.22908
 Alpha virt. eigenvalues --    4.24181   4.24620   4.24987   4.25711   4.26310
 Alpha virt. eigenvalues --    4.27165   4.27998   4.28758   4.29375   4.29646
 Alpha virt. eigenvalues --    4.31327   4.33330   4.34677   4.35963   4.38378
 Alpha virt. eigenvalues --    4.38774   4.39798   4.40976   4.44136   4.46236
 Alpha virt. eigenvalues --    4.46523   4.47717   4.49110   4.49523   4.50525
 Alpha virt. eigenvalues --    4.51871   4.54058   4.56412   4.56786   4.58220
 Alpha virt. eigenvalues --    4.59420   4.60217   4.60614   4.61487   4.62800
 Alpha virt. eigenvalues --    4.64182   4.64993   4.65069   4.66395   4.67541
 Alpha virt. eigenvalues --    4.68521   4.69305   4.71384   4.71943   4.72969
 Alpha virt. eigenvalues --    4.75156   4.76062   4.76957   4.77487   4.79980
 Alpha virt. eigenvalues --    4.80486   4.81937   4.82797   4.85176   4.85626
 Alpha virt. eigenvalues --    4.86498   4.88504   4.90030   4.90656   4.91571
 Alpha virt. eigenvalues --    4.92317   4.93173   4.94414   4.95271   4.96613
 Alpha virt. eigenvalues --    4.97648   4.98696   5.00736   5.02095   5.03019
 Alpha virt. eigenvalues --    5.03589   5.04690   5.05992   5.07555   5.09209
 Alpha virt. eigenvalues --    5.10394   5.11726   5.12921   5.13679   5.14411
 Alpha virt. eigenvalues --    5.15021   5.16460   5.17367   5.17708   5.19441
 Alpha virt. eigenvalues --    5.21412   5.21972   5.23575   5.25945   5.27009
 Alpha virt. eigenvalues --    5.29853   5.32685   5.34555   5.35872   5.37859
 Alpha virt. eigenvalues --    5.41591   5.43363   5.44271   5.45586   5.48353
 Alpha virt. eigenvalues --    5.49737   5.51626   5.52208   5.53540   5.55216
 Alpha virt. eigenvalues --    5.57526   5.58976   5.60016   5.60866   5.62976
 Alpha virt. eigenvalues --    5.63439   5.64715   5.66250   5.66756   5.67350
 Alpha virt. eigenvalues --    5.68935   5.70508   5.71880   5.72600   5.73488
 Alpha virt. eigenvalues --    5.74977   5.76858   5.79204   5.80065   5.82377
 Alpha virt. eigenvalues --    5.83890   5.88798   5.89497   5.90372   5.97234
 Alpha virt. eigenvalues --    5.97326   5.98950   6.03549   6.05880   6.09821
 Alpha virt. eigenvalues --    6.17409   6.18051   6.18903   6.21349   6.28902
 Alpha virt. eigenvalues --    6.45523   6.46288   6.50899   6.53139   6.56742
 Alpha virt. eigenvalues --    6.60488   6.61316   6.62091   6.64511   6.68171
 Alpha virt. eigenvalues --    6.79813   6.79869   6.81454   6.87789   6.89030
 Alpha virt. eigenvalues --    6.91130   6.91248   6.92386   6.95323   7.06197
 Alpha virt. eigenvalues --    7.17685   7.19305   7.23586   7.28160   7.28763
 Alpha virt. eigenvalues --    7.67266   8.00578   8.10664   8.12983   8.13996
 Alpha virt. eigenvalues --    8.18555   8.24950   8.31858   8.37581   8.67744
 Alpha virt. eigenvalues --    8.74528   8.75714   8.77349   8.81745   8.82067
 Alpha virt. eigenvalues --    8.83335   8.84225   8.87351   8.88243   8.90785
 Alpha virt. eigenvalues --    8.92819   8.94242   8.95524   9.01421   9.05337
 Alpha virt. eigenvalues --    9.07533   9.10508   9.17613   9.20466   9.30864
 Alpha virt. eigenvalues --    9.35565   9.39682   9.40733   9.44793   9.47990
 Alpha virt. eigenvalues --    9.58616   9.61723   9.78226   9.81873  10.02502
 Alpha virt. eigenvalues --   10.07445  10.12086  10.12502  10.13664  10.15592
 Alpha virt. eigenvalues --   10.17656  10.19606  10.20346  10.24777  10.27859
 Alpha virt. eigenvalues --   10.31234  10.36168  10.82341  11.70831  11.78019
 Alpha virt. eigenvalues --   11.82271  11.92699  11.98656  12.02986  12.14142
 Alpha virt. eigenvalues --   12.16935  12.23351  12.25412  12.30176  12.32694
 Alpha virt. eigenvalues --   12.44765  12.55953  12.58919  12.82332  12.86746
 Alpha virt. eigenvalues --   12.91892  14.84355  14.95552  15.02483  15.23735
 Alpha virt. eigenvalues --   15.26295  15.42117  15.98477  15.98592  16.03971
 Alpha virt. eigenvalues --   16.79983  16.92412  21.89525  21.99879  22.09484
 Alpha virt. eigenvalues --   40.11938  40.17040  40.19890  40.21378  40.24523
 Alpha virt. eigenvalues --   40.27521  40.31941  40.37340  40.56386  40.65966
[...]
 Alpha virt. eigenvalues --    6.77784   6.80268   6.85575   6.87089   6.89211
 Alpha virt. eigenvalues --    6.91182   6.96175   7.07906   7.09369   7.11134
 Alpha virt. eigenvalues --    7.15354   7.18524   7.28721   7.43099   8.67156
 Alpha virt. eigenvalues --    9.59398   9.92272  11.93513  12.10188  12.30404
 Alpha virt. eigenvalues --   12.43574  12.59036  12.74745  12.93249  13.24387
 Alpha virt. eigenvalues --   13.50716  13.53192  13.60173  13.73214  14.05791
 Alpha virt. eigenvalues --   15.56521
          Condensed to atoms (all electrons):
               1          2          3          4          5          6
     1  C    5.424949   0.211652   0.000155  -0.046902  -0.011846   0.308403
     2  C    0.211652   5.471470   0.268863  -0.000885  -0.048115   0.031664
     3  C    0.000155   0.268863   5.466093   0.258609  -0.012078  -0.076548
     4  C   -0.046902  -0.000885   0.258609   5.289937   0.373519  -0.006524
     5  C   -0.011846  -0.048115  -0.012078   0.373519   5.158625   0.350681
     6  C    0.308403   0.031664  -0.076548  -0.006524   0.350681   4.879151
     7  H    0.450077  -0.036540   0.008676  -0.001060   0.004420  -0.069310
     8  H   -0.012938   0.428318  -0.086324   0.004351  -0.001012   0.005676
     9  H   -0.004328   0.009127  -0.085560   0.462033  -0.049738   0.013172
    10  H    0.014548  -0.006171   0.015107  -0.060210   0.458224  -0.083846
    11  C    0.007449  -0.053110   0.185809  -0.043510   0.006698  -0.001601
    12  H    0.000413  -0.005327  -0.061236   0.004624  -0.000453   0.000064
    13  H   -0.000591   0.005619  -0.049674  -0.001058   0.000303   0.000115
    14  C    0.001182   0.005470   0.022160  -0.018137   0.000427  -0.000337
    15  H    0.000011   0.000297   0.005102   0.000325   0.000021  -0.000007
    16  C   -0.000145  -0.003750  -0.011399   0.008305  -0.000618  -0.000099
    17  O   -0.091426   0.014062  -0.000635   0.002755  -0.049824   0.394639
    18  H   -0.005375   0.004798  -0.000373  -0.000761   0.002415  -0.043254
    19  O   -0.000009  -0.000263  -0.011336  -0.001933  -0.000877   0.000046
    20  N   -0.000411  -0.008015  -0.001731   0.002480   0.000032  -0.000001
    21  H    0.000294   0.007694  -0.002364  -0.000197  -0.000102   0.000044
    22  N    0.000863  -0.001975   0.005162  -0.008828   0.004016  -0.000823
    23  H    0.001231   0.000956   0.001813  -0.002116   0.000379  -0.000208
    24  C   -0.000035  -0.000031  -0.001499   0.000110  -0.000008   0.000006
    25  C   -0.000011  -0.000098  -0.000096   0.000014   0.000000   0.000000
    26  H    0.000000   0.000004   0.000005   0.000000   0.000000   0.000000
    27  H    0.000000  -0.000012   0.000002  -0.000001   0.000000   0.000000
    28  H   -0.000013  -0.000033   0.000157   0.000005   0.000000   0.000000
    29  C    0.000230   0.000390  -0.000591  -0.001067  -0.001345   0.000345
    30  H   -0.000421  -0.000088  -0.002369   0.003607  -0.002289   0.000923
    31  H    0.000064  -0.000036   0.000078  -0.000127   0.000029  -0.000019
    32  H    0.000015   0.000013   0.000266  -0.000148   0.000164  -0.000023
    33  O    0.000000   0.000035  -0.000181  -0.000003   0.000000   0.000000
               7          8          9         10         11         12
     1  C    0.450077  -0.012938  -0.004328   0.014548   0.007449   0.000413
     2  C   -0.036540   0.428318   0.009127  -0.006171  -0.053110  -0.005327
     3  C    0.008676  -0.086324  -0.085560   0.015107   0.185809  -0.061236
     4  C   -0.001060   0.004351   0.462033  -0.060210  -0.043510   0.004624
     5  C    0.004420  -0.001012  -0.049738   0.458224   0.006698  -0.000453
     6  C   -0.069310   0.005676   0.013172  -0.083846  -0.001601   0.000064
     7  H    0.532425  -0.006261   0.000019  -0.000203  -0.000272  -0.000031
     8  H   -0.006261   0.490008  -0.000171   0.000056   0.005389   0.000686
     9  H    0.000019  -0.000171   0.468774  -0.009212  -0.002128   0.000422
    10  H   -0.000203   0.000056  -0.009212   0.530845  -0.000103   0.000013
    11  C   -0.000272   0.005389  -0.002128  -0.000103   5.311699   0.438768
    12  H   -0.000031   0.000686   0.000422   0.000013   0.438768   0.481889
    13  H    0.000015   0.000046   0.002001  -0.000050   0.432454  -0.000858
    14  C    0.000058  -0.001279  -0.001985   0.000022   0.168744  -0.061383
    15  H    0.000000  -0.000106  -0.000096  -0.000001  -0.025194  -0.005037
    16  C   -0.000006   0.000499   0.001836   0.000021  -0.008606   0.011599
    17  O   -0.004292  -0.000124  -0.000119   0.006156   0.000000   0.000000
    18  H    0.004625  -0.000015   0.000040  -0.000938  -0.000006   0.000000
    19  O    0.000000  -0.000012   0.010025  -0.000052   0.006813  -0.000062
    20  N    0.000002  -0.001796   0.000050  -0.000001  -0.036090   0.001990
    21  H   -0.000042   0.003216   0.000019   0.000000  -0.003042   0.003656
    22  N    0.000034  -0.000228  -0.001770   0.000055  -0.007381  -0.000688
    23  H    0.000030  -0.000415  -0.000281   0.000015  -0.000537  -0.000310
    24  C   -0.000002   0.000349   0.000026   0.000000   0.012514  -0.000203
    25  C   -0.000001   0.000115   0.000000   0.000000   0.000299  -0.000136
    26  H    0.000000  -0.000009   0.000000   0.000000   0.000017  -0.000027
    27  H    0.000000  -0.000004   0.000000   0.000000   0.000003   0.000022
    28  H    0.000000   0.000058   0.000000   0.000000  -0.000249  -0.000043
    29  C    0.000001   0.000015   0.000389   0.000015  -0.000654   0.000057
    30  H   -0.000011   0.000010   0.001496  -0.000124   0.000906   0.000011
    31  H    0.000002   0.000000   0.000010  -0.000001  -0.000066   0.000000
    32  H    0.000000   0.000001  -0.000191   0.000011  -0.000299   0.000000
    33  O    0.000000   0.000015   0.000000   0.000000   0.001584  -0.000146
              13         14         15         16         17         18
     1  C   -0.000591   0.001182   0.000011  -0.000145  -0.091426  -0.005375
     2  C    0.005619   0.005470   0.000297  -0.003750   0.014062   0.004798
     3  C   -0.049674   0.022160   0.005102  -0.011399  -0.000635  -0.000373
     4  C   -0.001058  -0.018137   0.000325   0.008305   0.002755  -0.000761
     5  C    0.000303   0.000427   0.000021  -0.000618  -0.049824   0.002415
     6  C    0.000115  -0.000337  -0.000007  -0.000099   0.394639  -0.043254
     7  H    0.000015   0.000058   0.000000  -0.000006  -0.004292   0.004625
     8  H    0.000046  -0.001279  -0.000106   0.000499  -0.000124  -0.000015
     9  H    0.002001  -0.001985  -0.000096   0.001836  -0.000119   0.000040
    10  H   -0.000050   0.000022  -0.000001   0.000021   0.006156  -0.000938
    11  C    0.432454   0.168744  -0.025194  -0.008606   0.000000  -0.000006
    12  H   -0.000858  -0.061383  -0.005037   0.011599   0.000000   0.000000
    13  H    0.470943  -0.044985  -0.005485  -0.000788   0.000000   0.000000
    14  C   -0.044985   5.499020   0.464419   0.139459   0.000000   0.000000
    15  H   -0.005485   0.464419   0.464421  -0.071817   0.000000   0.000000
    16  C   -0.000788   0.139459  -0.071817   4.803507   0.000002   0.000000
    17  O    0.000000   0.000000   0.000000   0.000002   7.660359   0.358905
    18  H    0.000000   0.000000   0.000000   0.000000   0.358905   0.492049
    19  O    0.005135  -0.073147   0.002826   0.732555   0.000000   0.000000
    20  N    0.005345   0.139312  -0.048084  -0.035012   0.000000   0.000000
    21  H    0.000076  -0.023072   0.001292   0.002564   0.000000   0.000000
    22  N    0.001211  -0.095263   0.005194   0.267682   0.000000   0.000000
    23  H   -0.000237   0.002451   0.001065  -0.028818  -0.000002  -0.000001
    24  C   -0.000049  -0.090589  -0.002523   0.004705   0.000000   0.000000
    25  C    0.000026   0.008125   0.001933  -0.001635   0.000000   0.000000
    26  H   -0.000003  -0.000168   0.000141  -0.000157   0.000000   0.000000
    27  H   -0.000001  -0.000517  -0.000196   0.000483   0.000000   0.000000
    28  H   -0.000001   0.001179  -0.000207  -0.000244   0.000000   0.000000
    29  C   -0.000042   0.009439  -0.000623  -0.053193  -0.000013   0.000000
    30  H   -0.000014  -0.001992  -0.000144   0.005130   0.000009   0.000001
    31  H   -0.000004   0.000687  -0.000005   0.008786  -0.000001   0.000000
    32  H   -0.000007   0.001849   0.000079  -0.009963   0.000000   0.000000
    33  O    0.000032   0.009020   0.015080   0.003653   0.000000   0.000000
              19         20         21         22         23         24
     1  C   -0.000009  -0.000411   0.000294   0.000863   0.001231  -0.000035
     2  C   -0.000263  -0.008015   0.007694  -0.001975   0.000956  -0.000031
     3  C   -0.011336  -0.001731  -0.002364   0.005162   0.001813  -0.001499
     4  C   -0.001933   0.002480  -0.000197  -0.008828  -0.002116   0.000110
     5  C   -0.000877   0.000032  -0.000102   0.004016   0.000379  -0.000008
     6  C    0.000046  -0.000001   0.000044  -0.000823  -0.000208   0.000006
     7  H    0.000000   0.000002  -0.000042   0.000034   0.000030  -0.000002
     8  H   -0.000012  -0.001796   0.003216  -0.000228  -0.000415   0.000349
     9  H    0.010025   0.000050   0.000019  -0.001770  -0.000281   0.000026
    10  H   -0.000052  -0.000001   0.000000   0.000055   0.000015   0.000000
    11  C    0.006813  -0.036090  -0.003042  -0.007381  -0.000537   0.012514
    12  H   -0.000062   0.001990   0.003656  -0.000688  -0.000310  -0.000203
    13  H    0.005135   0.005345   0.000076   0.001211  -0.000237  -0.000049
    14  C   -0.073147   0.139312  -0.023072  -0.095263   0.002451  -0.090589
    15  H    0.002826  -0.048084   0.001292   0.005194   0.001065  -0.002523
    16  C    0.732555  -0.035012   0.002564   0.267682  -0.028818   0.004705
    17  O    0.000000   0.000000   0.000000   0.000000  -0.000002   0.000000
    18  H    0.000000   0.000000   0.000000   0.000000  -0.000001   0.000000
    19  O    7.826261   0.005049  -0.000248  -0.129536   0.005199  -0.000558
    20  N    0.005049   6.711525   0.362345   0.005325   0.024907   0.317067
    21  H   -0.000248   0.362345   0.492340  -0.000676  -0.001047  -0.018257
    22  N   -0.129536   0.005325  -0.000676   6.520698   0.380567   0.009149
    23  H    0.005199   0.024907  -0.001047   0.380567   0.518813  -0.005089
    24  C   -0.000558   0.317067  -0.018257   0.009149  -0.005089   4.610177
    25  C   -0.000002  -0.064911  -0.003289  -0.000363   0.000421   0.272972
    26  H    0.000000  -0.000108  -0.000320   0.000000   0.000134  -0.027214
    27  H   -0.000002  -0.000867   0.000753   0.000212  -0.000497  -0.021307
    28  H    0.000001   0.013043  -0.001053   0.000090   0.000195  -0.058389
    29  C    0.004308  -0.001699   0.000101   0.291100  -0.033207  -0.000016
    30  H    0.004115  -0.000050   0.000006  -0.060378   0.000252   0.000145
    31  H    0.001469  -0.000184   0.000027  -0.028241  -0.007927  -0.000053
    32  H    0.006853  -0.000225   0.000004  -0.041426   0.003935  -0.000309
    33  O   -0.000175  -0.137625   0.004218  -0.005279  -0.002956   0.726749
              25         26         27         28         29         30
     1  C   -0.000011   0.000000   0.000000  -0.000013   0.000230  -0.000421
     2  C   -0.000098   0.000004  -0.000012  -0.000033   0.000390  -0.000088
     3  C   -0.000096   0.000005   0.000002   0.000157  -0.000591  -0.002369
     4  C    0.000014   0.000000  -0.000001   0.000005  -0.001067   0.003607
     5  C    0.000000   0.000000   0.000000   0.000000  -0.001345  -0.002289
     6  C    0.000000   0.000000   0.000000   0.000000   0.000345   0.000923
     7  H   -0.000001   0.000000   0.000000   0.000000   0.000001  -0.000011
     8  H    0.000115  -0.000009  -0.000004   0.000058   0.000015   0.000010
     9  H    0.000000   0.000000   0.000000   0.000000   0.000389   0.001496
    10  H    0.000000   0.000000   0.000000   0.000000   0.000015  -0.000124
    11  C    0.000299   0.000017   0.000003  -0.000249  -0.000654   0.000906
    12  H   -0.000136  -0.000027   0.000022  -0.000043   0.000057   0.000011
    13  H    0.000026  -0.000003  -0.000001  -0.000001  -0.000042  -0.000014
    14  C    0.008125  -0.000168  -0.000517   0.001179   0.009439  -0.001992
    15  H    0.001933   0.000141  -0.000196  -0.000207  -0.000623  -0.000144
    16  C   -0.001635  -0.000157   0.000483  -0.000244  -0.053193   0.005130
    17  O    0.000000   0.000000   0.000000   0.000000  -0.000013   0.000009
    18  H    0.000000   0.000000   0.000000   0.000000   0.000000   0.000001
    19  O   -0.000002   0.000000  -0.000002   0.000001   0.004308   0.004115
    20  N   -0.064911  -0.000108  -0.000867   0.013043  -0.001699  -0.000050
    21  H   -0.003289  -0.000320   0.000753  -0.001053   0.000101   0.000006
    22  N   -0.000363   0.000000   0.000212   0.000090   0.291100  -0.060378
    23  H    0.000421   0.000134  -0.000497   0.000195  -0.033207   0.000252
    24  C    0.272972  -0.027214  -0.021307  -0.058389  -0.000016   0.000145
    25  C    5.005577   0.390290   0.382076   0.396208  -0.000048  -0.000001
    26  H    0.390290   0.561054  -0.023120  -0.024944  -0.000002   0.000000
    27  H    0.382076  -0.023120   0.570263  -0.028057   0.000015   0.000002
    28  H    0.396208  -0.024944  -0.028057   0.600866   0.000000   0.000000
    29  C   -0.000048  -0.000002   0.000015   0.000000   4.787330   0.391742
    30  H   -0.000001   0.000000   0.000002   0.000000   0.391742   0.623959
    31  H   -0.000010   0.000000   0.000010   0.000000   0.393226  -0.028388
    32  H   -0.000006   0.000000   0.000000  -0.000001   0.401701  -0.054789
    33  O   -0.068818   0.001426   0.001651   0.004488   0.000185   0.000001
              31         32         33
     1  C    0.000064   0.000015   0.000000
     2  C   -0.000036   0.000013   0.000035
     3  C    0.000078   0.000266  -0.000181
     4  C   -0.000127  -0.000148  -0.000003
     5  C    0.000029   0.000164   0.000000
     6  C   -0.000019  -0.000023   0.000000
     7  H    0.000002   0.000000   0.000000
     8  H    0.000000   0.000001   0.000015
     9  H    0.000010  -0.000191   0.000000
    10  H   -0.000001   0.000011   0.000000
    11  C   -0.000066  -0.000299   0.001584
    12  H    0.000000   0.000000  -0.000146
    13  H   -0.000004  -0.000007   0.000032
    14  C    0.000687   0.001849   0.009020
    15  H   -0.000005   0.000079   0.015080
    16  C    0.008786  -0.009963   0.003653
    17  O   -0.000001   0.000000   0.000000
    18  H    0.000000   0.000000   0.000000
    19  O    0.001469   0.006853  -0.000175
    20  N   -0.000184  -0.000225  -0.137625
    21  H    0.000027   0.000004   0.004218
    22  N   -0.028241  -0.041426  -0.005279
    23  H   -0.007927   0.003935  -0.002956
    24  C   -0.000053  -0.000309   0.726749
    25  C   -0.000010  -0.000006  -0.068818
    26  H    0.000000   0.000000   0.001426
    27  H    0.000010   0.000000   0.001651
    28  H    0.000000  -0.000001   0.004488
    29  C    0.393226   0.401701   0.000185
    30  H   -0.028388  -0.054789   0.000001
    31  H    0.598731  -0.025308   0.000010
    32  H   -0.025308   0.591418   0.000180
    33  O    0.000010   0.000180   7.826442
 Mulliken charges:
               1
     1  C   -0.247088
     2  C   -0.295980
     3  C    0.165937
     4  C   -0.217209
     5  C   -0.181646
     6  C    0.297670
     7  H    0.117649
     8  H    0.171883
     9  H    0.186140
    10  H    0.135825
    11  C   -0.396298
    12  H    0.191727
    13  H    0.180526
    14  C   -0.060168
    15  H    0.197315
    16  C    0.235462
    17  O   -0.290451
    18  H    0.187889
    19  O   -0.392442
    20  N   -0.251664
    21  H    0.175060
    22  N   -0.108503
    23  H    0.141286
    24  C    0.272161
    25  C   -0.318632
    26  H    0.123003
    27  H    0.119088
    28  H    0.096947
    29  C   -0.188090
    30  H    0.118743
    31  H    0.087241
    32  H    0.126206
    33  O   -0.379586
 Sum of Mulliken charges =   0.00000
 Mulliken charges with hydrogens summed into heavy atoms:
               1
     1  C   -0.129439
     2  C   -0.124097
     3  C    0.165937
     4  C   -0.031069
     5  C   -0.045821
     6  C    0.297670
    11  C   -0.024044
    14  C    0.137147
    16  C    0.235462
    17  O   -0.102562
    19  O   -0.392442
    20  N   -0.076603
    22  N    0.032782
    24  C    0.272161
    25  C    0.020406
    29  C    0.144100
    33  O   -0.379586
 Electronic spatial extent (au):  <R**2>=           4437.1804
 Charge=              0.0000 electrons
 Dipole moment (field-independent basis, Debye):
    X=              2.4912    Y=             -6.2054    Z=             -2.7142  Tot=              7.2166
 Quadrupole moment (field-independent basis, Debye-Ang):
   XX=           -111.6340   YY=            -97.9820   ZZ=            -93.5050
   XY=              7.6482   XZ=             -1.7978   YZ=             -0.3805
 Traceless Quadrupole moment (field-independent basis, Debye-Ang):
   XX=            -10.5937   YY=              3.0583   ZZ=              7.5353
   XY=              7.6482   XZ=             -1.7978   YZ=             -0.3805
 Octapole moment (field-independent basis, Debye-Ang**2):
  XXX=             41.5842  YYY=            -27.5104  ZZZ=            -16.8633  XYY=             11.7809
  XXY=            -54.4772  XXZ=            -22.2576  XZZ=             -3.7355  YZZ=             -0.1267
  YYZ=            -27.1210  XYZ=             18.7268
 Hexadecapole moment (field-independent basis, Debye-Ang**3):
 XXXX=          -4050.5188 YYYY=          -1221.2040 ZZZZ=           -723.6369 XXXY=             11.8174
 XXXZ=            -90.4075 YYYX=              6.2377 YYYZ=            -23.4490 ZZZX=            -38.9328
 ZZZY=             11.1398 XXYY=           -722.7533 XXZZ=           -709.2468 YYZZ=           -317.9936
 XXYZ=             98.8916 YYXZ=            -19.8544 ZZXY=            -18.3412
 N-N= 1.242124154630D+03 E-N=-4.354400989016D+03  KE= 7.961922833824D+02
 Calculating spin-rotation constants.
 Leave Link  601 at Wed Jun 25 07:30:00 2014, MaxMem=  4294967296 cpu:        97.3
 (Enter /home/ztw1e12/g09/l9999.exe)

 Test job not archived.
 1\1\GINC-GREEN0344\SP\RM06\Gen\C12H16N2O3\ROOT\25-Jun-2014\0\\#P Geom=
 AllCheck Guess=TCheck SCRF=Check GenChk RM06/ChkBas NMR=ReadFC IOp(3/6
 =22)\\NMR spin-spin scan\\0,1\C,0,2.733215,0.1263,0.926148\C,0,1.93065
 1,0.0579,-0.199255\C,0,1.071667,-1.014078,-0.41327\C,0,1.05408,-2.0333
 7,0.534041\C,0,1.850108,-1.981765,1.662832\C,0,2.68913,-0.895392,1.862
 331\H,0,3.403143,0.964364,1.080013\H,0,1.98497,0.855181,-0.933024\H,0,
 0.400087,-2.885206,0.385092\H,0,1.835711,-2.779588,2.394546\C,0,0.1483
 4,-1.047452,-1.594689\H,0,0.619659,-0.608444,-2.476247\H,0,-0.086394,-
 2.084875,-1.837356\C,0,-1.18982,-0.324427,-1.37014\H,0,-1.905519,-0.70
 2387,-2.105014\C,0,-1.765399,-0.716006,-0.022487\O,0,3.458066,-0.88422
 6,2.986478\H,0,4.000999,-0.087938,2.991824\O,0,-2.259628,-1.834824,0.1
 14851\N,0,-1.046346,1.100168,-1.576679\H,0,-0.122046,1.491591,-1.67692
 3\N,0,-1.667659,0.16141,0.97518\H,0,-1.207401,1.040527,0.79914\C,0,-2.
 113567,1.901534,-1.768428\C,0,-1.82074,3.336203,-2.05729\H,0,-2.22409,
 3.584461,-3.038902\H,0,-2.3386,3.955775,-1.325784\H,0,-0.758123,3.5677
 49,-2.037415\C,0,-2.059019,-0.184803,2.322279\H,0,-1.451587,-1.006356,
 2.708097\H,0,-1.925135,0.681709,2.962554\H,0,-3.105568,-0.486521,2.357
 348\O,0,-3.262344,1.470318,-1.71098\\Version=EM64L-G09RevD.01\State=1-
 A\HF=-801.8639568\RMSD=4.224e-09\Dipole=2.1814665,1.8117806,0.1413734\
 Quadrupole=-9.172701,3.9774422,5.1952587,2.3716833,-3.6702106,0.961546
 2\PG=C01 [X(C12H16N2O3)]\\@


 ACCORDING TO HEN3RY, LIFE IS MUCH LIKE A SEWER........
 YOU GET OUT OF IT JUST WHAT YOU PUT INTO IT...........
                         TOM LEHRER - (THE 3 IS SILENT)
 Job cpu time:       3 days 15 hours 49 minutes  0.3 seconds.
 File lengths (MBytes):  RWF=   3656 Int=      0 D2E=      0 Chk=     64 Scr=      8
 Normal termination of Gaussian 09 at Wed Jun 25 07:30:00 2014.
