 Entering Link 1 = C:\G16W\l1.exe PID=     65460.
  
 Copyright (c) 1988-2019, Gaussian, Inc.  All Rights Reserved.
  
 This is part of the Gaussian(R) 16 program.  It is based on
 the Gaussian(R) 09 system (copyright 2009, Gaussian, Inc.),
 the Gaussian(R) 03 system (copyright 2003, Gaussian, Inc.),
 the Gaussian(R) 98 system (copyright 1998, Gaussian, Inc.),
 the Gaussian(R) 94 system (copyright 1995, Gaussian, Inc.),
 the Gaussian 92(TM) system (copyright 1992, Gaussian, Inc.),
 the Gaussian 90(TM) system (copyright 1990, Gaussian, Inc.),
 the Gaussian 88(TM) system (copyright 1988, Gaussian, Inc.),
 the Gaussian 86(TM) system (copyright 1986, Carnegie Mellon
 University), and the Gaussian 82(TM) system (copyright 1983,
 Carnegie Mellon University). Gaussian is a federally registered
 trademark of Gaussian, Inc.
  
 This software contains proprietary and confidential information,
 including trade secrets, belonging to Gaussian, Inc.
  
 This software is provided under written license and may be
 used, copied, transmitted, or stored only in accord with that
 written license.
  
 The following legend is applicable only to US Government
 contracts under FAR:
  
                    RESTRICTED RIGHTS LEGEND
  
 Use, reproduction and disclosure by the US Government is
 subject to restrictions as set forth in subparagraphs (a)
 and (c) of the Commercial Computer Software - Restricted
 Rights clause in FAR 52.227-19.
  
 Gaussian, Inc.
 340 Quinnipiac St., Bldg. 40, Wallingford CT 06492
  
  
 ---------------------------------------------------------------
 Warning -- This program may not be used in any manner that
 competes with the business of Gaussian, Inc. or will provide
 assistance to any competitor of Gaussian, Inc.  The licensee
 of this program is prohibited from giving any competitor of
 Gaussian, Inc. access to this program.  By using this program,
 the user acknowledges that Gaussian, Inc. is engaged in the
 business of creating and licensing software in the field of
 computational chemistry and represents and warrants to the
 licensee that it is not a competitor of Gaussian, Inc. and that
 it will not use this program in any manner prohibited above.
 ---------------------------------------------------------------
  

 Cite this work as:
 Gaussian 16, Revision C.01,
 M. J. Frisch, G. W. Trucks, H. B. Schlegel, G. E. Scuseria, 
 M. A. Robb, J. R. Cheeseman, G. Scalmani, V. Barone, 
 G. A. Petersson, H. Nakatsuji, X. Li, M. Caricato, A. V. Marenich, 
 J. Bloino, B. G. Janesko, R. Gomperts, B. Mennucci, H. P. Hratchian, 
 J. V. Ortiz, A. F. Izmaylov, J. L. Sonnenberg, D. Williams-Young, 
 F. Ding, F. Lipparini, F. Egidi, J. Goings, B. Peng, A. Petrone, 
 T. Henderson, D. Ranasinghe, V. G. Zakrzewski, J. Gao, N. Rega, 
 G. Zheng, W. Liang, M. Hada, M. Ehara, K. Toyota, R. Fukuda, 
 J. Hasegawa, M. Ishida, T. Nakajima, Y. Honda, O. Kitao, H. Nakai, 
 T. Vreven, K. Throssell, J. A. Montgomery, Jr., J. E. Peralta, 
 F. Ogliaro, M. J. Bearpark, J. J. Heyd, E. N. Brothers, K. N. Kudin, 
 V. N. Staroverov, T. A. Keith, R. Kobayashi, J. Normand, 
 K. Raghavachari, A. P. Rendell, J. C. Burant, S. S. Iyengar, 
 J. Tomasi, M. Cossi, J. M. Millam, M. Klene, C. Adamo, R. Cammi, 
 J. W. Ochterski, R. L. Martin, K. Morokuma, O. Farkas, 
 J. B. Foresman, and D. J. Fox, Gaussian, Inc., Wallingford CT, 2019.
 
 ******************************************
 Gaussian 16:  EM64W-G16RevC.01 30-May-2019
                31-Oct-2024 
 ******************************************
 %nprocshared=4
 Will use up to    4 processors via shared memory.
 %mem=32GB
 %chk=E:\Project\Spinach\Southampton\Marcel Utz\Paper DFT\VINYL_CYANIDE_NMR.chk
 ----------------------------------------------------------------------
 #p nmr=(giao,mixed) m06/cc-pvtz scrf=(solvent=chloroform) geom=connect
 ivity scf=tight
 ----------------------------------------------------------------------
 1/38=1,57=2,172=1/1;
 2/12=2,17=6,18=5,40=1/2;
 3/5=16,6=1,10=1100000,11=2,25=1,30=1,70=2201,72=7,74=-54/1,2,3,8;
 4//1;
 5/5=2,32=2,38=5,53=7/2;
 8/6=1,10=90,11=11/1;
 10/13=100,45=16,47=3/2;
 6/7=2,8=2,9=2,10=2,28=1/1;
 99/9=1/99;
 Leave Link    1 at Thu Oct 31 16:45:42 2024, MaxMem=  4294967296 cpu:               0.0 elap:               0.0
 (Enter C:\G16W\l101.exe)
 -------------------
 Title Card Required
 -------------------
 Symbolic Z-matrix:
 Charge =  0 Multiplicity = 1
 C                    -1.60328  -0.35405   0.00003 
 C                    -0.58286   0.50051   0.00002 
 H                    -1.44917  -1.42383   0.00001 
 H                    -2.62212   0.00573   0.00005 
 H                    -0.74825   1.5707    0.00003 
 C                     0.7816    0.08653  -0.00001 
 N                     1.8924   -0.22151  -0.00004 
 
 ITRead=  0  0  0  0  0  0  0
 MicOpt= -1 -1 -1 -1 -1 -1 -1
 NAtoms=      7 NQM=        7 NQMF=       0 NMMI=      0 NMMIF=      0
                NMic=       0 NMicF=      0.
                    Isotopes and Nuclear Properties:
 (Nuclear quadrupole moments (NQMom) in fm**2, nuclear magnetic moments (NMagM)
  in nuclear magnetons)

  Atom         1           2           3           4           5           6           7
 IAtWgt=          12          12           1           1           1          12          14
 AtmWgt=  12.0000000  12.0000000   1.0078250   1.0078250   1.0078250  12.0000000  14.0030740
 NucSpn=           0           0           1           1           1           0           2
 AtZEff=   0.0000000   0.0000000   0.0000000   0.0000000   0.0000000   0.0000000   0.0000000
 NQMom=    0.0000000   0.0000000   0.0000000   0.0000000   0.0000000   0.0000000   2.0440000
 NMagM=    0.0000000   0.0000000   2.7928460   2.7928460   2.7928460   0.0000000   0.4037610
 AtZNuc=   6.0000000   6.0000000   1.0000000   1.0000000   1.0000000   6.0000000   7.0000000
 Leave Link  101 at Thu Oct 31 16:45:43 2024, MaxMem=  4294967296 cpu:               1.0 elap:               0.1
 (Enter C:\G16W\l202.exe)
                          Input orientation:                          
 ---------------------------------------------------------------------
 Center     Atomic      Atomic             Coordinates (Angstroms)
 Number     Number       Type             X           Y           Z
 ---------------------------------------------------------------------
      1          6           0       -1.603282   -0.354047    0.000026
      2          6           0       -0.582862    0.500509    0.000017
      3          1           0       -1.449167   -1.423825    0.000010
      4          1           0       -2.622119    0.005732    0.000049
      5          1           0       -0.748247    1.570700    0.000032
      6          6           0        0.781604    0.086534   -0.000014
      7          7           0        1.892397   -0.221512   -0.000038
 ---------------------------------------------------------------------
                    Distance matrix (angstroms):
                    1          2          3          4          5
     1  C    0.000000
     2  C    1.330986   0.000000
     3  H    1.080822   2.110343   0.000000
     4  H    1.080495   2.098422   1.849175   0.000000
     5  H    2.106119   1.082895   3.075462   2.441418   0.000000
     6  C    2.425241   1.425883   2.693979   3.404682   2.131477
     7  N    3.498191   2.578415   3.551282   4.520232   3.191399
                    6          7
     6  C    0.000000
     7  N    1.152716   0.000000
 Stoichiometry    C3H3N
 Framework group  C1[X(C3H3N)]
 Deg. of freedom    15
 Full point group                 C1      NOp   1
 Largest Abelian subgroup         C1      NOp   1
 Largest concise Abelian subgroup C1      NOp   1
                         Standard orientation:                         
 ---------------------------------------------------------------------
 Center     Atomic      Atomic             Coordinates (Angstroms)
 Number     Number       Type             X           Y           Z
 ---------------------------------------------------------------------
      1          6           0       -1.603282   -0.354047    0.000026
      2          6           0       -0.582862    0.500509    0.000017
      3          1           0       -1.449167   -1.423825    0.000010
      4          1           0       -2.622119    0.005732    0.000049
      5          1           0       -0.748247    1.570700    0.000032
      6          6           0        0.781604    0.086534   -0.000014
      7          7           0        1.892397   -0.221512   -0.000038
 ---------------------------------------------------------------------
 Rotational constants (GHZ):          51.5248304           4.9748467           4.5368071
 Leave Link  202 at Thu Oct 31 16:45:43 2024, MaxMem=  4294967296 cpu:               0.0 elap:               0.0
 (Enter C:\G16W\l301.exe)
 Standard basis: CC-pVTZ (5D, 7F)
 Converting basis for Fermi contact spin-spin IFCMod=1.
 UnConB:  Uncontracting AO basis from    182 functions to    236 functions (excluding duplicates).
 Ernie: Thresh=  0.10000D-02 Tol=  0.10000D-05 Strict=F.
 There are   259 symmetry adapted cartesian basis functions of A   symmetry.
 There are   236 symmetry adapted basis functions of A   symmetry.
   236 basis functions,   259 primitive gaussians,   259 cartesian basis functions
    14 alpha electrons       14 beta electrons
       nuclear repulsion energy        90.4148923827 Hartrees.
 IExCor= 4235 DFT=T Ex+Corr=M06 ExCW=0 ScaHFX=  0.270000
 ScaDFX=  1.000000  1.000000  1.000000  1.000000 ScalE2=  1.000000  1.000000
 IRadAn= 199590 IRanWt=     -1 IRanGd=            0 ICorTp=0 IEmpDi=  4
 NAtoms=    7 NActive=    7 NUniq=    7 SFac= 1.00D+00 NAtFMM=   60 NAOKFM=F Big=F
 Integral buffers will be    131072 words long.
 Raffenetti 2 integral format.
 Two-electron integral symmetry is turned on.
 ------------------------------------------------------------------------------
 Polarizable Continuum Model (PCM)
 =================================
 Model                : PCM.
 Atomic radii         : UFF (Universal Force Field).
 Polarization charges : Total charges.
 Charge compensation  : None.
 Solution method      : On-the-fly selection.
 Cavity type          : Scaled VdW (van der Waals Surface) (Alpha=1.100).
 Cavity algorithm     : GePol (No added spheres)
                        Default sphere list used, NSphG=    7.
                        Lebedev-Laikov grids with approx.  5.0 points / Ang**2.
                        Smoothing algorithm: York/Karplus (Gamma=1.0000).
                        Polarization charges: spherical gaussians, with
                                              point-specific exponents (IZeta= 3).
                        Self-potential: point-specific (ISelfS= 7).
                        Self-field    : sphere-specific E.n sum rule (ISelfD= 2).
 Solvent              : Chloroform, Eps=   4.711300 Eps(inf)=   2.090627
 ------------------------------------------------------------------------------
 Spheres list:
 ISph  on   Nord     Re0    Alpha      Xe            Ye            Ze
    1   C      1    1.9255  1.100     -1.603282     -0.354047      0.000026
    2   C      2    1.9255  1.100     -0.582862      0.500509      0.000017
    3   H      3    1.4430  1.100     -1.449167     -1.423825      0.000010
    4   H      4    1.4430  1.100     -2.622119      0.005732      0.000049
    5   H      5    1.4430  1.100     -0.748247      1.570700      0.000032
    6   C      6    1.9255  1.100      0.781604      0.086534     -0.000014
    7   N      7    1.8300  1.100      1.892397     -0.221512     -0.000038
 ------------------------------------------------------------------------------
 GePol: Number of generator spheres                  =       7
 GePol: Total number of spheres                      =       7
 GePol: Number of exposed spheres                    =       7 (100.00%)
 GePol: Number of points                             =     802
 GePol: Average weight of points                     =       0.14
 GePol: Minimum weight of points                     =   0.14D-07
 GePol: Maximum weight of points                     =    0.20577
 GePol: Number of points with low weight             =      34
 GePol: Fraction of low-weight points (<1% of avg)   =       4.24%
 GePol: Cavity surface area                          =    114.163 Ang**2
 GePol: Cavity volume                                =     97.862 Ang**3
 Leave Link  301 at Thu Oct 31 16:45:43 2024, MaxMem=  4294967296 cpu:               0.0 elap:               0.1
 (Enter C:\G16W\l302.exe)
 NPDir=0 NMtPBC=     1 NCelOv=     1 NCel=       1 NClECP=     1 NCelD=      1
         NCelK=      1 NCelE2=     1 NClLst=     1 CellRange=     0.0.
 One-electron integrals computed using PRISM.
 One-electron integral symmetry used in STVInt
 NBasis=   236 RedAO= T EigKep=  2.96D-04  NBF=   236
 NBsUse=   236 1.00D-06 EigRej= -1.00D+00 NBFU=   236
 Precomputing XC quadrature grid using
 IXCGrd= 4 IRadAn=      199590 IRanWt=          -1 IRanGd=           0 AccXCQ= 0.00D+00.
 Generated NRdTot=       0 NPtTot=           0 NUsed=           0 NTot=          32
 NSgBfM=   221   221   221   221   221 MxSgAt=     7 MxSgA2=     7.
 Leave Link  302 at Thu Oct 31 16:45:44 2024, MaxMem=  4294967296 cpu:               0.0 elap:               0.3
 (Enter C:\G16W\l303.exe)
 DipDrv:  MaxL=1.
 Leave Link  303 at Thu Oct 31 16:45:45 2024, MaxMem=  4294967296 cpu:               0.0 elap:               0.1
 (Enter C:\G16W\l308.exe)
 Leave Link  308 at Thu Oct 31 16:45:45 2024, MaxMem=  4294967296 cpu:               0.0 elap:               0.1
 (Enter C:\G16W\l401.exe)
 ExpMin= 1.03D-01 ExpMax= 1.03D+05 ExpMxC= 1.03D+05 IAcc=4 IRadAn=    199590 AccDes= 0.00D+00
 Harris functional with IExCor= 1009 and IRadAn=  199590 diagonalized for initial guess.
 HarFok:  IExCor= 1009 AccDes= 0.00D+00 IRadAn=    199590 IDoV= 1 UseB2=F ITyADJ=14
 ICtDFT=  3500011 ScaDFX=  1.000000  1.000000  1.000000  1.000000
 FoFCou: FMM=F IPFlag=           0 FMFlag=      100000 FMFlg1=           0
         NFxFlg=           0 DoJE=T BraDBF=F KetDBF=T FulRan=T
         wScrn=  0.000000 ICntrl=       500 IOpCl=  0 I1Cent=   200000004 NGrid=           0
         NMat0=    1 NMatS0=      1 NMatT0=    0 NMatD0=    1 NMtDS0=    0 NMtDT0=    0
 Petite list used in FoFCou.
 Harris En= -170.753167751324    
 JPrj=0 DoOrth=F DoCkMO=F.
 Leave Link  401 at Thu Oct 31 16:45:53 2024, MaxMem=  4294967296 cpu:               8.0 elap:               8.0
 (Enter C:\G16W\l502.exe)
 Keep R1 ints in memory in canonical form, NReq=399851755.
 FoFCou: FMM=F IPFlag=           0 FMFlag=           0 FMFlg1=           0
         NFxFlg=           0 DoJE=F BraDBF=F KetDBF=F FulRan=T
         wScrn=  0.000000 ICntrl=       600 IOpCl=  0 I1Cent=           0 NGrid=           0
         NMat0=    1 NMatS0=  27966 NMatT0=    0 NMatD0=    1 NMtDS0=    0 NMtDT0=    0
 Symmetry not used in FoFCou.
 Two-electron integral symmetry not used.
 Closed shell SCF:
 Using DIIS extrapolation, IDIIS=  1040.
 NGot=  4294967296 LenX=  3903766583 LenY=  3903699061
 Requested convergence on RMS density matrix=1.00D-08 within 128 cycles.
 Requested convergence on MAX density matrix=1.00D-06.
 Requested convergence on             energy=1.00D-06.
 No special actions if energy rises.

 Cycle   1  Pass 1  IDiag  1:
 Inv3:  Mode=1 IEnd=     1929612.
 Iteration    1 A*A^-1 deviation from unit magnitude is 4.44D-15 for    523.
 Iteration    1 A*A^-1 deviation from orthogonality  is 2.34D-15 for    451    318.
 Iteration    1 A^-1*A deviation from unit magnitude is 4.66D-15 for    523.
 Iteration    1 A^-1*A deviation from orthogonality  is 2.96D-15 for    527    339.
 E= -170.698650375631    
 DIIS: error= 1.32D-01 at cycle   1 NSaved=   1.
 NSaved= 1 IEnMin= 1 EnMin= -170.698650375631     IErMin= 1 ErrMin= 1.32D-01
 ErrMax= 1.32D-01  0.00D+00 EMaxC= 1.00D-01 BMatC= 3.69D+00 BMatP= 3.69D+00
 IDIUse=3 WtCom= 0.00D+00 WtEn= 1.00D+00
 Coeff-Com:  0.100D+01
 Coeff-En:   0.100D+01
 Coeff:      0.100D+01
 Gap=     0.246 Goal=   None    Shift=    0.000
 GapD=    0.246 DampG=1.000 DampE=0.250 DampFc=0.2500 IDamp=-1.
 Damping current iteration by 2.50D-01
 RMSDP=2.07D-03 MaxDP=9.64D-02              OVMax= 1.20D-01

 Cycle   2  Pass 1  IDiag  1:
 E= -170.726861217819     Delta-E=       -0.028210842188 Rises=F Damp=T
 DIIS: error= 9.80D-02 at cycle   2 NSaved=   2.
 NSaved= 2 IEnMin= 2 EnMin= -170.726861217819     IErMin= 2 ErrMin= 9.80D-02
 ErrMax= 9.80D-02  0.00D+00 EMaxC= 1.00D-01 BMatC= 2.21D+00 BMatP= 3.69D+00
 IDIUse=3 WtCom= 2.02D-02 WtEn= 9.80D-01
 Coeff-Com: -0.315D+01 0.415D+01
 Coeff-En:   0.000D+00 0.100D+01
 Coeff:     -0.637D-01 0.106D+01
 Gap=     0.247 Goal=   None    Shift=    0.000
 RMSDP=9.47D-04 MaxDP=3.82D-02 DE=-2.82D-02 OVMax= 5.34D-02

 Cycle   3  Pass 1  IDiag  1:
 E= -170.766351965873     Delta-E=       -0.039490748055 Rises=F Damp=F
 DIIS: error= 1.31D-02 at cycle   3 NSaved=   3.
 NSaved= 3 IEnMin= 3 EnMin= -170.766351965873     IErMin= 3 ErrMin= 1.31D-02
 ErrMax= 1.31D-02  0.00D+00 EMaxC= 1.00D-01 BMatC= 4.93D-02 BMatP= 2.21D+00
 IDIUse=3 WtCom= 8.69D-01 WtEn= 1.31D-01
 Coeff-Com:  0.146D+01-0.198D+01 0.153D+01
 Coeff-En:   0.136D-01 0.000D+00 0.986D+00
 Coeff:      0.127D+01-0.172D+01 0.146D+01
 Gap=     0.257 Goal=   None    Shift=    0.000
 RMSDP=6.35D-04 MaxDP=3.22D-02 DE=-3.95D-02 OVMax= 4.54D-02

 Cycle   4  Pass 1  IDiag  1:
 E= -170.768849697034     Delta-E=       -0.002497731160 Rises=F Damp=F
 DIIS: error= 1.19D-02 at cycle   4 NSaved=   4.
 NSaved= 4 IEnMin= 4 EnMin= -170.768849697034     IErMin= 4 ErrMin= 1.19D-02
 ErrMax= 1.19D-02  0.00D+00 EMaxC= 1.00D-01 BMatC= 1.32D-02 BMatP= 4.93D-02
 IDIUse=3 WtCom= 8.81D-01 WtEn= 1.19D-01
 Coeff-Com:  0.814D+00-0.111D+01 0.654D+00 0.641D+00
 Coeff-En:   0.000D+00 0.000D+00 0.424D+00 0.576D+00
 Coeff:      0.717D+00-0.977D+00 0.627D+00 0.634D+00
 Gap=     0.256 Goal=   None    Shift=    0.000
 RMSDP=4.72D-04 MaxDP=1.72D-02 DE=-2.50D-03 OVMax= 4.76D-02

 Cycle   5  Pass 1  IDiag  1:
 E= -170.775237571056     Delta-E=       -0.006387874023 Rises=F Damp=F
 DIIS: error= 9.08D-03 at cycle   5 NSaved=   5.
 NSaved= 5 IEnMin= 5 EnMin= -170.775237571056     IErMin= 5 ErrMin= 9.08D-03
 ErrMax= 9.08D-03  0.00D+00 EMaxC= 1.00D-01 BMatC= 5.33D-03 BMatP= 1.32D-02
 IDIUse=3 WtCom= 9.09D-01 WtEn= 9.08D-02
 Coeff-Com:  0.140D+00-0.200D+00 0.133D+00 0.389D+00 0.539D+00
 Coeff-En:   0.000D+00 0.000D+00 0.000D+00 0.315D+00 0.685D+00
 Coeff:      0.127D+00-0.182D+00 0.121D+00 0.382D+00 0.552D+00
 Gap=     0.254 Goal=   None    Shift=    0.000
 RMSDP=2.24D-04 MaxDP=1.08D-02 DE=-6.39D-03 OVMax= 2.53D-02

 Cycle   6  Pass 1  IDiag  1:
 E= -170.779121268465     Delta-E=       -0.003883697409 Rises=F Damp=F
 DIIS: error= 2.30D-03 at cycle   6 NSaved=   6.
 NSaved= 6 IEnMin= 6 EnMin= -170.779121268465     IErMin= 6 ErrMin= 2.30D-03
 ErrMax= 2.30D-03  0.00D+00 EMaxC= 1.00D-01 BMatC= 3.55D-04 BMatP= 5.33D-03
 IDIUse=3 WtCom= 9.77D-01 WtEn= 2.30D-02
 Coeff-Com:  0.780D-01-0.106D+00 0.274D-01 0.848D-01 0.214D+00 0.702D+00
 Coeff-En:   0.000D+00 0.000D+00 0.000D+00 0.000D+00 0.250D-01 0.975D+00
 Coeff:      0.762D-01-0.103D+00 0.267D-01 0.829D-01 0.209D+00 0.708D+00
 Gap=     0.254 Goal=   None    Shift=    0.000
 RMSDP=6.67D-05 MaxDP=3.57D-03 DE=-3.88D-03 OVMax= 8.69D-03

 Cycle   7  Pass 1  IDiag  1:
 E= -170.779354335966     Delta-E=       -0.000233067501 Rises=F Damp=F
 DIIS: error= 9.22D-04 at cycle   7 NSaved=   7.
 NSaved= 7 IEnMin= 7 EnMin= -170.779354335966     IErMin= 7 ErrMin= 9.22D-04
 ErrMax= 9.22D-04  0.00D+00 EMaxC= 1.00D-01 BMatC= 4.37D-05 BMatP= 3.55D-04
 IDIUse=3 WtCom= 9.91D-01 WtEn= 9.22D-03
 Coeff-Com:  0.536D-01-0.721D-01 0.194D-01 0.292D-01 0.795D-01 0.394D+00
 Coeff-Com:  0.496D+00
 Coeff-En:   0.000D+00 0.000D+00 0.000D+00 0.000D+00 0.000D+00 0.582D-01
 Coeff-En:   0.942D+00
 Coeff:      0.531D-01-0.715D-01 0.192D-01 0.289D-01 0.788D-01 0.391D+00
 Coeff:      0.500D+00
 Gap=     0.254 Goal=   None    Shift=    0.000
 RMSDP=1.71D-05 MaxDP=8.73D-04 DE=-2.33D-04 OVMax= 3.84D-03

 Cycle   8  Pass 1  IDiag  1:
 E= -170.779392785822     Delta-E=       -0.000038449856 Rises=F Damp=F
 DIIS: error= 2.23D-04 at cycle   8 NSaved=   8.
 NSaved= 8 IEnMin= 8 EnMin= -170.779392785822     IErMin= 8 ErrMin= 2.23D-04
 ErrMax= 2.23D-04  0.00D+00 EMaxC= 1.00D-01 BMatC= 3.44D-06 BMatP= 4.37D-05
 IDIUse=3 WtCom= 9.98D-01 WtEn= 2.23D-03
 Coeff-Com:  0.194D-01-0.261D-01 0.889D-02-0.323D-02-0.637D-02 0.846D-01
 Coeff-Com:  0.237D+00 0.686D+00
 Coeff-En:   0.000D+00 0.000D+00 0.000D+00 0.000D+00 0.000D+00 0.000D+00
 Coeff-En:   0.000D+00 0.100D+01
 Coeff:      0.193D-01-0.260D-01 0.887D-02-0.322D-02-0.635D-02 0.844D-01
 Coeff:      0.236D+00 0.687D+00
 Gap=     0.254 Goal=   None    Shift=    0.000
 RMSDP=3.63D-06 MaxDP=1.81D-04 DE=-3.84D-05 OVMax= 4.55D-04

 Cycle   9  Pass 1  IDiag  1:
 E= -170.779393997406     Delta-E=       -0.000001211584 Rises=F Damp=F
 DIIS: error= 6.96D-05 at cycle   9 NSaved=   9.
 NSaved= 9 IEnMin= 9 EnMin= -170.779393997406     IErMin= 9 ErrMin= 6.96D-05
 ErrMax= 6.96D-05  0.00D+00 EMaxC= 1.00D-01 BMatC= 2.61D-07 BMatP= 3.44D-06
 IDIUse=1 WtCom= 1.00D+00 WtEn= 0.00D+00
 Coeff-Com:  0.429D-02-0.577D-02 0.250D-02-0.297D-02-0.822D-02-0.269D-02
 Coeff-Com:  0.920D-02-0.475D-01 0.105D+01
 Coeff:      0.429D-02-0.577D-02 0.250D-02-0.297D-02-0.822D-02-0.269D-02
 Coeff:      0.920D-02-0.475D-01 0.105D+01
 Gap=     0.254 Goal=   None    Shift=    0.000
 RMSDP=1.31D-06 MaxDP=5.28D-05 DE=-1.21D-06 OVMax= 3.01D-05

 Cycle  10  Pass 1  IDiag  1:
 E= -170.779394003358     Delta-E=       -0.000000005952 Rises=F Damp=F
 DIIS: error= 1.50D-05 at cycle  10 NSaved=  10.
 NSaved=10 IEnMin=10 EnMin= -170.779394003358     IErMin=10 ErrMin= 1.50D-05
 ErrMax= 1.50D-05  0.00D+00 EMaxC= 1.00D-01 BMatC= 2.16D-08 BMatP= 2.61D-07
 IDIUse=1 WtCom= 1.00D+00 WtEn= 0.00D+00
 Coeff-Com:  0.178D-02-0.239D-02 0.101D-02-0.863D-03-0.264D-02-0.158D-02
 Coeff-Com: -0.474D-02-0.701D-01 0.359D+00 0.721D+00
 Coeff:      0.178D-02-0.239D-02 0.101D-02-0.863D-03-0.264D-02-0.158D-02
 Coeff:     -0.474D-02-0.701D-01 0.359D+00 0.721D+00
 Gap=     0.254 Goal=   None    Shift=    0.000
 RMSDP=4.22D-07 MaxDP=2.54D-05 DE=-5.95D-09 OVMax= 2.71D-05

 Cycle  11  Pass 1  IDiag  1:
 E= -170.779394012307     Delta-E=       -0.000000008949 Rises=F Damp=F
 DIIS: error= 7.14D-06 at cycle  11 NSaved=  11.
 NSaved=11 IEnMin=11 EnMin= -170.779394012307     IErMin=11 ErrMin= 7.14D-06
 ErrMax= 7.14D-06  0.00D+00 EMaxC= 1.00D-01 BMatC= 2.62D-09 BMatP= 2.16D-08
 IDIUse=1 WtCom= 1.00D+00 WtEn= 0.00D+00
 Coeff-Com:  0.317D-03-0.426D-03 0.187D-03-0.144D-03-0.428D-03-0.454D-03
 Coeff-Com: -0.284D-02-0.284D-01 0.121D-01 0.260D+00 0.760D+00
 Coeff:      0.317D-03-0.426D-03 0.187D-03-0.144D-03-0.428D-03-0.454D-03
 Coeff:     -0.284D-02-0.284D-01 0.121D-01 0.260D+00 0.760D+00
 Gap=     0.254 Goal=   None    Shift=    0.000
 RMSDP=1.18D-07 MaxDP=4.96D-06 DE=-8.95D-09 OVMax= 3.77D-06

 Cycle  12  Pass 1  IDiag  1:
 E= -170.779394012565     Delta-E=       -0.000000000258 Rises=F Damp=F
 DIIS: error= 1.09D-06 at cycle  12 NSaved=  12.
 NSaved=12 IEnMin=12 EnMin= -170.779394012565     IErMin=12 ErrMin= 1.09D-06
 ErrMax= 1.09D-06  0.00D+00 EMaxC= 1.00D-01 BMatC= 7.76D-11 BMatP= 2.62D-09
 IDIUse=1 WtCom= 1.00D+00 WtEn= 0.00D+00
 Coeff-Com:  0.599D-04-0.808D-04 0.288D-04 0.634D-05 0.209D-04 0.231D-03
 Coeff-Com:  0.589D-04-0.307D-02-0.196D-01 0.300D-01 0.135D+00 0.857D+00
 Coeff:      0.599D-04-0.808D-04 0.288D-04 0.634D-05 0.209D-04 0.231D-03
 Coeff:      0.589D-04-0.307D-02-0.196D-01 0.300D-01 0.135D+00 0.857D+00
 Gap=     0.254 Goal=   None    Shift=    0.000
 RMSDP=2.10D-08 MaxDP=1.03D-06 DE=-2.58D-10 OVMax= 7.30D-07

 Cycle  13  Pass 1  IDiag  1:
 E= -170.779394012574     Delta-E=       -0.000000000009 Rises=F Damp=F
 DIIS: error= 2.25D-07 at cycle  13 NSaved=  13.
 NSaved=13 IEnMin=13 EnMin= -170.779394012574     IErMin=13 ErrMin= 2.25D-07
 ErrMax= 2.25D-07  0.00D+00 EMaxC= 1.00D-01 BMatC= 2.73D-12 BMatP= 7.76D-11
 IDIUse=1 WtCom= 1.00D+00 WtEn= 0.00D+00
 Coeff-Com:  0.914D-06-0.127D-05-0.254D-06 0.389D-05 0.103D-04 0.380D-04
 Coeff-Com:  0.902D-04 0.234D-03-0.330D-02-0.383D-02-0.179D-01 0.106D+00
 Coeff-Com:  0.918D+00
 Coeff:      0.914D-06-0.127D-05-0.254D-06 0.389D-05 0.103D-04 0.380D-04
 Coeff:      0.902D-04 0.234D-03-0.330D-02-0.383D-02-0.179D-01 0.106D+00
 Coeff:      0.918D+00
 Gap=     0.254 Goal=   None    Shift=    0.000
 RMSDP=3.98D-09 MaxDP=1.69D-07 DE=-8.75D-12 OVMax= 1.44D-07

 Error on total polarization charges =  0.00670
 SCF Done:  E(RM06) =  -170.779394013     A.U. after   13 cycles
            NFock= 13  Conv=0.40D-08     -V/T= 2.0045
 KE= 1.700069827737D+02 PE=-5.780610994152D+02 EE= 1.468598302463D+02
 Leave Link  502 at Thu Oct 31 16:50:47 2024, MaxMem=  4294967296 cpu:             293.0 elap:             293.0
 (Enter C:\G16W\l801.exe)
 DoSCS=F DFT=T ScalE2(SS,OS)=  1.000000  1.000000
 Range of M.O.s used for correlation:     1   236
 NBasis=   236 NAE=    14 NBE=    14 NFC=     0 NFV=     0
 NROrb=    236 NOA=    14 NOB=    14 NVA=   222 NVB=   222

 **** Warning!!: The largest alpha MO coefficient is  0.16533004D+02

 Leave Link  801 at Thu Oct 31 16:50:48 2024, MaxMem=  4294967296 cpu:               0.0 elap:               0.0
 (Enter C:\G16W\l1002.exe)
 Minotr:  Closed shell wavefunction.
          IDoAtm=1111111
 NEqPCM:  Using equilibrium solvation (IEInf=0, Eps=   4.7113, EpsInf=   2.0906)
          Direct CPHF calculation.
          Differentiating once with respect to Fermi-contact.
          Electric field/nuclear overlap derivatives assumed to be zero.
          Requested convergence is 1.0D-10 RMS, and 1.0D-09 maximum.
          Secondary convergence is 1.0D-12 RMS, and 1.0D-12 maximum.
          NewPWx=T KeepS1=F KeepF1=F KeepIn=T MapXYZ=F SortEE=F KeepMc=T.
 Keep R1, R2, and R3 ints in memory in canonical form, NReq=1181978407.
 FoFCou: FMM=F IPFlag=           0 FMFlag=           0 FMFlg1=           0
         NFxFlg=           0 DoJE=F BraDBF=F KetDBF=F FulRan=T
         wScrn=  0.000000 ICntrl=       600 IOpCl=  0 I1Cent=           0 NGrid=           0
         NMat0=    1 NMatS0=  27966 NMatT0=    0 NMatD0=    1 NMtDS0=    0 NMtDT0=    0
 Symmetry not used in FoFCou.
 Two-electron integral symmetry not used.
          MDV=    4294967296 using IRadAn=  199590.
          Solving linear equations simultaneously, MaxMat=       0.
          There are     7 degrees of freedom in the 1st order CPHF.  IDoFFX=0 NUNeed=     7.
      7 vectors produced by pass  0 Test12= 4.44D-18 1.43D-10 XBig12= 3.02D+01 2.22D+00.
 AX will form     7 AO Fock derivatives at one time.
      7 vectors produced by pass  1 Test12= 4.44D-18 1.43D-10 XBig12= 2.93D-01 1.94D-01.
      7 vectors produced by pass  2 Test12= 4.44D-18 1.43D-10 XBig12= 1.28D-02 6.41D-02.
      7 vectors produced by pass  3 Test12= 4.44D-18 1.43D-10 XBig12= 4.30D-04 8.42D-03.
      7 vectors produced by pass  4 Test12= 4.44D-18 1.43D-10 XBig12= 7.76D-06 9.48D-04.
      7 vectors produced by pass  5 Test12= 4.44D-18 1.43D-10 XBig12= 1.71D-07 1.21D-04.
      7 vectors produced by pass  6 Test12= 4.44D-18 1.43D-10 XBig12= 4.97D-09 1.81D-05.
      7 vectors produced by pass  7 Test12= 4.44D-18 1.43D-10 XBig12= 1.20D-10 2.42D-06.
      7 vectors produced by pass  8 Test12= 4.44D-18 1.43D-10 XBig12= 4.35D-12 4.12D-07.
      7 vectors produced by pass  9 Test12= 4.44D-18 1.43D-10 XBig12= 1.08D-13 7.38D-08.
      7 vectors produced by pass 10 Test12= 4.44D-18 1.43D-10 XBig12= 1.13D-15 5.15D-09.
      4 vectors produced by pass 11 Test12= 4.44D-18 1.43D-10 XBig12= 7.72D-18 4.56D-10.
 InvSVY:  IOpt=1 It=  1 EMax= 2.66D-15
 Solved reduced A of dimension    81 with     7 vectors.
 Max diff in FC couplings:  IJMax=     2     1 Diff= 2.21D-03 IJMaxR=     4     2 DiffR= 1.09D-03
 Fermi Contact (FC) contribution to K (Hz):
                1             2             3             4             5 
      1  0.123400D+11
      2  0.417660D+02  0.123400D+11
      3  0.243577D+02 -0.777582D+00  0.123400D+11
      4  0.247998D+02 -0.296699D+00 -0.334769D+00  0.123400D+11
      5 -0.881588D+00  0.249778D+02  0.637171D+00  0.537445D+00  0.123400D+11
      6 -0.151362D+01  0.428090D+02  0.143242D+01  0.220501D+01 -0.160222D+00
      7  0.276497D+01 -0.444052D+01 -0.268505D+00 -0.156709D+00  0.834078D+00
                6             7 
      6  0.123400D+11
      7  0.197345D+02  0.123400D+11
 Fermi Contact (FC) contribution to J (Hz):
                1             2             3             4             5 
      1  0.243533D+11
      2  0.824263D+02  0.243533D+11
      3  0.191133D+03 -0.610161D+01  0.385007D+12
      4  0.194602D+03 -0.232816D+01 -0.104448D+02  0.385007D+12
      5 -0.691774D+01  0.195998D+03  0.198797D+02  0.167683D+02  0.385007D+12
      6 -0.298716D+01  0.844846D+02  0.112401D+02  0.173025D+02 -0.125724D+01
      7  0.156833D+01 -0.251872D+01 -0.605555D+00 -0.353423D+00  0.188108D+01
                6             7 
      6  0.243533D+11
      7  0.111937D+02  0.201170D+10
 End of Minotr F.D. properties file   721 does not exist.
 End of Minotr F.D. properties file   722 does not exist.
 End of Minotr F.D. properties file   788 does not exist.
 Leave Link 1002 at Thu Oct 31 18:01:42 2024, MaxMem=  4294967296 cpu:            4254.0 elap:            4253.5
 (Enter C:\G16W\l601.exe)
 Copying SCF densities to generalized density rwf, IOpCl= 0 IROHF=0.

 **********************************************************************

            Population analysis using the SCF Density.

 **********************************************************************

 Orbital symmetries:
       Occupied  (A) (A) (A) (A) (A) (A) (A) (A) (A) (A) (A) (A)
                 (A) (A)
       Virtual   (A) (A) (A) (A) (A) (A) (A) (A) (A) (A) (A) (A)
                 (A) (A) (A) (A) (A) (A) (A) (A) (A) (A) (A) (A)
                 (A) (A) (A) (A) (A) (A) (A) (A) (A) (A) (A) (A)
                 (A) (A) (A) (A) (A) (A) (A) (A) (A) (A) (A) (A)
                 (A) (A) (A) (A) (A) (A) (A) (A) (A) (A) (A) (A)
                 (A) (A) (A) (A) (A) (A) (A) (A) (A) (A) (A) (A)
                 (A) (A) (A) (A) (A) (A) (A) (A) (A) (A) (A) (A)
                 (A) (A) (A) (A) (A) (A) (A) (A) (A) (A) (A) (A)
                 (A) (A) (A) (A) (A) (A) (A) (A) (A) (A) (A) (A)
                 (A) (A) (A) (A) (A) (A) (A) (A) (A) (A) (A) (A)
                 (A) (A) (A) (A) (A) (A) (A) (A) (A) (A) (A) (A)
                 (A) (A) (A) (A) (A) (A) (A) (A) (A) (A) (A) (A)
                 (A) (A) (A) (A) (A) (A) (A) (A) (A) (A) (A) (A)
                 (A) (A) (A) (A) (A) (A) (A) (A) (A) (A) (A) (A)
                 (A) (A) (A) (A) (A) (A) (A) (A) (A) (A) (A) (A)
                 (A) (A) (A) (A) (A) (A) (A) (A) (A) (A) (A) (A)
                 (A) (A) (A) (A) (A) (A) (A) (A) (A) (A) (A) (A)
                 (A) (A) (A) (A) (A) (A) (A) (A) (A) (A) (A) (A)
                 (A) (A) (A) (A) (A) (A)
 The electronic state is 1-A.
 Alpha  occ. eigenvalues --  -14.39791 -10.28935 -10.28883 -10.27633  -0.92644
 Alpha  occ. eigenvalues --   -0.82579  -0.66627  -0.54581  -0.48867  -0.42171
 Alpha  occ. eigenvalues --   -0.40255  -0.38553  -0.36260  -0.30700
 Alpha virt. eigenvalues --   -0.05269   0.01906   0.06599   0.06708   0.08613
 Alpha virt. eigenvalues --    0.10619   0.15612   0.20023   0.23196   0.27874
 Alpha virt. eigenvalues --    0.28947   0.32090   0.32741   0.34296   0.37035
 Alpha virt. eigenvalues --    0.37836   0.38187   0.42032   0.44135   0.46024
 Alpha virt. eigenvalues --    0.47454   0.50125   0.54280   0.57368   0.58162
 Alpha virt. eigenvalues --    0.59656   0.59912   0.63980   0.71207   0.74209
 Alpha virt. eigenvalues --    0.77196   0.78373   0.85055   0.86977   0.93818
 Alpha virt. eigenvalues --    0.95021   0.98364   0.99165   1.07242   1.08574
 Alpha virt. eigenvalues --    1.08791   1.13873   1.16706   1.17940   1.22450
 Alpha virt. eigenvalues --    1.26825   1.27911   1.32530   1.33508   1.35227
 Alpha virt. eigenvalues --    1.39655   1.42351   1.50811   1.60061   1.65858
 Alpha virt. eigenvalues --    1.67135   1.72708   1.81879   1.85068   1.91792
 Alpha virt. eigenvalues --    1.92821   2.02272   2.08652   2.12613   2.15940
 Alpha virt. eigenvalues --    2.23114   2.30598   2.40863   2.48619   2.51225
 Alpha virt. eigenvalues --    2.53162   2.57131   2.59617   2.60864   2.65213
 Alpha virt. eigenvalues --    2.65422   2.70260   2.73840   2.74389   2.77142
 Alpha virt. eigenvalues --    2.78171   2.81469   2.84825   2.86671   2.91765
 Alpha virt. eigenvalues --    2.92568   2.93656   2.95755   3.03157   3.05378
 Alpha virt. eigenvalues --    3.05718   3.09647   3.13553   3.16961   3.17190
 Alpha virt. eigenvalues --    3.23685   3.27717   3.28390   3.32229   3.36578
 Alpha virt. eigenvalues --    3.36936   3.49754   3.54196   3.59031   3.62834
 Alpha virt. eigenvalues --    3.64652   3.75244   3.76661   3.79394   3.84273
 Alpha virt. eigenvalues --    3.84468   3.92451   3.95670   3.96506   3.97313
 Alpha virt. eigenvalues --    3.98063   4.04907   4.08984   4.18670   4.21526
 Alpha virt. eigenvalues --    4.28913   4.35971   4.41413   4.45578   4.55058
 Alpha virt. eigenvalues --    4.56374   4.58485   4.60069   4.62126   4.64483
 Alpha virt. eigenvalues --    4.80765   4.82871   4.90149   4.91644   5.00601
 Alpha virt. eigenvalues --    5.03770   5.08866   5.12620   5.19934   5.24013
 Alpha virt. eigenvalues --    5.57149   5.68262   5.81752   5.92134   5.95407
 Alpha virt. eigenvalues --    6.07357   6.31729   6.45044   7.98704   8.06602
 Alpha virt. eigenvalues --    8.17040   8.24074   8.70465   8.74731   8.93277
 Alpha virt. eigenvalues --    9.38372   9.52312   9.75748   9.96307  10.13570
 Alpha virt. eigenvalues --   11.74036  11.75957  11.85501  12.04546  12.51398
 Alpha virt. eigenvalues --   12.79530  16.62807  40.11102  40.16576  40.23011
 Alpha virt. eigenvalues --   40.25052  40.66495  40.78311  40.82531  40.96626
 Alpha virt. eigenvalues --   41.07972  46.14731  46.52794  46.89941  55.35171
 Alpha virt. eigenvalues --   55.44702  55.57819  57.48513  57.54567  57.99493
 Alpha virt. eigenvalues --   64.48707 165.28769 165.60368 165.93097 230.36059
 Alpha virt. eigenvalues --  233.67569 233.80342 234.05218 624.41637 624.72912
 Alpha virt. eigenvalues --  625.05274 820.36581 820.50601 820.82782 868.47453
 Alpha virt. eigenvalues -- 2571.564112572.568122574.634092740.226962740.53726
 Alpha virt. eigenvalues -- 2740.884723787.822848578.980458579.206128579.80540
 Alpha virt. eigenvalues -- **************************************************
 Alpha virt. eigenvalues -- **************************************************
 Alpha virt. eigenvalues -- ********************
          Condensed to atoms (all electrons):
               1          2          3          4          5          6
     1  C    4.644875   0.631190   0.422151   0.426805  -0.020740  -0.053117
     2  C    0.631190   4.908816  -0.025039  -0.028619   0.434230   0.275254
     3  H    0.422151  -0.025039   0.527695  -0.020257   0.005570  -0.006432
     4  H    0.426805  -0.028619  -0.020257   0.520147  -0.007303   0.004339
     5  H   -0.020740   0.434230   0.005570  -0.007303   0.504175  -0.033138
     6  C   -0.053117   0.275254  -0.006432   0.004339  -0.033138   4.552815
     7  N    0.001326  -0.069060   0.001122  -0.000214   0.000299   1.034951
               7
     1  C    0.001326
     2  C   -0.069060
     3  H    0.001122
     4  H   -0.000214
     5  H    0.000299
     6  C    1.034951
     7  N    6.394839
 Mulliken charges:
               1
     1  C   -0.052491
     2  C   -0.126773
     3  H    0.095190
     4  H    0.105101
     5  H    0.116907
     6  C    0.225330
     7  N   -0.363264
 Sum of Mulliken charges =   0.00000
 Mulliken charges with hydrogens summed into heavy atoms:
               1
     1  C    0.147800
     2  C   -0.009866
     6  C    0.225330
     7  N   -0.363264
 Electronic spatial extent (au):  <R**2>=            278.5117
 Charge=              0.0000 electrons
 Dipole moment (field-independent basis, Debye):
    X=             -4.6777    Y=              0.8099    Z=              0.0001  Tot=              4.7473
 Quadrupole moment (field-independent basis, Debye-Ang):
   XX=            -27.4131   YY=            -20.7988   ZZ=            -24.4258
   XY=              1.4643   XZ=              0.0001   YZ=              0.0000
 Traceless Quadrupole moment (field-independent basis, Debye-Ang):
   XX=             -3.2006   YY=              3.4138   ZZ=             -0.2132
   XY=              1.4643   XZ=              0.0001   YZ=              0.0000
 Octapole moment (field-independent basis, Debye-Ang**2):
  XXX=            -28.5658  YYY=              1.3712  ZZZ=              0.0000  XYY=             -3.4980
  XXY=              2.1465  XXZ=              0.0006  XZZ=              0.7733  YZZ=              0.0064
  YYZ=              0.0001  XYZ=             -0.0001
 Hexadecapole moment (field-independent basis, Debye-Ang**3):
 XXXX=           -313.0025 YYYY=            -46.1728 ZZZZ=            -25.5366 XXXY=              5.6924
 XXXZ=              0.0028 YYYX=              1.1756 YYYZ=             -0.0001 ZZZX=              0.0027
 ZZZY=             -0.0002 XXYY=            -57.7371 XXZZ=            -56.5257 YYZZ=            -13.7194
 XXYZ=             -0.0001 YYXZ=              0.0008 ZZXY=              0.3577
 N-N= 9.041489238266D+01 E-N=-5.780611003158D+02  KE= 1.700069827737D+02
 No NMR shielding tensors so no spin-rotation constants.
 Leave Link  601 at Thu Oct 31 18:01:44 2024, MaxMem=  4294967296 cpu:               0.0 elap:               0.2
 (Enter C:\G16W\l9999.exe)
 Unable to Open any file for archive entry.
 1|1|UNPC-ALAUNDO|SP|RM06|Gen|C3H3N1|AACHARYA|31-Oct-2024|0||#p nmr=(gi
 ao,mixed) m06/cc-pvtz scrf=(solvent=chloroform) geom=connectivity scf=
 tight||Title Card Required||0,1|C,0,-1.603282,-0.354047,0.000026|C,0,-
 0.582862,0.500509,0.000017|H,0,-1.449167,-1.423825,0.00001|H,0,-2.6221
 19,0.005732,0.000049|H,0,-0.748247,1.5707,0.000032|C,0,0.781604,0.0865
 34,-0.000014|N,0,1.892397,-0.221512,-0.000038||Version=EM64W-G16RevC.0
 1|State=1-A|HF=-170.779394|RMSD=3.980e-009|Dipole=-1.8403664,0.3186489
 ,0.0000376|Quadrupole=-2.3795309,2.5380613,-0.1585304,1.0886981,0.0000
 552,0.000011|PG=C01 [X(C3H3N1)]||@
 The archive entry for this job was punched.


    UPON JULIA'S CLOTHES

 WHENAS IN SILKS MY JULIA GOES,
 THEN, THEN, METHINKS, HOW SWEETLY FLOWS
 THAT LIQUEFACTION OF HER CLOTHES.

 NEXT, WHEN I CAST MINE EYES, AND SEE
 THAT BRAVE VIBRATION, EACH WAY FREE,
 O, HOW THAT GLITTERING TAKETH ME!
     -- ROBERT HERRICK, 1648
 Leave Link 9999 at Thu Oct 31 18:01:45 2024, MaxMem=  4294967296 cpu:               0.0 elap:               0.0
 Job cpu time:       0 days  1 hours 16 minutes  3.0 seconds.
 Elapsed time:       0 days  1 hours 15 minutes 56.4 seconds.
 File lengths (MBytes):  RWF=     39 Int=      0 D2E=      0 Chk=      5 Scr=      1
 Normal termination of Gaussian 16 at Thu Oct 31 18:01:45 2024.
 (Enter C:\G16W\l1.exe)
 Link1:  Proceeding to internal job step number  2.
 ----------------------------------------------------------------------
 #P Geom=AllCheck Guess=TCheck SCRF=Check GenChk RM06/ChkBas NMR=ReadFC
  IOp(3/6=22)
 ----------------------------------------------------------------------
 1/29=7,38=1,40=1,172=1/1;
 2/12=2,40=1/2;
 3/5=7,6=22,11=2,14=-4,25=1,30=1,67=1,70=2,74=-54,82=7,116=1/1,2,3,8;
 4/5=101/1;
 5/5=2,32=2,38=6/2;
 8/6=1,10=90,11=11/1;
 10/13=100,45=16,47=4/2;
 6/7=2,8=2,9=2,10=2,28=1/1;
 99/9=1/99;
 Leave Link    1 at Thu Oct 31 18:01:46 2024, MaxMem=  4294967296 cpu:               0.0 elap:               0.0
 (Enter C:\G16W\l101.exe)
 Structure from the checkpoint file:  "E:\Project\Spinach\Southampton\Marcel Utz\Paper DFT\VINYL_CYANIDE_NMR.chk"
 -------------------
 Title Card Required
 -------------------
 Charge =  0 Multiplicity = 1
 Z-Matrix found in chk file.
 C,0,-1.603282,-0.354047,0.000026
 C,0,-0.582862,0.500509,0.000017
 H,0,-1.449167,-1.423825,0.00001
 H,0,-2.622119,0.005732,0.000049
 H,0,-0.748247,1.5707,0.000032
 C,0,0.781604,0.086534,-0.000014
 N,0,1.892397,-0.221512,-0.000038
 Recover connectivity data from disk.
 ITRead=  0  0  0  0  0  0  0
 MicOpt= -1 -1 -1 -1 -1 -1 -1
 NAtoms=      7 NQM=        7 NQMF=       0 NMMI=      0 NMMIF=      0
                NMic=       0 NMicF=      0.
                    Isotopes and Nuclear Properties:
 (Nuclear quadrupole moments (NQMom) in fm**2, nuclear magnetic moments (NMagM)
  in nuclear magnetons)

  Atom         1           2           3           4           5           6           7
 IAtWgt=          12          12           1           1           1          12          14
 AtmWgt=  12.0000000  12.0000000   1.0078250   1.0078250   1.0078250  12.0000000  14.0030740
 NucSpn=           0           0           1           1           1           0           2
 AtZEff=   3.6000000   3.6000000   1.0000000   1.0000000   1.0000000   3.6000000   4.5500000
 NQMom=    0.0000000   0.0000000   0.0000000   0.0000000   0.0000000   0.0000000   2.0440000
 NMagM=    0.0000000   0.0000000   2.7928460   2.7928460   2.7928460   0.0000000   0.4037610
 AtZNuc=   6.0000000   6.0000000   1.0000000   1.0000000   1.0000000   6.0000000   7.0000000
 Leave Link  101 at Thu Oct 31 18:01:46 2024, MaxMem=  4294967296 cpu:               0.0 elap:               0.1
 (Enter C:\G16W\l202.exe)
                          Input orientation:                          
 ---------------------------------------------------------------------
 Center     Atomic      Atomic             Coordinates (Angstroms)
 Number     Number       Type             X           Y           Z
 ---------------------------------------------------------------------
      1          6           0       -1.603282   -0.354047    0.000026
      2          6           0       -0.582862    0.500509    0.000017
      3          1           0       -1.449167   -1.423825    0.000010
      4          1           0       -2.622119    0.005732    0.000049
      5          1           0       -0.748247    1.570700    0.000032
      6          6           0        0.781604    0.086534   -0.000014
      7          7           0        1.892397   -0.221512   -0.000038
 ---------------------------------------------------------------------
                    Distance matrix (angstroms):
                    1          2          3          4          5
     1  C    0.000000
     2  C    1.330986   0.000000
     3  H    1.080822   2.110343   0.000000
     4  H    1.080495   2.098422   1.849175   0.000000
     5  H    2.106119   1.082895   3.075462   2.441418   0.000000
     6  C    2.425241   1.425883   2.693979   3.404682   2.131477
     7  N    3.498191   2.578415   3.551282   4.520232   3.191399
                    6          7
     6  C    0.000000
     7  N    1.152716   0.000000
 Stoichiometry    C3H3N
 Framework group  C1[X(C3H3N)]
 Deg. of freedom    15
 Full point group                 C1      NOp   1
 RotChk:  IX=0 Diff= 2.36D-16
 Largest Abelian subgroup         C1      NOp   1
 Largest concise Abelian subgroup C1      NOp   1
                         Standard orientation:                         
 ---------------------------------------------------------------------
 Center     Atomic      Atomic             Coordinates (Angstroms)
 Number     Number       Type             X           Y           Z
 ---------------------------------------------------------------------
      1          6           0       -1.603282   -0.354047    0.000026
      2          6           0       -0.582862    0.500509    0.000017
      3          1           0       -1.449167   -1.423825    0.000010
      4          1           0       -2.622119    0.005732    0.000049
      5          1           0       -0.748247    1.570700    0.000032
      6          6           0        0.781604    0.086534   -0.000014
      7          7           0        1.892397   -0.221512   -0.000038
 ---------------------------------------------------------------------
 Rotational constants (GHZ):          51.5248304           4.9748467           4.5368071
 Leave Link  202 at Thu Oct 31 18:01:47 2024, MaxMem=  4294967296 cpu:               0.0 elap:               0.0
 (Enter C:\G16W\l301.exe)
 Basis read from chk: "E:\Project\Spinach\Southampton\Marcel Utz\Paper DFT\VINYL_
 CYANIDE_NMR.chk" (5D, 7F)
 No pseudopotential information found on chk file.
 There are   185 symmetry adapted cartesian basis functions of A   symmetry.
 There are   162 symmetry adapted basis functions of A   symmetry.
   162 basis functions,   271 primitive gaussians,   185 cartesian basis functions
    14 alpha electrons       14 beta electrons
       nuclear repulsion energy        90.4148923827 Hartrees.
 IExCor= 4235 DFT=T Ex+Corr=M06 ExCW=0 ScaHFX=  0.270000
 ScaDFX=  1.000000  1.000000  1.000000  1.000000 ScalE2=  1.000000  1.000000
 IRadAn=      5 IRanWt=     -1 IRanGd=            0 ICorTp=0 IEmpDi=  4
 NAtoms=    7 NActive=    7 NUniq=    7 SFac= 1.00D+00 NAtFMM=   60 NAOKFM=F Big=F
 Integral buffers will be    131072 words long.
 Raffenetti 2 integral format.
 Two-electron integral symmetry is turned on.
 No density basis found on file  20724.
 ------------------------------------------------------------------------------
 Polarizable Continuum Model (PCM)
 =================================
 Model                : PCM.
 Atomic radii         : UFF (Universal Force Field).
 Polarization charges : Total charges.
 Charge compensation  : None.
 Solution method      : On-the-fly selection.
 Cavity type          : Scaled VdW (van der Waals Surface) (Alpha=1.100).
 Cavity algorithm     : GePol (No added spheres)
                        Default sphere list used, NSphG=    7.
                        Lebedev-Laikov grids with approx.  5.0 points / Ang**2.
                        Smoothing algorithm: York/Karplus (Gamma=1.0000).
                        Polarization charges: spherical gaussians, with
                                              point-specific exponents (IZeta= 3).
                        Self-potential: point-specific (ISelfS= 7).
                        Self-field    : sphere-specific E.n sum rule (ISelfD= 2).
 Solvent              : Chloroform, Eps=   4.711300 Eps(inf)=   2.090627
 ------------------------------------------------------------------------------
 Spheres list:
 ISph  on   Nord     Re0    Alpha      Xe            Ye            Ze
    1   C      1    1.9255  1.100     -1.603282     -0.354047      0.000026
    2   C      2    1.9255  1.100     -0.582862      0.500509      0.000017
    3   H      3    1.4430  1.100     -1.449167     -1.423825      0.000010
    4   H      4    1.4430  1.100     -2.622119      0.005732      0.000049
    5   H      5    1.4430  1.100     -0.748247      1.570700      0.000032
    6   C      6    1.9255  1.100      0.781604      0.086534     -0.000014
    7   N      7    1.8300  1.100      1.892397     -0.221512     -0.000038
 ------------------------------------------------------------------------------
 GePol: Number of generator spheres                  =       7
 GePol: Total number of spheres                      =       7
 GePol: Number of exposed spheres                    =       7 (100.00%)
 GePol: Number of points                             =     802
 GePol: Average weight of points                     =       0.14
 GePol: Minimum weight of points                     =   0.14D-07
 GePol: Maximum weight of points                     =    0.20577
 GePol: Number of points with low weight             =      34
 GePol: Fraction of low-weight points (<1% of avg)   =       4.24%
 GePol: Cavity surface area                          =    114.163 Ang**2
 GePol: Cavity volume                                =     97.862 Ang**3
 Leave Link  301 at Thu Oct 31 18:01:47 2024, MaxMem=  4294967296 cpu:               0.0 elap:               0.1
 (Enter C:\G16W\l302.exe)
 NPDir=0 NMtPBC=     1 NCelOv=     1 NCel=       1 NClECP=     1 NCelD=      1
         NCelK=      1 NCelE2=     1 NClLst=     1 CellRange=     0.0.
 One-electron integrals computed using PRISM.
 One-electron integral symmetry used in STVInt
 NBasis=   162 RedAO= T EigKep=  4.10D-04  NBF=   162
 NBsUse=   162 1.00D-06 EigRej= -1.00D+00 NBFU=   162
 Precomputing XC quadrature grid using
 IXCGrd= 4 IRadAn=           5 IRanWt=          -1 IRanGd=           0 AccXCQ= 0.00D+00.
 Generated NRdTot=       0 NPtTot=           0 NUsed=           0 NTot=          32
 NSgBfM=   185   185   185   185   185 MxSgAt=     7 MxSgA2=     7.
 Leave Link  302 at Thu Oct 31 18:01:48 2024, MaxMem=  4294967296 cpu:               1.0 elap:               0.2
 (Enter C:\G16W\l303.exe)
 DipDrv:  MaxL=1.
 Leave Link  303 at Thu Oct 31 18:01:48 2024, MaxMem=  4294967296 cpu:               0.0 elap:               0.0
 (Enter C:\G16W\l308.exe)
 Leave Link  308 at Thu Oct 31 18:01:49 2024, MaxMem=  4294967296 cpu:               1.0 elap:               0.0
 (Enter C:\G16W\l401.exe)
 Initial guess from the checkpoint file:  "E:\Project\Spinach\Southampton\Marcel Utz\Paper DFT\VINYL_CYANIDE_NMR.chk"
 B after Tr=     0.000000    0.000000    0.000000
         Rot=    1.000000    0.000000    0.000000    0.000000 Ang=   0.00 deg.
 Guess basis will be translated and rotated to current coordinates.
 JPrj=2 DoOrth=T DoCkMO=T.
 Leave Link  401 at Thu Oct 31 18:01:49 2024, MaxMem=  4294967296 cpu:               0.0 elap:               0.2
 (Enter C:\G16W\l502.exe)
 Keep R1 ints in memory in canonical form, NReq=91224942.
 FoFCou: FMM=F IPFlag=           0 FMFlag=           0 FMFlg1=           0
         NFxFlg=           0 DoJE=F BraDBF=F KetDBF=F FulRan=T
         wScrn=  0.000000 ICntrl=       600 IOpCl=  0 I1Cent=           0 NGrid=           0
         NMat0=    1 NMatS0=  13203 NMatT0=    0 NMatD0=    1 NMtDS0=    0 NMtDT0=    0
 Symmetry not used in FoFCou.
 Two-electron integral symmetry not used.
 Closed shell SCF:
 Using DIIS extrapolation, IDIIS=  1040.
 NGot=  4294967296 LenX=  4207729670 LenY=  4207695004
 Requested convergence on RMS density matrix=1.00D-08 within 128 cycles.
 Requested convergence on MAX density matrix=1.00D-06.
 Requested convergence on             energy=1.00D-06.
 No special actions if energy rises.

 Cycle   1  Pass 1  IDiag  1:
 Inv3:  Mode=1 IEnd=     1929612.
 Iteration    1 A*A^-1 deviation from unit magnitude is 5.00D-15 for     80.
 Iteration    1 A*A^-1 deviation from orthogonality  is 2.13D-15 for    451    318.
 Iteration    1 A^-1*A deviation from unit magnitude is 5.44D-15 for     80.
 Iteration    1 A^-1*A deviation from orthogonality  is 3.16D-15 for    527    339.
 E= -170.765379479301    
 DIIS: error= 9.27D-03 at cycle   1 NSaved=   1.
 NSaved= 1 IEnMin= 1 EnMin= -170.765379479301     IErMin= 1 ErrMin= 9.27D-03
 ErrMax= 9.27D-03  0.00D+00 EMaxC= 1.00D-01 BMatC= 1.27D-02 BMatP= 1.27D-02
 IDIUse=3 WtCom= 9.07D-01 WtEn= 9.27D-02
 Coeff-Com:  0.100D+01
 Coeff-En:   0.100D+01
 Coeff:      0.100D+01
 Gap=     0.254 Goal=   None    Shift=    0.000
 GapD=    0.254 DampG=1.000 DampE=1.000 DampFc=1.0000 IDamp=-1.
 RMSDP=1.16D-03 MaxDP=3.10D-02              OVMax= 4.74D-03

 Cycle   2  Pass 1  IDiag  1:
 E= -170.766846981623     Delta-E=       -0.001467502322 Rises=F Damp=F
 DIIS: error= 3.39D-04 at cycle   2 NSaved=   2.
 NSaved= 2 IEnMin= 2 EnMin= -170.766846981623     IErMin= 2 ErrMin= 3.39D-04
 ErrMax= 3.39D-04  0.00D+00 EMaxC= 1.00D-01 BMatC= 2.70D-05 BMatP= 1.27D-02
 IDIUse=3 WtCom= 9.97D-01 WtEn= 3.39D-03
 Coeff-Com:  0.259D-01 0.974D+00
 Coeff-En:   0.000D+00 0.100D+01
 Coeff:      0.259D-01 0.974D+00
 Gap=     0.254 Goal=   None    Shift=    0.000
 RMSDP=3.64D-05 MaxDP=1.60D-03 DE=-1.47D-03 OVMax= 7.67D-04

 Cycle   3  Pass 1  IDiag  1:
 E= -170.766852029900     Delta-E=       -0.000005048277 Rises=F Damp=F
 DIIS: error= 1.63D-04 at cycle   3 NSaved=   3.
 NSaved= 3 IEnMin= 3 EnMin= -170.766852029900     IErMin= 3 ErrMin= 1.63D-04
 ErrMax= 1.63D-04  0.00D+00 EMaxC= 1.00D-01 BMatC= 2.18D-06 BMatP= 2.70D-05
 IDIUse=3 WtCom= 9.98D-01 WtEn= 1.63D-03
 Coeff-Com:  0.220D-02 0.172D+00 0.825D+00
 Coeff-En:   0.000D+00 0.000D+00 0.100D+01
 Coeff:      0.220D-02 0.172D+00 0.826D+00
 Gap=     0.254 Goal=   None    Shift=    0.000
 RMSDP=1.70D-05 MaxDP=4.22D-04 DE=-5.05D-06 OVMax= 1.06D-03

 Cycle   4  Pass 1  IDiag  1:
 E= -170.766849726434     Delta-E=        0.000002303465 Rises=F Damp=F
 DIIS: error= 2.59D-04 at cycle   4 NSaved=   4.
 NSaved= 4 IEnMin= 3 EnMin= -170.766852029900     IErMin= 3 ErrMin= 1.63D-04
 ErrMax= 2.59D-04  0.00D+00 EMaxC= 1.00D-01 BMatC= 4.77D-06 BMatP= 2.18D-06
 IDIUse=3 WtCom= 3.83D-01 WtEn= 6.17D-01
 Coeff-Com: -0.340D-03 0.442D-01 0.594D+00 0.362D+00
 Coeff-En:   0.000D+00 0.000D+00 0.664D+00 0.336D+00
 Coeff:     -0.130D-03 0.169D-01 0.637D+00 0.346D+00
 Gap=     0.254 Goal=   None    Shift=    0.000
 RMSDP=6.86D-06 MaxDP=1.81D-04 DE= 2.30D-06 OVMax= 6.43D-04

 Cycle   5  Pass 1  IDiag  1:
 E= -170.766853654312     Delta-E=       -0.000003927878 Rises=F Damp=F
 DIIS: error= 2.05D-05 at cycle   5 NSaved=   5.
 NSaved= 5 IEnMin= 5 EnMin= -170.766853654312     IErMin= 5 ErrMin= 2.05D-05
 ErrMax= 2.05D-05  0.00D+00 EMaxC= 1.00D-01 BMatC= 4.28D-08 BMatP= 2.18D-06
 IDIUse=1 WtCom= 1.00D+00 WtEn= 0.00D+00
 Coeff-Com: -0.254D-03 0.378D-02 0.195D+00 0.752D-01 0.727D+00
 Coeff:     -0.254D-03 0.378D-02 0.195D+00 0.752D-01 0.727D+00
 Gap=     0.254 Goal=   None    Shift=    0.000
 RMSDP=1.16D-06 MaxDP=3.40D-05 DE=-3.93D-06 OVMax= 9.27D-05

 Cycle   6  Pass 1  IDiag  1:
 E= -170.766853688345     Delta-E=       -0.000000034033 Rises=F Damp=F
 DIIS: error= 4.90D-06 at cycle   6 NSaved=   6.
 NSaved= 6 IEnMin= 6 EnMin= -170.766853688345     IErMin= 6 ErrMin= 4.90D-06
 ErrMax= 4.90D-06  0.00D+00 EMaxC= 1.00D-01 BMatC= 3.79D-09 BMatP= 4.28D-08
 IDIUse=1 WtCom= 1.00D+00 WtEn= 0.00D+00
 Coeff-Com: -0.580D-04-0.348D-02 0.106D-01-0.857D-02 0.294D+00 0.708D+00
 Coeff:     -0.580D-04-0.348D-02 0.106D-01-0.857D-02 0.294D+00 0.708D+00
 Gap=     0.254 Goal=   None    Shift=    0.000
 RMSDP=6.24D-07 MaxDP=2.14D-05 DE=-3.40D-08 OVMax= 3.25D-05

 Cycle   7  Pass 1  IDiag  1:
 E= -170.766853691786     Delta-E=       -0.000000003441 Rises=F Damp=F
 DIIS: error= 2.69D-06 at cycle   7 NSaved=   7.
 NSaved= 7 IEnMin= 7 EnMin= -170.766853691786     IErMin= 7 ErrMin= 2.69D-06
 ErrMax= 2.69D-06  0.00D+00 EMaxC= 1.00D-01 BMatC= 5.56D-10 BMatP= 3.79D-09
 IDIUse=1 WtCom= 1.00D+00 WtEn= 0.00D+00
 Coeff-Com: -0.122D-04-0.196D-02-0.873D-02-0.982D-02 0.975D-01 0.359D+00
 Coeff-Com:  0.564D+00
 Coeff:     -0.122D-04-0.196D-02-0.873D-02-0.982D-02 0.975D-01 0.359D+00
 Coeff:      0.564D+00
 Gap=     0.254 Goal=   None    Shift=    0.000
 RMSDP=1.74D-07 MaxDP=4.62D-06 DE=-3.44D-09 OVMax= 1.60D-05

 Cycle   8  Pass 1  IDiag  1:
 E= -170.766853692307     Delta-E=       -0.000000000520 Rises=F Damp=F
 DIIS: error= 9.53D-07 at cycle   8 NSaved=   8.
 NSaved= 8 IEnMin= 8 EnMin= -170.766853692307     IErMin= 8 ErrMin= 9.53D-07
 ErrMax= 9.53D-07  0.00D+00 EMaxC= 1.00D-01 BMatC= 6.39D-11 BMatP= 5.56D-10
 IDIUse=1 WtCom= 1.00D+00 WtEn= 0.00D+00
 Coeff-Com:  0.634D-05-0.357D-03-0.761D-02-0.377D-02-0.103D-01 0.462D-01
 Coeff-Com:  0.270D+00 0.706D+00
 Coeff:      0.634D-05-0.357D-03-0.761D-02-0.377D-02-0.103D-01 0.462D-01
 Coeff:      0.270D+00 0.706D+00
 Gap=     0.254 Goal=   None    Shift=    0.000
 RMSDP=8.71D-08 MaxDP=3.23D-06 DE=-5.20D-10 OVMax= 3.26D-06

 Cycle   9  Pass 1  IDiag  1:
 E= -170.766853692365     Delta-E=       -0.000000000059 Rises=F Damp=F
 DIIS: error= 2.24D-07 at cycle   9 NSaved=   9.
 NSaved= 9 IEnMin= 9 EnMin= -170.766853692365     IErMin= 9 ErrMin= 2.24D-07
 ErrMax= 2.24D-07  0.00D+00 EMaxC= 1.00D-01 BMatC= 5.16D-12 BMatP= 6.39D-11
 IDIUse=1 WtCom= 1.00D+00 WtEn= 0.00D+00
 Coeff-Com:  0.337D-05-0.665D-04-0.260D-02-0.973D-03-0.873D-02 0.112D-02
 Coeff-Com:  0.888D-01 0.317D+00 0.606D+00
 Coeff:      0.337D-05-0.665D-04-0.260D-02-0.973D-03-0.873D-02 0.112D-02
 Coeff:      0.888D-01 0.317D+00 0.606D+00
 Gap=     0.254 Goal=   None    Shift=    0.000
 RMSDP=1.18D-08 MaxDP=4.60D-07 DE=-5.88D-11 OVMax= 1.09D-06

 Cycle  10  Pass 1  IDiag  1:
 E= -170.766853692370     Delta-E=       -0.000000000004 Rises=F Damp=F
 DIIS: error= 2.84D-08 at cycle  10 NSaved=  10.
 NSaved=10 IEnMin=10 EnMin= -170.766853692370     IErMin=10 ErrMin= 2.84D-08
 ErrMax= 2.84D-08  0.00D+00 EMaxC= 1.00D-01 BMatC= 1.56D-13 BMatP= 5.16D-12
 IDIUse=1 WtCom= 1.00D+00 WtEn= 0.00D+00
 Coeff-Com:  0.307D-06 0.211D-04 0.833D-05 0.541D-04-0.131D-02-0.397D-02
 Coeff-Com: -0.979D-05-0.102D-02 0.112D+00 0.894D+00
 Coeff:      0.307D-06 0.211D-04 0.833D-05 0.541D-04-0.131D-02-0.397D-02
 Coeff:     -0.979D-05-0.102D-02 0.112D+00 0.894D+00
 Gap=     0.254 Goal=   None    Shift=    0.000
 RMSDP=4.95D-09 MaxDP=1.95D-07 DE=-4.26D-12 OVMax= 1.23D-07

 Error on total polarization charges =  0.00673
 SCF Done:  E(RM06) =  -170.766853692     A.U. after   10 cycles
            NFock= 10  Conv=0.49D-08     -V/T= 2.0071
 KE= 1.695568082499D+02 PE=-5.776075677740D+02 EE= 1.468690134491D+02
 Leave Link  502 at Thu Oct 31 18:02:39 2024, MaxMem=  4294967296 cpu:              49.0 elap:              49.0
 (Enter C:\G16W\l801.exe)
 DoSCS=F DFT=T ScalE2(SS,OS)=  1.000000  1.000000
 Range of M.O.s used for correlation:     1   162
 NBasis=   162 NAE=    14 NBE=    14 NFC=     0 NFV=     0
 NROrb=    162 NOA=    14 NOB=    14 NVA=   148 NVB=   148

 **** Warning!!: The largest alpha MO coefficient is  0.12203292D+02

 Leave Link  801 at Thu Oct 31 18:02:39 2024, MaxMem=  4294967296 cpu:               0.0 elap:               0.0
 (Enter C:\G16W\l1002.exe)
 Minotr:  Closed shell wavefunction.
          IDoAtm=1111111
 NEqPCM:  Using equilibrium solvation (IEInf=0, Eps=   4.7113, EpsInf=   2.0906)
          Direct CPHF calculation.
          Differentiating once with respect to magnetic field using GIAOs.
          Differentiating once with respect to nuclear magnetic moments.
          Differentiating once with respect to Fermi-contact and electric field gradient.
          Electric field/nuclear overlap derivatives assumed to be zero.
          Requested convergence is 1.0D-08 RMS, and 1.0D-07 maximum.
          Secondary convergence is 1.0D-12 RMS, and 1.0D-12 maximum.
          NewPWx=T KeepS1=F KeepF1=F KeepIn=T MapXYZ=F SortEE=F KeepMc=T.
 Keep R1, R2, and R3 ints in memory in canonical form, NReq=269060457.
 FoFCou: FMM=F IPFlag=           0 FMFlag=           0 FMFlg1=           0
         NFxFlg=           0 DoJE=F BraDBF=F KetDBF=F FulRan=T
         wScrn=  0.000000 ICntrl=       600 IOpCl=  0 I1Cent=           0 NGrid=           0
         NMat0=    1 NMatS0=  13203 NMatT0=    0 NMatD0=    1 NMtDS0=    0 NMtDT0=    0
 Symmetry not used in FoFCou.
 Two-electron integral symmetry not used.
          MDV=    4294967296 using IRadAn=       5.
          Solving linear equations simultaneously, MaxMat=       0.
 FoFJK:  IHMeth= 1 ICntrl=    6127 DoSepK=F KAlg= 0 I1Cent=           0 FoldK=F
 IRaf=         1 NMat=       1 IRICut=       1 DoRegI=T DoRafI=F ISym2E= 0 IDoP0=0 IntGTp=1.
          There are    24 degrees of freedom in the 1st order CPHF.  IDoFFX=0 NUNeed=    24.
     24 vectors produced by pass  0 Test12= 8.63D-15 4.17D-09 XBig12= 2.03D+01 1.83D+00.
 AX will form    24 AO Fock derivatives at one time.
     24 vectors produced by pass  1 Test12= 8.63D-15 4.17D-09 XBig12= 8.51D-02 7.84D-02.
     24 vectors produced by pass  2 Test12= 8.63D-15 4.17D-09 XBig12= 1.63D-04 2.70D-03.
     24 vectors produced by pass  3 Test12= 8.63D-15 4.17D-09 XBig12= 2.32D-07 1.14D-04.
     24 vectors produced by pass  4 Test12= 8.63D-15 4.17D-09 XBig12= 4.44D-10 5.45D-06.
     18 vectors produced by pass  5 Test12= 8.63D-15 4.17D-09 XBig12= 8.27D-13 1.48D-07.
      2 vectors produced by pass  6 Test12= 8.63D-15 4.17D-09 XBig12= 1.13D-15 8.37D-09.
 InvSVY:  IOpt=1 It=  1 EMax= 6.22D-15
 Solved reduced A of dimension   140 with    24 vectors.
 Calculating GIAO nuclear magnetic shielding tensors.
 SCF GIAO Magnetic shielding tensor (ppm):
      1  C    Isotropic =    25.8309   Anisotropy =   209.7852
   XX=   -39.1917   YX=    79.9819   ZX=     0.0048
   XY=    59.2392   YY=   -49.0033   ZY=    -0.0037
   XZ=     0.0045   YZ=    -0.0040   ZZ=   165.6877
   Eigenvalues:  -113.8807    25.6857   165.6877
      2  C    Isotropic =    63.3684   Anisotropy =   144.7692
   XX=    18.6123   YX=    71.5610   ZX=     0.0035
   XY=    69.4467   YY=    11.6117   ZY=    -0.0030
   XZ=     0.0035   YZ=    -0.0031   ZZ=   159.8812
   Eigenvalues:   -55.4787    85.7027   159.8812
      3  H    Isotropic =    25.1511   Anisotropy =     6.6390
   XX=    27.1247   YX=     6.0052   ZX=     0.0000
   XY=     2.3263   YY=    22.5011   ZY=    -0.0001
   XZ=     0.0000   YZ=    -0.0001   ZZ=    25.8275
   Eigenvalues:    20.0487    25.8275    29.5771
      4  H    Isotropic =    25.2280   Anisotropy =     5.2791
   XX=    24.3283   YX=     3.2762   ZX=     0.0001
   XY=     4.3148   YY=    25.4876   ZY=    -0.0001
   XZ=     0.0001   YZ=    -0.0001   ZZ=    25.8681
   Eigenvalues:    21.0684    25.8681    28.7474
      5  H    Isotropic =    26.0084   Anisotropy =     4.3016
   XX=    28.1729   YX=     2.5976   ZX=    -0.0001
   XY=     0.3410   YY=    25.8063   ZY=     0.0000
   XZ=    -0.0001   YZ=     0.0000   ZZ=    24.0460
   Eigenvalues:    24.0460    25.1030    28.8761
      6  C    Isotropic =    50.4393   Anisotropy =   361.0222
   XX=   265.7117   YX=   -93.8511   ZX=    -0.0074
   XY=   -90.0821   YY=   -41.7466   ZY=     0.0020
   XZ=    -0.0072   YZ=     0.0021   ZZ=   -72.6472
   Eigenvalues:   -72.6472   -67.1557   291.1208
      7  N    Isotropic =   -56.4196   Anisotropy =   429.1736
   XX=   198.3414   YX=  -113.1954   ZX=    -0.0088
   XY=  -107.9350   YY=  -160.1871   ZY=     0.0025
   XZ=    -0.0089   YZ=     0.0027   ZZ=  -207.4132
   Eigenvalues:  -207.4132  -191.5418   229.6961
 Max diff in PS couplings:  IJMax=     7     2 Diff= 6.28D-08 IJMaxR=     7     3 DiffR= 1.28D-06
          There are    42 degrees of freedom in the 1st order CPHF.  IDoFFX=0 NUNeed=    42.
     35 vectors produced by pass  0 Test12= 4.93D-15 2.38D-09 XBig12= 9.78D+00 1.34D+00.
     35 vectors produced by pass  1 Test12= 4.93D-15 2.38D-09 XBig12= 1.15D-01 1.01D-01.
     35 vectors produced by pass  2 Test12= 4.93D-15 2.38D-09 XBig12= 8.77D-04 7.34D-03.
     35 vectors produced by pass  3 Test12= 4.93D-15 2.38D-09 XBig12= 3.95D-06 4.81D-04.
     35 vectors produced by pass  4 Test12= 4.93D-15 2.38D-09 XBig12= 1.64D-08 2.11D-05.
     35 vectors produced by pass  5 Test12= 4.93D-15 2.38D-09 XBig12= 2.38D-11 7.11D-07.
     22 vectors produced by pass  6 Test12= 4.93D-15 2.38D-09 XBig12= 3.26D-14 2.92D-08.
 InvSVY:  IOpt=1 It=  1 EMax= 2.66D-15
 Solved reduced A of dimension   232 with    35 vectors.
 Max diff in SD couplings:  IJMax=     7     6 Diff= 1.63D-07 IJMaxR=     7     3 DiffR= 8.79D-07
 Fermi Contact contribution taken from checkpoint file:
 "E:\Project\Spinach\Southampton\Marcel Utz\Paper DFT\VINYL_CYANIDE_NMR.chk"
 There are a total of      155002 grid points.
 ElSum from          density=       56.0000017582
 Fermi Contact (FC) contribution to K (Hz):
                1             2             3             4             5 
      1  0.000000D+00
      2  0.417660D+02  0.000000D+00
      3  0.243577D+02 -0.777582D+00  0.000000D+00
      4  0.247998D+02 -0.296699D+00 -0.334769D+00  0.000000D+00
      5 -0.881588D+00  0.249778D+02  0.637171D+00  0.537445D+00  0.000000D+00
      6 -0.151362D+01  0.428090D+02  0.143242D+01  0.220501D+01 -0.160222D+00
      7  0.276497D+01 -0.444052D+01 -0.268505D+00 -0.156709D+00  0.834078D+00
                6             7 
      6  0.000000D+00
      7  0.197345D+02  0.000000D+00
 Fermi Contact (FC) contribution to J (Hz):
                1             2             3             4             5 
      1  0.000000D+00
      2  0.824263D+02  0.000000D+00
      3  0.191133D+03 -0.610161D+01  0.000000D+00
      4  0.194602D+03 -0.232816D+01 -0.104448D+02  0.000000D+00
      5 -0.691774D+01  0.195998D+03  0.198797D+02  0.167683D+02  0.000000D+00
      6 -0.298716D+01  0.844846D+02  0.112401D+02  0.173025D+02 -0.125724D+01
      7  0.156833D+01 -0.251872D+01 -0.605555D+00 -0.353423D+00  0.188108D+01
                6             7 
      6  0.000000D+00
      7  0.111937D+02  0.000000D+00
 Spin-dipolar (SD) contribution to K (Hz):
                1             2             3             4             5 
      1  0.000000D+00
      2  0.207489D+01  0.000000D+00
      3  0.457808D-01 -0.123394D-01  0.000000D+00
      4  0.452876D-01 -0.174690D-01  0.135068D-01  0.000000D+00
      5 -0.944954D-02  0.311145D-01  0.136172D-01 -0.231372D-02  0.000000D+00
      6 -0.276715D+00  0.350129D+00 -0.626939D-02  0.206658D-01  0.123022D-01
      7  0.127566D+01 -0.752659D+00 -0.108124D-01 -0.308421D-01 -0.230850D-01
                6             7 
      6  0.000000D+00
      7  0.756685D+01  0.000000D+00
 Spin-dipolar (SD) contribution to J (Hz):
                1             2             3             4             5 
      1  0.000000D+00
      2  0.409484D+01  0.000000D+00
      3  0.359237D+00 -0.968262D-01  0.000000D+00
      4  0.355367D+00 -0.137078D+00  0.421411D+00  0.000000D+00
      5 -0.741496D-01  0.244152D+00  0.424857D+00 -0.721880D-01  0.000000D+00
      6 -0.546104D+00  0.690988D+00 -0.491953D-01  0.162163D+00  0.965344D-01
      7  0.723570D+00 -0.426917D+00 -0.243851D-01 -0.695577D-01 -0.520633D-01
                6             7 
      6  0.000000D+00
      7  0.429201D+01  0.000000D+00
 Paramagnetic spin-orbit (PSO) contribution to K (Hz):
                1             2             3             4             5 
      1  0.000000D+00
      2 -0.510312D+01  0.000000D+00
      3  0.332680D-01 -0.160468D+00  0.000000D+00
      4  0.342361D-01 -0.168686D+00  0.114403D+00  0.000000D+00
      5 -0.161777D+00  0.966463D-01  0.794170D-01  0.168660D-01  0.000000D+00
      6  0.138055D+00 -0.121667D+01  0.672645D-02  0.556336D-01 -0.364535D-02
      7 -0.487625D+00 -0.407095D+00 -0.283825D-02  0.470328D-01  0.163143D+00
                6             7 
      6  0.000000D+00
      7  0.114767D+00  0.000000D+00
 Paramagnetic spin-orbit (PSO) contribution to J (Hz):
                1             2             3             4             5 
      1  0.000000D+00
      2 -0.100711D+02  0.000000D+00
      3  0.261051D+00 -0.125917D+01  0.000000D+00
      4  0.268648D+00 -0.132366D+01  0.356938D+01  0.000000D+00
      5 -0.126945D+01  0.758374D+00  0.247781D+01  0.526220D+00  0.000000D+00
      6  0.272455D+00 -0.240114D+01  0.527818D-01  0.436552D+00 -0.286047D-01
      7 -0.276587D+00 -0.230910D+00 -0.640106D-02  0.106072D+00  0.367934D+00
                6             7 
      6  0.000000D+00
      7  0.650975D-01  0.000000D+00
 Diamagnetic spin-orbit (DSO) contribution to K (Hz):
                1             2             3             4             5 
      1  0.000000D+00
      2  0.632729D-01  0.000000D+00
      3  0.643535D-01 -0.714859D-01  0.000000D+00
      4  0.609584D-01 -0.694458D-01 -0.120524D+00  0.000000D+00
      5 -0.779726D-01  0.962539D-01 -0.110078D+00 -0.261285D-01  0.000000D+00
      6 -0.182046D-01  0.116239D+00  0.768175D-02 -0.599305D-01 -0.281472D-01
      7 -0.569172D-01 -0.919190D-01 -0.288400D-01 -0.590097D-01 -0.716802D-01
                6             7 
      6  0.000000D+00
      7 -0.112576D-02  0.000000D+00
 Diamagnetic spin-orbit (DSO) contribution to J (Hz):
                1             2             3             4             5 
      1  0.000000D+00
      2  0.124871D+00  0.000000D+00
      3  0.504976D+00 -0.560943D+00  0.000000D+00
      4  0.478335D+00 -0.544935D+00 -0.376035D+01  0.000000D+00
      5 -0.611843D+00  0.755295D+00 -0.343443D+01 -0.815209D+00  0.000000D+00
      6 -0.359272D-01  0.229400D+00  0.602780D-01 -0.470269D+00 -0.220869D+00
      7 -0.322842D-01 -0.521376D-01 -0.650424D-01 -0.133084D+00 -0.161659D+00
                6             7 
      6  0.000000D+00
      7 -0.638546D-03  0.000000D+00
 Total nuclear spin-spin coupling K (Hz): 
                1             2             3             4             5 
      1  0.000000D+00
      2  0.388011D+02  0.000000D+00
      3  0.245011D+02 -0.102187D+01  0.000000D+00
      4  0.249403D+02 -0.552299D+00 -0.327383D+00  0.000000D+00
      5 -0.113079D+01  0.252018D+02  0.620127D+00  0.525869D+00  0.000000D+00
      6 -0.167048D+01  0.420587D+02  0.144056D+01  0.222138D+01 -0.179712D+00
      7  0.349609D+01 -0.569219D+01 -0.310996D+00 -0.199528D+00  0.902456D+00
                6             7 
      6  0.000000D+00
      7  0.274150D+02  0.000000D+00
 Total nuclear spin-spin coupling J (Hz): 
                1             2             3             4             5 
      1  0.000000D+00
      2  0.765748D+02  0.000000D+00
      3  0.192258D+03 -0.801855D+01  0.000000D+00
      4  0.195704D+03 -0.433384D+01 -0.102143D+02  0.000000D+00
      5 -0.887318D+01  0.197756D+03  0.193479D+02  0.164071D+02  0.000000D+00
      6 -0.329674D+01  0.830039D+02  0.113039D+02  0.174310D+02 -0.141018D+01
      7  0.198303D+01 -0.322868D+01 -0.701384D+00 -0.449992D+00  0.203529D+01
                6             7 
      6  0.000000D+00
      7  0.155502D+02  0.000000D+00
 End of Minotr F.D. properties file   721 does not exist.
 End of Minotr F.D. properties file   722 does not exist.
 End of Minotr F.D. properties file   788 does not exist.
 Leave Link 1002 at Thu Oct 31 18:40:34 2024, MaxMem=  4294967296 cpu:            2274.0 elap:            2274.9
 (Enter C:\G16W\l601.exe)
 Copying SCF densities to generalized density rwf, IOpCl= 0 IROHF=0.

 **********************************************************************

            Population analysis using the SCF Density.

 **********************************************************************

 Orbital symmetries:
       Occupied  (A) (A) (A) (A) (A) (A) (A) (A) (A) (A) (A) (A)
                 (A) (A)
       Virtual   (A) (A) (A) (A) (A) (A) (A) (A) (A) (A) (A) (A)
                 (A) (A) (A) (A) (A) (A) (A) (A) (A) (A) (A) (A)
                 (A) (A) (A) (A) (A) (A) (A) (A) (A) (A) (A) (A)
                 (A) (A) (A) (A) (A) (A) (A) (A) (A) (A) (A) (A)
                 (A) (A) (A) (A) (A) (A) (A) (A) (A) (A) (A) (A)
                 (A) (A) (A) (A) (A) (A) (A) (A) (A) (A) (A) (A)
                 (A) (A) (A) (A) (A) (A) (A) (A) (A) (A) (A) (A)
                 (A) (A) (A) (A) (A) (A) (A) (A) (A) (A) (A) (A)
                 (A) (A) (A) (A) (A) (A) (A) (A) (A) (A) (A) (A)
                 (A) (A) (A) (A) (A) (A) (A) (A) (A) (A) (A) (A)
                 (A) (A) (A) (A) (A) (A) (A) (A) (A) (A) (A) (A)
                 (A) (A) (A) (A) (A) (A) (A) (A) (A) (A) (A) (A)
                 (A) (A) (A) (A)
 The electronic state is 1-A.
 Alpha  occ. eigenvalues --  -14.39803 -10.28964 -10.28909 -10.27593  -0.92657
 Alpha  occ. eigenvalues --   -0.82593  -0.66620  -0.54559  -0.48854  -0.42128
 Alpha  occ. eigenvalues --   -0.40258  -0.38549  -0.36248  -0.30715
 Alpha virt. eigenvalues --   -0.05300   0.01904   0.06636   0.06757   0.08730
 Alpha virt. eigenvalues --    0.10604   0.15905   0.20229   0.23244   0.28104
 Alpha virt. eigenvalues --    0.29929   0.33007   0.33563   0.34517   0.37205
 Alpha virt. eigenvalues --    0.38256   0.38747   0.43471   0.44507   0.46383
 Alpha virt. eigenvalues --    0.47653   0.50155   0.54646   0.58045   0.58283
 Alpha virt. eigenvalues --    0.59979   0.60639   0.64913   0.71154   0.75458
 Alpha virt. eigenvalues --    0.77176   0.79467   0.85774   0.89921   0.95008
 Alpha virt. eigenvalues --    0.98055   0.99180   1.02939   1.08612   1.08672
 Alpha virt. eigenvalues --    1.10889   1.15376   1.16752   1.20080   1.24172
 Alpha virt. eigenvalues --    1.30420   1.32679   1.33526   1.39786   1.40407
 Alpha virt. eigenvalues --    1.44910   1.52591   1.58884   1.67557   1.76813
 Alpha virt. eigenvalues --    1.86564   1.98830   1.99990   2.02828   2.08452
 Alpha virt. eigenvalues --    2.12176   2.18540   2.22966   2.25691   2.31364
 Alpha virt. eigenvalues --    2.40996   2.43847   2.44537   2.51499   2.60047
 Alpha virt. eigenvalues --    2.61807   2.64147   2.64979   2.68727   2.70115
 Alpha virt. eigenvalues --    2.74416   2.76919   2.78788   2.80317   2.82703
 Alpha virt. eigenvalues --    2.86772   2.89334   2.93119   2.93818   2.96924
 Alpha virt. eigenvalues --    2.98524   3.03403   3.04246   3.11241   3.12220
 Alpha virt. eigenvalues --    3.15193   3.17076   3.23861   3.27972   3.30449
 Alpha virt. eigenvalues --    3.40912   3.42016   3.42926   3.49742   3.56933
 Alpha virt. eigenvalues --    3.62688   3.65512   3.70285   3.73131   3.76386
 Alpha virt. eigenvalues --    3.82699   3.84141   3.84596   3.87872   3.92735
 Alpha virt. eigenvalues --    3.96946   3.97287   3.98515   4.05239   4.12660
 Alpha virt. eigenvalues --    4.22050   4.22944   4.35263   4.38666   4.40743
 Alpha virt. eigenvalues --    4.45389   4.55237   4.57458   4.58745   4.62545
 Alpha virt. eigenvalues --    4.64138   4.65202   4.67291   4.82387   4.82645
 Alpha virt. eigenvalues --    4.94689   5.00210   5.01659   5.09562   5.13304
 Alpha virt. eigenvalues --    5.18790   5.26004   5.58078   5.74267   5.76409
 Alpha virt. eigenvalues --    5.92632   6.02101   6.11650   6.44128   8.45652
 Alpha virt. eigenvalues --   11.40563  13.92739  15.24898
          Condensed to atoms (all electrons):
               1          2          3          4          5          6
     1  C    4.940931   0.526391   0.410136   0.419888  -0.029788  -0.057925
     2  C    0.526391   4.963956  -0.042810  -0.045338   0.427687   0.285494
     3  H    0.410136  -0.042810   0.512010  -0.024826   0.003957  -0.002404
     4  H    0.419888  -0.045338  -0.024826   0.508453  -0.006111   0.004400
     5  H   -0.029788   0.427687   0.003957  -0.006111   0.493212  -0.040199
     6  C   -0.057925   0.285494  -0.002404   0.004400  -0.040199   4.723460
     7  N    0.003561  -0.074338   0.000534  -0.000127  -0.001186   1.028454
               7
     1  C    0.003561
     2  C   -0.074338
     3  H    0.000534
     4  H   -0.000127
     5  H   -0.001186
     6  C    1.028454
     7  N    6.287074
 Mulliken charges:
               1
     1  C   -0.213194
     2  C   -0.041042
     3  H    0.143402
     4  H    0.143660
     5  H    0.152427
     6  C    0.058719
     7  N   -0.243973
 Sum of Mulliken charges =   0.00000
 Mulliken charges with hydrogens summed into heavy atoms:
               1
     1  C    0.073869
     2  C    0.111385
     6  C    0.058719
     7  N   -0.243973
 Electronic spatial extent (au):  <R**2>=            278.5502
 Charge=              0.0000 electrons
 Dipole moment (field-independent basis, Debye):
    X=             -4.6601    Y=              0.8088    Z=              0.0001  Tot=              4.7298
 Quadrupole moment (field-independent basis, Debye-Ang):
   XX=            -27.4103   YY=            -20.8167   ZZ=            -24.4624
   XY=              1.4619   XZ=              0.0001   YZ=              0.0000
 Traceless Quadrupole moment (field-independent basis, Debye-Ang):
   XX=             -3.1805   YY=              3.4131   ZZ=             -0.2326
   XY=              1.4619   XZ=              0.0001   YZ=              0.0000
 Octapole moment (field-independent basis, Debye-Ang**2):
  XXX=            -28.4063  YYY=              1.3567  ZZZ=              0.0000  XYY=             -3.4669
  XXY=              2.1356  XXZ=              0.0006  XZZ=              0.8284  YZZ=              0.0026
  YYZ=              0.0001  XYZ=             -0.0001
 Hexadecapole moment (field-independent basis, Debye-Ang**3):
 XXXX=           -312.9715 YYYY=            -46.2231 ZZZZ=            -25.7128 XXXY=              5.6780
 XXXZ=              0.0028 YYYX=              1.1584 YYYZ=             -0.0001 ZZZX=              0.0027
 ZZZY=             -0.0002 XXYY=            -57.7492 XXZZ=            -56.5979 YYZZ=            -13.7718
 XXYZ=             -0.0001 YYXZ=              0.0008 ZZXY=              0.3467
 N-N= 9.041489238266D+01 E-N=-5.776075703359D+02  KE= 1.695568082499D+02
 Calculating spin-rotation constants.
 Leave Link  601 at Thu Oct 31 18:40:36 2024, MaxMem=  4294967296 cpu:               1.0 elap:               0.6
 (Enter C:\G16W\l9999.exe)

 Test job not archived.
 1|1|UNPC-ALAUNDO|SP|RM06|Gen|C3H3N1|AACHARYA|31-Oct-2024|0||#P Geom=Al
 lCheck Guess=TCheck SCRF=Check GenChk RM06/ChkBas NMR=ReadFC IOp(3/6=2
 2)||Title Card Required||0,1|C,0,-1.603282,-0.354047,0.000026|C,0,-0.5
 82862,0.500509,0.000017|H,0,-1.449167,-1.423825,0.00001|H,0,-2.622119,
 0.005732,0.000049|H,0,-0.748247,1.5707,0.000032|C,0,0.781604,0.086534,
 -0.000014|N,0,1.892397,-0.221512,-0.000038||Version=EM64W-G16RevC.01|S
 tate=1-A|HF=-170.7668537|RMSD=4.948e-009|Dipole=-1.8334318,0.3182212,0
 .0000375|Quadrupole=-2.3646359,2.5375681,-0.1729322,1.0869192,0.000054
 7,0.0000112|PG=C01 [X(C3H3N1)]||@


 HIGGLEDY-PIGGLEDY
 NIC'LAUS COPERNICUS
 LOOKED AT THE UNIVERSE,
 SPOKE TO THE THRONG;
 GIVE UP YOUR PTOLOMY,
 RISE UP AND FOLLOW ME,
 HELIOCENTRICALLY
 PTOLEMY'S WRONG.
   -- NANCY L. STARK
 Job cpu time:       0 days  0 hours 38 minutes 50.0 seconds.
 Elapsed time:       0 days  0 hours 38 minutes 45.3 seconds.
 File lengths (MBytes):  RWF=     51 Int=      0 D2E=      0 Chk=      5 Scr=      1
 Normal termination of Gaussian 16 at Thu Oct 31 18:40:36 2024.
