 Entering Link 1 = C:\G16W\l1.exe PID=     74564.
  
 Copyright (c) 1988-2019, Gaussian, Inc.  All Rights Reserved.
  
 This is part of the Gaussian(R) 16 program.  It is based on
 the Gaussian(R) 09 system (copyright 2009, Gaussian, Inc.),
 the Gaussian(R) 03 system (copyright 2003, Gaussian, Inc.),
 the Gaussian(R) 98 system (copyright 1998, Gaussian, Inc.),
 the Gaussian(R) 94 system (copyright 1995, Gaussian, Inc.),
 the Gaussian 92(TM) system (copyright 1992, Gaussian, Inc.),
 the Gaussian 90(TM) system (copyright 1990, Gaussian, Inc.),
 the Gaussian 88(TM) system (copyright 1988, Gaussian, Inc.),
 the Gaussian 86(TM) system (copyright 1986, Carnegie Mellon
 University), and the Gaussian 82(TM) system (copyright 1983,
 Carnegie Mellon University). Gaussian is a federally registered
 trademark of Gaussian, Inc.
  
 This software contains proprietary and confidential information,
 including trade secrets, belonging to Gaussian, Inc.
  
 This software is provided under written license and may be
 used, copied, transmitted, or stored only in accord with that
 written license.
  
 The following legend is applicable only to US Government
 contracts under FAR:
  
                    RESTRICTED RIGHTS LEGEND
  
 Use, reproduction and disclosure by the US Government is
 subject to restrictions as set forth in subparagraphs (a)
 and (c) of the Commercial Computer Software - Restricted
 Rights clause in FAR 52.227-19.
  
 Gaussian, Inc.
 340 Quinnipiac St., Bldg. 40, Wallingford CT 06492
  
  
 ---------------------------------------------------------------
 Warning -- This program may not be used in any manner that
 competes with the business of Gaussian, Inc. or will provide
 assistance to any competitor of Gaussian, Inc.  The licensee
 of this program is prohibited from giving any competitor of
 Gaussian, Inc. access to this program.  By using this program,
 the user acknowledges that Gaussian, Inc. is engaged in the
 business of creating and licensing software in the field of
 computational chemistry and represents and warrants to the
 licensee that it is not a competitor of Gaussian, Inc. and that
 it will not use this program in any manner prohibited above.
 ---------------------------------------------------------------
  

 Cite this work as:
 Gaussian 16, Revision C.01,
 M. J. Frisch, G. W. Trucks, H. B. Schlegel, G. E. Scuseria, 
 M. A. Robb, J. R. Cheeseman, G. Scalmani, V. Barone, 
 G. A. Petersson, H. Nakatsuji, X. Li, M. Caricato, A. V. Marenich, 
 J. Bloino, B. G. Janesko, R. Gomperts, B. Mennucci, H. P. Hratchian, 
 J. V. Ortiz, A. F. Izmaylov, J. L. Sonnenberg, D. Williams-Young, 
 F. Ding, F. Lipparini, F. Egidi, J. Goings, B. Peng, A. Petrone, 
 T. Henderson, D. Ranasinghe, V. G. Zakrzewski, J. Gao, N. Rega, 
 G. Zheng, W. Liang, M. Hada, M. Ehara, K. Toyota, R. Fukuda, 
 J. Hasegawa, M. Ishida, T. Nakajima, Y. Honda, O. Kitao, H. Nakai, 
 T. Vreven, K. Throssell, J. A. Montgomery, Jr., J. E. Peralta, 
 F. Ogliaro, M. J. Bearpark, J. J. Heyd, E. N. Brothers, K. N. Kudin, 
 V. N. Staroverov, T. A. Keith, R. Kobayashi, J. Normand, 
 K. Raghavachari, A. P. Rendell, J. C. Burant, S. S. Iyengar, 
 J. Tomasi, M. Cossi, J. M. Millam, M. Klene, C. Adamo, R. Cammi, 
 J. W. Ochterski, R. L. Martin, K. Morokuma, O. Farkas, 
 J. B. Foresman, and D. J. Fox, Gaussian, Inc., Wallingford CT, 2019.
 
 ******************************************
 Gaussian 16:  EM64W-G16RevC.01 30-May-2019
                04-Nov-2024 
 ******************************************
 %nprocshared=4
 Will use up to    4 processors via shared memory.
 %mem=32GB
 %chk=pentadiene_opt.chk
 ------------------------------------------------------
 #p opt=tight m06/cc-pvtz scrf=(smd,solvent=chloroform)
 ------------------------------------------------------
 1/7=10,18=20,19=15,26=3,38=1/1,3;
 2/9=110,12=2,17=6,18=5,40=1/2;
 3/5=16,6=1,11=2,25=1,30=1,70=32201,71=1,72=7,74=-54/1,2,3;
 4//1;
 5/5=2,38=5,53=7/2;
 6/7=2,8=2,9=2,10=2,28=1/1;
 7//1,2,3,16;
 1/7=10,18=20,19=15,26=3/3(2);
 2/9=110/2;
 99//99;
 2/9=110/2;
 3/5=16,6=1,11=2,25=1,30=1,70=32205,71=1,72=7,74=-54/1,2,3;
 4/5=5,16=3,69=1/1;
 5/5=2,38=5,53=7/2;
 7//1,2,3,16;
 1/7=10,18=20,19=15,26=3/3(-5);
 2/9=110/2;
 6/7=2,8=2,9=2,10=2,19=2,28=1/1;
 99/9=1/99;
 Leave Link    1 at Mon Nov 04 14:06:19 2024, MaxMem=  4294967296 cpu:               0.0 elap:               0.1
 (Enter C:\G16W\l101.exe)
 ------------------------
 Cyclopentadiene geometry
 ------------------------
 Symbolic Z-matrix:
 Charge =  0 Multiplicity = 1
 C                    -0.5105   -0.31028  -0.57796 
 C                     0.80726  -0.52349  -0.34334 
 C                     1.49244   0.84139  -0.14135 
 C                     0.55537   1.81295  -0.26374 
 C                    -0.83885   1.15988  -0.25981 
 H                    -1.2064   -1.04172  -0.93238 
 H                     1.29288  -1.47667  -0.32071 
 H                     2.53452   0.99668   0.04532 
 H                     0.75262   2.86066  -0.35487 
 H                    -1.2741    1.23414   0.71484 
 H                    -1.51115   1.60177  -0.96525 
 
 ITRead=  0  0  0  0  0  0  0  0  0  0  0
 MicOpt= -1 -1 -1 -1 -1 -1 -1 -1 -1 -1 -1
 NAtoms=     11 NQM=       11 NQMF=       0 NMMI=      0 NMMIF=      0
                NMic=       0 NMicF=      0.
                    Isotopes and Nuclear Properties:
 (Nuclear quadrupole moments (NQMom) in fm**2, nuclear magnetic moments (NMagM)
  in nuclear magnetons)

  Atom         1           2           3           4           5           6           7           8           9          10
 IAtWgt=          12          12          12          12          12           1           1           1           1           1
 AtmWgt=  12.0000000  12.0000000  12.0000000  12.0000000  12.0000000   1.0078250   1.0078250   1.0078250   1.0078250   1.0078250
 NucSpn=           0           0           0           0           0           1           1           1           1           1
 AtZEff=   0.0000000   0.0000000   0.0000000   0.0000000   0.0000000   0.0000000   0.0000000   0.0000000   0.0000000   0.0000000
 NQMom=    0.0000000   0.0000000   0.0000000   0.0000000   0.0000000   0.0000000   0.0000000   0.0000000   0.0000000   0.0000000
 NMagM=    0.0000000   0.0000000   0.0000000   0.0000000   0.0000000   2.7928460   2.7928460   2.7928460   2.7928460   2.7928460
 AtZNuc=   6.0000000   6.0000000   6.0000000   6.0000000   6.0000000   1.0000000   1.0000000   1.0000000   1.0000000   1.0000000

  Atom        11
 IAtWgt=           1
 AtmWgt=   1.0078250
 NucSpn=           1
 AtZEff=   0.0000000
 NQMom=    0.0000000
 NMagM=    2.7928460
 AtZNuc=   1.0000000
 Leave Link  101 at Mon Nov 04 14:06:19 2024, MaxMem=  4294967296 cpu:               0.0 elap:               0.4
 (Enter C:\G16W\l103.exe)

 GradGradGradGradGradGradGradGradGradGradGradGradGradGradGradGradGradGrad
 Berny optimization.
 Initialization pass.
                           ----------------------------
                           !    Initial Parameters    !
                           ! (Angstroms and Degrees)  !
 --------------------------                            --------------------------
 ! Name  Definition              Value          Derivative Info.                !
 --------------------------------------------------------------------------------
 ! R1    R(1,2)                  1.3554         estimate D2E/DX2                !
 ! R2    R(1,5)                  1.5396         estimate D2E/DX2                !
 ! R3    R(1,6)                  1.07           estimate D2E/DX2                !
 ! R4    R(2,3)                  1.5405         estimate D2E/DX2                !
 ! R5    R(2,7)                  1.07           estimate D2E/DX2                !
 ! R6    R(3,4)                  1.3554         estimate D2E/DX2                !
 ! R7    R(3,8)                  1.07           estimate D2E/DX2                !
 ! R8    R(4,5)                  1.5396         estimate D2E/DX2                !
 ! R9    R(4,9)                  1.07           estimate D2E/DX2                !
 ! R10   R(5,10)                 1.07           estimate D2E/DX2                !
 ! R11   R(5,11)                 1.07           estimate D2E/DX2                !
 ! A1    A(2,1,5)              108.7715         estimate D2E/DX2                !
 ! A2    A(2,1,6)              125.6008         estimate D2E/DX2                !
 ! A3    A(5,1,6)              125.6265         estimate D2E/DX2                !
 ! A4    A(1,2,3)              108.4067         estimate D2E/DX2                !
 ! A5    A(1,2,7)              125.8071         estimate D2E/DX2                !
 ! A6    A(3,2,7)              125.7768         estimate D2E/DX2                !
 ! A7    A(2,3,4)              108.4067         estimate D2E/DX2                !
 ! A8    A(2,3,8)              125.7768         estimate D2E/DX2                !
 ! A9    A(4,3,8)              125.8071         estimate D2E/DX2                !
 ! A10   A(3,4,5)              108.7715         estimate D2E/DX2                !
 ! A11   A(3,4,9)              125.6008         estimate D2E/DX2                !
 ! A12   A(5,4,9)              125.6265         estimate D2E/DX2                !
 ! A13   A(1,5,4)              102.2038         estimate D2E/DX2                !
 ! A14   A(1,5,10)             109.9532         estimate D2E/DX2                !
 ! A15   A(1,5,11)             113.0865         estimate D2E/DX2                !
 ! A16   A(4,5,10)             109.9532         estimate D2E/DX2                !
 ! A17   A(4,5,11)             113.0865         estimate D2E/DX2                !
 ! A18   A(10,5,11)            108.4387         estimate D2E/DX2                !
 ! D1    D(5,1,2,3)            -11.6467         estimate D2E/DX2                !
 ! D2    D(5,1,2,7)            169.4179         estimate D2E/DX2                !
 ! D3    D(6,1,2,3)            167.9673         estimate D2E/DX2                !
 ! D4    D(6,1,2,7)            -10.9681         estimate D2E/DX2                !
 ! D5    D(2,1,5,4)             17.7608         estimate D2E/DX2                !
 ! D6    D(2,1,5,10)           -98.9802         estimate D2E/DX2                !
 ! D7    D(2,1,5,11)           139.6517         estimate D2E/DX2                !
 ! D8    D(6,1,5,4)           -161.8531         estimate D2E/DX2                !
 ! D9    D(6,1,5,10)            81.406          estimate D2E/DX2                !
 ! D10   D(6,1,5,11)           -39.9621         estimate D2E/DX2                !
 ! D11   D(1,2,3,4)              0.0            estimate D2E/DX2                !
 ! D12   D(1,2,3,8)           -178.9358         estimate D2E/DX2                !
 ! D13   D(7,2,3,4)            178.9358         estimate D2E/DX2                !
 ! D14   D(7,2,3,8)              0.0            estimate D2E/DX2                !
 ! D15   D(2,3,4,5)             11.6467         estimate D2E/DX2                !
 ! D16   D(2,3,4,9)           -167.9673         estimate D2E/DX2                !
 ! D17   D(8,3,4,5)           -169.4179         estimate D2E/DX2                !
 ! D18   D(8,3,4,9)             10.9681         estimate D2E/DX2                !
 ! D19   D(3,4,5,1)            -17.7608         estimate D2E/DX2                !
 ! D20   D(3,4,5,10)            98.9802         estimate D2E/DX2                !
 ! D21   D(3,4,5,11)          -139.6517         estimate D2E/DX2                !
 ! D22   D(9,4,5,1)            161.8531         estimate D2E/DX2                !
 ! D23   D(9,4,5,10)           -81.406          estimate D2E/DX2                !
 ! D24   D(9,4,5,11)            39.9621         estimate D2E/DX2                !
 --------------------------------------------------------------------------------
 Trust Radius=3.00D-01 FncErr=1.00D-07 GrdErr=1.00D-06 EigMax=2.50D+02 EigMin=1.00D-04
 Number of steps in this run=     63 maximum allowed number of steps=    100.
 GradGradGradGradGradGradGradGradGradGradGradGradGradGradGradGradGradGrad

 Leave Link  103 at Mon Nov 04 14:06:20 2024, MaxMem=  4294967296 cpu:               0.0 elap:               0.1
 (Enter C:\G16W\l202.exe)
                          Input orientation:                          
 ---------------------------------------------------------------------
 Center     Atomic      Atomic             Coordinates (Angstroms)
 Number     Number       Type             X           Y           Z
 ---------------------------------------------------------------------
      1          6           0       -0.510503   -0.310279   -0.577957
      2          6           0        0.807258   -0.523489   -0.343338
      3          6           0        1.492437    0.841388   -0.141353
      4          6           0        0.555374    1.812950   -0.263744
      5          6           0       -0.838853    1.159877   -0.259811
      6          1           0       -1.206401   -1.041723   -0.932380
      7          1           0        1.292881   -1.476672   -0.320711
      8          1           0        2.534521    0.996677    0.045315
      9          1           0        0.752624    2.860656   -0.354874
     10          1           0       -1.274103    1.234140    0.714839
     11          1           0       -1.511151    1.601773   -0.965249
 ---------------------------------------------------------------------
                    Distance matrix (angstroms):
                    1          2          3          4          5
     1  C    0.000000
     2  C    1.355360   0.000000
     3  C    2.351325   1.540505   0.000000
     4  C    2.396441   2.351325   1.355360   0.000000
     5  C    1.539607   2.355924   2.355924   1.539607   0.000000
     6  H    1.070000   2.161102   3.384606   3.420539   2.331198
     7  H    2.163063   1.070000   2.333537   3.371762   3.391075
     8  H    3.371762   2.333537   1.070000   2.163063   3.391075
     9  H    3.420539   3.384606   2.161102   1.070000   2.331198
    10  H    2.153981   2.922509   2.922509   2.153981   1.070000
    11  H    2.192540   3.206015   3.206015   2.192540   1.070000
                    6          7          8          9         10
     6  H    0.000000
     7  H    2.609546   0.000000
     8  H    4.370980   2.791613   0.000000
     9  H    4.404527   4.370980   2.609546   0.000000
    10  H    2.810243   3.874309   3.874309   2.810243   0.000000
    11  H    2.661207   4.213650   4.213650   2.661207   1.736099
                   11
    11  H    0.000000
 Stoichiometry    C5H6
 Framework group  CS[SG(CH2),X(C4H4)]
 Deg. of freedom    15
 Full point group                 CS      NOp   2
 Largest Abelian subgroup         CS      NOp   2
 Largest concise Abelian subgroup CS      NOp   2
                         Standard orientation:                         
 ---------------------------------------------------------------------
 Center     Atomic      Atomic             Coordinates (Angstroms)
 Number     Number       Type             X           Y           Z
 ---------------------------------------------------------------------
      1          6           0       -0.066643   -0.293248   -1.198220
      2          6           0       -0.066643    0.992771   -0.770253
      3          6           0       -0.066643    0.992771    0.770253
      4          6           0       -0.066643   -0.293248    1.198220
      5          6           0        0.227636   -1.214148    0.000000
      6          1           0       -0.248014   -0.615585   -2.202263
      7          1           0       -0.082765    1.860712   -1.395806
      8          1           0       -0.082765    1.860712    1.395806
      9          1           0       -0.248014   -0.615585    2.202263
     10          1           0        1.260217   -1.494641    0.000000
     11          1           0       -0.365052   -2.105002    0.000000
 ---------------------------------------------------------------------
 Rotational constants (GHZ):           8.3456295           7.8290734           4.1834868
 Leave Link  202 at Mon Nov 04 14:06:20 2024, MaxMem=  4294967296 cpu:               0.0 elap:               0.0
 (Enter C:\G16W\l301.exe)
 Standard basis: CC-pVTZ (5D, 7F)
 Ernie: Thresh=  0.10000D-02 Tol=  0.10000D-05 Strict=F.
 Ernie:  15 primitive shells out of 178 were deleted.
 There are   146 symmetry adapted cartesian basis functions of A'  symmetry.
 There are   119 symmetry adapted cartesian basis functions of A"  symmetry.
 There are   128 symmetry adapted basis functions of A'  symmetry.
 There are   106 symmetry adapted basis functions of A"  symmetry.
   234 basis functions,   362 primitive gaussians,   265 cartesian basis functions
    18 alpha electrons       18 beta electrons
       nuclear repulsion energy       154.7209849847 Hartrees.
 IExCor= 4235 DFT=T Ex+Corr=M06 ExCW=0 ScaHFX=  0.270000
 ScaDFX=  1.000000  1.000000  1.000000  1.000000 ScalE2=  1.000000  1.000000
 IRadAn=      5 IRanWt=     -1 IRanGd=            0 ICorTp=0 IEmpDi=  4
 NAtoms=   11 NActive=   11 NUniq=    7 SFac= 2.47D+00 NAtFMM=   60 NAOKFM=F Big=F
 Integral buffers will be    131072 words long.
 Raffenetti 2 integral format.
 Two-electron integral symmetry is turned on.
 ------------------------------------------------------------------------------
 Polarizable Continuum Model (PCM)
 =================================
 Model                : PCM.
 Atomic radii         : SMD-Coulomb.
 Polarization charges : Total charges.
 Charge compensation  : None.
 Solution method      : On-the-fly selection.
 Cavity type          : VdW (van der Waals Surface) (Alpha=1.000).
 Cavity algorithm     : GePol (No added spheres)
                        Default sphere list used, NSphG=   11.
                        Lebedev-Laikov grids with approx.  5.0 points / Ang**2.
                        Smoothing algorithm: York/Karplus (Gamma=1.0000).
                        Polarization charges: spherical gaussians, with
                                              point-specific exponents (IZeta= 3).
                        Self-potential: point-specific (ISelfS= 7).
                        Self-field    : sphere-specific E.n sum rule (ISelfD= 2).
 1st derivatives      : Analytical E(r).r(x)/FMM algorithm (CHGder, D1EAlg=3).
                        Cavity 1st derivative terms included.
 Solvent              : Chloroform, Eps=   4.711300 Eps(inf)=   2.090627
 ------------------------------------------------------------------------------
 Spheres list:
 ISph  on   Nord     Re0    Alpha      Xe            Ye            Ze
    1   C      1    1.8500  1.000     -0.066643     -0.293248     -1.198220
    2   C      2    1.8500  1.000     -0.066643      0.992771     -0.770253
    3   C      3    1.8500  1.000     -0.066643      0.992771      0.770253
    4   C      4    1.8500  1.000     -0.066643     -0.293248      1.198220
    5   C      5    1.8500  1.000      0.227636     -1.214148      0.000000
    6   H      6    1.2000  1.000     -0.248014     -0.615585     -2.202263
    7   H      7    1.2000  1.000     -0.082765      1.860712     -1.395806
    8   H      8    1.2000  1.000     -0.082765      1.860712      1.395806
    9   H      9    1.2000  1.000     -0.248014     -0.615585      2.202263
   10   H     10    1.2000  1.000      1.260217     -1.494641      0.000000
   11   H     11    1.2000  1.000     -0.365052     -2.105002      0.000000
 ------------------------------------------------------------------------------
 GePol: Number of generator spheres                  =      11
 GePol: Total number of spheres                      =      11
 GePol: Number of exposed spheres                    =      11 (100.00%)
 GePol: Number of points                             =     919
 GePol: Average weight of points                     =       0.11
 GePol: Minimum weight of points                     =   0.28D-05
 GePol: Maximum weight of points                     =    0.17992
 GePol: Number of points with low weight             =      57
 GePol: Fraction of low-weight points (<1% of avg)   =       6.20%
 GePol: Cavity surface area                          =    103.171 Ang**2
 GePol: Cavity volume                                =     83.181 Ang**3
 ------------------------------------------------------------------------------
 Atomic radii for non-electrostatic terms: SMD-CDS.
 ------------------------------------------------------------------------------
 PCM non-electrostatic energy =        -0.0043166726 Hartrees.
 Nuclear repulsion after PCM non-electrostatic terms =      154.7166683120 Hartrees.
 Leave Link  301 at Mon Nov 04 14:06:21 2024, MaxMem=  4294967296 cpu:               0.0 elap:               0.1
 (Enter C:\G16W\l302.exe)
 NPDir=0 NMtPBC=     1 NCelOv=     1 NCel=       1 NClECP=     1 NCelD=      1
         NCelK=      1 NCelE2=     1 NClLst=     1 CellRange=     0.0.
 One-electron integrals computed using PRISM.
 One-electron integral symmetry used in STVInt
 NBasis=   234 RedAO= T EigKep=  1.76D-04  NBF=   128   106
 NBsUse=   234 1.00D-06 EigRej= -1.00D+00 NBFU=   128   106
 Precomputing XC quadrature grid using
 IXCGrd= 4 IRadAn=           5 IRanWt=          -1 IRanGd=           0 AccXCQ= 0.00D+00.
 Generated NRdTot=       0 NPtTot=           0 NUsed=           0 NTot=          32
 NSgBfM=   265   265   265   265   265 MxSgAt=    11 MxSgA2=    11.
 Leave Link  302 at Mon Nov 04 14:06:22 2024, MaxMem=  4294967296 cpu:               1.0 elap:               0.4
 (Enter C:\G16W\l303.exe)
 DipDrv:  MaxL=1.
 Leave Link  303 at Mon Nov 04 14:06:22 2024, MaxMem=  4294967296 cpu:               0.0 elap:               0.1
 (Enter C:\G16W\l401.exe)
 ExpMin= 1.03D-01 ExpMax= 8.24D+03 ExpMxC= 2.81D+02 IAcc=3 IRadAn=         5 AccDes= 0.00D+00
 Harris functional with IExCor= 1009 and IRadAn=       5 diagonalized for initial guess.
 HarFok:  IExCor= 1009 AccDes= 0.00D+00 IRadAn=         5 IDoV= 1 UseB2=F ITyADJ=14
 ICtDFT=  3500011 ScaDFX=  1.000000  1.000000  1.000000  1.000000
 FoFCou: FMM=F IPFlag=           0 FMFlag=      100000 FMFlg1=           0
         NFxFlg=           0 DoJE=T BraDBF=F KetDBF=T FulRan=T
         wScrn=  0.000000 ICntrl=       500 IOpCl=  0 I1Cent=   200000004 NGrid=           0
         NMat0=    1 NMatS0=      1 NMatT0=    0 NMatD0=    1 NMtDS0=    0 NMtDT0=    0
 Petite list used in FoFCou.
 Harris En= -194.018427150248    
 JPrj=0 DoOrth=F DoCkMO=F.
 Initial guess orbital symmetries:
       Occupied  (A') (A") (A') (A') (A") (A') (A") (A') (A') (A")
                 (A') (A') (A") (A') (A") (A') (A') (A")
       Virtual   (A') (A") (A') (A") (A') (A") (A') (A") (A') (A')
                 (A') (A") (A') (A") (A') (A') (A") (A') (A") (A')
                 (A") (A') (A') (A") (A') (A") (A') (A') (A") (A')
                 (A") (A') (A") (A') (A") (A') (A") (A') (A") (A')
                 (A") (A') (A') (A") (A') (A") (A') (A') (A") (A")
                 (A') (A') (A') (A') (A") (A') (A") (A') (A") (A')
                 (A") (A") (A") (A") (A') (A') (A") (A") (A') (A')
                 (A") (A') (A") (A') (A') (A") (A') (A") (A') (A")
                 (A") (A') (A') (A') (A") (A') (A") (A') (A') (A')
                 (A") (A') (A") (A") (A') (A') (A') (A") (A') (A")
                 (A') (A") (A') (A') (A') (A") (A") (A") (A') (A')
                 (A") (A') (A") (A') (A") (A') (A") (A') (A') (A')
                 (A") (A") (A') (A") (A') (A") (A') (A") (A') (A")
                 (A') (A') (A") (A") (A') (A') (A") (A') (A") (A")
                 (A') (A") (A") (A") (A') (A') (A") (A') (A') (A')
                 (A") (A') (A') (A") (A') (A") (A") (A') (A") (A')
                 (A') (A") (A') (A') (A") (A') (A") (A') (A") (A")
                 (A") (A') (A") (A') (A") (A') (A') (A") (A') (A")
                 (A") (A") (A') (A") (A') (A') (A') (A") (A") (A')
                 (A') (A") (A') (A') (A") (A") (A') (A") (A") (A')
                 (A') (A") (A") (A') (A') (A") (A') (A') (A') (A")
                 (A") (A') (A") (A') (A') (A")
 The electronic state of the initial guess is 1-A'.
 Leave Link  401 at Mon Nov 04 14:06:25 2024, MaxMem=  4294967296 cpu:               3.0 elap:               2.8
 (Enter C:\G16W\l502.exe)
 Keep R1 ints in memory in symmetry-blocked form, NReq=567100300.
 FoFCou: FMM=F IPFlag=           0 FMFlag=           0 FMFlg1=           0
         NFxFlg=           0 DoJE=F BraDBF=F KetDBF=F FulRan=T
         wScrn=  0.000000 ICntrl=       600 IOpCl=  0 I1Cent=           0 NGrid=           0
         NMat0=    1 NMatS0=  27495 NMatT0=    0 NMatD0=    1 NMtDS0=    0 NMtDT0=    0
 Petite list used in FoFCou.
 Closed shell SCF:
 Using DIIS extrapolation, IDIIS=  1040.
 NGot=  4294967296 LenX=  4105725297 LenY=  4105654631
 Requested convergence on RMS density matrix=1.00D-08 within 128 cycles.
 Requested convergence on MAX density matrix=1.00D-06.
 Requested convergence on             energy=1.00D-06.
 No special actions if energy rises.

 Cycle   1  Pass 1  IDiag  1:
 Inv3:  Mode=1 IEnd=     2533683.
 Iteration    1 A*A^-1 deviation from unit magnitude is 3.55D-15 for     54.
 Iteration    1 A*A^-1 deviation from orthogonality  is 3.63D-15 for    416    141.
 Iteration    1 A^-1*A deviation from unit magnitude is 3.77D-15 for      4.
 Iteration    1 A^-1*A deviation from orthogonality  is 3.33D-15 for    454    416.
 E= -193.869082899209    
 DIIS: error= 2.61D-02 at cycle   1 NSaved=   1.
 NSaved= 1 IEnMin= 1 EnMin= -193.869082899209     IErMin= 1 ErrMin= 2.61D-02
 ErrMax= 2.61D-02  0.00D+00 EMaxC= 1.00D-01 BMatC= 1.18D-01 BMatP= 1.18D-01
 IDIUse=3 WtCom= 7.39D-01 WtEn= 2.61D-01
 Coeff-Com:  0.100D+01
 Coeff-En:   0.100D+01
 Coeff:      0.100D+01
 Gap=     0.205 Goal=   None    Shift=    0.000
 GapD=    0.205 DampG=1.000 DampE=0.500 DampFc=0.5000 IDamp=-1.
 Damping current iteration by 5.00D-01
 RMSDP=2.44D-03 MaxDP=6.15D-02              OVMax= 1.52D-01

 Cycle   2  Pass 1  IDiag  1:
 E= -193.927877476026     Delta-E=       -0.058794576817 Rises=F Damp=T
 DIIS: error= 4.81D-03 at cycle   2 NSaved=   2.
 NSaved= 2 IEnMin= 2 EnMin= -193.927877476026     IErMin= 2 ErrMin= 4.81D-03
 ErrMax= 4.81D-03  0.00D+00 EMaxC= 1.00D-01 BMatC= 4.69D-03 BMatP= 1.18D-01
 IDIUse=3 WtCom= 9.52D-01 WtEn= 4.81D-02
 Coeff-Com:  0.276D-01 0.972D+00
 Coeff-En:   0.446D-01 0.955D+00
 Coeff:      0.285D-01 0.972D+00
 Gap=     0.247 Goal=   None    Shift=    0.000
 RMSDP=1.12D-03 MaxDP=2.99D-02 DE=-5.88D-02 OVMax= 8.36D-02

 Cycle   3  Pass 1  IDiag  1:
 E= -193.995425592529     Delta-E=       -0.067548116502 Rises=F Damp=F
 DIIS: error= 3.72D-03 at cycle   3 NSaved=   3.
 NSaved= 3 IEnMin= 3 EnMin= -193.995425592529     IErMin= 3 ErrMin= 3.72D-03
 ErrMax= 3.72D-03  0.00D+00 EMaxC= 1.00D-01 BMatC= 1.16D-03 BMatP= 4.69D-03
 IDIUse=3 WtCom= 9.63D-01 WtEn= 3.72D-02
 Coeff-Com: -0.269D-01 0.304D+00 0.723D+00
 Coeff-En:   0.000D+00 0.000D+00 0.100D+01
 Coeff:     -0.259D-01 0.292D+00 0.734D+00
 Gap=     0.213 Goal=   None    Shift=    0.000
 RMSDP=1.11D-04 MaxDP=1.83D-03 DE=-6.75D-02 OVMax= 8.77D-03

 Cycle   4  Pass 1  IDiag  1:
 E= -193.996379533521     Delta-E=       -0.000953940992 Rises=F Damp=F
 DIIS: error= 6.79D-04 at cycle   4 NSaved=   4.
 NSaved= 4 IEnMin= 4 EnMin= -193.996379533521     IErMin= 4 ErrMin= 6.79D-04
 ErrMax= 6.79D-04  0.00D+00 EMaxC= 1.00D-01 BMatC= 6.51D-05 BMatP= 1.16D-03
 IDIUse=3 WtCom= 9.93D-01 WtEn= 6.79D-03
 Coeff-Com: -0.835D-02 0.530D-01 0.217D+00 0.738D+00
 Coeff-En:   0.000D+00 0.000D+00 0.000D+00 0.100D+01
 Coeff:     -0.829D-02 0.526D-01 0.216D+00 0.740D+00
 Gap=     0.213 Goal=   None    Shift=    0.000
 RMSDP=4.13D-05 MaxDP=1.30D-03 DE=-9.54D-04 OVMax= 5.26D-03

 Cycle   5  Pass 1  IDiag  1:
 E= -193.996398605373     Delta-E=       -0.000019071853 Rises=F Damp=F
 DIIS: error= 4.82D-04 at cycle   5 NSaved=   5.
 NSaved= 5 IEnMin= 5 EnMin= -193.996398605373     IErMin= 5 ErrMin= 4.82D-04
 ErrMax= 4.82D-04  0.00D+00 EMaxC= 1.00D-01 BMatC= 4.49D-05 BMatP= 6.51D-05
 IDIUse=3 WtCom= 9.95D-01 WtEn= 4.82D-03
 Coeff-Com: -0.263D-02 0.568D-02 0.656D-01 0.473D+00 0.458D+00
 Coeff-En:   0.000D+00 0.000D+00 0.000D+00 0.422D+00 0.578D+00
 Coeff:     -0.261D-02 0.566D-02 0.653D-01 0.473D+00 0.459D+00
 Gap=     0.213 Goal=   None    Shift=    0.000
 RMSDP=1.74D-05 MaxDP=5.81D-04 DE=-1.91D-05 OVMax= 2.71D-03

 Cycle   6  Pass 1  IDiag  1:
 E= -193.996443613704     Delta-E=       -0.000045008331 Rises=F Damp=F
 DIIS: error= 3.11D-05 at cycle   6 NSaved=   6.
 NSaved= 6 IEnMin= 6 EnMin= -193.996443613704     IErMin= 6 ErrMin= 3.11D-05
 ErrMax= 3.11D-05  0.00D+00 EMaxC= 1.00D-01 BMatC= 2.53D-07 BMatP= 4.49D-05
 IDIUse=1 WtCom= 1.00D+00 WtEn= 0.00D+00
 Coeff-Com:  0.160D-03-0.134D-02 0.202D-03 0.404D-01 0.805D-01 0.880D+00
 Coeff:      0.160D-03-0.134D-02 0.202D-03 0.404D-01 0.805D-01 0.880D+00
 Gap=     0.213 Goal=   None    Shift=    0.000
 RMSDP=3.66D-06 MaxDP=1.48D-04 DE=-4.50D-05 OVMax= 2.09D-04

 Cycle   7  Pass 1  IDiag  1:
 E= -193.996443810678     Delta-E=       -0.000000196974 Rises=F Damp=F
 DIIS: error= 2.85D-05 at cycle   7 NSaved=   7.
 NSaved= 7 IEnMin= 7 EnMin= -193.996443810678     IErMin= 7 ErrMin= 2.85D-05
 ErrMax= 2.85D-05  0.00D+00 EMaxC= 1.00D-01 BMatC= 8.61D-08 BMatP= 2.53D-07
 IDIUse=1 WtCom= 1.00D+00 WtEn= 0.00D+00
 Coeff-Com:  0.333D-03-0.130D-02-0.520D-02-0.190D-01 0.213D-02 0.415D+00
 Coeff-Com:  0.608D+00
 Coeff:      0.333D-03-0.130D-02-0.520D-02-0.190D-01 0.213D-02 0.415D+00
 Coeff:      0.608D+00
 Gap=     0.213 Goal=   None    Shift=    0.000
 RMSDP=1.13D-06 MaxDP=3.67D-05 DE=-1.97D-07 OVMax= 8.48D-05

 Cycle   8  Pass 1  IDiag  1:
 E= -193.996443890256     Delta-E=       -0.000000079578 Rises=F Damp=F
 DIIS: error= 3.87D-06 at cycle   8 NSaved=   8.
 NSaved= 8 IEnMin= 8 EnMin= -193.996443890256     IErMin= 8 ErrMin= 3.87D-06
 ErrMax= 3.87D-06  0.00D+00 EMaxC= 1.00D-01 BMatC= 3.35D-09 BMatP= 8.61D-08
 IDIUse=1 WtCom= 1.00D+00 WtEn= 0.00D+00
 Coeff-Com:  0.727D-04-0.157D-03-0.101D-02-0.100D-01-0.111D-01-0.355D-01
 Coeff-Com:  0.128D+00 0.929D+00
 Coeff:      0.727D-04-0.157D-03-0.101D-02-0.100D-01-0.111D-01-0.355D-01
 Coeff:      0.128D+00 0.929D+00
 Gap=     0.213 Goal=   None    Shift=    0.000
 RMSDP=4.61D-07 MaxDP=2.17D-05 DE=-7.96D-08 OVMax= 1.72D-05

 Cycle   9  Pass 1  IDiag  1:
 E= -193.996443893653     Delta-E=       -0.000000003397 Rises=F Damp=F
 DIIS: error= 2.80D-07 at cycle   9 NSaved=   9.
 NSaved= 9 IEnMin= 9 EnMin= -193.996443893653     IErMin= 9 ErrMin= 2.80D-07
 ErrMax= 2.80D-07  0.00D+00 EMaxC= 1.00D-01 BMatC= 2.18D-11 BMatP= 3.35D-09
 IDIUse=1 WtCom= 1.00D+00 WtEn= 0.00D+00
 Coeff-Com: -0.553D-05 0.426D-04 0.180D-03 0.204D-03-0.367D-03-0.111D-01
 Coeff-Com: -0.925D-02 0.279D-01 0.992D+00
 Coeff:     -0.553D-05 0.426D-04 0.180D-03 0.204D-03-0.367D-03-0.111D-01
 Coeff:     -0.925D-02 0.279D-01 0.992D+00
 Gap=     0.213 Goal=   None    Shift=    0.000
 RMSDP=4.67D-08 MaxDP=1.73D-06 DE=-3.40D-09 OVMax= 1.91D-06

 Cycle  10  Pass 1  IDiag  1:
 E= -193.996443893674     Delta-E=       -0.000000000020 Rises=F Damp=F
 DIIS: error= 8.10D-08 at cycle  10 NSaved=  10.
 NSaved=10 IEnMin=10 EnMin= -193.996443893674     IErMin=10 ErrMin= 8.10D-08
 ErrMax= 8.10D-08  0.00D+00 EMaxC= 1.00D-01 BMatC= 9.39D-13 BMatP= 2.18D-11
 IDIUse=1 WtCom= 1.00D+00 WtEn= 0.00D+00
 Coeff-Com: -0.179D-05 0.909D-05 0.443D-04 0.174D-03 0.124D-03-0.878D-03
 Coeff-Com: -0.329D-02-0.124D-01 0.168D+00 0.848D+00
 Coeff:     -0.179D-05 0.909D-05 0.443D-04 0.174D-03 0.124D-03-0.878D-03
 Coeff:     -0.329D-02-0.124D-01 0.168D+00 0.848D+00
 Gap=     0.213 Goal=   None    Shift=    0.000
 RMSDP=5.99D-09 MaxDP=1.91D-07 DE=-2.03D-11 OVMax= 2.82D-07

 Error on total polarization charges =  0.02955
 SCF Done:  E(RM06) =  -193.996443894     A.U. after   10 cycles
            NFock= 10  Conv=0.60D-08     -V/T= 2.0088
 KE= 1.922974132393D+02 PE=-7.587326525199D+02 EE= 2.177221270749D+02
 SMD-CDS (non-electrostatic) energy       (kcal/mol) =      -2.71
 (included in total energy above)
 Leave Link  502 at Mon Nov 04 14:07:53 2024, MaxMem=  4294967296 cpu:              87.0 elap:              87.0
 (Enter C:\G16W\l601.exe)
 Copying SCF densities to generalized density rwf, IOpCl= 0 IROHF=0.

 **********************************************************************

            Population analysis using the SCF Density.

 **********************************************************************

 Orbital symmetries:
       Occupied  (A') (A') (A") (A") (A') (A') (A") (A') (A') (A")
                 (A') (A') (A") (A') (A") (A') (A') (A")
       Virtual   (A') (A') (A") (A') (A") (A') (A") (A') (A") (A')
                 (A") (A') (A') (A') (A') (A") (A") (A') (A") (A')
                 (A") (A') (A") (A') (A') (A") (A') (A") (A') (A')
                 (A') (A") (A") (A") (A') (A') (A") (A') (A") (A')
                 (A") (A') (A") (A') (A') (A') (A") (A') (A") (A")
                 (A') (A') (A') (A") (A') (A') (A") (A') (A") (A")
                 (A') (A") (A") (A') (A") (A') (A') (A") (A") (A')
                 (A') (A") (A') (A") (A') (A") (A') (A") (A') (A")
                 (A") (A') (A') (A') (A") (A') (A") (A') (A') (A')
                 (A") (A') (A") (A") (A') (A') (A') (A") (A') (A")
                 (A') (A") (A') (A') (A") (A') (A") (A") (A') (A')
                 (A") (A') (A') (A") (A") (A") (A') (A') (A') (A")
                 (A') (A") (A") (A') (A") (A') (A') (A") (A') (A')
                 (A") (A') (A") (A") (A') (A") (A') (A') (A") (A')
                 (A") (A") (A") (A") (A') (A') (A') (A") (A') (A')
                 (A") (A') (A') (A") (A') (A") (A') (A") (A") (A')
                 (A") (A') (A') (A") (A') (A') (A") (A') (A") (A")
                 (A") (A') (A") (A') (A") (A') (A') (A") (A') (A")
                 (A") (A') (A") (A") (A') (A') (A') (A") (A") (A')
                 (A') (A") (A') (A") (A') (A") (A') (A") (A') (A')
                 (A") (A") (A') (A") (A') (A') (A") (A') (A') (A")
                 (A") (A') (A") (A') (A') (A")
 The electronic state is 1-A'.
 Alpha  occ. eigenvalues --  -10.24022 -10.23992 -10.23967 -10.23686 -10.23683
 Alpha  occ. eigenvalues --   -0.85057  -0.71282  -0.70142  -0.55679  -0.53558
 Alpha  occ. eigenvalues --   -0.51623  -0.44302  -0.40786  -0.37594  -0.36606
 Alpha  occ. eigenvalues --   -0.35848  -0.30565  -0.23028
 Alpha virt. eigenvalues --   -0.01727   0.05767   0.06122   0.07959   0.07960
 Alpha virt. eigenvalues --    0.09450   0.09985   0.11228   0.17879   0.18675
 Alpha virt. eigenvalues --    0.22621   0.23744   0.26813   0.30228   0.30589
 Alpha virt. eigenvalues --    0.32237   0.33404   0.34653   0.34858   0.37963
 Alpha virt. eigenvalues --    0.38411   0.39926   0.40695   0.41221   0.42087
 Alpha virt. eigenvalues --    0.42735   0.44064   0.46941   0.47051   0.47752
 Alpha virt. eigenvalues --    0.48668   0.49357   0.54676   0.57120   0.57581
 Alpha virt. eigenvalues --    0.61226   0.64097   0.66366   0.67755   0.74568
 Alpha virt. eigenvalues --    0.74820   0.76314   0.80913   0.83701   0.89643
 Alpha virt. eigenvalues --    0.92699   0.93018   0.96131   0.97049   0.98529
 Alpha virt. eigenvalues --    0.99980   1.00583   1.03572   1.08930   1.09580
 Alpha virt. eigenvalues --    1.10696   1.12212   1.13940   1.14970   1.15852
 Alpha virt. eigenvalues --    1.18635   1.19189   1.22284   1.24497   1.24871
 Alpha virt. eigenvalues --    1.26805   1.29529   1.30033   1.31068   1.33626
 Alpha virt. eigenvalues --    1.39002   1.40554   1.41855   1.42098   1.46543
 Alpha virt. eigenvalues --    1.49828   1.52517   1.55977   1.68176   1.78777
 Alpha virt. eigenvalues --    1.83223   1.87680   1.99213   2.05259   2.10225
 Alpha virt. eigenvalues --    2.16156   2.19640   2.21476   2.26302   2.29507
 Alpha virt. eigenvalues --    2.31874   2.34789   2.37021   2.39055   2.42492
 Alpha virt. eigenvalues --    2.45488   2.51553   2.53108   2.54009   2.59006
 Alpha virt. eigenvalues --    2.59218   2.60765   2.63332   2.64982   2.67553
 Alpha virt. eigenvalues --    2.67805   2.72949   2.77037   2.79608   2.81683
 Alpha virt. eigenvalues --    2.82879   2.84512   2.86400   2.86493   2.89539
 Alpha virt. eigenvalues --    2.92400   2.92652   2.93477   2.95938   2.98205
 Alpha virt. eigenvalues --    2.99671   3.02896   3.05947   3.06509   3.09226
 Alpha virt. eigenvalues --    3.10737   3.13675   3.15859   3.16815   3.20355
 Alpha virt. eigenvalues --    3.21119   3.21585   3.23643   3.25175   3.27220
 Alpha virt. eigenvalues --    3.28540   3.29183   3.34718   3.36966   3.37610
 Alpha virt. eigenvalues --    3.38114   3.46765   3.48531   3.52697   3.54196
 Alpha virt. eigenvalues --    3.54805   3.60346   3.60726   3.62176   3.66644
 Alpha virt. eigenvalues --    3.70497   3.73493   3.76130   3.76810   3.82495
 Alpha virt. eigenvalues --    3.84873   3.85927   3.86027   3.89282   3.91873
 Alpha virt. eigenvalues --    3.92079   3.92534   4.00000   4.04443   4.04964
 Alpha virt. eigenvalues --    4.08550   4.08753   4.12792   4.13765   4.15361
 Alpha virt. eigenvalues --    4.15969   4.17547   4.22709   4.24932   4.26858
 Alpha virt. eigenvalues --    4.31841   4.33748   4.37045   4.41188   4.41383
 Alpha virt. eigenvalues --    4.52197   4.55275   4.56602   4.59135   4.59781
 Alpha virt. eigenvalues --    4.62221   4.65227   4.71176   4.73847   4.78774
 Alpha virt. eigenvalues --    4.81669   4.86849   4.88085   4.92719   4.94362
 Alpha virt. eigenvalues --    4.99650   5.02183   5.12957   5.14371   5.24363
 Alpha virt. eigenvalues --    5.26201   5.33708   5.38778   5.39098   5.53959
 Alpha virt. eigenvalues --    5.62049   5.63181   5.82755   5.88560   6.16155
 Alpha virt. eigenvalues --    6.17003   9.76382  10.78615  12.58618  13.08861
 Alpha virt. eigenvalues --   13.40715
          Condensed to atoms (all electrons):
               1          2          3          4          5          6
     1  C    5.214132   0.503597  -0.076996  -0.092131   0.324370   0.423630
     2  C    0.503597   5.169213   0.321732  -0.076996  -0.079322  -0.049601
     3  C   -0.076996   0.321732   5.169213   0.503597  -0.079322   0.007391
     4  C   -0.092131  -0.076996   0.503597   5.214132   0.324370   0.002826
     5  C    0.324370  -0.079322  -0.079322   0.324370   4.868280  -0.027941
     6  H    0.423630  -0.049601   0.007391   0.002826  -0.027941   0.484240
     7  H   -0.047263   0.421987  -0.033676   0.004538   0.006575  -0.003756
     8  H    0.004538  -0.033676   0.421987  -0.047263   0.006575  -0.000157
     9  H    0.002826   0.007391  -0.049601   0.423630  -0.027941  -0.000082
    10  H   -0.024960  -0.003484  -0.003484  -0.024960   0.406634   0.000210
    11  H   -0.034242   0.005668   0.005668  -0.034242   0.420165  -0.000690
               7          8          9         10         11
     1  C   -0.047263   0.004538   0.002826  -0.024960  -0.034242
     2  C    0.421987  -0.033676   0.007391  -0.003484   0.005668
     3  C   -0.033676   0.421987  -0.049601  -0.003484   0.005668
     4  C    0.004538  -0.047263   0.423630  -0.024960  -0.034242
     5  C    0.006575   0.006575  -0.027941   0.406634   0.420165
     6  H   -0.003756  -0.000157  -0.000082   0.000210  -0.000690
     7  H    0.490899   0.000668  -0.000157  -0.000328  -0.000339
     8  H    0.000668   0.490899  -0.003756  -0.000328  -0.000339
     9  H   -0.000157  -0.003756   0.484240   0.000210  -0.000690
    10  H   -0.000328  -0.000328   0.000210   0.529245  -0.024857
    11  H   -0.000339  -0.000339  -0.000690  -0.024857   0.549095
 Mulliken charges:
               1
     1  C   -0.197502
     2  C   -0.186510
     3  C   -0.186510
     4  C   -0.197502
     5  C   -0.142444
     6  H    0.163930
     7  H    0.160851
     8  H    0.160851
     9  H    0.163930
    10  H    0.146102
    11  H    0.114802
 Sum of Mulliken charges =   0.00000
 Mulliken charges with hydrogens summed into heavy atoms:
               1
     1  C   -0.033572
     2  C   -0.025658
     3  C   -0.025658
     4  C   -0.033572
     5  C    0.118460
 Electronic spatial extent (au):  <R**2>=            337.6555
 Charge=              0.0000 electrons
 Dipole moment (field-independent basis, Debye):
    X=              0.1506    Y=             -0.5631    Z=              0.0000  Tot=              0.5829
 Quadrupole moment (field-independent basis, Debye-Ang):
   XX=            -32.6433   YY=            -26.9545   ZZ=            -28.2118
   XY=             -0.2672   XZ=              0.0000   YZ=              0.0000
 Traceless Quadrupole moment (field-independent basis, Debye-Ang):
   XX=             -3.3734   YY=              2.3154   ZZ=              1.0580
   XY=             -0.2672   XZ=              0.0000   YZ=              0.0000
 Octapole moment (field-independent basis, Debye-Ang**2):
  XXX=              2.0688  YYY=              1.6817  ZZZ=              0.0000  XYY=              0.0955
  XXY=             -3.0181  XXZ=              0.0000  XZZ=             -2.5130  YZZ=             -0.4088
  YYZ=              0.0000  XYZ=              0.0000
 Hexadecapole moment (field-independent basis, Debye-Ang**3):
 XXXX=            -46.5106 YYYY=           -191.9693 ZZZZ=           -198.5288 XXXY=              6.5828
 XXXZ=              0.0000 YYYX=              8.9719 YYYZ=              0.0000 ZZZX=              0.0000
 ZZZY=              0.0000 XXYY=            -41.9198 XXZZ=            -48.9388 YYZZ=            -63.4839
 XXYZ=              0.0000 YYXZ=              0.0000 ZZXY=              3.7089
 N-N= 1.547166683120D+02 E-N=-7.587326547758D+02  KE= 1.922974132393D+02
 Symmetry A'   KE= 1.152249328861D+02
 Symmetry A"   KE= 7.707248035317D+01
 No NMR shielding tensors so no spin-rotation constants.
 Leave Link  601 at Mon Nov 04 14:07:54 2024, MaxMem=  4294967296 cpu:               0.0 elap:               0.5
 (Enter C:\G16W\l701.exe)
 ... and contract with generalized density number  0.
 Compute integral first derivatives.
 D1PCM: PCM CHGder 1st derivatives, ID1Alg=3 FixD1E=F DoIter=F DoCFld=F I1PDM=0.
 GePol: Maximum number of non-zero 1st derivatives   =     197
 Leave Link  701 at Mon Nov 04 14:07:56 2024, MaxMem=  4294967296 cpu:               2.0 elap:               1.3
 (Enter C:\G16W\l702.exe)
 L702 exits ... SP integral derivatives will be done elsewhere.
 Leave Link  702 at Mon Nov 04 14:07:56 2024, MaxMem=  4294967296 cpu:               0.0 elap:               0.1
 (Enter C:\G16W\l703.exe)
 Integral derivatives from FoFJK, PRISM(SPDF).
 Compute integral first derivatives, UseDBF=F ICtDFT=           0.
 Calling FoFJK, ICntrl=      2127 FMM=F ISym2X=1 I1Cent= 0 IOpClX= 0 NMat=1 NMatS=1 NMatT=0.
 FoFJK:  IHMeth= 1 ICntrl=    2127 DoSepK=F KAlg= 0 I1Cent=           0 FoldK=F
 IRaf=         0 NMat=       1 IRICut=       1 DoRegI=T DoRafI=F ISym2E= 1 IDoP0=0 IntGTp=1.
 FoFCou: FMM=F IPFlag=           0 FMFlag=      100000 FMFlg1=         800
         NFxFlg=           0 DoJE=F BraDBF=F KetDBF=F FulRan=T
         wScrn=  0.000000 ICntrl=      2127 IOpCl=  0 I1Cent=           0 NGrid=           0
         NMat0=    1 NMatS0=      1 NMatT0=    0 NMatD0=    1 NMtDS0=    0 NMtDT0=    0
 Petite list used in FoFCou.
 Leave Link  703 at Mon Nov 04 14:08:11 2024, MaxMem=  4294967296 cpu:              14.0 elap:              14.0
 (Enter C:\G16W\l716.exe)
 Dipole        = 5.92667379D-02-2.21530992D-01-6.66133815D-16
 ***** Axes restored to original set *****
 -------------------------------------------------------------------
 Center     Atomic                   Forces (Hartrees/Bohr)
 Number     Number              X              Y              Z
 -------------------------------------------------------------------
      1        6           0.024936807    0.020969791    0.020584670
      2        6          -0.008639879    0.043632334    0.001401738
      3        6          -0.039773195   -0.018385257   -0.007776132
      4        6          -0.003857372   -0.036388238    0.012096360
      5        6           0.039425664   -0.014136048   -0.038218893
      6        1          -0.008224840   -0.005146317    0.005571310
      7        1           0.006473847   -0.005194778   -0.004039665
      8        1           0.008477822   -0.001202857   -0.003448907
      9        1          -0.001564493    0.008121100    0.007534731
     10        1          -0.006768644    0.001229096    0.014655333
     11        1          -0.010485717    0.006501174   -0.008360545
 -------------------------------------------------------------------
 Cartesian Forces:  Max     0.043632334 RMS     0.018299929
 Leave Link  716 at Mon Nov 04 14:08:11 2024, MaxMem=  4294967296 cpu:               0.0 elap:               0.1
 (Enter C:\G16W\l103.exe)

 GradGradGradGradGradGradGradGradGradGradGradGradGradGradGradGradGradGrad
 Berny optimization.
 FormGI is forming the generalized inverse of G from B-inverse, IUseBI=4.
 Internal  Forces:  Max     0.037958529 RMS     0.009496133
 Search for a local minimum.
 Step number   1 out of a maximum of   63
 All quantities printed in internal units (Hartrees-Bohrs-Radians)
 RMS Force = .94961D-02 SwitMx=.10000D-02 MixMth= 1
 Mixed Optimization -- RFO/linear search
 Second derivative matrix not updated -- first step.
 ITU=  0
     Eigenvalues ---    0.00572   0.00799   0.01283   0.01413   0.01462
     Eigenvalues ---    0.01898   0.05188   0.07066   0.08141   0.09431
     Eigenvalues ---    0.15994   0.15997   0.15999   0.15999   0.21646
     Eigenvalues ---    0.21750   0.27026   0.27792   0.28511   0.37230
     Eigenvalues ---    0.37230   0.37230   0.37230   0.37230   0.37230
     Eigenvalues ---    0.48991   0.53339
 RFO step:  Lambda=-2.38146083D-02 EMin= 5.71771969D-03
 Linear search not attempted -- first point.
 Iteration  1 RMS(Cart)=  0.07969508 RMS(Int)=  0.00386803
 Iteration  2 RMS(Cart)=  0.00442788 RMS(Int)=  0.00194446
 Iteration  3 RMS(Cart)=  0.00000513 RMS(Int)=  0.00194446
 Iteration  4 RMS(Cart)=  0.00000000 RMS(Int)=  0.00194446
 ITry= 1 IFail=0 DXMaxC= 2.81D-01 DCOld= 1.00D+10 DXMaxT= 3.00D-01 DXLimC= 3.00D+00 Rises=F
 ClnCor:  largest displacement from symmetrization is 1.50D-08 for atom     8.
 Variable       Old X    -DE/DX   Delta X   Delta X   Delta X     New X
                                 (Linear)    (Quad)   (Total)
    R1        2.56126  -0.02059   0.00000  -0.03740  -0.03710   2.52415
    R2        2.90944  -0.02403   0.00000  -0.07405  -0.07477   2.83466
    R3        2.02201   0.00702   0.00000   0.01773   0.01773   2.03973
    R4        2.91113  -0.03796   0.00000  -0.12769  -0.12677   2.78437
    R5        2.02201   0.00748   0.00000   0.01888   0.01888   2.04089
    R6        2.56126  -0.02059   0.00000  -0.03740  -0.03710   2.52415
    R7        2.02201   0.00748   0.00000   0.01888   0.01888   2.04089
    R8        2.90944  -0.02403   0.00000  -0.07405  -0.07477   2.83466
    R9        2.02201   0.00702   0.00000   0.01773   0.01773   2.03973
   R10        2.02201   0.01619   0.00000   0.04086   0.04086   2.06287
   R11        2.02201   0.01479   0.00000   0.03733   0.03733   2.05934
    A1        1.89842   0.00128   0.00000   0.01968   0.01409   1.91251
    A2        2.19215   0.00198   0.00000   0.00422   0.00618   2.19833
    A3        2.19260  -0.00326   0.00000  -0.02428  -0.02230   2.17030
    A4        1.89205   0.00182   0.00000   0.01307   0.00943   1.90148
    A5        2.19575   0.00162   0.00000   0.00743   0.00913   2.20488
    A6        2.19522  -0.00344   0.00000  -0.02011  -0.01840   2.17682
    A7        1.89205   0.00182   0.00000   0.01307   0.00943   1.90148
    A8        2.19522  -0.00344   0.00000  -0.02011  -0.01840   2.17682
    A9        2.19575   0.00162   0.00000   0.00743   0.00913   2.20488
   A10        1.89842   0.00128   0.00000   0.01968   0.01409   1.91251
   A11        2.19215   0.00198   0.00000   0.00422   0.00618   2.19833
   A12        2.19260  -0.00326   0.00000  -0.02428  -0.02230   2.17030
   A13        1.78379  -0.00258   0.00000   0.01505   0.00635   1.79015
   A14        1.91905  -0.00389   0.00000  -0.05325  -0.05211   1.86694
   A15        1.97373   0.00543   0.00000   0.04942   0.04962   2.02336
   A16        1.91905  -0.00389   0.00000  -0.05325  -0.05211   1.86694
   A17        1.97373   0.00543   0.00000   0.04942   0.04962   2.02336
   A18        1.89261  -0.00095   0.00000  -0.01123  -0.01060   1.88201
    D1       -0.20327   0.00575   0.00000   0.13406   0.13509  -0.06818
    D2        2.95690   0.00528   0.00000   0.11210   0.11261   3.06951
    D3        2.93158   0.00351   0.00000   0.07526   0.07535   3.00693
    D4       -0.19143   0.00304   0.00000   0.05330   0.05287  -0.13856
    D5        0.30998  -0.00965   0.00000  -0.20674  -0.20678   0.10321
    D6       -1.72753  -0.00221   0.00000  -0.13085  -0.13053  -1.85806
    D7        2.43738  -0.00191   0.00000  -0.11191  -0.11167   2.32571
    D8       -2.82487  -0.00743   0.00000  -0.14805  -0.14834  -2.97321
    D9        1.42080   0.00001   0.00000  -0.07216  -0.07209   1.34871
   D10       -0.69747   0.00030   0.00000  -0.05322  -0.05323  -0.75070
   D11        0.00000   0.00000   0.00000   0.00000   0.00000   0.00000
   D12       -3.12302  -0.00054   0.00000  -0.02232  -0.02240   3.13777
   D13        3.12302   0.00054   0.00000   0.02232   0.02240  -3.13777
   D14        0.00000   0.00000   0.00000   0.00000   0.00000   0.00000
   D15        0.20327  -0.00575   0.00000  -0.13406  -0.13509   0.06818
   D16       -2.93158  -0.00351   0.00000  -0.07526  -0.07535  -3.00693
   D17       -2.95690  -0.00528   0.00000  -0.11210  -0.11261  -3.06951
   D18        0.19143  -0.00304   0.00000  -0.05330  -0.05287   0.13856
   D19       -0.30998   0.00965   0.00000   0.20674   0.20678  -0.10321
   D20        1.72753   0.00221   0.00000   0.13085   0.13053   1.85806
   D21       -2.43738   0.00191   0.00000   0.11191   0.11167  -2.32571
   D22        2.82487   0.00743   0.00000   0.14805   0.14834   2.97321
   D23       -1.42080  -0.00001   0.00000   0.07216   0.07209  -1.34871
   D24        0.69747  -0.00030   0.00000   0.05322   0.05323   0.75070
         Item               Value     Threshold  Converged?
 Maximum Force            0.037959     0.000015     NO 
 RMS     Force            0.009496     0.000010     NO 
 Maximum Displacement     0.281337     0.000060     NO 
 RMS     Displacement     0.080488     0.000040     NO 
 Predicted change in Energy=-1.597774D-02
 Lowest energy point so far.  Saving SCF results.
 GradGradGradGradGradGradGradGradGradGradGradGradGradGradGradGradGradGrad

 Leave Link  103 at Mon Nov 04 14:08:12 2024, MaxMem=  4294967296 cpu:               1.0 elap:               0.1
 (Enter C:\G16W\l202.exe)
                          Input orientation:                          
 ---------------------------------------------------------------------
 Center     Atomic      Atomic             Coordinates (Angstroms)
 Number     Number       Type             X           Y           Z
 ---------------------------------------------------------------------
      1          6           0       -0.499126   -0.294611   -0.510349
      2          6           0        0.814516   -0.486376   -0.362932
      3          6           0        1.469859    0.819066   -0.169742
      4          6           0        0.542016    1.779345   -0.203428
      5          6           0       -0.818339    1.159755   -0.328574
      6          1           0       -1.222784   -1.047451   -0.783503
      7          1           0        1.327949   -1.436421   -0.376609
      8          1           0        2.530511    0.959084   -0.022103
      9          1           0        0.729873    2.842243   -0.207874
     10          1           0       -1.304738    1.260071    0.643535
     11          1           0       -1.475652    1.600591   -1.077684
 ---------------------------------------------------------------------
                    Distance matrix (angstroms):
                    1          2          3          4          5
     1  C    0.000000
     2  C    1.335725   0.000000
     3  C    2.287617   1.473423   0.000000
     4  C    2.340826   2.287617   1.335725   0.000000
     5  C    1.500040   2.318867   2.318867   1.500040   0.000000
     6  H    1.079381   2.154594   3.333303   3.382570   2.289606
     7  H    2.158661   1.079993   2.269395   3.314941   3.368826
     8  H    3.314941   2.269395   1.079993   2.158661   3.368826
     9  H    3.382570   3.333303   2.154594   1.079381   2.289606
    10  H    2.097020   2.924772   2.924772   2.097020   1.091624
    11  H    2.206187   3.179807   3.179807   2.206187   1.089753
                    6          7          8          9         10
     6  H    0.000000
     7  H    2.612105   0.000000
     8  H    4.323555   2.703752   0.000000
     9  H    4.390209   4.323555   2.612105   0.000000
    10  H    2.714371   3.904203   3.904203   2.714371   0.000000
    11  H    2.676306   4.192270   4.192270   2.676306   1.762884
                   11
    11  H    0.000000
 Stoichiometry    C5H6
 Framework group  CS[SG(CH2),X(C4H4)]
 Deg. of freedom    15
 Full point group                 CS      NOp   2
 RotChk:  IX=2 Diff= 9.63D-02
 Largest Abelian subgroup         CS      NOp   2
 Largest concise Abelian subgroup CS      NOp   2
                         Standard orientation:                         
 ---------------------------------------------------------------------
 Center     Atomic      Atomic             Coordinates (Angstroms)
 Number     Number       Type             X           Y           Z
 ---------------------------------------------------------------------
      1          6           0       -0.023841   -0.280951   -1.170413
      2          6           0       -0.023841    0.982403   -0.736711
      3          6           0       -0.023841    0.982403    0.736711
      4          6           0       -0.023841   -0.280951    1.170413
      5          6           0        0.072446   -1.214215    0.000000
      6          1           0       -0.141145   -0.599243   -2.195105
      7          1           0       -0.020446    1.870067   -1.351876
      8          1           0       -0.020446    1.870067    1.351876
      9          1           0       -0.141145   -0.599243    2.195105
     10          1           0        1.085136   -1.621769    0.000000
     11          1           0       -0.624438   -2.052018    0.000000
 ---------------------------------------------------------------------
 Rotational constants (GHZ):           8.5501130           8.2919007           4.3284714
 Leave Link  202 at Mon Nov 04 14:08:12 2024, MaxMem=  4294967296 cpu:               0.0 elap:               0.1
 (Enter C:\G16W\l301.exe)
 Standard basis: CC-pVTZ (5D, 7F)
 Ernie: Thresh=  0.10000D-02 Tol=  0.10000D-05 Strict=F.
 Ernie:  15 primitive shells out of 178 were deleted.
 There are   146 symmetry adapted cartesian basis functions of A'  symmetry.
 There are   119 symmetry adapted cartesian basis functions of A"  symmetry.
 There are   128 symmetry adapted basis functions of A'  symmetry.
 There are   106 symmetry adapted basis functions of A"  symmetry.
   234 basis functions,   362 primitive gaussians,   265 cartesian basis functions
    18 alpha electrons       18 beta electrons
       nuclear repulsion energy       157.3563495129 Hartrees.
 IExCor= 4235 DFT=T Ex+Corr=M06 ExCW=0 ScaHFX=  0.270000
 ScaDFX=  1.000000  1.000000  1.000000  1.000000 ScalE2=  1.000000  1.000000
 IRadAn=      5 IRanWt=     -1 IRanGd=            0 ICorTp=0 IEmpDi=  4
 NAtoms=   11 NActive=   11 NUniq=    7 SFac= 2.47D+00 NAtFMM=   60 NAOKFM=F Big=F
 Integral buffers will be    131072 words long.
 Raffenetti 2 integral format.
 Two-electron integral symmetry is turned on.
 ------------------------------------------------------------------------------
 Polarizable Continuum Model (PCM)
 =================================
 Model                : PCM.
 Atomic radii         : SMD-Coulomb.
 Polarization charges : Total charges.
 Charge compensation  : None.
 Solution method      : On-the-fly selection.
 Cavity type          : VdW (van der Waals Surface) (Alpha=1.000).
 Cavity algorithm     : GePol (No added spheres)
                        Default sphere list used, NSphG=   11.
                        Lebedev-Laikov grids with approx.  5.0 points / Ang**2.
                        Smoothing algorithm: York/Karplus (Gamma=1.0000).
                        Polarization charges: spherical gaussians, with
                                              point-specific exponents (IZeta= 3).
                        Self-potential: point-specific (ISelfS= 7).
                        Self-field    : sphere-specific E.n sum rule (ISelfD= 2).
 1st derivatives      : Analytical E(r).r(x)/FMM algorithm (CHGder, D1EAlg=3).
                        Cavity 1st derivative terms included.
 Solvent              : Chloroform, Eps=   4.711300 Eps(inf)=   2.090627
 ------------------------------------------------------------------------------
 Spheres list:
 ISph  on   Nord     Re0    Alpha      Xe            Ye            Ze
    1   C      1    1.8500  1.000     -0.023841     -0.280951     -1.170413
    2   C      2    1.8500  1.000     -0.023841      0.982403     -0.736711
    3   C      3    1.8500  1.000     -0.023841      0.982403      0.736711
    4   C      4    1.8500  1.000     -0.023841     -0.280951      1.170413
    5   C      5    1.8500  1.000      0.072446     -1.214215      0.000000
    6   H      6    1.2000  1.000     -0.141145     -0.599243     -2.195105
    7   H      7    1.2000  1.000     -0.020446      1.870067     -1.351876
    8   H      8    1.2000  1.000     -0.020446      1.870067      1.351876
    9   H      9    1.2000  1.000     -0.141145     -0.599243      2.195105
   10   H     10    1.2000  1.000      1.085136     -1.621769      0.000000
   11   H     11    1.2000  1.000     -0.624438     -2.052018      0.000000
 ------------------------------------------------------------------------------
 GePol: Number of generator spheres                  =      11
 GePol: Total number of spheres                      =      11
 GePol: Number of exposed spheres                    =      11 (100.00%)
 GePol: Number of points                             =     920
 GePol: Average weight of points                     =       0.11
 GePol: Minimum weight of points                     =   0.70D-05
 GePol: Maximum weight of points                     =    0.17992
 GePol: Number of points with low weight             =      48
 GePol: Fraction of low-weight points (<1% of avg)   =       5.22%
 GePol: Cavity surface area                          =    101.407 Ang**2
 GePol: Cavity volume                                =     81.627 Ang**3
 ------------------------------------------------------------------------------
 Atomic radii for non-electrostatic terms: SMD-CDS.
 ------------------------------------------------------------------------------
 PCM non-electrostatic energy =        -0.0045399181 Hartrees.
 Nuclear repulsion after PCM non-electrostatic terms =      157.3518095948 Hartrees.
 Leave Link  301 at Mon Nov 04 14:08:12 2024, MaxMem=  4294967296 cpu:               0.0 elap:               0.1
 (Enter C:\G16W\l302.exe)
 NPDir=0 NMtPBC=     1 NCelOv=     1 NCel=       1 NClECP=     1 NCelD=      1
         NCelK=      1 NCelE2=     1 NClLst=     1 CellRange=     0.0.
 One-electron integrals computed using PRISM.
 One-electron integral symmetry used in STVInt
 NBasis=   234 RedAO= T EigKep=  1.51D-04  NBF=   128   106
 NBsUse=   234 1.00D-06 EigRej= -1.00D+00 NBFU=   128   106
 Precomputing XC quadrature grid using
 IXCGrd= 4 IRadAn=           5 IRanWt=          -1 IRanGd=           0 AccXCQ= 0.00D+00.
 Generated NRdTot=       0 NPtTot=           0 NUsed=           0 NTot=          32
 NSgBfM=   265   265   265   265   265 MxSgAt=    11 MxSgA2=    11.
 Leave Link  302 at Mon Nov 04 14:08:13 2024, MaxMem=  4294967296 cpu:               0.0 elap:               0.4
 (Enter C:\G16W\l303.exe)
 DipDrv:  MaxL=1.
 Leave Link  303 at Mon Nov 04 14:08:14 2024, MaxMem=  4294967296 cpu:               0.0 elap:               0.1
 (Enter C:\G16W\l401.exe)
 Initial guess from the checkpoint file:  "pentadiene_opt.chk"
 B after Tr=     0.000000    0.000000    0.000000
         Rot=    0.999415    0.000000    0.000000    0.034196 Ang=   3.92 deg.
 Guess basis will be translated and rotated to current coordinates.
 JPrj=2 DoOrth=T DoCkMO=T.
 Initial guess orbital symmetries:
       Occupied  (A') (A') (A") (A") (A') (A') (A") (A') (A') (A")
                 (A') (A') (A") (A') (A") (A') (A') (A")
       Virtual   (A') (A') (A") (A') (A") (A') (A") (A') (A") (A')
                 (A") (A') (A') (A') (A') (A") (A") (A') (A") (A')
                 (A") (A') (A") (A') (A') (A") (A') (A") (A') (A')
                 (A') (A") (A") (A") (A') (A') (A") (A') (A") (A')
                 (A") (A') (A") (A') (A') (A') (A") (A') (A") (A")
                 (A') (A') (A') (A") (A') (A') (A") (A') (A") (A")
                 (A') (A") (A") (A') (A") (A') (A') (A") (A") (A')
                 (A') (A") (A') (A") (A') (A") (A') (A") (A') (A")
                 (A") (A') (A') (A') (A") (A') (A") (A') (A') (A')
                 (A") (A') (A") (A") (A') (A') (A') (A") (A') (A")
                 (A') (A") (A') (A') (A") (A') (A") (A") (A') (A')
                 (A") (A') (A') (A") (A") (A") (A') (A') (A') (A")
                 (A') (A") (A") (A') (A") (A') (A') (A") (A') (A')
                 (A") (A') (A") (A") (A') (A") (A') (A') (A") (A')
                 (A") (A") (A") (A") (A') (A') (A') (A") (A') (A')
                 (A") (A') (A') (A") (A') (A") (A') (A") (A") (A')
                 (A") (A') (A') (A") (A') (A') (A") (A') (A") (A")
                 (A") (A') (A") (A') (A") (A') (A') (A") (A') (A")
                 (A") (A') (A") (A") (A') (A') (A') (A") (A") (A')
                 (A') (A") (A') (A") (A') (A") (A') (A") (A') (A')
                 (A") (A") (A') (A") (A') (A') (A") (A') (A') (A")
                 (A") (A') (A") (A') (A') (A")
 The electronic state of the initial guess is 1-A'.
 Generating alternative initial guess.
 ExpMin= 1.03D-01 ExpMax= 8.24D+03 ExpMxC= 2.81D+02 IAcc=3 IRadAn=         5 AccDes= 0.00D+00
 Harris functional with IExCor= 1009 and IRadAn=       5 diagonalized for initial guess.
 HarFok:  IExCor= 1009 AccDes= 0.00D+00 IRadAn=         5 IDoV= 1 UseB2=F ITyADJ=14
 ICtDFT=  3500011 ScaDFX=  1.000000  1.000000  1.000000  1.000000
 FoFCou: FMM=F IPFlag=           0 FMFlag=      100000 FMFlg1=           0
         NFxFlg=           0 DoJE=T BraDBF=F KetDBF=T FulRan=T
         wScrn=  0.000000 ICntrl=       500 IOpCl=  0 I1Cent=   200000004 NGrid=           0
         NMat0=    1 NMatS0=      1 NMatT0=    0 NMatD0=    1 NMtDS0=    0 NMtDT0=    0
 Petite list used in FoFCou.
 Harris En= -194.042668380577    
 Leave Link  401 at Mon Nov 04 14:08:18 2024, MaxMem=  4294967296 cpu:               4.0 elap:               3.8
 (Enter C:\G16W\l502.exe)
 Keep R1 ints in memory in symmetry-blocked form, NReq=567100300.
 FoFCou: FMM=F IPFlag=           0 FMFlag=           0 FMFlg1=           0
         NFxFlg=           0 DoJE=F BraDBF=F KetDBF=F FulRan=T
         wScrn=  0.000000 ICntrl=       600 IOpCl=  0 I1Cent=           0 NGrid=           0
         NMat0=    1 NMatS0=  27495 NMatT0=    0 NMatD0=    1 NMtDS0=    0 NMtDT0=    0
 Petite list used in FoFCou.
 Closed shell SCF:
 Using DIIS extrapolation, IDIIS=  1040.
 NGot=  4294967296 LenX=  4105725297 LenY=  4105654631
 Requested convergence on RMS density matrix=1.00D-08 within 128 cycles.
 Requested convergence on MAX density matrix=1.00D-06.
 Requested convergence on             energy=1.00D-06.
 No special actions if energy rises.

 Cycle   1  Pass 1  IDiag  1:
 Inv3:  Mode=1 IEnd=     2539200.
 Iteration    1 A*A^-1 deviation from unit magnitude is 3.77D-15 for    514.
 Iteration    1 A*A^-1 deviation from orthogonality  is 2.27D-15 for    417     62.
 Iteration    1 A^-1*A deviation from unit magnitude is 3.11D-15 for    165.
 Iteration    1 A^-1*A deviation from orthogonality  is 1.73D-15 for    544     29.
 E= -194.000097524949    
 DIIS: error= 4.56D-03 at cycle   1 NSaved=   1.
 NSaved= 1 IEnMin= 1 EnMin= -194.000097524949     IErMin= 1 ErrMin= 4.56D-03
 ErrMax= 4.56D-03  0.00D+00 EMaxC= 1.00D-01 BMatC= 8.57D-03 BMatP= 8.57D-03
 IDIUse=3 WtCom= 9.54D-01 WtEn= 4.56D-02
 Coeff-Com:  0.100D+01
 Coeff-En:   0.100D+01
 Coeff:      0.100D+01
 Gap=     1.177 Goal=   None    Shift=    0.000
 GapD=    1.177 DampG=2.000 DampE=1.000 DampFc=2.0000 IDamp=-1.
 RMSDP=4.40D-04 MaxDP=8.21D-03              OVMax= 3.20D-02

 Cycle   2  Pass 1  IDiag  1:
 E= -194.010519500517     Delta-E=       -0.010421975568 Rises=F Damp=F
 DIIS: error= 2.02D-03 at cycle   2 NSaved=   2.
 NSaved= 2 IEnMin= 2 EnMin= -194.010519500517     IErMin= 2 ErrMin= 2.02D-03
 ErrMax= 2.02D-03  0.00D+00 EMaxC= 1.00D-01 BMatC= 5.02D-04 BMatP= 8.57D-03
 IDIUse=3 WtCom= 9.80D-01 WtEn= 2.02D-02
 Coeff-Com:  0.458D-01 0.954D+00
 Coeff-En:   0.000D+00 0.100D+01
 Coeff:      0.449D-01 0.955D+00
 Gap=     0.221 Goal=   None    Shift=    0.000
 RMSDP=1.30D-04 MaxDP=2.91D-03 DE=-1.04D-02 OVMax= 1.08D-02

 Cycle   3  Pass 1  IDiag  1:
 E= -194.010665042932     Delta-E=       -0.000145542415 Rises=F Damp=F
 DIIS: error= 1.99D-03 at cycle   3 NSaved=   3.
 NSaved= 3 IEnMin= 3 EnMin= -194.010665042932     IErMin= 3 ErrMin= 1.99D-03
 ErrMax= 1.99D-03  0.00D+00 EMaxC= 1.00D-01 BMatC= 4.34D-04 BMatP= 5.02D-04
 IDIUse=3 WtCom= 9.80D-01 WtEn= 1.99D-02
 Coeff-Com: -0.309D-01 0.489D+00 0.542D+00
 Coeff-En:   0.000D+00 0.412D+00 0.588D+00
 Coeff:     -0.303D-01 0.487D+00 0.543D+00
 Gap=     0.222 Goal=   None    Shift=    0.000
 RMSDP=6.94D-05 MaxDP=1.68D-03 DE=-1.46D-04 OVMax= 6.97D-03

 Cycle   4  Pass 1  IDiag  1:
 E= -194.011094892330     Delta-E=       -0.000429849398 Rises=F Damp=F
 DIIS: error= 2.57D-04 at cycle   4 NSaved=   4.
 NSaved= 4 IEnMin= 4 EnMin= -194.011094892330     IErMin= 4 ErrMin= 2.57D-04
 ErrMax= 2.57D-04  0.00D+00 EMaxC= 1.00D-01 BMatC= 1.25D-05 BMatP= 4.34D-04
 IDIUse=3 WtCom= 9.97D-01 WtEn= 2.57D-03
 Coeff-Com: -0.110D-01 0.111D+00 0.196D+00 0.704D+00
 Coeff-En:   0.000D+00 0.000D+00 0.000D+00 0.100D+01
 Coeff:     -0.110D-01 0.110D+00 0.196D+00 0.705D+00
 Gap=     0.222 Goal=   None    Shift=    0.000
 RMSDP=1.66D-05 MaxDP=4.51D-04 DE=-4.30D-04 OVMax= 2.18D-03

 Cycle   5  Pass 1  IDiag  1:
 E= -194.011104259598     Delta-E=       -0.000009367268 Rises=F Damp=F
 DIIS: error= 1.38D-04 at cycle   5 NSaved=   5.
 NSaved= 5 IEnMin= 5 EnMin= -194.011104259598     IErMin= 5 ErrMin= 1.38D-04
 ErrMax= 1.38D-04  0.00D+00 EMaxC= 1.00D-01 BMatC= 4.52D-06 BMatP= 1.25D-05
 IDIUse=3 WtCom= 9.99D-01 WtEn= 1.38D-03
 Coeff-Com: -0.182D-02-0.492D-02 0.410D-01 0.421D+00 0.545D+00
 Coeff-En:   0.000D+00 0.000D+00 0.000D+00 0.206D+00 0.794D+00
 Coeff:     -0.182D-02-0.492D-02 0.409D-01 0.420D+00 0.546D+00
 Gap=     0.222 Goal=   None    Shift=    0.000
 RMSDP=7.31D-06 MaxDP=1.81D-04 DE=-9.37D-06 OVMax= 8.03D-04

 Cycle   6  Pass 1  IDiag  1:
 E= -194.011108686732     Delta-E=       -0.000004427134 Rises=F Damp=F
 DIIS: error= 2.11D-05 at cycle   6 NSaved=   6.
 NSaved= 6 IEnMin= 6 EnMin= -194.011108686732     IErMin= 6 ErrMin= 2.11D-05
 ErrMax= 2.11D-05  0.00D+00 EMaxC= 1.00D-01 BMatC= 1.07D-07 BMatP= 4.52D-06
 IDIUse=1 WtCom= 1.00D+00 WtEn= 0.00D+00
 Coeff-Com:  0.653D-03-0.155D-01-0.118D-01 0.462D-01 0.163D+00 0.818D+00
 Coeff:      0.653D-03-0.155D-01-0.118D-01 0.462D-01 0.163D+00 0.818D+00
 Gap=     0.222 Goal=   None    Shift=    0.000
 RMSDP=2.69D-06 MaxDP=8.29D-05 DE=-4.43D-06 OVMax= 1.44D-04

 Cycle   7  Pass 1  IDiag  1:
 E= -194.011108816159     Delta-E=       -0.000000129427 Rises=F Damp=F
 DIIS: error= 5.85D-06 at cycle   7 NSaved=   7.
 NSaved= 7 IEnMin= 7 EnMin= -194.011108816159     IErMin= 7 ErrMin= 5.85D-06
 ErrMax= 5.85D-06  0.00D+00 EMaxC= 1.00D-01 BMatC= 2.85D-09 BMatP= 1.07D-07
 IDIUse=1 WtCom= 1.00D+00 WtEn= 0.00D+00
 Coeff-Com:  0.209D-03-0.247D-02-0.421D-02-0.101D-01 0.280D-02 0.143D+00
 Coeff-Com:  0.871D+00
 Coeff:      0.209D-03-0.247D-02-0.421D-02-0.101D-01 0.280D-02 0.143D+00
 Coeff:      0.871D+00
 Gap=     0.222 Goal=   None    Shift=    0.000
 RMSDP=5.88D-07 MaxDP=1.81D-05 DE=-1.29D-07 OVMax= 2.50D-05

 Cycle   8  Pass 1  IDiag  1:
 E= -194.011108818978     Delta-E=       -0.000000002819 Rises=F Damp=F
 DIIS: error= 3.24D-06 at cycle   8 NSaved=   8.
 NSaved= 8 IEnMin= 8 EnMin= -194.011108818978     IErMin= 8 ErrMin= 3.24D-06
 ErrMax= 3.24D-06  0.00D+00 EMaxC= 1.00D-01 BMatC= 7.78D-10 BMatP= 2.85D-09
 IDIUse=1 WtCom= 1.00D+00 WtEn= 0.00D+00
 Coeff-Com:  0.365D-04 0.236D-03-0.918D-03-0.851D-02-0.121D-01 0.155D-02
 Coeff-Com:  0.388D+00 0.631D+00
 Coeff:      0.365D-04 0.236D-03-0.918D-03-0.851D-02-0.121D-01 0.155D-02
 Coeff:      0.388D+00 0.631D+00
 Gap=     0.222 Goal=   None    Shift=    0.000
 RMSDP=1.27D-07 MaxDP=3.57D-06 DE=-2.82D-09 OVMax= 7.63D-06

 Cycle   9  Pass 1  IDiag  1:
 E= -194.011108819688     Delta-E=       -0.000000000710 Rises=F Damp=F
 DIIS: error= 5.73D-07 at cycle   9 NSaved=   9.
 NSaved= 9 IEnMin= 9 EnMin= -194.011108819688     IErMin= 9 ErrMin= 5.73D-07
 ErrMax= 5.73D-07  0.00D+00 EMaxC= 1.00D-01 BMatC= 3.11D-11 BMatP= 7.78D-10
 IDIUse=1 WtCom= 1.00D+00 WtEn= 0.00D+00
 Coeff-Com: -0.883D-05 0.321D-03 0.174D-03-0.126D-02-0.351D-02-0.123D-01
 Coeff-Com:  0.240D-01 0.190D+00 0.803D+00
 Coeff:     -0.883D-05 0.321D-03 0.174D-03-0.126D-02-0.351D-02-0.123D-01
 Coeff:      0.240D-01 0.190D+00 0.803D+00
 Gap=     0.222 Goal=   None    Shift=    0.000
 RMSDP=3.14D-08 MaxDP=9.19D-07 DE=-7.10D-10 OVMax= 1.52D-06

 Cycle  10  Pass 1  IDiag  1:
 E= -194.011108819709     Delta-E=       -0.000000000022 Rises=F Damp=F
 DIIS: error= 5.65D-08 at cycle  10 NSaved=  10.
 NSaved=10 IEnMin=10 EnMin= -194.011108819709     IErMin=10 ErrMin= 5.65D-08
 ErrMax= 5.65D-08  0.00D+00 EMaxC= 1.00D-01 BMatC= 3.75D-13 BMatP= 3.11D-11
 IDIUse=1 WtCom= 1.00D+00 WtEn= 0.00D+00
 Coeff-Com: -0.238D-05 0.364D-04 0.576D-04 0.841D-04-0.158D-03-0.176D-02
 Coeff-Com: -0.806D-02 0.778D-02 0.110D+00 0.892D+00
 Coeff:     -0.238D-05 0.364D-04 0.576D-04 0.841D-04-0.158D-03-0.176D-02
 Coeff:     -0.806D-02 0.778D-02 0.110D+00 0.892D+00
 Gap=     0.222 Goal=   None    Shift=    0.000
 RMSDP=6.45D-09 MaxDP=2.55D-07 DE=-2.17D-11 OVMax= 2.48D-07

 Error on total polarization charges =  0.03000
 SCF Done:  E(RM06) =  -194.011108820     A.U. after   10 cycles
            NFock= 10  Conv=0.64D-08     -V/T= 2.0077
 KE= 1.925352199128D+02 PE=-7.642239372675D+02 EE= 2.203257989402D+02
 SMD-CDS (non-electrostatic) energy       (kcal/mol) =      -2.85
 (included in total energy above)
 Leave Link  502 at Mon Nov 04 14:09:41 2024, MaxMem=  4294967296 cpu:              83.0 elap:              82.2
 (Enter C:\G16W\l701.exe)
 ... and contract with generalized density number  0.
 Compute integral first derivatives.
 D1PCM: PCM CHGder 1st derivatives, ID1Alg=3 FixD1E=F DoIter=F DoCFld=F I1PDM=0.
 GePol: Maximum number of non-zero 1st derivatives   =     201
 Leave Link  701 at Mon Nov 04 14:09:43 2024, MaxMem=  4294967296 cpu:               2.0 elap:               1.4
 (Enter C:\G16W\l702.exe)
 L702 exits ... SP integral derivatives will be done elsewhere.
 Leave Link  702 at Mon Nov 04 14:09:43 2024, MaxMem=  4294967296 cpu:               0.0 elap:               0.1
 (Enter C:\G16W\l703.exe)
 Integral derivatives from FoFJK, PRISM(SPDF).
 Compute integral first derivatives, UseDBF=F ICtDFT=           0.
 Calling FoFJK, ICntrl=      2127 FMM=F ISym2X=1 I1Cent= 0 IOpClX= 0 NMat=1 NMatS=1 NMatT=0.
 FoFJK:  IHMeth= 1 ICntrl=    2127 DoSepK=F KAlg= 0 I1Cent=           0 FoldK=F
 IRaf=         0 NMat=       1 IRICut=       1 DoRegI=T DoRafI=F ISym2E= 1 IDoP0=0 IntGTp=1.
 FoFCou: FMM=F IPFlag=           0 FMFlag=      100000 FMFlg1=         800
         NFxFlg=           0 DoJE=F BraDBF=F KetDBF=F FulRan=T
         wScrn=  0.000000 ICntrl=      2127 IOpCl=  0 I1Cent=           0 NGrid=           0
         NMat0=    1 NMatS0=      1 NMatT0=    0 NMatD0=    1 NMtDS0=    0 NMtDT0=    0
 Petite list used in FoFCou.
 Leave Link  703 at Mon Nov 04 14:09:58 2024, MaxMem=  4294967296 cpu:              14.0 elap:              14.1
 (Enter C:\G16W\l716.exe)
 Dipole        = 2.45301466D-02-2.54641361D-01-7.04991621D-15
 ***** Axes restored to original set *****
 -------------------------------------------------------------------
 Center     Atomic                   Forces (Hartrees/Bohr)
 Number     Number              X              Y              Z
 -------------------------------------------------------------------
      1        6          -0.003096123    0.003715110   -0.004663076
      2        6           0.006019200    0.008240851    0.003080694
      3        6          -0.003216521   -0.010156714    0.000358072
      4        6          -0.004255275    0.001406079   -0.005004785
      5        6           0.012760272   -0.005935509   -0.003177600
      6        1          -0.002297252   -0.000687033    0.005387303
      7        1           0.000754917   -0.000352400   -0.001694583
      8        1           0.000931620   -0.000000407   -0.001642492
      9        1          -0.001475215    0.000950465    0.005629633
     10        1          -0.006263412    0.002795572    0.002356333
     11        1           0.000137789    0.000023987   -0.000629500
 -------------------------------------------------------------------
 Cartesian Forces:  Max     0.012760272 RMS     0.004456431
 Leave Link  716 at Mon Nov 04 14:09:58 2024, MaxMem=  4294967296 cpu:               0.0 elap:               0.1
 (Enter C:\G16W\l103.exe)

 GradGradGradGradGradGradGradGradGradGradGradGradGradGradGradGradGradGrad
 Berny optimization.
 Using GEDIIS/GDIIS optimizer.
 FormGI is forming the generalized inverse of G from B-inverse, IUseBI=4.
 Internal  Forces:  Max     0.007832096 RMS     0.002050257
 Search for a local minimum.
 Step number   2 out of a maximum of   63
 All quantities printed in internal units (Hartrees-Bohrs-Radians)
 RMS Force = .20503D-02 SwitMx=.10000D-02 MixMth= 1
 Mixed Optimization -- RFO/linear search
 Update second derivatives using D2CorX and points    1    2
 DE= -1.47D-02 DEPred=-1.60D-02 R= 9.18D-01
 TightC=F SS=  1.41D+00  RLast= 5.76D-01 DXNew= 5.0454D-01 1.7281D+00
 Trust test= 9.18D-01 RLast= 5.76D-01 DXMaxT set to 5.05D-01
 ITU=  1  0
 Use linear search instead of GDIIS.
     Eigenvalues ---    0.00658   0.00816   0.01347   0.01414   0.01479
     Eigenvalues ---    0.01926   0.05202   0.07543   0.08109   0.09802
     Eigenvalues ---    0.15713   0.15944   0.16000   0.16010   0.21893
     Eigenvalues ---    0.21962   0.22957   0.27142   0.27986   0.36387
     Eigenvalues ---    0.37230   0.37230   0.37230   0.37230   0.37394
     Eigenvalues ---    0.49078   0.54450
 RFO step:  Lambda=-3.00779597D-03 EMin= 6.58264819D-03
 Quartic linear search produced a step of  0.22608.
 Iteration  1 RMS(Cart)=  0.06324900 RMS(Int)=  0.00292367
 Iteration  2 RMS(Cart)=  0.00295750 RMS(Int)=  0.00067318
 Iteration  3 RMS(Cart)=  0.00000156 RMS(Int)=  0.00067318
 Iteration  4 RMS(Cart)=  0.00000000 RMS(Int)=  0.00067318
 ITry= 1 IFail=0 DXMaxC= 2.54D-01 DCOld= 1.00D+10 DXMaxT= 5.05D-01 DXLimC= 3.00D+00 Rises=F
 ClnCor:  largest displacement from symmetrization is 8.20D-09 for atom     8.
 Variable       Old X    -DE/DX   Delta X   Delta X   Delta X     New X
                                 (Linear)    (Quad)   (Total)
    R1        2.52415   0.00314  -0.00839   0.01703   0.00876   2.53292
    R2        2.83466  -0.00444  -0.01690   0.00213  -0.01507   2.81960
    R3        2.03973   0.00066   0.00401  -0.00275   0.00126   2.04099
    R4        2.78437  -0.00783  -0.02866   0.00282  -0.02547   2.75890
    R5        2.04089   0.00069   0.00427  -0.00296   0.00131   2.04220
    R6        2.52415   0.00314  -0.00839   0.01703   0.00876   2.53292
    R7        2.04089   0.00069   0.00427  -0.00296   0.00131   2.04220
    R8        2.83466  -0.00444  -0.01690   0.00213  -0.01507   2.81960
    R9        2.03973   0.00066   0.00401  -0.00275   0.00126   2.04099
   R10        2.06287   0.00515   0.00924   0.00530   0.01454   2.07741
   R11        2.05934   0.00036   0.00844  -0.00907  -0.00063   2.05871
    A1        1.91251  -0.00129   0.00319  -0.00761  -0.00686   1.90565
    A2        2.19833   0.00188   0.00140   0.01203   0.01323   2.21156
    A3        2.17030  -0.00053  -0.00504   0.00089  -0.00434   2.16596
    A4        1.90148   0.00045   0.00213   0.00290   0.00379   1.90528
    A5        2.20488   0.00002   0.00206  -0.00372  -0.00152   2.20335
    A6        2.17682  -0.00047  -0.00416   0.00068  -0.00335   2.17347
    A7        1.90148   0.00045   0.00213   0.00290   0.00379   1.90528
    A8        2.17682  -0.00047  -0.00416   0.00068  -0.00335   2.17347
    A9        2.20488   0.00002   0.00206  -0.00372  -0.00152   2.20335
   A10        1.91251  -0.00129   0.00319  -0.00761  -0.00686   1.90565
   A11        2.19833   0.00188   0.00140   0.01203   0.01323   2.21156
   A12        2.17030  -0.00053  -0.00504   0.00089  -0.00434   2.16596
   A13        1.79015   0.00185   0.00144   0.01376   0.01246   1.80260
   A14        1.86694   0.00014  -0.01178   0.03279   0.02099   1.88793
   A15        2.02336  -0.00023   0.01122  -0.02264  -0.01110   2.01225
   A16        1.86694   0.00014  -0.01178   0.03279   0.02099   1.88793
   A17        2.02336  -0.00023   0.01122  -0.02264  -0.01110   2.01225
   A18        1.88201  -0.00151  -0.00240  -0.02409  -0.02627   1.85574
    D1       -0.06818   0.00085   0.03054   0.02264   0.05313  -0.01505
    D2        3.06951   0.00098   0.02546  -0.01681   0.00846   3.07797
    D3        3.00693   0.00163   0.01704   0.10883   0.12617   3.13310
    D4       -0.13856   0.00176   0.01195   0.06938   0.08150  -0.05706
    D5        0.10321  -0.00119  -0.04675  -0.03356  -0.08030   0.02291
    D6       -1.85806  -0.00216  -0.02951  -0.08772  -0.11744  -1.97550
    D7        2.32571  -0.00018  -0.02525  -0.06672  -0.09213   2.23358
    D8       -2.97321  -0.00206  -0.03354  -0.11859  -0.15183  -3.12503
    D9        1.34871  -0.00304  -0.01630  -0.17275  -0.18897   1.15974
   D10       -0.75070  -0.00106  -0.01203  -0.15175  -0.16366  -0.91437
   D11        0.00000   0.00000   0.00000   0.00000   0.00000   0.00000
   D12        3.13777   0.00013  -0.00506  -0.03868  -0.04372   3.09404
   D13       -3.13777  -0.00013   0.00506   0.03868   0.04372  -3.09404
   D14        0.00000   0.00000   0.00000   0.00000   0.00000   0.00000
   D15        0.06818  -0.00085  -0.03054  -0.02264  -0.05313   0.01505
   D16       -3.00693  -0.00163  -0.01704  -0.10883  -0.12617  -3.13310
   D17       -3.06951  -0.00098  -0.02546   0.01681  -0.00846  -3.07797
   D18        0.13856  -0.00176  -0.01195  -0.06938  -0.08150   0.05706
   D19       -0.10321   0.00119   0.04675   0.03356   0.08030  -0.02291
   D20        1.85806   0.00216   0.02951   0.08772   0.11744   1.97550
   D21       -2.32571   0.00018   0.02525   0.06672   0.09213  -2.23358
   D22        2.97321   0.00206   0.03354   0.11859   0.15183   3.12503
   D23       -1.34871   0.00304   0.01630   0.17275   0.18897  -1.15974
   D24        0.75070   0.00106   0.01203   0.15175   0.16366   0.91437
         Item               Value     Threshold  Converged?
 Maximum Force            0.007832     0.000015     NO 
 RMS     Force            0.002050     0.000010     NO 
 Maximum Displacement     0.253539     0.000060     NO 
 RMS     Displacement     0.063280     0.000040     NO 
 Predicted change in Energy=-2.682863D-03
 Lowest energy point so far.  Saving SCF results.
 GradGradGradGradGradGradGradGradGradGradGradGradGradGradGradGradGradGrad

 Leave Link  103 at Mon Nov 04 14:09:59 2024, MaxMem=  4294967296 cpu:               0.0 elap:               0.1
 (Enter C:\G16W\l202.exe)
                          Input orientation:                          
 ---------------------------------------------------------------------
 Center     Atomic      Atomic             Coordinates (Angstroms)
[...]
      7 -0.268390D-01  0.253771D+00  0.982086D-01 -0.116547D+00  0.126706D-01
      8 -0.116547D+00  0.982086D-01  0.253771D+00 -0.268390D-01  0.126706D-01
      9  0.269607D-01 -0.401128D-01 -0.100873D+00  0.365347D+00  0.721076D-01
     10  0.168479D+00 -0.788894D-01 -0.788894D-01  0.168479D+00  0.135990D+00
     11  0.168479D+00 -0.788915D-01 -0.788915D-01  0.168479D+00  0.135991D+00
                6             7             8             9            10 
      6  0.000000D+00
      7 -0.280425D+00  0.000000D+00
      8 -0.370424D-01  0.494394D-01  0.000000D+00
      9  0.102631D+00 -0.370424D-01 -0.280425D+00  0.000000D+00
     10  0.796703D-01  0.471027D-01  0.471028D-01  0.796703D-01  0.000000D+00
     11  0.796715D-01  0.471033D-01  0.471033D-01  0.796715D-01  0.343755D+00
               11 
     11  0.000000D+00
 Paramagnetic spin-orbit (PSO) contribution to K (Hz):
                1             2             3             4             5 
      1  0.000000D+00
      2 -0.482904D+01  0.000000D+00
      3 -0.296683D-01 -0.163485D+01  0.000000D+00
      4 -0.294150D+00 -0.296683D-01 -0.482904D+01  0.000000D+00
      5 -0.108616D+01 -0.169868D+00 -0.169868D+00 -0.108616D+01  0.000000D+00
      6  0.604788D-01 -0.143167D+00  0.399007D-01  0.414251D-01  0.210250D-02
      7 -0.143981D+00  0.734065D-01 -0.247369D-01  0.414916D-01  0.500492D-01
      8  0.414916D-01 -0.247369D-01  0.734065D-01 -0.143981D+00  0.500492D-01
      9  0.414251D-01  0.399007D-01 -0.143167D+00  0.604788D-01  0.210250D-02
     10  0.952573D-02  0.217910D-01  0.217910D-01  0.952574D-02  0.171124D+00
     11  0.952535D-02  0.217916D-01  0.217916D-01  0.952536D-02  0.171123D+00
                6             7             8             9            10 
      6  0.000000D+00
      7  0.252129D-01  0.000000D+00
      8  0.569898D-01  0.256829D-01  0.000000D+00
      9  0.580312D-01  0.569898D-01  0.252129D-01  0.000000D+00
     10  0.296069D-01  0.527601D-01  0.527601D-01  0.296069D-01  0.000000D+00
     11  0.296067D-01  0.527603D-01  0.527603D-01  0.296067D-01  0.703608D-01
               11 
     11  0.000000D+00
 Paramagnetic spin-orbit (PSO) contribution to J (Hz):
                1             2             3             4             5 
      1  0.000000D+00
      2 -0.953022D+01  0.000000D+00
      3 -0.585511D-01 -0.322641D+01  0.000000D+00
      4 -0.580513D+00 -0.585511D-01 -0.953022D+01  0.000000D+00
      5 -0.214357D+01 -0.335239D+00 -0.335239D+00 -0.214357D+01  0.000000D+00
      6  0.474571D+00 -0.112342D+01  0.313097D+00  0.325059D+00  0.164981D-01
      7 -0.112980D+01  0.576014D+00 -0.194108D+00  0.325580D+00  0.392732D+00
      8  0.325580D+00 -0.194108D+00  0.576014D+00 -0.112980D+01  0.392732D+00
      9  0.325059D+00  0.313097D+00 -0.112342D+01  0.474571D+00  0.164981D-01
     10  0.747475D-01  0.170992D+00  0.170992D+00  0.747475D-01  0.134279D+01
     11  0.747445D-01  0.170997D+00  0.170997D+00  0.747445D-01  0.134279D+01
                6             7             8             9            10 
      6  0.000000D+00
      7  0.786642D+00  0.000000D+00
      8  0.177808D+01  0.801306D+00  0.000000D+00
      9  0.181057D+01  0.177808D+01  0.786642D+00  0.000000D+00
     10  0.923733D+00  0.164611D+01  0.164611D+01  0.923733D+00  0.000000D+00
     11  0.923729D+00  0.164612D+01  0.164612D+01  0.923729D+00  0.219526D+01
               11 
     11  0.000000D+00
 Diamagnetic spin-orbit (DSO) contribution to K (Hz):
                1             2             3             4             5 
      1  0.000000D+00
      2  0.993803D-01  0.000000D+00
      3 -0.941249D-02  0.112661D+00  0.000000D+00
      4 -0.482984D-03 -0.941249D-02  0.993803D-01  0.000000D+00
      5  0.110805D+00 -0.729802D-02 -0.729802D-02  0.110805D+00  0.000000D+00
      6  0.103631D+00 -0.679359D-01 -0.746544D-01 -0.704381D-01 -0.455406D-01
      7 -0.675264D-01  0.104566D+00 -0.468554D-01 -0.759719D-01 -0.725769D-01
      8 -0.759719D-01 -0.468554D-01  0.104566D+00 -0.675264D-01 -0.725769D-01
      9 -0.704381D-01 -0.746544D-01 -0.679359D-01  0.103631D+00 -0.455406D-01
     10 -0.206540D-01 -0.548863D-01 -0.548863D-01 -0.206540D-01  0.111905D+00
     11 -0.206546D-01 -0.548869D-01 -0.548869D-01 -0.206546D-01  0.111905D+00
                6             7             8             9            10 
      6  0.000000D+00
      7 -0.358245D-01  0.000000D+00
      8 -0.694254D-01 -0.286608D-01  0.000000D+00
      9 -0.682189D-01 -0.694254D-01 -0.358245D-01  0.000000D+00
     10 -0.324373D-01 -0.635380D-01 -0.635380D-01 -0.324373D-01  0.000000D+00
     11 -0.324372D-01 -0.635382D-01 -0.635382D-01 -0.324372D-01 -0.669937D-01
               11 
     11  0.000000D+00
 Diamagnetic spin-orbit (DSO) contribution to J (Hz):
                1             2             3             4             5 
      1  0.000000D+00
      2  0.196130D+00  0.000000D+00
      3 -0.185758D-01  0.222339D+00  0.000000D+00
      4 -0.953180D-03 -0.185758D-01  0.196130D+00  0.000000D+00
      5  0.218677D+00 -0.144028D-01 -0.144028D-01  0.218677D+00  0.000000D+00
      6  0.813184D+00 -0.533086D+00 -0.585806D+00 -0.552721D+00 -0.357353D+00
      7 -0.529873D+00  0.820517D+00 -0.367670D+00 -0.596145D+00 -0.569504D+00
      8 -0.596145D+00 -0.367670D+00  0.820517D+00 -0.529873D+00 -0.569504D+00
      9 -0.552721D+00 -0.585806D+00 -0.533086D+00  0.813184D+00 -0.357353D+00
     10 -0.162070D+00 -0.430687D+00 -0.430687D+00 -0.162070D+00  0.878109D+00
     11 -0.162074D+00 -0.430692D+00 -0.430692D+00 -0.162074D+00  0.878108D+00
                6             7             8             9            10 
      6  0.000000D+00
      7 -0.111772D+01  0.000000D+00
      8 -0.216607D+01 -0.894215D+00  0.000000D+00
      9 -0.212843D+01 -0.216607D+01 -0.111772D+01  0.000000D+00
     10 -0.101204D+01 -0.198238D+01 -0.198238D+01 -0.101204D+01  0.000000D+00
     11 -0.101204D+01 -0.198239D+01 -0.198239D+01 -0.101204D+01 -0.209020D+01
               11 
     11  0.000000D+00
 Total nuclear spin-spin coupling K (Hz): 
                1             2             3             4             5 
      1  0.000000D+00
      2  0.357753D+02  0.000000D+00
      3  0.865532D+00  0.259274D+02  0.000000D+00
      4  0.434797D+01  0.865532D+00  0.357753D+02  0.000000D+00
      5  0.200293D+02  0.247482D+01  0.247506D+01  0.200292D+02  0.000000D+00
      6  0.249285D+02  0.166150D-01  0.147346D+01  0.537050D+00  0.911179D+00
      7 -0.119040D+00  0.241671D+02  0.608192D+00  0.107738D+01  0.126283D+01
      8  0.107738D+01  0.608192D+00  0.241671D+02 -0.119040D+00  0.126283D+01
      9  0.537050D+00  0.147346D+01  0.166150D-01  0.249285D+02  0.911179D+00
     10 -0.796960D+00  0.599057D+00  0.598979D+00 -0.796877D+00  0.176386D+02
     11 -0.796760D+00  0.599024D+00  0.598983D+00 -0.796861D+00  0.176386D+02
                6             7             8             9            10 
      6  0.000000D+00
      7  0.274201D+00  0.000000D+00
      8 -0.575218D-02  0.984186D-01  0.000000D+00
      9  0.933527D-01 -0.575218D-02  0.274201D+00  0.000000D+00
     10  0.625472D-01 -0.111139D+00 -0.111140D+00  0.625476D-01  0.000000D+00
     11  0.625483D-01 -0.111138D+00 -0.111138D+00  0.625473D-01 -0.123390D+01
               11 
     11  0.000000D+00
 Total nuclear spin-spin coupling J (Hz): 
                1             2             3             4             5 
      1  0.000000D+00
      2  0.706035D+02  0.000000D+00
      3  0.170815D+01  0.511684D+02  0.000000D+00
      4  0.858082D+01  0.170815D+01  0.706035D+02  0.000000D+00
      5  0.395283D+02  0.488412D+01  0.488459D+01  0.395281D+02  0.000000D+00
      6  0.195611D+03  0.130376D+00  0.115621D+02  0.421418D+01  0.714993D+01
      7 -0.934092D+00  0.189637D+03  0.477243D+01  0.845408D+01  0.990933D+01
      8  0.845408D+01  0.477243D+01  0.189637D+03 -0.934092D+00  0.990934D+01
      9  0.421418D+01  0.115621D+02  0.130376D+00  0.195611D+03  0.714993D+01
     10 -0.625367D+01  0.470075D+01  0.470013D+01 -0.625302D+01  0.138408D+03
     11 -0.625210D+01  0.470049D+01  0.470016D+01 -0.625289D+01  0.138409D+03
                6             7             8             9            10 
      6  0.000000D+00
      7  0.855506D+01  0.000000D+00
      8 -0.179468D+00  0.307066D+01  0.000000D+00
      9  0.291260D+01 -0.179468D+00  0.855506D+01  0.000000D+00
     10  0.195147D+01 -0.346754D+01 -0.346757D+01  0.195148D+01  0.000000D+00
     11  0.195151D+01 -0.346751D+01 -0.346751D+01  0.195147D+01 -0.384976D+02
               11 
     11  0.000000D+00
 End of Minotr F.D. properties file   721 does not exist.
 End of Minotr F.D. properties file   722 does not exist.
 End of Minotr F.D. properties file   788 does not exist.
 Leave Link 1002 at Mon Nov 04 20:30:21 2024, MaxMem=  4294967296 cpu:            7800.0 elap:            7799.3
 (Enter C:\G16W\l601.exe)
 Copying SCF densities to generalized density rwf, IOpCl= 0 IROHF=0.

 **********************************************************************

            Population analysis using the SCF Density.

 **********************************************************************

 Orbital symmetries:
       Occupied  (A') (A') (A") (A') (A") (A') (A") (A') (A') (A")
                 (A') (A') (A") (A') (A") (A') (A') (A")
       Virtual   (A') (A') (A') (A") (A") (A') (A") (A') (A') (A")
                 (A") (A') (A') (A') (A') (A") (A") (A') (A") (A')
                 (A') (A") (A') (A") (A') (A") (A') (A') (A") (A')
                 (A') (A") (A") (A') (A") (A') (A") (A') (A") (A")
                 (A') (A') (A") (A') (A') (A") (A') (A') (A") (A")
                 (A') (A') (A') (A') (A") (A') (A") (A') (A") (A')
                 (A") (A") (A") (A') (A") (A') (A') (A") (A") (A')
                 (A') (A") (A') (A") (A') (A") (A') (A") (A') (A")
                 (A") (A') (A') (A') (A") (A') (A') (A") (A') (A')
                 (A") (A") (A') (A") (A') (A') (A') (A') (A") (A')
                 (A") (A') (A') (A") (A") (A') (A") (A") (A') (A')
                 (A") (A') (A') (A') (A") (A") (A") (A') (A') (A")
                 (A") (A') (A') (A") (A") (A') (A') (A') (A") (A')
                 (A") (A') (A") (A") (A') (A") (A') (A') (A") (A")
                 (A') (A") (A") (A') (A') (A") (A') (A") (A') (A')
                 (A') (A") (A') (A") (A') (A') (A") (A") (A") (A")
                 (A') (A') (A') (A') (A") (A") (A') (A") (A') (A")
                 (A") (A') (A") (A') (A") (A') (A') (A") (A') (A")
                 (A") (A') (A') (A") (A') (A") (A') (A") (A") (A')
                 (A') (A') (A") (A') (A") (A') (A") (A") (A') (A')
                 (A") (A') (A") (A") (A') (A') (A") (A') (A') (A")
                 (A") (A') (A") (A') (A') (A")
 The electronic state is 1-A'.
 Alpha  occ. eigenvalues --  -10.23706 -10.23081 -10.23052 -10.22966 -10.22958
 Alpha  occ. eigenvalues --   -0.86939  -0.71177  -0.71046  -0.55548  -0.53429
 Alpha  occ. eigenvalues --   -0.52190  -0.44250  -0.40159  -0.38190  -0.36589
 Alpha  occ. eigenvalues --   -0.36453  -0.31151  -0.23216
 Alpha virt. eigenvalues --   -0.01200   0.05390   0.07810   0.07869   0.07991
 Alpha virt. eigenvalues --    0.10172   0.10256   0.10646   0.18950   0.19363
 Alpha virt. eigenvalues --    0.22831   0.23946   0.26887   0.30066   0.30148
 Alpha virt. eigenvalues --    0.32949   0.34652   0.37029   0.37315   0.38168
 Alpha virt. eigenvalues --    0.38852   0.40055   0.40180   0.40407   0.42026
 Alpha virt. eigenvalues --    0.42832   0.43140   0.47082   0.47448   0.48194
 Alpha virt. eigenvalues --    0.50183   0.50261   0.57629   0.59015   0.59646
 Alpha virt. eigenvalues --    0.60226   0.66186   0.69647   0.71147   0.72032
 Alpha virt. eigenvalues --    0.74164   0.74983   0.79086   0.86600   0.89415
 Alpha virt. eigenvalues --    0.92548   0.95665   0.96822   0.97796   0.99007
 Alpha virt. eigenvalues --    1.00172   1.00594   1.04792   1.09957   1.10541
 Alpha virt. eigenvalues --    1.11282   1.13252   1.14905   1.15522   1.18356
 Alpha virt. eigenvalues --    1.19222   1.22239   1.23499   1.23814   1.25145
 Alpha virt. eigenvalues --    1.27193   1.28516   1.29368   1.30248   1.32935
 Alpha virt. eigenvalues --    1.38660   1.41057   1.41999   1.42143   1.46371
 Alpha virt. eigenvalues --    1.51233   1.53043   1.57516   1.72544   1.75980
 Alpha virt. eigenvalues --    1.88352   1.92766   1.99658   2.01715   2.11225
 Alpha virt. eigenvalues --    2.19660   2.23738   2.24917   2.26679   2.31806
 Alpha virt. eigenvalues --    2.35493   2.35947   2.36432   2.40624   2.45054
 Alpha virt. eigenvalues --    2.46982   2.55052   2.55351   2.55665   2.58996
 Alpha virt. eigenvalues --    2.62110   2.62683   2.63266   2.65022   2.71086
 Alpha virt. eigenvalues --    2.72378   2.77473   2.78601   2.81352   2.82045
 Alpha virt. eigenvalues --    2.82407   2.83013   2.86640   2.87147   2.87501
 Alpha virt. eigenvalues --    2.91483   2.91607   2.95183   2.97479   2.99783
 Alpha virt. eigenvalues --    2.99986   3.02388   3.02926   3.05234   3.08209
 Alpha virt. eigenvalues --    3.10374   3.13132   3.18859   3.19264   3.19334
 Alpha virt. eigenvalues --    3.20213   3.22532   3.25755   3.28588   3.30236
 Alpha virt. eigenvalues --    3.32866   3.34537   3.36813   3.39432   3.40212
 Alpha virt. eigenvalues --    3.41875   3.49331   3.50747   3.51346   3.55807
 Alpha virt. eigenvalues --    3.58780   3.61745   3.67658   3.68312   3.71562
 Alpha virt. eigenvalues --    3.71766   3.74919   3.79672   3.80080   3.83094
 Alpha virt. eigenvalues --    3.84294   3.87361   3.87696   3.92092   3.93464
 Alpha virt. eigenvalues --    3.93582   3.96250   4.01787   4.05463   4.10390
 Alpha virt. eigenvalues --    4.12515   4.14949   4.16942   4.17598   4.17854
 Alpha virt. eigenvalues --    4.19396   4.20839   4.26988   4.27059   4.32046
 Alpha virt. eigenvalues --    4.33583   4.34139   4.38743   4.42268   4.46290
 Alpha virt. eigenvalues --    4.49800   4.52933   4.55498   4.57110   4.58072
 Alpha virt. eigenvalues --    4.63608   4.65616   4.71941   4.73515   4.75501
 Alpha virt. eigenvalues --    4.78600   4.85576   4.90153   4.91596   4.98398
 Alpha virt. eigenvalues --    5.01573   5.05392   5.10084   5.17157   5.26019
 Alpha virt. eigenvalues --    5.30787   5.39634   5.42990   5.48968   5.57142
 Alpha virt. eigenvalues --    5.68626   5.73733   5.87662   5.91215   6.24544
 Alpha virt. eigenvalues --    6.30251   9.68691  11.33005  12.83010  13.51171
 Alpha virt. eigenvalues --   13.80733
          Condensed to atoms (all electrons):
               1          2          3          4          5          6
     1  C    5.241168   0.495817  -0.088781  -0.092895   0.323100   0.425396
     2  C    0.495817   5.178514   0.323274  -0.088781  -0.077426  -0.049774
     3  C   -0.088781   0.323274   5.178514   0.495817  -0.077426   0.007521
     4  C   -0.092895  -0.088781   0.495817   5.241168   0.323100   0.003834
     5  C    0.323100  -0.077426  -0.077426   0.323100   4.886658  -0.034182
     6  H    0.425396  -0.049774   0.007521   0.003834  -0.034182   0.491145
     7  H   -0.048074   0.424974  -0.041073   0.005754   0.007169  -0.004012
     8  H    0.005754  -0.041073   0.424974  -0.048074   0.007169  -0.000183
     9  H    0.003834   0.007521  -0.049774   0.425396  -0.034182  -0.000119
    10  H   -0.032034   0.002091   0.002091  -0.032034   0.406555  -0.000686
    11  H   -0.032034   0.002091   0.002091  -0.032034   0.406556  -0.000686
               7          8          9         10         11
     1  C   -0.048074   0.005754   0.003834  -0.032034  -0.032034
     2  C    0.424974  -0.041073   0.007521   0.002091   0.002091
     3  C   -0.041073   0.424974  -0.049774   0.002091   0.002091
     4  C    0.005754  -0.048074   0.425396  -0.032034  -0.032034
     5  C    0.007169   0.007169  -0.034182   0.406555   0.406556
     6  H   -0.004012  -0.000183  -0.000119  -0.000686  -0.000686
     7  H    0.500395   0.000043  -0.000183  -0.000345  -0.000345
     8  H    0.000043   0.500395  -0.004012  -0.000345  -0.000345
     9  H   -0.000183  -0.004012   0.491145  -0.000686  -0.000686
    10  H   -0.000345  -0.000345  -0.000686   0.549709  -0.023898
    11  H   -0.000345  -0.000345  -0.000686  -0.023898   0.549709
 Mulliken charges:
               1
     1  C   -0.201251
     2  C   -0.177229
     3  C   -0.177229
     4  C   -0.201251
     5  C   -0.137090
     6  H    0.161745
     7  H    0.155697
     8  H    0.155697
     9  H    0.161745
    10  H    0.129583
    11  H    0.129583
 Sum of Mulliken charges =   0.00000
 Mulliken charges with hydrogens summed into heavy atoms:
               1
     1  C   -0.039506
     2  C   -0.021532
     3  C   -0.021532
     4  C   -0.039506
     5  C    0.122076
 Electronic spatial extent (au):  <R**2>=            328.0185
 Charge=              0.0000 electrons
 Dipole moment (field-independent basis, Debye):
    X=              0.0000    Y=             -0.6968    Z=              0.0000  Tot=              0.6968
 Quadrupole moment (field-independent basis, Debye-Ang):
   XX=            -32.7064   YY=            -26.4763   ZZ=            -28.4805
   XY=              0.0000   XZ=              0.0000   YZ=              0.0000
 Traceless Quadrupole moment (field-independent basis, Debye-Ang):
   XX=             -3.4854   YY=              2.7448   ZZ=              0.7406
   XY=              0.0000   XZ=              0.0000   YZ=              0.0000
 Octapole moment (field-independent basis, Debye-Ang**2):
  XXX=              0.0000  YYY=              1.0962  ZZZ=              0.0000  XYY=              0.0000
  XXY=             -2.9901  XXZ=              0.0000  XZZ=              0.0000  YZZ=             -0.6314
  YYZ=              0.0000  XYZ=              0.0000
 Hexadecapole moment (field-independent basis, Debye-Ang**3):
 XXXX=            -43.8879 YYYY=           -190.4610 ZZZZ=           -189.8035 XXXY=              0.0000
 XXXZ=              0.0000 YYYX=              0.0001 YYYZ=              0.0000 ZZZX=              0.0000
 ZZZY=              0.0000 XXYY=            -40.0726 XXZZ=            -47.4303 YYZZ=            -62.8201
 XXYZ=              0.0000 YYXZ=              0.0000 ZZXY=              0.0000
 N-N= 1.576507305343D+02 E-N=-7.648426913637D+02  KE= 1.925530467920D+02
 Symmetry A'   KE= 1.153820168574D+02
 Symmetry A"   KE= 7.717102993454D+01
 Calculating spin-rotation constants.
 Leave Link  601 at Mon Nov 04 20:30:23 2024, MaxMem=  4294967296 cpu:               1.0 elap:               1.7
 (Enter C:\G16W\l9999.exe)

 Test job not archived.
 1|1|UNPC-ALAUNDO|SP|RM06|Gen|C5H6|AACHARYA|04-Nov-2024|0||#P Geom=AllC
 heck Guess=TCheck SCRF=Check GenChk RM06/ChkBas NMR=ReadFC IOp(3/6=22)
 ||Cyclopentadiene NMR||0,1|C,0,-0.4989582846,-0.299777924,-0.463893818
 1|C,0,0.8269724235,-0.4793960186,-0.3954813844|C,0,1.4756816635,0.8128
 33313,-0.2042467274|C,0,0.5407716016,1.7713648515,-0.1573891842|C,0,-0
 .8037945872,1.1509631195,-0.3185014176|H,0,-1.2499601546,-1.0635470573
 ,-0.6015807009|H,0,1.3494615048,-1.423127669,-0.4683114077|H,0,2.54373
 08222,0.9558577789,-0.1162496993|H,0,0.7049164982,2.8305688188,-0.0252
 976096|H,0,-1.4553364398,1.350982985,0.5400756075|H,0,-1.3394004114,1.
 548574209,-1.1883869701||Version=EM64W-G16RevC.01|State=1-A'|HF=-194.0
 143224|RMSD=4.606e-009|Dipole=-0.2448474,0.1232602,-0.0023304|Quadrupo
 le=1.7254337,0.8115134,-2.5369471,-0.6221037,0.2184562,0.347254|PG=CS 
 [SG(C1H2),X(C4H4)]||@


 I FIND THAT THE THREE TRULY GREAT TIMES FOR THINKING THOUGHTS
 ARE WHEN I AM STANDING IN THE SHOWER, SITTING ON THE JOHN, OR WALKING.

                                    -- COLIN FLETCHER
 Job cpu time:       0 days  2 hours 11 minutes 26.0 seconds.
 Elapsed time:       0 days  2 hours 11 minutes 19.5 seconds.
 File lengths (MBytes):  RWF=     92 Int=      0 D2E=      0 Chk=     11 Scr=      1
 Normal termination of Gaussian 16 at Mon Nov 04 20:30:24 2024.
