 Entering Gaussian System, Link 0=g16
 Input=norbornene_exo.gjf
 Output=norbornene_exo.log
 Initial command:
 /mainfs/home/aa11g17/g16/l1.exe "/scratch/aa11g17/Gau-249551.inp" -scrdir="/scratch/aa11g17/"
 Entering Link 1 = /mainfs/home/aa11g17/g16/l1.exe PID=    249553.
  
 Copyright (c) 1988-2019, Gaussian, Inc.  All Rights Reserved.
  
 This is part of the Gaussian(R) 16 program.  It is based on
 the Gaussian(R) 09 system (copyright 2009, Gaussian, Inc.),
 the Gaussian(R) 03 system (copyright 2003, Gaussian, Inc.),
 the Gaussian(R) 98 system (copyright 1998, Gaussian, Inc.),
 the Gaussian(R) 94 system (copyright 1995, Gaussian, Inc.),
 the Gaussian 92(TM) system (copyright 1992, Gaussian, Inc.),
 the Gaussian 90(TM) system (copyright 1990, Gaussian, Inc.),
 the Gaussian 88(TM) system (copyright 1988, Gaussian, Inc.),
 the Gaussian 86(TM) system (copyright 1986, Carnegie Mellon
 University), and the Gaussian 82(TM) system (copyright 1983,
 Carnegie Mellon University). Gaussian is a federally registered
 trademark of Gaussian, Inc.
  
 This software contains proprietary and confidential information,
 including trade secrets, belonging to Gaussian, Inc.
  
 This software is provided under written license and may be
 used, copied, transmitted, or stored only in accord with that
 written license.
  
 The following legend is applicable only to US Government
 contracts under FAR:
  
                    RESTRICTED RIGHTS LEGEND
  
 Use, reproduction and disclosure by the US Government is
 subject to restrictions as set forth in subparagraphs (a)
 and (c) of the Commercial Computer Software - Restricted
 Rights clause in FAR 52.227-19.
  
 Gaussian, Inc.
 340 Quinnipiac St., Bldg. 40, Wallingford CT 06492
  
  
 ---------------------------------------------------------------
 Warning -- This program may not be used in any manner that
 competes with the business of Gaussian, Inc. or will provide
 assistance to any competitor of Gaussian, Inc.  The licensee
 of this program is prohibited from giving any competitor of
 Gaussian, Inc. access to this program.  By using this program,
 the user acknowledges that Gaussian, Inc. is engaged in the
 business of creating and licensing software in the field of
 computational chemistry and represents and warrants to the
 licensee that it is not a competitor of Gaussian, Inc. and that
 it will not use this program in any manner prohibited above.
 ---------------------------------------------------------------
  

 Cite this work as:
 Gaussian 16, Revision C.01,
 M. J. Frisch, G. W. Trucks, H. B. Schlegel, G. E. Scuseria, 
 M. A. Robb, J. R. Cheeseman, G. Scalmani, V. Barone, 
 G. A. Petersson, H. Nakatsuji, X. Li, M. Caricato, A. V. Marenich, 
 J. Bloino, B. G. Janesko, R. Gomperts, B. Mennucci, H. P. Hratchian, 
 J. V. Ortiz, A. F. Izmaylov, J. L. Sonnenberg, D. Williams-Young, 
 F. Ding, F. Lipparini, F. Egidi, J. Goings, B. Peng, A. Petrone, 
 T. Henderson, D. Ranasinghe, V. G. Zakrzewski, J. Gao, N. Rega, 
 G. Zheng, W. Liang, M. Hada, M. Ehara, K. Toyota, R. Fukuda, 
 J. Hasegawa, M. Ishida, T. Nakajima, Y. Honda, O. Kitao, H. Nakai, 
 T. Vreven, K. Throssell, J. A. Montgomery, Jr., J. E. Peralta, 
 F. Ogliaro, M. J. Bearpark, J. J. Heyd, E. N. Brothers, K. N. Kudin, 
 V. N. Staroverov, T. A. Keith, R. Kobayashi, J. Normand, 
 K. Raghavachari, A. P. Rendell, J. C. Burant, S. S. Iyengar, 
 J. Tomasi, M. Cossi, J. M. Millam, M. Klene, C. Adamo, R. Cammi, 
 J. W. Ochterski, R. L. Martin, K. Morokuma, O. Farkas, 
 J. B. Foresman, and D. J. Fox, Gaussian, Inc., Wallingford CT, 2019.
 
 ******************************************
 Gaussian 16:  ES64L-G16RevC.01  3-Jul-2019
                14-Nov-2024 
 ******************************************
 %nprocshared=40
 Will use up to   40 processors via shared memory.
 %mem=40GB
 %chk=norbornene_exo_opt.chk
 ----------------------------------------------------------------------
 #p opt=tight m06/cc-pvtz scrf=(smd,solvent=chloroform) integral=(grid=
 ultrafine) scf=tight
 ----------------------------------------------------------------------
 1/7=10,18=20,19=15,26=6,38=1/1,3;
 2/9=110,12=2,17=6,18=5,40=1/2;
 3/5=16,6=1,11=2,25=1,30=1,70=32201,71=1,72=7,74=-54,75=-5/1,2,3;
 4//1;
 5/5=2,32=2,38=5,53=7/2;
 6/7=2,8=2,9=2,10=2,28=1/1;
 7//1,2,3,16;
 1/7=10,18=20,19=15,26=6/3(2);
 2/9=110/2;
 99//99;
 2/9=110/2;
 3/5=16,6=1,11=2,25=1,30=1,70=32205,71=1,72=7,74=-54,75=-5/1,2,3;
 4/5=5,16=3,69=1/1;
 5/5=2,32=2,38=5,53=7/2;
 7//1,2,3,16;
 1/7=10,18=20,19=15,26=6/3(-5);
 2/9=110/2;
 6/7=2,8=2,9=2,10=2,19=2,28=1/1;
 99/9=1/99;
 Leave Link    1 at Thu Nov 14 13:14:03 2024, MaxMem=  5368709120 cpu:              18.7 elap:               0.5
 (Enter /mainfs/home/aa11g17/g16/l101.exe)
 -----------------------
 Norbornene_exo geometry
 -----------------------
 Symbolic Z-matrix:
 Charge =  0 Multiplicity = 1
 C                    -0.63264   0.68793   0.82073 
 C                     0.82245   0.56177   0.30114 
 C                     0.0742    2.49823  -0.39509 
 C                    -1.10797   1.86625   0.34242 
 H                    -1.16803  -0.027     1.40991 
 H                    -2.09784   2.2593    0.44522 
 C                     0.63365   0.3095   -1.21546 
 H                     1.45955  -0.08712  -1.76817 
 H                    -0.18848  -0.37004  -1.30052 
 C                     0.36292   1.77591  -1.71431 
 H                    -0.03029   3.55832  -0.49603 
 H                     1.40683  -0.17195   0.81598 
 C                     1.28671   1.99389   0.39879 
 H                     2.23662   2.20129  -0.04794 
 H                     1.33232   2.35978   1.40325 
 C                     1.66808   2.40891  -2.23147 
 N                     2.63983   2.88022  -2.61652 
 H                    -0.36921   1.82575  -2.49303 
 
 ITRead=  0  0  0  0  0  0  0  0  0  0  0  0  0  0  0  0  0  0
 MicOpt= -1 -1 -1 -1 -1 -1 -1 -1 -1 -1 -1 -1 -1 -1 -1 -1 -1 -1
 NAtoms=     18 NQM=       18 NQMF=       0 NMMI=      0 NMMIF=      0
                NMic=       0 NMicF=      0.
                    Isotopes and Nuclear Properties:
 (Nuclear quadrupole moments (NQMom) in fm**2, nuclear magnetic moments (NMagM)
  in nuclear magnetons)

  Atom         1           2           3           4           5           6           7           8           9          10
 IAtWgt=          12          12          12          12           1           1          12           1           1          12
 AtmWgt=  12.0000000  12.0000000  12.0000000  12.0000000   1.0078250   1.0078250  12.0000000   1.0078250   1.0078250  12.0000000
 NucSpn=           0           0           0           0           1           1           0           1           1           0
 AtZEff=  -0.0000000  -0.0000000  -0.0000000  -0.0000000  -0.0000000  -0.0000000  -0.0000000  -0.0000000  -0.0000000  -0.0000000
 NQMom=    0.0000000   0.0000000   0.0000000   0.0000000   0.0000000   0.0000000   0.0000000   0.0000000   0.0000000   0.0000000
 NMagM=    0.0000000   0.0000000   0.0000000   0.0000000   2.7928460   2.7928460   0.0000000   2.7928460   2.7928460   0.0000000
 AtZNuc=   6.0000000   6.0000000   6.0000000   6.0000000   1.0000000   1.0000000   6.0000000   1.0000000   1.0000000   6.0000000

  Atom        11          12          13          14          15          16          17          18
 IAtWgt=           1           1          12           1           1          12          14           1
 AtmWgt=   1.0078250   1.0078250  12.0000000   1.0078250   1.0078250  12.0000000  14.0030740   1.0078250
 NucSpn=           1           1           0           1           1           0           2           1
 AtZEff=  -0.0000000  -0.0000000  -0.0000000  -0.0000000  -0.0000000  -0.0000000  -0.0000000  -0.0000000
 NQMom=    0.0000000   0.0000000   0.0000000   0.0000000   0.0000000   0.0000000   2.0440000   0.0000000
 NMagM=    2.7928460   2.7928460   0.0000000   2.7928460   2.7928460   0.0000000   0.4037610   2.7928460
 AtZNuc=   1.0000000   1.0000000   6.0000000   1.0000000   1.0000000   6.0000000   7.0000000   1.0000000
 Leave Link  101 at Thu Nov 14 13:14:04 2024, MaxMem=  5368709120 cpu:              15.1 elap:               0.4
 (Enter /mainfs/home/aa11g17/g16/l103.exe)

 GradGradGradGradGradGradGradGradGradGradGradGradGradGradGradGradGradGrad
 Berny optimization.
 Initialization pass.
                           ----------------------------
                           !    Initial Parameters    !
                           ! (Angstroms and Degrees)  !
 --------------------------                            --------------------------
 ! Name  Definition              Value          Derivative Info.                !
 --------------------------------------------------------------------------------
 ! R1    R(1,2)                  1.5502         estimate D2E/DX2                !
 ! R2    R(1,4)                  1.3576         estimate D2E/DX2                !
 ! R3    R(1,5)                  1.07           estimate D2E/DX2                !
 ! R4    R(2,7)                  1.549          estimate D2E/DX2                !
 ! R5    R(2,12)                 1.07           estimate D2E/DX2                !
 ! R6    R(2,13)                 1.5087         estimate D2E/DX2                !
 ! R7    R(3,4)                  1.53           estimate D2E/DX2                !
 ! R8    R(3,10)                 1.5315         estimate D2E/DX2                !
 ! R9    R(3,11)                 1.07           estimate D2E/DX2                !
 ! R10   R(3,13)                 1.5345         estimate D2E/DX2                !
 ! R11   R(4,6)                  1.07           estimate D2E/DX2                !
 ! R12   R(7,8)                  1.07           estimate D2E/DX2                !
 ! R13   R(7,9)                  1.07           estimate D2E/DX2                !
 ! R14   R(7,10)                 1.5724         estimate D2E/DX2                !
 ! R15   R(10,16)                1.54           estimate D2E/DX2                !
 ! R16   R(10,18)                1.07           estimate D2E/DX2                !
 ! R17   R(13,14)                1.07           estimate D2E/DX2                !
 ! R18   R(13,15)                1.07           estimate D2E/DX2                !
 ! R19   R(16,17)                1.1466         estimate D2E/DX2                !
 ! A1    A(2,1,4)              106.3312         estimate D2E/DX2                !
 ! A2    A(2,1,5)              126.8584         estimate D2E/DX2                !
 ! A3    A(4,1,5)              126.7781         estimate D2E/DX2                !
 ! A4    A(1,2,7)              103.1208         estimate D2E/DX2                !
 ! A5    A(1,2,12)             114.0276         estimate D2E/DX2                !
 ! A6    A(1,2,13)             100.9467         estimate D2E/DX2                !
 ! A7    A(7,2,12)             115.2135         estimate D2E/DX2                !
 ! A8    A(7,2,13)             104.8017         estimate D2E/DX2                !
 ! A9    A(12,2,13)            116.8543         estimate D2E/DX2                !
 ! A10   A(4,3,10)             111.4737         estimate D2E/DX2                !
 ! A11   A(4,3,11)             112.2877         estimate D2E/DX2                !
 ! A12   A(4,3,13)             103.026          estimate D2E/DX2                !
 ! A13   A(10,3,11)            113.8549         estimate D2E/DX2                !
 ! A14   A(10,3,13)             98.1443         estimate D2E/DX2                !
 ! A15   A(11,3,13)            116.8454         estimate D2E/DX2                !
 ! A16   A(1,4,3)              104.9399         estimate D2E/DX2                !
 ! A17   A(1,4,6)              127.5081         estimate D2E/DX2                !
 ! A18   A(3,4,6)              127.5451         estimate D2E/DX2                !
 ! A19   A(2,7,8)              118.166          estimate D2E/DX2                !
 ! A20   A(2,7,9)              105.9565         estimate D2E/DX2                !
 ! A21   A(2,7,10)             100.3536         estimate D2E/DX2                !
 ! A22   A(8,7,9)              108.4567         estimate D2E/DX2                !
 ! A23   A(8,7,10)             108.3431         estimate D2E/DX2                !
 ! A24   A(9,7,10)             115.7705         estimate D2E/DX2                !
 ! A25   A(3,10,7)             101.4804         estimate D2E/DX2                !
 ! A26   A(3,10,16)            104.7844         estimate D2E/DX2                !
 ! A27   A(3,10,18)            118.4207         estimate D2E/DX2                !
 ! A28   A(7,10,16)            110.1177         estimate D2E/DX2                !
 ! A29   A(7,10,18)            113.0874         estimate D2E/DX2                !
 ! A30   A(16,10,18)           108.4417         estimate D2E/DX2                !
 ! A31   A(2,13,3)              92.0258         estimate D2E/DX2                !
 ! A32   A(2,13,14)            115.478          estimate D2E/DX2                !
 ! A33   A(2,13,15)            113.4831         estimate D2E/DX2                !
 ! A34   A(3,13,14)            114.9464         estimate D2E/DX2                !
 ! A35   A(3,13,15)            114.0133         estimate D2E/DX2                !
 ! A36   A(14,13,15)           106.7271         estimate D2E/DX2                !
 ! A37   L(10,16,17,14,-1)     179.9999         estimate D2E/DX2                !
 ! A38   L(10,16,17,14,-2)     180.0002         estimate D2E/DX2                !
 ! D1    D(4,1,2,7)            -70.6218         estimate D2E/DX2                !
 ! D2    D(4,1,2,12)           163.729          estimate D2E/DX2                !
 ! D3    D(4,1,2,13)            37.5742         estimate D2E/DX2                !
 ! D4    D(5,1,2,7)            107.4099         estimate D2E/DX2                !
 ! D5    D(5,1,2,12)           -18.2394         estimate D2E/DX2                !
 ! D6    D(5,1,2,13)          -144.3942         estimate D2E/DX2                !
 ! D7    D(2,1,4,3)             -3.2786         estimate D2E/DX2                !
 ! D8    D(2,1,4,6)            175.8169         estimate D2E/DX2                !
 ! D9    D(5,1,4,3)            178.6877         estimate D2E/DX2                !
 ! D10   D(5,1,4,6)             -2.2168         estimate D2E/DX2                !
 ! D11   D(1,2,7,8)           -162.9082         estimate D2E/DX2                !
 ! D12   D(1,2,7,9)            -41.1324         estimate D2E/DX2                !
 ! D13   D(1,2,7,10)            79.6589         estimate D2E/DX2                !
 ! D14   D(12,2,7,8)           -38.0275         estimate D2E/DX2                !
 ! D15   D(12,2,7,9)            83.7483         estimate D2E/DX2                !
 ! D16   D(12,2,7,10)         -155.4604         estimate D2E/DX2                !
 ! D17   D(13,2,7,8)            91.8276         estimate D2E/DX2                !
 ! D18   D(13,2,7,9)          -146.3966         estimate D2E/DX2                !
 ! D19   D(13,2,7,10)          -25.6053         estimate D2E/DX2                !
 ! D20   D(1,2,13,3)           -52.1741         estimate D2E/DX2                !
 ! D21   D(1,2,13,14)         -171.1442         estimate D2E/DX2                !
 ! D22   D(1,2,13,15)           65.1706         estimate D2E/DX2                !
 ! D23   D(7,2,13,3)            54.6992         estimate D2E/DX2                !
 ! D24   D(7,2,13,14)          -64.2709         estimate D2E/DX2                !
 ! D25   D(7,2,13,15)          172.0439         estimate D2E/DX2                !
 ! D26   D(12,2,13,3)         -176.4226         estimate D2E/DX2                !
 ! D27   D(12,2,13,14)          64.6073         estimate D2E/DX2                !
 ! D28   D(12,2,13,15)         -59.0779         estimate D2E/DX2                !
 ! D29   D(10,3,4,1)            72.7749         estimate D2E/DX2                !
 ! D30   D(10,3,4,6)          -106.3202         estimate D2E/DX2                !
 ! D31   D(11,3,4,1)          -158.1074         estimate D2E/DX2                !
 ! D32   D(11,3,4,6)            22.7976         estimate D2E/DX2                !
 ! D33   D(13,3,4,1)           -31.5406         estimate D2E/DX2                !
 ! D34   D(13,3,4,6)           149.3644         estimate D2E/DX2                !
 ! D35   D(4,3,10,7)           -58.3921         estimate D2E/DX2                !
 ! D36   D(4,3,10,16)         -173.0116         estimate D2E/DX2                !
 ! D37   D(4,3,10,18)           66.0022         estimate D2E/DX2                !
 ! D38   D(11,3,10,7)          173.3234         estimate D2E/DX2                !
 ! D39   D(11,3,10,16)          58.7039         estimate D2E/DX2                !
 ! D40   D(11,3,10,18)         -62.2823         estimate D2E/DX2                !
 ! D41   D(13,3,10,7)           49.1237         estimate D2E/DX2                !
 ! D42   D(13,3,10,16)         -65.4958         estimate D2E/DX2                !
 ! D43   D(13,3,10,18)         173.518          estimate D2E/DX2                !
 ! D44   D(4,3,13,2)            51.4601         estimate D2E/DX2                !
 ! D45   D(4,3,13,14)          170.8781         estimate D2E/DX2                !
 ! D46   D(4,3,13,15)          -65.429          estimate D2E/DX2                !
 ! D47   D(10,3,13,2)          -62.9131         estimate D2E/DX2                !
 ! D48   D(10,3,13,14)          56.5049         estimate D2E/DX2                !
 ! D49   D(10,3,13,15)        -179.8022         estimate D2E/DX2                !
 ! D50   D(11,3,13,2)          175.0597         estimate D2E/DX2                !
 ! D51   D(11,3,13,14)         -65.5223         estimate D2E/DX2                !
 ! D52   D(11,3,13,15)          58.1706         estimate D2E/DX2                !
 ! D53   D(2,7,10,3)           -14.5799         estimate D2E/DX2                !
 ! D54   D(2,7,10,16)           96.0117         estimate D2E/DX2                !
 ! D55   D(2,7,10,18)         -142.4969         estimate D2E/DX2                !
 ! D56   D(8,7,10,3)          -139.0587         estimate D2E/DX2                !
 ! D57   D(8,7,10,16)          -28.4671         estimate D2E/DX2                !
 ! D58   D(8,7,10,18)           93.0243         estimate D2E/DX2                !
 ! D59   D(9,7,10,3)            98.906          estimate D2E/DX2                !
 ! D60   D(9,7,10,16)         -150.5023         estimate D2E/DX2                !
 ! D61   D(9,7,10,18)          -29.0109         estimate D2E/DX2                !
 --------------------------------------------------------------------------------
 Trust Radius=3.00D-01 FncErr=5.00D-06 GrdErr=5.00D-06 EigMax=2.50D+02 EigMin=1.00D-04
 Number of steps in this run=    108 maximum allowed number of steps=    108.
 GradGradGradGradGradGradGradGradGradGradGradGradGradGradGradGradGradGrad

 Leave Link  103 at Thu Nov 14 13:14:04 2024, MaxMem=  5368709120 cpu:               0.4 elap:               0.0
 (Enter /mainfs/home/aa11g17/g16/l202.exe)
                          Input orientation:                          
 ---------------------------------------------------------------------
 Center     Atomic      Atomic             Coordinates (Angstroms)
 Number     Number       Type             X           Y           Z
 ---------------------------------------------------------------------
      1          6           0       -0.632638    0.687931    0.820729
      2          6           0        0.822452    0.561765    0.301144
      3          6           0        0.074198    2.498229   -0.395087
      4          6           0       -1.107972    1.866254    0.342422
      5          1           0       -1.168030   -0.026999    1.409907
      6          1           0       -2.097842    2.259304    0.445222
      7          6           0        0.633645    0.309501   -1.215464
      8          1           0        1.459546   -0.087118   -1.768167
      9          1           0       -0.188477   -0.370044   -1.300516
     10          6           0        0.362915    1.775909   -1.714307
     11          1           0       -0.030292    3.558319   -0.496034
     12          1           0        1.406833   -0.171953    0.815981
     13          6           0        1.286710    1.993892    0.398790
     14          1           0        2.236615    2.201290   -0.047939
     15          1           0        1.332317    2.359778    1.403254
     16          6           0        1.668076    2.408914   -2.231472
     17          7           0        2.639827    2.880219   -2.616522
     18          1           0       -0.369212    1.825754   -2.493027
 ---------------------------------------------------------------------
                    Distance matrix (angstroms):
                    1          2          3          4          5
     1  C    0.000000
     2  C    1.550217   0.000000
     3  C    2.292380   2.189638   0.000000
     4  C    1.357632   2.330221   1.529979   0.000000
     5  H    1.070000   2.353299   3.343338   2.174290   0.000000
     6  H    2.181065   3.380905   2.341145   1.070000   2.649972
     7  C    2.427501   1.548995   2.403441   2.807796   3.201849
     8  H    3.417648   2.260307   3.238605   3.855178   4.124066
     9  H    2.411694   2.110820   3.019237   2.923311   2.902343
    10  C    2.932785   2.397366   1.531485   2.530179   3.918544
    11  H    3.214936   3.215898   1.070000   2.174279   4.216820
    12  H    2.213338   1.070000   3.220632   3.271512   2.646447
    13  C    2.359548   1.508661   1.534530   2.398744   3.336482
    14  H    3.358192   2.193116   2.210144   3.383917   4.322291
    15  H    2.644893   2.169668   2.199105   2.706278   3.456658
    16  C    4.191777   3.246718   2.433256   3.824376   5.218890
    17  N    5.227796   4.146186   3.415135   4.881544   6.258101
    18  H    3.513547   3.290156   2.247262   2.930389   4.393598
                    6          7          8          9         10
     6  H    0.000000
     7  C    3.744414   0.000000
     8  H    4.802062   1.070000   0.000000
     9  H    3.688733   1.070000   1.736296   0.000000
    10  C    3.309466   1.572416   2.162492   2.253968   0.000000
    11  H    2.616900   3.393113   4.138497   4.013011   2.194491
    12  H    4.281498   2.226294   2.586077   2.657783   3.359507
    13  C    3.395261   2.422702   3.009348   3.263742   2.316483
    14  H    4.362808   2.740710   2.966451   3.749904   2.543321
    15  H    3.562852   3.398450   4.007667   4.132204   3.316599
    16  C    4.622685   2.551441   2.547216   3.469305   1.540000
    17  N    5.674974   3.549129   3.304218   4.505040   2.686600
    18  H    3.436487   2.221917   2.743877   2.505251   1.070000
                   11         12         13         14         15
    11  H    0.000000
    12  H    4.207332   0.000000
    13  C    2.232182   2.208928   0.000000
    14  H    2.679774   2.658416   1.070000   0.000000
    15  H    2.626880   2.600020   1.070000   1.717217   0.000000
    16  C    2.686510   4.002010   2.689974   2.265868   3.650531
    17  N    3.476468   4.755849   3.421784   2.687218   4.258995
    18  H    2.665451   4.253787   3.336608   3.593023   4.285019
                   16         17         18
    16  C    0.000000
    17  N    1.146600   0.000000
    18  H    2.135188   3.190840   0.000000
 Stoichiometry    C8H9N
 Framework group  C1[X(C8H9N)]
 Deg. of freedom    48
 Full point group                 C1      NOp   1
 Largest Abelian subgroup         C1      NOp   1
 Largest concise Abelian subgroup C1      NOp   1
                         Standard orientation:                         
 ---------------------------------------------------------------------
 Center     Atomic      Atomic             Coordinates (Angstroms)
 Number     Number       Type             X           Y           Z
 ---------------------------------------------------------------------
      1          6           0        2.151718    0.180246   -0.014500
      2          6           0        0.942998    0.923427    0.609880
      3          6           0        0.210463   -1.038913   -0.028187
      4          6           0        1.679597   -1.014132   -0.454647
      5          1           0        3.151597    0.548782   -0.111056
      6          1           0        2.214265   -1.766617   -0.995752
      7          6           0        0.078115    1.286008   -0.622961
      8          1           0       -0.672949    2.039549   -0.509036
      9          1           0        0.764039    1.603189   -1.380461
     10          6           0       -0.636992   -0.090381   -0.881156
     11          1           0       -0.178777   -2.033964    0.028963
     12          1           0        1.214339    1.748452    1.234867
     13          6           0        0.213221   -0.220281    1.269741
     14          1           0       -0.756105    0.014625    1.657203
     15          1           0        0.762903   -0.672529    2.068629
     16          6           0       -2.025914   -0.098658   -0.216005
     17          7           0       -3.060029   -0.104825    0.279232
     18          1           0       -0.758339   -0.311619   -1.920977
 ---------------------------------------------------------------------
 Rotational constants (GHZ):           3.8229299           1.3925528           1.3292486
 Leave Link  202 at Thu Nov 14 13:14:05 2024, MaxMem=  5368709120 cpu:               1.1 elap:               0.1
 (Enter /mainfs/home/aa11g17/g16/l301.exe)
 Standard basis: CC-pVTZ (5D, 7F)
 Ernie: Thresh=  0.10000D-02 Tol=  0.10000D-05 Strict=F.
 Ernie:  27 primitive shells out of 306 were deleted.
 There are   450 symmetry adapted cartesian basis functions of A   symmetry.
 There are   396 symmetry adapted basis functions of A   symmetry.
   396 basis functions,   621 primitive gaussians,   450 cartesian basis functions
    32 alpha electrons       32 beta electrons
       nuclear repulsion energy       426.6078887951 Hartrees.
 IExCor= 4235 DFT=T Ex+Corr=M06 ExCW=0 ScaHFX=  0.270000
 ScaDFX=  1.000000  1.000000  1.000000  1.000000 ScalE2=  1.000000  1.000000
 IRadAn=      5 IRanWt=     -1 IRanGd=            0 ICorTp=0 IEmpDi=  4
 NAtoms=   18 NActive=   18 NUniq=   18 SFac= 1.00D+00 NAtFMM=   60 NAOKFM=F Big=F
 Integral buffers will be    131072 words long.
 Raffenetti 2 integral format.
 Two-electron integral symmetry is turned on.
 ------------------------------------------------------------------------------
 Polarizable Continuum Model (PCM)
 =================================
 Model                : PCM.
 Atomic radii         : SMD-Coulomb.
 Polarization charges : Total charges.
 Charge compensation  : None.
 Solution method      : On-the-fly selection.
 Cavity type          : VdW (van der Waals Surface) (Alpha=1.000).
 Cavity algorithm     : GePol (No added spheres)
                        Default sphere list used, NSphG=   18.
                        Lebedev-Laikov grids with approx.  5.0 points / Ang**2.
                        Smoothing algorithm: York/Karplus (Gamma=1.0000).
                        Polarization charges: spherical gaussians, with
                                              point-specific exponents (IZeta= 3).
                        Self-potential: point-specific (ISelfS= 7).
                        Self-field    : sphere-specific E.n sum rule (ISelfD= 2).
 1st derivatives      : Analytical E(r).r(x)/FMM algorithm (CHGder, D1EAlg=3).
                        Cavity 1st derivative terms included.
 Solvent              : Chloroform, Eps=   4.711300 Eps(inf)=   2.090627
 ------------------------------------------------------------------------------
 Spheres list:
 ISph  on   Nord     Re0    Alpha      Xe            Ye            Ze
    1   C      1    1.8500  1.000      2.151718      0.180246     -0.014500
    2   C      2    1.8500  1.000      0.942998      0.923427      0.609880
    3   C      3    1.8500  1.000      0.210463     -1.038913     -0.028187
    4   C      4    1.8500  1.000      1.679597     -1.014132     -0.454647
    5   H      5    1.2000  1.000      3.151597      0.548782     -0.111056
    6   H      6    1.2000  1.000      2.214265     -1.766617     -0.995752
    7   C      7    1.8500  1.000      0.078115      1.286008     -0.622961
    8   H      8    1.2000  1.000     -0.672949      2.039549     -0.509036
    9   H      9    1.2000  1.000      0.764039      1.603189     -1.380461
   10   C     10    1.8500  1.000     -0.636992     -0.090381     -0.881156
   11   H     11    1.2000  1.000     -0.178777     -2.033964      0.028963
   12   H     12    1.2000  1.000      1.214339      1.748452      1.234867
   13   C     13    1.8500  1.000      0.213221     -0.220281      1.269741
   14   H     14    1.2000  1.000     -0.756105      0.014625      1.657203
   15   H     15    1.2000  1.000      0.762903     -0.672529      2.068629
   16   C     16    1.8500  1.000     -2.025914     -0.098658     -0.216005
   17   N     17    1.8900  1.000     -3.060029     -0.104825      0.279232
   18   H     18    1.2000  1.000     -0.758339     -0.311619     -1.920977
 ------------------------------------------------------------------------------
 GePol: Number of generator spheres                  =      18
 GePol: Total number of spheres                      =      18
 GePol: Number of exposed spheres                    =      18 (100.00%)
 GePol: Number of points                             =    1358
 GePol: Average weight of points                     =       0.11
 GePol: Minimum weight of points                     =   0.12D-11
 GePol: Maximum weight of points                     =    0.17992
 GePol: Number of points with low weight             =      70
 GePol: Fraction of low-weight points (<1% of avg)   =       5.15%
 GePol: Cavity surface area                          =    154.315 Ang**2
 GePol: Cavity volume                                =    136.598 Ang**3
 ------------------------------------------------------------------------------
 Atomic radii for non-electrostatic terms: SMD-CDS.
 ------------------------------------------------------------------------------
 PCM non-electrostatic energy =        -0.0037761941 Hartrees.
 Nuclear repulsion after PCM non-electrostatic terms =      426.6041126010 Hartrees.
 Leave Link  301 at Thu Nov 14 13:14:07 2024, MaxMem=  5368709120 cpu:               5.0 elap:               0.2
 (Enter /mainfs/home/aa11g17/g16/l302.exe)
 NPDir=0 NMtPBC=     1 NCelOv=     1 NCel=       1 NClECP=     1 NCelD=      1
         NCelK=      1 NCelE2=     1 NClLst=     1 CellRange=     0.0.
 One-electron integrals computed using PRISM.
 One-electron integral symmetry used in STVInt
 NBasis=   396 RedAO= T EigKep=  9.20D-05  NBF=   396
 NBsUse=   396 1.00D-06 EigRej= -1.00D+00 NBFU=   396
 Precomputing XC quadrature grid using
 IXCGrd= 4 IRadAn=           5 IRanWt=          -1 IRanGd=           0 AccXCQ= 0.00D+00.
 Generated NRdTot=       0 NPtTot=           0 NUsed=           0 NTot=          32
 NSgBfM=   450   450   450   450   450 MxSgAt=    18 MxSgA2=    18.
 Leave Link  302 at Thu Nov 14 13:14:08 2024, MaxMem=  5368709120 cpu:              14.9 elap:               0.4
 (Enter /mainfs/home/aa11g17/g16/l303.exe)
 DipDrv:  MaxL=1.
 Leave Link  303 at Thu Nov 14 13:14:08 2024, MaxMem=  5368709120 cpu:               3.2 elap:               0.1
 (Enter /mainfs/home/aa11g17/g16/l401.exe)
 ExpMin= 1.03D-01 ExpMax= 1.14D+04 ExpMxC= 3.89D+02 IAcc=3 IRadAn=         5 AccDes= 0.00D+00
 Harris functional with IExCor= 1009 and IRadAn=       5 diagonalized for initial guess.
 HarFok:  IExCor= 1009 AccDes= 0.00D+00 IRadAn=         5 IDoV= 1 UseB2=F ITyADJ=14
 ICtDFT=  3500011 ScaDFX=  1.000000  1.000000  1.000000  1.000000
 FoFCou: FMM=F IPFlag=           0 FMFlag=      100000 FMFlg1=           0
         NFxFlg=           0 DoJE=T BraDBF=F KetDBF=T FulRan=T
         wScrn=  0.000000 ICntrl=       500 IOpCl=  0 I1Cent=   200000004 NGrid=           0
         NMat0=    1 NMatS0=      1 NMatT0=    0 NMatD0=    1 NMtDS0=    0 NMtDT0=    0
 Petite list used in FoFCou.
 Harris En= -364.775474091530    
 JPrj=0 DoOrth=F DoCkMO=F.
 Leave Link  401 at Thu Nov 14 13:14:10 2024, MaxMem=  5368709120 cpu:              38.7 elap:               1.0
 (Enter /mainfs/home/aa11g17/g16/l502.exe)
 Integral symmetry usage will be decided dynamically.
 Closed shell SCF:
 Using DIIS extrapolation, IDIIS=  1040.
 NGot=  5368709120 LenX=  5368281742 LenY=  5368078792
 Requested convergence on RMS density matrix=1.00D-08 within 128 cycles.
 Requested convergence on MAX density matrix=1.00D-06.
 Requested convergence on             energy=1.00D-06.
 No special actions if energy rises.
 Fock matrices will be formed incrementally for  20 cycles.

 Cycle   1  Pass 1  IDiag  1:
 FoFJK:  IHMeth= 1 ICntrl=       0 DoSepK=F KAlg= 0 I1Cent=           0 FoldK=F
 IRaf= 980000000 NMat=       1 IRICut=       1 DoRegI=T DoRafI=F ISym2E= 0 IDoP0=0 IntGTp=1.
 FoFCou: FMM=F IPFlag=           0 FMFlag=      100000 FMFlg1=           0
         NFxFlg=           0 DoJE=F BraDBF=F KetDBF=F FulRan=T
         wScrn=  0.000000 ICntrl=         0 IOpCl=  0 I1Cent=           0 NGrid=           0
         NMat0=    1 NMatS0=      1 NMatT0=    0 NMatD0=    1 NMtDS0=    0 NMtDT0=    0
 Symmetry not used in FoFCou.
 Inv3:  Mode=1 IEnd=     5532492.
 Iteration    1 A*A^-1 deviation from unit magnitude is 4.33D-15 for   1147.
 Iteration    1 A*A^-1 deviation from orthogonality  is 2.38D-15 for   1139   1004.
 Iteration    1 A^-1*A deviation from unit magnitude is 4.00D-15 for   1147.
 Iteration    1 A^-1*A deviation from orthogonality  is 5.41D-14 for   1218   1143.
 E= -364.609842960876    
 DIIS: error= 1.52D-02 at cycle   1 NSaved=   1.
 NSaved= 1 IEnMin= 1 EnMin= -364.609842960876     IErMin= 1 ErrMin= 1.52D-02
 ErrMax= 1.52D-02  0.00D+00 EMaxC= 1.00D-01 BMatC= 1.99D-01 BMatP= 1.99D-01
 IDIUse=3 WtCom= 8.48D-01 WtEn= 1.52D-01
 Coeff-Com:  0.100D+01
 Coeff-En:   0.100D+01
 Coeff:      0.100D+01
 Gap=     0.259 Goal=   None    Shift=    0.000
 GapD=    0.259 DampG=1.000 DampE=0.500 DampFc=0.5000 IDamp=-1.
 Damping current iteration by 5.00D-01
 RMSDP=2.25D-03 MaxDP=1.12D-01              OVMax= 1.56D-01

 Cycle   2  Pass 1  IDiag  1:
 RMSU=  1.12D-03    CP:  9.94D-01
 E= -364.688641657543     Delta-E=       -0.078798696667 Rises=F Damp=T
 DIIS: error= 6.51D-03 at cycle   2 NSaved=   2.
 NSaved= 2 IEnMin= 2 EnMin= -364.688641657543     IErMin= 2 ErrMin= 6.51D-03
 ErrMax= 6.51D-03  0.00D+00 EMaxC= 1.00D-01 BMatC= 1.61D-02 BMatP= 1.99D-01
 IDIUse=3 WtCom= 9.35D-01 WtEn= 6.51D-02
 Coeff-Com:  0.968D-01 0.903D+00
 Coeff-En:   0.166D+00 0.834D+00
 Coeff:      0.101D+00 0.899D+00
 Gap=     0.306 Goal=   None    Shift=    0.000
 RMSDP=1.05D-03 MaxDP=5.38D-02 DE=-7.88D-02 OVMax= 8.98D-02

 Cycle   3  Pass 1  IDiag  1:
 RMSU=  1.02D-03    CP:  1.00D+00  7.96D-01
 E= -364.794842400918     Delta-E=       -0.106200743375 Rises=F Damp=F
 DIIS: error= 6.75D-03 at cycle   3 NSaved=   3.
 NSaved= 3 IEnMin= 3 EnMin= -364.794842400918     IErMin= 2 ErrMin= 6.51D-03
 ErrMax= 6.75D-03  0.00D+00 EMaxC= 1.00D-01 BMatC= 1.02D-02 BMatP= 1.61D-02
 IDIUse=3 WtCom= 9.33D-01 WtEn= 6.75D-02
 Coeff-Com: -0.143D-01 0.436D+00 0.578D+00
 Coeff-En:   0.000D+00 0.000D+00 0.100D+01
 Coeff:     -0.133D-01 0.406D+00 0.607D+00
 Gap=     0.264 Goal=   None    Shift=    0.000
 RMSDP=2.17D-04 MaxDP=1.13D-02 DE=-1.06D-01 OVMax= 2.50D-02

 Cycle   4  Pass 1  IDiag  1:
 RMSU=  2.12D-04    CP:  1.00D+00  8.33D-01  9.78D-01
 E= -364.800491407262     Delta-E=       -0.005649006343 Rises=F Damp=F
 DIIS: error= 3.63D-03 at cycle   4 NSaved=   4.
 NSaved= 4 IEnMin= 4 EnMin= -364.800491407262     IErMin= 4 ErrMin= 3.63D-03
 ErrMax= 3.63D-03  0.00D+00 EMaxC= 1.00D-01 BMatC= 3.37D-03 BMatP= 1.02D-02
 IDIUse=3 WtCom= 9.64D-01 WtEn= 3.63D-02
 Coeff-Com: -0.131D-01 0.186D+00 0.395D+00 0.432D+00
 Coeff-En:   0.000D+00 0.000D+00 0.260D+00 0.740D+00
 Coeff:     -0.126D-01 0.179D+00 0.390D+00 0.443D+00
 Gap=     0.264 Goal=   None    Shift=    0.000
 RMSDP=1.07D-04 MaxDP=5.52D-03 DE=-5.65D-03 OVMax= 1.17D-02

 Cycle   5  Pass 1  IDiag  1:
 RMSU=  7.76D-05    CP:  1.00D+00  8.31D-01  9.54D-01  6.75D-01
 E= -364.803138522225     Delta-E=       -0.002647114964 Rises=F Damp=F
 DIIS: error= 6.75D-04 at cycle   5 NSaved=   5.
 NSaved= 5 IEnMin= 5 EnMin= -364.803138522225     IErMin= 5 ErrMin= 6.75D-04
 ErrMax= 6.75D-04  0.00D+00 EMaxC= 1.00D-01 BMatC= 1.99D-04 BMatP= 3.37D-03
 IDIUse=3 WtCom= 9.93D-01 WtEn= 6.75D-03
 Coeff-Com: -0.509D-02 0.265D-01 0.109D+00 0.235D+00 0.634D+00
 Coeff-En:   0.000D+00 0.000D+00 0.000D+00 0.108D-01 0.989D+00
 Coeff:     -0.505D-02 0.263D-01 0.108D+00 0.234D+00 0.637D+00
 Gap=     0.264 Goal=   None    Shift=    0.000
 RMSDP=2.91D-05 MaxDP=1.38D-03 DE=-2.65D-03 OVMax= 2.89D-03

 Cycle   6  Pass 1  IDiag  1:
 RMSU=  2.09D-05    CP:  1.00D+00  8.35D-01  9.62D-01  7.14D-01  7.98D-01
 E= -364.803293412488     Delta-E=       -0.000154890262 Rises=F Damp=F
 DIIS: error= 1.18D-04 at cycle   6 NSaved=   6.
 NSaved= 6 IEnMin= 6 EnMin= -364.803293412488     IErMin= 6 ErrMin= 1.18D-04
 ErrMax= 1.18D-04  0.00D+00 EMaxC= 1.00D-01 BMatC= 1.36D-05 BMatP= 1.99D-04
 IDIUse=3 WtCom= 9.99D-01 WtEn= 1.18D-03
 Coeff-Com: -0.122D-02 0.892D-03 0.233D-01 0.781D-01 0.309D+00 0.590D+00
 Coeff-En:   0.000D+00 0.000D+00 0.000D+00 0.000D+00 0.000D+00 0.100D+01
 Coeff:     -0.122D-02 0.890D-03 0.233D-01 0.780D-01 0.308D+00 0.591D+00
 Gap=     0.264 Goal=   None    Shift=    0.000
 RMSDP=7.30D-06 MaxDP=2.95D-04 DE=-1.55D-04 OVMax= 6.40D-04

 Cycle   7  Pass 1  IDiag  1:
 RMSU=  5.97D-06    CP:  1.00D+00  8.36D-01  9.62D-01  7.11D-01  8.36D-01
                    CP:  8.65D-01
 E= -364.803305410279     Delta-E=       -0.000011997791 Rises=F Damp=F
 DIIS: error= 1.88D-05 at cycle   7 NSaved=   7.
 NSaved= 7 IEnMin= 7 EnMin= -364.803305410279     IErMin= 7 ErrMin= 1.88D-05
 ErrMax= 1.88D-05  0.00D+00 EMaxC= 1.00D-01 BMatC= 3.82D-07 BMatP= 1.36D-05
 IDIUse=1 WtCom= 1.00D+00 WtEn= 0.00D+00
 Coeff-Com:  0.755D-04-0.119D-02-0.469D-03 0.739D-02 0.466D-01 0.173D+00
 Coeff-Com:  0.774D+00
 Coeff:      0.755D-04-0.119D-02-0.469D-03 0.739D-02 0.466D-01 0.173D+00
 Coeff:      0.774D+00
 Gap=     0.264 Goal=   None    Shift=    0.000
 RMSDP=2.72D-06 MaxDP=1.29D-04 DE=-1.20D-05 OVMax= 1.92D-04

 Cycle   8  Pass 1  IDiag  1:
 RMSU=  1.91D-06    CP:  1.00D+00  8.35D-01  9.64D-01  7.14D-01  8.47D-01
                    CP:  8.97D-01  1.01D+00
 E= -364.803305701976     Delta-E=       -0.000000291697 Rises=F Damp=F
 DIIS: error= 8.22D-06 at cycle   8 NSaved=   8.
 NSaved= 8 IEnMin= 8 EnMin= -364.803305701976     IErMin= 8 ErrMin= 8.22D-06
 ErrMax= 8.22D-06  0.00D+00 EMaxC= 1.00D-01 BMatC= 8.25D-08 BMatP= 3.82D-07
 IDIUse=1 WtCom= 1.00D+00 WtEn= 0.00D+00
 Coeff-Com:  0.198D-03-0.766D-03-0.286D-02-0.531D-02-0.139D-01 0.115D-01
 Coeff-Com:  0.345D+00 0.666D+00
 Coeff:      0.198D-03-0.766D-03-0.286D-02-0.531D-02-0.139D-01 0.115D-01
 Coeff:      0.345D+00 0.666D+00
 Gap=     0.264 Goal=   None    Shift=    0.000
 RMSDP=9.79D-07 MaxDP=4.51D-05 DE=-2.92D-07 OVMax= 1.69D-04

 Cycle   9  Pass 1  IDiag  1:
 RMSU=  6.83D-07    CP:  1.00D+00  8.35D-01  9.64D-01  7.15D-01  8.50D-01
                    CP:  9.11D-01  1.05D+00  9.29D-01
 E= -364.803305771608     Delta-E=       -0.000000069632 Rises=F Damp=F
 DIIS: error= 4.35D-06 at cycle   9 NSaved=   9.
 NSaved= 9 IEnMin= 9 EnMin= -364.803305771608     IErMin= 9 ErrMin= 4.35D-06
 ErrMax= 4.35D-06  0.00D+00 EMaxC= 1.00D-01 BMatC= 1.52D-08 BMatP= 8.25D-08
 IDIUse=1 WtCom= 1.00D+00 WtEn= 0.00D+00
 Coeff-Com:  0.101D-03-0.321D-03-0.147D-02-0.346D-02-0.119D-01-0.105D-01
 Coeff-Com:  0.104D+00 0.357D+00 0.567D+00
 Coeff:      0.101D-03-0.321D-03-0.147D-02-0.346D-02-0.119D-01-0.105D-01
 Coeff:      0.104D+00 0.357D+00 0.567D+00
 Gap=     0.264 Goal=   None    Shift=    0.000
 RMSDP=3.03D-07 MaxDP=1.75D-05 DE=-6.96D-08 OVMax= 7.16D-05

 Cycle  10  Pass 1  IDiag  1:
 RMSU=  2.35D-07    CP:  1.00D+00  8.35D-01  9.64D-01  7.15D-01  8.51D-01
                    CP:  9.15D-01  1.06D+00  9.70D-01  9.17D-01
 E= -364.803305784666     Delta-E=       -0.000000013058 Rises=F Damp=F
 DIIS: error= 1.45D-06 at cycle  10 NSaved=  10.
 NSaved=10 IEnMin=10 EnMin= -364.803305784666     IErMin=10 ErrMin= 1.45D-06
 ErrMax= 1.45D-06  0.00D+00 EMaxC= 1.00D-01 BMatC= 1.60D-09 BMatP= 1.52D-08
 IDIUse=1 WtCom= 1.00D+00 WtEn= 0.00D+00
 Coeff-Com:  0.139D-04-0.113D-04-0.168D-03-0.655D-03-0.327D-02-0.712D-02
 Coeff-Com: -0.139D-01 0.539D-01 0.277D+00 0.694D+00
 Coeff:      0.139D-04-0.113D-04-0.168D-03-0.655D-03-0.327D-02-0.712D-02
 Coeff:     -0.139D-01 0.539D-01 0.277D+00 0.694D+00
 Gap=     0.264 Goal=   None    Shift=    0.000
 RMSDP=1.21D-07 MaxDP=6.44D-06 DE=-1.31D-08 OVMax= 1.99D-05

 Cycle  11  Pass 1  IDiag  1:
 RMSU=  5.38D-08    CP:  1.00D+00  8.35D-01  9.64D-01  7.15D-01  8.51D-01
                    CP:  9.16D-01  1.06D+00  9.99D-01  9.79D-01  8.06D-01
 E= -364.803305786213     Delta-E=       -0.000000001547 Rises=F Damp=F
 DIIS: error= 1.82D-07 at cycle  11 NSaved=  11.
 NSaved=11 IEnMin=11 EnMin= -364.803305786213     IErMin=11 ErrMin= 1.82D-07
 ErrMax= 1.82D-07  0.00D+00 EMaxC= 1.00D-01 BMatC= 2.74D-11 BMatP= 1.60D-09
 IDIUse=1 WtCom= 1.00D+00 WtEn= 0.00D+00
 Coeff-Com: -0.971D-06 0.131D-04 0.327D-04 0.102D-04-0.246D-03-0.119D-02
 Coeff-Com: -0.798D-02-0.115D-02 0.389D-01 0.170D+00 0.801D+00
 Coeff:     -0.971D-06 0.131D-04 0.327D-04 0.102D-04-0.246D-03-0.119D-02
 Coeff:     -0.798D-02-0.115D-02 0.389D-01 0.170D+00 0.801D+00
 Gap=     0.264 Goal=   None    Shift=    0.000
 RMSDP=1.84D-08 MaxDP=9.37D-07 DE=-1.55D-09 OVMax= 1.18D-06

 Cycle  12  Pass 1  IDiag  1:
 RMSU=  1.51D-08    CP:  1.00D+00  8.35D-01  9.64D-01  7.15D-01  8.51D-01
                    CP:  9.16D-01  1.06D+00  1.00D+00  9.81D-01  8.24D-01
                    CP:  1.05D+00
 E= -364.803305786232     Delta-E=       -0.000000000019 Rises=F Damp=F
 DIIS: error= 8.83D-08 at cycle  12 NSaved=  12.
 NSaved=12 IEnMin=12 EnMin= -364.803305786232     IErMin=12 ErrMin= 8.83D-08
 ErrMax= 8.83D-08  0.00D+00 EMaxC= 1.00D-01 BMatC= 5.83D-12 BMatP= 2.74D-11
 IDIUse=1 WtCom= 1.00D+00 WtEn= 0.00D+00
 Coeff-Com: -0.130D-05 0.682D-05 0.265D-04 0.475D-04 0.990D-04-0.733D-04
 Coeff-Com: -0.263D-02-0.367D-02-0.128D-02 0.321D-01 0.363D+00 0.612D+00
 Coeff:     -0.130D-05 0.682D-05 0.265D-04 0.475D-04 0.990D-04-0.733D-04
 Coeff:     -0.263D-02-0.367D-02-0.128D-02 0.321D-01 0.363D+00 0.612D+00
 Gap=     0.264 Goal=   None    Shift=    0.000
 RMSDP=5.72D-09 MaxDP=2.63D-07 DE=-1.92D-11 OVMax= 4.46D-07

 Error on total polarization charges =  0.03101
 SCF Done:  E(RM06) =  -364.803305786     A.U. after   12 cycles
            NFock= 12  Conv=0.57D-08     -V/T= 2.0075
 KE= 3.620852166203D+02 PE=-1.698946715249D+03 EE= 5.454540802411D+02
 SMD-CDS (non-electrostatic) energy       (kcal/mol) =      -2.37
 (included in total energy above)
 Leave Link  502 at Thu Nov 14 13:15:05 2024, MaxMem=  5368709120 cpu:            2160.6 elap:              54.5
 (Enter /mainfs/home/aa11g17/g16/l601.exe)
 Copying SCF densities to generalized density rwf, IOpCl= 0 IROHF=0.

 **********************************************************************

            Population analysis using the SCF Density.

 **********************************************************************

 Orbital symmetries:
       Occupied  (A) (A) (A) (A) (A) (A) (A) (A) (A) (A) (A) (A)
                 (A) (A) (A) (A) (A) (A) (A) (A) (A) (A) (A) (A)
                 (A) (A) (A) (A) (A) (A) (A) (A)
       Virtual   (A) (A) (A) (A) (A) (A) (A) (A) (A) (A) (A) (A)
                 (A) (A) (A) (A) (A) (A) (A) (A) (A) (A) (A) (A)
                 (A) (A) (A) (A) (A) (A) (A) (A) (A) (A) (A) (A)
                 (A) (A) (A) (A) (A) (A) (A) (A) (A) (A) (A) (A)
                 (A) (A) (A) (A) (A) (A) (A) (A) (A) (A) (A) (A)
                 (A) (A) (A) (A) (A) (A) (A) (A) (A) (A) (A) (A)
                 (A) (A) (A) (A) (A) (A) (A) (A) (A) (A) (A) (A)
                 (A) (A) (A) (A) (A) (A) (A) (A) (A) (A) (A) (A)
                 (A) (A) (A) (A) (A) (A) (A) (A) (A) (A) (A) (A)
                 (A) (A) (A) (A) (A) (A) (A) (A) (A) (A) (A) (A)
                 (A) (A) (A) (A) (A) (A) (A) (A) (A) (A) (A) (A)
                 (A) (A) (A) (A) (A) (A) (A) (A) (A) (A) (A) (A)
                 (A) (A) (A) (A) (A) (A) (A) (A) (A) (A) (A) (A)
                 (A) (A) (A) (A) (A) (A) (A) (A) (A) (A) (A) (A)
                 (A) (A) (A) (A) (A) (A) (A) (A) (A) (A) (A) (A)
                 (A) (A) (A) (A) (A) (A) (A) (A) (A) (A) (A) (A)
                 (A) (A) (A) (A) (A) (A) (A) (A) (A) (A) (A) (A)
                 (A) (A) (A) (A) (A) (A) (A) (A) (A) (A) (A) (A)
                 (A) (A) (A) (A) (A) (A) (A) (A) (A) (A) (A) (A)
                 (A) (A) (A) (A) (A) (A) (A) (A) (A) (A) (A) (A)
                 (A) (A) (A) (A) (A) (A) (A) (A) (A) (A) (A) (A)
                 (A) (A) (A) (A) (A) (A) (A) (A) (A) (A) (A) (A)
                 (A) (A) (A) (A) (A) (A) (A) (A) (A) (A) (A) (A)
                 (A) (A) (A) (A) (A) (A) (A) (A) (A) (A) (A) (A)
                 (A) (A) (A) (A) (A) (A) (A) (A) (A) (A) (A) (A)
                 (A) (A) (A) (A) (A) (A) (A) (A) (A) (A) (A) (A)
                 (A) (A) (A) (A) (A) (A) (A) (A) (A) (A) (A) (A)
                 (A) (A) (A) (A) (A) (A) (A) (A) (A) (A) (A) (A)
                 (A) (A) (A) (A) (A) (A) (A) (A) (A) (A) (A) (A)
                 (A) (A) (A) (A) (A) (A) (A) (A) (A) (A) (A) (A)
                 (A) (A) (A) (A)
 The electronic state is 1-A.
 Alpha  occ. eigenvalues --  -14.38602 -10.28943 -10.28159 -10.25653 -10.24910
 Alpha  occ. eigenvalues --  -10.24465 -10.24197 -10.23985 -10.23023  -0.92569
 Alpha  occ. eigenvalues --   -0.90457  -0.77833  -0.74144  -0.71998  -0.62637
 Alpha  occ. eigenvalues --   -0.58284  -0.53945  -0.53521  -0.51790  -0.48817
 Alpha  occ. eigenvalues --   -0.44388  -0.41245  -0.39467  -0.38454  -0.38179
 Alpha  occ. eigenvalues --   -0.36453  -0.35929  -0.35534  -0.34378  -0.33629
 Alpha  occ. eigenvalues --   -0.32875  -0.26099
 Alpha virt. eigenvalues --    0.00288   0.03544   0.04184   0.04250   0.06832
 Alpha virt. eigenvalues --    0.07183   0.08188   0.08985   0.09997   0.10624
 Alpha virt. eigenvalues --    0.11022   0.12127   0.14944   0.16690   0.17705
 Alpha virt. eigenvalues --    0.18216   0.19345   0.20776   0.21861   0.25181
 Alpha virt. eigenvalues --    0.25423   0.27265   0.27676   0.29577   0.31322
 Alpha virt. eigenvalues --    0.31373   0.32884   0.34093   0.34848   0.36107
 Alpha virt. eigenvalues --    0.37169   0.37846   0.39353   0.39886   0.40384
 Alpha virt. eigenvalues --    0.40537   0.42180   0.42749   0.42930   0.43295
 Alpha virt. eigenvalues --    0.44578   0.45089   0.45290   0.45870   0.46810
 Alpha virt. eigenvalues --    0.47570   0.48346   0.50761   0.51485   0.52741
 Alpha virt. eigenvalues --    0.53960   0.54765   0.55383   0.58024   0.59810
 Alpha virt. eigenvalues --    0.60363   0.61420   0.62196   0.63515   0.67357
 Alpha virt. eigenvalues --    0.68979   0.69998   0.73463   0.75320   0.78558
 Alpha virt. eigenvalues --    0.80634   0.82895   0.85279   0.86861   0.87714
 Alpha virt. eigenvalues --    0.88232   0.89763   0.90500   0.91282   0.92185
 Alpha virt. eigenvalues --    0.92982   0.95299   0.97439   0.98951   0.99983
 Alpha virt. eigenvalues --    1.01481   1.02838   1.04359   1.04889   1.05650
 Alpha virt. eigenvalues --    1.07570   1.09097   1.09144   1.10480   1.10966
 Alpha virt. eigenvalues --    1.11974   1.13262   1.15160   1.17137   1.17168
 Alpha virt. eigenvalues --    1.18000   1.18776   1.19157   1.20543   1.22494
 Alpha virt. eigenvalues --    1.24233   1.24546   1.26120   1.27039   1.28490
 Alpha virt. eigenvalues --    1.30705   1.31269   1.31344   1.34425   1.34858
 Alpha virt. eigenvalues --    1.36942   1.37946   1.38447   1.39757   1.40241
 Alpha virt. eigenvalues --    1.41667   1.42624   1.43696   1.44738   1.46910
 Alpha virt. eigenvalues --    1.48246   1.50897   1.52134   1.53323   1.56747
 Alpha virt. eigenvalues --    1.59687   1.61381   1.63225   1.66586   1.68768
 Alpha virt. eigenvalues --    1.71182   1.73291   1.78484   1.79981   1.82829
 Alpha virt. eigenvalues --    1.85089   1.86219   1.91401   2.08617   2.08965
 Alpha virt. eigenvalues --    2.12014   2.13367   2.15406   2.22036   2.23350
 Alpha virt. eigenvalues --    2.25697   2.30991   2.34590   2.35501   2.36727
 Alpha virt. eigenvalues --    2.38635   2.40714   2.42782   2.45108   2.45743
 Alpha virt. eigenvalues --    2.46890   2.48540   2.49338   2.51503   2.51901
 Alpha virt. eigenvalues --    2.53547   2.55589   2.55952   2.57805   2.59065
 Alpha virt. eigenvalues --    2.59758   2.60295   2.62895   2.63933   2.64860
 Alpha virt. eigenvalues --    2.65794   2.67396   2.69957   2.72199   2.73013
 Alpha virt. eigenvalues --    2.74153   2.74223   2.75574   2.76784   2.78228
 Alpha virt. eigenvalues --    2.80935   2.82254   2.84432   2.85461   2.87815
 Alpha virt. eigenvalues --    2.88188   2.90835   2.91519   2.92631   2.93753
 Alpha virt. eigenvalues --    2.95987   2.99090   2.99778   3.00397   3.02858
 Alpha virt. eigenvalues --    3.04025   3.04537   3.05132   3.05796   3.07420
 Alpha virt. eigenvalues --    3.07685   3.09712   3.11096   3.13177   3.15129
 Alpha virt. eigenvalues --    3.15493   3.17715   3.18592   3.20602   3.21418
 Alpha virt. eigenvalues --    3.22161   3.23296   3.24030   3.24933   3.26554
 Alpha virt. eigenvalues --    3.27075   3.29889   3.30859   3.32809   3.33519
 Alpha virt. eigenvalues --    3.34997   3.37355   3.38598   3.40545   3.40667
 Alpha virt. eigenvalues --    3.42682   3.44332   3.47440   3.48404   3.49155
 Alpha virt. eigenvalues --    3.51733   3.52762   3.53744   3.54978   3.57156
 Alpha virt. eigenvalues --    3.59491   3.60599   3.60968   3.62500   3.63112
 Alpha virt. eigenvalues --    3.65135   3.66312   3.68589   3.70427   3.72085
 Alpha virt. eigenvalues --    3.73270   3.74258   3.76558   3.79769   3.81001
 Alpha virt. eigenvalues --    3.81923   3.82935   3.83122   3.86953   3.88244
 Alpha virt. eigenvalues --    3.89390   3.89926   3.92164   3.93199   3.95634
 Alpha virt. eigenvalues --    3.96463   3.97092   3.97960   3.98813   3.99901
 Alpha virt. eigenvalues --    4.02016   4.02683   4.04293   4.05446   4.07157
 Alpha virt. eigenvalues --    4.08148   4.08823   4.10721   4.13103   4.14272
 Alpha virt. eigenvalues --    4.14585   4.14924   4.17522   4.19738   4.21089
 Alpha virt. eigenvalues --    4.22506   4.25726   4.27014   4.27695   4.28819
 Alpha virt. eigenvalues --    4.30093   4.33151   4.34502   4.35312   4.37711
 Alpha virt. eigenvalues --    4.38747   4.40570   4.44506   4.47791   4.48872
 Alpha virt. eigenvalues --    4.50419   4.51122   4.54395   4.55623   4.56572
 Alpha virt. eigenvalues --    4.58976   4.59904   4.61928   4.62131   4.65679
 Alpha virt. eigenvalues --    4.66021   4.68396   4.70074   4.71076   4.73619
 Alpha virt. eigenvalues --    4.76623   4.78523   4.79656   4.81717   4.85200
 Alpha virt. eigenvalues --    4.86752   4.87235   4.88877   4.91873   4.95283
 Alpha virt. eigenvalues --    4.96395   4.98092   5.01937   5.02484   5.06184
 Alpha virt. eigenvalues --    5.07722   5.08662   5.10700   5.12719   5.14074
 Alpha virt. eigenvalues --    5.16213   5.17745   5.22256   5.25118   5.26109
 Alpha virt. eigenvalues --    5.27298   5.29670   5.36167   5.40240   5.42747
 Alpha virt. eigenvalues --    5.47463   5.49215   5.53041   5.58943   5.61959
 Alpha virt. eigenvalues --    5.72997   5.82286   5.88141   5.92219   5.97424
 Alpha virt. eigenvalues --    6.01970   6.03739   6.08713   6.11001   6.16712
 Alpha virt. eigenvalues --    7.87879  10.59497  11.77076  12.06669  12.51287
 Alpha virt. eigenvalues --   12.95010  13.14329  13.55615  15.88456
          Condensed to atoms (all electrons):
               1          2          3          4          5          6
     1  C    5.432755   0.243157  -0.070449   0.406514   0.424051  -0.051719
     2  C    0.243157   5.218849  -0.114451  -0.059595  -0.037970   0.009343
     3  C   -0.070449  -0.114451   5.190748   0.243099   0.010435  -0.039163
     4  C    0.406514  -0.059595   0.243099   5.406823  -0.054422   0.434672
     5  H    0.424051  -0.037970   0.010435  -0.054422   0.476717  -0.004620
     6  H   -0.051719   0.009343  -0.039163   0.434672  -0.004620   0.479944
     7  C   -0.066059   0.244697  -0.051626  -0.008875   0.002438  -0.001455
     8  H    0.006944  -0.028673   0.007468   0.000053  -0.000234   0.000072
     9  H   -0.002614  -0.055694   0.003584  -0.001383   0.002330  -0.000432
    10  C    0.001152  -0.027857   0.283089  -0.042891  -0.000824   0.002017
    11  H    0.002596   0.008176   0.418255  -0.020161  -0.000274  -0.000359
    12  H   -0.030298   0.419333   0.007921   0.005165  -0.000337  -0.000238
    13  C   -0.072307   0.258630   0.278382  -0.058405   0.004275   0.002616
    14  H    0.007100  -0.036490  -0.038088   0.004902  -0.000075  -0.000074
    15  H    0.002079  -0.038165  -0.035413   0.004076  -0.000046  -0.000115
    16  C    0.001917  -0.000971  -0.048774   0.002716   0.000107  -0.000349
    17  N   -0.000061  -0.000733   0.006699  -0.000081   0.000000   0.000004
    18  H    0.000853   0.004637  -0.029377  -0.000751  -0.000041   0.000697
               7          8          9         10         11         12
     1  C   -0.066059   0.006944  -0.002614   0.001152   0.002596  -0.030298
     2  C    0.244697  -0.028673  -0.055694  -0.027857   0.008176   0.419333
     3  C   -0.051626   0.007468   0.003584   0.283089   0.418255   0.007921
     4  C   -0.008875   0.000053  -0.001383  -0.042891  -0.020161   0.005165
     5  H    0.002438  -0.000234   0.002330  -0.000824  -0.000274  -0.000337
     6  H   -0.001455   0.000072  -0.000432   0.002017  -0.000359  -0.000238
     7  C    5.232286   0.417770   0.425524   0.242019   0.006008  -0.028424
     8  H    0.417770   0.494308  -0.015866  -0.041183  -0.000201  -0.003848
     9  H    0.425524  -0.015866   0.483774  -0.029245  -0.000097   0.001133
    10  C    0.242019  -0.041183  -0.029245   5.083240  -0.031553   0.005888
    11  H    0.006008  -0.000201  -0.000097  -0.031553   0.526265  -0.000240
    12  H   -0.028424  -0.003848   0.001133   0.005888  -0.000240   0.551039
    13  C   -0.042314  -0.001703   0.008170  -0.076089  -0.032209  -0.033146
    14  H   -0.001959   0.000372  -0.000166  -0.004580  -0.001349  -0.002655
    15  H    0.008067  -0.000233  -0.000390   0.006525  -0.002341  -0.002599
    16  C   -0.039439  -0.005068   0.005573   0.248159  -0.004112  -0.000275
    17  N    0.004838   0.000536  -0.000012  -0.057402   0.000752   0.000000
    18  H   -0.026234   0.002383  -0.004702   0.428647  -0.000887  -0.000117
              13         14         15         16         17         18
     1  C   -0.072307   0.007100   0.002079   0.001917  -0.000061   0.000853
     2  C    0.258630  -0.036490  -0.038165  -0.000971  -0.000733   0.004637
     3  C    0.278382  -0.038088  -0.035413  -0.048774   0.006699  -0.029377
     4  C   -0.058405   0.004902   0.004076   0.002716  -0.000081  -0.000751
     5  H    0.004275  -0.000075  -0.000046   0.000107   0.000000  -0.000041
     6  H    0.002616  -0.000074  -0.000115  -0.000349   0.000004   0.000697
     7  C   -0.042314  -0.001959   0.008067  -0.039439   0.004838  -0.026234
     8  H   -0.001703   0.000372  -0.000233  -0.005068   0.000536   0.002383
     9  H    0.008170  -0.000166  -0.000390   0.005573  -0.000012  -0.004702
    10  C   -0.076089  -0.004580   0.006525   0.248159  -0.057402   0.428647
    11  H   -0.032209  -0.001349  -0.002341  -0.004112   0.000752  -0.000887
    12  H   -0.033146  -0.002655  -0.002599  -0.000275   0.000000  -0.000117
    13  C    5.265839   0.432081   0.416715  -0.025054  -0.004927   0.007028
    14  H    0.432081   0.463651  -0.015548   0.007949  -0.002647   0.000245
    15  H    0.416715  -0.015548   0.500355  -0.000038   0.000192  -0.000208
    16  C   -0.025054   0.007949  -0.000038   4.915102   1.018017  -0.028344
    17  N   -0.004927  -0.002647   0.000192   1.018017   6.263035  -0.001337
    18  H    0.007028   0.000245  -0.000208  -0.028344  -0.001337   0.497047
 Mulliken charges:
               1
     1  C   -0.235612
     2  C   -0.006223
     3  C   -0.022339
     4  C   -0.261456
     5  H    0.178491
     6  H    0.169159
     7  C   -0.317263
     8  H    0.167101
     9  H    0.180513
    10  C    0.010887
    11  H    0.131734
    12  H    0.111697
    13  C   -0.327581
    14  H    0.187331
    15  H    0.157087
    16  C   -0.047116
    17  N   -0.226874
    18  H    0.150463
 Sum of Mulliken charges =  -0.00000
 Mulliken charges with hydrogens summed into heavy atoms:
               1
     1  C   -0.057121
     2  C    0.105474
     3  C    0.109395
     4  C   -0.092297
     7  C    0.030351
    10  C    0.161350
    13  C    0.016837
    16  C   -0.047116
    17  N   -0.226874
 Electronic spatial extent (au):  <R**2>=           1001.6452
 Charge=             -0.0000 electrons
 Dipole moment (field-independent basis, Debye):
    X=              4.5700    Y=              0.3579    Z=             -1.5429  Tot=              4.8367
 Quadrupole moment (field-independent basis, Debye-Ang):
   XX=            -68.8094   YY=            -50.4737   ZZ=            -51.3841
   XY=              0.1020   XZ=              2.6325   YZ=              1.0647
 Traceless Quadrupole moment (field-independent basis, Debye-Ang):
   XX=            -11.9203   YY=              6.4154   ZZ=              5.5050
   XY=              0.1020   XZ=              2.6325   YZ=              1.0647
 Octapole moment (field-independent basis, Debye-Ang**2):
  XXX=             70.4181  YYY=             -0.5082  ZZZ=             -1.3471  XYY=              2.7902
  XXY=              4.6932  XXZ=            -11.3090  XZZ=             -0.7329  YZZ=             -0.3766
  YYZ=             -2.0281  XYZ=              1.8320
 Hexadecapole moment (field-independent basis, Debye-Ang**3):
 XXXX=          -1062.6943 YYYY=           -265.2646 ZZZZ=           -218.9807 XXXY=              0.6564
 XXXZ=             20.7103 YYYX=             -2.7858 YYYZ=              4.3526 ZZZX=              6.6325
 ZZZY=              1.5828 XXYY=           -186.0520 XXZZ=           -188.3866 YYZZ=            -81.5051
 XXYZ=              7.1543 YYXZ=             -3.1697 ZZXY=             -0.1178
 N-N= 4.266041126010D+02 E-N=-1.698946720657D+03  KE= 3.620852166203D+02
 No NMR shielding tensors so no spin-rotation constants.
 Leave Link  601 at Thu Nov 14 13:15:06 2024, MaxMem=  5368709120 cpu:              22.0 elap:               0.8
 (Enter /mainfs/home/aa11g17/g16/l701.exe)
 ... and contract with generalized density number  0.
 Compute integral first derivatives.
 D1PCM: PCM CHGder 1st derivatives, ID1Alg=3 FixD1E=F DoIter=F DoCFld=F I1PDM=0.
 GePol: Maximum number of non-zero 1st derivatives   =     254
 Leave Link  701 at Thu Nov 14 13:15:08 2024, MaxMem=  5368709120 cpu:              41.4 elap:               1.1
 (Enter /mainfs/home/aa11g17/g16/l702.exe)
 L702 exits ... SP integral derivatives will be done elsewhere.
 Leave Link  702 at Thu Nov 14 13:15:08 2024, MaxMem=  5368709120 cpu:               1.9 elap:               0.1
 (Enter /mainfs/home/aa11g17/g16/l703.exe)
 Integral derivatives from FoFJK, PRISM(SPDF).
 Compute integral first derivatives, UseDBF=F ICtDFT=           0.
 Calling FoFJK, ICntrl=      2127 FMM=F ISym2X=0 I1Cent= 0 IOpClX= 0 NMat=1 NMatS=1 NMatT=0.
 FoFJK:  IHMeth= 1 ICntrl=    2127 DoSepK=F KAlg= 0 I1Cent=           0 FoldK=F
 IRaf=         0 NMat=       1 IRICut=       1 DoRegI=T DoRafI=F ISym2E= 0 IDoP0=0 IntGTp=1.
 FoFCou: FMM=F IPFlag=           0 FMFlag=      100000 FMFlg1=         800
         NFxFlg=           0 DoJE=F BraDBF=F KetDBF=F FulRan=T
         wScrn=  0.000000 ICntrl=      2127 IOpCl=  0 I1Cent=           0 NGrid=           0
         NMat0=    1 NMatS0=      1 NMatT0=    0 NMatD0=    1 NMtDS0=    0 NMtDT0=    0
 Symmetry not used in FoFCou.
 Leave Link  703 at Thu Nov 14 13:15:22 2024, MaxMem=  5368709120 cpu:             554.6 elap:              13.9
 (Enter /mainfs/home/aa11g17/g16/l716.exe)
 Dipole        = 1.79799408D+00 1.40808085D-01-6.07040494D-01
 ***** Axes restored to original set *****
 -------------------------------------------------------------------
 Center     Atomic                   Forces (Hartrees/Bohr)
 Number     Number              X              Y              Z
 -------------------------------------------------------------------
      1        6           0.006214092    0.034616741   -0.016882464
      2        6          -0.016970527   -0.011361634    0.010661753
      3        6          -0.011792698    0.012730309    0.008586185
      4        6           0.036310085   -0.033373610    0.005822635
      5        1          -0.002556336   -0.008514677    0.001693052
      6        1          -0.005230235    0.004763632   -0.001482662
      7        6           0.005733516    0.024067802    0.005803959
      8        1           0.014000940   -0.007798426    0.000336792
      9        1          -0.011855250   -0.002880914   -0.012197407
     10        6           0.034989427   -0.002527974   -0.002497164
     11        1           0.002187692    0.013436777   -0.003983804
     12        1           0.007128415   -0.009354184    0.003966145
     13        6          -0.018406343   -0.002668027    0.002672878
     14        1           0.010223937    0.000696779   -0.007906705
     15        1          -0.004259932    0.003769954    0.013212189
     16        6          -0.041373804   -0.023177133    0.001404464
     17        7           0.005269621    0.003466088   -0.002256728
     18        1          -0.009612600    0.004108497   -0.006953117
 -------------------------------------------------------------------
 Cartesian Forces:  Max     0.041373804 RMS     0.014273336
 Leave Link  716 at Thu Nov 14 13:15:23 2024, MaxMem=  5368709120 cpu:               2.5 elap:               0.1
 (Enter /mainfs/home/aa11g17/g16/l103.exe)

 GradGradGradGradGradGradGradGradGradGradGradGradGradGradGradGradGradGrad
 Berny optimization.
 FormGI is forming the generalized inverse of G from B-inverse, IUseBI=4.
 Internal  Forces:  Max     0.038416354 RMS     0.006808350
 Search for a local minimum.
 Step number   1 out of a maximum of  108
 All quantities printed in internal units (Hartrees-Bohrs-Radians)
 RMS Force = .68083D-02 SwitMx=.10000D-02 MixMth= 1
 Mixed Optimization -- RFO/linear search
 Second derivative matrix not updated -- first step.
 ITU=  0
     Eigenvalues ---    0.00477   0.00876   0.01364   0.01658   0.01867
     Eigenvalues ---    0.02495   0.03171   0.04157   0.04264   0.04506
     Eigenvalues ---    0.04927   0.05044   0.05044   0.05338   0.05423
     Eigenvalues ---    0.05764   0.06093   0.06282   0.06632   0.07339
     Eigenvalues ---    0.07823   0.08290   0.09321   0.10335   0.11851
     Eigenvalues ---    0.12721   0.15976   0.15996   0.17204   0.23230
     Eigenvalues ---    0.24835   0.25553   0.25992   0.27150   0.28519
     Eigenvalues ---    0.28529   0.28919   0.37230   0.37230   0.37230
     Eigenvalues ---    0.37230   0.37230   0.37230   0.37230   0.37230
     Eigenvalues ---    0.37230   0.47989   1.36980
 RFO step:  Lambda=-2.67368931D-02 EMin= 4.76524071D-03
 Linear search not attempted -- first point.
 Iteration  1 RMS(Cart)=  0.08019677 RMS(Int)=  0.00279644
 Iteration  2 RMS(Cart)=  0.00392043 RMS(Int)=  0.00058918
 Iteration  3 RMS(Cart)=  0.00000689 RMS(Int)=  0.00058914
 Iteration  4 RMS(Cart)=  0.00000000 RMS(Int)=  0.00058914
 ITry= 1 IFail=0 DXMaxC= 4.20D-01 DCOld= 1.00D+10 DXMaxT= 3.00D-01 DXLimC= 3.00D+00 Rises=F
 Variable       Old X    -DE/DX   Delta X   Delta X   Delta X     New X
                                 (Linear)    (Quad)   (Total)
    R1        2.92949  -0.01607   0.00000  -0.06013  -0.06044   2.86905
    R2        2.56555  -0.02328   0.00000  -0.04519  -0.04472   2.52084
    R3        2.02201   0.00790   0.00000   0.01980   0.01980   2.04181
    R4        2.92718   0.00555   0.00000   0.01773   0.01759   2.94477
    R5        2.02201   0.01222   0.00000   0.03061   0.03061   2.05262
    R6        2.85096   0.00513   0.00000   0.02567   0.02589   2.87684
    R7        2.89124  -0.01296   0.00000  -0.03694  -0.03637   2.85488
    R8        2.89409   0.01255   0.00000   0.04000   0.04026   2.93435
    R9        2.02201   0.01347   0.00000   0.03377   0.03377   2.05577
   R10        2.89984   0.00116   0.00000   0.00852   0.00759   2.90743
   R11        2.02201   0.00645   0.00000   0.01615   0.01615   2.03816
   R12        2.02201   0.01352   0.00000   0.03389   0.03389   2.05589
   R13        2.02201   0.01191   0.00000   0.02984   0.02984   2.05185
   R14        2.97143  -0.00497   0.00000  -0.02524  -0.02532   2.94612
   R15        2.91018  -0.03842   0.00000  -0.12316  -0.12316   2.78702
   R16        2.02201   0.01183   0.00000   0.02965   0.02965   2.05165
   R17        2.02201   0.01251   0.00000   0.03136   0.03136   2.05337
   R18        2.02201   0.01351   0.00000   0.03386   0.03386   2.05586
   R19        2.16676   0.00665   0.00000   0.00476   0.00476   2.17152
    A1        1.85583   0.00353   0.00000   0.01074   0.01039   1.86622
    A2        2.21410  -0.00483   0.00000  -0.02199  -0.02185   2.19224
    A3        2.21269   0.00124   0.00000   0.01063   0.01068   2.22337
    A4        1.79980  -0.00201   0.00000  -0.00318  -0.00402   1.79578
    A5        1.99016   0.00259   0.00000   0.01760   0.01805   2.00821
    A6        1.76185  -0.00515   0.00000  -0.03344  -0.03342   1.72843
    A7        2.01085   0.00082   0.00000   0.00093   0.00138   2.01224
    A8        1.82913  -0.00074   0.00000  -0.01166  -0.01203   1.81711
    A9        2.03949   0.00315   0.00000   0.02217   0.02197   2.06146
   A10        1.94558  -0.00588   0.00000  -0.05629  -0.05568   1.88990
   A11        1.95979   0.00726   0.00000   0.03994   0.04021   2.00000
   A12        1.79814  -0.00914   0.00000  -0.06563  -0.06514   1.73300
   A13        1.98714  -0.00025   0.00000   0.00863   0.00829   1.99543
   A14        1.71294   0.00519   0.00000   0.03930   0.03643   1.74938
   A15        2.03934   0.00127   0.00000   0.02337   0.02352   2.06286
   A16        1.83155   0.00944   0.00000   0.04566   0.04600   1.87755
   A17        2.22544  -0.00146   0.00000  -0.00553  -0.00595   2.21948
   A18        2.22608  -0.00800   0.00000  -0.04062  -0.04104   2.18504
   A19        2.06239  -0.00194   0.00000  -0.02636  -0.02763   2.03476
   A20        1.84929  -0.00014   0.00000   0.02661   0.02849   1.87778
   A21        1.75150   0.00599   0.00000   0.03638   0.03474   1.78624
   A22        1.89293   0.00134   0.00000  -0.00198  -0.00183   1.89109
   A23        1.89094   0.00290   0.00000   0.04411   0.04544   1.93639
   A24        2.02058  -0.00881   0.00000  -0.08530  -0.08526   1.93532
   A25        1.77117  -0.00296   0.00000   0.01218   0.01050   1.78167
   A26        1.82883   0.00598   0.00000   0.06327   0.06396   1.89280
   A27        2.06683   0.00101   0.00000  -0.02093  -0.02072   2.04611
   A28        1.92192   0.00002   0.00000  -0.00490  -0.00584   1.91607
   A29        1.97375   0.00225   0.00000   0.01468   0.01543   1.98918
   A30        1.89267  -0.00576   0.00000  -0.05656  -0.05646   1.83620
   A31        1.60615   0.00026   0.00000   0.02952   0.02884   1.63499
   A32        2.01547  -0.00139   0.00000  -0.02374  -0.02350   1.99197
   A33        1.98065  -0.00002   0.00000  -0.00301  -0.00260   1.97805
   A34        2.00619  -0.00146   0.00000  -0.01633  -0.01603   1.99017
   A35        1.98991  -0.00020   0.00000  -0.01325  -0.01301   1.97690
   A36        1.86274   0.00232   0.00000   0.02341   0.02317   1.88591
   A37        3.14159   0.00040   0.00000   0.00524   0.00524   3.14683
   A38        3.14160   0.00171   0.00000   0.02214   0.02214   3.16374
    D1       -1.23258   0.00238   0.00000   0.00111   0.00157  -1.23101
    D2        2.85761   0.00122   0.00000  -0.00844  -0.00836   2.84925
    D3        0.65579  -0.00056   0.00000  -0.02251  -0.02215   0.63364
    D4        1.87466   0.00071   0.00000  -0.01707  -0.01652   1.85813
    D5       -0.31834  -0.00045   0.00000  -0.02662  -0.02645  -0.34479
    D6       -2.52015  -0.00223   0.00000  -0.04070  -0.04024  -2.56039
    D7       -0.05722   0.00060   0.00000   0.02281   0.02341  -0.03381
    D8        3.06858  -0.00107   0.00000  -0.00951  -0.00967   3.05892
    D9        3.11869   0.00243   0.00000   0.04181   0.04276  -3.12173
   D10       -0.03869   0.00076   0.00000   0.00949   0.00968  -0.02901
   D11       -2.84328  -0.00007   0.00000  -0.00503  -0.00575  -2.84903
   D12       -0.71790   0.00028   0.00000  -0.00379  -0.00414  -0.72204
   D13        1.39031  -0.00689   0.00000  -0.07207  -0.07231   1.31800
   D14       -0.66370   0.00223   0.00000   0.01543   0.01500  -0.64870
   D15        1.46168   0.00258   0.00000   0.01667   0.01661   1.47829
   D16       -2.71330  -0.00460   0.00000  -0.05161  -0.05156  -2.76486
   D17        1.60269   0.00640   0.00000   0.03584   0.03517   1.63786
   D18       -2.55510   0.00676   0.00000   0.03709   0.03677  -2.51833
   D19       -0.44690  -0.00042   0.00000  -0.03120  -0.03140  -0.47829
   D20       -0.91061   0.00011   0.00000  -0.01075  -0.01085  -0.92146
   D21       -2.98703   0.00206   0.00000  -0.00142  -0.00121  -2.98824
   D22        1.13744   0.00002   0.00000  -0.01143  -0.01142   1.12602
   D23        0.95468  -0.00397   0.00000  -0.02865  -0.02895   0.92573
   D24       -1.12174  -0.00203   0.00000  -0.01932  -0.01931  -1.14105
   D25        3.00273  -0.00407   0.00000  -0.02932  -0.02952   2.97321
   D26       -3.07915  -0.00115   0.00000  -0.02089  -0.02107  -3.10022
   D27        1.12761   0.00080   0.00000  -0.01157  -0.01143   1.11618
   D28       -1.03110  -0.00124   0.00000  -0.02157  -0.02164  -1.05274
   D29        1.27016  -0.00187   0.00000  -0.02539  -0.02449   1.24567
   D30       -1.85564  -0.00027   0.00000   0.00653   0.00736  -1.84828
   D31       -2.75949  -0.00110   0.00000  -0.02775  -0.02776  -2.78725
   D32        0.39789   0.00050   0.00000   0.00416   0.00410   0.40199
   D33       -0.55049  -0.00147   0.00000  -0.02006  -0.02075  -0.57124
   D34        2.60690   0.00013   0.00000   0.01186   0.01111   2.61801
   D35       -1.01913   0.00413   0.00000  -0.02708  -0.02642  -1.04556
   D36       -3.01962   0.00318   0.00000  -0.04819  -0.04820  -3.06782
   D37        1.15196   0.00531   0.00000  -0.01132  -0.01111   1.14085
   D38        3.02506  -0.00057   0.00000  -0.04055  -0.04027   2.98480
   D39        1.02458  -0.00152   0.00000  -0.06166  -0.06205   0.96253
   D40       -1.08703   0.00061   0.00000  -0.02479  -0.02495  -1.11199
   D41        0.85737  -0.00524   0.00000  -0.09732  -0.09752   0.75985
   D42       -1.14312  -0.00620   0.00000  -0.11843  -0.11930  -1.26242
   D43        3.02846  -0.00406   0.00000  -0.08156  -0.08221   2.94625
   D44        0.89815  -0.00218   0.00000   0.00587   0.00574   0.90389
   D45        2.98238  -0.00407   0.00000  -0.00987  -0.01023   2.97216
   D46       -1.14195  -0.00224   0.00000  -0.00249  -0.00260  -1.14455
   D47       -1.09804   0.00479   0.00000   0.07016   0.07082  -1.02722
   D48        0.98620   0.00291   0.00000   0.05442   0.05485   1.04105
   D49       -3.13814   0.00473   0.00000   0.06179   0.06248  -3.07566
   D50        3.05537   0.00091   0.00000   0.02130   0.02116   3.07653
   D51       -1.14358  -0.00097   0.00000   0.00555   0.00519  -1.13839
   D52        1.01527   0.00086   0.00000   0.01293   0.01282   1.02809
   D53       -0.25447   0.00498   0.00000   0.08076   0.08106  -0.17341
   D54        1.67572   0.01032   0.00000   0.15573   0.15613   1.83185
   D55       -2.48704   0.00447   0.00000   0.08947   0.09013  -2.39691
   D56       -2.42703   0.00274   0.00000   0.07194   0.07111  -2.35592
   D57       -0.49684   0.00808   0.00000   0.14691   0.14619  -0.35066
   D58        1.62358   0.00223   0.00000   0.08066   0.08018   1.70376
   D59        1.72624   0.00484   0.00000   0.09939   0.09865   1.82488
   D60       -2.62676   0.01018   0.00000   0.17437   0.17372  -2.45304
   D61       -0.50634   0.00433   0.00000   0.10811   0.10772  -0.39862
         Item               Value     Threshold  Converged?
 Maximum Force            0.038416     0.000015     NO 
 RMS     Force            0.006808     0.000010     NO 
 Maximum Displacement     0.420289     0.000060     NO 
 RMS     Displacement     0.079590     0.000040     NO 
 Predicted change in Energy=-1.704331D-02
 Lowest energy point so far.  Saving SCF results.
 GradGradGradGradGradGradGradGradGradGradGradGradGradGradGradGradGradGrad

 Leave Link  103 at Thu Nov 14 13:15:23 2024, MaxMem=  5368709120 cpu:               5.0 elap:               0.2
 (Enter /mainfs/home/aa11g17/g16/l202.exe)
                          Input orientation:                          
 ---------------------------------------------------------------------
 Center     Atomic      Atomic             Coordinates (Angstroms)
 Number     Number       Type             X           Y           Z
 ---------------------------------------------------------------------
      1          6           0       -0.624039    0.692947    0.784718
      2          6           0        0.819421    0.540516    0.339498
      3          6           0        0.115128    2.537402   -0.368757
      4          6           0       -1.046854    1.874981    0.333610
      5          1           0       -1.199448   -0.049582    1.318558
      6          1           0       -2.043785    2.280522    0.403819
      7          6           0        0.688862    0.338595   -1.200145
      8          1           0        1.556920   -0.070280   -1.712877
      9          1           0       -0.154056   -0.323397   -1.373935
     10          6           0        0.374689    1.781481   -1.700059
     11          1           0        0.023784    3.616082   -0.476292
     12          1           0        1.383500   -0.226721    0.861985
     13          6           0        1.269160    1.987398    0.487298
     14          1           0        2.256556    2.189380    0.081168
     15          1           0        1.248466    2.342187    1.515529
     16          6           0        1.571243    2.359803   -2.339526
     17          7           0        2.491674    2.832959   -2.838929
     18          1           0       -0.402549    1.826674   -2.456747
 ---------------------------------------------------------------------
                    Distance matrix (angstroms):
                    1          2          3          4          5
     1  C    0.000000
     2  C    1.518234   0.000000
     3  C    2.297583   2.232757   0.000000
     4  C    1.333970   2.294300   1.510736   0.000000
     5  H    1.080477   2.320045   3.356729   2.167337   0.000000
     6  H    2.163598   3.351076   2.307329   1.078548   2.641786
     7  C    2.406025   1.558306   2.419737   2.779495   3.171791
     8  H    3.402511   2.264778   3.268857   3.840805   4.097266
     9  H    2.431794   2.151710   3.044177   2.923297   2.901265
    10  C    2.890758   2.428492   1.552789   2.483009   3.865585
    11  H    3.248775   3.279887   1.087869   2.198554   4.260854
    12  H    2.209519   1.086200   3.280833   3.256217   2.628966
    13  C    2.312632   1.522359   1.538546   2.323828   3.306707
    14  H    3.321464   2.202463   2.215686   3.327926   4.299773
    15  H    2.600068   2.193888   2.207509   2.623683   3.428067
    16  C    4.166362   3.324486   2.456775   3.772948   5.182996
    17  N    5.236234   4.260766   3.440505   4.848083   6.262438
    18  H    3.441146   3.311555   2.265574   2.864184   4.290491
                    6          7          8          9         10
     6  H    0.000000
     7  C    3.716334   0.000000
     8  H    4.792885   1.087933   0.000000
     9  H    3.675851   1.085793   1.762495   0.000000
    10  C    3.244128   1.559019   2.197010   2.194639   0.000000
    11  H    2.614031   3.421727   4.179583   4.044365   2.233048
    12  H    4.271120   2.248217   2.585433   2.715283   3.408027
    13  C    3.326935   2.429560   3.026156   3.290822   2.372133
    14  H    4.313391   2.743143   2.968864   3.773914   2.623085
    15  H    3.475431   3.420880   4.041997   4.173896   3.379036
    16  C    4.538795   2.482352   2.509621   3.332955   1.474827
    17  N    5.602767   3.486776   3.251240   4.371348   2.623787
    18  H    3.329035   2.232624   2.826888   2.420132   1.085688
                   11         12         13         14         15
    11  H    0.000000
    12  H    4.290332   0.000000
    13  C    2.265409   2.248508   0.000000
    14  H    2.707676   2.685041   1.086595   0.000000
    15  H    2.662707   2.654174   1.087916   1.759825   0.000000
    16  C    2.728463   4.120076   2.867207   2.521598   3.868584
    17  N    3.505114   4.928129   3.643255   2.999407   4.554967
    18  H    2.702951   4.291897   3.389373   3.693698   4.332503
                   16         17         18
    16  C    0.000000
    17  N    1.149119   0.000000
    18  H    2.047883   3.087913   0.000000
 Stoichiometry    C8H9N
 Framework group  C1[X(C8H9N)]
 Deg. of freedom    48
 Full point group                 C1      NOp   1
 RotChk:  IX=0 Diff= 1.02D-01
 Largest Abelian subgroup         C1      NOp   1
 Largest concise Abelian subgroup C1      NOp   1
                         Standard orientation:                         
 ---------------------------------------------------------------------
 Center     Atomic      Atomic             Coordinates (Angstroms)
 Number     Number       Type             X           Y           Z
 ---------------------------------------------------------------------
      1          6           0        2.119046    0.180924   -0.165684
      2          6           0        1.029440    0.938543    0.571748
      3          6           0        0.199206   -1.064522    0.039164
      4          6           0        1.606880   -1.002920   -0.505795
      5          1           0        3.099563    0.565355   -0.406993
      6          1           0        2.076800   -1.769216   -1.101806
      7          6           0        0.011354    1.272377   -0.559788
      8          1           0       -0.719035    2.049242   -0.343895
      9          1           0        0.580022    1.571515   -1.435047
     10          6           0       -0.688427   -0.100886   -0.794303
     11          1           0       -0.203448   -2.070045    0.140422
     12          1           0        1.373196    1.789563    1.152634
     13          6           0        0.389749   -0.225946    1.314941
     14          1           0       -0.537970    0.026138    1.821381
     15          1           0        1.053974   -0.691435    2.039982
     16          6           0       -2.038946   -0.080525   -0.202020
     17          7           0       -3.093242   -0.089695    0.254981
     18          1           0       -0.840219   -0.345528   -1.841120
 ---------------------------------------------------------------------
 Rotational constants (GHZ):           3.8274879           1.3852506           1.3180301
 Leave Link  202 at Thu Nov 14 13:15:23 2024, MaxMem=  5368709120 cpu:               0.3 elap:               0.0
 (Enter /mainfs/home/aa11g17/g16/l301.exe)
 Standard basis: CC-pVTZ (5D, 7F)
 Ernie: Thresh=  0.10000D-02 Tol=  0.10000D-05 Strict=F.
 Ernie:  27 primitive shells out of 306 were deleted.
 There are   450 symmetry adapted cartesian basis functions of A   symmetry.
 There are   396 symmetry adapted basis functions of A   symmetry.
   396 basis functions,   621 primitive gaussians,   450 cartesian basis functions
    32 alpha electrons       32 beta electrons
       nuclear repulsion energy       426.5338966948 Hartrees.
 IExCor= 4235 DFT=T Ex+Corr=M06 ExCW=0 ScaHFX=  0.270000
[...]
     10  0.467606D+01 -0.465866D+00  0.267600D+02 -0.403614D+01 -0.376247D+01
     11  0.625003D+01  0.886281D+01  0.172849D+03 -0.324540D+01 -0.218177D+00
     12 -0.338187D+01  0.168019D+03  0.904694D+01  0.635150D+01  0.416165D+01
     13  0.247192D+01  0.310902D+02  0.321913D+02  0.263769D+01  0.337685D+01
     14  0.858060D+01 -0.267037D+01 -0.299034D+01  0.887457D+01 -0.210401D+00
     15  0.155636D+01 -0.304919D+01 -0.270872D+01  0.163236D+01 -0.554676D+00
     16  0.398648D+00  0.646716D+00 -0.173363D+01  0.404892D+01 -0.482950D+00
     17  0.433945D-01  0.142016D-01  0.731742D+00  0.588111D-01 -0.831534D-02
     18 -0.475867D-01  0.140207D+01 -0.480741D+01  0.401702D+01 -0.131050D-01
                6             7             8             9            10 
      6  0.000000D+00
      7 -0.321717D+01  0.000000D+00
      8 -0.103203D+01  0.151948D+03  0.000000D+00
      9 -0.640730D-01  0.157985D+03 -0.249288D+02  0.000000D+00
     10  0.154512D+01  0.412767D+02 -0.356807D+01 -0.403679D+01  0.000000D+00
     11  0.416687D+01  0.374305D+01 -0.559339D+00 -0.732584D+00 -0.117009D+01
     12 -0.221570D+00  0.782123D-01  0.466101D+01  0.629972D+00  0.556681D+01
     13  0.318326D+01  0.297206D+01  0.356307D+00  0.609955D+01  0.397867D+01
     14 -0.190232D+00  0.156068D+01  0.866244D-01 -0.945392D-01  0.143347D+01
     15 -0.535067D+00  0.812303D+01 -0.300623D+00  0.155046D+01  0.816153D+01
     16  0.227800D+00 -0.893039D+00  0.756072D+01  0.253030D+01  0.604854D+02
     17  0.284659D-01  0.752732D+00  0.364303D-01  0.294325D-01 -0.251656D+01
     18 -0.722702D-01 -0.531953D+01  0.343867D+01  0.109244D+02  0.163479D+03
               11            12            13            14            15 
     11  0.000000D+00
     12  0.438677D+00  0.000000D+00
     13 -0.186387D+01 -0.221113D+01  0.000000D+00
     14  0.196403D+01  0.185218D+01  0.148398D+03  0.000000D+00
     15  0.211099D+01  0.226876D+01  0.155721D+03 -0.215487D+02  0.000000D+00
     16  0.271096D+01 -0.294576D+00  0.126566D+00 -0.980097D-01 -0.259870D+00
     17 -0.652298D-01  0.724298D-01 -0.167297D-01  0.559398D-01  0.817926D-02
     18  0.789432D+00 -0.111275D+01  0.437465D+01 -0.350312D-02  0.811758D+00
               16            17            18 
     16  0.000000D+00
     17  0.145978D+02  0.000000D+00
     18 -0.130021D+02  0.184806D+01  0.000000D+00
 End of Minotr F.D. properties file   721 does not exist.
 End of Minotr F.D. properties file   722 does not exist.
 End of Minotr F.D. properties file   788 does not exist.
 Leave Link 1002 at Thu Nov 14 14:55:00 2024, MaxMem=  5368709120 cpu:           76614.6 elap:            1922.7
 (Enter /mainfs/home/aa11g17/g16/l601.exe)
 Copying SCF densities to generalized density rwf, IOpCl= 0 IROHF=0.

 **********************************************************************

            Population analysis using the SCF Density.

 **********************************************************************

 Orbital symmetries:
       Occupied  (A) (A) (A) (A) (A) (A) (A) (A) (A) (A) (A) (A)
                 (A) (A) (A) (A) (A) (A) (A) (A) (A) (A) (A) (A)
                 (A) (A) (A) (A) (A) (A) (A) (A)
       Virtual   (A) (A) (A) (A) (A) (A) (A) (A) (A) (A) (A) (A)
                 (A) (A) (A) (A) (A) (A) (A) (A) (A) (A) (A) (A)
                 (A) (A) (A) (A) (A) (A) (A) (A) (A) (A) (A) (A)
                 (A) (A) (A) (A) (A) (A) (A) (A) (A) (A) (A) (A)
                 (A) (A) (A) (A) (A) (A) (A) (A) (A) (A) (A) (A)
                 (A) (A) (A) (A) (A) (A) (A) (A) (A) (A) (A) (A)
                 (A) (A) (A) (A) (A) (A) (A) (A) (A) (A) (A) (A)
                 (A) (A) (A) (A) (A) (A) (A) (A) (A) (A) (A) (A)
                 (A) (A) (A) (A) (A) (A) (A) (A) (A) (A) (A) (A)
                 (A) (A) (A) (A) (A) (A) (A) (A) (A) (A) (A) (A)
                 (A) (A) (A) (A) (A) (A) (A) (A) (A) (A) (A) (A)
                 (A) (A) (A) (A) (A) (A) (A) (A) (A) (A) (A) (A)
                 (A) (A) (A) (A) (A) (A) (A) (A) (A) (A) (A) (A)
                 (A) (A) (A) (A) (A) (A) (A) (A) (A) (A) (A) (A)
                 (A) (A) (A) (A) (A) (A) (A) (A) (A) (A) (A) (A)
                 (A) (A) (A) (A) (A) (A) (A) (A) (A) (A) (A) (A)
                 (A) (A) (A) (A) (A) (A) (A) (A) (A) (A) (A) (A)
                 (A) (A) (A) (A) (A) (A) (A) (A) (A) (A) (A) (A)
                 (A) (A) (A) (A) (A) (A) (A) (A) (A) (A) (A) (A)
                 (A) (A) (A) (A) (A) (A) (A) (A) (A) (A) (A) (A)
                 (A) (A) (A) (A) (A) (A) (A) (A) (A) (A) (A) (A)
                 (A) (A) (A) (A) (A) (A) (A) (A) (A) (A) (A) (A)
                 (A) (A) (A) (A) (A) (A) (A) (A) (A) (A) (A) (A)
                 (A) (A) (A) (A) (A) (A) (A) (A) (A) (A) (A) (A)
                 (A) (A) (A) (A) (A) (A) (A) (A) (A) (A) (A) (A)
                 (A) (A) (A) (A) (A) (A) (A) (A) (A) (A) (A) (A)
                 (A) (A) (A) (A) (A) (A) (A) (A) (A) (A) (A) (A)
                 (A) (A) (A) (A) (A) (A) (A) (A) (A) (A) (A) (A)
                 (A) (A) (A) (A) (A) (A) (A) (A) (A) (A) (A) (A)
                 (A) (A) (A) (A) (A) (A) (A) (A) (A) (A) (A) (A)
                 (A) (A) (A) (A)
 The electronic state is 1-A.
 Alpha  occ. eigenvalues --  -14.38507 -10.28159 -10.27824 -10.25915 -10.25004
 Alpha  occ. eigenvalues --  -10.24918 -10.23760 -10.23733 -10.23620  -0.92532
 Alpha  occ. eigenvalues --   -0.90609  -0.78661  -0.74506  -0.71912  -0.63357
 Alpha  occ. eigenvalues --   -0.58171  -0.54211  -0.53293  -0.51205  -0.49533
 Alpha  occ. eigenvalues --   -0.42842  -0.41780  -0.39381  -0.38516  -0.38404
 Alpha  occ. eigenvalues --   -0.36837  -0.36704  -0.35667  -0.33663  -0.33542
 Alpha  occ. eigenvalues --   -0.33094  -0.26247
 Alpha virt. eigenvalues --    0.00750   0.03015   0.04167   0.04393   0.06630
 Alpha virt. eigenvalues --    0.07196   0.07934   0.08710   0.09688   0.10390
 Alpha virt. eigenvalues --    0.11433   0.12728   0.15439   0.16380   0.17490
 Alpha virt. eigenvalues --    0.18140   0.19434   0.21364   0.23533   0.24501
 Alpha virt. eigenvalues --    0.25394   0.27560   0.27843   0.28909   0.30712
 Alpha virt. eigenvalues --    0.31334   0.31801   0.34241   0.34716   0.36372
 Alpha virt. eigenvalues --    0.37182   0.37590   0.38539   0.39101   0.39696
 Alpha virt. eigenvalues --    0.40289   0.42072   0.42813   0.42882   0.43442
 Alpha virt. eigenvalues --    0.43873   0.44955   0.45043   0.45207   0.46338
 Alpha virt. eigenvalues --    0.47294   0.48025   0.50484   0.51759   0.54611
 Alpha virt. eigenvalues --    0.54841   0.55817   0.56578   0.57318   0.58722
 Alpha virt. eigenvalues --    0.59369   0.61095   0.61714   0.63206   0.64964
 Alpha virt. eigenvalues --    0.69562   0.72309   0.75251   0.75810   0.77661
 Alpha virt. eigenvalues --    0.78196   0.83800   0.85449   0.86162   0.88248
 Alpha virt. eigenvalues --    0.88867   0.89385   0.90532   0.91261   0.93294
 Alpha virt. eigenvalues --    0.94393   0.94765   0.97839   0.98127   1.00269
 Alpha virt. eigenvalues --    1.01198   1.01809   1.03042   1.04465   1.06217
 Alpha virt. eigenvalues --    1.07905   1.08645   1.09339   1.10392   1.11142
 Alpha virt. eigenvalues --    1.11768   1.12346   1.15188   1.15761   1.16307
 Alpha virt. eigenvalues --    1.18176   1.18859   1.19799   1.19981   1.21785
 Alpha virt. eigenvalues --    1.22487   1.24302   1.25564   1.26530   1.27263
 Alpha virt. eigenvalues --    1.28276   1.30178   1.32427   1.32974   1.34271
 Alpha virt. eigenvalues --    1.35488   1.36932   1.37155   1.38175   1.39143
 Alpha virt. eigenvalues --    1.40992   1.42168   1.43058   1.45108   1.46542
 Alpha virt. eigenvalues --    1.47248   1.51211   1.52514   1.53634   1.56501
 Alpha virt. eigenvalues --    1.57825   1.61554   1.62566   1.66765   1.70109
 Alpha virt. eigenvalues --    1.71188   1.71793   1.77513   1.80298   1.81698
 Alpha virt. eigenvalues --    1.83728   1.86632   1.93499   2.07163   2.10795
 Alpha virt. eigenvalues --    2.12925   2.14722   2.20728   2.23558   2.26184
 Alpha virt. eigenvalues --    2.27693   2.32144   2.34217   2.35780   2.38551
 Alpha virt. eigenvalues --    2.40966   2.42894   2.44684   2.45150   2.46238
 Alpha virt. eigenvalues --    2.47774   2.49127   2.50181   2.52026   2.53292
 Alpha virt. eigenvalues --    2.54113   2.54904   2.55339   2.57524   2.59332
 Alpha virt. eigenvalues --    2.61102   2.61679   2.63540   2.65184   2.65904
 Alpha virt. eigenvalues --    2.66730   2.67874   2.69896   2.70532   2.72843
 Alpha virt. eigenvalues --    2.73481   2.75749   2.76578   2.78430   2.79562
 Alpha virt. eigenvalues --    2.80817   2.83143   2.83920   2.86305   2.87993
 Alpha virt. eigenvalues --    2.90719   2.91336   2.92155   2.94124   2.95353
 Alpha virt. eigenvalues --    2.95559   2.97259   2.98122   3.00191   3.00827
 Alpha virt. eigenvalues --    3.02074   3.02705   3.04119   3.05551   3.06905
 Alpha virt. eigenvalues --    3.09090   3.09750   3.10972   3.12549   3.13707
 Alpha virt. eigenvalues --    3.16233   3.16450   3.18666   3.19345   3.21257
 Alpha virt. eigenvalues --    3.21633   3.22093   3.24858   3.25170   3.27507
 Alpha virt. eigenvalues --    3.28400   3.29557   3.31358   3.32441   3.33468
 Alpha virt. eigenvalues --    3.35618   3.37392   3.38041   3.39012   3.40810
 Alpha virt. eigenvalues --    3.42620   3.45515   3.47411   3.48617   3.49778
 Alpha virt. eigenvalues --    3.50539   3.52531   3.53608   3.56598   3.57686
 Alpha virt. eigenvalues --    3.59740   3.59805   3.61466   3.62350   3.64514
 Alpha virt. eigenvalues --    3.65713   3.68358   3.69655   3.71694   3.72049
 Alpha virt. eigenvalues --    3.73374   3.74061   3.76260   3.77258   3.79306
 Alpha virt. eigenvalues --    3.80178   3.81450   3.83558   3.86034   3.87119
 Alpha virt. eigenvalues --    3.89375   3.90156   3.91504   3.93609   3.94853
 Alpha virt. eigenvalues --    3.96071   3.97642   3.98534   3.98657   4.00390
 Alpha virt. eigenvalues --    4.01120   4.02957   4.03634   4.07535   4.07932
 Alpha virt. eigenvalues --    4.08381   4.10360   4.10598   4.12493   4.13464
 Alpha virt. eigenvalues --    4.14264   4.16362   4.16992   4.17944   4.20251
 Alpha virt. eigenvalues --    4.22563   4.24377   4.25217   4.25833   4.27860
 Alpha virt. eigenvalues --    4.29112   4.31786   4.33018   4.34931   4.35910
 Alpha virt. eigenvalues --    4.38632   4.41417   4.43352   4.45351   4.48502
 Alpha virt. eigenvalues --    4.48811   4.51493   4.51595   4.54152   4.56334
 Alpha virt. eigenvalues --    4.57916   4.59340   4.60186   4.61490   4.62604
 Alpha virt. eigenvalues --    4.65444   4.67032   4.67899   4.70753   4.72638
 Alpha virt. eigenvalues --    4.73096   4.74303   4.76149   4.80081   4.80606
 Alpha virt. eigenvalues --    4.81819   4.83201   4.85359   4.89190   4.93037
 Alpha virt. eigenvalues --    4.95044   4.97869   4.98360   5.00304   5.01222
 Alpha virt. eigenvalues --    5.03898   5.05460   5.07589   5.11633   5.13275
 Alpha virt. eigenvalues --    5.13444   5.17368   5.20815   5.22095   5.23024
 Alpha virt. eigenvalues --    5.25921   5.29096   5.31031   5.37392   5.38341
 Alpha virt. eigenvalues --    5.45607   5.50405   5.51215   5.60335   5.65134
 Alpha virt. eigenvalues --    5.73095   5.81128   5.85356   5.93147   5.95690
 Alpha virt. eigenvalues --    5.98568   6.10566   6.11292   6.14007   6.17395
 Alpha virt. eigenvalues --    8.63534  10.60766  11.72069  12.18639  12.23623
 Alpha virt. eigenvalues --   12.84709  13.09553  13.94338  15.82420
          Condensed to atoms (all electrons):
               1          2          3          4          5          6
     1  C    5.401665   0.234133  -0.070756   0.425858   0.428466  -0.054886
     2  C    0.234133   5.218874  -0.100059  -0.064802  -0.042015   0.009621
     3  C   -0.070756  -0.100059   5.240088   0.238809   0.010846  -0.045339
     4  C    0.425858  -0.064802   0.238809   5.411999  -0.057530   0.432095
     5  H    0.428466  -0.042015   0.010846  -0.057530   0.483265  -0.005160
     6  H   -0.054886   0.009621  -0.045339   0.432095  -0.005160   0.478955
     7  C   -0.054581   0.249023  -0.040909   0.000025   0.002764  -0.001293
     8  H    0.007201  -0.033891   0.004953  -0.000077  -0.000336   0.000083
     9  H   -0.003255  -0.043036   0.006110  -0.000985   0.001874  -0.000181
    10  C   -0.009321  -0.021570   0.237517  -0.048377  -0.001278   0.002497
    11  H    0.002706   0.007551   0.413712  -0.020048  -0.000180  -0.000646
    12  H   -0.031841   0.422634   0.006870   0.004759  -0.000776  -0.000232
    13  C   -0.063475   0.264561   0.271864  -0.069104   0.004507   0.004190
    14  H    0.007290  -0.044614  -0.042530   0.006907  -0.000110  -0.000131
    15  H    0.004410  -0.039045  -0.039755   0.004498  -0.000230  -0.000104
    16  C    0.001655  -0.000277  -0.029941   0.002457   0.000110  -0.000394
    17  N   -0.000068  -0.000455   0.004472  -0.000174  -0.000000   0.000007
    18  H    0.001294   0.001816  -0.035445  -0.003421  -0.000258   0.001858
               7          8          9         10         11         12
     1  C   -0.054581   0.007201  -0.003255  -0.009321   0.002706  -0.031841
     2  C    0.249023  -0.033891  -0.043036  -0.021570   0.007551   0.422634
     3  C   -0.040909   0.004953   0.006110   0.237517   0.413712   0.006870
     4  C    0.000025  -0.000077  -0.000985  -0.048377  -0.020048   0.004759
     5  H    0.002764  -0.000336   0.001874  -0.001278  -0.000180  -0.000776
     6  H   -0.001293   0.000083  -0.000181   0.002497  -0.000646  -0.000232
     7  C    5.225254   0.422654   0.428432   0.221440   0.004598  -0.031430
     8  H    0.422654   0.485762  -0.014011  -0.040252  -0.000153  -0.004529
     9  H    0.428432  -0.014011   0.496143  -0.041090  -0.000176  -0.000143
    10  C    0.221440  -0.040252  -0.041090   5.273857  -0.029695   0.006172
    11  H    0.004598  -0.000153  -0.000176  -0.029695   0.522429  -0.000161
    12  H   -0.031430  -0.004529  -0.000143   0.006172  -0.000161   0.544756
    13  C   -0.059724  -0.006206   0.008021  -0.061967  -0.031061  -0.030668
    14  H    0.001806   0.000344  -0.000069  -0.005257  -0.001612  -0.002354
    15  H    0.007229  -0.000186  -0.000294   0.007964  -0.002716  -0.002604
    16  C   -0.037673  -0.003637   0.005817   0.160612  -0.003418  -0.000262
    17  N    0.003937  -0.000159   0.000138  -0.096659   0.000872  -0.000010
    18  H   -0.026091   0.003518  -0.005974   0.430970   0.000731  -0.000143
              13         14         15         16         17         18
     1  C   -0.063475   0.007290   0.004410   0.001655  -0.000068   0.001294
     2  C    0.264561  -0.044614  -0.039045  -0.000277  -0.000455   0.001816
     3  C    0.271864  -0.042530  -0.039755  -0.029941   0.004472  -0.035445
     4  C   -0.069104   0.006907   0.004498   0.002457  -0.000174  -0.003421
     5  H    0.004507  -0.000110  -0.000230   0.000110  -0.000000  -0.000258
     6  H    0.004190  -0.000131  -0.000104  -0.000394   0.000007   0.001858
     7  C   -0.059724   0.001806   0.007229  -0.037673   0.003937  -0.026091
     8  H   -0.006206   0.000344  -0.000186  -0.003637  -0.000159   0.003518
     9  H    0.008021  -0.000069  -0.000294   0.005817   0.000138  -0.005974
    10  C   -0.061967  -0.005257   0.007964   0.160612  -0.096659   0.430970
    11  H   -0.031061  -0.001612  -0.002716  -0.003418   0.000872   0.000731
    12  H   -0.030668  -0.002354  -0.002604  -0.000262  -0.000010  -0.000143
    13  C    5.235093   0.436081   0.416693  -0.003503  -0.000502   0.007049
    14  H    0.436081   0.478668  -0.012714   0.002545   0.000162   0.000145
    15  H    0.416693  -0.012714   0.495828  -0.000372  -0.000002  -0.000251
    16  C   -0.003503   0.002545  -0.000372   4.943142   1.054945  -0.030534
    17  N   -0.000502   0.000162  -0.000002   1.054945   6.282435  -0.002293
    18  H    0.007049   0.000145  -0.000251  -0.030534  -0.002293   0.478932
 Mulliken charges:
               1
     1  C   -0.226492
     2  C   -0.018448
     3  C   -0.030506
     4  C   -0.262888
     5  H    0.176043
     6  H    0.179062
     7  C   -0.315461
     8  H    0.178923
     9  H    0.162679
    10  C    0.014437
    11  H    0.137266
    12  H    0.119961
    13  C   -0.321849
    14  H    0.175441
    15  H    0.161652
    16  C   -0.061274
    17  N   -0.246646
    18  H    0.178099
 Sum of Mulliken charges =  -0.00000
 Mulliken charges with hydrogens summed into heavy atoms:
               1
     1  C   -0.050449
     2  C    0.101513
     3  C    0.106760
     4  C   -0.083826
     7  C    0.026142
    10  C    0.192536
    13  C    0.015245
    16  C   -0.061274
    17  N   -0.246646
 Electronic spatial extent (au):  <R**2>=           1022.3984
 Charge=             -0.0000 electrons
 Dipole moment (field-independent basis, Debye):
    X=              4.7885    Y=              0.3369    Z=             -1.2687  Tot=              4.9651
 Quadrupole moment (field-independent basis, Debye-Ang):
   XX=            -71.4452   YY=            -49.9397   ZZ=            -51.3940
   XY=              0.5845   XZ=              1.4464   YZ=              0.8176
 Traceless Quadrupole moment (field-independent basis, Debye-Ang):
   XX=            -13.8523   YY=              7.6533   ZZ=              6.1990
   XY=              0.5845   XZ=              1.4464   YZ=              0.8176
 Octapole moment (field-independent basis, Debye-Ang**2):
  XXX=             75.0900  YYY=             -1.0166  ZZZ=             -1.5205  XYY=              2.3463
  XXY=              5.4482  XXZ=            -10.2668  XZZ=              0.8666  YZZ=             -0.2009
  YYZ=             -1.4664  XYZ=              0.6612
 Hexadecapole moment (field-independent basis, Debye-Ang**3):
 XXXX=          -1140.6617 YYYY=           -271.5816 ZZZZ=           -219.5355 XXXY=              4.3507
 XXXZ=              7.7154 YYYX=             -0.6225 YYYZ=              5.1333 ZZZX=              5.3122
 ZZZY=              0.0530 XXYY=           -194.2052 XXZZ=           -185.8873 YYZZ=            -81.3235
 XXYZ=              3.9815 YYXZ=             -3.5544 ZZXY=              0.1146
 N-N= 4.256238641978D+02 E-N=-1.696929900712D+03  KE= 3.620853609928D+02
 Calculating spin-rotation constants.
 Leave Link  601 at Thu Nov 14 14:55:06 2024, MaxMem=  5368709120 cpu:              29.9 elap:               6.2
 (Enter /mainfs/home/aa11g17/g16/l9999.exe)

 Test job not archived.
 1\1\GINC-RED323\SP\RM06\Gen\C8H9N1\AA11G17\14-Nov-2024\0\\#P Geom=AllC
 heck Guess=TCheck SCRF=Check GenChk RM06/ChkBas NMR=ReadFC IOp(3/6=22)
 \\norbornene_exo NMR\\0,1\C,0,-0.7000351709,0.7278623311,0.7374936578\
 C,0,0.7493532985,0.5073039204,0.3835893411\C,0,0.189294538,2.556292819
 7,-0.3104058789\C,0,-1.0341669231,1.946598001,0.3231518688\H,0,-1.3566
 182979,-0.0274959144,1.1466701122\H,0,-2.017048204,2.39643326,0.317251
 5462\C,0,0.7946855517,0.3522488918,-1.1555968366\H,0,1.8030642391,0.10
 27818366,-1.4878713258\H,0,0.1174717324,-0.4170614913,-1.5220606332\C,
 0,0.3806804815,1.7659782137,-1.6516764419\H,0,0.1960561552,3.635452260
 5,-0.4390259403\H,0,1.2646873763,-0.2863863207,0.9181339412\C,0,1.2955
 861628,1.9281942982,0.5362193969\H,0,2.2951140707,2.0576178994,0.11375
 03963\H,0,1.2812955741,2.2821017261,1.5666392338\C,0,1.3991059131,2.37
 89907991,-2.4780484724\N,0,2.2169198906,2.8778225466,-3.114418564\H,0,
 -0.5467747881,1.7462098522,-2.2248803512\\Version=ES64L-G16RevC.01\Sta
 te=1-A\HF=-364.825249\RMSD=4.292e-09\Dipole=-1.2326278,-0.9385447,1.18
 98113\Quadrupole=0.6412193,3.2920833,-3.9333026,-3.6398062,6.453839,3.
 6463715\PG=C01 [X(C8H9N1)]\\@


 The hours that make us happy make us wise.
                         -- John Masefield
 Job cpu time:       0 days 21 hours 50 minutes 34.0 seconds.
 Elapsed time:       0 days  0 hours 32 minutes 59.5 seconds.
 File lengths (MBytes):  RWF=    880 Int=      0 D2E=      0 Chk=     40 Scr=     16
 Normal termination of Gaussian 16 at Thu Nov 14 14:55:06 2024.
