 Entering Gaussian System, Link 0=g09
 Input=scan_input_25.gjf
 Output=scan_input_25.log
 Initial command:
 /home/ztw1e12/g09/l1.exe "/home/ztw1e12/leucine_scan/leucine_chi2_scan/Gau-17169.inp" -scrdir="/home/ztw1e12/leucine_scan/leucine_chi2_scan/"
 Default is to use a total of   8 processors:
                                8 via shared-memory
                                1 via Linda
 Entering Link 1 = /home/ztw1e12/g09/l1.exe PID=     17170.
  
 Copyright (c) 1988,1990,1992,1993,1995,1998,2003,2009,2013,
            Gaussian, Inc.  All Rights Reserved.
  
 This is part of the Gaussian(R) 09 program.  It is based on
 the Gaussian(R) 03 system (copyright 2003, Gaussian, Inc.),
 the Gaussian(R) 98 system (copyright 1998, Gaussian, Inc.),
 the Gaussian(R) 94 system (copyright 1995, Gaussian, Inc.),
 the Gaussian 92(TM) system (copyright 1992, Gaussian, Inc.),
 the Gaussian 90(TM) system (copyright 1990, Gaussian, Inc.),
 the Gaussian 88(TM) system (copyright 1988, Gaussian, Inc.),
 the Gaussian 86(TM) system (copyright 1986, Carnegie Mellon
 University), and the Gaussian 82(TM) system (copyright 1983,
 Carnegie Mellon University). Gaussian is a federally registered
 trademark of Gaussian, Inc.
  
 This software contains proprietary and confidential information,
 including trade secrets, belonging to Gaussian, Inc.
  
 This software is provided under written license and may be
 used, copied, transmitted, or stored only in accord with that
 written license.
  
 The following legend is applicable only to US Government
 contracts under FAR:
  
                    RESTRICTED RIGHTS LEGEND
  
 Use, reproduction and disclosure by the US Government is
 subject to restrictions as set forth in subparagraphs (a)
 and (c) of the Commercial Computer Software - Restricted
 Rights clause in FAR 52.227-19.
  
 Gaussian, Inc.
 340 Quinnipiac St., Bldg. 40, Wallingford CT 06492
  
  
 ---------------------------------------------------------------
 Warning -- This program may not be used in any manner that
 competes with the business of Gaussian, Inc. or will provide
 assistance to any competitor of Gaussian, Inc.  The licensee
 of this program is prohibited from giving any competitor of
 Gaussian, Inc. access to this program.  By using this program,
 the user acknowledges that Gaussian, Inc. is engaged in the
 business of creating and licensing software in the field of
 computational chemistry and represents and warrants to the
 licensee that it is not a competitor of Gaussian, Inc. and that
 it will not use this program in any manner prohibited above.
 ---------------------------------------------------------------
  

 Cite this work as:
 Gaussian 09, Revision D.01,
 M. J. Frisch, G. W. Trucks, H. B. Schlegel, G. E. Scuseria, 
 M. A. Robb, J. R. Cheeseman, G. Scalmani, V. Barone, B. Mennucci, 
 G. A. Petersson, H. Nakatsuji, M. Caricato, X. Li, H. P. Hratchian, 
 A. F. Izmaylov, J. Bloino, G. Zheng, J. L. Sonnenberg, M. Hada, 
 M. Ehara, K. Toyota, R. Fukuda, J. Hasegawa, M. Ishida, T. Nakajima, 
 Y. Honda, O. Kitao, H. Nakai, T. Vreven, J. A. Montgomery, Jr., 
 J. E. Peralta, F. Ogliaro, M. Bearpark, J. J. Heyd, E. Brothers, 
 K. N. Kudin, V. N. Staroverov, T. Keith, R. Kobayashi, J. Normand, 
 K. Raghavachari, A. Rendell, J. C. Burant, S. S. Iyengar, J. Tomasi, 
 M. Cossi, N. Rega, J. M. Millam, M. Klene, J. E. Knox, J. B. Cross, 
 V. Bakken, C. Adamo, J. Jaramillo, R. Gomperts, R. E. Stratmann, 
 O. Yazyev, A. J. Austin, R. Cammi, C. Pomelli, J. W. Ochterski, 
 R. L. Martin, K. Morokuma, V. G. Zakrzewski, G. A. Voth, 
 P. Salvador, J. J. Dannenberg, S. Dapprich, A. D. Daniels, 
 O. Farkas, J. B. Foresman, J. V. Ortiz, J. Cioslowski, 
 and D. J. Fox, Gaussian, Inc., Wallingford CT, 2013.
 
 ******************************************
 Gaussian 09:  EM64L-G09RevD.01 24-Apr-2013
                18-Jun-2014 
 ******************************************
 %Mem=32GB
 %NProcShared=16
 Will use up to   16 processors via shared memory.
 Default route:  MaxDisk=100GB
 ----------------------------------------------------------------------
 #p nmr=(giao,mixed,spinspin) m06/cc-pvtz scf=tight integral=(grid=ultr
 afine)
 ----------------------------------------------------------------------
 1/38=1/1;
 2/12=2,17=6,18=5,40=1/2;
 3/5=16,6=1,10=1100000,11=2,16=1,25=1,30=1,74=-54,75=-5/1,2,8,3;
 4//1;
 5/5=2,32=2,38=5/2;
 8/6=1,10=90,11=11/1;
 10/13=100,45=16,47=3/2;
 6/7=2,8=2,9=2,10=2,28=1/1;
 99/9=1/99;
 Leave Link    1 at Wed Jun 18 09:34:54 2014, MaxMem=  4294967296 cpu:         5.2
 (Enter /home/ztw1e12/g09/l101.exe)
 ------------------
 NMR spin-spin scan
 ------------------
 Symbolic Z-matrix:
 Charge =  0 Multiplicity = 1
 C                     0.58931   0.86578   0.54347 
 C                     0.15853   0.15169  -0.73987 
 H                     0.59505   0.73876  -1.5525 
 C                    -2.04309  -0.65736   1.34336 
 H                    -2.72172  -1.32247   1.88143 
 H                    -1.03262  -0.8659    1.6964 
 H                    -2.29794   0.36881   1.62836 
 O                     1.19039   0.29747   1.4507 
 N                     0.73381  -1.16814  -0.81164 
 H                     0.21366  -1.93744  -0.4176 
 N                     0.2983    2.17      0.58696 
 H                    -0.18108   2.59278  -0.19145 
 C                     0.60874   2.9774    1.74463 
 H                     0.14432   2.56611   2.64192 
 H                     1.68513   3.03235   1.91093 
 H                     0.2292    3.98215   1.58542 
 C                     2.04957  -1.35671  -1.03442 
 C                     2.55197  -2.75257  -0.86448 
 H                     1.75432  -3.48516  -0.76241 
 H                     3.18481  -3.01318  -1.7112 
 H                     3.17345  -2.7835    0.03168 
 O                     2.79807  -0.43784  -1.36045 
 C                    -2.1903   -0.85033  -0.15419 
 H                    -1.88803  -1.87577  -0.40063 
 C                    -3.64401  -0.69301  -0.56072 
 H                    -4.00294   0.30768  -0.30068 
 H                    -3.77872  -0.8263   -1.63607 
 H                    -4.27885  -1.41723  -0.04722 
 C                    -1.34945   0.11621  -0.98131 
 H                    -1.50098  -0.11913  -2.03835 
 H                    -1.74326   1.12814  -0.83972 
 
 NAtoms=     31 NQM=       31 NQMF=       0 NMMI=      0 NMMIF=      0
                NMic=       0 NMicF=      0.
                    Isotopes and Nuclear Properties:
 (Nuclear quadrupole moments (NQMom) in fm**2, nuclear magnetic moments (NMagM)
  in nuclear magnetons)

  Atom         1           2           3           4           5           6           7           8           9          10
 IAtWgt=          12          12           1          12           1           1           1          16          14           1
 AtmWgt=  12.0000000  12.0000000   1.0078250  12.0000000   1.0078250   1.0078250   1.0078250  15.9949146  14.0030740   1.0078250
 NucSpn=           0           0           1           0           1           1           1           0           2           1
 AtZEff=   0.0000000   0.0000000   0.0000000   0.0000000   0.0000000   0.0000000   0.0000000   0.0000000   0.0000000   0.0000000
 NQMom=    0.0000000   0.0000000   0.0000000   0.0000000   0.0000000   0.0000000   0.0000000   0.0000000   2.0440000   0.0000000
 NMagM=    0.0000000   0.0000000   2.7928460   0.0000000   2.7928460   2.7928460   2.7928460   0.0000000   0.4037610   2.7928460
 AtZNuc=   6.0000000   6.0000000   1.0000000   6.0000000   1.0000000   1.0000000   1.0000000   8.0000000   7.0000000   1.0000000

  Atom        11          12          13          14          15          16          17          18          19          20
 IAtWgt=          14           1          12           1           1           1          12          12           1           1
 AtmWgt=  14.0030740   1.0078250  12.0000000   1.0078250   1.0078250   1.0078250  12.0000000  12.0000000   1.0078250   1.0078250
 NucSpn=           2           1           0           1           1           1           0           0           1           1
 AtZEff=   0.0000000   0.0000000   0.0000000   0.0000000   0.0000000   0.0000000   0.0000000   0.0000000   0.0000000   0.0000000
 NQMom=    2.0440000   0.0000000   0.0000000   0.0000000   0.0000000   0.0000000   0.0000000   0.0000000   0.0000000   0.0000000
 NMagM=    0.4037610   2.7928460   0.0000000   2.7928460   2.7928460   2.7928460   0.0000000   0.0000000   2.7928460   2.7928460
 AtZNuc=   7.0000000   1.0000000   6.0000000   1.0000000   1.0000000   1.0000000   6.0000000   6.0000000   1.0000000   1.0000000

  Atom        21          22          23          24          25          26          27          28          29          30
 IAtWgt=           1          16          12           1          12           1           1           1          12           1
 AtmWgt=   1.0078250  15.9949146  12.0000000   1.0078250  12.0000000   1.0078250   1.0078250   1.0078250  12.0000000   1.0078250
 NucSpn=           1           0           0           1           0           1           1           1           0           1
 AtZEff=   0.0000000   0.0000000   0.0000000   0.0000000   0.0000000   0.0000000   0.0000000   0.0000000   0.0000000   0.0000000
 NQMom=    0.0000000   0.0000000   0.0000000   0.0000000   0.0000000   0.0000000   0.0000000   0.0000000   0.0000000   0.0000000
 NMagM=    2.7928460   0.0000000   0.0000000   2.7928460   0.0000000   2.7928460   2.7928460   2.7928460   0.0000000   2.7928460
 AtZNuc=   1.0000000   8.0000000   6.0000000   1.0000000   6.0000000   1.0000000   1.0000000   1.0000000   6.0000000   1.0000000

  Atom        31
 IAtWgt=           1
 AtmWgt=   1.0078250
 NucSpn=           1
 AtZEff=   0.0000000
 NQMom=    0.0000000
 NMagM=    2.7928460
 AtZNuc=   1.0000000
 Leave Link  101 at Wed Jun 18 09:34:54 2014, MaxMem=  4294967296 cpu:         1.6
 (Enter /home/ztw1e12/g09/l202.exe)
                          Input orientation:                          
 ---------------------------------------------------------------------
 Center     Atomic      Atomic             Coordinates (Angstroms)
 Number     Number       Type             X           Y           Z
 ---------------------------------------------------------------------
      1          6           0        0.589306    0.865781    0.543467
      2          6           0        0.158531    0.151691   -0.739872
      3          1           0        0.595048    0.738762   -1.552496
      4          6           0       -2.043086   -0.657361    1.343361
      5          1           0       -2.721724   -1.322474    1.881426
      6          1           0       -1.032618   -0.865903    1.696398
      7          1           0       -2.297938    0.368805    1.628355
      8          8           0        1.190385    0.297471    1.450702
      9          7           0        0.733814   -1.168137   -0.811641
     10          1           0        0.213659   -1.937440   -0.417595
     11          7           0        0.298303    2.169999    0.586958
     12          1           0       -0.181080    2.592781   -0.191452
     13          6           0        0.608736    2.977404    1.744626
     14          1           0        0.144316    2.566112    2.641920
     15          1           0        1.685134    3.032355    1.910933
     16          1           0        0.229203    3.982146    1.585417
     17          6           0        2.049573   -1.356713   -1.034425
     18          6           0        2.551968   -2.752565   -0.864475
     19          1           0        1.754319   -3.485163   -0.762413
     20          1           0        3.184808   -3.013179   -1.711196
     21          1           0        3.173454   -2.783503    0.031684
     22          8           0        2.798072   -0.437838   -1.360452
     23          6           0       -2.190302   -0.850327   -0.154189
     24          1           0       -1.888033   -1.875768   -0.400630
     25          6           0       -3.644014   -0.693007   -0.560719
     26          1           0       -4.002940    0.307683   -0.300682
     27          1           0       -3.778723   -0.826297   -1.636074
     28          1           0       -4.278847   -1.417234   -0.047217
     29          6           0       -1.349453    0.116205   -0.981314
     30          1           0       -1.500983   -0.119131   -2.038346
     31          1           0       -1.743263    1.128140   -0.839720
 ---------------------------------------------------------------------
                    Distance matrix (angstroms):
                    1          2          3          4          5
     1  C    0.000000
     2  C    1.530507   0.000000
     3  H    2.099816   1.093415   0.000000
     4  C    3.144723   3.137123   4.158714   0.000000
     5  H    4.188259   4.164161   5.200143   1.091988   0.000000
     6  H    2.637919   2.896506   3.972349   1.090491   1.759480
     7  H    3.124123   3.419046   4.315559   1.095074   1.761835
     8  O    1.227741   2.425817   3.093277   3.373212   4.256095
     9  N    2.448269   1.441543   2.050460   3.551915   4.383740
    10  H    2.987105   2.114561   2.931811   3.135676   3.778909
    11  N    1.336996   2.419418   2.591093   3.748095   4.795162
    12  H    2.028825   2.524880   2.427386   4.047980   5.106948
    13  C    2.429426   3.789468   3.985313   4.517155   5.440554
    14  H    2.737270   4.155255   4.597335   4.106307   4.890157
    15  H    2.786547   4.201846   4.294671   5.275961   6.195628
    16  H    3.305611   4.481557   4.527679   5.171742   6.077383
    17  C    3.092184   2.436818   2.602894   4.784644   5.591836
    18  C    4.350491   3.765471   4.061068   5.511709   6.115305
    19  H    4.689701   3.971619   4.450807   5.181798   5.630459
    20  H    5.183287   4.485334   4.561700   6.497005   7.117060
    21  H    4.500780   4.277899   4.643722   5.783880   6.348959
    22  O    3.194210   2.774859   2.504912   5.549379   6.462237
    23  C    3.340355   2.619939   3.498377   1.517091   2.156168
    24  H    3.813741   2.900707   3.785268   2.133087   2.491777
    25  C    4.644356   3.899354   4.582928   2.487923   2.685316
    26  H    4.702423   4.187489   4.784805   2.734084   3.010070
    27  H    5.166547   4.154709   4.646102   3.452247   3.706244
    28  H    5.409249   4.757270   5.537963   2.740391   2.480580
    29  C    2.577908   1.527602   2.120120   2.546300   3.485428
    30  H    3.464840   2.124468   2.316328   3.466916   4.278184
    31  H    2.724503   2.140150   2.475351   2.836151   3.790453
                    6          7          8          9         10
     6  H    0.000000
     7  H    1.769228   0.000000
     8  O    2.521021   3.493572   0.000000
     9  N    3.082513   4.184172   2.733982   0.000000
    10  H    2.677754   3.976531   3.072353   1.008792   0.000000
    11  N    3.495556   3.327052   2.246826   3.645394   4.229344
    12  H    4.031326   3.569153   3.137839   3.919971   4.553006
    13  C    4.179399   3.907309   2.758033   4.871925   5.383956
    14  H    3.749388   3.438034   2.767669   5.120469   5.444945
    15  H    4.756955   4.799918   2.817123   5.095248   5.682090
    16  H    5.010797   4.409594   3.810361   5.703151   6.249304
    17  C    4.147070   5.382254   3.106507   1.347745   2.021955
    18  C    4.792371   6.283211   4.064071   2.412237   2.516311
    19  H    4.546789   6.081910   4.418622   2.532284   2.210877
    20  H    5.831738   7.256095   4.993568   3.196991   3.414432
    21  H    4.913197   6.513258   3.929195   3.045069   3.110958
    22  O    4.919528   5.962630   3.320832   2.257364   3.133205
    23  C    2.182922   2.162251   3.914353   3.013918   2.651457
    24  H    2.479736   3.053344   4.198459   2.746589   2.102665
    25  C    3.455989   2.780541   5.329003   4.410679   4.055951
    26  H    3.766755   2.575258   5.480700   4.987581   4.778489
    27  H    4.318337   3.778557   5.956767   4.599949   4.319542
    28  H    3.725877   3.149838   5.924228   5.076728   4.537665
    29  C    2.869680   2.788154   3.521127   2.453227   2.641696
    30  H    3.837362   3.783902   4.426113   2.756726   2.978771
    31  H    3.303501   2.641145   3.813441   3.377808   3.661354
                   11         12         13         14         15
    11  N    0.000000
    12  H    1.007211   0.000000
    13  C    1.445153   2.126063   0.000000
    14  H    2.098449   2.852120   1.090864   0.000000
    15  H    2.102348   2.845348   1.090555   1.768006   0.000000
    16  H    2.070162   2.292582   1.085771   1.768773   1.768558
    17  C    4.258348   4.613558   5.346373   5.703865   5.298289
    18  C    5.605114   6.041129   6.589090   6.810280   6.474534
    19  H    5.993467   6.404152   7.025836   7.127378   7.044828
    20  H    6.362292   6.713093   7.380104   7.702123   7.205368
    21  H    5.754303   6.340908   6.534524   6.678876   6.290539
    22  O    4.103908   4.407557   5.108677   5.664373   4.897227
    23  C    3.983067   3.986647   5.107997   4.994069   5.861651
    24  H    4.703576   4.788045   5.864235   5.754811   6.496193
    25  C    5.005580   4.787972   6.072266   5.935503   6.956091
    26  H    4.770411   4.454236   5.707736   5.564094   6.683507
    27  H    5.526464   5.169145   6.719157   6.723088   7.571274
    28  H    5.849848   5.735217   6.812636   6.531682   7.694301
    29  C    3.064743   2.849984   4.410410   4.621819   5.106637
    30  H    3.920429   3.536613   5.324502   5.641137   5.973275
    31  H    2.699791   2.237374   3.953545   4.213376   4.790202
                   16         17         18         19         20
    16  H    0.000000
    17  C    6.219384   0.000000
    18  C    7.533495   1.493213   0.000000
    19  H    7.974897   2.165979   1.087824   0.000000
    20  H    8.278758   2.119117   1.088734   1.780241   0.000000
    21  H    7.540339   2.106045   1.091010   1.771119   1.757985
    22  O    5.900296   1.229177   2.380026   3.276166   2.627730
    23  C    5.677414   4.359792   5.158696   4.782503   5.999501
    24  H    6.537754   4.021922   4.549454   3.998471   5.361437
    25  C    6.439314   5.751681   6.536378   6.081021   7.303397
    26  H    5.913551   6.319929   7.256018   6.909769   8.042474
    27  H    7.040071   5.883227   6.662096   6.200597   7.299237
    28  H    7.220894   6.405243   7.007928   6.417704   7.811659
    29  C    4.901608   3.704819   4.844025   4.759325   5.557454
    30  H    5.739832   3.891775   4.973868   4.853367   5.517171
    31  H    4.232879   4.538503   5.788739   5.789786   6.495835
                   21         22         23         24         25
    21  H    0.000000
    22  O    2.753379   0.000000
    23  C    5.704524   5.148698   0.000000
    24  H    5.160381   4.994845   1.097100   0.000000
    25  C    7.155347   6.496550   1.517661   2.123210   0.000000
    26  H    7.820903   6.923343   2.155946   3.041427   1.094453
    27  H    7.412478   6.594020   2.172474   2.490466   1.091925
    28  H    7.576919   7.264061   2.166760   2.459908   1.091422
    29  C    5.467281   4.201508   1.524909   2.143646   2.469157
    30  H    5.764917   4.363827   2.135382   2.432631   2.665576
    31  H    6.343059   4.831891   2.141058   3.039280   2.647125
                   26         27         28         29         30
    26  H    0.000000
    27  H    1.766198   0.000000
    28  H    1.765137   1.767427   0.000000
    29  C    2.746073   2.686703   3.435887   0.000000
    30  H    3.075945   2.418679   3.655981   1.093463   0.000000
    31  H    2.463707   2.932081   3.679154   1.095056   1.746737
                   31
    31  H    0.000000
 Stoichiometry    C9H18N2O2
 Framework group  C1[X(C9H18N2O2)]
 Deg. of freedom    87
 Full point group                 C1      NOp   1
 Largest Abelian subgroup         C1      NOp   1
 Largest concise Abelian subgroup C1      NOp   1
                         Standard orientation:                         
 ---------------------------------------------------------------------
 Center     Atomic      Atomic             Coordinates (Angstroms)
 Number     Number       Type             X           Y           Z
 ---------------------------------------------------------------------
      1          6           0        0.081413    1.235759    0.069764
      2          6           0        0.163552   -0.064842   -0.732820
      3          1           0        0.578101    0.224663   -1.702301
      4          6           0       -2.109277   -0.616427    1.358004
      5          1           0       -2.667642   -1.175728    2.111562
      6          1           0       -1.183307   -0.276217    1.822769
      7          1           0       -2.704155    0.265841    1.099332
      8          8           0        0.608797    1.372365    1.170015
      9          7           0        1.095572   -0.983731   -0.128645
     10          1           0        0.746273   -1.635232    0.557793
     11          7           0       -0.574805    2.230735   -0.536007
     12          1           0       -0.974743    2.072799   -1.446820
     13          6           0       -0.768785    3.511287    0.105106
     14          1           0       -1.278320    3.394054    1.062506
     15          1           0        0.183371    4.012241    0.283307
     16          1           0       -1.377417    4.138975   -0.538690
     17          6           0        2.425510   -0.767694   -0.160431
     18          6           0        3.258972   -1.670775    0.687786
     19          1           0        2.703619   -2.517218    1.085878
     20          1           0        4.108000   -2.027928    0.107325
     21          1           0        3.653146   -1.086796    1.520792
     22          8           0        2.930003    0.118442   -0.846815
     23          6           0       -1.866131   -1.477371    0.132761
     24          1           0       -1.235597   -2.325447    0.427416
     25          6           0       -3.179208   -2.041046   -0.378508
     26          1           0       -3.858418   -1.227753   -0.652469
     27          1           0       -3.033176   -2.665231   -1.262458
     28          1           0       -3.674370   -2.644326    0.384427
     29          6           0       -1.180482   -0.735960   -1.009843
     30          1           0       -1.024749   -1.442686   -1.829567
     31          1           0       -1.869769    0.022907   -1.394747
 ---------------------------------------------------------------------
 Rotational constants (GHZ):      0.8286544      0.6167728      0.4203801
 Leave Link  202 at Wed Jun 18 09:34:54 2014, MaxMem=  4294967296 cpu:         1.5
 (Enter /home/ztw1e12/g09/l301.exe)
 Standard basis: CC-pVTZ (5D, 7F)
 Converting basis for Fermi contact spin-spin IFCMod=1.
 AO basis functions are being uncontracted.
 Ernie: Thresh=  0.10000D-02 Tol=  0.10000D-05 Strict=F.
 There are  1119 symmetry adapted cartesian basis functions of A   symmetry.
 There are  1036 symmetry adapted basis functions of A   symmetry.
  1036 basis functions,  1119 primitive gaussians,  1119 cartesian basis functions
    51 alpha electrons       51 beta electrons
       nuclear repulsion energy       874.5796270976 Hartrees.
 IExCor= 4235 DFT=T Ex+Corr=M06 ExCW=0 ScaHFX=  0.270000
 ScaDFX=  1.000000  1.000000  1.000000  1.000000 ScalE2=  1.000000  1.000000
 IRadAn= 199590 IRanWt=     -1 IRanGd=            0 ICorTp=0 IEmpDi=  4
 NAtoms=   31 NActive=   31 NUniq=   31 SFac= 1.00D+00 NAtFMM=   60 NAOKFM=F Big=F
 Integral buffers will be    131072 words long.
 Raffenetti 2 integral format.
 Two-electron integral symmetry is turned on.
 Leave Link  301 at Wed Jun 18 09:34:55 2014, MaxMem=  4294967296 cpu:         8.3
 (Enter /home/ztw1e12/g09/l302.exe)
 NPDir=0 NMtPBC=     1 NCelOv=     1 NCel=       1 NClECP=     1 NCelD=      1
         NCelK=      1 NCelE2=     1 NClLst=     1 CellRange=     0.0.
 One-electron integrals computed using PRISM.
 GSVD:  received Info=                   1 from GESDD.
 NBasis=  1036 RedAO= T EigKep=  1.30D-04  NBF=  1036
 NBsUse=   932 1.00D-06 EigRej=  5.70D-15 NBFU=   932
 Precomputing XC quadrature grid using
 IXCGrd= 4 IRadAn=      199590 IRanWt=          -1 IRanGd=           0 AccXCQ= 0.00D+00.
 Generated NRdTot=       0 NPtTot=           0 NUsed=           0 NTot=          32
 NSgBfM=   870   871   871   871   871 MxSgAt=    31 MxSgA2=    31.
 Leave Link  302 at Wed Jun 18 09:35:00 2014, MaxMem=  4294967296 cpu:        67.6
 (Enter /home/ztw1e12/g09/l308.exe)
 Leave Link  308 at Wed Jun 18 09:35:00 2014, MaxMem=  4294967296 cpu:         5.6
 (Enter /home/ztw1e12/g09/l303.exe)
 DipDrv:  MaxL=1.
 Leave Link  303 at Wed Jun 18 09:35:01 2014, MaxMem=  4294967296 cpu:         3.4
 (Enter /home/ztw1e12/g09/l401.exe)
 ExpMin= 1.03D-01 ExpMax= 1.38D+05 ExpMxC= 1.38D+05 IAcc=4 IRadAn=    199590 AccDes= 0.00D+00
 Harris functional with IExCor= 1009 and IRadAn=  199590 diagonalized for initial guess.
 HarFok:  IExCor= 1009 AccDes= 0.00D+00 IRadAn=    199590 IDoV= 1 UseB2=F ITyADJ=14
 ICtDFT=  3500011 ScaDFX=  1.000000  1.000000  1.000000  1.000000
 FoFCou: FMM=F IPFlag=           0 FMFlag=      100000 FMFlg1=           0
         NFxFlg=           0 DoJE=T BraDBF=F KetDBF=T FulRan=T
         wScrn=  0.000000 ICntrl=     500 IOpCl=  0 I1Cent=   200000004 NGrid=           0
         NMat0=    1 NMatS0=      1 NMatT0=    0 NMatD0=    1 NMtDS0=    0 NMtDT0=    0
 Petite list used in FoFCou.
 Harris En= -613.565102731158    
 JPrj=0 DoOrth=F DoCkMO=F.
 Leave Link  401 at Wed Jun 18 09:35:18 2014, MaxMem=  4294967296 cpu:       261.8
 (Enter /home/ztw1e12/g09/l502.exe)
 Closed shell SCF:
 Using DIIS extrapolation, IDIIS=  1040.
 Integral symmetry usage will be decided dynamically.
 IVT=     3801329 IEndB=     3801329 NGot=  4294967296 MDV=  4292435888
 LenX=  4292435888 LenY=  4291182608
 Requested convergence on RMS density matrix=1.00D-08 within 128 cycles.
 Requested convergence on MAX density matrix=1.00D-06.
 Requested convergence on             energy=1.00D-06.
 No special actions if energy rises.
 Fock matrices will be formed incrementally for  20 cycles.
 Integral accuracy reduced to 1.0D-05 until final iterations.

 Cycle   1  Pass 0  IDiag  1:
 FoFJK:  IHMeth= 1 ICntrl=       0 DoSepK=F KAlg= 0 I1Cent=   0 FoldK=F
 IRaf= 480000000 NMat=   1 IRICut=       1 DoRegI=T DoRafI=F ISym2E= 0.
 FoFCou: FMM=F IPFlag=           0 FMFlag=      100000 FMFlg1=           0
         NFxFlg=           0 DoJE=F BraDBF=F KetDBF=F FulRan=T
         wScrn=  0.000000 ICntrl=       0 IOpCl=  0 I1Cent=           0 NGrid=           0
         NMat0=    1 NMatS0=      1 NMatT0=    0 NMatD0=    1 NMtDS0=    0 NMtDT0=    0
 Symmetry not used in FoFCou.
 E= -613.185936871024    
 DIIS: error= 1.39D-01 at cycle   1 NSaved=   1.
 NSaved= 1 IEnMin= 1 EnMin= -613.185936871024     IErMin= 1 ErrMin= 1.39D-01
 ErrMax= 1.39D-01  0.00D+00 EMaxC= 1.00D-01 BMatC= 1.30D+01 BMatP= 1.30D+01
 IDIUse=3 WtCom= 0.00D+00 WtEn= 1.00D+00
 Coeff-Com:  0.100D+01
 Coeff-En:   0.100D+01
 Coeff:      0.100D+01
 Gap=     0.287 Goal=   None    Shift=    0.000
 GapD=    0.287 DampG=1.000 DampE=0.250 DampFc=0.2500 IDamp=-1.
 Damping current iteration by 2.50D-01
 RMSDP=2.10D-03 MaxDP=3.03D-01              OVMax= 2.80D-01

 Cycle   2  Pass 0  IDiag  1:
 RMSU=  5.24D-04    CP:  1.01D+00
 E= -613.343060519042     Delta-E=       -0.157123648019 Rises=F Damp=T
 DIIS: error= 1.06D-01 at cycle   2 NSaved=   2.
 NSaved= 2 IEnMin= 2 EnMin= -613.343060519042     IErMin= 2 ErrMin= 1.06D-01
 ErrMax= 1.06D-01  0.00D+00 EMaxC= 1.00D-01 BMatC= 7.66D+00 BMatP= 1.30D+01
 IDIUse=3 WtCom= 0.00D+00 WtEn= 1.00D+00
 Coeff-Com: -0.280D+01 0.380D+01
 Coeff-En:   0.000D+00 0.100D+01
 Coeff:      0.000D+00 0.100D+01
 Gap=     0.219 Goal=   None    Shift=    0.000
 RMSDP=5.81D-04 MaxDP=4.83D-02 DE=-1.57D-01 OVMax= 1.31D-01

 Cycle   3  Pass 0  IDiag  1:
 RMSU=  4.14D-04    CP:  1.03D+00  1.77D+00
 E= -613.531425855365     Delta-E=       -0.188365336322 Rises=F Damp=F
 DIIS: error= 1.37D-02 at cycle   3 NSaved=   3.
 NSaved= 3 IEnMin= 3 EnMin= -613.531425855365     IErMin= 3 ErrMin= 1.37D-02
 ErrMax= 1.37D-02  0.00D+00 EMaxC= 1.00D-01 BMatC= 2.32D-01 BMatP= 7.66D+00
 IDIUse=3 WtCom= 8.63D-01 WtEn= 1.37D-01
 Coeff-Com:  0.124D+01-0.170D+01 0.146D+01
 Coeff-En:   0.139D+00 0.000D+00 0.861D+00
 Coeff:      0.109D+01-0.147D+01 0.138D+01
 Gap=     0.251 Goal=   None    Shift=    0.000
 RMSDP=4.15D-04 MaxDP=3.50D-02 DE=-1.88D-01 OVMax= 6.36D-02

 Cycle   4  Pass 0  IDiag  1:
 RMSU=  2.68D-04    CP:  1.02D+00  1.21D+00  7.16D-01
 E= -613.547553975204     Delta-E=       -0.016128119840 Rises=F Damp=F
 DIIS: error= 7.95D-03 at cycle   4 NSaved=   4.
 NSaved= 4 IEnMin= 4 EnMin= -613.547553975204     IErMin= 4 ErrMin= 7.95D-03
 ErrMax= 7.95D-03  0.00D+00 EMaxC= 1.00D-01 BMatC= 1.03D-01 BMatP= 2.32D-01
 IDIUse=3 WtCom= 9.21D-01 WtEn= 7.95D-02
 Coeff-Com:  0.769D+00-0.106D+01 0.750D+00 0.538D+00
 Coeff-En:   0.000D+00 0.000D+00 0.441D+00 0.559D+00
 Coeff:      0.708D+00-0.973D+00 0.726D+00 0.540D+00
 Gap=     0.279 Goal=   None    Shift=    0.000
 RMSDP=2.71D-04 MaxDP=1.90D-02 DE=-1.61D-02 OVMax= 7.45D-02

 Cycle   5  Pass 0  IDiag  1:
 RMSU=  8.16D-05    CP:  1.02D+00  1.13D+00  8.67D-01  7.74D-02
 E= -613.618469178775     Delta-E=       -0.070915203570 Rises=F Damp=F
 DIIS: error= 2.84D-03 at cycle   5 NSaved=   5.
 NSaved= 5 IEnMin= 5 EnMin= -613.618469178775     IErMin= 5 ErrMin= 2.84D-03
 ErrMax= 2.84D-03  0.00D+00 EMaxC= 1.00D-01 BMatC= 1.43D-02 BMatP= 1.03D-01
 IDIUse=3 WtCom= 9.72D-01 WtEn= 2.84D-02
 Coeff-Com:  0.143D+00-0.203D+00 0.139D+00 0.275D+00 0.647D+00
 Coeff-En:   0.000D+00 0.000D+00 0.000D+00 0.847D-01 0.915D+00
 Coeff:      0.139D+00-0.197D+00 0.135D+00 0.269D+00 0.654D+00
 Gap=     0.269 Goal=   None    Shift=    0.000
 RMSDP=1.47D-04 MaxDP=1.55D-02 DE=-7.09D-02 OVMax= 2.88D-02

 Cycle   6  Pass 0  IDiag  1:
 RMSU=  7.31D-05    CP:  1.02D+00  1.20D+00  9.47D-01  4.76D-01  3.74D-01
 E= -613.626516153154     Delta-E=       -0.008046974379 Rises=F Damp=F
 DIIS: error= 8.04D-04 at cycle   6 NSaved=   6.
 NSaved= 6 IEnMin= 6 EnMin= -613.626516153154     IErMin= 6 ErrMin= 8.04D-04
 ErrMax= 8.04D-04  0.00D+00 EMaxC= 1.00D-01 BMatC= 1.09D-03 BMatP= 1.43D-02
 IDIUse=3 WtCom= 9.92D-01 WtEn= 8.04D-03
 Coeff-Com:  0.627D-01-0.851D-01 0.210D-01 0.425D-01 0.198D+00 0.761D+00
 Coeff-En:   0.000D+00 0.000D+00 0.000D+00 0.000D+00 0.138D-01 0.986D+00
 Coeff:      0.622D-01-0.844D-01 0.209D-01 0.422D-01 0.196D+00 0.763D+00
 Gap=     0.270 Goal=   None    Shift=    0.000
 RMSDP=3.19D-05 MaxDP=3.06D-03 DE=-8.05D-03 OVMax= 9.18D-03

 Cycle   7  Pass 0  IDiag  1:
 RMSU=  2.14D-05    CP:  1.02D+00  1.16D+00  9.47D-01  4.73D-01  5.12D-01
                    CP:  1.11D+00
 E= -613.627115568027     Delta-E=       -0.000599414873 Rises=F Damp=F
 DIIS: error= 3.89D-04 at cycle   7 NSaved=   7.
 NSaved= 7 IEnMin= 7 EnMin= -613.627115568027     IErMin= 7 ErrMin= 3.89D-04
 ErrMax= 3.89D-04  0.00D+00 EMaxC= 1.00D-01 BMatC= 2.37D-04 BMatP= 1.09D-03
 IDIUse=3 WtCom= 9.96D-01 WtEn= 3.89D-03
 Coeff-Com:  0.421D-01-0.565D-01 0.138D-01 0.698D-02 0.569D-01 0.423D+00
 Coeff-Com:  0.514D+00
 Coeff-En:   0.000D+00 0.000D+00 0.000D+00 0.000D+00 0.000D+00 0.105D+00
 Coeff-En:   0.895D+00
 Coeff:      0.420D-01-0.563D-01 0.138D-01 0.695D-02 0.566D-01 0.422D+00
 Coeff:      0.515D+00
 Gap=     0.270 Goal=   None    Shift=    0.000
 RMSDP=1.14D-05 MaxDP=9.70D-04 DE=-5.99D-04 OVMax= 3.09D-03

 Cycle   8  Pass 0  IDiag  1:
 RMSU=  6.74D-06    CP:  1.02D+00  1.16D+00  9.53D-01  4.85D-01  4.98D-01
                    CP:  1.17D+00  6.77D-01
 E= -613.627276020886     Delta-E=       -0.000160452859 Rises=F Damp=F
 DIIS: error= 1.29D-04 at cycle   8 NSaved=   8.
 NSaved= 8 IEnMin= 8 EnMin= -613.627276020886     IErMin= 8 ErrMin= 1.29D-04
 ErrMax= 1.29D-04  0.00D+00 EMaxC= 1.00D-01 BMatC= 2.80D-05 BMatP= 2.37D-04
 IDIUse=3 WtCom= 9.99D-01 WtEn= 1.29D-03
 Coeff-Com:  0.228D-01-0.306D-01 0.910D-02-0.376D-02 0.153D-02 0.167D+00
 Coeff-Com:  0.300D+00 0.534D+00
 Coeff-En:   0.000D+00 0.000D+00 0.000D+00 0.000D+00 0.000D+00 0.000D+00
 Coeff-En:   0.000D+00 0.100D+01
 Coeff:      0.228D-01-0.305D-01 0.909D-02-0.376D-02 0.153D-02 0.166D+00
 Coeff:      0.300D+00 0.535D+00
 Gap=     0.269 Goal=   None    Shift=    0.000
 RMSDP=5.45D-06 MaxDP=6.47D-04 DE=-1.60D-04 OVMax= 1.21D-03

 Initial convergence to 1.0D-05 achieved.  Increase integral accuracy.
 Cycle   9  Pass 1  IDiag  1:
 E= -613.627260411848     Delta-E=        0.000015609038 Rises=F Damp=F
 DIIS: error= 6.94D-05 at cycle   1 NSaved=   1.
 NSaved= 1 IEnMin= 1 EnMin= -613.627260411848     IErMin= 1 ErrMin= 6.94D-05
 ErrMax= 6.94D-05  0.00D+00 EMaxC= 1.00D-01 BMatC= 1.19D-05 BMatP= 1.19D-05
 IDIUse=1 WtCom= 1.00D+00 WtEn= 0.00D+00
 Coeff-Com:  0.100D+01
 Coeff:      0.100D+01
 Gap=     0.270 Goal=   None    Shift=    0.000
 RMSDP=5.45D-06 MaxDP=6.47D-04 DE= 1.56D-05 OVMax= 1.34D-03

 Cycle  10  Pass 1  IDiag  1:
 RMSU=  2.62D-05    CP:  1.00D+00
 E= -613.627256888410     Delta-E=        0.000003523437 Rises=F Damp=F
 DIIS: error= 1.37D-04 at cycle   2 NSaved=   2.
 NSaved= 2 IEnMin= 1 EnMin= -613.627260411848     IErMin= 1 ErrMin= 6.94D-05
 ErrMax= 1.37D-04  0.00D+00 EMaxC= 1.00D-01 BMatC= 1.36D-05 BMatP= 1.19D-05
 IDIUse=3 WtCom= 4.61D-01 WtEn= 5.39D-01
 Coeff-Com:  0.521D+00 0.479D+00
 Coeff-En:   0.622D+00 0.378D+00
 Coeff:      0.576D+00 0.424D+00
 Gap=     0.269 Goal=   None    Shift=    0.000
 RMSDP=3.68D-06 MaxDP=5.43D-04 DE= 3.52D-06 OVMax= 1.13D-03

 Cycle  11  Pass 1  IDiag  1:
 RMSU=  3.64D-06    CP:  1.00D+00  9.90D-01
 E= -613.627265626268     Delta-E=       -0.000008737858 Rises=F Damp=F
 DIIS: error= 4.74D-05 at cycle   3 NSaved=   3.
 NSaved= 3 IEnMin= 3 EnMin= -613.627265626268     IErMin= 3 ErrMin= 4.74D-05
 ErrMax= 4.74D-05  0.00D+00 EMaxC= 1.00D-01 BMatC= 1.36D-06 BMatP= 1.19D-05
 IDIUse=1 WtCom= 1.00D+00 WtEn= 0.00D+00
 Coeff-Com:  0.605D-01 0.240D+00 0.700D+00
 Coeff:      0.605D-01 0.240D+00 0.700D+00
 Gap=     0.270 Goal=   None    Shift=    0.000
 RMSDP=9.46D-07 MaxDP=8.98D-05 DE=-8.74D-06 OVMax= 2.80D-04

 Cycle  12  Pass 1  IDiag  1:
 RMSU=  4.75D-07    CP:  1.00D+00  1.01D+00  8.08D-01
 E= -613.627266490469     Delta-E=       -0.000000864201 Rises=F Damp=F
 DIIS: error= 8.80D-06 at cycle   4 NSaved=   4.
 NSaved= 4 IEnMin= 4 EnMin= -613.627266490469     IErMin= 4 ErrMin= 8.80D-06
 ErrMax= 8.80D-06  0.00D+00 EMaxC= 1.00D-01 BMatC= 9.76D-08 BMatP= 1.36D-06
 IDIUse=1 WtCom= 1.00D+00 WtEn= 0.00D+00
 Coeff-Com:  0.717D-02 0.961D-01 0.339D+00 0.558D+00
 Coeff:      0.717D-02 0.961D-01 0.339D+00 0.558D+00
 Gap=     0.270 Goal=   None    Shift=    0.000
 RMSDP=2.33D-07 MaxDP=2.12D-05 DE=-8.64D-07 OVMax= 5.46D-05

 Cycle  13  Pass 1  IDiag  1:
 RMSU=  1.86D-07    CP:  1.00D+00  1.01D+00  8.15D-01  7.21D-01
 E= -613.627266555644     Delta-E=       -0.000000065175 Rises=F Damp=F
 DIIS: error= 2.32D-06 at cycle   5 NSaved=   5.
 NSaved= 5 IEnMin= 5 EnMin= -613.627266555644     IErMin= 5 ErrMin= 2.32D-06
 ErrMax= 2.32D-06  0.00D+00 EMaxC= 1.00D-01 BMatC= 8.21D-09 BMatP= 9.76D-08
 IDIUse=1 WtCom= 1.00D+00 WtEn= 0.00D+00
 Coeff-Com: -0.187D-02 0.269D-01 0.106D+00 0.280D+00 0.589D+00
 Coeff:     -0.187D-02 0.269D-01 0.106D+00 0.280D+00 0.589D+00
 Gap=     0.270 Goal=   None    Shift=    0.000
 RMSDP=7.69D-08 MaxDP=6.69D-06 DE=-6.52D-08 OVMax= 1.71D-05

 Cycle  14  Pass 1  IDiag  1:
 RMSU=  3.90D-08    CP:  1.00D+00  1.01D+00  8.20D-01  8.44D-01  8.90D-01
 E= -613.627266561354     Delta-E=       -0.000000005710 Rises=F Damp=F
 DIIS: error= 5.13D-07 at cycle   6 NSaved=   6.
 NSaved= 6 IEnMin= 6 EnMin= -613.627266561354     IErMin= 6 ErrMin= 5.13D-07
 ErrMax= 5.13D-07  0.00D+00 EMaxC= 1.00D-01 BMatC= 3.32D-10 BMatP= 8.21D-09
 IDIUse=1 WtCom= 1.00D+00 WtEn= 0.00D+00
 Coeff-Com: -0.109D-02 0.816D-02 0.333D-01 0.103D+00 0.263D+00 0.593D+00
 Coeff:     -0.109D-02 0.816D-02 0.333D-01 0.103D+00 0.263D+00 0.593D+00
 Gap=     0.270 Goal=   None    Shift=    0.000
 RMSDP=2.02D-08 MaxDP=1.97D-06 DE=-5.71D-09 OVMax= 7.70D-06

 Cycle  15  Pass 1  IDiag  1:
 RMSU=  1.80D-08    CP:  1.00D+00  1.01D+00  8.20D-01  8.52D-01  9.10D-01
                    CP:  8.21D-01
 E= -613.627266561484     Delta-E=       -0.000000000130 Rises=F Damp=F
 DIIS: error= 3.63D-07 at cycle   7 NSaved=   7.
 NSaved= 7 IEnMin= 7 EnMin= -613.627266561484     IErMin= 7 ErrMin= 3.63D-07
 ErrMax= 3.63D-07  0.00D+00 EMaxC= 1.00D-01 BMatC= 1.33D-10 BMatP= 3.32D-10
 IDIUse=1 WtCom= 1.00D+00 WtEn= 0.00D+00
 Coeff-Com: -0.360D-03-0.433D-04 0.395D-03 0.105D-01 0.511D-01 0.397D+00
 Coeff-Com:  0.541D+00
 Coeff:     -0.360D-03-0.433D-04 0.395D-03 0.105D-01 0.511D-01 0.397D+00
 Coeff:      0.541D+00
 Gap=     0.270 Goal=   None    Shift=    0.000
 RMSDP=1.43D-08 MaxDP=1.81D-06 DE=-1.30D-10 OVMax= 2.95D-06

 Cycle  16  Pass 1  IDiag  1:
 RMSU=  5.87D-09    CP:  1.00D+00  1.01D+00  8.21D-01  8.66D-01  9.40D-01
                    CP:  9.96D-01  7.33D-01
 E= -613.627266561557     Delta-E=       -0.000000000074 Rises=F Damp=F
 DIIS: error= 9.26D-08 at cycle   8 NSaved=   8.
 NSaved= 8 IEnMin= 8 EnMin= -613.627266561557     IErMin= 8 ErrMin= 9.26D-08
 ErrMax= 9.26D-08  0.00D+00 EMaxC= 1.00D-01 BMatC= 9.77D-12 BMatP= 1.33D-10
 IDIUse=1 WtCom= 1.00D+00 WtEn= 0.00D+00
 Coeff-Com: -0.417D-04-0.115D-02-0.433D-02-0.845D-02-0.910D-02 0.136D+00
 Coeff-Com:  0.282D+00 0.606D+00
 Coeff:     -0.417D-04-0.115D-02-0.433D-02-0.845D-02-0.910D-02 0.136D+00
 Coeff:      0.282D+00 0.606D+00
 Gap=     0.270 Goal=   None    Shift=    0.000
 RMSDP=3.39D-09 MaxDP=3.29D-07 DE=-7.37D-11 OVMax= 5.96D-07

 SCF Done:  E(RM06) =  -613.627266562     A.U. after   16 cycles
            NFock= 16  Conv=0.34D-08     -V/T= 2.0046
 KE= 6.108029621849D+02 PE=-3.180520291835D+03 EE= 1.081510435991D+03
 Leave Link  502 at Wed Jun 18 10:03:34 2014, MaxMem=  4294967296 cpu:     27058.4
 (Enter /home/ztw1e12/g09/l801.exe)
 DoSCS=F DFT=T ScalE2(SS,OS)=  1.000000  1.000000
 Range of M.O.s used for correlation:     1   932
 NBasis=  1036 NAE=    51 NBE=    51 NFC=     0 NFV=     0
 NROrb=    932 NOA=    51 NOB=    51 NVA=   881 NVB=   881

 **** Warning!!: The largest alpha MO coefficient is  0.11146937D+02

 Leave Link  801 at Wed Jun 18 10:03:34 2014, MaxMem=  4294967296 cpu:         0.4
 (Enter /home/ztw1e12/g09/l1002.exe)
 Minotr:  Closed shell wavefunction.
          IDoAtm=1111111111111111111111111111111
          Direct CPHF calculation.
          Differentiating once with respect to Fermi-contact.
          Electric field/nuclear overlap derivatives assumed to be zero.
          Requested convergence is 1.0D-10 RMS, and 1.0D-09 maximum.
          Secondary convergence is 1.0D-12 RMS, and 1.0D-12 maximum.
          NewPWx=T KeepS1=F KeepF1=F KeepIn=T MapXYZ=F SortEE=F KeepMc=T.
          MDV=    4294966050 using IRadAn=  199590.
 Using stored XC quadrature information.
          Solving linear equations simultaneously, MaxMat=       0.
          There are    31 degrees of freedom in the 1st order CPHF.  IDoFFX=0 NUNeed=    31.
     31 vectors produced by pass  0 Test12= 1.45D-17 3.23D-11 XBig12= 4.16D+01 2.56D+00.
 AX will form    31 AO Fock derivatives at one time.
 FoFJK:  IHMeth= 1 ICntrl=       0 DoSepK=F KAlg= 0 I1Cent=   0 FoldK=F
 IRaf= 500000000 NMat=  31 IRICut=       1 DoRegI=T DoRafI=F ISym2E=-1.
 FoFCou: FMM=F IPFlag=           0 FMFlag=      100000 FMFlg1=           0
         NFxFlg=           0 DoJE=F BraDBF=F KetDBF=F FulRan=T
         wScrn=  0.000000 ICntrl=       0 IOpCl=  0 I1Cent=           0 NGrid=           0
         NMat0=   31 NMatS0=      0 NMatT0=   31 NMatD0=   31 NMtDS0=    0 NMtDT0=    0
 Petite list used in FoFCou.
     31 vectors produced by pass  1 Test12= 1.45D-17 3.23D-11 XBig12= 3.44D-01 1.76D-01.
     31 vectors produced by pass  2 Test12= 1.45D-17 3.23D-11 XBig12= 1.67D-02 4.67D-02.
     31 vectors produced by pass  3 Test12= 1.45D-17 3.23D-11 XBig12= 3.68D-04 6.29D-03.
     31 vectors produced by pass  4 Test12= 1.45D-17 3.23D-11 XBig12= 5.06D-06 8.79D-04.
     31 vectors produced by pass  5 Test12= 1.45D-17 3.23D-11 XBig12= 1.17D-07 1.48D-04.
     31 vectors produced by pass  6 Test12= 1.45D-17 3.23D-11 XBig12= 3.57D-09 1.82D-05.
     31 vectors produced by pass  7 Test12= 1.45D-17 3.23D-11 XBig12= 1.21D-10 4.45D-06.
     31 vectors produced by pass  8 Test12= 1.45D-17 3.23D-11 XBig12= 2.24D-12 2.85D-07.
     31 vectors produced by pass  9 Test12= 1.45D-17 3.23D-11 XBig12= 5.29D-14 7.20D-08.
     31 vectors produced by pass 10 Test12= 1.45D-17 3.23D-11 XBig12= 1.93D-15 6.74D-09.
     30 vectors produced by pass 11 Test12= 1.45D-17 3.23D-11 XBig12= 1.94D-17 5.12D-10.
      4 vectors produced by pass 12 Test12= 1.45D-17 3.23D-11 XBig12= 1.57D-19 5.04D-11.
 InvSVY:  IOpt=1 It=  1 EMax= 9.77D-15
 Solved reduced A of dimension   375 with    31 vectors.
 Max diff in FC couplings:  IJMax=    11     1 Diff= 4.25D-04 IJMaxR=    18     5 DiffR= 6.95D-01
 Fermi Contact (FC) contribution to K (Hz):
                1             2             3             4             5 
      1  0.123400D+11
      2  0.263337D+02  0.123400D+11
      3 -0.121550D+01  0.187919D+02  0.123400D+11
      4  0.154780D+00  0.596627D+00  0.893114D-03  0.123400D+11
      5  0.130259D-01  0.608539D-01 -0.627988D-03  0.169979D+02  0.123400D+11
      6  0.295089D-01  0.418161D-01  0.832397D-02  0.178932D+02 -0.841517D+00
      7  0.105935D-01  0.197723D-01  0.321442D-02  0.168766D+02 -0.806381D+00
      8 -0.954492D+01  0.274588D+01  0.368841D+00  0.147910D+01  0.103568D+00
      9 -0.130413D+00  0.189181D+02 -0.749787D+00  0.467441D-01  0.913844D-02
     10 -0.558994D-01  0.123462D+00  0.300429D+00  0.143012D-01 -0.651637D-03
     11  0.288037D+02  0.132110D+02  0.581846D-01  0.903793D-01  0.365026D-01
     12  0.479162D+00  0.749893D-01 -0.225327D-01 -0.747289D-03 -0.107931D-02
     13 -0.416199D+00  0.985546D+00 -0.428272D-01 -0.274698D-02  0.642521D-03
     14  0.224067D+00 -0.828793D-01  0.266585D-01  0.508777D-02  0.222738D-02
     15  0.158695D+00 -0.802724D-01  0.220182D-01  0.269902D-02  0.155343D-02
     16  0.947992D+00 -0.184932D-01  0.666257D-03  0.809609D-03  0.225557D-03
     17  0.699475D-01 -0.544403D+00  0.346495D+00  0.382202D-02  0.159028D-03
     18 -0.171367D+00  0.874612D+00 -0.803855D-01 -0.142744D-02  0.768565D-05
     19  0.125811D-02  0.112728D+00 -0.239140D-02 -0.364308D-03  0.503904D-05
     20  0.484741D-01  0.453833D-01  0.579443D-02  0.212767D-03  0.130096D-04
     21  0.102006D+00  0.160744D-01  0.166445D-01  0.623839D-03  0.451349D-04
     22  0.422309D+00  0.905159D+00  0.156060D+00  0.176626D-01 -0.610748D-03
     23  0.242640D+00 -0.741853D+00  0.968393D+00  0.170348D+02 -0.651139D+00
     24 -0.461155D-02  0.139865D+00 -0.200255D-01 -0.552371D+00  0.105223D+00
     25 -0.704100D-01  0.215238D+01 -0.639515D-01 -0.174012D+00  0.436438D+00
     26  0.312788D-02 -0.140177D-01  0.282366D-02  0.412424D+00 -0.393314D-02
     27  0.475841D-02 -0.278293D-02 -0.165931D-02  0.125080D+01  0.133173D-01
     28 -0.106015D-01  0.229407D+00  0.219853D-03  0.280381D+00 -0.109461D-01
     29 -0.150571D-01  0.171570D+02 -0.938934D+00 -0.120028D+00  0.119663D+01
     30  0.107923D+01 -0.851911D+00  0.250789D+00  0.107511D+01  0.442028D-01
     31  0.268294D+00 -0.436791D+00  0.793921D-01  0.291240D+00 -0.156872D-01
                6             7             8             9            10 
      6  0.123400D+11
      7 -0.773264D+00  0.123400D+11
      8  0.891242D-01 -0.202955D-01  0.123400D+11
      9  0.477244D-01  0.734928D-02  0.457364D+00  0.123400D+11
     10 -0.391403D-02 -0.509908D-03 -0.368246D-02  0.309418D+02  0.123400D+11
     11  0.164259D-01  0.399158D-01  0.649128D+01  0.585928D+00  0.621344D-01
     12 -0.749620D-03 -0.131762D-04  0.486119D+00  0.407981D-01 -0.176411D-02
     13  0.232611D-02  0.227727D-02  0.646481D+00  0.232231D+00 -0.357962D-02
     14  0.188230D-02  0.613325D-02  0.252248D+00 -0.732808D-02  0.799854D-03
     15  0.953951D-03  0.201096D-02  0.234301D+00 -0.512849D-02 -0.135582D-03
     16  0.354168D-03  0.315420D-03  0.182376D+00  0.239953D-01 -0.610138D-03
     17  0.480683D-02 -0.663996D-03  0.112454D+00  0.253771D+02  0.269093D+00
     18 -0.143721D-04 -0.822279D-05  0.971288D-01  0.127755D+02  0.111983D+00
     19  0.551166D-04  0.204070D-04  0.254536D-03  0.364510D+00 -0.134648D-01
     20  0.218971D-04 -0.324591D-04  0.850305D-02  0.430428D+00  0.635585D-02
     21  0.269891D-04  0.692905D-04  0.115378D-01  0.299871D+00 -0.216829D-01
     22 -0.108234D-02  0.272615D-02  0.438905D+00  0.571238D+01  0.408167D+00
     23 -0.587398D+00 -0.687380D+00 -0.535468D-01  0.167362D+01 -0.684628D-01
     24  0.151079D+00  0.386723D+00  0.114536D-01  0.184850D+00 -0.362338D-01
     25  0.148073D+01  0.312485D+00  0.133532D+00 -0.528381D-01 -0.960528D-02
     26 -0.597002D-02 -0.129221D-01  0.146628D-03  0.899457D-01 -0.429640D-02
     27  0.921520D-01 -0.902606D-02  0.115934D-01  0.382029D-02 -0.136364D-03
     28  0.298051D-03 -0.396275D-02  0.182247D-02 -0.168858D-01  0.210915D-02
     29  0.165396D+00  0.399012D+00  0.253826D+00  0.104653D+01  0.353683D+00
     30 -0.106401D-01 -0.100470D-01  0.858736D-01  0.124631D+00 -0.860889D-02
     31 -0.434509D-02 -0.152504D-01 -0.111735D-01  0.154694D+01 -0.192565D-01
               11            12            13            14            15 
     11  0.123400D+11
     12  0.312733D+02  0.123400D+11
     13  0.171131D+02  0.320927D+00  0.123400D+11
     14 -0.606155D+00  0.112139D+00  0.198505D+02  0.123400D+11
     15 -0.541483D+00  0.991620D-01  0.202203D+02 -0.731118D+00  0.123400D+11
     16 -0.395203D+00  0.290734D+00  0.182304D+02 -0.747962D+00 -0.746248D+00
     17 -0.733565D-01 -0.358454D-03 -0.134743D-01  0.130157D-02  0.169933D-02
     18  0.430822D-02  0.179316D-02  0.127348D-01 -0.371819D-04  0.383266D-04
     19  0.593313D-02  0.271256D-04  0.122007D-03 -0.257442D-04 -0.850033D-05
     20 -0.237767D-03 -0.903973D-04 -0.585257D-03  0.360232D-04  0.200434D-04
     21  0.279322D-01 -0.115599D-03  0.315413D-02  0.361511D-04 -0.304185D-04
     22  0.188069D+00 -0.172408D-02  0.132832D-01  0.125015D-02  0.683853D-03
     23  0.585299D-01  0.198504D-02  0.242326D-02 -0.205835D-03  0.909658D-03
     24  0.396088D-01 -0.146595D-02  0.443034D-03  0.559684D-03 -0.257131D-03
     25 -0.159723D-01  0.995659D-03  0.223498D-03  0.493018D-03 -0.386628D-03
     26  0.669567D-03  0.868053D-05 -0.926256D-04  0.248381D-05  0.314007D-04
     27  0.213118D-02 -0.141812D-03 -0.166888D-03  0.364885D-03  0.241521D-03
     28 -0.236599D-03 -0.133373D-03 -0.473498D-03  0.308846D-03  0.298675D-03
     29  0.116398D+00 -0.238820D-01 -0.122796D+00  0.512719D-01  0.114302D+00
     30 -0.388340D-01 -0.402650D-02 -0.340413D-02  0.597583D-03  0.177600D-02
     31  0.108375D+00 -0.194965D-01  0.885827D-03 -0.695733D-03 -0.864064D-04
               16            17            18            19            20 
     16  0.123400D+11
     17  0.120827D-03  0.123400D+11
     18  0.197644D-03  0.273844D+02  0.123400D+11
     19  0.257762D-04 -0.774013D+00  0.170115D+02  0.123400D+11
     20  0.526054D-04 -0.115178D+01  0.182761D+02 -0.699420D+00  0.123400D+11
     21  0.287462D-03 -0.122420D+01  0.176666D+02 -0.773591D+00 -0.914225D+00
     22  0.108250D-02 -0.941079D+01  0.383086D+01  0.832867D+00  0.430483D+00
     23 -0.505632D-03  0.101022D-02  0.454949D-01 -0.254603D-02 -0.516438D-03
     24  0.163999D-03  0.133694D-01 -0.121677D-02  0.342975D-03  0.828954D-04
     25 -0.978278D-04 -0.480552D-02 -0.512058D-02  0.214098D-03  0.122873D-02
     26 -0.390223D-05  0.143252D-01  0.348532D-03  0.377064D-04  0.247452D-04
     27 -0.327611D-05 -0.181212D-03  0.932666D-04 -0.209141D-05 -0.114677D-04
     28 -0.344830D-05  0.588233D-02 -0.763548D-03  0.272316D-05  0.663399D-04
     29  0.680342D-02  0.141335D+01 -0.233378D-01 -0.387304D-02  0.255853D-01
     30  0.474905D-03 -0.331075D-01  0.978355D-03  0.153768D-03 -0.711191D-03
     31  0.101558D-02  0.745454D-01  0.545144D-01 -0.668266D-04  0.289930D-02
               21            22            23            24            25 
     21  0.123400D+11
     22  0.462004D+00  0.123400D+11
     23 -0.152953D-02  0.152902D+00  0.123400D+11
     24 -0.881399D-04  0.850254D-02  0.165671D+02  0.123400D+11
     25 -0.256946D-03  0.379106D-01  0.172217D+02 -0.804231D+00  0.123400D+11
     26 -0.245394D-04 -0.844993D-03 -0.730895D+00  0.357148D+00  0.171540D+02
     27 -0.209506D-05  0.102996D-03 -0.596713D+00  0.113863D+00  0.173035D+02
     28 -0.418605D-05  0.394686D-02 -0.539922D+00  0.143570D+00  0.175821D+02
     29 -0.270268D-02  0.118505D+00  0.173241D+02 -0.708050D+00  0.324801D+00
     30 -0.596623D-03  0.419052D-02 -0.644580D+00  0.149931D+00  0.279335D+00
     31 -0.221399D-02 -0.166674D-02 -0.726161D+00  0.330598D+00  0.444745D+00
               26            27            28            29            30 
     26  0.123400D+11
     27 -0.752729D+00  0.123400D+11
     28 -0.762813D+00 -0.765571D+00  0.123400D+11
     29  0.339143D+00  0.380380D+00  0.137448D+01  0.123400D+11
     30 -0.645764D-02 -0.123157D-01  0.103568D-02  0.176227D+02  0.123400D+11
     31 -0.151562D-01 -0.247410D-02 -0.641265D-03  0.167672D+02 -0.873822D+00
               31 
     31  0.123400D+11
 Fermi Contact (FC) contribution to J (Hz):
                1             2             3             4             5 
      1  0.243533D+11
      2  0.519702D+02  0.243533D+11
      3 -0.953794D+01  0.147458D+03  0.385007D+12
      4  0.305463D+00  0.117746D+01  0.700818D-02  0.243533D+11
      5  0.102213D+00  0.477515D+00 -0.195932D-01  0.133381D+03  0.385007D+12
      6  0.231554D+00  0.328127D+00  0.259707D+00  0.140406D+03 -0.262553D+02
      7  0.831264D-01  0.155151D+00  0.100290D+00  0.132429D+03 -0.251590D+02
      8  0.101575D+02 -0.292211D+01 -0.156067D+01 -0.157403D+01 -0.438226D+00
      9 -0.739719D-01  0.107306D+02 -0.169098D+01  0.265138D-01  0.206098D-01
     10 -0.438637D+00  0.968796D+00  0.937339D+01  0.112220D+00 -0.203310D-01
     11  0.163378D+02  0.749342D+01  0.131223D+00  0.512643D-01  0.823237D-01
     12  0.375994D+01  0.588433D+00 -0.703019D+00 -0.586391D-02 -0.336746D-01
     13 -0.821380D+00  0.194500D+01 -0.336061D+00 -0.542123D-02  0.504180D-02
     14  0.175823D+01 -0.650346D+00  0.831744D+00  0.399232D-01  0.694942D-01
     15  0.124526D+01 -0.629889D+00  0.686968D+00  0.211790D-01  0.484669D-01
     16  0.743880D+01 -0.145114D+00  0.207872D-01  0.635292D-02  0.703738D-02
     17  0.138043D+00 -0.107439D+01  0.271891D+01  0.754285D-02  0.124788D-02
     18 -0.338197D+00  0.172607D+01 -0.630777D+00 -0.281709D-02  0.603085D-04
     19  0.987230D-02  0.884564D+00 -0.746117D-01 -0.285869D-02  0.157218D-03
     20  0.380372D+00  0.356119D+00  0.180786D+00  0.166956D-02  0.405899D-03
     21  0.800431D+00  0.126134D+00  0.519307D+00  0.489521D-02  0.140821D-02
     22 -0.449413D+00 -0.963252D+00 -0.660334D+00 -0.187962D-01  0.258424D-02
     23  0.478857D+00 -0.146407D+01  0.759888D+01  0.336187D+02 -0.510943D+01
     24 -0.361863D-01  0.109750D+01 -0.624796D+00 -0.433440D+01  0.328296D+01
     25 -0.138956D+00  0.424777D+01 -0.501821D+00 -0.343418D+00  0.342469D+01
     26  0.245441D-01 -0.109996D+00  0.880979D-01  0.323625D+01 -0.122714D+00
     27  0.373388D-01 -0.218374D-01 -0.517704D-01  0.981488D+01  0.415500D+00
     28 -0.831889D-01  0.180014D+01  0.685940D-02  0.220012D+01 -0.341518D+00
     29 -0.297156D-01  0.338598D+02 -0.736772D+01 -0.236878D+00  0.938980D+01
     30  0.846859D+01 -0.668487D+01  0.782462D+01  0.843632D+01  0.137912D+01
     31  0.210528D+01 -0.342746D+01  0.247703D+01  0.228533D+01 -0.489440D+00
                6             7             8             9            10 
      6  0.385007D+12
      7 -0.241258D+02  0.385007D+12
      8 -0.377109D+00  0.858757D-01  0.708114D+10
      9  0.107632D+00  0.165747D-01 -0.139888D+00  0.201170D+10
     10 -0.122117D+00 -0.159091D-01  0.155815D-01  0.697825D+02  0.385007D+12
     11  0.370451D-01  0.900215D-01 -0.198540D+01  0.955197D-01  0.140131D+00
     12 -0.233881D-01 -0.411097D-03 -0.205690D+01  0.920113D-01 -0.550402D-01
     13  0.182527D-01  0.178695D-01 -0.687973D+00  0.131724D+00 -0.280889D-01
     14  0.587277D-01  0.191357D+00 -0.106733D+01 -0.165269D-01  0.249554D-01
     15  0.297632D-01  0.627417D-01 -0.991391D+00 -0.115662D-01 -0.423015D-02
     16  0.110500D-01  0.984108D-02 -0.771684D+00  0.541162D-01 -0.190363D-01
     17  0.377187D-01 -0.521031D-02 -0.119671D+00  0.143942D+02  0.211155D+01
     18 -0.112777D-03 -0.645235D-04 -0.103363D+00  0.724643D+01  0.878723D+00
     19  0.171963D-02  0.636699D-03 -0.107701D-02  0.822073D+00 -0.420101D+00
     20  0.683189D-03 -0.101272D-02 -0.359787D-01  0.970737D+00  0.198302D+00
     21  0.842057D-03  0.216186D-02 -0.488196D-01  0.676295D+00 -0.676505D+00
     22  0.457970D-02 -0.115351D-01  0.251860D+00 -0.174717D+01 -0.172707D+01
     23 -0.460925D+01 -0.539381D+01  0.569835D-01  0.949296D+00 -0.537221D+00
     24  0.471364D+01  0.120657D+02 -0.484633D-01  0.416888D+00 -0.113049D+01
     25  0.116191D+02  0.245204D+01 -0.142102D+00 -0.299704D-01 -0.753717D-01
     26 -0.186264D+00 -0.403167D+00 -0.620425D-03  0.202853D+00 -0.134047D+00
     27  0.287514D+01 -0.281613D+00 -0.490547D-01  0.861583D-02 -0.425455D-02
     28  0.929919D-02 -0.123638D+00 -0.771137D-02 -0.380823D-01  0.658055D-01
     29  0.129785D+01  0.313101D+01 -0.270117D+00  0.593602D+00  0.277532D+01
     30 -0.331970D+00 -0.313467D+00 -0.363355D+00  0.281077D+00 -0.268597D+00
     31 -0.135567D+00 -0.475812D+00  0.472783D-01  0.348880D+01 -0.600801D+00
               11            12            13            14            15 
     11  0.201170D+10
     12  0.705303D+02  0.385007D+12
     13  0.970679D+01  0.251828D+01  0.243533D+11
     14 -0.136705D+01  0.349873D+01  0.155765D+03  0.385007D+12
     15 -0.122120D+01  0.309385D+01  0.158667D+03 -0.228108D+02  0.385007D+12
     16 -0.891295D+00  0.907088D+01  0.143052D+03 -0.233364D+02 -0.232829D+02
     17 -0.416087D-01 -0.281275D-02 -0.265918D-01  0.102133D-01  0.133344D-01
     18  0.244367D-02  0.140708D-01  0.251325D-01 -0.291762D-03  0.300745D-03
     19  0.133809D-01  0.846318D-03  0.957379D-03 -0.803219D-03 -0.265210D-03
     20 -0.536231D-03 -0.282039D-02 -0.459245D-02  0.112392D-02  0.625353D-03
     21  0.629950D-01 -0.360669D-02  0.247501D-01  0.112791D-02 -0.949054D-03
     22 -0.575223D-01  0.729507D-02 -0.141357D-01 -0.528971D-02 -0.289357D-02
     23  0.331989D-01  0.155764D-01  0.478236D-02 -0.161517D-02  0.713800D-02
     24  0.893291D-01 -0.457377D-01  0.347644D-02  0.174621D-01 -0.802249D-02
     25 -0.905966D-02  0.781284D-02  0.441079D-03  0.386867D-02 -0.303383D-02
     26  0.151006D-02  0.270832D-03 -0.726824D-03  0.774946D-04  0.979701D-03
     27  0.480641D-02 -0.442454D-02 -0.130956D-02  0.113844D-01  0.753545D-02
     28 -0.533598D-03 -0.416123D-02 -0.371549D-02  0.963599D-02  0.931866D-02
     29  0.660226D-01 -0.187400D+00 -0.242342D+00  0.402325D+00  0.896918D+00
     30 -0.875818D-01 -0.125627D+00 -0.267119D-01  0.186446D-01  0.554112D-01
     31  0.244417D+00 -0.608290D+00  0.695100D-02 -0.217068D-01 -0.269588D-02
               16            17            18            19            20 
     16  0.385007D+12
     17  0.948121D-03  0.243533D+11
     18  0.155090D-02  0.540438D+02  0.243533D+11
     19  0.804217D-03 -0.607360D+01  0.133488D+03  0.385007D+12
     20  0.164128D-02 -0.903789D+01  0.143410D+03 -0.218219D+02  0.385007D+12
     21  0.896879D-02 -0.960615D+01  0.138628D+03 -0.241360D+02 -0.285238D+02
     22 -0.458037D-02  0.100148D+02 -0.407673D+01 -0.352409D+01 -0.182149D+01
     23 -0.396764D-02  0.199369D-02  0.897853D-01 -0.199785D-01 -0.405244D-02
     24  0.511675D-02  0.104908D+00 -0.954787D-02  0.107008D-01  0.258633D-02
     25 -0.767645D-03 -0.948382D-02 -0.101056D-01  0.168000D-02  0.964174D-02
     26 -0.121749D-03  0.112409D+00  0.273489D-02  0.117644D-02  0.772051D-03
     27 -0.102215D-03 -0.142195D-02  0.731854D-03 -0.652519D-04 -0.357790D-03
     28 -0.107587D-03  0.461581D-01 -0.599149D-02  0.849624D-04  0.206980D-02
     29  0.533858D-01  0.278929D+01 -0.460577D-01 -0.303914D-01  0.200765D+00
     30  0.148170D-01 -0.259792D+00  0.767705D-02  0.479756D-02 -0.221891D-01
     31  0.316860D-01  0.584950D+00  0.427769D+00 -0.208499D-02  0.904580D-01
               21            22            23            24            25 
     21  0.385007D+12
     22 -0.195486D+01  0.708114D+10
     23 -0.120021D-01 -0.162715D+00  0.243533D+11
     24 -0.274996D-02 -0.359766D-01  0.130001D+03  0.385007D+12
     25 -0.201623D-02 -0.403437D-01  0.339875D+02 -0.631072D+01  0.243533D+11
     26 -0.765629D-03  0.357540D-02 -0.573527D+01  0.111430D+02  0.134606D+03
     27 -0.653659D-04 -0.435802D-03 -0.468235D+01  0.355253D+01  0.135779D+03
     28 -0.130605D-03 -0.167002D-01 -0.423672D+01  0.447936D+01  0.137965D+03
     29 -0.212077D-01 -0.126110D+00  0.341895D+02 -0.555600D+01  0.641003D+00
     30 -0.186146D-01 -0.177312D-01 -0.505796D+01  0.467785D+01  0.219191D+01
     31 -0.690764D-01  0.705242D-02 -0.569811D+01  0.103146D+02  0.348987D+01
               26            27            28            29            30 
     26  0.385007D+12
     27 -0.234851D+02  0.385007D+12
     28 -0.237997D+02 -0.238858D+02  0.385007D+12
     29  0.266123D+01  0.298480D+01  0.107854D+02  0.243533D+11
     30 -0.201478D+00 -0.384249D+00  0.323132D-01  0.138283D+03  0.385007D+12
     31 -0.472874D+00 -0.771919D-01 -0.200074D-01  0.131571D+03 -0.272632D+02
               31 
     31  0.385007D+12
 End of Minotr F.D. properties file   721 does not exist.
 End of Minotr F.D. properties file   722 does not exist.
 End of Minotr F.D. properties file   788 does not exist.
 Leave Link 1002 at Wed Jun 18 16:37:41 2014, MaxMem=  4294967296 cpu:    377417.2
 (Enter /home/ztw1e12/g09/l601.exe)
 Copying SCF densities to generalized density rwf, IOpCl= 0 IROHF=0.

 **********************************************************************

            Population analysis using the SCF density.

 **********************************************************************

 Orbital symmetries:
       Occupied  (A) (A) (A) (A) (A) (A) (A) (A) (A) (A) (A) (A)
                 (A) (A) (A) (A) (A) (A) (A) (A) (A) (A) (A) (A)
                 (A) (A) (A) (A) (A) (A) (A) (A) (A) (A) (A) (A)
                 (A) (A) (A) (A) (A) (A) (A) (A) (A) (A) (A) (A)
                 (A) (A) (A)
       Virtual   (A) (A) (A) (A) (A) (A) (A) (A) (A) (A) (A) (A)
                 (A) (A) (A) (A) (A) (A) (A) (A) (A) (A) (A) (A)
                 (A) (A) (A) (A) (A) (A) (A) (A) (A) (A) (A) (A)
                 (A) (A) (A) (A) (A) (A) (A) (A) (A) (A) (A) (A)
                 (A) (A) (A) (A) (A) (A) (A) (A) (A) (A) (A) (A)
                 (A) (A) (A) (A) (A) (A) (A) (A) (A) (A) (A) (A)
                 (A) (A) (A) (A) (A) (A) (A) (A) (A) (A) (A) (A)
                 (A) (A) (A) (A) (A) (A) (A) (A) (A) (A) (A) (A)
                 (A) (A) (A) (A) (A) (A) (A) (A) (A) (A) (A) (A)
                 (A) (A) (A) (A) (A) (A) (A) (A) (A) (A) (A) (A)
                 (A) (A) (A) (A) (A) (A) (A) (A) (A) (A) (A) (A)
                 (A) (A) (A) (A) (A) (A) (A) (A) (A) (A) (A) (A)
                 (A) (A) (A) (A) (A) (A) (A) (A) (A) (A) (A) (A)
                 (A) (A) (A) (A) (A) (A) (A) (A) (A) (A) (A) (A)
                 (A) (A) (A) (A) (A) (A) (A) (A) (A) (A) (A) (A)
                 (A) (A) (A) (A) (A) (A) (A) (A) (A) (A) (A) (A)
                 (A) (A) (A) (A) (A) (A) (A) (A) (A) (A) (A) (A)
                 (A) (A) (A) (A) (A) (A) (A) (A) (A) (A) (A) (A)
                 (A) (A) (A) (A) (A) (A) (A) (A) (A) (A) (A) (A)
                 (A) (A) (A) (A) (A) (A) (A) (A) (A) (A) (A) (A)
                 (A) (A) (A) (A) (A) (A) (A) (A) (A) (A) (A) (A)
                 (A) (A) (A) (A) (A) (A) (A) (A) (A) (A) (A) (A)
                 (A) (A) (A) (A) (A) (A) (A) (A) (A) (A) (A) (A)
                 (A) (A) (A) (A) (A) (A) (A) (A) (A) (A) (A) (A)
                 (A) (A) (A) (A) (A) (A) (A) (A) (A) (A) (A) (A)
                 (A) (A) (A) (A) (A) (A) (A) (A) (A) (A) (A) (A)
                 (A) (A) (A) (A) (A) (A) (A) (A) (A) (A) (A) (A)
                 (A) (A) (A) (A) (A) (A) (A) (A) (A) (A) (A) (A)
                 (A) (A) (A) (A) (A) (A) (A) (A) (A) (A) (A) (A)
                 (A) (A) (A) (A) (A) (A) (A) (A) (A) (A) (A) (A)
                 (A) (A) (A) (A) (A) (A) (A) (A) (A) (A) (A) (A)
                 (A) (A) (A) (A) (A) (A) (A) (A) (A) (A) (A) (A)
                 (A) (A) (A) (A) (A) (A) (A) (A) (A) (A) (A) (A)
                 (A) (A) (A) (A) (A) (A) (A) (A) (A) (A) (A) (A)
                 (A) (A) (A) (A) (A) (A) (A) (A) (A) (A) (A) (A)
                 (A) (A) (A) (A) (A) (A) (A) (A) (A) (A) (A) (A)
                 (A) (A) (A) (A) (A) (A) (A) (A) (A) (A) (A) (A)
                 (A) (A) (A) (A) (A) (A) (A) (A) (A) (A) (A) (A)
                 (A) (A) (A) (A) (A) (A) (A) (A) (A) (A) (A) (A)
                 (A) (A) (A) (A) (A) (A) (A) (A) (A) (A) (A) (A)
                 (A) (A) (A) (A) (A) (A) (A) (A) (A) (A) (A) (A)
                 (A) (A) (A) (A) (A) (A) (A) (A) (A) (A) (A) (A)
                 (A) (A) (A) (A) (A) (A) (A) (A) (A) (A) (A) (A)
                 (A) (A) (A) (A) (A) (A) (A) (A) (A) (A) (A) (A)
                 (A) (A) (A) (A) (A) (A) (A) (A) (A) (A) (A) (A)
                 (A) (A) (A) (A) (A) (A) (A) (A) (A) (A) (A) (A)
                 (A) (A) (A) (A) (A) (A) (A) (A) (A) (A) (A) (A)
                 (A) (A) (A) (A) (A) (A) (A) (A) (A) (A) (A) (A)
                 (A) (A) (A) (A) (A) (A) (A) (A) (A) (A) (A) (A)
                 (A) (A) (A) (A) (A) (A) (A) (A) (A) (A) (A) (A)
                 (A) (A) (A) (A) (A) (A) (A) (A) (A) (A) (A) (A)
                 (A) (A) (A) (A) (A) (A) (A) (A) (A) (A) (A) (A)
                 (A) (A) (A) (A) (A) (A) (A) (A) (A) (A) (A) (A)
                 (A) (A) (A) (A) (A) (A) (A) (A) (A) (A) (A) (A)
                 (A) (A) (A) (A) (A) (A) (A) (A) (A) (A) (A) (A)
                 (A) (A) (A) (A) (A) (A) (A) (A) (A) (A) (A) (A)
                 (A) (A) (A) (A) (A) (A) (A) (A) (A) (A) (A) (A)
                 (A) (A) (A) (A) (A) (A) (A) (A) (A) (A) (A) (A)
                 (A) (A) (A) (A) (A) (A) (A) (A) (A) (A) (A) (A)
                 (A) (A) (A) (A) (A) (A) (A) (A) (A) (A) (A) (A)
                 (A) (A) (A) (A) (A) (A) (A) (A) (A) (A) (A) (A)
                 (A) (A) (A) (A) (A) (A) (A) (A) (A) (A) (A) (A)
                 (A) (A) (A) (A) (A) (A) (A) (A) (A) (A) (A) (A)
                 (A) (A) (A) (A) (A) (A) (A) (A) (A) (A) (A) (A)
                 (A) (A) (A) (A) (A) (A) (A) (A) (A) (A) (A) (A)
                 (A) (A) (A) (A) (A) (A) (A) (A) (A) (A) (A) (A)
                 (A) (A) (A) (A) (A) (A) (A) (A) (A) (A) (A) (A)
                 (A) (A) (A) (A) (A) (A) (A) (A) (A) (A) (A) (A)
                 (A) (A) (A) (A) (A) (A) (A) (A) (A) (A) (A) (A)
                 (A) (A) (A) (A) (A) (A) (A) (A) (A) (A) (A) (A)
                 (A) (A) (A) (A) (A) (A) (A) (A) (A) (A) (A) (A)
                 (A) (A) (A) (A) (A) (A) (A) (A) (A) (A) (A) (A)
                 (A) (A) (A) (A) (A) (A) (A) (A) (A) (A) (A) (A)
                 (A) (A) (A) (A) (A)
 The electronic state is 1-A.
 Alpha  occ. eigenvalues --  -19.17414 -19.16310 -14.42062 -14.41194 -10.33639
 Alpha  occ. eigenvalues --  -10.33210 -10.29131 -10.27356 -10.25738 -10.25685
 Alpha  occ. eigenvalues --  -10.23689 -10.23536 -10.23048  -1.05550  -1.04010
 Alpha  occ. eigenvalues --   -0.94491  -0.94164  -0.84130  -0.78561  -0.74189
 Alpha  occ. eigenvalues --   -0.72054  -0.70426  -0.66382  -0.60526  -0.60247
 Alpha  occ. eigenvalues --   -0.58046  -0.55129  -0.50944  -0.49465  -0.47717
 Alpha  occ. eigenvalues --   -0.47448  -0.46966  -0.45386  -0.45171  -0.44193
 Alpha  occ. eigenvalues --   -0.42591  -0.41503  -0.40798  -0.40496  -0.40162
 Alpha  occ. eigenvalues --   -0.39608  -0.39242  -0.38415  -0.36380  -0.35223
 Alpha  occ. eigenvalues --   -0.34924  -0.33832  -0.28380  -0.27660  -0.26476
 Alpha  occ. eigenvalues --   -0.25741
 Alpha virt. eigenvalues --    0.01213   0.02081   0.02580   0.03549   0.04577
 Alpha virt. eigenvalues --    0.04832   0.06682   0.06972   0.07545   0.08198
 Alpha virt. eigenvalues --    0.09864   0.10580   0.11316   0.11516   0.12231
 Alpha virt. eigenvalues --    0.12332   0.12836   0.13735   0.14410   0.15602
 Alpha virt. eigenvalues --    0.15843   0.16962   0.17650   0.18341   0.19404
 Alpha virt. eigenvalues --    0.21026   0.22521   0.23536   0.23780   0.24170
 Alpha virt. eigenvalues --    0.24988   0.26172   0.26243   0.27025   0.27589
 Alpha virt. eigenvalues --    0.29284   0.29381   0.30543   0.30995   0.31957
 Alpha virt. eigenvalues --    0.32745   0.33570   0.34789   0.34931   0.35757
 Alpha virt. eigenvalues --    0.36674   0.37097   0.38059   0.38650   0.39203
 Alpha virt. eigenvalues --    0.39252   0.40040   0.40297   0.40791   0.41137
 Alpha virt. eigenvalues --    0.41870   0.41975   0.42241   0.42601   0.43261
 Alpha virt. eigenvalues --    0.43669   0.44516   0.44635   0.44937   0.45153
 Alpha virt. eigenvalues --    0.45804   0.46306   0.46737   0.48770   0.49088
 Alpha virt. eigenvalues --    0.49537   0.50652   0.51746   0.51775   0.52036
 Alpha virt. eigenvalues --    0.53902   0.54780   0.55076   0.56020   0.56729
 Alpha virt. eigenvalues --    0.57426   0.58385   0.59539   0.61153   0.61814
 Alpha virt. eigenvalues --    0.62198   0.63755   0.65481   0.65762   0.67380
 Alpha virt. eigenvalues --    0.69458   0.70104   0.71116   0.72225   0.74297
 Alpha virt. eigenvalues --    0.74822   0.76077   0.77010   0.77793   0.78480
 Alpha virt. eigenvalues --    0.79457   0.79861   0.80803   0.81943   0.82111
 Alpha virt. eigenvalues --    0.84072   0.84237   0.85200   0.85982   0.86770
 Alpha virt. eigenvalues --    0.87363   0.87570   0.88832   0.90301   0.91875
 Alpha virt. eigenvalues --    0.92575   0.93260   0.94038   0.94610   0.95218
 Alpha virt. eigenvalues --    0.95620   0.96476   0.97194   0.97982   0.98660
 Alpha virt. eigenvalues --    0.98914   0.99260   1.00736   1.01624   1.02122
 Alpha virt. eigenvalues --    1.03144   1.03370   1.04129   1.05053   1.06156
 Alpha virt. eigenvalues --    1.06773   1.07710   1.08943   1.09682   1.10158
 Alpha virt. eigenvalues --    1.10889   1.12027   1.12854   1.13812   1.14713
 Alpha virt. eigenvalues --    1.15154   1.15749   1.16008   1.16428   1.17817
 Alpha virt. eigenvalues --    1.18284   1.20069   1.20476   1.20810   1.21719
 Alpha virt. eigenvalues --    1.22272   1.22578   1.22766   1.23232   1.23540
 Alpha virt. eigenvalues --    1.23767   1.25165   1.25372   1.25599   1.26873
 Alpha virt. eigenvalues --    1.27400   1.28061   1.28388   1.28815   1.30023
 Alpha virt. eigenvalues --    1.30879   1.31173   1.31598   1.32352   1.32724
 Alpha virt. eigenvalues --    1.33889   1.34426   1.34949   1.35662   1.37053
 Alpha virt. eigenvalues --    1.37293   1.38296   1.38448   1.39242   1.42280
 Alpha virt. eigenvalues --    1.42905   1.43410   1.44339   1.45855   1.49428
 Alpha virt. eigenvalues --    1.50616   1.51623   1.52918   1.53444   1.54416
 Alpha virt. eigenvalues --    1.55968   1.59130   1.60763   1.61765   1.63074
 Alpha virt. eigenvalues --    1.65008   1.65980   1.69368   1.70054   1.72579
 Alpha virt. eigenvalues --    1.74696   1.75186   1.77280   1.77836   1.80835
 Alpha virt. eigenvalues --    1.84312   1.86529   1.89915   1.91242   1.92939
 Alpha virt. eigenvalues --    1.93792   1.95576   1.96635   1.99406   2.00421
 Alpha virt. eigenvalues --    2.01021   2.02823   2.04300   2.04799   2.08438
 Alpha virt. eigenvalues --    2.08653   2.10099   2.12378   2.13313   2.15463
 Alpha virt. eigenvalues --    2.15862   2.18019   2.20634   2.22242   2.22982
 Alpha virt. eigenvalues --    2.24297   2.24609   2.26796   2.28916   2.31453
 Alpha virt. eigenvalues --    2.31636   2.33865   2.35129   2.37694   2.38840
 Alpha virt. eigenvalues --    2.39468   2.40890   2.42768   2.43263   2.43475
 Alpha virt. eigenvalues --    2.44911   2.45693   2.46997   2.48671   2.49538
 Alpha virt. eigenvalues --    2.50568   2.52741   2.53706   2.54075   2.54220
 Alpha virt. eigenvalues --    2.54983   2.55575   2.58919   2.59677   2.62344
 Alpha virt. eigenvalues --    2.64238   2.65276   2.67392   2.67989   2.69006
 Alpha virt. eigenvalues --    2.70401   2.71041   2.71604   2.72962   2.73203
 Alpha virt. eigenvalues --    2.73816   2.75050   2.75440   2.76378   2.78357
 Alpha virt. eigenvalues --    2.78859   2.80145   2.81050   2.81735   2.82622
 Alpha virt. eigenvalues --    2.83467   2.84964   2.85633   2.87180   2.88017
 Alpha virt. eigenvalues --    2.88711   2.89704   2.90374   2.91151   2.91693
 Alpha virt. eigenvalues --    2.92153   2.92771   2.93853   2.94638   2.94846
 Alpha virt. eigenvalues --    2.96719   2.97420   2.98348   2.98632   2.99524
 Alpha virt. eigenvalues --    2.99813   3.00671   3.02227   3.02536   3.02994
 Alpha virt. eigenvalues --    3.03149   3.03944   3.04335   3.04772   3.06108
 Alpha virt. eigenvalues --    3.06294   3.07114   3.08314   3.09161   3.10241
 Alpha virt. eigenvalues --    3.10797   3.11202   3.12034   3.12447   3.14022
 Alpha virt. eigenvalues --    3.14515   3.16383   3.17659   3.19054   3.19896
 Alpha virt. eigenvalues --    3.20534   3.21724   3.23680   3.23870   3.24628
 Alpha virt. eigenvalues --    3.25447   3.26262   3.27320   3.27598   3.28121
 Alpha virt. eigenvalues --    3.28809   3.29636   3.30085   3.30667   3.31561
 Alpha virt. eigenvalues --    3.32676   3.33178   3.33874   3.34354   3.35735
 Alpha virt. eigenvalues --    3.37115   3.37590   3.38146   3.38789   3.39359
 Alpha virt. eigenvalues --    3.40238   3.40811   3.41631   3.42045   3.42781
 Alpha virt. eigenvalues --    3.44312   3.45022   3.45529   3.45939   3.46535
 Alpha virt. eigenvalues --    3.49276   3.49675   3.50256   3.52522   3.53346
 Alpha virt. eigenvalues --    3.54671   3.54878   3.56472   3.58267   3.59379
 Alpha virt. eigenvalues --    3.60959   3.61369   3.62153   3.64078   3.64636
 Alpha virt. eigenvalues --    3.66506   3.67287   3.68424   3.69463   3.70482
 Alpha virt. eigenvalues --    3.71467   3.71980   3.73053   3.74324   3.75192
 Alpha virt. eigenvalues --    3.75941   3.76319   3.78415   3.78692   3.79861
 Alpha virt. eigenvalues --    3.81043   3.81286   3.82580   3.83036   3.84216
 Alpha virt. eigenvalues --    3.85111   3.86766   3.88163   3.89134   3.89382
 Alpha virt. eigenvalues --    3.90330   3.91108   3.91545   3.92344   3.93383
 Alpha virt. eigenvalues --    3.95208   3.95330   3.96574   3.97673   3.99372
 Alpha virt. eigenvalues --    4.00152   4.02539   4.03534   4.04375   4.04575
 Alpha virt. eigenvalues --    4.06404   4.07070   4.08099   4.09013   4.09319
 Alpha virt. eigenvalues --    4.10668   4.12166   4.13039   4.14233   4.14809
 Alpha virt. eigenvalues --    4.15858   4.16279   4.17682   4.19164   4.19951
 Alpha virt. eigenvalues --    4.20299   4.20711   4.21964   4.23902   4.24266
 Alpha virt. eigenvalues --    4.25943   4.26860   4.27757   4.28521   4.30160
 Alpha virt. eigenvalues --    4.30422   4.30908   4.31547   4.33302   4.35183
 Alpha virt. eigenvalues --    4.37351   4.38778   4.39593   4.40994   4.42529
 Alpha virt. eigenvalues --    4.44902   4.45443   4.46058   4.47735   4.48811
 Alpha virt. eigenvalues --    4.49631   4.50728   4.52714   4.54355   4.56651
 Alpha virt. eigenvalues --    4.57649   4.57882   4.59739   4.60605   4.61435
 Alpha virt. eigenvalues --    4.61842   4.63112   4.63464   4.64310   4.64755
 Alpha virt. eigenvalues --    4.65807   4.67962   4.69914   4.70324   4.71618
 Alpha virt. eigenvalues --    4.72765   4.73947   4.74741   4.75930   4.76796
 Alpha virt. eigenvalues --    4.78477   4.79166   4.80135   4.82513   4.83175
 Alpha virt. eigenvalues --    4.85651   4.86505   4.89160   4.89930   4.90431
 Alpha virt. eigenvalues --    4.91659   4.93856   4.96093   4.96784   4.97547
 Alpha virt. eigenvalues --    4.98439   4.99548   4.99998   5.01896   5.02896
 Alpha virt. eigenvalues --    5.04185   5.05195   5.06727   5.08319   5.10570
 Alpha virt. eigenvalues --    5.11276   5.12483   5.13981   5.14310   5.15028
 Alpha virt. eigenvalues --    5.15660   5.17583   5.18529   5.18990   5.19942
 Alpha virt. eigenvalues --    5.21686   5.22491   5.23143   5.24857   5.25400
 Alpha virt. eigenvalues --    5.26474   5.28491   5.29074   5.29619   5.30143
 Alpha virt. eigenvalues --    5.31371   5.36053   5.36218   5.38009   5.41185
 Alpha virt. eigenvalues --    5.43222   5.44108   5.45761   5.45924   5.49315
 Alpha virt. eigenvalues --    5.51037   5.52478   5.55982   5.57541   5.58760
 Alpha virt. eigenvalues --    5.59424   5.62243   5.63516   5.63731   5.65131
 Alpha virt. eigenvalues --    5.65740   5.68143   5.70143   5.72203   5.72394
 Alpha virt. eigenvalues --    5.73289   5.75349   5.75448   5.76460   5.79159
 Alpha virt. eigenvalues --    5.79820   5.82086   5.83146   5.86306   5.87656
 Alpha virt. eigenvalues --    5.88686   5.95292   5.96757   6.03220   6.05028
 Alpha virt. eigenvalues --    6.12181   6.19627   6.20914   6.23500   6.27564
 Alpha virt. eigenvalues --    6.51284   6.52353   6.56790   6.62284   6.64434
 Alpha virt. eigenvalues --    6.65032   6.77587   6.82012   6.90430   6.92077
 Alpha virt. eigenvalues --    6.94659   6.95470   7.18069   7.19198   7.23450
 Alpha virt. eigenvalues --    7.28499   8.15075   8.27981   8.66009   8.73704
 Alpha virt. eigenvalues --    8.78983   8.80010   8.81791   8.82176   8.83017
 Alpha virt. eigenvalues --    8.84996   8.87526   8.88790   8.90896   8.91909
 Alpha virt. eigenvalues --    8.94680   8.94922   8.96512   8.96848   9.03512
 Alpha virt. eigenvalues --    9.05912   9.09146   9.11215   9.12686   9.14930
 Alpha virt. eigenvalues --    9.22954   9.60470   9.61889   9.77206   9.83196
 Alpha virt. eigenvalues --    9.89970   9.94154  10.10973  10.11321  10.15748
 Alpha virt. eigenvalues --   10.17832  10.18592  10.19939  10.21840  10.26735
 Alpha virt. eigenvalues --   10.27068  10.28623  10.31379  10.32957  10.35891
 Alpha virt. eigenvalues --   10.40589  11.75211  11.83430  12.04388  12.13732
 Alpha virt. eigenvalues --   12.16253  12.18272  12.23895  12.24122  12.29847
 Alpha virt. eigenvalues --   12.37397  12.46799  12.56732  12.59831  12.83857
 Alpha virt. eigenvalues --   12.92604  14.97717  15.02790  15.23864  15.27643
 Alpha virt. eigenvalues --   15.99385  16.04438  16.83722  16.89830  22.00459
 Alpha virt. eigenvalues --   22.10505  40.18260  40.26010  40.66514  40.67987
 Alpha virt. eigenvalues --   40.69201  40.71301  40.73250  40.74457  40.76412
 Alpha virt. eigenvalues --   40.77637  40.80304  40.80815  40.81663  40.82415
 Alpha virt. eigenvalues --   40.84157  40.84422  40.85156  40.85774  40.86175
 Alpha virt. eigenvalues --   40.86993  40.88491  40.88681  40.90249  40.90425
 Alpha virt. eigenvalues --   40.91176  40.92585  40.93289  46.34181  46.44605
 Alpha virt. eigenvalues --   46.49224  46.49825  46.55980  46.56825  46.61726
 Alpha virt. eigenvalues --   46.71467  46.80287  54.44551  54.52190  55.79761
 Alpha virt. eigenvalues --   55.84074  55.92197  55.97035  56.06896  56.11336
 Alpha virt. eigenvalues --   56.15563  56.17769  56.24429  56.28998  56.36443
 Alpha virt. eigenvalues --   56.40168  56.46025  56.56090  56.64743  56.73358
 Alpha virt. eigenvalues --   57.46273  57.51497  57.99555  58.02682  58.19449
 Alpha virt. eigenvalues --   58.25618  64.70737  64.76539  73.94634  73.97420
 Alpha virt. eigenvalues --   74.09641  74.11556  74.63778  74.66236  86.06422
 Alpha virt. eigenvalues --   86.15229 165.43458 165.52646 165.57496 165.58597
 Alpha virt. eigenvalues --  165.64141 165.64612 165.68552 165.77103 165.85144
 Alpha virt. eigenvalues --  226.54407 226.73343 230.57970 230.63263 235.70610
 Alpha virt. eigenvalues --  235.82886 235.96881 236.20318 236.21492 236.55375
 Alpha virt. eigenvalues --  236.58019 237.16375 237.45915 237.62571 237.71501
 Alpha virt. eigenvalues --  237.75333 238.07300 238.32278 238.59836 239.18538
 Alpha virt. eigenvalues --  308.80122 308.87883 624.55089 624.60502 624.63738
 Alpha virt. eigenvalues --  624.66628 624.69047 624.70319 624.73958 624.81603
 Alpha virt. eigenvalues --  624.87292 794.40917 794.68650 826.43619 827.01687
 Alpha virt. eigenvalues --  827.15533 827.16143 827.19831 827.74600 827.93201
 Alpha virt. eigenvalues --  830.41094 831.19824 831.66058 831.86217 831.91341
 Alpha virt. eigenvalues --  832.75232 833.29593 834.32243 836.47493 868.33817
 Alpha virt. eigenvalues --  868.394801165.928991165.999932485.111332486.32749
 Alpha virt. eigenvalues -- 2589.739702589.777652592.050722592.062722594.90923
 Alpha virt. eigenvalues -- 2596.246092598.623512602.150532604.952092605.33510
 Alpha virt. eigenvalues -- 2606.523342607.453732610.581512612.467232613.37156
 Alpha virt. eigenvalues -- 2617.476182740.326222740.337492740.370722740.40891
 Alpha virt. eigenvalues -- 2740.435012740.468782740.515572740.560852740.57596
 Alpha virt. eigenvalues -- 3787.313353787.375295073.310895073.374088294.22334
 Alpha virt. eigenvalues -- 8294.290568630.631378631.973408634.527318636.65913
 Alpha virt. eigenvalues -- 8637.251798637.573638637.957518661.687048668.84462
 Alpha virt. eigenvalues -- 8672.483128673.082578674.202048681.499118685.81427
 Alpha virt. eigenvalues -- 8693.086788710.59531******************************
 Alpha virt. eigenvalues -- **************************************************
 Alpha virt. eigenvalues -- **************************************************
 Alpha virt. eigenvalues -- **************************************************
 Alpha virt. eigenvalues -- **************************************************
 Alpha virt. eigenvalues -- **************************************************
 Alpha virt. eigenvalues -- **************************************************
 Alpha virt. eigenvalues -- **************************************************
 Alpha virt. eigenvalues -- **********
          Condensed to atoms (all electrons):
               1          2          3          4          5          6
     1  C    4.519176   0.236717  -0.043713   0.000369  -0.000011  -0.000779
     2  C    0.236717   5.326329   0.371851   0.007200  -0.000671  -0.000908
     3  H   -0.043713   0.371851   0.488252   0.000011   0.000034   0.001071
     4  C    0.000369   0.007200   0.000011   5.075376   0.403821   0.379672
     5  H   -0.000011  -0.000671   0.000034   0.403821   0.524681  -0.005905
     6  H   -0.000779  -0.000908   0.001071   0.379672  -0.005905   0.493029
     7  H    0.001497  -0.006521  -0.000112   0.399437  -0.017061  -0.021492
     8  O    0.723392  -0.110591   0.003817  -0.013195   0.000188   0.019395
     9  N   -0.053669   0.273653  -0.031584  -0.006254   0.000030   0.003468
    10  H   -0.006225  -0.031019   0.006805  -0.000620   0.000184   0.002336
    11  N    0.360936  -0.144297   0.006572  -0.002162   0.000100   0.000050
    12  H   -0.026257   0.011395   0.000319   0.000145  -0.000008  -0.000118
    13  C   -0.047918   0.010490  -0.001125  -0.000107  -0.000018  -0.000189
    14  H   -0.000421   0.002149   0.000046  -0.000231  -0.000023   0.000990
    15  H   -0.005940  -0.000712  -0.000201   0.000099   0.000000  -0.000227
    16  H    0.007038   0.000550  -0.000109   0.000010  -0.000001  -0.000008
    17  C    0.001488  -0.049370   0.000472  -0.000244  -0.000003   0.000264
    18  C   -0.005123   0.018447   0.002772  -0.000012  -0.000001   0.000135
    19  H    0.000634  -0.000825  -0.000594  -0.000020   0.000001  -0.000111
    20  H    0.000009  -0.000690   0.000103  -0.000001   0.000000   0.000011
    21  H    0.000816  -0.000878  -0.000170   0.000013   0.000000  -0.000032
    22  O   -0.011489   0.016128   0.026187   0.000001   0.000000  -0.000019
[...]
 Alpha virt. eigenvalues --    4.39018   4.39756   4.41230   4.41355   4.43803
 Alpha virt. eigenvalues --    4.46514   4.47152   4.49682   4.50292   4.52537
 Alpha virt. eigenvalues --    4.53000   4.54516   4.54737   4.59053   4.59878
 Alpha virt. eigenvalues --    4.61593   4.63032   4.63741   4.65588   4.66346
 Alpha virt. eigenvalues --    4.67773   4.69090   4.70684   4.72172   4.73361
 Alpha virt. eigenvalues --    4.73450   4.74077   4.75438   4.78332   4.78594
 Alpha virt. eigenvalues --    4.79861   4.81077   4.81700   4.83836   4.84892
 Alpha virt. eigenvalues --    4.85238   4.87591   4.88712   4.89190   4.90012
 Alpha virt. eigenvalues --    4.90901   4.93411   4.94310   4.95709   4.97569
 Alpha virt. eigenvalues --    4.97921   4.98338   5.00391   5.01445   5.02704
 Alpha virt. eigenvalues --    5.02874   5.03938   5.04703   5.04771   5.06086
 Alpha virt. eigenvalues --    5.07263   5.08617   5.09961   5.12592   5.13001
 Alpha virt. eigenvalues --    5.14171   5.14747   5.17240   5.17731   5.17853
 Alpha virt. eigenvalues --    5.19518   5.20285   5.20627   5.22410   5.23441
 Alpha virt. eigenvalues --    5.23990   5.24550   5.26613   5.27030   5.28325
 Alpha virt. eigenvalues --    5.29326   5.30535   5.31541   5.32349   5.32907
 Alpha virt. eigenvalues --    5.34304   5.36245   5.37113   5.38882   5.40299
 Alpha virt. eigenvalues --    5.44289   5.46158   5.49096   5.52297   5.55941
 Alpha virt. eigenvalues --    5.57952   5.60861   5.60964   5.64379   5.71123
 Alpha virt. eigenvalues --    5.72460   5.74511   5.77509   5.78334   5.78596
 Alpha virt. eigenvalues --    5.79924   5.79992   5.82317   5.83477   5.85419
 Alpha virt. eigenvalues --    5.87526   5.88989   5.89736   5.96434   5.96665
 Alpha virt. eigenvalues --    5.98745   6.01153   6.02218   6.06906   6.08558
 Alpha virt. eigenvalues --    6.22954   6.26331   6.34489   6.39929   6.49167
 Alpha virt. eigenvalues --    6.51515   6.53562   6.57056   6.67548   6.68019
 Alpha virt. eigenvalues --    6.87894   6.89209   6.92408   6.96803   7.09517
 Alpha virt. eigenvalues --    7.14039   7.16232   7.17747   9.46131   9.91160
 Alpha virt. eigenvalues --   11.62078  12.20275  12.41050  12.66460  13.02278
 Alpha virt. eigenvalues --   13.34577  13.50071  13.59375  13.65884  13.74641
 Alpha virt. eigenvalues --   13.96905
          Condensed to atoms (all electrons):
               1          2          3          4          5          6
     1  C    4.674749   0.211236  -0.049873  -0.004807   0.000131  -0.003641
     2  C    0.211236   5.407060   0.417410   0.007375  -0.000839   0.000440
     3  H   -0.049873   0.417410   0.447914  -0.000025   0.000037   0.000968
     4  C   -0.004807   0.007375  -0.000025   5.237448   0.408290   0.380615
     5  H    0.000131  -0.000839   0.000037   0.408290   0.514398  -0.010741
     6  H   -0.003641   0.000440   0.000968   0.380615  -0.010741   0.488601
     7  H    0.000087  -0.005656  -0.000187   0.398290  -0.023033  -0.028423
     8  O    0.712100  -0.097370   0.001804  -0.011461   0.000211   0.019392
     9  N   -0.058004   0.232224  -0.034860  -0.005970   0.000048   0.002699
    10  H   -0.004794  -0.026660   0.004406   0.000083   0.000172   0.002409
    11  N    0.360112  -0.114215   0.001826   0.000362   0.000090  -0.000126
    12  H   -0.023839   0.007234  -0.000344   0.000104  -0.000009  -0.000120
    13  C   -0.063203   0.009864  -0.000947   0.000034  -0.000024  -0.000209
    14  H   -0.000485   0.001984   0.000051  -0.000258  -0.000024   0.000981
    15  H   -0.006362  -0.000721  -0.000192   0.000090   0.000001  -0.000217
    16  H    0.007478   0.000577  -0.000081  -0.000003  -0.000002  -0.000010
    17  C    0.001595  -0.061244  -0.001086  -0.000326  -0.000001   0.000409
    18  C   -0.003490   0.014677   0.002516  -0.000018  -0.000001   0.000137
    19  H    0.000431   0.000058  -0.000544  -0.000017   0.000001  -0.000122
    20  H   -0.000054  -0.000594   0.000099   0.000000   0.000000   0.000010
    21  H    0.000773  -0.000891  -0.000152   0.000013   0.000000  -0.000030
    22  O   -0.007075   0.013771   0.024824  -0.000003   0.000000  -0.000018
    23  C   -0.004096  -0.016785   0.004401   0.250679  -0.035854  -0.022274
    24  H    0.002941  -0.012947  -0.001159  -0.048112  -0.005458  -0.009258
    25  C   -0.000414   0.007893  -0.000026  -0.073445  -0.008558   0.006986
    26  H   -0.000113   0.000147  -0.000013  -0.007774  -0.000593   0.000204
    27  H   -0.000031   0.000246  -0.000027   0.008227  -0.000066  -0.000304
    28  H    0.000018  -0.000441   0.000015  -0.006402   0.004834  -0.000048
    29  C   -0.040008   0.233286  -0.030713  -0.052172   0.008097  -0.007184
    30  H    0.005574  -0.027916  -0.008406   0.007320  -0.000360  -0.000786
    31  H    0.006628  -0.050815  -0.006234  -0.006421  -0.000016  -0.001102
               7          8          9         10         11         12
     1  C    0.000087   0.712100  -0.058004  -0.004794   0.360112  -0.023839
     2  C   -0.005656  -0.097370   0.232224  -0.026660  -0.114215   0.007234
     3  H   -0.000187   0.001804  -0.034860   0.004406   0.001826  -0.000344
     4  C    0.398290  -0.011461  -0.005970   0.000083   0.000362   0.000104
     5  H   -0.023033   0.000211   0.000048   0.000172   0.000090  -0.000009
     6  H   -0.028423   0.019392   0.002699   0.002409  -0.000126  -0.000120
     7  H    0.540377  -0.001681   0.000396   0.000050   0.003919   0.000123
     8  O   -0.001681   7.847894   0.002997   0.002685  -0.119577   0.004897
     9  N    0.000396   0.002997   6.569665   0.385827   0.007244   0.000543
    10  H    0.000050   0.002685   0.385827   0.490673   0.000424  -0.000026
    11  N    0.003919  -0.119577   0.007244   0.000424   6.442410   0.382892
    12  H    0.000123   0.004897   0.000543  -0.000026   0.382892   0.528880
    13  C    0.000172   0.004056  -0.000263  -0.000018   0.298517  -0.032604
    14  H   -0.000735   0.006091  -0.000031  -0.000022  -0.055325   0.004851
    15  H    0.000117   0.004426  -0.000046   0.000006  -0.042900   0.000859
    16  H   -0.000038   0.001388   0.000010  -0.000001  -0.027223  -0.008060
    17  C   -0.000003   0.013307   0.326216  -0.018696  -0.000663  -0.000132
    18  C    0.000000  -0.000753  -0.072489  -0.000615  -0.000059  -0.000002
    19  H    0.000000  -0.000149   0.014584  -0.002368   0.000002   0.000001
    20  H    0.000000   0.000060   0.001909   0.000949   0.000004   0.000000
    21  H    0.000000   0.000855  -0.002551  -0.000750   0.000004  -0.000002
    22  O   -0.000001  -0.002512  -0.137553   0.003951  -0.001606  -0.000135
    23  C   -0.049236   0.000654  -0.006905   0.008558  -0.004552   0.000661
    24  H    0.007942  -0.000288   0.005170  -0.002749  -0.000349   0.000000
    25  C   -0.007782  -0.000023  -0.000193   0.000413  -0.000095   0.000047
    26  H    0.003449   0.000007  -0.000023  -0.000036  -0.000155  -0.000005
    27  H   -0.000144   0.000000  -0.000018  -0.000029  -0.000004   0.000007
    28  H   -0.000520   0.000001   0.000015   0.000048   0.000001  -0.000001
    29  C    0.001282   0.001728  -0.036044  -0.009747   0.009225  -0.000554
    30  H    0.000306  -0.000346  -0.000439   0.000076   0.000284  -0.000348
    31  H    0.003253  -0.000286   0.004818  -0.000116   0.001350   0.002845
              13         14         15         16         17         18
     1  C   -0.063203  -0.000485  -0.006362   0.007478   0.001595  -0.003490
     2  C    0.009864   0.001984  -0.000721   0.000577  -0.061244   0.014677
     3  H   -0.000947   0.000051  -0.000192  -0.000081  -0.001086   0.002516
     4  C    0.000034  -0.000258   0.000090  -0.000003  -0.000326  -0.000018
     5  H   -0.000024  -0.000024   0.000001  -0.000002  -0.000001  -0.000001
     6  H   -0.000209   0.000981  -0.000217  -0.000010   0.000409   0.000137
     7  H    0.000172  -0.000735   0.000117  -0.000038  -0.000003   0.000000
     8  O    0.004056   0.006091   0.004426   0.001388   0.013307  -0.000753
     9  N   -0.000263  -0.000031  -0.000046   0.000010   0.326216  -0.072489
    10  H   -0.000018  -0.000022   0.000006  -0.000001  -0.018696  -0.000615
    11  N    0.298517  -0.055325  -0.042900  -0.027223  -0.000663  -0.000059
    12  H   -0.032604   0.004851   0.000859  -0.008060  -0.000132  -0.000002
    13  C    4.768188   0.392075   0.404716   0.394096  -0.000143  -0.000004
    14  H    0.392075   0.620833  -0.055260  -0.027048  -0.000008   0.000000
    15  H    0.404716  -0.055260   0.602191  -0.027801   0.000050   0.000000
    16  H    0.394096  -0.027048  -0.027801   0.600278  -0.000005   0.000000
    17  C   -0.000143  -0.000008   0.000050  -0.000005   4.527988   0.282674
    18  C   -0.000004   0.000000   0.000000   0.000000   0.282674   5.008525
    19  H    0.000001   0.000000   0.000000   0.000000  -0.054276   0.390948
    20  H    0.000000   0.000000   0.000000   0.000000  -0.023548   0.384488
    21  H    0.000002   0.000000   0.000001   0.000000  -0.026013   0.387285
    22  O   -0.000110   0.000007   0.000023  -0.000002   0.723954  -0.071788
    23  C    0.000136   0.000305  -0.000041   0.000008  -0.000640  -0.000165
    24  H    0.000017   0.000013  -0.000001   0.000000   0.000541  -0.000037
    25  C   -0.000002   0.000001   0.000000   0.000000   0.000021   0.000003
    26  H    0.000005   0.000013  -0.000001   0.000002   0.000000   0.000000
    27  H    0.000000   0.000000   0.000000   0.000000   0.000005   0.000001
    28  H    0.000000   0.000000   0.000000   0.000000  -0.000002   0.000000
    29  C   -0.000611  -0.000453   0.000086  -0.000074   0.007910   0.000348
    30  H    0.000059  -0.000017   0.000011   0.000003   0.000094  -0.000031
    31  H    0.000228  -0.000287   0.000121   0.000012  -0.000078   0.000029
              19         20         21         22         23         24
     1  C    0.000431  -0.000054   0.000773  -0.007075  -0.004096   0.002941
     2  C    0.000058  -0.000594  -0.000891   0.013771  -0.016785  -0.012947
     3  H   -0.000544   0.000099  -0.000152   0.024824   0.004401  -0.001159
     4  C   -0.000017   0.000000   0.000013  -0.000003   0.250679  -0.048112
     5  H    0.000001   0.000000   0.000000   0.000000  -0.035854  -0.005458
     6  H   -0.000122   0.000010  -0.000030  -0.000018  -0.022274  -0.009258
     7  H    0.000000   0.000000   0.000000  -0.000001  -0.049236   0.007942
     8  O   -0.000149   0.000060   0.000855  -0.002512   0.000654  -0.000288
     9  N    0.014584   0.001909  -0.002551  -0.137553  -0.006905   0.005170
    10  H   -0.002368   0.000949  -0.000750   0.003951   0.008558  -0.002749
    11  N    0.000002   0.000004   0.000004  -0.001606  -0.004552  -0.000349
    12  H    0.000001   0.000000  -0.000002  -0.000135   0.000661   0.000000
    13  C    0.000001   0.000000   0.000002  -0.000110   0.000136   0.000017
    14  H    0.000000   0.000000   0.000000   0.000007   0.000305   0.000013
    15  H    0.000000   0.000000   0.000001   0.000023  -0.000041  -0.000001
    16  H    0.000000   0.000000   0.000000  -0.000002   0.000008   0.000000
    17  C   -0.054276  -0.023548  -0.026013   0.723954  -0.000640   0.000541
    18  C    0.390948   0.384488   0.387285  -0.071788  -0.000165  -0.000037
    19  H    0.607964  -0.029443  -0.024255   0.004649   0.000122   0.000354
    20  H   -0.029443   0.569730  -0.022944   0.003450   0.000020  -0.000053
    21  H   -0.024255  -0.022944   0.562476  -0.000023  -0.000039   0.000026
    22  O    0.004649   0.003450  -0.000023   7.848735  -0.000034   0.000011
    23  C    0.000122   0.000020  -0.000039  -0.000034   5.294085   0.415469
    24  H    0.000354  -0.000053   0.000026   0.000011   0.415469   0.542157
    25  C   -0.000007   0.000000   0.000000   0.000002   0.292834  -0.031814
    26  H    0.000000   0.000000   0.000000   0.000000  -0.040074   0.007639
    27  H    0.000000   0.000000   0.000000   0.000000  -0.036461  -0.005792
    28  H    0.000000   0.000000   0.000000   0.000000  -0.034428  -0.006225
    29  C   -0.000217  -0.000017   0.000044   0.001366   0.233418  -0.037578
    30  H    0.000030  -0.000016   0.000009  -0.000042  -0.047737  -0.002750
    31  H    0.000003  -0.000004   0.000001   0.000043  -0.038461   0.007599
              25         26         27         28         29         30
     1  C   -0.000414  -0.000113  -0.000031   0.000018  -0.040008   0.005574
     2  C    0.007893   0.000147   0.000246  -0.000441   0.233286  -0.027916
     3  H   -0.000026  -0.000013  -0.000027   0.000015  -0.030713  -0.008406
     4  C   -0.073445  -0.007774   0.008227  -0.006402  -0.052172   0.007320
     5  H   -0.008558  -0.000593  -0.000066   0.004834   0.008097  -0.000360
     6  H    0.006986   0.000204  -0.000304  -0.000048  -0.007184  -0.000786
     7  H   -0.007782   0.003449  -0.000144  -0.000520   0.001282   0.000306
     8  O   -0.000023   0.000007   0.000000   0.000001   0.001728  -0.000346
     9  N   -0.000193  -0.000023  -0.000018   0.000015  -0.036044  -0.000439
    10  H    0.000413  -0.000036  -0.000029   0.000048  -0.009747   0.000076
    11  N   -0.000095  -0.000155  -0.000004   0.000001   0.009225   0.000284
    12  H    0.000047  -0.000005   0.000007  -0.000001  -0.000554  -0.000348
    13  C   -0.000002   0.000005   0.000000   0.000000  -0.000611   0.000059
    14  H    0.000001   0.000013   0.000000   0.000000  -0.000453  -0.000017
    15  H    0.000000  -0.000001   0.000000   0.000000   0.000086   0.000011
    16  H    0.000000   0.000002   0.000000   0.000000  -0.000074   0.000003
    17  C    0.000021   0.000000   0.000005  -0.000002   0.007910   0.000094
    18  C    0.000003   0.000000   0.000001   0.000000   0.000348  -0.000031
    19  H   -0.000007   0.000000   0.000000   0.000000  -0.000217   0.000030
    20  H    0.000000   0.000000   0.000000   0.000000  -0.000017  -0.000016
    21  H    0.000000   0.000000   0.000000   0.000000   0.000044   0.000009
    22  O    0.000002   0.000000   0.000000   0.000000   0.001366  -0.000042
    23  C    0.292834  -0.040074  -0.036461  -0.034428   0.233418  -0.047737
    24  H   -0.031814   0.007639  -0.005792  -0.006225  -0.037578  -0.002750
    25  C    5.100484   0.408744   0.403695   0.405870  -0.074176  -0.007246
    26  H    0.408744   0.547925  -0.029428  -0.027780  -0.011862  -0.000574
    27  H    0.403695  -0.029428   0.542859  -0.017679  -0.003794   0.004890
    28  H    0.405870  -0.027780  -0.017679   0.534986   0.009661  -0.000131
    29  C   -0.074176  -0.011862  -0.003794   0.009661   5.362224   0.419877
    30  H   -0.007246  -0.000574   0.004890  -0.000131   0.419877   0.475309
    31  H   -0.003411   0.003658  -0.001235   0.000227   0.409095  -0.009735
              31
     1  C    0.006628
     2  C   -0.050815
     3  H   -0.006234
     4  C   -0.006421
     5  H   -0.000016
     6  H   -0.001102
     7  H    0.003253
     8  O   -0.000286
     9  N    0.004818
    10  H   -0.000116
    11  N    0.001350
    12  H    0.002845
    13  C    0.000228
    14  H   -0.000287
    15  H    0.000121
    16  H    0.000012
    17  C   -0.000078
    18  C    0.000029
    19  H    0.000003
    20  H   -0.000004
    21  H    0.000001
    22  O    0.000043
    23  C   -0.038461
    24  H    0.007599
    25  C   -0.003411
    26  H    0.003658
    27  H   -0.001235
    28  H    0.000227
    29  C    0.409095
    30  H   -0.009735
    31  H    0.486242
 Mulliken charges:
               1
     1  C    0.286436
     2  C   -0.148390
     3  H    0.228597
     4  C   -0.481715
     5  H    0.149267
     6  H    0.180762
     7  H    0.157674
     8  O   -0.390107
     9  N   -0.198976
    10  H    0.165899
    11  N   -0.141815
    12  H    0.132235
    13  C   -0.174026
    14  H    0.112747
    15  H    0.120844
    16  H    0.086495
    17  C    0.302099
    18  C   -0.322177
    19  H    0.092251
    20  H    0.115953
    21  H    0.126163
    22  O   -0.403884
    23  C   -0.163568
    24  H    0.174691
    25  C   -0.419800
    26  H    0.146638
    27  H    0.135082
    28  H    0.137980
    29  C   -0.392442
    30  H    0.193035
    31  H    0.192050
 Sum of Mulliken charges =   0.00000
 Mulliken charges with hydrogens summed into heavy atoms:
               1
     1  C    0.286436
     2  C    0.080206
     4  C    0.005988
     8  O   -0.390107
     9  N   -0.033077
    11  N   -0.009579
    13  C    0.146060
    17  C    0.302099
    18  C    0.012189
    22  O   -0.403884
    23  C    0.011124
    25  C   -0.000099
    29  C   -0.007356
 Electronic spatial extent (au):  <R**2>=           2913.9010
 Charge=              0.0000 electrons
 Dipole moment (field-independent basis, Debye):
    X=             -4.3063    Y=             -1.4430    Z=             -0.9325  Tot=              4.6364
 Quadrupole moment (field-independent basis, Debye-Ang):
   XX=            -86.4918   YY=            -70.7480   ZZ=            -81.6478
   XY=             -8.9001   XZ=              5.9465   YZ=             -5.8157
 Traceless Quadrupole moment (field-independent basis, Debye-Ang):
   XX=             -6.8626   YY=              8.8812   ZZ=             -2.0186
   XY=             -8.9001   XZ=              5.9465   YZ=             -5.8157
 Octapole moment (field-independent basis, Debye-Ang**2):
  XXX=             -4.9245  YYY=             32.7760  ZZZ=             -6.9732  XYY=             -2.2604
  XXY=            -12.1707  XXZ=             18.7715  XZZ=             -3.5961  YZZ=              0.6806
  YYZ=             -4.1284  XYZ=              1.6994
 Hexadecapole moment (field-independent basis, Debye-Ang**3):
 XXXX=          -2073.0788 YYYY=          -1346.0333 ZZZZ=           -403.6507 XXXY=            -68.3757
 XXXZ=             55.1595 YYYX=            -39.7602 YYYZ=            -15.1273 ZZZX=              2.9632
 ZZZY=            -11.9541 XXYY=           -551.8976 XXZZ=           -409.2295 YYZZ=           -304.5703
 XXYZ=             -6.4820 YYXZ=              2.1756 ZZXY=            -11.2086
 N-N= 8.745796270976D+02 E-N=-3.178800388091D+03  KE= 6.091226213189D+02
 Calculating spin-rotation constants.
 Leave Link  601 at Wed Jun 18 20:28:46 2014, MaxMem=  4294967296 cpu:        69.5
 (Enter /home/ztw1e12/g09/l9999.exe)

 Test job not archived.
 1\1\GINC-GREEN0599\SP\RM06\Gen\C9H18N2O2\ROOT\18-Jun-2014\0\\#P Geom=A
 llCheck Guess=TCheck SCRF=Check GenChk RM06/ChkBas NMR=ReadFC IOp(3/6=
 22)\\NMR spin-spin scan\\0,1\C,0,0.589306,0.865781,0.543467\C,0,0.1585
 31,0.151691,-0.739872\H,0,0.595048,0.738762,-1.552496\C,0,-2.043086,-0
 .657361,1.343361\H,0,-2.721724,-1.322474,1.881426\H,0,-1.032618,-0.865
 903,1.696398\H,0,-2.297938,0.368805,1.628355\O,0,1.190385,0.297471,1.4
 50702\N,0,0.733814,-1.168137,-0.811641\H,0,0.213659,-1.93744,-0.417595
 \N,0,0.298303,2.169999,0.586958\H,0,-0.18108,2.592781,-0.191452\C,0,0.
 608736,2.977404,1.744626\H,0,0.144316,2.566112,2.64192\H,0,1.685134,3.
 032355,1.910933\H,0,0.229203,3.982146,1.585417\C,0,2.049573,-1.356713,
 -1.034425\C,0,2.551968,-2.752565,-0.864475\H,0,1.754319,-3.485163,-0.7
 62413\H,0,3.184808,-3.013179,-1.711196\H,0,3.173454,-2.783503,0.031684
 \O,0,2.798072,-0.437838,-1.360452\C,0,-2.190302,-0.850327,-0.154189\H,
 0,-1.888033,-1.875768,-0.40063\C,0,-3.644014,-0.693007,-0.560719\H,0,-
 4.00294,0.307683,-0.300682\H,0,-3.778723,-0.826297,-1.636074\H,0,-4.27
 8847,-1.417234,-0.047217\C,0,-1.349453,0.116205,-0.981314\H,0,-1.50098
 3,-0.119131,-2.038346\H,0,-1.743263,1.12814,-0.83972\\Version=EM64L-G0
 9RevD.01\State=1-A\HF=-613.5836457\RMSD=9.490e-09\Dipole=-1.8027713,0.
 1941588,-0.1992723\Quadrupole=-7.7192579,11.5803076,-3.8610497,-2.5857
 559,1.9214994,1.8140639\PG=C01 [X(C9H18N2O2)]\\@


 The impersonal hand of government can
 never replace the helping hand of a neighbor.
                        -- Hubert H. Humphrey
 Job cpu time:       2 days 13 hours 18 minutes 16.0 seconds.
 File lengths (MBytes):  RWF=   2456 Int=      0 D2E=      0 Chk=     48 Scr=      8
 Normal termination of Gaussian 09 at Wed Jun 18 20:28:46 2014.
