 Entering Gaussian System, Link 0=g09
 Input=scan_input_16.gjf
 Output=scan_input_16.log
 Initial command:
 /home/ztw1e12/g09/l1.exe "/home/ztw1e12/leucine_scan/leucine_chi2_scan/Gau-31226.inp" -scrdir="/home/ztw1e12/leucine_scan/leucine_chi2_scan/"
 Default is to use a total of   8 processors:
                                8 via shared-memory
                                1 via Linda
 Entering Link 1 = /home/ztw1e12/g09/l1.exe PID=     31227.
  
 Copyright (c) 1988,1990,1992,1993,1995,1998,2003,2009,2013,
            Gaussian, Inc.  All Rights Reserved.
  
 This is part of the Gaussian(R) 09 program.  It is based on
 the Gaussian(R) 03 system (copyright 2003, Gaussian, Inc.),
 the Gaussian(R) 98 system (copyright 1998, Gaussian, Inc.),
 the Gaussian(R) 94 system (copyright 1995, Gaussian, Inc.),
 the Gaussian 92(TM) system (copyright 1992, Gaussian, Inc.),
 the Gaussian 90(TM) system (copyright 1990, Gaussian, Inc.),
 the Gaussian 88(TM) system (copyright 1988, Gaussian, Inc.),
 the Gaussian 86(TM) system (copyright 1986, Carnegie Mellon
 University), and the Gaussian 82(TM) system (copyright 1983,
 Carnegie Mellon University). Gaussian is a federally registered
 trademark of Gaussian, Inc.
  
 This software contains proprietary and confidential information,
 including trade secrets, belonging to Gaussian, Inc.
  
 This software is provided under written license and may be
 used, copied, transmitted, or stored only in accord with that
 written license.
  
 The following legend is applicable only to US Government
 contracts under FAR:
  
                    RESTRICTED RIGHTS LEGEND
  
 Use, reproduction and disclosure by the US Government is
 subject to restrictions as set forth in subparagraphs (a)
 and (c) of the Commercial Computer Software - Restricted
 Rights clause in FAR 52.227-19.
  
 Gaussian, Inc.
 340 Quinnipiac St., Bldg. 40, Wallingford CT 06492
  
  
 ---------------------------------------------------------------
 Warning -- This program may not be used in any manner that
 competes with the business of Gaussian, Inc. or will provide
 assistance to any competitor of Gaussian, Inc.  The licensee
 of this program is prohibited from giving any competitor of
 Gaussian, Inc. access to this program.  By using this program,
 the user acknowledges that Gaussian, Inc. is engaged in the
 business of creating and licensing software in the field of
 computational chemistry and represents and warrants to the
 licensee that it is not a competitor of Gaussian, Inc. and that
 it will not use this program in any manner prohibited above.
 ---------------------------------------------------------------
  

 Cite this work as:
 Gaussian 09, Revision D.01,
 M. J. Frisch, G. W. Trucks, H. B. Schlegel, G. E. Scuseria, 
 M. A. Robb, J. R. Cheeseman, G. Scalmani, V. Barone, B. Mennucci, 
 G. A. Petersson, H. Nakatsuji, M. Caricato, X. Li, H. P. Hratchian, 
 A. F. Izmaylov, J. Bloino, G. Zheng, J. L. Sonnenberg, M. Hada, 
 M. Ehara, K. Toyota, R. Fukuda, J. Hasegawa, M. Ishida, T. Nakajima, 
 Y. Honda, O. Kitao, H. Nakai, T. Vreven, J. A. Montgomery, Jr., 
 J. E. Peralta, F. Ogliaro, M. Bearpark, J. J. Heyd, E. Brothers, 
 K. N. Kudin, V. N. Staroverov, T. Keith, R. Kobayashi, J. Normand, 
 K. Raghavachari, A. Rendell, J. C. Burant, S. S. Iyengar, J. Tomasi, 
 M. Cossi, N. Rega, J. M. Millam, M. Klene, J. E. Knox, J. B. Cross, 
 V. Bakken, C. Adamo, J. Jaramillo, R. Gomperts, R. E. Stratmann, 
 O. Yazyev, A. J. Austin, R. Cammi, C. Pomelli, J. W. Ochterski, 
 R. L. Martin, K. Morokuma, V. G. Zakrzewski, G. A. Voth, 
 P. Salvador, J. J. Dannenberg, S. Dapprich, A. D. Daniels, 
 O. Farkas, J. B. Foresman, J. V. Ortiz, J. Cioslowski, 
 and D. J. Fox, Gaussian, Inc., Wallingford CT, 2013.
 
 ******************************************
 Gaussian 09:  EM64L-G09RevD.01 24-Apr-2013
                18-Jun-2014 
 ******************************************
 %Mem=32GB
 %NProcShared=16
 Will use up to   16 processors via shared memory.
 Default route:  MaxDisk=100GB
 ----------------------------------------------------------------------
 #p nmr=(giao,mixed,spinspin) m06/cc-pvtz scf=tight integral=(grid=ultr
 afine)
 ----------------------------------------------------------------------
 1/38=1/1;
 2/12=2,17=6,18=5,40=1/2;
 3/5=16,6=1,10=1100000,11=2,16=1,25=1,30=1,74=-54,75=-5/1,2,8,3;
 4//1;
 5/5=2,32=2,38=5/2;
 8/6=1,10=90,11=11/1;
 10/13=100,45=16,47=3/2;
 6/7=2,8=2,9=2,10=2,28=1/1;
 99/9=1/99;
 Leave Link    1 at Wed Jun 18 02:25:43 2014, MaxMem=  4294967296 cpu:         5.1
 (Enter /home/ztw1e12/g09/l101.exe)
 ------------------
 NMR spin-spin scan
 ------------------
 Symbolic Z-matrix:
 Charge =  0 Multiplicity = 1
 C                     0.23802   0.8914    0.4066 
 C                     0.0897    0.01817  -0.83586 
 H                     0.55463   0.57786  -1.65375 
 C                    -1.87245  -1.82619   0.69981 
 H                    -2.69119  -2.18548   1.32676 
 H                    -1.46134  -2.70276   0.19215 
 H                    -1.10898  -1.4153    1.36105 
 O                     0.47455   0.44151   1.52393 
 N                     0.81133  -1.22324  -0.70447 
 H                     0.30257  -2.08795  -0.61604 
 N                     0.08034   2.20068   0.17958 
 H                    -0.14613   2.508    -0.75305 
 C                     0.04645   3.1575    1.26122 
 H                    -0.75757   2.93153   1.96438 
 H                     0.98797   3.16086   1.81061 
 H                    -0.11874   4.14829   0.8491 
 C                     2.15174  -1.24376  -0.61406 
 C                     2.79038  -2.5857   -0.46822 
 H                     2.07415  -3.40447  -0.46725 
 H                     3.49903  -2.72672  -1.28402 
 H                     3.35756  -2.60397   0.46226 
 O                     2.82097  -0.21175  -0.66004 
 C                    -2.39709  -0.77962  -0.2686 
 H                    -3.16398  -1.24719  -0.89273 
 C                    -3.07277   0.32312   0.53685 
 H                    -2.36306   0.80882   1.21465 
 H                    -3.49645   1.09322  -0.11105 
 H                    -3.87921  -0.08078   1.15266 
 C                    -1.37106  -0.18014  -1.24514 
 H                    -1.32923  -0.81007  -2.13921 
 H                    -1.74451   0.78742  -1.58779 
 
 NAtoms=     31 NQM=       31 NQMF=       0 NMMI=      0 NMMIF=      0
                NMic=       0 NMicF=      0.
                    Isotopes and Nuclear Properties:
 (Nuclear quadrupole moments (NQMom) in fm**2, nuclear magnetic moments (NMagM)
  in nuclear magnetons)

  Atom         1           2           3           4           5           6           7           8           9          10
 IAtWgt=          12          12           1          12           1           1           1          16          14           1
 AtmWgt=  12.0000000  12.0000000   1.0078250  12.0000000   1.0078250   1.0078250   1.0078250  15.9949146  14.0030740   1.0078250
 NucSpn=           0           0           1           0           1           1           1           0           2           1
 AtZEff=   0.0000000   0.0000000   0.0000000   0.0000000   0.0000000   0.0000000   0.0000000   0.0000000   0.0000000   0.0000000
 NQMom=    0.0000000   0.0000000   0.0000000   0.0000000   0.0000000   0.0000000   0.0000000   0.0000000   2.0440000   0.0000000
 NMagM=    0.0000000   0.0000000   2.7928460   0.0000000   2.7928460   2.7928460   2.7928460   0.0000000   0.4037610   2.7928460
 AtZNuc=   6.0000000   6.0000000   1.0000000   6.0000000   1.0000000   1.0000000   1.0000000   8.0000000   7.0000000   1.0000000

  Atom        11          12          13          14          15          16          17          18          19          20
 IAtWgt=          14           1          12           1           1           1          12          12           1           1
 AtmWgt=  14.0030740   1.0078250  12.0000000   1.0078250   1.0078250   1.0078250  12.0000000  12.0000000   1.0078250   1.0078250
 NucSpn=           2           1           0           1           1           1           0           0           1           1
 AtZEff=   0.0000000   0.0000000   0.0000000   0.0000000   0.0000000   0.0000000   0.0000000   0.0000000   0.0000000   0.0000000
 NQMom=    2.0440000   0.0000000   0.0000000   0.0000000   0.0000000   0.0000000   0.0000000   0.0000000   0.0000000   0.0000000
 NMagM=    0.4037610   2.7928460   0.0000000   2.7928460   2.7928460   2.7928460   0.0000000   0.0000000   2.7928460   2.7928460
 AtZNuc=   7.0000000   1.0000000   6.0000000   1.0000000   1.0000000   1.0000000   6.0000000   6.0000000   1.0000000   1.0000000

  Atom        21          22          23          24          25          26          27          28          29          30
 IAtWgt=           1          16          12           1          12           1           1           1          12           1
 AtmWgt=   1.0078250  15.9949146  12.0000000   1.0078250  12.0000000   1.0078250   1.0078250   1.0078250  12.0000000   1.0078250
 NucSpn=           1           0           0           1           0           1           1           1           0           1
 AtZEff=   0.0000000   0.0000000   0.0000000   0.0000000   0.0000000   0.0000000   0.0000000   0.0000000   0.0000000   0.0000000
 NQMom=    0.0000000   0.0000000   0.0000000   0.0000000   0.0000000   0.0000000   0.0000000   0.0000000   0.0000000   0.0000000
 NMagM=    2.7928460   0.0000000   0.0000000   2.7928460   0.0000000   2.7928460   2.7928460   2.7928460   0.0000000   2.7928460
 AtZNuc=   1.0000000   8.0000000   6.0000000   1.0000000   6.0000000   1.0000000   1.0000000   1.0000000   6.0000000   1.0000000

  Atom        31
 IAtWgt=           1
 AtmWgt=   1.0078250
 NucSpn=           1
 AtZEff=   0.0000000
 NQMom=    0.0000000
 NMagM=    2.7928460
 AtZNuc=   1.0000000
 Leave Link  101 at Wed Jun 18 02:25:43 2014, MaxMem=  4294967296 cpu:         1.5
 (Enter /home/ztw1e12/g09/l202.exe)
                          Input orientation:                          
 ---------------------------------------------------------------------
 Center     Atomic      Atomic             Coordinates (Angstroms)
 Number     Number       Type             X           Y           Z
 ---------------------------------------------------------------------
      1          6           0        0.238016    0.891404    0.406604
      2          6           0        0.089702    0.018172   -0.835855
      3          1           0        0.554633    0.577860   -1.653749
      4          6           0       -1.872448   -1.826189    0.699809
      5          1           0       -2.691193   -2.185475    1.326761
      6          1           0       -1.461337   -2.702762    0.192147
      7          1           0       -1.108979   -1.415304    1.361047
      8          8           0        0.474548    0.441508    1.523931
      9          7           0        0.811325   -1.223244   -0.704466
     10          1           0        0.302567   -2.087951   -0.616044
     11          7           0        0.080344    2.200678    0.179576
     12          1           0       -0.146129    2.508004   -0.753052
     13          6           0        0.046452    3.157500    1.261217
     14          1           0       -0.757568    2.931534    1.964379
     15          1           0        0.987974    3.160859    1.810609
     16          1           0       -0.118736    4.148288    0.849098
     17          6           0        2.151739   -1.243755   -0.614064
     18          6           0        2.790383   -2.585701   -0.468217
     19          1           0        2.074149   -3.404474   -0.467252
     20          1           0        3.499028   -2.726722   -1.284020
     21          1           0        3.357558   -2.603969    0.462258
     22          8           0        2.820971   -0.211749   -0.660036
     23          6           0       -2.397094   -0.779622   -0.268595
     24          1           0       -3.163984   -1.247191   -0.892726
     25          6           0       -3.072771    0.323120    0.536852
     26          1           0       -2.363062    0.808822    1.214654
     27          1           0       -3.496452    1.093224   -0.111051
     28          1           0       -3.879211   -0.080779    1.152661
     29          6           0       -1.371062   -0.180138   -1.245138
     30          1           0       -1.329232   -0.810067   -2.139206
     31          1           0       -1.744513    0.787415   -1.587791
 ---------------------------------------------------------------------
                    Distance matrix (angstroms):
                    1          2          3          4          5
     1  C    0.000000
     2  C    1.525856   0.000000
     3  H    2.107987   1.094697   0.000000
     4  C    3.453308   3.099994   4.148422   0.000000
     5  H    4.346739   4.155279   5.201427   1.092016   0.000000
     6  H    3.981435   3.296360   4.270123   1.093212   1.751422
     7  H    2.836593   2.884106   3.978606   1.090389   1.760040
     8  O    1.227507   2.428149   3.181612   3.366009   4.118474
     9  N    2.456603   1.441914   2.052073   3.088393   4.161659
    10  H    3.150640   2.128235   2.871745   2.555519   3.570238
    11  N    1.338133   2.407181   2.493906   4.505518   5.313736
    12  H    2.026269   2.502346   2.242271   4.886329   5.729897
    13  C    2.429455   3.775574   3.925534   5.369778   6.003864
    14  H    2.753177   4.128784   4.511375   5.047576   5.507199
    15  H    2.772020   4.205609   4.342976   5.855471   6.507969
    16  H    3.306110   4.465464   4.411987   6.228336   6.852901
    17  C    3.043518   2.427684   2.636280   4.273122   5.301663
    18  C    4.401153   3.769481   4.051195   4.866532   5.781851
    19  H    4.752849   3.973462   4.424442   4.407793   5.235735
    20  H    5.155894   4.399863   4.441444   5.796490   6.740027
    21  H    4.685325   4.386297   4.738978   5.292857   6.124532
    22  O    3.004384   2.746563   2.597544   5.146239   6.182791
    23  C    3.192495   2.672529   3.531869   1.519330   2.146643
    24  H    4.223204   3.491540   4.211660   2.130604   2.455612
    25  C    3.361729   3.461005   4.245196   2.467156   2.657557
    26  H    2.724953   3.293291   4.098051   2.729295   3.014308
    27  H    3.775573   3.813342   4.365410   3.437711   3.669552
    28  H    4.295730   4.440299   5.288546   2.697893   2.423106
    29  C    2.542752   1.529925   2.109461   2.596862   3.518350
    30  H    3.439828   2.097159   2.389761   3.063918   3.969838
    31  H    2.814044   2.126379   2.309618   3.475688   4.269531
                    6          7          8          9         10
     6  H    0.000000
     7  H    1.774269   0.000000
     8  O    3.925269   2.445780   0.000000
     9  N    2.856200   2.826800   2.801887   0.000000
    10  H    2.035319   2.520675   3.317715   1.007160   0.000000
    11  N    5.140103   3.985685   2.248859   3.610970   4.367463
    12  H    5.456671   4.559478   3.136925   3.852440   4.619838
    13  C    6.144836   4.717576   2.762046   4.862084   5.577137
    14  H    5.948226   4.402556   2.812887   5.181345   5.742621
    15  H    6.557484   5.053769   2.782204   5.057387   5.823095
    16  H    7.012207   5.674172   3.814132   5.668503   6.419876
    17  C    3.979070   3.816120   3.197515   1.343616   2.032759
    18  C    4.304289   4.463301   4.300667   2.414285   2.541424
    19  H    3.664269   4.175138   4.616829   2.531553   2.212210
    20  H    5.175410   5.472652   5.202860   3.133700   3.327399
    21  H    4.827470   4.708577   4.325948   3.122651   3.280546
    22  O    5.026880   4.580156   3.271415   2.250283   3.140769
    23  C    2.187782   2.172341   3.598699   3.268140   3.020036
    24  H    2.488904   3.054636   4.683039   3.979836   3.577766
    25  C    3.445505   2.749162   3.683994   4.360999   4.305269
    26  H    3.766942   2.557517   2.877951   4.229544   4.341466
    27  H    4.317769   3.762953   4.343586   4.926978   4.980707
    28  H    3.693710   3.081975   4.400664   5.172550   4.964305
    29  C    2.904749   2.895949   3.385331   2.478550   2.614679
    30  H    3.005820   3.559016   4.270671   2.609823   2.572115
    31  H    3.928066   3.735173   3.837538   3.369766   3.660950
                   11         12         13         14         15
    11  N    0.000000
    12  H    1.007737   0.000000
    13  C    1.444508   2.125138   0.000000
    14  H    2.102800   2.817386   1.091763   0.000000
    15  H    2.099049   2.878327   1.090095   1.767244   0.000000
    16  H    2.069076   2.293069   1.085721   1.769872   1.767576
    17  C    4.096909   4.401728   5.226850   5.704864   5.160815
    18  C    5.538355   5.886431   6.595791   6.996096   6.439307
    19  H    5.984261   6.322081   7.082278   7.353669   7.033635
    20  H    6.173231   6.400895   7.281661   7.790158   7.109552
    21  H    5.822772   6.315463   6.693003   7.059208   6.377007
    22  O    3.746437   4.026089   4.768753   5.438173   4.564915
    23  C    3.901377   4.013730   4.879772   4.631079   5.595459
    24  H    4.854204   4.819590   5.860689   5.604965   6.631567
    25  C    3.687140   3.873345   4.276443   3.768530   5.115161
    26  H    2.996478   3.416706   3.365147   2.765069   4.137231
    27  H    3.755581   3.693025   4.323948   3.897214   5.298865
    28  H    4.672260   4.926402   5.090095   4.413340   5.884777
    29  C    3.131242   2.994782   4.408060   4.512192   5.105380
    30  H    4.053177   3.785598   5.403422   5.582633   6.061249
    31  H    2.907061   2.492398   4.116030   4.264882   4.964760
                   16         17         18         19         20
    16  H    0.000000
    17  C    6.030757   0.000000
    18  C    7.452845   1.493304   0.000000
    19  H    7.974066   2.167090   1.087833   0.000000
    20  H    8.056313   2.112633   1.089770   1.776721   0.000000
    21  H    7.604422   2.112499   1.089865   1.775369   1.756294
    22  O    5.470766   1.230862   2.381885   3.284570   2.678471
    23  C    5.542964   4.585483   5.496516   5.188577   6.291784
    24  H    6.435735   5.323023   6.117704   5.680927   6.836509
    25  C    4.843112   5.574514   6.621781   6.433814   7.470318
    26  H    4.040132   5.285897   6.396314   6.345826   7.287492
    27  H    4.654489   6.133234   7.292897   7.168526   8.056338
    28  H    5.667304   6.391102   7.306529   7.008107   8.208340
    29  C    4.968845   3.733586   4.869082   4.782356   5.495851
    30  H    5.914435   3.825089   4.787098   4.594495   5.264694
    31  H    4.458368   4.500508   5.761652   5.780114   6.319506
                   21         22         23         24         25
    21  H    0.000000
    22  O    2.696328   0.000000
    23  C    6.080987   5.263450   0.000000
    24  H    6.797598   6.078320   1.093746   0.000000
    25  C    7.065589   6.037783   1.523589   2.125533   0.000000
    26  H    6.703636   5.606267   2.173555   3.051183   1.094993
    27  H    7.808673   6.474116   2.177375   2.489798   1.091945
    28  H    7.695061   6.942295   2.169106   2.460828   1.092108
    29  C    5.581219   4.232787   1.538102   2.115979   2.514870
    30  H    5.652583   4.446360   2.154168   2.260775   3.389001
    31  H    6.460288   4.764735   2.149824   2.576361   2.548322
                   26         27         28         29         30
    26  H    0.000000
    27  H    1.767187   0.000000
    28  H    1.758960   1.766849   0.000000
    29  C    2.830668   2.724865   3.471329   0.000000
    30  H    3.864969   3.526014   4.227368   1.094494   0.000000
    31  H    2.869975   2.311616   3.580611   1.092262   1.740249
                   31
    31  H    0.000000
 Stoichiometry    C9H18N2O2
 Framework group  C1[X(C9H18N2O2)]
 Deg. of freedom    87
 Full point group                 C1      NOp   1
 Largest Abelian subgroup         C1      NOp   1
 Largest concise Abelian subgroup C1      NOp   1
                         Standard orientation:                         
 ---------------------------------------------------------------------
 Center     Atomic      Atomic             Coordinates (Angstroms)
 Number     Number       Type             X           Y           Z
 ---------------------------------------------------------------------
      1          6           0        0.359790    1.000598   -0.141015
      2          6           0       -0.200309   -0.035043    0.829538
      3          1           0       -0.493293    0.520775    1.725969
      4          6           0        0.886680   -2.308603   -0.975828
      5          1           0        1.537220   -2.918862   -1.605812
      6          1           0        0.004713   -2.916691   -0.757933
      7          1           0        0.578186   -1.443659   -1.563748
      8          8           0        0.174332    0.959388   -1.353731
      9          7           0       -1.389285   -0.664290    0.310404
     10          1           0       -1.360650   -1.632900    0.035912
     11          7           0        1.083657    1.963743    0.441197
     12          1           0        1.229857    1.926248    1.437567
     13          6           0        1.805236    2.943370   -0.337430
     14          1           0        2.524213    2.465870   -1.006020
     15          1           0        1.123825    3.541967   -0.942134
     16          1           0        2.341529    3.603287    0.337616
     17          6           0       -2.516723    0.037609    0.106630
     18          6           0       -3.681290   -0.715949   -0.446444
     19          1           0       -3.472715   -1.771395   -0.607417
     20          1           0       -4.521792   -0.614463    0.239746
     21          1           0       -3.975978   -0.260172   -1.391553
     22          8           0       -2.591012    1.237247    0.371908
     23          6           0        1.638276   -1.894560    0.277980
     24          1           0        1.929836   -2.801472    0.815366
     25          6           0        2.917139   -1.181415   -0.143037
     26          1           0        2.694141   -0.279351   -0.722313
     27          1           0        3.515652   -0.884365    0.720611
     28          1           0        3.533180   -1.824390   -0.775317
     29          6           0        0.855719   -1.041438    1.290673
     30          1           0        0.325972   -1.710166    1.976303
     31          1           0        1.571821   -0.496927    1.910142
 ---------------------------------------------------------------------
 Rotational constants (GHZ):      0.9358408      0.6347427      0.4492019
 Leave Link  202 at Wed Jun 18 02:25:43 2014, MaxMem=  4294967296 cpu:         1.5
 (Enter /home/ztw1e12/g09/l301.exe)
 Standard basis: CC-pVTZ (5D, 7F)
 Converting basis for Fermi contact spin-spin IFCMod=1.
 AO basis functions are being uncontracted.
 Ernie: Thresh=  0.10000D-02 Tol=  0.10000D-05 Strict=F.
 There are  1119 symmetry adapted cartesian basis functions of A   symmetry.
 There are  1036 symmetry adapted basis functions of A   symmetry.
  1036 basis functions,  1119 primitive gaussians,  1119 cartesian basis functions
    51 alpha electrons       51 beta electrons
       nuclear repulsion energy       886.7378672536 Hartrees.
 IExCor= 4235 DFT=T Ex+Corr=M06 ExCW=0 ScaHFX=  0.270000
 ScaDFX=  1.000000  1.000000  1.000000  1.000000 ScalE2=  1.000000  1.000000
 IRadAn= 199590 IRanWt=     -1 IRanGd=            0 ICorTp=0 IEmpDi=  4
 NAtoms=   31 NActive=   31 NUniq=   31 SFac= 1.00D+00 NAtFMM=   60 NAOKFM=F Big=F
 Integral buffers will be    131072 words long.
 Raffenetti 2 integral format.
 Two-electron integral symmetry is turned on.
 Leave Link  301 at Wed Jun 18 02:25:44 2014, MaxMem=  4294967296 cpu:         4.9
 (Enter /home/ztw1e12/g09/l302.exe)
 NPDir=0 NMtPBC=     1 NCelOv=     1 NCel=       1 NClECP=     1 NCelD=      1
         NCelK=      1 NCelE2=     1 NClLst=     1 CellRange=     0.0.
 One-electron integrals computed using PRISM.
 GSVD:  received Info=                   1 from GESDD.
 NBasis=  1036 RedAO= T EigKep=  1.15D-04  NBF=  1036
 NBsUse=   932 1.00D-06 EigRej=  7.17D-15 NBFU=   932
 Precomputing XC quadrature grid using
 IXCGrd= 4 IRadAn=      199590 IRanWt=          -1 IRanGd=           0 AccXCQ= 0.00D+00.
 Generated NRdTot=       0 NPtTot=           0 NUsed=           0 NTot=          32
 NSgBfM=   884   884   884   884   884 MxSgAt=    31 MxSgA2=    31.
 Leave Link  302 at Wed Jun 18 02:25:48 2014, MaxMem=  4294967296 cpu:        63.7
 (Enter /home/ztw1e12/g09/l308.exe)
 Leave Link  308 at Wed Jun 18 02:25:48 2014, MaxMem=  4294967296 cpu:         5.5
 (Enter /home/ztw1e12/g09/l303.exe)
 DipDrv:  MaxL=1.
 Leave Link  303 at Wed Jun 18 02:25:49 2014, MaxMem=  4294967296 cpu:         3.3
 (Enter /home/ztw1e12/g09/l401.exe)
 ExpMin= 1.03D-01 ExpMax= 1.38D+05 ExpMxC= 1.38D+05 IAcc=4 IRadAn=    199590 AccDes= 0.00D+00
 Harris functional with IExCor= 1009 and IRadAn=  199590 diagonalized for initial guess.
 HarFok:  IExCor= 1009 AccDes= 0.00D+00 IRadAn=    199590 IDoV= 1 UseB2=F ITyADJ=14
 ICtDFT=  3500011 ScaDFX=  1.000000  1.000000  1.000000  1.000000
 FoFCou: FMM=F IPFlag=           0 FMFlag=      100000 FMFlg1=           0
         NFxFlg=           0 DoJE=T BraDBF=F KetDBF=T FulRan=T
         wScrn=  0.000000 ICntrl=     500 IOpCl=  0 I1Cent=   200000004 NGrid=           0
         NMat0=    1 NMatS0=      1 NMatT0=    0 NMatD0=    1 NMtDS0=    0 NMtDT0=    0
 Petite list used in FoFCou.
 Harris En= -613.559310739235    
 JPrj=0 DoOrth=F DoCkMO=F.
 Leave Link  401 at Wed Jun 18 02:26:06 2014, MaxMem=  4294967296 cpu:       261.7
 (Enter /home/ztw1e12/g09/l502.exe)
 Closed shell SCF:
 Using DIIS extrapolation, IDIIS=  1040.
 Integral symmetry usage will be decided dynamically.
 IVT=     3801329 IEndB=     3801329 NGot=  4294967296 MDV=  4292435888
 LenX=  4292435888 LenY=  4291182608
 Requested convergence on RMS density matrix=1.00D-08 within 128 cycles.
 Requested convergence on MAX density matrix=1.00D-06.
 Requested convergence on             energy=1.00D-06.
 No special actions if energy rises.
 Fock matrices will be formed incrementally for  20 cycles.
 Integral accuracy reduced to 1.0D-05 until final iterations.

 Cycle   1  Pass 0  IDiag  1:
 FoFJK:  IHMeth= 1 ICntrl=       0 DoSepK=F KAlg= 0 I1Cent=   0 FoldK=F
 IRaf= 490000000 NMat=   1 IRICut=       1 DoRegI=T DoRafI=F ISym2E= 0.
 FoFCou: FMM=F IPFlag=           0 FMFlag=      100000 FMFlg1=           0
         NFxFlg=           0 DoJE=F BraDBF=F KetDBF=F FulRan=T
         wScrn=  0.000000 ICntrl=       0 IOpCl=  0 I1Cent=           0 NGrid=           0
         NMat0=    1 NMatS0=      1 NMatT0=    0 NMatD0=    1 NMtDS0=    0 NMtDT0=    0
 Symmetry not used in FoFCou.
 E= -613.183077330046    
 DIIS: error= 1.26D-01 at cycle   1 NSaved=   1.
 NSaved= 1 IEnMin= 1 EnMin= -613.183077330046     IErMin= 1 ErrMin= 1.26D-01
 ErrMax= 1.26D-01  0.00D+00 EMaxC= 1.00D-01 BMatC= 1.30D+01 BMatP= 1.30D+01
 IDIUse=3 WtCom= 0.00D+00 WtEn= 1.00D+00
 Coeff-Com:  0.100D+01
 Coeff-En:   0.100D+01
 Coeff:      0.100D+01
 Gap=     0.288 Goal=   None    Shift=    0.000
 GapD=    0.288 DampG=1.000 DampE=0.250 DampFc=0.2500 IDamp=-1.
 Damping current iteration by 2.50D-01
 RMSDP=2.09D-03 MaxDP=3.09D-01              OVMax= 2.83D-01

 Cycle   2  Pass 0  IDiag  1:
 RMSU=  5.22D-04    CP:  1.01D+00
 E= -613.339447049560     Delta-E=       -0.156369719514 Rises=F Damp=T
 DIIS: error= 9.65D-02 at cycle   2 NSaved=   2.
 NSaved= 2 IEnMin= 2 EnMin= -613.339447049560     IErMin= 2 ErrMin= 9.65D-02
 ErrMax= 9.65D-02  0.00D+00 EMaxC= 1.00D-01 BMatC= 7.66D+00 BMatP= 1.30D+01
 IDIUse=3 WtCom= 3.55D-02 WtEn= 9.65D-01
 Coeff-Com: -0.279D+01 0.379D+01
 Coeff-En:   0.000D+00 0.100D+01
 Coeff:     -0.991D-01 0.110D+01
 Gap=     0.232 Goal=   None    Shift=    0.000
 RMSDP=5.44D-04 MaxDP=5.12D-02 DE=-1.56D-01 OVMax= 1.39D-01

 Cycle   3  Pass 0  IDiag  1:
 RMSU=  4.41D-04    CP:  1.02D+00  1.61D+00
 E= -613.554129275427     Delta-E=       -0.214682225867 Rises=F Damp=F
 DIIS: error= 1.46D-02 at cycle   3 NSaved=   3.
 NSaved= 3 IEnMin= 3 EnMin= -613.554129275427     IErMin= 3 ErrMin= 1.46D-02
 ErrMax= 1.46D-02  0.00D+00 EMaxC= 1.00D-01 BMatC= 1.89D-01 BMatP= 7.66D+00
 IDIUse=3 WtCom= 8.54D-01 WtEn= 1.46D-01
 Coeff-Com:  0.888D+00-0.123D+01 0.134D+01
 Coeff-En:   0.623D-01 0.000D+00 0.938D+00
 Coeff:      0.768D+00-0.105D+01 0.128D+01
 Gap=     0.252 Goal=   None    Shift=    0.000
 RMSDP=3.74D-04 MaxDP=3.22D-02 DE=-2.15D-01 OVMax= 6.76D-02

 Cycle   4  Pass 0  IDiag  1:
 RMSU=  2.81D-04    CP:  1.02D+00  1.19D+00  7.34D-01
 E= -613.542637514033     Delta-E=        0.011491761394 Rises=F Damp=F
 DIIS: error= 8.71D-03 at cycle   4 NSaved=   4.
 NSaved= 4 IEnMin= 3 EnMin= -613.554129275427     IErMin= 4 ErrMin= 8.71D-03
 ErrMax= 8.71D-03  0.00D+00 EMaxC= 1.00D-01 BMatC= 1.02D-01 BMatP= 1.89D-01
 IDIUse=3 WtCom= 9.13D-01 WtEn= 8.71D-02
 Coeff-Com:  0.578D+00-0.802D+00 0.698D+00 0.527D+00
 Coeff-En:   0.000D+00 0.000D+00 0.546D+00 0.454D+00
 Coeff:      0.527D+00-0.732D+00 0.684D+00 0.521D+00
 Gap=     0.281 Goal=   None    Shift=    0.000
 RMSDP=2.71D-04 MaxDP=1.90D-02 DE= 1.15D-02 OVMax= 7.34D-02

 Cycle   5  Pass 0  IDiag  1:
 RMSU=  7.95D-05    CP:  1.02D+00  1.12D+00  8.55D-01  1.09D-01
 E= -613.615211483017     Delta-E=       -0.072573968984 Rises=F Damp=F
 DIIS: error= 3.27D-03 at cycle   5 NSaved=   5.
 NSaved= 5 IEnMin= 5 EnMin= -613.615211483017     IErMin= 5 ErrMin= 3.27D-03
 ErrMax= 3.27D-03  0.00D+00 EMaxC= 1.00D-01 BMatC= 1.23D-02 BMatP= 1.02D-01
 IDIUse=3 WtCom= 9.67D-01 WtEn= 3.27D-02
 Coeff-Com:  0.644D-01-0.961D-01 0.887D-01 0.256D+00 0.687D+00
 Coeff-En:   0.000D+00 0.000D+00 0.000D+00 0.682D-01 0.932D+00
 Coeff:      0.623D-01-0.930D-01 0.858D-01 0.250D+00 0.695D+00
 Gap=     0.270 Goal=   None    Shift=    0.000
 RMSDP=1.35D-04 MaxDP=1.33D-02 DE=-7.26D-02 OVMax= 2.59D-02

 Cycle   6  Pass 0  IDiag  1:
 RMSU=  6.17D-05    CP:  1.02D+00  1.17D+00  9.38D-01  4.51D-01  3.12D-01
 E= -613.622471981348     Delta-E=       -0.007260498331 Rises=F Damp=F
 DIIS: error= 8.99D-04 at cycle   6 NSaved=   6.
 NSaved= 6 IEnMin= 6 EnMin= -613.622471981348     IErMin= 6 ErrMin= 8.99D-04
 ErrMax= 8.99D-04  0.00D+00 EMaxC= 1.00D-01 BMatC= 8.74D-04 BMatP= 1.23D-02
 IDIUse=3 WtCom= 9.91D-01 WtEn= 8.99D-03
 Coeff-Com:  0.275D-01-0.377D-01 0.383D-02 0.545D-01 0.241D+00 0.711D+00
 Coeff-En:   0.000D+00 0.000D+00 0.000D+00 0.000D+00 0.000D+00 0.100D+01
 Coeff:      0.272D-01-0.374D-01 0.380D-02 0.540D-01 0.239D+00 0.713D+00
 Gap=     0.270 Goal=   None    Shift=    0.000
 RMSDP=2.76D-05 MaxDP=2.79D-03 DE=-7.26D-03 OVMax= 6.38D-03

 Cycle   7  Pass 0  IDiag  1:
 RMSU=  1.99D-05    CP:  1.02D+00  1.15D+00  9.32D-01  4.44D-01  4.82D-01
                    CP:  9.91D-01
 E= -613.622965379178     Delta-E=       -0.000493397830 Rises=F Damp=F
 DIIS: error= 3.50D-04 at cycle   7 NSaved=   7.
 NSaved= 7 IEnMin= 7 EnMin= -613.622965379178     IErMin= 7 ErrMin= 3.50D-04
 ErrMax= 3.50D-04  0.00D+00 EMaxC= 1.00D-01 BMatC= 1.68D-04 BMatP= 8.74D-04
 IDIUse=3 WtCom= 9.96D-01 WtEn= 3.50D-03
 Coeff-Com:  0.200D-01-0.267D-01 0.289D-02 0.139D-01 0.765D-01 0.384D+00
 Coeff-Com:  0.529D+00
 Coeff-En:   0.000D+00 0.000D+00 0.000D+00 0.000D+00 0.000D+00 0.114D+00
 Coeff-En:   0.886D+00
 Coeff:      0.199D-01-0.266D-01 0.288D-02 0.139D-01 0.763D-01 0.383D+00
 Coeff:      0.530D+00
 Gap=     0.269 Goal=   None    Shift=    0.000
 RMSDP=9.34D-06 MaxDP=9.84D-04 DE=-4.93D-04 OVMax= 2.32D-03

 Initial convergence to 1.0D-05 achieved.  Increase integral accuracy.
 Cycle   8  Pass 1  IDiag  1:
 E= -613.623124405034     Delta-E=       -0.000159025856 Rises=F Damp=F
 DIIS: error= 1.27D-04 at cycle   1 NSaved=   1.
 NSaved= 1 IEnMin= 1 EnMin= -613.623124405034     IErMin= 1 ErrMin= 1.27D-04
 ErrMax= 1.27D-04  0.00D+00 EMaxC= 1.00D-01 BMatC= 2.15D-05 BMatP= 2.15D-05
 IDIUse=3 WtCom= 9.99D-01 WtEn= 1.27D-03
 Coeff-Com:  0.100D+01
 Coeff-En:   0.100D+01
 Coeff:      0.100D+01
 Gap=     0.270 Goal=   None    Shift=    0.000
 RMSDP=9.34D-06 MaxDP=9.84D-04 DE=-1.59D-04 OVMax= 2.32D-03

 Cycle   9  Pass 1  IDiag  1:
 RMSU=  2.71D-05    CP:  1.00D+00
 E= -613.623101151655     Delta-E=        0.000023253379 Rises=F Damp=F
 DIIS: error= 2.77D-04 at cycle   2 NSaved=   2.
 NSaved= 2 IEnMin= 1 EnMin= -613.623124405034     IErMin= 1 ErrMin= 1.27D-04
 ErrMax= 2.77D-04  0.00D+00 EMaxC= 1.00D-01 BMatC= 5.18D-05 BMatP= 2.15D-05
 IDIUse=3 WtCom= 3.75D-01 WtEn= 6.25D-01
 Coeff-Com:  0.623D+00 0.377D+00
 Coeff-En:   0.714D+00 0.286D+00
 Coeff:      0.680D+00 0.320D+00
 Gap=     0.269 Goal=   None    Shift=    0.000
 RMSDP=5.06D-06 MaxDP=4.48D-04 DE= 2.33D-05 OVMax= 1.55D-03

 Cycle  10  Pass 1  IDiag  1:
 RMSU=  4.86D-06    CP:  1.00D+00  9.47D-01
 E= -613.623137730056     Delta-E=       -0.000036578401 Rises=F Damp=F
 DIIS: error= 1.52D-05 at cycle   3 NSaved=   3.
 NSaved= 3 IEnMin= 3 EnMin= -613.623137730056     IErMin= 3 ErrMin= 1.52D-05
 ErrMax= 1.52D-05  0.00D+00 EMaxC= 1.00D-01 BMatC= 2.52D-07 BMatP= 2.15D-05
 IDIUse=1 WtCom= 1.00D+00 WtEn= 0.00D+00
 Coeff-Com:  0.747D-01 0.320D-01 0.893D+00
 Coeff:      0.747D-01 0.320D-01 0.893D+00
 Gap=     0.269 Goal=   None    Shift=    0.000
 RMSDP=9.37D-07 MaxDP=8.55D-05 DE=-3.66D-05 OVMax= 1.19D-04

 Cycle  11  Pass 1  IDiag  1:
 RMSU=  8.12D-07    CP:  1.00D+00  9.63D-01  1.05D+00
 E= -613.623137743734     Delta-E=       -0.000000013678 Rises=F Damp=F
 DIIS: error= 1.20D-05 at cycle   4 NSaved=   4.
 NSaved= 4 IEnMin= 4 EnMin= -613.623137743734     IErMin= 4 ErrMin= 1.20D-05
 ErrMax= 1.20D-05  0.00D+00 EMaxC= 1.00D-01 BMatC= 1.55D-07 BMatP= 2.52D-07
 IDIUse=1 WtCom= 1.00D+00 WtEn= 0.00D+00
 Coeff-Com:  0.800D-02-0.860D-03 0.441D+00 0.552D+00
 Coeff:      0.800D-02-0.860D-03 0.441D+00 0.552D+00
 Gap=     0.269 Goal=   None    Shift=    0.000
 RMSDP=3.40D-07 MaxDP=4.29D-05 DE=-1.37D-08 OVMax= 8.74D-05

 Cycle  12  Pass 1  IDiag  1:
 RMSU=  2.55D-07    CP:  1.00D+00  9.64D-01  1.05D+00  7.29D-01
 E= -613.623137851659     Delta-E=       -0.000000107925 Rises=F Damp=F
 DIIS: error= 4.09D-06 at cycle   5 NSaved=   5.
 NSaved= 5 IEnMin= 5 EnMin= -613.623137851659     IErMin= 5 ErrMin= 4.09D-06
 ErrMax= 4.09D-06  0.00D+00 EMaxC= 1.00D-01 BMatC= 1.48D-08 BMatP= 1.55D-07
 IDIUse=1 WtCom= 1.00D+00 WtEn= 0.00D+00
 Coeff-Com: -0.240D-02-0.296D-02 0.151D+00 0.291D+00 0.563D+00
 Coeff:     -0.240D-02-0.296D-02 0.151D+00 0.291D+00 0.563D+00
 Gap=     0.269 Goal=   None    Shift=    0.000
 RMSDP=9.30D-08 MaxDP=1.10D-05 DE=-1.08D-07 OVMax= 2.36D-05

 Cycle  13  Pass 1  IDiag  1:
 RMSU=  7.50D-08    CP:  1.00D+00  9.65D-01  1.05D+00  7.81D-01  8.95D-01
 E= -613.623137862335     Delta-E=       -0.000000010676 Rises=F Damp=F
 DIIS: error= 5.43D-07 at cycle   6 NSaved=   6.
 NSaved= 6 IEnMin= 6 EnMin= -613.623137862335     IErMin= 6 ErrMin= 5.43D-07
 ErrMax= 5.43D-07  0.00D+00 EMaxC= 1.00D-01 BMatC= 4.63D-10 BMatP= 1.48D-08
 IDIUse=1 WtCom= 1.00D+00 WtEn= 0.00D+00
 Coeff-Com: -0.139D-02-0.132D-02 0.367D-01 0.849D-01 0.222D+00 0.659D+00
 Coeff:     -0.139D-02-0.132D-02 0.367D-01 0.849D-01 0.222D+00 0.659D+00
 Gap=     0.269 Goal=   None    Shift=    0.000
 RMSDP=2.81D-08 MaxDP=2.27D-06 DE=-1.07D-08 OVMax= 4.36D-06

 Cycle  14  Pass 1  IDiag  1:
 RMSU=  1.44D-08    CP:  1.00D+00  9.65D-01  1.05D+00  8.00D-01  9.38D-01
                    CP:  8.31D-01
 E= -613.623137862669     Delta-E=       -0.000000000334 Rises=F Damp=F
 DIIS: error= 2.19D-07 at cycle   7 NSaved=   7.
 NSaved= 7 IEnMin= 7 EnMin= -613.623137862669     IErMin= 7 ErrMin= 2.19D-07
 ErrMax= 2.19D-07  0.00D+00 EMaxC= 1.00D-01 BMatC= 6.60D-11 BMatP= 4.63D-10
 IDIUse=1 WtCom= 1.00D+00 WtEn= 0.00D+00
 Coeff-Com: -0.381D-03-0.310D-03 0.135D-02 0.871D-02 0.422D-01 0.296D+00
 Coeff-Com:  0.653D+00
 Coeff:     -0.381D-03-0.310D-03 0.135D-02 0.871D-02 0.422D-01 0.296D+00
 Coeff:      0.653D+00
 Gap=     0.269 Goal=   None    Shift=    0.000
 RMSDP=1.31D-08 MaxDP=1.32D-06 DE=-3.34D-10 OVMax= 2.00D-06

 Cycle  15  Pass 1  IDiag  1:
 RMSU=  8.88D-09    CP:  1.00D+00  9.65D-01  1.05D+00  8.05D-01  9.59D-01
                    CP:  9.03D-01  8.77D-01
 E= -613.623137862708     Delta-E=       -0.000000000040 Rises=F Damp=F
 DIIS: error= 1.42D-07 at cycle   8 NSaved=   8.
 NSaved= 8 IEnMin= 8 EnMin= -613.623137862708     IErMin= 8 ErrMin= 1.42D-07
 ErrMax= 1.42D-07  0.00D+00 EMaxC= 1.00D-01 BMatC= 1.99D-11 BMatP= 6.60D-11
 IDIUse=1 WtCom= 1.00D+00 WtEn= 0.00D+00
 Coeff-Com: -0.322D-04-0.177D-05-0.494D-02-0.702D-02-0.533D-02 0.877D-01
 Coeff-Com:  0.398D+00 0.532D+00
 Coeff:     -0.322D-04-0.177D-05-0.494D-02-0.702D-02-0.533D-02 0.877D-01
 Coeff:      0.398D+00 0.532D+00
 Gap=     0.269 Goal=   None    Shift=    0.000
 RMSDP=4.02D-09 MaxDP=3.62D-07 DE=-3.96D-11 OVMax= 1.09D-06

 SCF Done:  E(RM06) =  -613.623137863     A.U. after   15 cycles
            NFock= 15  Conv=0.40D-08     -V/T= 2.0046
 KE= 6.107911909095D+02 PE=-3.204946787997D+03 EE= 1.093794591971D+03
 Leave Link  502 at Wed Jun 18 02:54:06 2014, MaxMem=  4294967296 cpu:     26823.6
 (Enter /home/ztw1e12/g09/l801.exe)
 DoSCS=F DFT=T ScalE2(SS,OS)=  1.000000  1.000000
 Range of M.O.s used for correlation:     1   932
 NBasis=  1036 NAE=    51 NBE=    51 NFC=     0 NFV=     0
 NROrb=    932 NOA=    51 NOB=    51 NVA=   881 NVB=   881

 **** Warning!!: The largest alpha MO coefficient is  0.13256701D+02

 Leave Link  801 at Wed Jun 18 02:54:06 2014, MaxMem=  4294967296 cpu:         0.4
 (Enter /home/ztw1e12/g09/l1002.exe)
 Minotr:  Closed shell wavefunction.
          IDoAtm=1111111111111111111111111111111
          Direct CPHF calculation.
          Differentiating once with respect to Fermi-contact.
          Electric field/nuclear overlap derivatives assumed to be zero.
          Requested convergence is 1.0D-10 RMS, and 1.0D-09 maximum.
          Secondary convergence is 1.0D-12 RMS, and 1.0D-12 maximum.
          NewPWx=T KeepS1=F KeepF1=F KeepIn=T MapXYZ=F SortEE=F KeepMc=T.
          MDV=    4294966050 using IRadAn=  199590.
 Using stored XC quadrature information.
          Solving linear equations simultaneously, MaxMat=       0.
          There are    31 degrees of freedom in the 1st order CPHF.  IDoFFX=0 NUNeed=    31.
     31 vectors produced by pass  0 Test12= 1.45D-17 3.23D-11 XBig12= 4.16D+01 2.57D+00.
 AX will form    31 AO Fock derivatives at one time.
 FoFJK:  IHMeth= 1 ICntrl=       0 DoSepK=F KAlg= 0 I1Cent=   0 FoldK=F
 IRaf= 510000000 NMat=  31 IRICut=       1 DoRegI=T DoRafI=F ISym2E=-1.
 FoFCou: FMM=F IPFlag=           0 FMFlag=      100000 FMFlg1=           0
         NFxFlg=           0 DoJE=F BraDBF=F KetDBF=F FulRan=T
         wScrn=  0.000000 ICntrl=       0 IOpCl=  0 I1Cent=           0 NGrid=           0
         NMat0=   31 NMatS0=      0 NMatT0=   31 NMatD0=   31 NMtDS0=    0 NMtDT0=    0
 Petite list used in FoFCou.
     31 vectors produced by pass  1 Test12= 1.45D-17 3.23D-11 XBig12= 3.47D-01 1.77D-01.
     31 vectors produced by pass  2 Test12= 1.45D-17 3.23D-11 XBig12= 1.74D-02 5.13D-02.
     31 vectors produced by pass  3 Test12= 1.45D-17 3.23D-11 XBig12= 4.06D-04 6.57D-03.
     31 vectors produced by pass  4 Test12= 1.45D-17 3.23D-11 XBig12= 6.78D-06 9.50D-04.
     31 vectors produced by pass  5 Test12= 1.45D-17 3.23D-11 XBig12= 1.52D-07 1.93D-04.
     31 vectors produced by pass  6 Test12= 1.45D-17 3.23D-11 XBig12= 4.27D-09 2.40D-05.
     31 vectors produced by pass  7 Test12= 1.45D-17 3.23D-11 XBig12= 1.27D-10 4.83D-06.
     31 vectors produced by pass  8 Test12= 1.45D-17 3.23D-11 XBig12= 2.76D-12 4.17D-07.
     31 vectors produced by pass  9 Test12= 1.45D-17 3.23D-11 XBig12= 6.65D-14 9.09D-08.
     31 vectors produced by pass 10 Test12= 1.45D-17 3.23D-11 XBig12= 2.67D-15 9.97D-09.
     30 vectors produced by pass 11 Test12= 1.45D-17 3.23D-11 XBig12= 2.82D-17 7.84D-10.
      7 vectors produced by pass 12 Test12= 1.45D-17 3.23D-11 XBig12= 2.32D-19 5.36D-11.
 InvSVY:  IOpt=1 It=  1 EMax= 7.11D-15
 Solved reduced A of dimension   378 with    31 vectors.
 Max diff in FC couplings:  IJMax=    17     9 Diff= 4.61D-04 IJMaxR=    26    17 DiffR= 1.18D+00
 Fermi Contact (FC) contribution to K (Hz):
                1             2             3             4             5 
      1  0.123400D+11
      2  0.270404D+02  0.123400D+11
      3 -0.112762D+01  0.186743D+02  0.123400D+11
      4  0.270941D-01  0.807256D+00  0.665492D-02  0.123400D+11
      5  0.117151D-01  0.629813D-02  0.845501D-02  0.170374D+02  0.123400D+11
      6  0.128297D-02 -0.133514D-01  0.617835D-02  0.160100D+02 -0.827053D+00
      7  0.416154D-01  0.164891D-01  0.630634D-02  0.186641D+02 -0.850210D+00
      8 -0.964411D+01  0.274783D+01  0.434531D+00  0.203924D+01  0.182701D-01
      9  0.301395D+00  0.195749D+02 -0.740801D+00  0.133959D+01  0.362750D+00
     10  0.592367D-01  0.232499D+00  0.172022D+00 -0.951664D-01 -0.203190D-01
     11  0.288438D+02  0.139473D+02  0.213883D+00  0.162761D+00  0.368453D-02
     12  0.462935D+00  0.118627D+00 -0.235031D-01  0.263166D-02 -0.154967D-03
     13 -0.389836D+00  0.108429D+01  0.156558D-01 -0.652242D-03  0.862519D-04
     14  0.212049D+00 -0.923194D-01  0.155664D-01  0.331619D-02 -0.409067D-04
     15  0.176630D+00 -0.752229D-01  0.892566D-02 -0.126670D-02  0.741652D-04
     16  0.963091D+00 -0.268106D-01 -0.633251D-03  0.486743D-03  0.578214D-04
     17  0.125967D+00 -0.404990D+00  0.291269D+00  0.286877D-01  0.261268D-01
     18 -0.155587D+00  0.903644D+00 -0.840236D-01 -0.670054D-02 -0.180518D-02
     19 -0.192287D-02  0.107091D+00 -0.186353D-02 -0.874031D-03  0.238719D-03
     20  0.571527D-01  0.168985D-01  0.180825D-01  0.214184D-02  0.653124D-03
     21  0.733634D-01  0.420888D-01  0.254786D-01  0.119988D-02  0.478874D-03
     22  0.489354D+00  0.882006D+00  0.236805D+00  0.107679D+00  0.129264D-01
     23  0.668410D+00 -0.710552D+00  0.112538D+01  0.168902D+02 -0.683939D+00
     24 -0.351368D-01  0.825078D+00 -0.282037D-01 -0.864035D+00  0.141353D+00
     25  0.155925D+00  0.560119D-01 -0.282302D-01  0.298772D+00  0.392125D+00
     26  0.471220D-02  0.147084D-01  0.125804D-02  0.414026D+00 -0.595734D-02
     27  0.874217D-03 -0.836826D-02  0.241377D-03  0.125434D+01  0.168484D-01
     28  0.554914D-02 -0.104253D-01  0.130421D-02  0.289680D+00 -0.974255D-02
     29 -0.323294D+00  0.164440D+02 -0.894412D+00 -0.267895D+00  0.116216D+01
     30  0.110676D+01 -0.104291D+01  0.136042D+00  0.204334D-02 -0.226196D-01
     31  0.937218D-01 -0.376412D+00  0.181881D+00  0.795054D+00  0.244754D-01
                6             7             8             9            10 
      6  0.123400D+11
      7 -0.739923D+00  0.123400D+11
      8 -0.343464D-01 -0.119578D+00  0.123400D+11
      9  0.523361D+00  0.192579D+00  0.244627D+00  0.123400D+11
     10 -0.480204D-01  0.513423D-02  0.119899D-02  0.318500D+02  0.123400D+11
     11 -0.644633D-03 -0.117862D-01  0.651492D+01  0.121261D+01  0.177384D+00
     12 -0.136966D-03 -0.103291D-02  0.491532D+00  0.486045D-01  0.202803D-03
     13 -0.269693D-03  0.143182D-02  0.635292D+00  0.311564D+00  0.180381D-01
     14  0.160738D-03  0.116812D-03  0.244692D+00 -0.648917D-02 -0.129582D-02
     15  0.173036D-03  0.438012D-03  0.240752D+00 -0.283237D-02 -0.113107D-02
     16 -0.238984D-04  0.131094D-03  0.181248D+00  0.229909D-01 -0.901860D-03
     17  0.258543D-01  0.213899D-01  0.449593D-01  0.265450D+02  0.405015D+00
     18  0.137255D-02 -0.156986D-03  0.699369D-01  0.126820D+02  0.966386D-01
     19  0.252559D-02  0.254965D-03 -0.379040D-03  0.347590D+00 -0.970441D-02
     20  0.345872D-03  0.491792D-03  0.403504D-02  0.348410D+00 -0.738467D-02
     21 -0.503090D-04  0.395501D-03  0.216936D-02  0.392828D+00 -0.159607D-01
     22  0.129239D-01  0.455432D-02  0.609650D+00  0.565910D+01  0.418794D+00
     23 -0.516283D+00 -0.793597D+00 -0.251716D-01  0.435963D-01 -0.155349D-03
     24  0.131698D+00  0.427789D+00  0.731905D-01 -0.234654D-01  0.547155D-02
     25  0.139306D+01  0.358434D+00  0.494282D+00  0.180881D+00 -0.654614D-02
     26 -0.780709D-02 -0.275052D-01  0.104490D+00  0.846704D-02 -0.129616D-03
     27  0.848849D-01 -0.907884D-02  0.133912D-02  0.272532D-02 -0.180867D-03
     28  0.212838D-02 -0.559498D-02  0.189208D-01 -0.331733D-02 -0.346311D-03
     29  0.137470D+00  0.329397D+00  0.287268D+00  0.476253D+00  0.456311D+00
     30 -0.440833D-02 -0.573084D-02  0.682441D-01  0.701005D+00 -0.187823D-01
     31 -0.810370D-02 -0.120361D-01 -0.197709D-01  0.181682D+01 -0.220786D-01
               11            12            13            14            15 
     11  0.123400D+11
     12  0.312628D+02  0.123400D+11
     13  0.170648D+02  0.314939D+00  0.123400D+11
     14 -0.606382D+00  0.724057D-01  0.195920D+02  0.123400D+11
     15 -0.513534D+00  0.145812D+00  0.203159D+02 -0.733760D+00  0.123400D+11
     16 -0.388928D+00  0.290525D+00  0.182545D+02 -0.736431D+00 -0.759264D+00
     17 -0.625908D-01  0.796741D-04 -0.785693D-02  0.690467D-03  0.175029D-03
     18  0.161271D-01  0.951907D-03  0.108479D-01  0.162512D-02  0.120416D-02
     19  0.659612D-02  0.508675D-04  0.589399D-04 -0.600475D-04 -0.376068D-04
     20 -0.294493D-02 -0.168971D-03 -0.386072D-03  0.451066D-04 -0.356703D-04
     21  0.135210D-01 -0.808285D-04  0.190700D-02  0.136528D-03 -0.448956D-04
     22  0.182519D+00 -0.166018D-02  0.703604D-02  0.689547D-02  0.368699D-02
     23 -0.237146D-01  0.166275D-02 -0.888954D-02 -0.163933D-02 -0.115743D-02
     24  0.297319D-02 -0.350931D-03  0.776435D-02  0.677913D-03  0.101126D-03
     25  0.217993D+00 -0.134256D-01  0.695800D-01  0.231252D-01  0.735411D-02
     26  0.747107D-01 -0.119101D-02  0.274431D-01  0.588096D-02  0.257431D-02
     27  0.220744D-02  0.126533D-02 -0.499861D-02  0.397181D-03  0.503308D-03
     28  0.427574D-01 -0.112381D-02  0.155123D-02  0.233137D-02  0.153646D-02
     29  0.139717D+00 -0.329844D-01 -0.131059D+00  0.785304D-01  0.103673D+00
     30 -0.428278D-01 -0.606709D-02 -0.448872D-02  0.253310D-02  0.419982D-02
     31  0.518539D-01 -0.788395D-02 -0.154467D-02  0.194109D-03  0.226408D-03
               16            17            18            19            20 
     16  0.123400D+11
     17 -0.123570D-03  0.123400D+11
     18  0.219012D-03  0.272404D+02  0.123400D+11
     19  0.593446D-05 -0.758129D+00  0.170634D+02  0.123400D+11
     20  0.112306D-03 -0.118133D+01  0.178450D+02 -0.724669D+00  0.123400D+11
     21  0.334219D-03 -0.120923D+01  0.180497D+02 -0.739383D+00 -0.923112D+00
     22  0.186062D-02 -0.957765D+01  0.375845D+01  0.832316D+00  0.429576D+00
     23 -0.242470D-03 -0.583835D-01  0.698537D-02 -0.329234D-04 -0.108366D-02
     24  0.258211D-03  0.855875D-02 -0.171718D-02  0.642348D-04  0.134405D-05
     25  0.335981D-02  0.117857D-02  0.562538D-02  0.641852D-03  0.457336D-03
     26  0.934644D-03 -0.633629D-04  0.131922D-03 -0.348494D-04 -0.168101D-04
     27 -0.668041D-04  0.587975D-03  0.506546D-04  0.848114D-04 -0.175626D-04
     28  0.201435D-03 -0.174375D-02 -0.122967D-03 -0.181243D-04  0.668953D-05
     29  0.248885D-02  0.141453D+01 -0.371022D-01 -0.142547D-02  0.118390D-01
     30  0.522731D-03 -0.882296D-02  0.148231D-01 -0.700703D-04 -0.383446D-03
     31  0.405798D-03  0.101540D+00  0.619149D-01  0.534565D-04  0.225778D-02
               21            22            23            24            25 
     21  0.123400D+11
     22  0.441790D+00  0.123400D+11
     23 -0.126626D-03  0.632154D-01  0.123400D+11
     24  0.845096D-04  0.123973D-01  0.175765D+02  0.123400D+11
     25 -0.104639D-03  0.190235D-01  0.166337D+02 -0.852344D+00  0.123400D+11
     26  0.604916D-04 -0.272493D-03 -0.730951D+00  0.435790D+00  0.172171D+02
     27 -0.228633D-04  0.308004D-04 -0.532658D+00  0.128467D+00  0.172074D+02
     28 -0.437906D-04  0.215550D-02 -0.545493D+00  0.145865D+00  0.173067D+02
     29 -0.494545D-02  0.182593D+00  0.173028D+02 -0.702726D+00 -0.725084D-01
     30 -0.639805D-03 -0.683166D-03 -0.585963D+00  0.294793D+00  0.923675D+00
     31 -0.191177D-02 -0.618600D-02 -0.640256D+00  0.278800D-01  0.827395D+00
               26            27            28            29            30 
     26  0.123400D+11
     27 -0.741918D+00  0.123400D+11
     28 -0.816792D+00 -0.759134D+00  0.123400D+11
     29  0.280673D+00  0.424699D+00  0.134481D+01  0.123400D+11
     30 -0.172853D-01 -0.266784D-04  0.381988D-01  0.167895D+02  0.123400D+11
     31 -0.149655D-01 -0.165369D-01  0.238851D-01  0.175111D+02 -0.928042D+00
               31 
     31  0.123400D+11
 Fermi Contact (FC) contribution to J (Hz):
                1             2             3             4             5 
      1  0.243533D+11
      2  0.533649D+02  0.243533D+11
      3 -0.884834D+01  0.146536D+03  0.385007D+12
      4  0.534708D-01  0.159314D+01  0.522205D-01  0.243533D+11
      5  0.919274D-01  0.494208D-01  0.263796D+00  0.133691D+03  0.385007D+12
      6  0.100674D-01 -0.104767D+00  0.192764D+00  0.125629D+03 -0.258040D+02
      7  0.326552D+00  0.129389D+00  0.196758D+00  0.146456D+03 -0.265265D+02
      8  0.102631D+02 -0.292418D+01 -0.183862D+01 -0.217012D+01 -0.773058D-01
      9  0.170955D+00  0.111031D+02 -0.167072D+01  0.759834D+00  0.818106D+00
     10  0.464825D+00  0.182440D+01  0.536709D+01 -0.746762D+00 -0.633952D+00
     11  0.163606D+02  0.791109D+01  0.482368D+00  0.923199D-01  0.830966D-02
     12  0.363261D+01  0.930858D+00 -0.733294D+00  0.206503D-01 -0.483496D-02
     13 -0.769351D+00  0.213988D+01  0.122850D+00 -0.128722D-02  0.676811D-03
     14  0.166393D+01 -0.724421D+00  0.485672D+00  0.260218D-01 -0.127629D-02
     15  0.138600D+01 -0.590267D+00  0.278480D+00 -0.993971D-02  0.231395D-02
     16  0.755728D+01 -0.210380D+00 -0.197574D-01  0.381943D-02  0.180403D-02
     17  0.248598D+00 -0.799258D+00  0.228556D+01  0.566159D-01  0.205014D+00
     18 -0.307055D+00  0.178336D+01 -0.659325D+00 -0.132237D-01 -0.141650D-01
     19 -0.150886D-01  0.840329D+00 -0.581421D-01 -0.685844D-02  0.744801D-02
     20  0.448472D+00  0.132601D+00  0.564173D+00  0.168068D-01  0.203774D-01
     21  0.575675D+00  0.330266D+00  0.794932D+00  0.941535D-02  0.149408D-01
     22 -0.520761D+00 -0.938614D+00 -0.100198D+01 -0.114590D+00 -0.546953D-01
     23  0.131912D+01 -0.140229D+01  0.883073D+01  0.333332D+02 -0.536680D+01
     24 -0.275715D+00  0.647431D+01 -0.879953D+00 -0.678000D+01  0.441019D+01
     25  0.307722D+00  0.110541D+00 -0.221519D+00  0.589634D+00  0.307697D+01
     26  0.369761D-01  0.115415D+00  0.392507D-01  0.324882D+01 -0.185869D+00
     27  0.685990D-02 -0.656649D-01  0.753095D-02  0.984269D+01  0.525670D+00
     28  0.435436D-01 -0.818062D-01  0.406914D-01  0.227309D+01 -0.303967D+00
     29 -0.638028D+00  0.324527D+02 -0.701836D+01 -0.528698D+00  0.911933D+01
     30  0.868467D+01 -0.818364D+01  0.424452D+01  0.160339D-01 -0.705731D+00
     31  0.735426D+00 -0.295367D+01  0.567467D+01  0.623872D+01  0.763630D+00
                6             7             8             9            10 
      6  0.385007D+12
      7 -0.230855D+02  0.385007D+12
      8  0.145329D+00  0.505967D+00  0.708114D+10
      9  0.118033D+01  0.434321D+00 -0.748209D-01  0.201170D+10
     10 -0.149823D+01  0.160188D+00 -0.507324D-02  0.718308D+02  0.385007D+12
     11 -0.145383D-02 -0.265812D-01 -0.199263D+01  0.197683D+00  0.400051D+00
     12 -0.427332D-02 -0.322267D-01 -0.207981D+01  0.109617D+00  0.632743D-02
     13 -0.211626D-02  0.112353D-01 -0.676066D+00  0.176723D+00  0.141543D+00
     14  0.501500D-02  0.364454D-02 -0.103536D+01 -0.146349D-01 -0.404294D-01
     15  0.539870D-02  0.136660D-01 -0.101869D+01 -0.638781D-02 -0.352894D-01
     16 -0.745628D-03  0.409013D-02 -0.766911D+00  0.518510D-01 -0.281380D-01
     17  0.202876D+00  0.167844D+00 -0.478448D-01  0.150567D+02  0.317811D+01
     18  0.107703D-01 -0.123186D-02 -0.744255D-01  0.719340D+01  0.758314D+00
     19  0.787982D-01  0.795489D-02  0.160382D-02  0.783914D+00 -0.302777D+00
     20  0.107912D-01  0.153439D-01 -0.170733D-01  0.785764D+00 -0.230401D+00
     21 -0.156964D-02  0.123396D-01 -0.917915D-02  0.885939D+00 -0.497974D+00
     22 -0.546845D-01 -0.192706D-01  0.349839D+00 -0.173088D+01 -0.177203D+01
     23 -0.405122D+01 -0.622728D+01  0.267871D-01  0.247284D-01 -0.121901D-02
     24  0.410899D+01  0.133470D+02 -0.309689D+00 -0.529211D-01  0.170712D+00
     25  0.109312D+02  0.281260D+01 -0.526006D+00  0.102598D+00 -0.513669D-01
     26 -0.243581D+00 -0.858162D+00 -0.442126D+00  0.190956D-01 -0.404401D-02
     27  0.264840D+01 -0.283259D+00 -0.566619D-02  0.614637D-02 -0.564305D-02
     28  0.664054D-01 -0.174563D+00 -0.800592D-01 -0.748151D-02 -0.108049D-01
     29  0.107871D+01  0.258475D+01 -0.305705D+00  0.270137D+00  0.358063D+01
     30 -0.137540D+00 -0.178802D+00 -0.288759D+00  0.158097D+01 -0.586008D+00
     31 -0.252835D+00 -0.375526D+00  0.836560D-01  0.409745D+01 -0.688850D+00
               11            12            13            14            15 
     11  0.201170D+10
     12  0.705065D+02  0.385007D+12
     13  0.967937D+01  0.247130D+01  0.243533D+11
     14 -0.136756D+01  0.225906D+01  0.153736D+03  0.385007D+12
     15 -0.115816D+01  0.454932D+01  0.159417D+03 -0.228933D+02  0.385007D+12
     16 -0.877144D+00  0.906437D+01  0.143241D+03 -0.229766D+02 -0.236890D+02
     17 -0.355023D-01  0.625195D-03 -0.155058D-01  0.541803D-02  0.137344D-02
     18  0.914750D-02  0.746952D-02  0.214086D-01  0.127522D-01  0.944890D-02
     19  0.148761D-01  0.158706D-02  0.462496D-03 -0.187348D-02 -0.117333D-02
     20 -0.664167D-02 -0.527190D-02 -0.302947D-02  0.140732D-02 -0.111291D-02
     21  0.304937D-01 -0.252184D-02  0.149640D-01  0.425965D-02 -0.140074D-02
     22 -0.558246D-01  0.702467D-02 -0.748762D-02 -0.291766D-01 -0.156007D-01
     23 -0.134512D-01  0.130474D-01 -0.175437D-01 -0.128637D-01 -0.908222D-02
     24  0.670540D-02 -0.109490D-01  0.609261D-01  0.211509D-01  0.315513D-02
     25  0.123648D+00 -0.105349D+00  0.137318D+00  0.181462D+00  0.577070D-01
     26  0.168494D+00 -0.371593D-01  0.215343D+00  0.183486D+00  0.803183D-01
     27  0.497841D-02  0.394783D-01 -0.392236D-01  0.123920D-01  0.157032D-01
     28  0.964302D-01 -0.350629D-01  0.121724D-01  0.727386D-01  0.479375D-01
     29  0.792492D-01 -0.258825D+00 -0.258649D+00  0.616221D+00  0.813515D+00
     30 -0.965888D-01 -0.189293D+00 -0.352225D-01  0.790327D-01  0.131034D+00
     31  0.116945D+00 -0.245979D+00 -0.121209D-01  0.605620D-02  0.706393D-02
               16            17            18            19            20 
     16  0.385007D+12
     17 -0.969639D-03  0.243533D+11
     18  0.171857D-02  0.537597D+02  0.243533D+11
     19  0.185155D-03 -0.594897D+01  0.133895D+03  0.385007D+12
     20  0.350394D-02 -0.926979D+01  0.140028D+03 -0.226096D+02  0.385007D+12
     21  0.104276D-01 -0.948871D+01  0.141634D+03 -0.230687D+02 -0.288011D+02
     22 -0.787281D-02  0.101924D+02 -0.399967D+01 -0.352176D+01 -0.181765D+01
     23 -0.190264D-02 -0.115221D+00  0.137858D-01 -0.258347D-03 -0.850334D-02
     24  0.805616D-02  0.671596D-01 -0.134746D-01  0.200412D-02  0.419343D-04
     25  0.263641D-01  0.232594D-02  0.111018D-01  0.503655D-02  0.358867D-02
     26  0.291608D-01 -0.497203D-03  0.103518D-02 -0.108730D-02 -0.524475D-03
     27 -0.208428D-02  0.461378D-02  0.397482D-03  0.264611D-02 -0.547952D-03
     28  0.628478D-02 -0.136831D-01 -0.964909D-03 -0.565476D-03  0.208713D-03
     29  0.195298D-01  0.279162D+01 -0.732221D-01 -0.111856D-01  0.928998D-01
     30  0.163092D-01 -0.692329D-01  0.116315D+00 -0.218619D-02 -0.119635D-01
     31  0.126609D-01  0.796775D+00  0.485840D+00  0.166784D-02  0.704427D-01
               21            22            23            24            25 
     21  0.385007D+12
     22 -0.186934D+01  0.708114D+10
     23 -0.993622D-03 -0.672727D-01  0.243533D+11
     24  0.263670D-02 -0.524566D-01  0.137921D+03  0.385007D+12
     25 -0.821088D-03 -0.202444D-01  0.328270D+02 -0.668826D+01  0.243533D+11
     26  0.188733D-02  0.115299D-02 -0.573570D+01  0.135966D+02  0.135101D+03
     27 -0.713335D-03 -0.130325D-03 -0.417971D+01  0.400816D+01  0.135025D+03
     28 -0.136627D-02 -0.912050D-02 -0.428043D+01  0.455099D+01  0.135804D+03
     29 -0.388064D-01 -0.194312D+00  0.341476D+02 -0.551423D+01 -0.143097D+00
     30 -0.199619D-01  0.289066D-02 -0.459800D+01  0.919751D+01  0.724799D+01
     31 -0.596471D-01  0.261747D-01 -0.502403D+01  0.869856D+00  0.649249D+01
               26            27            28            29            30 
     26  0.385007D+12
     27 -0.231478D+02  0.385007D+12
     28 -0.254839D+02 -0.236849D+02  0.385007D+12
     29  0.220241D+01  0.333258D+01  0.105526D+02  0.243533D+11
     30 -0.539301D+00 -0.832365D-03  0.119180D+01  0.131746D+03  0.385007D+12
     31 -0.466923D+00 -0.515952D+00  0.745215D+00  0.137408D+03 -0.289549D+02
               31 
     31  0.385007D+12
 End of Minotr F.D. properties file   721 does not exist.
 End of Minotr F.D. properties file   722 does not exist.
 End of Minotr F.D. properties file   788 does not exist.
 Leave Link 1002 at Wed Jun 18 09:43:51 2014, MaxMem=  4294967296 cpu:    392389.1
 (Enter /home/ztw1e12/g09/l601.exe)
 Copying SCF densities to generalized density rwf, IOpCl= 0 IROHF=0.

 **********************************************************************

            Population analysis using the SCF density.

 **********************************************************************

 Orbital symmetries:
       Occupied  (A) (A) (A) (A) (A) (A) (A) (A) (A) (A) (A) (A)
                 (A) (A) (A) (A) (A) (A) (A) (A) (A) (A) (A) (A)
                 (A) (A) (A) (A) (A) (A) (A) (A) (A) (A) (A) (A)
                 (A) (A) (A) (A) (A) (A) (A) (A) (A) (A) (A) (A)
                 (A) (A) (A)
       Virtual   (A) (A) (A) (A) (A) (A) (A) (A) (A) (A) (A) (A)
                 (A) (A) (A) (A) (A) (A) (A) (A) (A) (A) (A) (A)
                 (A) (A) (A) (A) (A) (A) (A) (A) (A) (A) (A) (A)
                 (A) (A) (A) (A) (A) (A) (A) (A) (A) (A) (A) (A)
                 (A) (A) (A) (A) (A) (A) (A) (A) (A) (A) (A) (A)
                 (A) (A) (A) (A) (A) (A) (A) (A) (A) (A) (A) (A)
                 (A) (A) (A) (A) (A) (A) (A) (A) (A) (A) (A) (A)
                 (A) (A) (A) (A) (A) (A) (A) (A) (A) (A) (A) (A)
                 (A) (A) (A) (A) (A) (A) (A) (A) (A) (A) (A) (A)
                 (A) (A) (A) (A) (A) (A) (A) (A) (A) (A) (A) (A)
                 (A) (A) (A) (A) (A) (A) (A) (A) (A) (A) (A) (A)
                 (A) (A) (A) (A) (A) (A) (A) (A) (A) (A) (A) (A)
                 (A) (A) (A) (A) (A) (A) (A) (A) (A) (A) (A) (A)
                 (A) (A) (A) (A) (A) (A) (A) (A) (A) (A) (A) (A)
                 (A) (A) (A) (A) (A) (A) (A) (A) (A) (A) (A) (A)
                 (A) (A) (A) (A) (A) (A) (A) (A) (A) (A) (A) (A)
                 (A) (A) (A) (A) (A) (A) (A) (A) (A) (A) (A) (A)
                 (A) (A) (A) (A) (A) (A) (A) (A) (A) (A) (A) (A)
                 (A) (A) (A) (A) (A) (A) (A) (A) (A) (A) (A) (A)
                 (A) (A) (A) (A) (A) (A) (A) (A) (A) (A) (A) (A)
                 (A) (A) (A) (A) (A) (A) (A) (A) (A) (A) (A) (A)
                 (A) (A) (A) (A) (A) (A) (A) (A) (A) (A) (A) (A)
                 (A) (A) (A) (A) (A) (A) (A) (A) (A) (A) (A) (A)
                 (A) (A) (A) (A) (A) (A) (A) (A) (A) (A) (A) (A)
                 (A) (A) (A) (A) (A) (A) (A) (A) (A) (A) (A) (A)
                 (A) (A) (A) (A) (A) (A) (A) (A) (A) (A) (A) (A)
                 (A) (A) (A) (A) (A) (A) (A) (A) (A) (A) (A) (A)
                 (A) (A) (A) (A) (A) (A) (A) (A) (A) (A) (A) (A)
                 (A) (A) (A) (A) (A) (A) (A) (A) (A) (A) (A) (A)
                 (A) (A) (A) (A) (A) (A) (A) (A) (A) (A) (A) (A)
                 (A) (A) (A) (A) (A) (A) (A) (A) (A) (A) (A) (A)
                 (A) (A) (A) (A) (A) (A) (A) (A) (A) (A) (A) (A)
                 (A) (A) (A) (A) (A) (A) (A) (A) (A) (A) (A) (A)
                 (A) (A) (A) (A) (A) (A) (A) (A) (A) (A) (A) (A)
                 (A) (A) (A) (A) (A) (A) (A) (A) (A) (A) (A) (A)
                 (A) (A) (A) (A) (A) (A) (A) (A) (A) (A) (A) (A)
                 (A) (A) (A) (A) (A) (A) (A) (A) (A) (A) (A) (A)
                 (A) (A) (A) (A) (A) (A) (A) (A) (A) (A) (A) (A)
                 (A) (A) (A) (A) (A) (A) (A) (A) (A) (A) (A) (A)
                 (A) (A) (A) (A) (A) (A) (A) (A) (A) (A) (A) (A)
                 (A) (A) (A) (A) (A) (A) (A) (A) (A) (A) (A) (A)
                 (A) (A) (A) (A) (A) (A) (A) (A) (A) (A) (A) (A)
                 (A) (A) (A) (A) (A) (A) (A) (A) (A) (A) (A) (A)
                 (A) (A) (A) (A) (A) (A) (A) (A) (A) (A) (A) (A)
                 (A) (A) (A) (A) (A) (A) (A) (A) (A) (A) (A) (A)
                 (A) (A) (A) (A) (A) (A) (A) (A) (A) (A) (A) (A)
                 (A) (A) (A) (A) (A) (A) (A) (A) (A) (A) (A) (A)
                 (A) (A) (A) (A) (A) (A) (A) (A) (A) (A) (A) (A)
                 (A) (A) (A) (A) (A) (A) (A) (A) (A) (A) (A) (A)
                 (A) (A) (A) (A) (A) (A) (A) (A) (A) (A) (A) (A)
                 (A) (A) (A) (A) (A) (A) (A) (A) (A) (A) (A) (A)
                 (A) (A) (A) (A) (A) (A) (A) (A) (A) (A) (A) (A)
                 (A) (A) (A) (A) (A) (A) (A) (A) (A) (A) (A) (A)
                 (A) (A) (A) (A) (A) (A) (A) (A) (A) (A) (A) (A)
                 (A) (A) (A) (A) (A) (A) (A) (A) (A) (A) (A) (A)
                 (A) (A) (A) (A) (A) (A) (A) (A) (A) (A) (A) (A)
                 (A) (A) (A) (A) (A) (A) (A) (A) (A) (A) (A) (A)
                 (A) (A) (A) (A) (A) (A) (A) (A) (A) (A) (A) (A)
                 (A) (A) (A) (A) (A) (A) (A) (A) (A) (A) (A) (A)
                 (A) (A) (A) (A) (A) (A) (A) (A) (A) (A) (A) (A)
                 (A) (A) (A) (A) (A) (A) (A) (A) (A) (A) (A) (A)
                 (A) (A) (A) (A) (A) (A) (A) (A) (A) (A) (A) (A)
                 (A) (A) (A) (A) (A) (A) (A) (A) (A) (A) (A) (A)
                 (A) (A) (A) (A) (A) (A) (A) (A) (A) (A) (A) (A)
                 (A) (A) (A) (A) (A) (A) (A) (A) (A) (A) (A) (A)
                 (A) (A) (A) (A) (A) (A) (A) (A) (A) (A) (A) (A)
                 (A) (A) (A) (A) (A) (A) (A) (A) (A) (A) (A) (A)
                 (A) (A) (A) (A) (A) (A) (A) (A) (A) (A) (A) (A)
                 (A) (A) (A) (A) (A) (A) (A) (A) (A) (A) (A) (A)
                 (A) (A) (A) (A) (A) (A) (A) (A) (A) (A) (A) (A)
                 (A) (A) (A) (A) (A) (A) (A) (A) (A) (A) (A) (A)
                 (A) (A) (A) (A) (A) (A) (A) (A) (A) (A) (A) (A)
                 (A) (A) (A) (A) (A) (A) (A) (A) (A) (A) (A) (A)
                 (A) (A) (A) (A) (A)
 The electronic state is 1-A.
 Alpha  occ. eigenvalues --  -19.17267 -19.16382 -14.41825 -14.41353 -10.33501
 Alpha  occ. eigenvalues --  -10.33279 -10.29286 -10.27139 -10.25704 -10.25384
 Alpha  occ. eigenvalues --  -10.23739 -10.23037 -10.22915  -1.05428  -1.04061
 Alpha  occ. eigenvalues --   -0.94355  -0.94134  -0.83596  -0.78496  -0.74307
 Alpha  occ. eigenvalues --   -0.72071  -0.69948  -0.66466  -0.60789  -0.59593
 Alpha  occ. eigenvalues --   -0.57963  -0.54815  -0.50682  -0.49493  -0.48069
 Alpha  occ. eigenvalues --   -0.46901  -0.46397  -0.45380  -0.45269  -0.44456
 Alpha  occ. eigenvalues --   -0.42424  -0.41369  -0.40982  -0.40554  -0.40160
 Alpha  occ. eigenvalues --   -0.39500  -0.38660  -0.37862  -0.36536  -0.35210
 Alpha  occ. eigenvalues --   -0.34315  -0.33085  -0.28298  -0.27569  -0.26120
 Alpha  occ. eigenvalues --   -0.25952
 Alpha virt. eigenvalues --    0.00971   0.02419   0.02612   0.03720   0.04737
 Alpha virt. eigenvalues --    0.04993   0.06902   0.07436   0.07789   0.08466
 Alpha virt. eigenvalues --    0.10112   0.10770   0.11086   0.11746   0.12249
 Alpha virt. eigenvalues --    0.12477   0.12749   0.14234   0.14908   0.15293
 Alpha virt. eigenvalues --    0.16408   0.17043   0.18193   0.19482   0.20456
 Alpha virt. eigenvalues --    0.20686   0.23146   0.23261   0.24689   0.24840
 Alpha virt. eigenvalues --    0.25153   0.25631   0.26800   0.27013   0.27850
 Alpha virt. eigenvalues --    0.29238   0.29728   0.30560   0.31094   0.32191
 Alpha virt. eigenvalues --    0.32825   0.34285   0.34622   0.34980   0.36124
 Alpha virt. eigenvalues --    0.36778   0.37186   0.37744   0.38885   0.38993
 Alpha virt. eigenvalues --    0.39596   0.39881   0.40647   0.40954   0.41160
 Alpha virt. eigenvalues --    0.41836   0.42560   0.42794   0.43088   0.43268
 Alpha virt. eigenvalues --    0.43684   0.44336   0.44905   0.45408   0.45843
 Alpha virt. eigenvalues --    0.46193   0.47401   0.47487   0.48093   0.49395
 Alpha virt. eigenvalues --    0.50016   0.50733   0.51185   0.52296   0.52364
 Alpha virt. eigenvalues --    0.53370   0.54433   0.54777   0.55542   0.56962
 Alpha virt. eigenvalues --    0.57763   0.59454   0.59805   0.61129   0.61711
 Alpha virt. eigenvalues --    0.63203   0.64715   0.65187   0.66149   0.66995
 Alpha virt. eigenvalues --    0.69291   0.70494   0.71350   0.72548   0.74573
 Alpha virt. eigenvalues --    0.74975   0.75823   0.76254   0.77909   0.79079
 Alpha virt. eigenvalues --    0.80340   0.80936   0.81654   0.82852   0.83220
 Alpha virt. eigenvalues --    0.84911   0.85760   0.86414   0.86646   0.87813
 Alpha virt. eigenvalues --    0.88309   0.89000   0.89674   0.91498   0.92289
 Alpha virt. eigenvalues --    0.93038   0.94150   0.94626   0.95134   0.95617
 Alpha virt. eigenvalues --    0.95715   0.96372   0.97077   0.97656   0.98101
 Alpha virt. eigenvalues --    0.99590   0.99950   1.01426   1.01665   1.03543
 Alpha virt. eigenvalues --    1.03672   1.04181   1.04814   1.05419   1.06368
 Alpha virt. eigenvalues --    1.07676   1.08899   1.09223   1.10400   1.10584
 Alpha virt. eigenvalues --    1.11277   1.12037   1.12207   1.13464   1.14788
 Alpha virt. eigenvalues --    1.15567   1.16311   1.17103   1.17875   1.18449
 Alpha virt. eigenvalues --    1.19047   1.20050   1.20404   1.21129   1.21464
 Alpha virt. eigenvalues --    1.21820   1.22610   1.23322   1.23495   1.24388
 Alpha virt. eigenvalues --    1.24707   1.25001   1.25865   1.26206   1.26461
 Alpha virt. eigenvalues --    1.26782   1.28745   1.29286   1.29801   1.30574
 Alpha virt. eigenvalues --    1.30720   1.31294   1.31743   1.32347   1.33341
 Alpha virt. eigenvalues --    1.34496   1.35541   1.36294   1.37091   1.37464
 Alpha virt. eigenvalues --    1.37997   1.39189   1.40188   1.40546   1.41977
 Alpha virt. eigenvalues --    1.43616   1.45068   1.45683   1.47106   1.49010
 Alpha virt. eigenvalues --    1.49562   1.50877   1.51537   1.52888   1.56906
 Alpha virt. eigenvalues --    1.56987   1.59650   1.61135   1.62794   1.63989
 Alpha virt. eigenvalues --    1.64688   1.68228   1.70520   1.71072   1.73992
 Alpha virt. eigenvalues --    1.74395   1.75850   1.77850   1.80408   1.82218
 Alpha virt. eigenvalues --    1.84631   1.87995   1.89733   1.92041   1.92564
 Alpha virt. eigenvalues --    1.93803   1.97507   1.98096   1.99553   2.00439
 Alpha virt. eigenvalues --    2.01423   2.02076   2.04201   2.05352   2.06868
 Alpha virt. eigenvalues --    2.09053   2.09693   2.13147   2.14496   2.15145
 Alpha virt. eigenvalues --    2.17666   2.19736   2.20260   2.21582   2.23786
 Alpha virt. eigenvalues --    2.24268   2.25359   2.27476   2.29542   2.31359
 Alpha virt. eigenvalues --    2.33362   2.35172   2.35937   2.37261   2.38845
 Alpha virt. eigenvalues --    2.40539   2.41807   2.42240   2.43773   2.44792
 Alpha virt. eigenvalues --    2.45447   2.46067   2.46962   2.47977   2.49480
 Alpha virt. eigenvalues --    2.51180   2.52012   2.52851   2.54283   2.55395
 Alpha virt. eigenvalues --    2.56112   2.57065   2.58185   2.58960   2.62627
 Alpha virt. eigenvalues --    2.64032   2.66638   2.67822   2.68195   2.68934
 Alpha virt. eigenvalues --    2.70402   2.71123   2.71921   2.72323   2.74044
 Alpha virt. eigenvalues --    2.74202   2.75449   2.76946   2.77508   2.78033
 Alpha virt. eigenvalues --    2.80703   2.80761   2.81626   2.81922   2.82977
 Alpha virt. eigenvalues --    2.84744   2.85092   2.85490   2.86917   2.87301
 Alpha virt. eigenvalues --    2.88549   2.89328   2.90117   2.90801   2.91870
 Alpha virt. eigenvalues --    2.92566   2.93370   2.93880   2.94908   2.95407
 Alpha virt. eigenvalues --    2.95911   2.96362   2.97871   2.98046   2.98658
 Alpha virt. eigenvalues --    2.99981   3.00755   3.01428   3.01705   3.02861
 Alpha virt. eigenvalues --    3.03955   3.04764   3.04916   3.06098   3.06584
 Alpha virt. eigenvalues --    3.07719   3.08018   3.09156   3.09639   3.10762
 Alpha virt. eigenvalues --    3.12032   3.12736   3.14080   3.14998   3.16281
 Alpha virt. eigenvalues --    3.16768   3.17233   3.18317   3.19458   3.20302
 Alpha virt. eigenvalues --    3.20752   3.22431   3.22887   3.23297   3.24621
 Alpha virt. eigenvalues --    3.26134   3.26330   3.27390   3.27820   3.28587
 Alpha virt. eigenvalues --    3.28791   3.29810   3.30756   3.30939   3.32369
 Alpha virt. eigenvalues --    3.32761   3.33917   3.34808   3.35351   3.36888
 Alpha virt. eigenvalues --    3.37572   3.38327   3.38641   3.38941   3.40655
 Alpha virt. eigenvalues --    3.41158   3.41649   3.42229   3.42504   3.43683
 Alpha virt. eigenvalues --    3.44111   3.45779   3.45992   3.47608   3.48147
 Alpha virt. eigenvalues --    3.50050   3.50313   3.51088   3.52620   3.54144
 Alpha virt. eigenvalues --    3.54655   3.56547   3.57254   3.58932   3.59233
 Alpha virt. eigenvalues --    3.60246   3.62688   3.62931   3.64291   3.64855
 Alpha virt. eigenvalues --    3.66679   3.67214   3.68442   3.69801   3.71559
 Alpha virt. eigenvalues --    3.72333   3.73195   3.73848   3.74302   3.76483
 Alpha virt. eigenvalues --    3.76957   3.78250   3.78624   3.79712   3.79927
 Alpha virt. eigenvalues --    3.81448   3.82639   3.83437   3.84101   3.85726
 Alpha virt. eigenvalues --    3.86015   3.86088   3.87712   3.89342   3.90446
 Alpha virt. eigenvalues --    3.91615   3.92053   3.93428   3.93787   3.94796
 Alpha virt. eigenvalues --    3.95641   3.97557   3.98205   3.98587   4.00319
 Alpha virt. eigenvalues --    4.01032   4.02500   4.03087   4.04718   4.05617
 Alpha virt. eigenvalues --    4.06767   4.06994   4.07367   4.08898   4.09555
 Alpha virt. eigenvalues --    4.10492   4.12680   4.14059   4.14980   4.15326
 Alpha virt. eigenvalues --    4.16620   4.16957   4.18290   4.19178   4.19210
 Alpha virt. eigenvalues --    4.19802   4.21757   4.22608   4.23541   4.25296
 Alpha virt. eigenvalues --    4.26164   4.26469   4.27538   4.28766   4.29429
 Alpha virt. eigenvalues --    4.30393   4.32590   4.32857   4.34365   4.34584
 Alpha virt. eigenvalues --    4.36298   4.37192   4.38296   4.39675   4.41596
 Alpha virt. eigenvalues --    4.44096   4.45214   4.46019   4.48396   4.49945
 Alpha virt. eigenvalues --    4.51264   4.52148   4.53481   4.53921   4.54879
 Alpha virt. eigenvalues --    4.57740   4.58552   4.59488   4.60498   4.61839
 Alpha virt. eigenvalues --    4.62520   4.63030   4.63405   4.64268   4.66199
 Alpha virt. eigenvalues --    4.66590   4.68148   4.70084   4.70975   4.72771
 Alpha virt. eigenvalues --    4.74131   4.74646   4.75821   4.76610   4.77802
 Alpha virt. eigenvalues --    4.78488   4.79135   4.80485   4.82006   4.82674
 Alpha virt. eigenvalues --    4.84510   4.85121   4.89472   4.91198   4.91675
 Alpha virt. eigenvalues --    4.92977   4.93498   4.94888   4.95767   4.96086
 Alpha virt. eigenvalues --    4.97972   4.98507   5.00689   5.01847   5.03082
 Alpha virt. eigenvalues --    5.04009   5.05377   5.07335   5.07891   5.09444
 Alpha virt. eigenvalues --    5.10741   5.12571   5.13766   5.13979   5.15538
 Alpha virt. eigenvalues --    5.15955   5.17062   5.18846   5.19165   5.21703
 Alpha virt. eigenvalues --    5.22520   5.23274   5.23756   5.25200   5.26070
 Alpha virt. eigenvalues --    5.26911   5.27820   5.29518   5.30095   5.30984
 Alpha virt. eigenvalues --    5.32024   5.33747   5.36700   5.38774   5.40661
 Alpha virt. eigenvalues --    5.41009   5.43782   5.45608   5.47753   5.49266
 Alpha virt. eigenvalues --    5.52694   5.53551   5.56635   5.58551   5.58698
 Alpha virt. eigenvalues --    5.60989   5.62270   5.63403   5.65452   5.65848
 Alpha virt. eigenvalues --    5.66430   5.68562   5.69188   5.70549   5.72468
 Alpha virt. eigenvalues --    5.75008   5.75642   5.76083   5.78964   5.81444
 Alpha virt. eigenvalues --    5.82016   5.83434   5.85029   5.87626   5.89051
 Alpha virt. eigenvalues --    5.90121   5.93588   5.97340   6.02770   6.06211
 Alpha virt. eigenvalues --    6.11435   6.18707   6.21860   6.23372   6.27400
 Alpha virt. eigenvalues --    6.53096   6.55434   6.58364   6.63228   6.64591
 Alpha virt. eigenvalues --    6.67043   6.77745   6.82407   6.90491   6.92535
 Alpha virt. eigenvalues --    6.93353   6.94819   7.18878   7.20466   7.24611
 Alpha virt. eigenvalues --    7.28261   8.13333   8.33096   8.67331   8.73654
 Alpha virt. eigenvalues --    8.78570   8.80007   8.80313   8.83163   8.83344
 Alpha virt. eigenvalues --    8.86241   8.87564   8.88653   8.89478   8.91424
 Alpha virt. eigenvalues --    8.93718   8.95017   8.97567   8.98538   9.00665
 Alpha virt. eigenvalues --    9.05409   9.07212   9.13571   9.15121   9.16059
 Alpha virt. eigenvalues --    9.23633   9.59603   9.62102   9.77497   9.83508
 Alpha virt. eigenvalues --    9.91173   9.95911  10.09996  10.11893  10.15003
 Alpha virt. eigenvalues --   10.18163  10.19678  10.21770  10.21906  10.24259
 Alpha virt. eigenvalues --   10.28163  10.29843  10.31093  10.31875  10.35994
 Alpha virt. eigenvalues --   10.40335  11.75958  11.82862  12.04281  12.14344
 Alpha virt. eigenvalues --   12.16287  12.23194  12.24847  12.25418  12.32036
 Alpha virt. eigenvalues --   12.41042  12.48120  12.56159  12.59701  12.83719
 Alpha virt. eigenvalues --   12.93024  14.97199  15.04090  15.24346  15.28008
 Alpha virt. eigenvalues --   15.99783  16.06370  16.83519  16.91461  22.01478
 Alpha virt. eigenvalues --   22.12376  40.17273  40.29504  40.66591  40.68331
 Alpha virt. eigenvalues --   40.69610  40.71268  40.72028  40.74389  40.76465
 Alpha virt. eigenvalues --   40.77830  40.79895  40.81390  40.82238  40.82810
 Alpha virt. eigenvalues --   40.83072  40.84076  40.85023  40.85444  40.86657
 Alpha virt. eigenvalues --   40.87377  40.88054  40.88536  40.90511  40.90647
 Alpha virt. eigenvalues --   40.91596  40.93169  40.95021  46.34494  46.44352
 Alpha virt. eigenvalues --   46.48638  46.55574  46.57147  46.57668  46.63526
 Alpha virt. eigenvalues --   46.74487  46.80207  54.45647  54.46598  55.79104
 Alpha virt. eigenvalues --   55.84152  55.97140  55.97679  56.06002  56.08635
 Alpha virt. eigenvalues --   56.17390  56.23525  56.28478  56.31925  56.39510
 Alpha virt. eigenvalues --   56.43012  56.45678  56.50499  56.57341  56.63119
 Alpha virt. eigenvalues --   57.46941  57.51158  57.99549  58.02977  58.19528
 Alpha virt. eigenvalues --   58.25621  64.70803  64.77983  73.94304  73.98346
 Alpha virt. eigenvalues --   74.10024  74.11739  74.63917  74.67531  86.07250
 Alpha virt. eigenvalues --   86.16948 165.43762 165.52219 165.57497 165.63594
 Alpha virt. eigenvalues --  165.64873 165.65530 165.69869 165.79766 165.85107
 Alpha virt. eigenvalues --  226.54229 226.55580 230.57985 230.64573 235.53906
 Alpha virt. eigenvalues --  235.81402 236.02184 236.28624 236.30413 236.49450
 Alpha virt. eigenvalues --  236.93549 237.14369 237.65324 237.68623 237.81478
 Alpha virt. eigenvalues --  237.90395 237.96169 238.09837 238.19602 238.93591
 Alpha virt. eigenvalues --  308.80820 308.89446 624.55052 624.60901 624.64222
 Alpha virt. eigenvalues --  624.69106 624.70140 624.71909 624.75704 624.83114
 Alpha virt. eigenvalues --  624.87404 793.87898 794.51557 825.88253 825.90529
 Alpha virt. eigenvalues --  827.11129 827.24438 827.83416 828.09252 829.51656
 Alpha virt. eigenvalues --  830.37770 831.59287 831.69128 831.78398 832.53490
 Alpha virt. eigenvalues --  832.70984 832.94803 833.66233 835.54388 868.33981
 Alpha virt. eigenvalues --  868.405301165.935371166.013452484.289882485.22430
 Alpha virt. eigenvalues -- 2588.135132589.564432591.125832594.962402596.20094
 Alpha virt. eigenvalues -- 2597.667542598.123282601.906342606.757722606.87034
 Alpha virt. eigenvalues -- 2606.969992608.021062608.102852608.860842608.99374
 Alpha virt. eigenvalues -- 2617.348832740.323332740.343172740.390672740.42087
 Alpha virt. eigenvalues -- 2740.435282740.507512740.532642740.550262740.57756
 Alpha virt. eigenvalues -- 3787.317183787.382245073.316695073.385458285.04556
 Alpha virt. eigenvalues -- 8295.834608617.186098627.441588633.932318637.20955
 Alpha virt. eigenvalues -- 8639.117008645.646628652.762028661.496408669.76209
 Alpha virt. eigenvalues -- 8672.259438673.480708678.459858681.467638681.81572
 Alpha virt. eigenvalues -- 8687.730948704.10886******************************
 Alpha virt. eigenvalues -- **************************************************
 Alpha virt. eigenvalues -- **************************************************
 Alpha virt. eigenvalues -- **************************************************
 Alpha virt. eigenvalues -- **************************************************
 Alpha virt. eigenvalues -- **************************************************
 Alpha virt. eigenvalues -- **************************************************
 Alpha virt. eigenvalues -- **************************************************
 Alpha virt. eigenvalues -- **********
          Condensed to atoms (all electrons):
               1          2          3          4          5          6
     1  C    4.668915   0.166059  -0.045359  -0.008483  -0.000143   0.000545
     2  C    0.166059   5.320898   0.395343   0.007956  -0.000880  -0.003095
     3  H   -0.045359   0.395343   0.485325   0.000212   0.000087  -0.000130
     4  C   -0.008483   0.007956   0.000212   5.053416   0.388105   0.407190
     5  H   -0.000143  -0.000880   0.000087   0.388105   0.542995  -0.013019
     6  H    0.000545  -0.003095  -0.000130   0.407190  -0.013019   0.557742
     7  H   -0.005037   0.001481   0.000758   0.390035  -0.008747  -0.026120
     8  O    0.687112  -0.096653   0.004910  -0.012731   0.000379  -0.000217
     9  N   -0.062261   0.319615  -0.030017  -0.003268   0.001091  -0.005684
    10  H    0.004759  -0.044767   0.001973   0.005033   0.000016   0.004967
    11  N    0.341171  -0.107369   0.002364  -0.000040   0.000029  -0.000065
    12  H   -0.026146   0.009445  -0.000085   0.000131  -0.000001  -0.000004
    13  C   -0.047863   0.010846  -0.001202   0.000037  -0.000008   0.000002
    14  H    0.004156   0.001019   0.000113  -0.000055  -0.000002   0.000000
    15  H   -0.012117  -0.000651  -0.000272   0.000023   0.000000   0.000000
    16  H    0.006632   0.000602  -0.000175   0.000003   0.000000   0.000000
    17  C   -0.009167  -0.059003   0.003625  -0.000183   0.000037   0.000322
    18  C   -0.005576   0.015686   0.002205  -0.000134   0.000006   0.000175
    19  H    0.000430  -0.000085  -0.000279   0.000157  -0.000005   0.000134
    20  H   -0.000117  -0.000648   0.000185   0.000027   0.000001  -0.000026
    21  H    0.000720  -0.000512  -0.000181  -0.000034  -0.000004  -0.000003
    22  O   -0.002326   0.018810   0.016524  -0.000022   0.000000   0.000020
    23  C    0.003524  -0.005978   0.005529   0.329985  -0.032572  -0.049730
    24  H   -0.000206   0.006379  -0.000297  -0.039198  -0.005460  -0.004987
    25  C    0.000864  -0.010565  -0.000261  -0.052399  -0.006191   0.008195
    26  H    0.016303  -0.001886  -0.000231  -0.002427  -0.001465   0.000340
    27  H   -0.000720  -0.000294  -0.000036   0.008226  -0.000057  -0.000533
    28  H   -0.000406   0.000073   0.000026  -0.005429   0.005371  -0.000236
    29  C   -0.014552   0.276856  -0.031378  -0.040955   0.008102   0.001774
    30  H    0.009370  -0.049519  -0.012050  -0.000806  -0.000830   0.001952
    31  H   -0.004927  -0.041501  -0.006494   0.006908  -0.000453  -0.000141
               7          8          9         10         11         12
     1  C   -0.005037   0.687112  -0.062261   0.004759   0.341171  -0.026146
     2  C    0.001481  -0.096653   0.319615  -0.044767  -0.107369   0.009445
[...]
 Alpha virt. eigenvalues --    4.53827   4.55667   4.56239   4.57781   4.58409
 Alpha virt. eigenvalues --    4.59730   4.64305   4.66350   4.67691   4.67864
 Alpha virt. eigenvalues --    4.68840   4.70544   4.71036   4.72155   4.72598
 Alpha virt. eigenvalues --    4.73334   4.74961   4.77389   4.78422   4.79443
 Alpha virt. eigenvalues --    4.80533   4.81246   4.82335   4.82594   4.83114
 Alpha virt. eigenvalues --    4.84933   4.85743   4.87962   4.89413   4.90350
 Alpha virt. eigenvalues --    4.91768   4.93977   4.94551   4.95357   4.95670
 Alpha virt. eigenvalues --    4.96600   4.97601   4.99948   5.01042   5.02121
 Alpha virt. eigenvalues --    5.03229   5.04172   5.05104   5.05705   5.07532
 Alpha virt. eigenvalues --    5.07945   5.09751   5.10578   5.12736   5.13710
 Alpha virt. eigenvalues --    5.14388   5.14766   5.15734   5.16440   5.18107
 Alpha virt. eigenvalues --    5.19359   5.19901   5.20754   5.22401   5.23877
 Alpha virt. eigenvalues --    5.24826   5.26501   5.27039   5.27378   5.28201
 Alpha virt. eigenvalues --    5.29972   5.30296   5.31014   5.33064   5.34653
 Alpha virt. eigenvalues --    5.35464   5.36864   5.37980   5.39554   5.40563
 Alpha virt. eigenvalues --    5.43471   5.46955   5.48219   5.51698   5.55340
 Alpha virt. eigenvalues --    5.58819   5.59737   5.62465   5.63124   5.70971
 Alpha virt. eigenvalues --    5.73194   5.75137   5.75648   5.78397   5.78685
 Alpha virt. eigenvalues --    5.80844   5.81768   5.82923   5.84499   5.87836
 Alpha virt. eigenvalues --    5.89542   5.92020   5.93557   5.95779   5.97998
 Alpha virt. eigenvalues --    6.00145   6.01159   6.04320   6.06658   6.08611
 Alpha virt. eigenvalues --    6.21965   6.27512   6.36442   6.41223   6.50545
 Alpha virt. eigenvalues --    6.53457   6.55322   6.59393   6.67372   6.68893
 Alpha virt. eigenvalues --    6.88456   6.89808   6.92503   6.96234   7.10250
 Alpha virt. eigenvalues --    7.14367   7.17774   7.18048   9.49859  10.03701
 Alpha virt. eigenvalues --   11.61026  12.10227  12.36775  12.66892  12.96307
 Alpha virt. eigenvalues --   13.43379  13.57195  13.58263  13.69647  13.76143
 Alpha virt. eigenvalues --   13.95070
          Condensed to atoms (all electrons):
               1          2          3          4          5          6
     1  C    4.841915   0.129918  -0.053500  -0.004862  -0.000219   0.000710
     2  C    0.129918   5.451586   0.434194  -0.002643  -0.000954  -0.003341
     3  H   -0.053500   0.434194   0.453201   0.000125   0.000085  -0.000134
     4  C   -0.004862  -0.002643   0.000125   5.223416   0.395091   0.401678
     5  H   -0.000219  -0.000954   0.000085   0.395091   0.530615  -0.018110
     6  H    0.000710  -0.003341  -0.000134   0.401678  -0.018110   0.556770
     7  H   -0.004095   0.000127   0.000610   0.388062  -0.015538  -0.031103
     8  O    0.683048  -0.091950   0.002910  -0.011878   0.000377  -0.000207
     9  N   -0.064474   0.272990  -0.035317  -0.002979   0.001011  -0.005092
    10  H    0.005599  -0.042021   0.000510   0.002816   0.000172   0.004511
    11  N    0.335882  -0.080734  -0.001871  -0.000198   0.000030  -0.000060
    12  H   -0.020676   0.006439  -0.001202   0.000133  -0.000001  -0.000004
    13  C   -0.068390   0.010225  -0.001036   0.000032  -0.000009   0.000002
    14  H    0.003988   0.000916   0.000120  -0.000026  -0.000002   0.000001
    15  H   -0.011313  -0.000623  -0.000270   0.000017   0.000000   0.000000
    16  H    0.007384   0.000606  -0.000127   0.000002   0.000000   0.000000
    17  C   -0.008544  -0.070622   0.002714  -0.000074   0.000042   0.000225
    18  C   -0.004148   0.012192   0.001997   0.000010   0.000006   0.000167
    19  H    0.000258   0.000775  -0.000265   0.000118  -0.000007   0.000115
    20  H   -0.000163  -0.000573   0.000171   0.000021   0.000001  -0.000024
    21  H    0.000682  -0.000537  -0.000162  -0.000034  -0.000004  -0.000003
    22  O    0.000659   0.016566   0.015943  -0.000005   0.000000   0.000021
    23  C   -0.003054  -0.008971   0.005223   0.245320  -0.032747  -0.048297
    24  H   -0.000210   0.007294  -0.000125  -0.036863  -0.005841  -0.005379
    25  C    0.002072  -0.002856  -0.000480  -0.064453  -0.007886   0.008651
    26  H    0.016100  -0.001208  -0.000138  -0.003776  -0.001116   0.000259
    27  H   -0.001128   0.000409  -0.000048   0.008177  -0.000101  -0.000417
    28  H   -0.000277  -0.000339   0.000021  -0.006610   0.005124  -0.000274
    29  C   -0.029097   0.197606  -0.032665  -0.038707   0.008465   0.002537
    30  H    0.010400  -0.046672  -0.011105  -0.001001  -0.000733   0.001642
    31  H   -0.002652  -0.045478  -0.008781   0.006785  -0.000334  -0.000076
               7          8          9         10         11         12
     1  C   -0.004095   0.683048  -0.064474   0.005599   0.335882  -0.020676
     2  C    0.000127  -0.091950   0.272990  -0.042021  -0.080734   0.006439
     3  H    0.000610   0.002910  -0.035317   0.000510  -0.001871  -0.001202
     4  C    0.388062  -0.011878  -0.002979   0.002816  -0.000198   0.000133
     5  H   -0.015538   0.000377   0.001011   0.000172   0.000030  -0.000001
     6  H   -0.031103  -0.000207  -0.005092   0.004511  -0.000060  -0.000004
     7  H    0.483597   0.026152   0.002236  -0.005087   0.001078  -0.000170
     8  O    0.026152   7.853180   0.004987  -0.001450  -0.112473   0.004999
     9  N    0.002236   0.004987   6.534398   0.393131   0.005206   0.000660
    10  H   -0.005087  -0.001450   0.393131   0.484918  -0.000245  -0.000017
    11  N    0.001078  -0.112473   0.005206  -0.000245   6.401883   0.383494
    12  H   -0.000170   0.004999   0.000660  -0.000017   0.383494   0.535636
    13  C   -0.000225   0.007796  -0.000329   0.000039   0.300328  -0.032260
    14  H    0.000218   0.003382  -0.000024  -0.000005  -0.059293   0.002271
    15  H   -0.000083   0.004621  -0.000034   0.000006  -0.038152   0.003046
    16  H   -0.000006   0.001415   0.000007   0.000000  -0.027062  -0.008115
    17  C    0.001232   0.014728   0.330974  -0.021399  -0.000520  -0.000098
    18  C    0.000076  -0.000110  -0.065130  -0.003631  -0.000109   0.000000
    19  H    0.000006   0.000027   0.012539  -0.001082   0.000013   0.000001
    20  H    0.000020   0.000029  -0.000535  -0.000273   0.000004   0.000001
    21  H   -0.000021   0.000185  -0.000885   0.000588   0.000001  -0.000002
    22  O   -0.000121  -0.003430  -0.136066   0.004182  -0.004258  -0.000235
    23  C   -0.027489   0.003997  -0.001439  -0.001550  -0.004842  -0.000182
    24  H    0.005157  -0.000015   0.000004  -0.000958  -0.000190   0.000019
    25  C   -0.006420  -0.006567   0.000014   0.000163   0.005578   0.000289
    26  H    0.001190   0.003502   0.000060  -0.000041  -0.010762   0.000470
    27  H    0.000065   0.000098  -0.000047  -0.000002  -0.000092   0.000056
    28  H   -0.000443  -0.000102   0.000009   0.000018   0.000423  -0.000001
    29  C   -0.006966  -0.001899  -0.050773   0.002314   0.005468  -0.001590
    30  H   -0.000600  -0.000574   0.001482   0.002720   0.000359  -0.000154
    31  H   -0.000419  -0.000104   0.004398   0.000404   0.000720   0.002509
              13         14         15         16         17         18
     1  C   -0.068390   0.003988  -0.011313   0.007384  -0.008544  -0.004148
     2  C    0.010225   0.000916  -0.000623   0.000606  -0.070622   0.012192
     3  H   -0.001036   0.000120  -0.000270  -0.000127   0.002714   0.001997
     4  C    0.000032  -0.000026   0.000017   0.000002  -0.000074   0.000010
     5  H   -0.000009  -0.000002   0.000000   0.000000   0.000042   0.000006
     6  H    0.000002   0.000001   0.000000   0.000000   0.000225   0.000167
     7  H   -0.000225   0.000218  -0.000083  -0.000006   0.001232   0.000076
     8  O    0.007796   0.003382   0.004621   0.001415   0.014728  -0.000110
     9  N   -0.000329  -0.000024  -0.000034   0.000007   0.330974  -0.065130
    10  H    0.000039  -0.000005   0.000006   0.000000  -0.021399  -0.003631
    11  N    0.300328  -0.059293  -0.038152  -0.027062  -0.000520  -0.000109
    12  H   -0.032260   0.002271   0.003046  -0.008115  -0.000098   0.000000
    13  C    4.780962   0.390007   0.406586   0.393950  -0.000266  -0.000008
    14  H    0.390007   0.624254  -0.055584  -0.027100  -0.000032   0.000000
    15  H    0.406586  -0.055584   0.590273  -0.026235   0.000098   0.000002
    16  H    0.393950  -0.027100  -0.026235   0.597938  -0.000010   0.000000
    17  C   -0.000266  -0.000032   0.000098  -0.000010   4.540114   0.281298
    18  C   -0.000008   0.000000   0.000002   0.000000   0.281298   5.000284
    19  H    0.000000   0.000000   0.000000   0.000000  -0.054660   0.393254
    20  H    0.000000   0.000000   0.000000   0.000000  -0.025695   0.384716
    21  H    0.000002   0.000000   0.000001   0.000000  -0.025055   0.388951
    22  O   -0.000258   0.000004   0.000110  -0.000003   0.724502  -0.071062
    23  C    0.000133   0.000458  -0.000089  -0.000006  -0.000870  -0.000119
    24  H   -0.000010   0.000012  -0.000001   0.000000   0.000071   0.000005
    25  C   -0.000886  -0.002034   0.000214  -0.000026   0.000066   0.000001
    26  H   -0.000472   0.003136  -0.000128  -0.000018  -0.000003   0.000001
    27  H    0.000154   0.000099  -0.000008   0.000019  -0.000006   0.000000
    28  H   -0.000027  -0.000165   0.000008  -0.000004   0.000001   0.000000
    29  C   -0.000442  -0.000343   0.000062  -0.000011   0.009608   0.000322
    30  H    0.000078  -0.000026   0.000011   0.000002  -0.000827  -0.000122
    31  H    0.000125  -0.000101   0.000045   0.000003  -0.000204   0.000033
              19         20         21         22         23         24
     1  C    0.000258  -0.000163   0.000682   0.000659  -0.003054  -0.000210
     2  C    0.000775  -0.000573  -0.000537   0.016566  -0.008971   0.007294
     3  H   -0.000265   0.000171  -0.000162   0.015943   0.005223  -0.000125
     4  C    0.000118   0.000021  -0.000034  -0.000005   0.245320  -0.036863
     5  H   -0.000007   0.000001  -0.000004   0.000000  -0.032747  -0.005841
     6  H    0.000115  -0.000024  -0.000003   0.000021  -0.048297  -0.005379
     7  H    0.000006   0.000020  -0.000021  -0.000121  -0.027489   0.005157
     8  O    0.000027   0.000029   0.000185  -0.003430   0.003997  -0.000015
     9  N    0.012539  -0.000535  -0.000885  -0.136066  -0.001439   0.000004
    10  H   -0.001082  -0.000273   0.000588   0.004182  -0.001550  -0.000958
    11  N    0.000013   0.000004   0.000001  -0.004258  -0.004842  -0.000190
    12  H    0.000001   0.000001  -0.000002  -0.000235  -0.000182   0.000019
    13  C    0.000000   0.000000   0.000002  -0.000258   0.000133  -0.000010
    14  H    0.000000   0.000000   0.000000   0.000004   0.000458   0.000012
    15  H    0.000000   0.000000   0.000001   0.000110  -0.000089  -0.000001
    16  H    0.000000   0.000000   0.000000  -0.000003  -0.000006   0.000000
    17  C   -0.054660  -0.025695  -0.025055   0.724502  -0.000870   0.000071
    18  C    0.393254   0.384716   0.388951  -0.071062  -0.000119   0.000005
    19  H    0.602302  -0.026619  -0.024995   0.004540   0.000060   0.000000
    20  H   -0.026619   0.578328  -0.025629   0.002072   0.000001   0.000000
    21  H   -0.024995  -0.025629   0.564541   0.001300   0.000004   0.000000
    22  O    0.004540   0.002072   0.001300   7.850582  -0.000089   0.000001
    23  C    0.000060   0.000001   0.000004  -0.000089   5.199368   0.451010
    24  H    0.000000   0.000000   0.000000   0.000001   0.451010   0.540105
    25  C    0.000002   0.000000   0.000000  -0.000003   0.263343  -0.038299
    26  H    0.000000   0.000000   0.000000   0.000009  -0.027816   0.006369
    27  H    0.000000   0.000000   0.000000   0.000000  -0.040106  -0.005539
    28  H    0.000000   0.000000   0.000000   0.000000  -0.036431  -0.006816
    29  C   -0.000257   0.000006  -0.000002   0.002193   0.238473  -0.054387
    30  H   -0.000023  -0.000035   0.000019  -0.000123  -0.049598  -0.009574
    31  H   -0.000006  -0.000003   0.000000   0.000096  -0.045589  -0.002611
              25         26         27         28         29         30
     1  C    0.002072   0.016100  -0.001128  -0.000277  -0.029097   0.010400
     2  C   -0.002856  -0.001208   0.000409  -0.000339   0.197606  -0.046672
     3  H   -0.000480  -0.000138  -0.000048   0.000021  -0.032665  -0.011105
     4  C   -0.064453  -0.003776   0.008177  -0.006610  -0.038707  -0.001001
     5  H   -0.007886  -0.001116  -0.000101   0.005124   0.008465  -0.000733
     6  H    0.008651   0.000259  -0.000417  -0.000274   0.002537   0.001642
     7  H   -0.006420   0.001190   0.000065  -0.000443  -0.006966  -0.000600
     8  O   -0.006567   0.003502   0.000098  -0.000102  -0.001899  -0.000574
     9  N    0.000014   0.000060  -0.000047   0.000009  -0.050773   0.001482
    10  H    0.000163  -0.000041  -0.000002   0.000018   0.002314   0.002720
    11  N    0.005578  -0.010762  -0.000092   0.000423   0.005468   0.000359
    12  H    0.000289   0.000470   0.000056  -0.000001  -0.001590  -0.000154
    13  C   -0.000886  -0.000472   0.000154  -0.000027  -0.000442   0.000078
    14  H   -0.002034   0.003136   0.000099  -0.000165  -0.000343  -0.000026
    15  H    0.000214  -0.000128  -0.000008   0.000008   0.000062   0.000011
    16  H   -0.000026  -0.000018   0.000019  -0.000004  -0.000011   0.000002
    17  C    0.000066  -0.000003  -0.000006   0.000001   0.009608  -0.000827
    18  C    0.000001   0.000001   0.000000   0.000000   0.000322  -0.000122
    19  H    0.000002   0.000000   0.000000   0.000000  -0.000257  -0.000023
    20  H    0.000000   0.000000   0.000000   0.000000   0.000006  -0.000035
    21  H    0.000000   0.000000   0.000000   0.000000  -0.000002   0.000019
    22  O   -0.000003   0.000009   0.000000   0.000000   0.002193  -0.000123
    23  C    0.263343  -0.027816  -0.040106  -0.036431   0.238473  -0.049598
    24  H   -0.038299   0.006369  -0.005539  -0.006816  -0.054387  -0.009574
    25  C    5.174027   0.386052   0.399728   0.409581  -0.058218   0.008054
    26  H    0.386052   0.525139  -0.030516  -0.027706  -0.007065  -0.000141
    27  H    0.399728  -0.030516   0.543280  -0.014262  -0.005237   0.000396
    28  H    0.409581  -0.027706  -0.014262   0.524048   0.009269  -0.000352
    29  C   -0.058218  -0.007065  -0.005237   0.009269   5.390042   0.413904
    30  H    0.008054  -0.000141   0.000396  -0.000352   0.413904   0.489542
    31  H   -0.009593   0.000171   0.004291   0.000398   0.427374   0.000627
              31
     1  C   -0.002652
     2  C   -0.045478
     3  H   -0.008781
     4  C    0.006785
     5  H   -0.000334
     6  H   -0.000076
     7  H   -0.000419
     8  O   -0.000104
     9  N    0.004398
    10  H    0.000404
    11  N    0.000720
    12  H    0.002509
    13  C    0.000125
    14  H   -0.000101
    15  H    0.000045
    16  H    0.000003
    17  C   -0.000204
    18  C    0.000033
    19  H   -0.000006
    20  H   -0.000003
    21  H    0.000000
    22  O    0.000096
    23  C   -0.045589
    24  H   -0.002611
    25  C   -0.009593
    26  H    0.000171
    27  H    0.004291
    28  H    0.000398
    29  C    0.427374
    30  H    0.000627
    31  H    0.473761
 Mulliken charges:
               1
     1  C    0.238187
     2  C   -0.142320
     3  H    0.229403
     4  C   -0.497694
     5  H    0.142588
     6  H    0.135235
     7  H    0.188963
     8  O   -0.384672
     9  N   -0.200981
    10  H    0.175672
    11  N   -0.099605
    12  H    0.124684
    13  C   -0.185799
    14  H    0.115869
    15  H    0.127418
    16  H    0.087398
    17  C    0.303212
    18  C   -0.318872
    19  H    0.093904
    20  H    0.114182
    21  H    0.121056
    22  O   -0.407126
    23  C   -0.078106
    24  H    0.156769
    25  C   -0.460116
    26  H    0.168449
    27  H    0.140737
    28  H    0.144913
    29  C   -0.419985
    30  H    0.192425
    31  H    0.194210
 Sum of Mulliken charges =   0.00000
 Mulliken charges with hydrogens summed into heavy atoms:
               1
     1  C    0.238187
     2  C    0.087083
     4  C   -0.030908
     8  O   -0.384672
     9  N   -0.025309
    11  N    0.025079
    13  C    0.144887
    17  C    0.303212
    18  C    0.010270
    22  O   -0.407126
    23  C    0.078663
    25  C   -0.006016
    29  C   -0.033351
 Electronic spatial extent (au):  <R**2>=           2740.8426
 Charge=              0.0000 electrons
 Dipole moment (field-independent basis, Debye):
    X=              2.5784    Y=             -2.5263    Z=              2.5296  Tot=              4.4079
 Quadrupole moment (field-independent basis, Debye-Ang):
   XX=            -78.1101   YY=            -75.8404   ZZ=            -81.5515
   XY=             12.0963   XZ=              4.1734   YZ=              2.6800
 Traceless Quadrupole moment (field-independent basis, Debye-Ang):
   XX=              0.3906   YY=              2.6603   ZZ=             -3.0509
   XY=             12.0963   XZ=              4.1734   YZ=              2.6800
 Octapole moment (field-independent basis, Debye-Ang**2):
  XXX=            -13.4620  YYY=             20.3722  ZZZ=              9.4490  XYY=             19.1342
  XXY=            -12.7116  XXZ=             -8.6966  XZZ=             -0.5272  YZZ=              4.8590
  YYZ=              0.3935  XYZ=              5.9054
 Hexadecapole moment (field-independent basis, Debye-Ang**3):
 XXXX=          -1926.0947 YYYY=          -1229.1164 ZZZZ=           -383.2817 XXXY=             71.5032
 XXXZ=             18.1707 YYYX=             57.3266 YYYZ=             -2.6664 ZZZX=              7.9185
 ZZZY=             12.2784 XXYY=           -542.7550 XXZZ=           -379.2548 YYZZ=           -271.7473
 XXYZ=             -2.1275 YYXZ=              5.9382 ZZXY=              4.5052
 N-N= 8.867378672536D+02 E-N=-3.203225673483D+03  KE= 6.091093481016D+02
 Calculating spin-rotation constants.
 Leave Link  601 at Wed Jun 18 13:44:03 2014, MaxMem=  4294967296 cpu:        69.4
 (Enter /home/ztw1e12/g09/l9999.exe)

 Test job not archived.
 1\1\GINC-GREEN0605\SP\RM06\Gen\C9H18N2O2\ROOT\18-Jun-2014\0\\#P Geom=A
 llCheck Guess=TCheck SCRF=Check GenChk RM06/ChkBas NMR=ReadFC IOp(3/6=
 22)\\NMR spin-spin scan\\0,1\C,0,0.238016,0.891404,0.406604\C,0,0.0897
 02,0.018172,-0.835855\H,0,0.554633,0.57786,-1.653749\C,0,-1.872448,-1.
 826189,0.699809\H,0,-2.691193,-2.185475,1.326761\H,0,-1.461337,-2.7027
 62,0.192147\H,0,-1.108979,-1.415304,1.361047\O,0,0.474548,0.441508,1.5
 23931\N,0,0.811325,-1.223244,-0.704466\H,0,0.302567,-2.087951,-0.61604
 4\N,0,0.080344,2.200678,0.179576\H,0,-0.146129,2.508004,-0.753052\C,0,
 0.046452,3.1575,1.261217\H,0,-0.757568,2.931534,1.964379\H,0,0.987974,
 3.160859,1.810609\H,0,-0.118736,4.148288,0.849098\C,0,2.151739,-1.2437
 55,-0.614064\C,0,2.790383,-2.585701,-0.468217\H,0,2.074149,-3.404474,-
 0.467252\H,0,3.499028,-2.726722,-1.28402\H,0,3.357558,-2.603969,0.4622
 58\O,0,2.820971,-0.211749,-0.660036\C,0,-2.397094,-0.779622,-0.268595\
 H,0,-3.163984,-1.247191,-0.892726\C,0,-3.072771,0.32312,0.536852\H,0,-
 2.363062,0.808822,1.214654\H,0,-3.496452,1.093224,-0.111051\H,0,-3.879
 211,-0.080779,1.152661\C,0,-1.371062,-0.180138,-1.245138\H,0,-1.329232
 ,-0.810067,-2.139206\H,0,-1.744513,0.787415,-1.587791\\Version=EM64L-G
 09RevD.01\State=1-A\HF=-613.5794607\RMSD=6.882e-09\Dipole=-1.4633785,-
 0.0649542,-0.9282799\Quadrupole=-6.9871339,10.2533035,-3.2661696,-3.93
 98657,0.9613922,0.5408229\PG=C01 [X(C9H18N2O2)]\\@


 THEREFORE SHALL EVIL COME UPON THEE...
 THOU SHALT NOT KNOW FROM WHENCE IT RISETH...
 AND MISCHIEF SHALL FALL UPON THEE...
 THOU SHALT NOT BE ABLE TO PUT IT OFF...
 AND DESOLATION SHALL COME UPON THEE SUDDENLY...
 WHICH THOU SHALT NOT KNOW...

                                         ISAIAH 47.11
 Job cpu time:       2 days 15 hours 43 minutes 57.2 seconds.
 File lengths (MBytes):  RWF=   2456 Int=      0 D2E=      0 Chk=     48 Scr=      8
 Normal termination of Gaussian 09 at Wed Jun 18 13:44:04 2014.
