 Entering Gaussian System, Link 0=g09
 Input=scan_input_22.gjf
 Output=scan_input_22.log
 Initial command:
 /home/ztw1e12/g09/l1.exe "/home/ztw1e12/leucine_scan/leucine_chi2_scan/Gau-12089.inp" -scrdir="/home/ztw1e12/leucine_scan/leucine_chi2_scan/"
 Default is to use a total of   8 processors:
                                8 via shared-memory
                                1 via Linda
 Entering Link 1 = /home/ztw1e12/g09/l1.exe PID=     12090.
  
 Copyright (c) 1988,1990,1992,1993,1995,1998,2003,2009,2013,
            Gaussian, Inc.  All Rights Reserved.
  
 This is part of the Gaussian(R) 09 program.  It is based on
 the Gaussian(R) 03 system (copyright 2003, Gaussian, Inc.),
 the Gaussian(R) 98 system (copyright 1998, Gaussian, Inc.),
 the Gaussian(R) 94 system (copyright 1995, Gaussian, Inc.),
 the Gaussian 92(TM) system (copyright 1992, Gaussian, Inc.),
 the Gaussian 90(TM) system (copyright 1990, Gaussian, Inc.),
 the Gaussian 88(TM) system (copyright 1988, Gaussian, Inc.),
 the Gaussian 86(TM) system (copyright 1986, Carnegie Mellon
 University), and the Gaussian 82(TM) system (copyright 1983,
 Carnegie Mellon University). Gaussian is a federally registered
 trademark of Gaussian, Inc.
  
 This software contains proprietary and confidential information,
 including trade secrets, belonging to Gaussian, Inc.
  
 This software is provided under written license and may be
 used, copied, transmitted, or stored only in accord with that
 written license.
  
 The following legend is applicable only to US Government
 contracts under FAR:
  
                    RESTRICTED RIGHTS LEGEND
  
 Use, reproduction and disclosure by the US Government is
 subject to restrictions as set forth in subparagraphs (a)
 and (c) of the Commercial Computer Software - Restricted
 Rights clause in FAR 52.227-19.
  
 Gaussian, Inc.
 340 Quinnipiac St., Bldg. 40, Wallingford CT 06492
  
  
 ---------------------------------------------------------------
 Warning -- This program may not be used in any manner that
 competes with the business of Gaussian, Inc. or will provide
 assistance to any competitor of Gaussian, Inc.  The licensee
 of this program is prohibited from giving any competitor of
 Gaussian, Inc. access to this program.  By using this program,
 the user acknowledges that Gaussian, Inc. is engaged in the
 business of creating and licensing software in the field of
 computational chemistry and represents and warrants to the
 licensee that it is not a competitor of Gaussian, Inc. and that
 it will not use this program in any manner prohibited above.
 ---------------------------------------------------------------
  

 Cite this work as:
 Gaussian 09, Revision D.01,
 M. J. Frisch, G. W. Trucks, H. B. Schlegel, G. E. Scuseria, 
 M. A. Robb, J. R. Cheeseman, G. Scalmani, V. Barone, B. Mennucci, 
 G. A. Petersson, H. Nakatsuji, M. Caricato, X. Li, H. P. Hratchian, 
 A. F. Izmaylov, J. Bloino, G. Zheng, J. L. Sonnenberg, M. Hada, 
 M. Ehara, K. Toyota, R. Fukuda, J. Hasegawa, M. Ishida, T. Nakajima, 
 Y. Honda, O. Kitao, H. Nakai, T. Vreven, J. A. Montgomery, Jr., 
 J. E. Peralta, F. Ogliaro, M. Bearpark, J. J. Heyd, E. Brothers, 
 K. N. Kudin, V. N. Staroverov, T. Keith, R. Kobayashi, J. Normand, 
 K. Raghavachari, A. Rendell, J. C. Burant, S. S. Iyengar, J. Tomasi, 
 M. Cossi, N. Rega, J. M. Millam, M. Klene, J. E. Knox, J. B. Cross, 
 V. Bakken, C. Adamo, J. Jaramillo, R. Gomperts, R. E. Stratmann, 
 O. Yazyev, A. J. Austin, R. Cammi, C. Pomelli, J. W. Ochterski, 
 R. L. Martin, K. Morokuma, V. G. Zakrzewski, G. A. Voth, 
 P. Salvador, J. J. Dannenberg, S. Dapprich, A. D. Daniels, 
 O. Farkas, J. B. Foresman, J. V. Ortiz, J. Cioslowski, 
 and D. J. Fox, Gaussian, Inc., Wallingford CT, 2013.
 
 ******************************************
 Gaussian 09:  EM64L-G09RevD.01 24-Apr-2013
                18-Jun-2014 
 ******************************************
 %Mem=32GB
 %NProcShared=16
 Will use up to   16 processors via shared memory.
 Default route:  MaxDisk=100GB
 ----------------------------------------------------------------------
 #p nmr=(giao,mixed,spinspin) m06/cc-pvtz scf=tight integral=(grid=ultr
 afine)
 ----------------------------------------------------------------------
 1/38=1/1;
 2/12=2,17=6,18=5,40=1/2;
 3/5=16,6=1,10=1100000,11=2,16=1,25=1,30=1,74=-54,75=-5/1,2,8,3;
 4//1;
 5/5=2,32=2,38=5/2;
 8/6=1,10=90,11=11/1;
 10/13=100,45=16,47=3/2;
 6/7=2,8=2,9=2,10=2,28=1/1;
 99/9=1/99;
 Leave Link    1 at Wed Jun 18 06:29:23 2014, MaxMem=  4294967296 cpu:         5.6
 (Enter /home/ztw1e12/g09/l101.exe)
 ------------------
 NMR spin-spin scan
 ------------------
 Symbolic Z-matrix:
 Charge =  0 Multiplicity = 1
 C                     0.53204   0.84976   0.49966 
 C                     0.21232   0.0718   -0.77725 
 H                     0.68819   0.64347  -1.58007 
 C                    -1.80913  -0.84081   1.27365 
 H                    -2.56067  -1.39349   1.8413 
 H                    -0.85411  -1.3425    1.42777 
 H                    -1.74435   0.15807   1.7186 
 O                     1.21034   0.38226   1.40848 
 N                     0.83353  -1.2314   -0.76643 
 H                     0.29062  -2.02316  -0.45736 
 N                     0.06146   2.10158   0.53434 
 H                    -0.50658   2.43958  -0.22533 
 C                     0.22769   2.93377   1.7039 
 H                    -0.22462   2.46877   2.58199 
 H                     1.28238   3.10903   1.91695 
 H                    -0.25523   3.88984   1.52591 
 C                     2.15228  -1.40421  -0.96661 
 C                     2.66471  -2.7991   -0.81886 
 H                     1.87899  -3.53255  -0.6491 
 H                     3.22653  -3.06753  -1.71268 
 H                     3.35929  -2.8233    0.02144 
 O                     2.89945  -0.47354  -1.26322 
 C                    -2.22215  -0.77948  -0.18615 
 H                    -2.2617   -1.81832  -0.53751 
 C                    -3.61437  -0.19573  -0.32276 
 H                    -3.6352    0.8245    0.07366 
 H                    -3.93063  -0.15247  -1.36731 
 H                    -4.3494   -0.78539   0.22823 
 C                    -1.26808  -0.02513  -1.12678 
 H                    -1.34423  -0.45285  -2.1286 
 H                    -1.63373   1.00181  -1.22953 
 
 NAtoms=     31 NQM=       31 NQMF=       0 NMMI=      0 NMMIF=      0
                NMic=       0 NMicF=      0.
                    Isotopes and Nuclear Properties:
 (Nuclear quadrupole moments (NQMom) in fm**2, nuclear magnetic moments (NMagM)
  in nuclear magnetons)

  Atom         1           2           3           4           5           6           7           8           9          10
 IAtWgt=          12          12           1          12           1           1           1          16          14           1
 AtmWgt=  12.0000000  12.0000000   1.0078250  12.0000000   1.0078250   1.0078250   1.0078250  15.9949146  14.0030740   1.0078250
 NucSpn=           0           0           1           0           1           1           1           0           2           1
 AtZEff=   0.0000000   0.0000000   0.0000000   0.0000000   0.0000000   0.0000000   0.0000000   0.0000000   0.0000000   0.0000000
 NQMom=    0.0000000   0.0000000   0.0000000   0.0000000   0.0000000   0.0000000   0.0000000   0.0000000   2.0440000   0.0000000
 NMagM=    0.0000000   0.0000000   2.7928460   0.0000000   2.7928460   2.7928460   2.7928460   0.0000000   0.4037610   2.7928460
 AtZNuc=   6.0000000   6.0000000   1.0000000   6.0000000   1.0000000   1.0000000   1.0000000   8.0000000   7.0000000   1.0000000

  Atom        11          12          13          14          15          16          17          18          19          20
 IAtWgt=          14           1          12           1           1           1          12          12           1           1
 AtmWgt=  14.0030740   1.0078250  12.0000000   1.0078250   1.0078250   1.0078250  12.0000000  12.0000000   1.0078250   1.0078250
 NucSpn=           2           1           0           1           1           1           0           0           1           1
 AtZEff=   0.0000000   0.0000000   0.0000000   0.0000000   0.0000000   0.0000000   0.0000000   0.0000000   0.0000000   0.0000000
 NQMom=    2.0440000   0.0000000   0.0000000   0.0000000   0.0000000   0.0000000   0.0000000   0.0000000   0.0000000   0.0000000
 NMagM=    0.4037610   2.7928460   0.0000000   2.7928460   2.7928460   2.7928460   0.0000000   0.0000000   2.7928460   2.7928460
 AtZNuc=   7.0000000   1.0000000   6.0000000   1.0000000   1.0000000   1.0000000   6.0000000   6.0000000   1.0000000   1.0000000

  Atom        21          22          23          24          25          26          27          28          29          30
 IAtWgt=           1          16          12           1          12           1           1           1          12           1
 AtmWgt=   1.0078250  15.9949146  12.0000000   1.0078250  12.0000000   1.0078250   1.0078250   1.0078250  12.0000000   1.0078250
 NucSpn=           1           0           0           1           0           1           1           1           0           1
 AtZEff=   0.0000000   0.0000000   0.0000000   0.0000000   0.0000000   0.0000000   0.0000000   0.0000000   0.0000000   0.0000000
 NQMom=    0.0000000   0.0000000   0.0000000   0.0000000   0.0000000   0.0000000   0.0000000   0.0000000   0.0000000   0.0000000
 NMagM=    2.7928460   0.0000000   0.0000000   2.7928460   0.0000000   2.7928460   2.7928460   2.7928460   0.0000000   2.7928460
 AtZNuc=   1.0000000   8.0000000   6.0000000   1.0000000   6.0000000   1.0000000   1.0000000   1.0000000   6.0000000   1.0000000

  Atom        31
 IAtWgt=           1
 AtmWgt=   1.0078250
 NucSpn=           1
 AtZEff=   0.0000000
 NQMom=    0.0000000
 NMagM=    2.7928460
 AtZNuc=   1.0000000
 Leave Link  101 at Wed Jun 18 06:29:23 2014, MaxMem=  4294967296 cpu:         1.6
 (Enter /home/ztw1e12/g09/l202.exe)
                          Input orientation:                          
 ---------------------------------------------------------------------
 Center     Atomic      Atomic             Coordinates (Angstroms)
 Number     Number       Type             X           Y           Z
 ---------------------------------------------------------------------
      1          6           0        0.532044    0.849759    0.499663
      2          6           0        0.212317    0.071802   -0.777248
      3          1           0        0.688186    0.643467   -1.580066
      4          6           0       -1.809132   -0.840811    1.273653
      5          1           0       -2.560672   -1.393492    1.841296
      6          1           0       -0.854109   -1.342497    1.427774
      7          1           0       -1.744352    0.158071    1.718598
      8          8           0        1.210338    0.382262    1.408483
      9          7           0        0.833531   -1.231398   -0.766430
     10          1           0        0.290620   -2.023164   -0.457364
     11          7           0        0.061463    2.101578    0.534341
     12          1           0       -0.506577    2.439583   -0.225334
     13          6           0        0.227687    2.933773    1.703897
     14          1           0       -0.224616    2.468773    2.581985
     15          1           0        1.282377    3.109030    1.916949
     16          1           0       -0.255229    3.889836    1.525908
     17          6           0        2.152277   -1.404213   -0.966605
     18          6           0        2.664712   -2.799096   -0.818861
     19          1           0        1.878994   -3.532549   -0.649096
     20          1           0        3.226527   -3.067528   -1.712682
     21          1           0        3.359291   -2.823302    0.021443
     22          8           0        2.899447   -0.473542   -1.263218
     23          6           0       -2.222152   -0.779479   -0.186152
     24          1           0       -2.261701   -1.818317   -0.537507
     25          6           0       -3.614370   -0.195725   -0.322759
     26          1           0       -3.635198    0.824499    0.073659
     27          1           0       -3.930631   -0.152467   -1.367307
     28          1           0       -4.349405   -0.785392    0.228228
     29          6           0       -1.268080   -0.025126   -1.126776
     30          1           0       -1.344227   -0.452854   -2.128602
     31          1           0       -1.633734    1.001814   -1.229528
 ---------------------------------------------------------------------
                    Distance matrix (angstroms):
                    1          2          3          4          5
     1  C    0.000000
     2  C    1.529034   0.000000
     3  H    2.095760   1.094426   0.000000
     4  C    2.989681   3.020813   4.072271   0.000000
     5  H    4.049327   4.085747   5.139066   1.092011   0.000000
     6  H    2.754777   2.828361   3.920437   1.089730   1.756690
     7  H    2.673240   3.172577   4.127231   1.095417   1.757493
     8  O    1.226617   2.422778   3.045044   3.260565   4.190602
     9  N    2.454608   1.443729   2.048963   3.361274   4.283354
    10  H    3.037741   2.120693   2.920520   2.967042   3.716206
    11  N    1.337797   2.421366   2.643783   3.564177   4.560618
    12  H    2.032706   2.535312   2.547310   3.834657   4.814845
    13  C    2.426093   3.787769   4.030133   4.310595   5.149665
    14  H    2.744049   4.149798   4.635474   3.895609   4.574152
    15  H    2.770560   4.198628   4.319859   5.056926   5.920089
    16  H    3.303793   4.483359   4.590862   4.985706   5.773049
    17  C    3.139345   2.444979   2.590925   4.585732   5.486011
    18  C    4.427293   3.775980   4.041946   5.313076   6.029660
    19  H    4.726367   3.973107   4.441153   4.954260   5.521617
    20  H    5.244030   4.451504   4.498027   6.263731   6.994629
    21  H    4.659764   4.350055   4.660270   5.675464   6.356271
    22  O    3.234729   2.784643   2.497554   5.361093   6.348009
    23  C    3.272668   2.645886   3.526732   1.518347   2.145263
    24  H    3.999920   3.122626   3.981098   2.107282   2.434864
    25  C    4.354557   3.862857   4.560379   2.494705   2.688505
    26  H    4.189036   4.011729   4.632411   2.747319   3.032924
    27  H    4.940193   4.190762   4.691721   3.456768   3.702980
    28  H    5.155186   4.749218   5.539755   2.747539   2.484218
    29  C    2.578987   1.524185   2.116475   2.592323   3.514637
    30  H    3.482093   2.127029   2.373502   3.455718   4.257303
    31  H    2.775575   2.115983   2.375416   3.113189   4.003332
                    6          7          8          9         10
     6  H    0.000000
     7  H    1.768846   0.000000
     8  O    2.690187   2.979367   0.000000
     9  N    2.770380   3.840764   2.734251   0.000000
    10  H    2.308129   3.692385   3.180148   1.008547   0.000000
    11  N    3.673982   2.905280   2.245013   3.660167   4.248469
    12  H    4.142182   3.242878   3.138427   3.945222   4.539325
    13  C    4.419617   3.404949   2.750106   4.880391   5.407979
    14  H    4.031655   2.897305   2.791008   5.101257   5.447991
    15  H    4.961850   4.231854   2.774706   5.122626   5.741111
    16  H    5.267409   4.022522   3.803255   5.715527   6.260582
    17  C    3.843854   4.983449   3.117657   1.345000   2.026868
    18  C    4.421668   5.884164   4.146963   2.411151   2.523700
    19  H    4.071802   5.688171   4.472860   2.530228   2.199531
    20  H    5.430450   6.847467   5.070280   3.161202   3.359475
    21  H    4.682231   6.149479   4.100917   3.087777   3.207214
    22  O    4.699543   5.554730   3.274672   2.255915   3.139539
    23  C    2.189358   2.176089   3.959102   3.142953   2.816795
    24  H    2.463747   3.043644   4.548019   3.158693   2.561782
    25  C    3.463884   2.790928   5.158399   4.588386   4.313537
    26  H    3.776765   2.593309   5.045448   4.990190   4.878854
    27  H    4.323614   3.794609   5.866899   4.921624   4.706003
    28  H    3.737161   3.146049   5.802341   5.296328   4.850974
    29  C    2.903888   2.890770   3.568762   2.449839   2.621033
    30  H    3.698580   3.915901   4.442318   2.684078   2.816316
    31  H    3.628342   3.068483   3.928319   3.359924   3.667406
                   11         12         13         14         15
    11  N    0.000000
    12  H    1.006987   0.000000
    13  C    1.445005   2.122569   0.000000
    14  H    2.099886   2.821594   1.091715   0.000000
    15  H    2.101712   2.870173   1.090173   1.767266   0.000000
    16  H    2.069146   2.287632   1.085792   1.770778   1.768277
    17  C    4.349128   4.732204   5.445526   5.765599   5.425954
    18  C    5.711801   6.152488   6.720802   6.903942   6.655934
    19  H    6.037162   6.444911   7.076490   7.133087   7.145006
    20  H    6.464240   6.817371   7.528723   7.810581   7.423194
    21  H    5.949216   6.534814   6.766203   6.885261   6.564989
    22  O    4.232802   4.600489   5.248987   5.762167   5.056006
    23  C    3.746264   3.647889   4.833450   4.712099   5.641388
    24  H    4.680975   4.616018   5.814061   5.679796   6.547029
    25  C    4.418594   4.075870   5.353736   5.198800   6.317897
    26  H    3.938078   3.533576   4.693463   4.541740   5.727071
    27  H    4.963245   4.443756   6.020696   6.016839   6.971309
    28  H    5.280536   5.037212   6.079437   5.757052   7.052324
    29  C    3.008299   2.732632   4.359485   4.589472   5.058856
    30  H    3.948715   3.562342   5.350533   5.655003   5.996044
    31  H    2.682239   2.084723   3.975215   4.320326   4.779579
                   16         17         18         19         20
    16  H    0.000000
    17  C    6.327374   0.000000
    18  C    7.665886   1.493357   0.000000
    19  H    8.023550   2.169173   1.088176   0.000000
    20  H    8.427099   2.115954   1.089315   1.778568   0.000000
    21  H    7.771383   2.108776   1.090475   1.773114   1.756264
    22  O    6.063850   1.229793   2.379234   3.282681   2.652878
    23  C    5.348125   4.487207   5.325468   4.961160   6.103570
    24  H    6.392701   4.454078   5.030967   4.482901   5.749975
    25  C    5.602964   5.926989   6.815462   6.435677   7.548312
    26  H    4.788477   6.288416   7.322288   7.064882   8.088397
    27  H    6.182191   6.223279   7.127692   6.759625   7.735747
    28  H    6.348544   6.639460   7.372193   6.863638   8.146780
    29  C    4.836272   3.691392   4.822507   4.736483   5.459028
    30  H    5.779301   3.805373   4.826165   4.697086   5.282168
    31  H    4.222958   4.493548   5.752582   5.765120   6.357289
                   21         22         23         24         25
    21  H    0.000000
    22  O    2.717201   0.000000
    23  C    5.947505   5.242561   0.000000
    24  H    5.737418   5.382613   1.097360   0.000000
    25  C    7.460200   6.587219   1.515817   2.123355   0.000000
    26  H    7.888730   6.795126   2.153357   3.040476   1.094732
    27  H    7.887011   6.838413   2.169602   2.499790   1.092233
    28  H    7.976204   7.407261   2.167245   2.451896   1.091591
    29  C    5.528179   4.193802   1.537555   2.133086   2.486086
    30  H    5.689007   4.331061   2.156513   2.288631   2.912170
    31  H    6.413013   4.767341   2.146596   2.970921   2.485809
                   26         27         28         29         30
    26  H    0.000000
    27  H    1.765822   0.000000
    28  H    1.767974   1.766833   0.000000
    29  C    2.786782   2.676425   3.450885   0.000000
    30  H    3.424928   2.712801   3.833578   1.091973   0.000000
    31  H    2.394910   2.574312   3.562868   1.094928   1.734418
                   31
    31  H    0.000000
 Stoichiometry    C9H18N2O2
 Framework group  C1[X(C9H18N2O2)]
 Deg. of freedom    87
 Full point group                 C1      NOp   1
 Largest Abelian subgroup         C1      NOp   1
 Largest concise Abelian subgroup C1      NOp   1
                         Standard orientation:                         
 ---------------------------------------------------------------------
 Center     Atomic      Atomic             Coordinates (Angstroms)
 Number     Number       Type             X           Y           Z
 ---------------------------------------------------------------------
      1          6           0       -0.135433    1.174858    0.047668
      2          6           0        0.229678   -0.085495   -0.737283
      3          1           0        0.604741    0.281521   -1.697698
      4          6           0       -1.661767   -0.986940    1.438755
      5          1           0       -2.226930   -1.564709    2.173100
      6          1           0       -0.655881   -0.854478    1.836445
      7          1           0       -2.135229   -0.001134    1.375852
      8          8           0        0.426841    1.492521    1.090514
      9          7           0        1.316318   -0.798255   -0.108362
     10          1           0        1.097945   -1.561922    0.513163
     11          7           0       -1.080335    1.938449   -0.512500
     12          1           0       -1.529106    1.631119   -1.359952
     13          6           0       -1.575502    3.124776    0.147409
     14          1           0       -1.993494    2.881919    1.126257
     15          1           0       -0.781462    3.858218    0.288972
     16          1           0       -2.354116    3.568376   -0.465718
     17          6           0        2.589746   -0.369062   -0.164928
     18          6           0        3.585868   -1.153315    0.624252
     19          1           0        3.165724   -2.043718    1.087704
     20          1           0        4.411263   -1.436989   -0.027561
     21          1           0        3.993302   -0.507567    1.402804
     22          8           0        2.925000    0.607567   -0.832904
     23          6           0       -1.684938   -1.707225    0.102330
     24          1           0       -1.195957   -2.675641    0.267454
     25          6           0       -3.111247   -1.981571   -0.331350
     26          1           0       -3.656323   -1.039608   -0.449825
     27          1           0       -3.145656   -2.507547   -1.287978
     28          1           0       -3.642333   -2.586706    0.405759
     29          6           0       -0.934885   -1.017979   -1.049380
     30          1           0       -0.572610   -1.778876   -1.743785
     31          1           0       -1.659613   -0.432604   -1.624683
 ---------------------------------------------------------------------
 Rotational constants (GHZ):      0.9202442      0.5854845      0.4258703
 Leave Link  202 at Wed Jun 18 06:29:23 2014, MaxMem=  4294967296 cpu:         1.6
 (Enter /home/ztw1e12/g09/l301.exe)
 Standard basis: CC-pVTZ (5D, 7F)
 Converting basis for Fermi contact spin-spin IFCMod=1.
 AO basis functions are being uncontracted.
 Ernie: Thresh=  0.10000D-02 Tol=  0.10000D-05 Strict=F.
 There are  1119 symmetry adapted cartesian basis functions of A   symmetry.
 There are  1036 symmetry adapted basis functions of A   symmetry.
  1036 basis functions,  1119 primitive gaussians,  1119 cartesian basis functions
    51 alpha electrons       51 beta electrons
       nuclear repulsion energy       877.9375686846 Hartrees.
 IExCor= 4235 DFT=T Ex+Corr=M06 ExCW=0 ScaHFX=  0.270000
 ScaDFX=  1.000000  1.000000  1.000000  1.000000 ScalE2=  1.000000  1.000000
 IRadAn= 199590 IRanWt=     -1 IRanGd=            0 ICorTp=0 IEmpDi=  4
 NAtoms=   31 NActive=   31 NUniq=   31 SFac= 1.00D+00 NAtFMM=   60 NAOKFM=F Big=F
 Integral buffers will be    131072 words long.
 Raffenetti 2 integral format.
 Two-electron integral symmetry is turned on.
 Leave Link  301 at Wed Jun 18 06:29:24 2014, MaxMem=  4294967296 cpu:         4.6
 (Enter /home/ztw1e12/g09/l302.exe)
 NPDir=0 NMtPBC=     1 NCelOv=     1 NCel=       1 NClECP=     1 NCelD=      1
         NCelK=      1 NCelE2=     1 NClLst=     1 CellRange=     0.0.
 One-electron integrals computed using PRISM.
 GSVD:  received Info=                   1 from GESDD.
 NBasis=  1036 RedAO= T EigKep=  1.28D-04  NBF=  1036
 NBsUse=   932 1.00D-06 EigRej=  5.35D-15 NBFU=   932
 Precomputing XC quadrature grid using
 IXCGrd= 4 IRadAn=      199590 IRanWt=          -1 IRanGd=           0 AccXCQ= 0.00D+00.
 Generated NRdTot=       0 NPtTot=           0 NUsed=           0 NTot=          32
 NSgBfM=   880   880   880   880   880 MxSgAt=    31 MxSgA2=    31.
 Leave Link  302 at Wed Jun 18 06:29:28 2014, MaxMem=  4294967296 cpu:        64.2
 (Enter /home/ztw1e12/g09/l308.exe)
 Leave Link  308 at Wed Jun 18 06:29:28 2014, MaxMem=  4294967296 cpu:         5.3
 (Enter /home/ztw1e12/g09/l303.exe)
 DipDrv:  MaxL=1.
 Leave Link  303 at Wed Jun 18 06:29:28 2014, MaxMem=  4294967296 cpu:         3.3
 (Enter /home/ztw1e12/g09/l401.exe)
 ExpMin= 1.03D-01 ExpMax= 1.38D+05 ExpMxC= 1.38D+05 IAcc=4 IRadAn=    199590 AccDes= 0.00D+00
 Harris functional with IExCor= 1009 and IRadAn=  199590 diagonalized for initial guess.
 HarFok:  IExCor= 1009 AccDes= 0.00D+00 IRadAn=    199590 IDoV= 1 UseB2=F ITyADJ=14
 ICtDFT=  3500011 ScaDFX=  1.000000  1.000000  1.000000  1.000000
 FoFCou: FMM=F IPFlag=           0 FMFlag=      100000 FMFlg1=           0
         NFxFlg=           0 DoJE=T BraDBF=F KetDBF=T FulRan=T
         wScrn=  0.000000 ICntrl=     500 IOpCl=  0 I1Cent=   200000004 NGrid=           0
         NMat0=    1 NMatS0=      1 NMatT0=    0 NMatD0=    1 NMtDS0=    0 NMtDT0=    0
 Petite list used in FoFCou.
 Harris En= -613.560587261534    
 JPrj=0 DoOrth=F DoCkMO=F.
 Leave Link  401 at Wed Jun 18 06:29:45 2014, MaxMem=  4294967296 cpu:       257.3
 (Enter /home/ztw1e12/g09/l502.exe)
 Closed shell SCF:
 Using DIIS extrapolation, IDIIS=  1040.
 Integral symmetry usage will be decided dynamically.
 IVT=     3801329 IEndB=     3801329 NGot=  4294967296 MDV=  4292435888
 LenX=  4292435888 LenY=  4291182608
 Requested convergence on RMS density matrix=1.00D-08 within 128 cycles.
 Requested convergence on MAX density matrix=1.00D-06.
 Requested convergence on             energy=1.00D-06.
 No special actions if energy rises.
 Fock matrices will be formed incrementally for  20 cycles.
 Integral accuracy reduced to 1.0D-05 until final iterations.

 Cycle   1  Pass 0  IDiag  1:
 FoFJK:  IHMeth= 1 ICntrl=       0 DoSepK=F KAlg= 0 I1Cent=   0 FoldK=F
 IRaf= 480000000 NMat=   1 IRICut=       1 DoRegI=T DoRafI=F ISym2E= 0.
 FoFCou: FMM=F IPFlag=           0 FMFlag=      100000 FMFlg1=           0
         NFxFlg=           0 DoJE=F BraDBF=F KetDBF=F FulRan=T
         wScrn=  0.000000 ICntrl=       0 IOpCl=  0 I1Cent=           0 NGrid=           0
         NMat0=    1 NMatS0=      1 NMatT0=    0 NMatD0=    1 NMtDS0=    0 NMtDT0=    0
 Symmetry not used in FoFCou.
 E= -613.179147298443    
 DIIS: error= 1.34D-01 at cycle   1 NSaved=   1.
 NSaved= 1 IEnMin= 1 EnMin= -613.179147298443     IErMin= 1 ErrMin= 1.34D-01
 ErrMax= 1.34D-01  0.00D+00 EMaxC= 1.00D-01 BMatC= 1.30D+01 BMatP= 1.30D+01
 IDIUse=3 WtCom= 0.00D+00 WtEn= 1.00D+00
 Coeff-Com:  0.100D+01
 Coeff-En:   0.100D+01
 Coeff:      0.100D+01
 Gap=     0.285 Goal=   None    Shift=    0.000
 GapD=    0.285 DampG=1.000 DampE=0.250 DampFc=0.2500 IDamp=-1.
 Damping current iteration by 2.50D-01
 RMSDP=2.14D-03 MaxDP=3.05D-01              OVMax= 2.87D-01

 Cycle   2  Pass 0  IDiag  1:
 RMSU=  5.35D-04    CP:  1.01D+00
 E= -613.336097510480     Delta-E=       -0.156950212038 Rises=F Damp=T
 DIIS: error= 1.01D-01 at cycle   2 NSaved=   2.
 NSaved= 2 IEnMin= 2 EnMin= -613.336097510480     IErMin= 2 ErrMin= 1.01D-01
 ErrMax= 1.01D-01  0.00D+00 EMaxC= 1.00D-01 BMatC= 7.66D+00 BMatP= 1.30D+01
 IDIUse=3 WtCom= 0.00D+00 WtEn= 1.00D+00
 Coeff-Com: -0.279D+01 0.379D+01
 Coeff-En:   0.000D+00 0.100D+01
 Coeff:      0.000D+00 0.100D+01
 Gap=     0.216 Goal=   None    Shift=    0.000
 RMSDP=5.89D-04 MaxDP=5.91D-02 DE=-1.57D-01 OVMax= 1.36D-01

 Cycle   3  Pass 0  IDiag  1:
 RMSU=  4.35D-04    CP:  1.03D+00  1.74D+00
 E= -613.526501719193     Delta-E=       -0.190404208713 Rises=F Damp=F
 DIIS: error= 1.73D-02 at cycle   3 NSaved=   3.
 NSaved= 3 IEnMin= 3 EnMin= -613.526501719193     IErMin= 3 ErrMin= 1.73D-02
 ErrMax= 1.73D-02  0.00D+00 EMaxC= 1.00D-01 BMatC= 2.30D-01 BMatP= 7.66D+00
 IDIUse=3 WtCom= 8.27D-01 WtEn= 1.73D-01
 Coeff-Com:  0.121D+01-0.165D+01 0.144D+01
 Coeff-En:   0.135D+00 0.000D+00 0.865D+00
 Coeff:      0.102D+01-0.136D+01 0.134D+01
 Gap=     0.246 Goal=   None    Shift=    0.000
 RMSDP=4.22D-04 MaxDP=3.42D-02 DE=-1.90D-01 OVMax= 6.52D-02

 Cycle   4  Pass 0  IDiag  1:
 RMSU=  2.72D-04    CP:  1.03D+00  1.18D+00  7.18D-01
 E= -613.542242265801     Delta-E=       -0.015740546608 Rises=F Damp=F
 DIIS: error= 7.47D-03 at cycle   4 NSaved=   4.
 NSaved= 4 IEnMin= 4 EnMin= -613.542242265801     IErMin= 4 ErrMin= 7.47D-03
 ErrMax= 7.47D-03  0.00D+00 EMaxC= 1.00D-01 BMatC= 1.01D-01 BMatP= 2.30D-01
 IDIUse=3 WtCom= 9.25D-01 WtEn= 7.47D-02
 Coeff-Com:  0.730D+00-0.101D+01 0.734D+00 0.542D+00
 Coeff-En:   0.000D+00 0.000D+00 0.443D+00 0.557D+00
 Coeff:      0.675D+00-0.931D+00 0.712D+00 0.543D+00
 Gap=     0.275 Goal=   None    Shift=    0.000
 RMSDP=2.71D-04 MaxDP=2.43D-02 DE=-1.57D-02 OVMax= 7.04D-02

 Cycle   5  Pass 0  IDiag  1:
 RMSU=  8.27D-05    CP:  1.02D+00  1.12D+00  8.52D-01  8.80D-02
 E= -613.613148752898     Delta-E=       -0.070906487098 Rises=F Damp=F
 DIIS: error= 2.54D-03 at cycle   5 NSaved=   5.
 NSaved= 5 IEnMin= 5 EnMin= -613.613148752898     IErMin= 5 ErrMin= 2.54D-03
 ErrMax= 2.54D-03  0.00D+00 EMaxC= 1.00D-01 BMatC= 1.34D-02 BMatP= 1.01D-01
 IDIUse=3 WtCom= 9.75D-01 WtEn= 2.54D-02
 Coeff-Com:  0.123D+00-0.176D+00 0.123D+00 0.269D+00 0.661D+00
 Coeff-En:   0.000D+00 0.000D+00 0.000D+00 0.738D-01 0.926D+00
 Coeff:      0.120D+00-0.172D+00 0.120D+00 0.264D+00 0.668D+00
 Gap=     0.265 Goal=   None    Shift=    0.000
 RMSDP=1.49D-04 MaxDP=2.11D-02 DE=-7.09D-02 OVMax= 2.60D-02

 Cycle   6  Pass 0  IDiag  1:
 RMSU=  7.49D-05    CP:  1.03D+00  1.17D+00  9.35D-01  4.83D-01  3.65D-01
 E= -613.620667322964     Delta-E=       -0.007518570066 Rises=F Damp=F
 DIIS: error= 7.75D-04 at cycle   6 NSaved=   6.
 NSaved= 6 IEnMin= 6 EnMin= -613.620667322964     IErMin= 6 ErrMin= 7.75D-04
 ErrMax= 7.75D-04  0.00D+00 EMaxC= 1.00D-01 BMatC= 1.05D-03 BMatP= 1.34D-02
 IDIUse=3 WtCom= 9.92D-01 WtEn= 7.75D-03
 Coeff-Com:  0.556D-01-0.755D-01 0.172D-01 0.447D-01 0.209D+00 0.749D+00
 Coeff-En:   0.000D+00 0.000D+00 0.000D+00 0.000D+00 0.137D-01 0.986D+00
 Coeff:      0.552D-01-0.749D-01 0.170D-01 0.443D-01 0.207D+00 0.751D+00
 Gap=     0.265 Goal=   None    Shift=    0.000
 RMSDP=3.07D-05 MaxDP=3.43D-03 DE=-7.52D-03 OVMax= 8.18D-03

 Cycle   7  Pass 0  IDiag  1:
 RMSU=  2.15D-05    CP:  1.03D+00  1.14D+00  9.33D-01  4.77D-01  5.00D-01
                    CP:  1.08D+00
 E= -613.621245163135     Delta-E=       -0.000577840171 Rises=F Damp=F
 DIIS: error= 4.20D-04 at cycle   7 NSaved=   7.
 NSaved= 7 IEnMin= 7 EnMin= -613.621245163135     IErMin= 7 ErrMin= 4.20D-04
 ErrMax= 4.20D-04  0.00D+00 EMaxC= 1.00D-01 BMatC= 2.32D-04 BMatP= 1.05D-03
 IDIUse=3 WtCom= 9.96D-01 WtEn= 4.20D-03
 Coeff-Com:  0.379D-01-0.509D-01 0.116D-01 0.849D-02 0.625D-01 0.418D+00
 Coeff-Com:  0.512D+00
 Coeff-En:   0.000D+00 0.000D+00 0.000D+00 0.000D+00 0.000D+00 0.116D+00
 Coeff-En:   0.884D+00
 Coeff:      0.378D-01-0.507D-01 0.115D-01 0.845D-02 0.622D-01 0.417D+00
 Coeff:      0.514D+00
 Gap=     0.265 Goal=   None    Shift=    0.000
 RMSDP=1.14D-05 MaxDP=1.31D-03 DE=-5.78D-04 OVMax= 2.74D-03

 Cycle   8  Pass 0  IDiag  1:
 RMSU=  6.78D-06    CP:  1.03D+00  1.14D+00  9.39D-01  4.89D-01  4.86D-01
                    CP:  1.14D+00  6.83D-01
 E= -613.621403006438     Delta-E=       -0.000157843303 Rises=F Damp=F
 DIIS: error= 1.13D-04 at cycle   8 NSaved=   8.
 NSaved= 8 IEnMin= 8 EnMin= -613.621403006438     IErMin= 8 ErrMin= 1.13D-04
 ErrMax= 1.13D-04  0.00D+00 EMaxC= 1.00D-01 BMatC= 2.62D-05 BMatP= 2.32D-04
 IDIUse=3 WtCom= 9.99D-01 WtEn= 1.13D-03
 Coeff-Com:  0.210D-01-0.281D-01 0.802D-02-0.253D-02 0.537D-02 0.168D+00
 Coeff-Com:  0.299D+00 0.529D+00
 Coeff-En:   0.000D+00 0.000D+00 0.000D+00 0.000D+00 0.000D+00 0.000D+00
 Coeff-En:   0.000D+00 0.100D+01
 Coeff:      0.209D-01-0.280D-01 0.802D-02-0.253D-02 0.537D-02 0.168D+00
 Coeff:      0.299D+00 0.530D+00
 Gap=     0.265 Goal=   None    Shift=    0.000
 RMSDP=5.31D-06 MaxDP=6.01D-04 DE=-1.58D-04 OVMax= 1.15D-03

 Initial convergence to 1.0D-05 achieved.  Increase integral accuracy.
 Cycle   9  Pass 1  IDiag  1:
 E= -613.621403782836     Delta-E=       -0.000000776397 Rises=F Damp=F
 DIIS: error= 6.74D-05 at cycle   1 NSaved=   1.
 NSaved= 1 IEnMin= 1 EnMin= -613.621403782836     IErMin= 1 ErrMin= 6.74D-05
 ErrMax= 6.74D-05  0.00D+00 EMaxC= 1.00D-01 BMatC= 1.13D-05 BMatP= 1.13D-05
 IDIUse=1 WtCom= 1.00D+00 WtEn= 0.00D+00
 Coeff-Com:  0.100D+01
 Coeff:      0.100D+01
 Gap=     0.266 Goal=   None    Shift=    0.000
 RMSDP=5.31D-06 MaxDP=6.01D-04 DE=-7.76D-07 OVMax= 1.24D-03

 Cycle  10  Pass 1  IDiag  1:
 RMSU=  2.58D-05    CP:  1.00D+00
 E= -613.621400572848     Delta-E=        0.000003209987 Rises=F Damp=F
 DIIS: error= 1.11D-04 at cycle   2 NSaved=   2.
 NSaved= 2 IEnMin= 1 EnMin= -613.621403782836     IErMin= 1 ErrMin= 6.74D-05
 ErrMax= 1.11D-04  0.00D+00 EMaxC= 1.00D-01 BMatC= 1.30D-05 BMatP= 1.13D-05
 IDIUse=3 WtCom= 4.87D-01 WtEn= 5.13D-01
 Coeff-Com:  0.522D+00 0.478D+00
 Coeff-En:   0.616D+00 0.384D+00
 Coeff:      0.570D+00 0.430D+00
 Gap=     0.265 Goal=   None    Shift=    0.000
 RMSDP=3.62D-06 MaxDP=5.13D-04 DE= 3.21D-06 OVMax= 1.08D-03

 Cycle  11  Pass 1  IDiag  1:
 RMSU=  3.57D-06    CP:  1.00D+00  9.83D-01
 E= -613.621408845499     Delta-E=       -0.000008272651 Rises=F Damp=F
 DIIS: error= 3.97D-05 at cycle   3 NSaved=   3.
 NSaved= 3 IEnMin= 3 EnMin= -613.621408845499     IErMin= 3 ErrMin= 3.97D-05
 ErrMax= 3.97D-05  0.00D+00 EMaxC= 1.00D-01 BMatC= 1.43D-06 BMatP= 1.13D-05
 IDIUse=1 WtCom= 1.00D+00 WtEn= 0.00D+00
 Coeff-Com:  0.554D-01 0.248D+00 0.696D+00
 Coeff:      0.554D-01 0.248D+00 0.696D+00
 Gap=     0.265 Goal=   None    Shift=    0.000
 RMSDP=9.63D-07 MaxDP=9.44D-05 DE=-8.27D-06 OVMax= 2.75D-04

 Cycle  12  Pass 1  IDiag  1:
 RMSU=  4.36D-07    CP:  1.00D+00  1.00D+00  7.93D-01
 E= -613.621409770944     Delta-E=       -0.000000925445 Rises=F Damp=F
 DIIS: error= 8.59D-06 at cycle   4 NSaved=   4.
 NSaved= 4 IEnMin= 4 EnMin= -613.621409770944     IErMin= 4 ErrMin= 8.59D-06
 ErrMax= 8.59D-06  0.00D+00 EMaxC= 1.00D-01 BMatC= 9.25D-08 BMatP= 1.43D-06
 IDIUse=1 WtCom= 1.00D+00 WtEn= 0.00D+00
 Coeff-Com:  0.615D-02 0.102D+00 0.340D+00 0.551D+00
 Coeff:      0.615D-02 0.102D+00 0.340D+00 0.551D+00
 Gap=     0.265 Goal=   None    Shift=    0.000
 RMSDP=2.28D-07 MaxDP=2.08D-05 DE=-9.25D-07 OVMax= 4.78D-05

 Cycle  13  Pass 1  IDiag  1:
 RMSU=  1.80D-07    CP:  1.00D+00  1.00D+00  8.01D-01  6.97D-01
 E= -613.621409833162     Delta-E=       -0.000000062217 Rises=F Damp=F
 DIIS: error= 2.22D-06 at cycle   5 NSaved=   5.
 NSaved= 5 IEnMin= 5 EnMin= -613.621409833162     IErMin= 5 ErrMin= 2.22D-06
 ErrMax= 2.22D-06  0.00D+00 EMaxC= 1.00D-01 BMatC= 7.18D-09 BMatP= 9.25D-08
 IDIUse=1 WtCom= 1.00D+00 WtEn= 0.00D+00
 Coeff-Com: -0.186D-02 0.290D-01 0.107D+00 0.273D+00 0.593D+00
 Coeff:     -0.186D-02 0.290D-01 0.107D+00 0.273D+00 0.593D+00
 Gap=     0.265 Goal=   None    Shift=    0.000
 RMSDP=6.95D-08 MaxDP=8.28D-06 DE=-6.22D-08 OVMax= 1.33D-05

 Cycle  14  Pass 1  IDiag  1:
 RMSU=  3.69D-08    CP:  1.00D+00  1.00D+00  8.05D-01  8.16D-01  8.89D-01
 E= -613.621409838022     Delta-E=       -0.000000004860 Rises=F Damp=F
 DIIS: error= 3.57D-07 at cycle   6 NSaved=   6.
 NSaved= 6 IEnMin= 6 EnMin= -613.621409838022     IErMin= 6 ErrMin= 3.57D-07
 ErrMax= 3.57D-07  0.00D+00 EMaxC= 1.00D-01 BMatC= 2.39D-10 BMatP= 7.18D-09
 IDIUse=1 WtCom= 1.00D+00 WtEn= 0.00D+00
 Coeff-Com: -0.987D-03 0.782D-02 0.299D-01 0.919D-01 0.245D+00 0.627D+00
 Coeff:     -0.987D-03 0.782D-02 0.299D-01 0.919D-01 0.245D+00 0.627D+00
 Gap=     0.265 Goal=   None    Shift=    0.000
 RMSDP=1.85D-08 MaxDP=1.49D-06 DE=-4.86D-09 OVMax= 5.90D-06

 Cycle  15  Pass 1  IDiag  1:
 RMSU=  1.66D-08    CP:  1.00D+00  1.00D+00  8.06D-01  8.27D-01  9.10D-01
                    CP:  8.79D-01
 E= -613.621409838196     Delta-E=       -0.000000000174 Rises=F Damp=F
 DIIS: error= 2.78D-07 at cycle   7 NSaved=   7.
 NSaved= 7 IEnMin= 7 EnMin= -613.621409838196     IErMin= 7 ErrMin= 2.78D-07
 ErrMax= 2.78D-07  0.00D+00 EMaxC= 1.00D-01 BMatC= 1.06D-10 BMatP= 2.39D-10
 IDIUse=1 WtCom= 1.00D+00 WtEn= 0.00D+00
 Coeff-Com: -0.305D-03-0.242D-03-0.144D-03 0.840D-02 0.460D-01 0.411D+00
 Coeff-Com:  0.535D+00
 Coeff:     -0.305D-03-0.242D-03-0.144D-03 0.840D-02 0.460D-01 0.411D+00
 Coeff:      0.535D+00
 Gap=     0.265 Goal=   None    Shift=    0.000
 RMSDP=1.29D-08 MaxDP=2.06D-06 DE=-1.74D-10 OVMax= 2.84D-06

 Cycle  16  Pass 1  IDiag  1:
 RMSU=  5.50D-09    CP:  1.00D+00  1.00D+00  8.06D-01  8.40D-01  9.37D-01
                    CP:  1.05D+00  7.25D-01
 E= -613.621409838228     Delta-E=       -0.000000000032 Rises=F Damp=F
 DIIS: error= 7.88D-08 at cycle   8 NSaved=   8.
 NSaved= 8 IEnMin= 8 EnMin= -613.621409838228     IErMin= 8 ErrMin= 7.88D-08
 ErrMax= 7.88D-08  0.00D+00 EMaxC= 1.00D-01 BMatC= 1.02D-11 BMatP= 1.06D-10
 IDIUse=1 WtCom= 1.00D+00 WtEn= 0.00D+00
 Coeff-Com: -0.309D-04-0.129D-02-0.443D-02-0.841D-02-0.919D-02 0.148D+00
 Coeff-Com:  0.300D+00 0.575D+00
 Coeff:     -0.309D-04-0.129D-02-0.443D-02-0.841D-02-0.919D-02 0.148D+00
 Coeff:      0.300D+00 0.575D+00
 Gap=     0.265 Goal=   None    Shift=    0.000
 RMSDP=3.18D-09 MaxDP=2.91D-07 DE=-3.18D-11 OVMax= 6.18D-07

 SCF Done:  E(RM06) =  -613.621409838     A.U. after   16 cycles
            NFock= 16  Conv=0.32D-08     -V/T= 2.0046
 KE= 6.108027003168D+02 PE=-3.187222596356D+03 EE= 1.084860917516D+03
 Leave Link  502 at Wed Jun 18 06:57:23 2014, MaxMem=  4294967296 cpu:     26456.1
 (Enter /home/ztw1e12/g09/l801.exe)
 DoSCS=F DFT=T ScalE2(SS,OS)=  1.000000  1.000000
 Range of M.O.s used for correlation:     1   932
 NBasis=  1036 NAE=    51 NBE=    51 NFC=     0 NFV=     0
 NROrb=    932 NOA=    51 NOB=    51 NVA=   881 NVB=   881

 **** Warning!!: The largest alpha MO coefficient is  0.10819063D+02

 Leave Link  801 at Wed Jun 18 06:57:23 2014, MaxMem=  4294967296 cpu:         0.4
 (Enter /home/ztw1e12/g09/l1002.exe)
 Minotr:  Closed shell wavefunction.
          IDoAtm=1111111111111111111111111111111
          Direct CPHF calculation.
          Differentiating once with respect to Fermi-contact.
          Electric field/nuclear overlap derivatives assumed to be zero.
          Requested convergence is 1.0D-10 RMS, and 1.0D-09 maximum.
          Secondary convergence is 1.0D-12 RMS, and 1.0D-12 maximum.
          NewPWx=T KeepS1=F KeepF1=F KeepIn=T MapXYZ=F SortEE=F KeepMc=T.
          MDV=    4294966050 using IRadAn=  199590.
 Using stored XC quadrature information.
          Solving linear equations simultaneously, MaxMat=       0.
          There are    31 degrees of freedom in the 1st order CPHF.  IDoFFX=0 NUNeed=    31.
     31 vectors produced by pass  0 Test12= 1.45D-17 3.23D-11 XBig12= 4.16D+01 2.57D+00.
 AX will form    31 AO Fock derivatives at one time.
 FoFJK:  IHMeth= 1 ICntrl=       0 DoSepK=F KAlg= 0 I1Cent=   0 FoldK=F
 IRaf= 510000000 NMat=  31 IRICut=       1 DoRegI=T DoRafI=F ISym2E=-1.
 FoFCou: FMM=F IPFlag=           0 FMFlag=      100000 FMFlg1=           0
         NFxFlg=           0 DoJE=F BraDBF=F KetDBF=F FulRan=T
         wScrn=  0.000000 ICntrl=       0 IOpCl=  0 I1Cent=           0 NGrid=           0
         NMat0=   31 NMatS0=      0 NMatT0=   31 NMatD0=   31 NMtDS0=    0 NMtDT0=    0
 Petite list used in FoFCou.
     31 vectors produced by pass  1 Test12= 1.45D-17 3.23D-11 XBig12= 3.44D-01 1.76D-01.
     31 vectors produced by pass  2 Test12= 1.45D-17 3.23D-11 XBig12= 1.68D-02 4.88D-02.
     31 vectors produced by pass  3 Test12= 1.45D-17 3.23D-11 XBig12= 3.73D-04 6.41D-03.
     31 vectors produced by pass  4 Test12= 1.45D-17 3.23D-11 XBig12= 5.31D-06 8.96D-04.
     31 vectors produced by pass  5 Test12= 1.45D-17 3.23D-11 XBig12= 1.39D-07 1.56D-04.
     31 vectors produced by pass  6 Test12= 1.45D-17 3.23D-11 XBig12= 4.01D-09 1.94D-05.
     31 vectors produced by pass  7 Test12= 1.45D-17 3.23D-11 XBig12= 1.38D-10 4.80D-06.
     31 vectors produced by pass  8 Test12= 1.45D-17 3.23D-11 XBig12= 2.82D-12 3.12D-07.
     31 vectors produced by pass  9 Test12= 1.45D-17 3.23D-11 XBig12= 5.85D-14 8.40D-08.
     31 vectors produced by pass 10 Test12= 1.45D-17 3.23D-11 XBig12= 2.30D-15 8.81D-09.
     30 vectors produced by pass 11 Test12= 1.45D-17 3.23D-11 XBig12= 2.46D-17 6.25D-10.
      5 vectors produced by pass 12 Test12= 1.45D-17 3.23D-11 XBig12= 2.73D-19 4.98D-11.
 InvSVY:  IOpt=1 It=  1 EMax= 7.99D-15
 Solved reduced A of dimension   376 with    31 vectors.
 Max diff in FC couplings:  IJMax=     9     1 Diff= 2.99D-04 IJMaxR=    19    13 DiffR= 1.45D+00
 Fermi Contact (FC) contribution to K (Hz):
                1             2             3             4             5 
      1  0.123400D+11
      2  0.267897D+02  0.123400D+11
      3 -0.128443D+01  0.186953D+02  0.123400D+11
      4  0.235496D+00  0.134862D+01  0.279209D-01  0.123400D+11
      5  0.284016D-01  0.128431D+00  0.255048D-02  0.167944D+02  0.123400D+11
      6  0.532300D-01  0.419112D-01  0.124793D-01  0.177968D+02 -0.860014D+00
      7  0.168699D-01  0.488081D-01  0.372064D-02  0.170077D+02 -0.836409D+00
      8 -0.952031D+01  0.280949D+01  0.354412D+00  0.135058D+01  0.186299D+00
      9  0.116374D+00  0.189572D+02 -0.840636D+00  0.655747D+00  0.387799D-01
     10 -0.496148D-01  0.234054D+00  0.273047D+00  0.185963D-01 -0.834408D-05
     11  0.285555D+02  0.131306D+02  0.340973D-02  0.283945D+00  0.499399D-01
     12  0.480548D+00  0.607622D-01 -0.211995D-01 -0.943209D-02 -0.170632D-02
     13 -0.423982D+00  0.949677D+00 -0.603596D-01  0.452041D-02  0.624039D-03
     14  0.210890D+00 -0.866706D-01  0.323726D-01  0.114554D-01  0.222718D-02
     15  0.157614D+00 -0.804803D-01  0.250288D-01  0.387183D-02  0.173346D-02
     16  0.948283D+00 -0.144716D-01  0.645080D-03  0.253845D-02  0.303236D-03
     17  0.219096D-01 -0.542565D+00  0.385296D+00  0.264523D-01  0.274415D-02
     18 -0.159261D+00  0.882023D+00 -0.842457D-01 -0.273805D-02 -0.258634D-03
     19 -0.171054D-03  0.109125D+00 -0.262911D-02 -0.920601D-03 -0.171079D-04
     20  0.504011D-01  0.258951D-01  0.765768D-02  0.105372D-02  0.125817D-03
     21  0.937482D-01  0.361993D-01  0.167149D-01  0.798013D-03  0.118074D-03
     22  0.435221D+00  0.786411D+00  0.135634D+00  0.683183D-01  0.123229D-02
     23  0.470886D+00 -0.607725D+00  0.110690D+01  0.170209D+02 -0.680005D+00
     24 -0.514958D-02  0.135612D-01 -0.198073D-01 -0.755601D+00  0.133203D+00
     25 -0.754613D-01  0.166927D+01 -0.529253D-01 -0.194120D+00  0.378306D+00
     26  0.535750D-02 -0.126277D-01  0.262679D-02  0.478790D+00 -0.500108D-02
     27  0.107746D-02  0.619204D-02 -0.126725D-02  0.134216D+01  0.953596D-02
     28 -0.431250D-02  0.203657D+00  0.153116D-02  0.253014D+00 -0.945098D-02
     29 -0.577137D-01  0.173358D+02 -0.927738D+00 -0.288890D+00  0.122201D+01
     30  0.108158D+01 -0.870585D+00  0.169048D+00  0.767060D+00  0.802456D-02
     31  0.151663D+00 -0.548961D+00  0.138800D+00  0.160303D-01 -0.189733D-01
                6             7             8             9            10 
      6  0.123400D+11
      7 -0.775153D+00  0.123400D+11
      8  0.196965D+00  0.151894D+00  0.123400D+11
      9  0.185418D+00  0.132295D-01  0.475573D+00  0.123400D+11
     10 -0.149614D-01 -0.762508D-03 -0.107290D-01  0.311698D+02  0.123400D+11
     11 -0.104048D-01  0.789592D-01  0.643619D+01  0.686676D+00  0.681220D-01
     12  0.672372D-03 -0.277135D-03  0.482396D+00  0.326011D-01 -0.159037D-02
     13 -0.249042D-03  0.188517D-01  0.683156D+00  0.253939D+00 -0.212239D-02
     14  0.330920D-03  0.822377D-02  0.254091D+00 -0.722863D-02  0.934184D-03
     15  0.265833D-03  0.195657D-02  0.241813D+00 -0.213303D-02  0.221390D-03
     16  0.229364D-05  0.921910D-03  0.191800D+00  0.323287D-01 -0.556208D-03
     17  0.174330D-01  0.360966D-03  0.135811D+00  0.263320D+02  0.350641D+00
     18  0.120610D-02  0.198041D-03  0.790330D-01  0.129556D+02  0.111872D+00
     19  0.420135D-03  0.430940D-04 -0.149709D-03  0.350733D+00 -0.121168D-01
     20  0.210123D-03 -0.377519D-04  0.623468D-02  0.382218D+00 -0.199699D-02
     21  0.177373D-03  0.102484D-03  0.489164D-02  0.348721D+00 -0.184732D-01
     22 -0.511913D-03  0.123587D-02  0.631032D+00  0.574088D+01  0.380914D+00
     23 -0.566609D+00 -0.724561D+00  0.310121D-01  0.569982D+00 -0.254877D-01
     24  0.147287D+00  0.431128D+00  0.563304D-02  0.268338D-01 -0.657297D-02
     25  0.145580D+01  0.369830D+00  0.638724D-01 -0.250757D-01  0.823574D-03
     26 -0.756541D-02 -0.106912D-01  0.334325D-03  0.372621D-01 -0.422790D-03
     27  0.874563D-01 -0.106809D-01  0.605556D-02 -0.153562D-02 -0.202341D-05
     28  0.103692D-02 -0.348110D-02  0.348332D-04 -0.797068D-02  0.126221D-02
     29  0.184134D+00  0.307249D+00  0.348953D+00  0.997699D+00  0.374047D+00
     30 -0.878873D-02 -0.168876D-01  0.890128D-01  0.354019D+00 -0.853119D-02
     31 -0.376540D-02 -0.823917D-02 -0.203397D-01  0.187179D+01 -0.194015D-01
               11            12            13            14            15 
     11  0.123400D+11
     12  0.312053D+02  0.123400D+11
     13  0.171085D+02  0.312517D+00  0.123400D+11
     14 -0.596361D+00  0.767562D-01  0.197173D+02  0.123400D+11
     15 -0.529686D+00  0.134260D+00  0.202928D+02 -0.733664D+00  0.123400D+11
     16 -0.372648D+00  0.289008D+00  0.182319D+02 -0.735874D+00 -0.752125D+00
     17 -0.658604D-01 -0.976449D-03 -0.145843D-01  0.149554D-02  0.163469D-02
     18  0.103455D-01  0.174477D-02  0.130829D-01 -0.162318D-03  0.784797D-04
     19  0.482151D-02 -0.157687D-04 -0.611772D-05 -0.160593D-04 -0.570715D-05
     20 -0.103345D-02 -0.494650D-04 -0.384053D-03  0.334338D-04  0.103905D-04
     21  0.259001D-01  0.314093D-04  0.364639D-02 -0.445683D-04 -0.114062D-03
     22  0.189763D+00 -0.171292D-02  0.132272D-01  0.594641D-03  0.918052D-03
     23  0.288437D-01  0.334351D-02  0.133782D-02  0.765727D-03 -0.853243D-03
     24  0.600999D-01 -0.375314D-02 -0.612793D-03  0.168583D-02  0.170691D-03
     25  0.938050D-02 -0.233460D-02 -0.122883D-02  0.161759D-02  0.473733D-03
     26  0.119727D-01  0.128203D-02 -0.762703D-03  0.324129D-04  0.295496D-03
     27  0.284886D-02 -0.712733D-04 -0.800256D-04  0.233537D-03  0.638665D-04
     28  0.132057D-03  0.103244D-03 -0.559592D-03  0.231644D-03  0.236787D-03
     29  0.180684D-01 -0.337131D-01 -0.766987D-01  0.418419D-01  0.971335D-01
     30 -0.472787D-01 -0.787814D-02 -0.621382D-02  0.131577D-03  0.321730D-02
     31  0.233903D+00 -0.296851D-01  0.593430D-02 -0.127269D-02  0.125345D-02
               16            17            18            19            20 
     16  0.123400D+11
     17  0.735119D-04  0.123400D+11
     18  0.500297D-03  0.274101D+02  0.123400D+11
     19  0.176217D-04 -0.749528D+00  0.169874D+02  0.123400D+11
     20  0.673266D-04 -0.116186D+01  0.180326D+02 -0.710622D+00  0.123400D+11
     21  0.318104D-03 -0.122178D+01  0.178627D+02 -0.754515D+00 -0.921869D+00
     22  0.784100D-03 -0.952201D+01  0.381853D+01  0.828218D+00  0.426680D+00
     23 -0.104750D-02 -0.608461D-01  0.270140D-01 -0.130991D-02 -0.987344D-03
     24  0.432887D-03  0.747322D-02 -0.715587D-03 -0.372536D-05  0.602326D-04
     25  0.356421D-03  0.158321D-01 -0.237523D-03  0.528828D-03  0.130145D-02
     26  0.972961D-05  0.646171D-02  0.347148D-03  0.290950D-05  0.256305D-04
     27 -0.369799D-05  0.275175D-03 -0.717242D-04  0.493147D-05  0.217005D-04
     28  0.318648D-04  0.515814D-02 -0.510708D-03  0.294989D-04  0.159888D-03
     29  0.544189D-02  0.132239D+01 -0.328202D-01 -0.331519D-02  0.252233D-01
     30  0.899609D-03 -0.193667D-01  0.541747D-02  0.141712D-03 -0.411671D-03
     31  0.972540D-03  0.980626D-01  0.614849D-01 -0.117123D-03  0.335703D-02
               21            22            23            24            25 
     21  0.123400D+11
     22  0.451659D+00  0.123400D+11
     23 -0.727674D-03  0.136160D+00  0.123400D+11
     24 -0.500565D-05 -0.106153D-02  0.164544D+02  0.123400D+11
     25 -0.259617D-03  0.194648D-01  0.176133D+02 -0.786288D+00  0.123400D+11
     26 -0.195794D-04 -0.465813D-03 -0.741188D+00  0.366831D+00  0.171852D+02
     27 -0.604412D-05  0.196013D-03 -0.630999D+00  0.128249D+00  0.172975D+02
     28 -0.553670D-04  0.512309D-02 -0.543153D+00  0.141561D+00  0.175810D+02
     29 -0.461692D-02  0.127722D+00  0.171857D+02 -0.752640D+00  0.269122D+00
     30 -0.749729D-03  0.183190D-03 -0.553352D+00  0.314920D+00 -0.560456D-03
     31 -0.218891D-02  0.260678D-02 -0.739797D+00  0.261343D+00  0.999208D+00
               26            27            28            29            30 
     26  0.123400D+11
     27 -0.756773D+00  0.123400D+11
     28 -0.751297D+00 -0.769709D+00  0.123400D+11
     29  0.378471D+00  0.377868D+00  0.143052D+01  0.123400D+11
     30 -0.618263D-02 -0.718070D-02 -0.217590D-01  0.179935D+02  0.123400D+11
     31 -0.182038D-01  0.507818D-03  0.250126D-01  0.161750D+02 -0.923330D+00
               31 
     31  0.123400D+11
 Fermi Contact (FC) contribution to J (Hz):
                1             2             3             4             5 
      1  0.243533D+11
      2  0.528701D+02  0.243533D+11
      3 -0.100788D+02  0.146700D+03  0.385007D+12
      4  0.464758D+00  0.266154D+01  0.219092D+00  0.243533D+11
      5  0.222865D+00  0.100778D+01  0.795748D-01  0.131784D+03  0.385007D+12
      6  0.417691D+00  0.328873D+00  0.389353D+00  0.139650D+03 -0.268324D+02
      7  0.132377D+00  0.382993D+00  0.116084D+00  0.133458D+03 -0.260959D+02
      8  0.101313D+02 -0.298980D+01 -0.149961D+01 -0.143726D+01 -0.788282D+00
      9  0.660086D-01  0.107527D+02 -0.189587D+01  0.371948D+00  0.874598D-01
     10 -0.389322D+00  0.183660D+01  0.851904D+01  0.145924D+00 -0.260335D-03
     11  0.161970D+02  0.744783D+01  0.768991D-02  0.161057D+00  0.112629D+00
     12  0.377082D+01  0.476795D+00 -0.661422D+00 -0.740127D-01 -0.532370D-01
     13 -0.836739D+00  0.187421D+01 -0.473636D+00  0.892114D-02  0.489677D-02
     14  0.165483D+01 -0.680096D+00  0.101002D+01  0.898893D-01  0.694879D-01
     15  0.123678D+01 -0.631521D+00  0.780897D+00  0.303819D-01  0.540839D-01
     16  0.744108D+01 -0.113557D+00  0.201265D-01  0.199190D-01  0.946095D-02
     17  0.432392D-01 -0.107077D+01  0.302338D+01  0.522042D-01  0.215331D-01
     18 -0.314305D+00  0.174069D+01 -0.661068D+00 -0.540361D-02 -0.202948D-02
     19 -0.134224D-02  0.856294D+00 -0.820280D-01 -0.722387D-02 -0.533764D-03
     20  0.395492D+00  0.203197D+00  0.238919D+00  0.826843D-02  0.392549D-02
     21  0.735633D+00  0.284053D+00  0.521505D+00  0.626193D-02  0.368389D-02
     22 -0.463154D+00 -0.836883D+00 -0.573905D+00 -0.727030D-01 -0.521417D-02
     23  0.929306D+00 -0.119936D+01  0.868575D+01  0.335911D+02 -0.533593D+01
     24 -0.404083D-01  0.106414D+00 -0.617986D+00 -0.592913D+01  0.415593D+01
     25 -0.148925D+00  0.329435D+01 -0.415300D+00 -0.383101D+00  0.296853D+01
     26  0.420398D-01 -0.990883D-01  0.819558D-01  0.375702D+01 -0.156033D+00
     27  0.845471D-02  0.485883D-01 -0.395381D-01  0.105318D+02  0.297521D+00
     28 -0.338398D-01  0.159808D+01  0.477721D-01  0.198538D+01 -0.294870D+00
     29 -0.113899D+00  0.342125D+02 -0.727987D+01 -0.570131D+00  0.958899D+01
     30  0.848708D+01 -0.683140D+01  0.527428D+01  0.601904D+01  0.250366D+00
     31  0.119008D+01 -0.430764D+01  0.433056D+01  0.125788D+00 -0.591966D+00
                6             7             8             9            10 
      6  0.385007D+12
      7 -0.241847D+02  0.385007D+12
      8 -0.833415D+00 -0.642707D+00  0.708114D+10
      9  0.418171D+00  0.298362D-01 -0.145457D+00  0.201170D+10
     10 -0.466796D+00 -0.237902D-01  0.453972D-01  0.702969D+02  0.385007D+12
     11 -0.234657D-01  0.178075D+00 -0.196855D+01  0.111944D+00  0.153634D+00
     12  0.209780D-01 -0.864660D-02 -0.204115D+01  0.735247D-01 -0.496194D-01
     13 -0.195421D-02  0.147928D+00 -0.727001D+00  0.144038D+00 -0.166542D-01
     14  0.103247D-01  0.256581D+00 -0.107513D+01 -0.163026D-01  0.291465D-01
     15  0.829396D-02  0.610450D-01 -0.102318D+01 -0.481059D-02  0.690735D-02
     16  0.715616D-04  0.287635D-01 -0.811557D+00  0.729105D-01 -0.173537D-01
     17  0.136795D+00  0.283247D-02 -0.144527D+00  0.149358D+02  0.275144D+01
     18  0.946419D-02  0.155401D-02 -0.841053D-01  0.734857D+01  0.877850D+00
     19  0.131082D-01  0.134453D-02  0.633460D-03  0.791003D+00 -0.378044D+00
     20  0.655583D-02 -0.117786D-02 -0.263806D-01  0.862011D+00 -0.623059D-01
     21  0.553403D-02  0.319750D-02 -0.206979D-01  0.786465D+00 -0.576364D+00
     22  0.216604D-02 -0.522930D-02  0.362109D+00 -0.175589D+01 -0.161175D+01
     23 -0.444613D+01 -0.568556D+01 -0.330025D-01  0.323301D+00 -0.199999D+00
     24  0.459536D+01  0.134512D+02 -0.238349D-01  0.605178D-01 -0.205076D+00
     25  0.114235D+02  0.290202D+01 -0.679718D-01 -0.142232D-01  0.646250D-02
     26 -0.236040D+00 -0.333564D+00 -0.141462D-02  0.840366D-01 -0.131910D-01
     27  0.272863D+01 -0.333243D+00 -0.256227D-01 -0.346325D-02 -0.631302D-04
     28  0.323519D-01 -0.108610D+00 -0.147389D-03 -0.179762D-01  0.393809D-01
     29  0.144488D+01  0.241095D+01 -0.371349D+00  0.565907D+00  0.293511D+01
     30 -0.274208D+00 -0.526893D+00 -0.376638D+00  0.798414D+00 -0.266173D+00
     31 -0.117480D+00 -0.257062D+00  0.860630D-01  0.422143D+01 -0.605326D+00
               11            12            13            14            15 
     11  0.201170D+10
     12  0.703769D+02  0.385007D+12
     13  0.970418D+01  0.245229D+01  0.243533D+11
     14 -0.134496D+01  0.239479D+01  0.154719D+03  0.385007D+12
     15 -0.119459D+01  0.418890D+01  0.159235D+03 -0.228903D+02  0.385007D+12
     16 -0.840426D+00  0.901704D+01  0.143064D+03 -0.229592D+02 -0.234663D+02
     17 -0.373568D-01 -0.766210D-02 -0.287825D-01  0.117353D-01  0.128273D-01
     18  0.586811D-02  0.136910D-01  0.258194D-01 -0.127370D-02  0.615822D-03
     19  0.108739D-01 -0.491984D-03 -0.480052D-04 -0.501048D-03 -0.178063D-03
     20 -0.233071D-02 -0.154331D-02 -0.301363D-02  0.104313D-02  0.324182D-03
     21  0.584121D-01  0.979968D-03  0.286129D-01 -0.139053D-02 -0.355873D-02
     22 -0.580403D-01  0.724785D-02 -0.140761D-01 -0.251609D-02 -0.388453D-02
     23  0.163605D-01  0.262362D-01  0.264022D-02  0.600858D-02 -0.669532D-02
     24  0.135542D+00 -0.117098D+00 -0.480853D-02  0.525978D-01  0.532554D-02
     25  0.532074D-02 -0.183194D-01 -0.242512D-02  0.126931D-01  0.371733D-02
     26  0.270018D-01  0.399993D-01 -0.598485D-02  0.101128D-02  0.921945D-02
     27  0.642498D-02 -0.222373D-02 -0.627953D-03  0.728633D-02  0.199263D-02
     28  0.297825D-03  0.322120D-02 -0.439107D-02  0.722727D-02  0.738776D-02
     29  0.102486D-01 -0.264543D+00 -0.151367D+00  0.328330D+00  0.762197D+00
     30 -0.106627D+00 -0.245797D+00 -0.487593D-01  0.410519D-02  0.100380D+00
     31  0.527519D+00 -0.926173D+00  0.465658D-01 -0.397077D-01  0.391075D-01
               16            17            18            19            20 
     16  0.385007D+12
     17  0.576841D-03  0.243533D+11
     18  0.392578D-02  0.540946D+02  0.243533D+11
     19  0.549797D-03 -0.588148D+01  0.133299D+03  0.385007D+12
     20  0.210059D-02 -0.911697D+01  0.141500D+03 -0.221714D+02  0.385007D+12
     21  0.992483D-02 -0.958718D+01  0.140167D+03 -0.235408D+02 -0.287623D+02
     22 -0.331774D-02  0.101331D+02 -0.406361D+01 -0.350442D+01 -0.180540D+01
     23 -0.821961D-02 -0.120081D+00  0.533127D-01 -0.102787D-01 -0.774759D-02
     24  0.135061D-01  0.586416D-01 -0.561514D-02 -0.116231D-03  0.187925D-02
     25  0.279680D-02  0.312450D-01 -0.468758D-03  0.414966D-02  0.102124D-01
     26  0.303564D-03  0.507044D-01  0.272403D-02  0.907764D-04  0.799670D-03
     27 -0.115377D-03  0.215927D-02 -0.562813D-03  0.153862D-03  0.677056D-03
     28  0.994180D-03  0.404754D-01 -0.400748D-02  0.920364D-03  0.498850D-02
     29  0.427019D-01  0.260976D+01 -0.647714D-01 -0.260140D-01  0.197925D+00
     30  0.280678D-01 -0.151969D+00  0.425104D-01  0.442141D-02 -0.128441D-01
     31  0.303432D-01  0.769488D+00  0.482466D+00 -0.365424D-02  0.104739D+00
               21            22            23            24            25 
     21  0.385007D+12
     22 -0.191109D+01  0.708114D+10
     23 -0.570998D-02 -0.144899D+00  0.243533D+11
     24 -0.156176D-03  0.449162D-02  0.129116D+03  0.385007D+12
     25 -0.203719D-02 -0.207141D-01  0.347603D+02 -0.616992D+01  0.243533D+11
     26 -0.610878D-03  0.197098D-02 -0.581603D+01  0.114451D+02  0.134850D+03
     27 -0.188576D-03 -0.829385D-03 -0.495139D+01  0.400135D+01  0.135731D+03
     28 -0.172745D-02 -0.216772D-01 -0.426207D+01  0.441670D+01  0.137957D+03
     29 -0.362285D-01 -0.135919D+00  0.339164D+02 -0.590589D+01  0.531119D+00
     30 -0.233915D-01 -0.775129D-03 -0.434210D+01  0.982550D+01 -0.439784D-02
     31 -0.682938D-01 -0.110300D-01 -0.580512D+01  0.815390D+01  0.784069D+01
               26            27            28            29            30 
     26  0.385007D+12
     27 -0.236113D+02  0.385007D+12
     28 -0.234404D+02 -0.240149D+02  0.385007D+12
     29  0.296982D+01  0.296509D+01  0.112252D+02  0.243533D+11
     30 -0.192898D+00 -0.224038D+00 -0.678880D+00  0.141193D+03  0.385007D+12
     31 -0.567957D+00  0.158439D-01  0.780391D+00  0.126924D+03 -0.288079D+02
               31 
     31  0.385007D+12
 End of Minotr F.D. properties file   721 does not exist.
 End of Minotr F.D. properties file   722 does not exist.
 End of Minotr F.D. properties file   788 does not exist.
 Leave Link 1002 at Wed Jun 18 13:38:51 2014, MaxMem=  4294967296 cpu:    384473.6
 (Enter /home/ztw1e12/g09/l601.exe)
 Copying SCF densities to generalized density rwf, IOpCl= 0 IROHF=0.

 **********************************************************************

            Population analysis using the SCF density.

 **********************************************************************

 Orbital symmetries:
       Occupied  (A) (A) (A) (A) (A) (A) (A) (A) (A) (A) (A) (A)
                 (A) (A) (A) (A) (A) (A) (A) (A) (A) (A) (A) (A)
                 (A) (A) (A) (A) (A) (A) (A) (A) (A) (A) (A) (A)
                 (A) (A) (A) (A) (A) (A) (A) (A) (A) (A) (A) (A)
                 (A) (A) (A)
       Virtual   (A) (A) (A) (A) (A) (A) (A) (A) (A) (A) (A) (A)
                 (A) (A) (A) (A) (A) (A) (A) (A) (A) (A) (A) (A)
                 (A) (A) (A) (A) (A) (A) (A) (A) (A) (A) (A) (A)
                 (A) (A) (A) (A) (A) (A) (A) (A) (A) (A) (A) (A)
                 (A) (A) (A) (A) (A) (A) (A) (A) (A) (A) (A) (A)
                 (A) (A) (A) (A) (A) (A) (A) (A) (A) (A) (A) (A)
                 (A) (A) (A) (A) (A) (A) (A) (A) (A) (A) (A) (A)
                 (A) (A) (A) (A) (A) (A) (A) (A) (A) (A) (A) (A)
                 (A) (A) (A) (A) (A) (A) (A) (A) (A) (A) (A) (A)
                 (A) (A) (A) (A) (A) (A) (A) (A) (A) (A) (A) (A)
                 (A) (A) (A) (A) (A) (A) (A) (A) (A) (A) (A) (A)
                 (A) (A) (A) (A) (A) (A) (A) (A) (A) (A) (A) (A)
                 (A) (A) (A) (A) (A) (A) (A) (A) (A) (A) (A) (A)
                 (A) (A) (A) (A) (A) (A) (A) (A) (A) (A) (A) (A)
                 (A) (A) (A) (A) (A) (A) (A) (A) (A) (A) (A) (A)
                 (A) (A) (A) (A) (A) (A) (A) (A) (A) (A) (A) (A)
                 (A) (A) (A) (A) (A) (A) (A) (A) (A) (A) (A) (A)
                 (A) (A) (A) (A) (A) (A) (A) (A) (A) (A) (A) (A)
                 (A) (A) (A) (A) (A) (A) (A) (A) (A) (A) (A) (A)
                 (A) (A) (A) (A) (A) (A) (A) (A) (A) (A) (A) (A)
                 (A) (A) (A) (A) (A) (A) (A) (A) (A) (A) (A) (A)
                 (A) (A) (A) (A) (A) (A) (A) (A) (A) (A) (A) (A)
                 (A) (A) (A) (A) (A) (A) (A) (A) (A) (A) (A) (A)
                 (A) (A) (A) (A) (A) (A) (A) (A) (A) (A) (A) (A)
                 (A) (A) (A) (A) (A) (A) (A) (A) (A) (A) (A) (A)
                 (A) (A) (A) (A) (A) (A) (A) (A) (A) (A) (A) (A)
                 (A) (A) (A) (A) (A) (A) (A) (A) (A) (A) (A) (A)
                 (A) (A) (A) (A) (A) (A) (A) (A) (A) (A) (A) (A)
                 (A) (A) (A) (A) (A) (A) (A) (A) (A) (A) (A) (A)
                 (A) (A) (A) (A) (A) (A) (A) (A) (A) (A) (A) (A)
                 (A) (A) (A) (A) (A) (A) (A) (A) (A) (A) (A) (A)
                 (A) (A) (A) (A) (A) (A) (A) (A) (A) (A) (A) (A)
                 (A) (A) (A) (A) (A) (A) (A) (A) (A) (A) (A) (A)
                 (A) (A) (A) (A) (A) (A) (A) (A) (A) (A) (A) (A)
                 (A) (A) (A) (A) (A) (A) (A) (A) (A) (A) (A) (A)
                 (A) (A) (A) (A) (A) (A) (A) (A) (A) (A) (A) (A)
                 (A) (A) (A) (A) (A) (A) (A) (A) (A) (A) (A) (A)
                 (A) (A) (A) (A) (A) (A) (A) (A) (A) (A) (A) (A)
                 (A) (A) (A) (A) (A) (A) (A) (A) (A) (A) (A) (A)
                 (A) (A) (A) (A) (A) (A) (A) (A) (A) (A) (A) (A)
                 (A) (A) (A) (A) (A) (A) (A) (A) (A) (A) (A) (A)
                 (A) (A) (A) (A) (A) (A) (A) (A) (A) (A) (A) (A)
                 (A) (A) (A) (A) (A) (A) (A) (A) (A) (A) (A) (A)
                 (A) (A) (A) (A) (A) (A) (A) (A) (A) (A) (A) (A)
                 (A) (A) (A) (A) (A) (A) (A) (A) (A) (A) (A) (A)
                 (A) (A) (A) (A) (A) (A) (A) (A) (A) (A) (A) (A)
                 (A) (A) (A) (A) (A) (A) (A) (A) (A) (A) (A) (A)
                 (A) (A) (A) (A) (A) (A) (A) (A) (A) (A) (A) (A)
                 (A) (A) (A) (A) (A) (A) (A) (A) (A) (A) (A) (A)
                 (A) (A) (A) (A) (A) (A) (A) (A) (A) (A) (A) (A)
                 (A) (A) (A) (A) (A) (A) (A) (A) (A) (A) (A) (A)
                 (A) (A) (A) (A) (A) (A) (A) (A) (A) (A) (A) (A)
                 (A) (A) (A) (A) (A) (A) (A) (A) (A) (A) (A) (A)
                 (A) (A) (A) (A) (A) (A) (A) (A) (A) (A) (A) (A)
                 (A) (A) (A) (A) (A) (A) (A) (A) (A) (A) (A) (A)
                 (A) (A) (A) (A) (A) (A) (A) (A) (A) (A) (A) (A)
                 (A) (A) (A) (A) (A) (A) (A) (A) (A) (A) (A) (A)
                 (A) (A) (A) (A) (A) (A) (A) (A) (A) (A) (A) (A)
                 (A) (A) (A) (A) (A) (A) (A) (A) (A) (A) (A) (A)
                 (A) (A) (A) (A) (A) (A) (A) (A) (A) (A) (A) (A)
                 (A) (A) (A) (A) (A) (A) (A) (A) (A) (A) (A) (A)
                 (A) (A) (A) (A) (A) (A) (A) (A) (A) (A) (A) (A)
                 (A) (A) (A) (A) (A) (A) (A) (A) (A) (A) (A) (A)
                 (A) (A) (A) (A) (A) (A) (A) (A) (A) (A) (A) (A)
                 (A) (A) (A) (A) (A) (A) (A) (A) (A) (A) (A) (A)
                 (A) (A) (A) (A) (A) (A) (A) (A) (A) (A) (A) (A)
                 (A) (A) (A) (A) (A) (A) (A) (A) (A) (A) (A) (A)
                 (A) (A) (A) (A) (A) (A) (A) (A) (A) (A) (A) (A)
                 (A) (A) (A) (A) (A) (A) (A) (A) (A) (A) (A) (A)
                 (A) (A) (A) (A) (A) (A) (A) (A) (A) (A) (A) (A)
                 (A) (A) (A) (A) (A) (A) (A) (A) (A) (A) (A) (A)
                 (A) (A) (A) (A) (A) (A) (A) (A) (A) (A) (A) (A)
                 (A) (A) (A) (A) (A) (A) (A) (A) (A) (A) (A) (A)
                 (A) (A) (A) (A) (A)
 The electronic state is 1-A.
 Alpha  occ. eigenvalues --  -19.17231 -19.16096 -14.41981 -14.41251 -10.33560
 Alpha  occ. eigenvalues --  -10.33104 -10.29176 -10.27347 -10.25854 -10.25829
 Alpha  occ. eigenvalues --  -10.23920 -10.23541 -10.23288  -1.05435  -1.03848
 Alpha  occ. eigenvalues --   -0.94432  -0.94103  -0.84091  -0.78621  -0.74189
 Alpha  occ. eigenvalues --   -0.72104  -0.70673  -0.66587  -0.60528  -0.60010
 Alpha  occ. eigenvalues --   -0.58425  -0.55137  -0.50723  -0.49340  -0.48256
 Alpha  occ. eigenvalues --   -0.47391  -0.46664  -0.45342  -0.45169  -0.44184
 Alpha  occ. eigenvalues --   -0.42713  -0.41688  -0.41081  -0.40528  -0.40323
 Alpha  occ. eigenvalues --   -0.39929  -0.38674  -0.38383  -0.36432  -0.35442
 Alpha  occ. eigenvalues --   -0.34757  -0.33580  -0.28241  -0.27591  -0.26300
 Alpha  occ. eigenvalues --   -0.25603
 Alpha virt. eigenvalues --    0.00931   0.02026   0.02515   0.03708   0.04600
 Alpha virt. eigenvalues --    0.04681   0.06676   0.06985   0.07533   0.08120
 Alpha virt. eigenvalues --    0.09774   0.10062   0.11125   0.11462   0.11744
 Alpha virt. eigenvalues --    0.12286   0.12850   0.13104   0.14385   0.15486
 Alpha virt. eigenvalues --    0.16304   0.17174   0.18219   0.19163   0.20449
 Alpha virt. eigenvalues --    0.21334   0.22242   0.22929   0.23977   0.24137
 Alpha virt. eigenvalues --    0.24807   0.26252   0.26858   0.27096   0.27617
 Alpha virt. eigenvalues --    0.28405   0.28787   0.29465   0.30285   0.31738
 Alpha virt. eigenvalues --    0.32841   0.33574   0.34457   0.34696   0.35842
 Alpha virt. eigenvalues --    0.37144   0.37633   0.38191   0.38681   0.39131
 Alpha virt. eigenvalues --    0.39200   0.39439   0.39869   0.41155   0.41420
 Alpha virt. eigenvalues --    0.41620   0.42191   0.42555   0.42791   0.43225
 Alpha virt. eigenvalues --    0.43623   0.44017   0.44834   0.45265   0.45810
 Alpha virt. eigenvalues --    0.46241   0.46751   0.47114   0.49017   0.49565
 Alpha virt. eigenvalues --    0.49818   0.50237   0.51629   0.52001   0.52237
 Alpha virt. eigenvalues --    0.53564   0.54321   0.54822   0.55154   0.56313
 Alpha virt. eigenvalues --    0.57466   0.58353   0.59648   0.59941   0.61172
 Alpha virt. eigenvalues --    0.62991   0.63451   0.64237   0.66046   0.67440
 Alpha virt. eigenvalues --    0.69405   0.70024   0.71478   0.73105   0.73888
 Alpha virt. eigenvalues --    0.74315   0.75842   0.76861   0.77092   0.78237
 Alpha virt. eigenvalues --    0.79863   0.80557   0.81213   0.81970   0.83686
 Alpha virt. eigenvalues --    0.84367   0.84977   0.85160   0.85500   0.86669
 Alpha virt. eigenvalues --    0.87858   0.89092   0.89985   0.90600   0.91889
 Alpha virt. eigenvalues --    0.92364   0.93109   0.93974   0.94842   0.95248
 Alpha virt. eigenvalues --    0.95846   0.96506   0.96881   0.97695   0.98114
 Alpha virt. eigenvalues --    0.98795   0.99804   1.00467   1.01055   1.02003
 Alpha virt. eigenvalues --    1.02761   1.03981   1.04076   1.05475   1.06240
 Alpha virt. eigenvalues --    1.07030   1.07723   1.08318   1.08429   1.10128
 Alpha virt. eigenvalues --    1.11577   1.11805   1.12606   1.13933   1.14782
 Alpha virt. eigenvalues --    1.15232   1.15753   1.16090   1.17671   1.18068
 Alpha virt. eigenvalues --    1.18390   1.18913   1.19591   1.20697   1.21059
 Alpha virt. eigenvalues --    1.21736   1.22238   1.22437   1.23113   1.23738
 Alpha virt. eigenvalues --    1.24574   1.25000   1.26041   1.26355   1.27428
 Alpha virt. eigenvalues --    1.27722   1.28152   1.28672   1.29049   1.29325
 Alpha virt. eigenvalues --    1.30556   1.31169   1.31453   1.32168   1.32787
 Alpha virt. eigenvalues --    1.33631   1.34045   1.35589   1.36609   1.36789
 Alpha virt. eigenvalues --    1.37875   1.39153   1.40418   1.40932   1.42237
 Alpha virt. eigenvalues --    1.43998   1.44692   1.46602   1.47291   1.48219
 Alpha virt. eigenvalues --    1.49862   1.52119   1.53175   1.53901   1.56849
 Alpha virt. eigenvalues --    1.57581   1.59489   1.60202   1.63805   1.64887
 Alpha virt. eigenvalues --    1.65593   1.67873   1.69304   1.70680   1.72122
 Alpha virt. eigenvalues --    1.74188   1.74619   1.77930   1.79077   1.82618
 Alpha virt. eigenvalues --    1.84011   1.87294   1.89399   1.91213   1.92853
 Alpha virt. eigenvalues --    1.93826   1.96211   1.96869   1.98930   2.00382
 Alpha virt. eigenvalues --    2.02060   2.03277   2.03907   2.06515   2.07304
 Alpha virt. eigenvalues --    2.08574   2.10589   2.13877   2.15127   2.15621
 Alpha virt. eigenvalues --    2.16470   2.18612   2.19789   2.21319   2.22455
 Alpha virt. eigenvalues --    2.23570   2.24039   2.26769   2.28012   2.29403
 Alpha virt. eigenvalues --    2.30639   2.33006   2.36347   2.37599   2.38817
 Alpha virt. eigenvalues --    2.39158   2.40309   2.41520   2.42929   2.43667
 Alpha virt. eigenvalues --    2.44712   2.45309   2.47206   2.48296   2.49576
 Alpha virt. eigenvalues --    2.50136   2.51666   2.53039   2.54422   2.55169
 Alpha virt. eigenvalues --    2.55702   2.57348   2.59251   2.61208   2.62863
 Alpha virt. eigenvalues --    2.65811   2.67435   2.68524   2.68986   2.69457
 Alpha virt. eigenvalues --    2.70245   2.71085   2.71169   2.72606   2.73784
 Alpha virt. eigenvalues --    2.73905   2.75229   2.76065   2.76435   2.78976
 Alpha virt. eigenvalues --    2.79715   2.80315   2.80682   2.81776   2.82557
 Alpha virt. eigenvalues --    2.84083   2.85085   2.86235   2.86493   2.87644
 Alpha virt. eigenvalues --    2.88223   2.88822   2.89740   2.89965   2.90740
 Alpha virt. eigenvalues --    2.92096   2.93336   2.93567   2.94466   2.94934
 Alpha virt. eigenvalues --    2.96076   2.97575   2.97924   2.98582   2.99665
 Alpha virt. eigenvalues --    2.99774   3.00340   3.00772   3.01689   3.03149
 Alpha virt. eigenvalues --    3.03704   3.03928   3.05367   3.05691   3.06959
 Alpha virt. eigenvalues --    3.07099   3.08406   3.09078   3.09632   3.10381
 Alpha virt. eigenvalues --    3.11110   3.12013   3.12651   3.14310   3.14629
 Alpha virt. eigenvalues --    3.15075   3.16438   3.17077   3.18922   3.19565
 Alpha virt. eigenvalues --    3.20668   3.21150   3.22152   3.23201   3.24362
 Alpha virt. eigenvalues --    3.25122   3.26712   3.26904   3.27632   3.27733
 Alpha virt. eigenvalues --    3.29184   3.29920   3.30529   3.30979   3.31133
 Alpha virt. eigenvalues --    3.32658   3.32813   3.34204   3.34773   3.35068
 Alpha virt. eigenvalues --    3.36988   3.37091   3.38553   3.38991   3.39893
 Alpha virt. eigenvalues --    3.40227   3.40959   3.42037   3.43056   3.44175
 Alpha virt. eigenvalues --    3.44614   3.45478   3.46179   3.46612   3.47708
 Alpha virt. eigenvalues --    3.49088   3.49922   3.50358   3.51423   3.52899
 Alpha virt. eigenvalues --    3.54561   3.55339   3.57093   3.58646   3.59691
 Alpha virt. eigenvalues --    3.61064   3.62105   3.62825   3.64005   3.65607
 Alpha virt. eigenvalues --    3.67665   3.68426   3.68631   3.70145   3.70227
 Alpha virt. eigenvalues --    3.71938   3.72692   3.73607   3.73857   3.75065
 Alpha virt. eigenvalues --    3.76274   3.76515   3.77827   3.78822   3.79536
 Alpha virt. eigenvalues --    3.81756   3.82989   3.83840   3.84446   3.85718
 Alpha virt. eigenvalues --    3.86680   3.87302   3.88344   3.88585   3.90265
 Alpha virt. eigenvalues --    3.90683   3.91961   3.93792   3.94136   3.94678
 Alpha virt. eigenvalues --    3.95613   3.95814   3.96974   3.98211   3.99065
 Alpha virt. eigenvalues --    4.00889   4.02125   4.03410   4.04793   4.05574
 Alpha virt. eigenvalues --    4.06195   4.07133   4.07321   4.08223   4.09794
 Alpha virt. eigenvalues --    4.10580   4.11970   4.12208   4.14411   4.15250
 Alpha virt. eigenvalues --    4.16445   4.17071   4.18628   4.19080   4.19294
 Alpha virt. eigenvalues --    4.20465   4.21736   4.22597   4.24464   4.24601
 Alpha virt. eigenvalues --    4.25800   4.26748   4.27509   4.29731   4.30257
 Alpha virt. eigenvalues --    4.30854   4.31289   4.32210   4.33334   4.34322
 Alpha virt. eigenvalues --    4.36190   4.38191   4.40749   4.42003   4.42231
 Alpha virt. eigenvalues --    4.44812   4.45287   4.45766   4.47972   4.49482
 Alpha virt. eigenvalues --    4.50934   4.51823   4.52817   4.53933   4.57186
 Alpha virt. eigenvalues --    4.57599   4.58197   4.59836   4.60428   4.60989
 Alpha virt. eigenvalues --    4.62503   4.63187   4.63736   4.64580   4.65577
 Alpha virt. eigenvalues --    4.67505   4.69366   4.70434   4.71418   4.72164
 Alpha virt. eigenvalues --    4.72678   4.74187   4.74448   4.77020   4.77663
 Alpha virt. eigenvalues --    4.78546   4.79176   4.80834   4.81513   4.83196
 Alpha virt. eigenvalues --    4.84316   4.87152   4.88438   4.90409   4.92041
 Alpha virt. eigenvalues --    4.92550   4.93518   4.94846   4.95571   4.96979
 Alpha virt. eigenvalues --    4.97767   4.98492   4.99521   5.01654   5.02435
 Alpha virt. eigenvalues --    5.03039   5.03837   5.05812   5.08922   5.11109
 Alpha virt. eigenvalues --    5.11284   5.12096   5.12816   5.13824   5.15194
 Alpha virt. eigenvalues --    5.16218   5.17092   5.18937   5.19551   5.20925
 Alpha virt. eigenvalues --    5.21610   5.22491   5.23554   5.24289   5.25132
 Alpha virt. eigenvalues --    5.26615   5.27657   5.29018   5.30496   5.31765
 Alpha virt. eigenvalues --    5.32269   5.35719   5.37521   5.37928   5.40456
 Alpha virt. eigenvalues --    5.41918   5.43859   5.44721   5.46619   5.50038
 Alpha virt. eigenvalues --    5.52243   5.53210   5.57070   5.57720   5.58968
 Alpha virt. eigenvalues --    5.60827   5.62115   5.63579   5.65166   5.66126
 Alpha virt. eigenvalues --    5.66835   5.68310   5.69757   5.71001   5.73217
 Alpha virt. eigenvalues --    5.73475   5.75069   5.77044   5.78387   5.79433
 Alpha virt. eigenvalues --    5.80516   5.82473   5.83580   5.84495   5.87620
 Alpha virt. eigenvalues --    5.89379   5.94311   5.96347   6.02955   6.04228
 Alpha virt. eigenvalues --    6.12477   6.19387   6.20238   6.24081   6.28040
 Alpha virt. eigenvalues --    6.51089   6.52320   6.57740   6.62055   6.64556
 Alpha virt. eigenvalues --    6.65947   6.78061   6.82890   6.90568   6.92350
 Alpha virt. eigenvalues --    6.93729   6.95166   7.18471   7.19760   7.22947
 Alpha virt. eigenvalues --    7.29335   8.14323   8.29952   8.66779   8.73864
 Alpha virt. eigenvalues --    8.77652   8.79149   8.81827   8.82674   8.83965
 Alpha virt. eigenvalues --    8.84700   8.87119   8.88862   8.91234   8.92482
 Alpha virt. eigenvalues --    8.93129   8.95303   8.96606   8.97796   9.02334
 Alpha virt. eigenvalues --    9.03827   9.08182   9.13463   9.15869   9.16730
 Alpha virt. eigenvalues --    9.23076   9.60643   9.62640   9.77302   9.83358
 Alpha virt. eigenvalues --    9.91334   9.93638  10.09440  10.11655  10.15269
 Alpha virt. eigenvalues --   10.18175  10.20031  10.21105  10.22065  10.24610
 Alpha virt. eigenvalues --   10.27312  10.29581  10.31318  10.33133  10.34114
 Alpha virt. eigenvalues --   10.37639  11.76357  11.83015  12.04469  12.14455
 Alpha virt. eigenvalues --   12.15074  12.19317  12.24420  12.26172  12.28569
 Alpha virt. eigenvalues --   12.38790  12.47424  12.57353  12.59535  12.84213
 Alpha virt. eigenvalues --   12.93511  14.97398  15.02677  15.24301  15.28446
 Alpha virt. eigenvalues --   15.99794  16.04654  16.84138  16.91088  22.01195
 Alpha virt. eigenvalues --   22.10182  40.17870  40.27325  40.66456  40.67230
 Alpha virt. eigenvalues --   40.69515  40.71604  40.72224  40.74985  40.76917
 Alpha virt. eigenvalues --   40.77612  40.79537  40.80988  40.81483  40.81829
 Alpha virt. eigenvalues --   40.83300  40.84468  40.84612  40.85292  40.86110
 Alpha virt. eigenvalues --   40.86920  40.88311  40.89807  40.90297  40.90628
 Alpha virt. eigenvalues --   40.91313  40.93598  40.93924  46.34437  46.46043
 Alpha virt. eigenvalues --   46.47720  46.51031  46.57027  46.58283  46.60796
 Alpha virt. eigenvalues --   46.71707  46.81339  54.47017  54.51087  55.79461
 Alpha virt. eigenvalues --   55.84507  55.95757  55.98412  56.05609  56.12654
 Alpha virt. eigenvalues --   56.18911  56.22352  56.22985  56.30008  56.35863
 Alpha virt. eigenvalues --   56.37914  56.46097  56.54688  56.66298  56.68896
 Alpha virt. eigenvalues --   57.46997  57.51103  57.99604  58.02675  58.19688
 Alpha virt. eigenvalues --   58.26090  64.71096  64.77686  73.94529  73.97384
 Alpha virt. eigenvalues --   74.09997  74.12208  74.64115  74.66503  86.07069
 Alpha virt. eigenvalues --   86.14929 165.43690 165.54287 165.56707 165.59039
 Alpha virt. eigenvalues --  165.64729 165.66053 165.67658 165.77092 165.86128
 Alpha virt. eigenvalues --  226.64356 226.69643 230.58273 230.64322 235.58853
 Alpha virt. eigenvalues --  235.83933 236.20353 236.25176 236.35570 236.44307
 Alpha virt. eigenvalues --  236.95072 237.25163 237.41841 237.44054 237.66284
 Alpha virt. eigenvalues --  237.76134 238.13083 238.20175 238.92156 238.95480
 Alpha virt. eigenvalues --  308.80698 308.87636 624.55214 624.60971 624.62701
 Alpha virt. eigenvalues --  624.66945 624.70278 624.71455 624.74067 624.81458
 Alpha virt. eigenvalues --  624.88293 794.54789 794.66237 826.07160 826.97740
 Alpha virt. eigenvalues --  827.18804 827.47801 827.58415 827.84450 829.36389
 Alpha virt. eigenvalues --  830.68543 831.07602 831.16216 831.75262 831.91561
 Alpha virt. eigenvalues --  832.77265 833.01162 835.48165 835.79994 868.34086
 Alpha virt. eigenvalues --  868.402561165.934811165.999142485.927102486.13893
 Alpha virt. eigenvalues -- 2588.577402589.804662592.789042594.262512596.48528
 Alpha virt. eigenvalues -- 2597.370522599.385322602.862812602.942552604.77744
 Alpha virt. eigenvalues -- 2606.790702607.438492611.077662611.278152615.17692
 Alpha virt. eigenvalues -- 2616.101312740.327612740.339622740.364122740.41218
 Alpha virt. eigenvalues -- 2740.435062740.470192740.528812740.564162740.58520
 Alpha virt. eigenvalues -- 3787.316013787.379905073.316735073.374798294.11274
 Alpha virt. eigenvalues -- 8295.042288628.881378629.770028635.595508637.26594
 Alpha virt. eigenvalues -- 8637.823448643.630258650.576768664.056728666.79934
 Alpha virt. eigenvalues -- 8668.757528673.336918674.089618680.593668683.86755
 Alpha virt. eigenvalues -- 8702.280068705.39530******************************
 Alpha virt. eigenvalues -- **************************************************
 Alpha virt. eigenvalues -- **************************************************
 Alpha virt. eigenvalues -- **************************************************
 Alpha virt. eigenvalues -- **************************************************
 Alpha virt. eigenvalues -- **************************************************
 Alpha virt. eigenvalues -- **************************************************
 Alpha virt. eigenvalues -- **************************************************
 Alpha virt. eigenvalues -- **********
          Condensed to atoms (all electrons):
               1          2          3          4          5          6
     1  C    4.497936   0.187625  -0.039291   0.010902   0.000277  -0.009625
     2  C    0.187625   5.372183   0.372834   0.020850  -0.001158   0.000589
     3  H   -0.039291   0.372834   0.480737   0.000104   0.000043   0.001163
     4  C    0.010902   0.020850   0.000104   5.078665   0.398775   0.386188
     5  H    0.000277  -0.001158   0.000043   0.398775   0.525673  -0.005319
     6  H   -0.009625   0.000589   0.001163   0.386188  -0.005319   0.509014
     7  H    0.004845  -0.007521  -0.000098   0.394434  -0.020304  -0.019804
     8  O    0.736587  -0.117911   0.003652  -0.007101   0.000357   0.012920
     9  N   -0.055960   0.284474  -0.035110  -0.013443   0.000216   0.010132
    10  H   -0.002369  -0.027510   0.004511   0.001000   0.000115   0.000291
    11  N    0.381557  -0.131310   0.005183  -0.008187   0.000181   0.002108
    12  H   -0.025921   0.008849  -0.000480   0.000026  -0.000018  -0.000149
    13  C   -0.041815   0.011150  -0.001060  -0.000779  -0.000032  -0.000290
    14  H    0.002286   0.002957   0.000045   0.000799  -0.000002   0.000262
    15  H   -0.009554  -0.001297  -0.000163  -0.000051  -0.000001  -0.000095
    16  H    0.007320   0.000609  -0.000082   0.000015  -0.000002  -0.000010
    17  C   -0.000398  -0.059578   0.002511  -0.000252   0.000009   0.000934
    18  C   -0.004270   0.017589   0.002968   0.000004   0.000002   0.000225
    19  H    0.000448  -0.000815  -0.000467  -0.000054  -0.000002  -0.000015
    20  H   -0.000058  -0.000540   0.000113  -0.000009   0.000000   0.000051
    21  H    0.000668  -0.000857  -0.000179   0.000020  -0.000001  -0.000097
    22  O   -0.011012   0.017188   0.025913   0.000048   0.000000  -0.000146
[...]
 Alpha virt. eigenvalues --    4.38551   4.39476   4.41706   4.43382   4.44451
 Alpha virt. eigenvalues --    4.45151   4.47368   4.49440   4.51261   4.53182
 Alpha virt. eigenvalues --    4.53696   4.54865   4.56551   4.57002   4.59411
 Alpha virt. eigenvalues --    4.60908   4.64008   4.64923   4.65695   4.68359
 Alpha virt. eigenvalues --    4.69238   4.70177   4.70781   4.72677   4.73829
 Alpha virt. eigenvalues --    4.74569   4.75289   4.76732   4.77899   4.78595
 Alpha virt. eigenvalues --    4.79647   4.81070   4.81517   4.82764   4.82907
 Alpha virt. eigenvalues --    4.83889   4.86341   4.88314   4.89763   4.91223
 Alpha virt. eigenvalues --    4.91989   4.92533   4.94607   4.94769   4.96241
 Alpha virt. eigenvalues --    4.98121   4.98838   4.99244   5.00931   5.01491
 Alpha virt. eigenvalues --    5.02482   5.03181   5.04099   5.04849   5.06500
 Alpha virt. eigenvalues --    5.08271   5.08810   5.11988   5.12337   5.13223
 Alpha virt. eigenvalues --    5.13820   5.14263   5.16183   5.17296   5.17865
 Alpha virt. eigenvalues --    5.19431   5.19972   5.20626   5.21805   5.22535
 Alpha virt. eigenvalues --    5.24188   5.25480   5.25769   5.27691   5.27904
 Alpha virt. eigenvalues --    5.29202   5.30228   5.30930   5.32921   5.33782
 Alpha virt. eigenvalues --    5.35266   5.36558   5.38003   5.39106   5.40723
 Alpha virt. eigenvalues --    5.42909   5.47331   5.50088   5.52147   5.56757
 Alpha virt. eigenvalues --    5.58016   5.59365   5.61490   5.64133   5.68616
 Alpha virt. eigenvalues --    5.73103   5.75192   5.77710   5.78469   5.79385
 Alpha virt. eigenvalues --    5.79944   5.81123   5.82478   5.84740   5.86454
 Alpha virt. eigenvalues --    5.88052   5.88891   5.91576   5.95464   5.97220
 Alpha virt. eigenvalues --    6.00556   6.02248   6.02859   6.05909   6.08392
 Alpha virt. eigenvalues --    6.22656   6.26630   6.35382   6.39440   6.49295
 Alpha virt. eigenvalues --    6.51201   6.54310   6.56359   6.68025   6.68990
 Alpha virt. eigenvalues --    6.88005   6.89720   6.92593   6.96554   7.09840
 Alpha virt. eigenvalues --    7.13864   7.15964   7.18301   9.49583   9.97457
 Alpha virt. eigenvalues --   11.61135  12.17506  12.47566  12.56350  12.96324
 Alpha virt. eigenvalues --   13.39128  13.53850  13.64319  13.70603  13.79518
 Alpha virt. eigenvalues --   13.99832
          Condensed to atoms (all electrons):
               1          2          3          4          5          6
     1  C    4.661314   0.167935  -0.048566   0.004616   0.000338  -0.012536
     2  C    0.167935   5.476652   0.419415   0.005490  -0.001033   0.001311
     3  H   -0.048566   0.419415   0.444910   0.000143   0.000053   0.001003
     4  C    0.004616   0.005490   0.000143   5.235800   0.406356   0.388820
     5  H    0.000338  -0.001033   0.000053   0.406356   0.512533  -0.009682
     6  H   -0.012536   0.001311   0.001003   0.388820  -0.009682   0.501326
     7  H    0.005898  -0.008933  -0.000239   0.392593  -0.025579  -0.026626
     8  O    0.727276  -0.107487   0.001330  -0.004948   0.000386   0.013061
     9  N   -0.056933   0.224614  -0.038520  -0.010669   0.000203   0.009148
    10  H   -0.001328  -0.022906   0.002472   0.001209   0.000086   0.000210
    11  N    0.372600  -0.104348   0.000776  -0.004302   0.000185   0.001794
    12  H   -0.023435   0.003315  -0.000876   0.000288  -0.000020  -0.000150
    13  C   -0.060028   0.010386  -0.000852  -0.000745  -0.000043  -0.000326
    14  H    0.002018   0.002698   0.000057   0.000623   0.000002   0.000310
    15  H   -0.009593  -0.001237  -0.000158  -0.000037   0.000000  -0.000102
    16  H    0.008005   0.000643  -0.000059  -0.000013  -0.000004  -0.000009
    17  C   -0.000579  -0.071092   0.000510  -0.000291   0.000009   0.001214
    18  C   -0.003113   0.014419   0.002715  -0.000029   0.000001   0.000231
    19  H    0.000238   0.000028  -0.000438  -0.000035  -0.000002  -0.000045
    20  H   -0.000093  -0.000500   0.000102  -0.000007   0.000000   0.000048
    21  H    0.000636  -0.000846  -0.000162   0.000020  -0.000001  -0.000096
    22  O   -0.007424   0.015319   0.025097   0.000035   0.000000  -0.000149
    23  C   -0.008437  -0.005849   0.003962   0.240520  -0.033683  -0.030062
    24  H    0.001828  -0.008558  -0.000637  -0.046491  -0.007186  -0.010158
    25  C   -0.000641   0.006554  -0.000181  -0.065529  -0.008086   0.006267
    26  H   -0.000206  -0.000784  -0.000053  -0.006444  -0.000261  -0.000192
    27  H   -0.000015   0.000784  -0.000006   0.007860  -0.000058  -0.000322
    28  H    0.000037  -0.000451   0.000013  -0.006577   0.004409  -0.000083
    29  C   -0.021016   0.200412  -0.027238  -0.047933   0.008736  -0.009035
    30  H    0.005595  -0.026367  -0.007231   0.006699  -0.000365  -0.000823
    31  H    0.005214  -0.054430  -0.007933  -0.001135  -0.000241  -0.001026
               7          8          9         10         11         12
     1  C    0.005898   0.727276  -0.056933  -0.001328   0.372600  -0.023435
     2  C   -0.008933  -0.107487   0.224614  -0.022906  -0.104348   0.003315
     3  H   -0.000239   0.001330  -0.038520   0.002472   0.000776  -0.000876
     4  C    0.392593  -0.004948  -0.010669   0.001209  -0.004302   0.000288
     5  H   -0.025579   0.000386   0.000203   0.000086   0.000185  -0.000020
     6  H   -0.026626   0.013061   0.009148   0.000210   0.001794  -0.000150
     7  H    0.531178  -0.005484   0.000249   0.000175   0.002913   0.000640
     8  O   -0.005484   7.837969   0.005501  -0.001401  -0.119112   0.004934
     9  N    0.000249   0.005501   6.555457   0.380125   0.004994   0.000451
    10  H    0.000175  -0.001401   0.380125   0.500110  -0.000148  -0.000001
    11  N    0.002913  -0.119112   0.004994  -0.000148   6.448558   0.383497
    12  H    0.000640   0.004934   0.000451  -0.000001   0.383497   0.520303
    13  C    0.000201   0.005119  -0.000351   0.000018   0.296381  -0.032909
    14  H   -0.001759   0.004981   0.000000  -0.000018  -0.061186   0.004037
    15  H    0.000412   0.005312  -0.000040   0.000009  -0.039554   0.001710
    16  H   -0.000111   0.001500   0.000007  -0.000001  -0.027946  -0.008082
    17  C   -0.000040   0.015805   0.342556  -0.020004   0.000483  -0.000134
    18  C    0.000002  -0.000296  -0.064724   0.000078  -0.000014   0.000000
    19  H   -0.000001   0.000030   0.013240  -0.000827   0.000005   0.000000
    20  H    0.000000   0.000051   0.000289  -0.000217   0.000002   0.000000
    21  H    0.000001   0.000449  -0.001659   0.000070   0.000002  -0.000001
    22  O   -0.000001  -0.003150  -0.137057   0.004772  -0.000872  -0.000040
    23  C   -0.041394   0.000088  -0.005892   0.002527  -0.002953  -0.000305
    24  H    0.008838  -0.000120   0.002117   0.000990  -0.000095   0.000021
    25  C   -0.006617   0.000013  -0.000147   0.000216  -0.001511   0.000315
    26  H    0.004969  -0.000040  -0.000032   0.000011   0.001152   0.000186
    27  H   -0.000180   0.000000  -0.000017  -0.000027  -0.000024   0.000024
    28  H   -0.000371   0.000003   0.000016   0.000024  -0.000011  -0.000009
    29  C   -0.000791   0.003135  -0.038825  -0.005692   0.007328   0.003663
    30  H    0.000055  -0.000344  -0.001360   0.000921   0.000426  -0.000099
    31  H    0.001672  -0.000127   0.005660   0.000354  -0.005994   0.004306
              13         14         15         16         17         18
     1  C   -0.060028   0.002018  -0.009593   0.008005  -0.000579  -0.003113
     2  C    0.010386   0.002698  -0.001237   0.000643  -0.071092   0.014419
     3  H   -0.000852   0.000057  -0.000158  -0.000059   0.000510   0.002715
     4  C   -0.000745   0.000623  -0.000037  -0.000013  -0.000291  -0.000029
     5  H   -0.000043   0.000002   0.000000  -0.000004   0.000009   0.000001
     6  H   -0.000326   0.000310  -0.000102  -0.000009   0.001214   0.000231
     7  H    0.000201  -0.001759   0.000412  -0.000111  -0.000040   0.000002
     8  O    0.005119   0.004981   0.005312   0.001500   0.015805  -0.000296
     9  N   -0.000351   0.000000  -0.000040   0.000007   0.342556  -0.064724
    10  H    0.000018  -0.000018   0.000009  -0.000001  -0.020004   0.000078
    11  N    0.296381  -0.061186  -0.039554  -0.027946   0.000483  -0.000014
    12  H   -0.032909   0.004037   0.001710  -0.008082  -0.000134   0.000000
    13  C    4.778985   0.388309   0.407613   0.393125  -0.000147  -0.000005
    14  H    0.388309   0.632314  -0.057946  -0.027244   0.000004   0.000000
    15  H    0.407613  -0.057946   0.593962  -0.026168   0.000002   0.000000
    16  H    0.393125  -0.027244  -0.026168   0.598898  -0.000004   0.000000
    17  C   -0.000147   0.000004   0.000002  -0.000004   4.529791   0.280162
    18  C   -0.000005   0.000000   0.000000   0.000000   0.280162   4.996020
    19  H    0.000001   0.000000   0.000000   0.000000  -0.053917   0.390664
    20  H    0.000000   0.000000   0.000000   0.000000  -0.024942   0.384573
    21  H    0.000001   0.000000   0.000000   0.000000  -0.025839   0.388962
    22  O   -0.000063   0.000005   0.000007  -0.000001   0.715977  -0.070171
    23  C    0.000392   0.000279  -0.000032   0.000019  -0.000191  -0.000171
    24  H    0.000009  -0.000003   0.000001   0.000000   0.000021   0.000000
    25  C    0.000039   0.000115  -0.000007  -0.000003   0.000031   0.000001
    26  H    0.000048  -0.000176   0.000013   0.000029  -0.000003   0.000000
    27  H   -0.000002   0.000001   0.000000   0.000000   0.000002   0.000000
    28  H    0.000000   0.000003   0.000000   0.000000  -0.000001   0.000000
    29  C   -0.001130  -0.000721   0.000182  -0.000113   0.008100   0.000396
    30  H    0.000059  -0.000022   0.000012   0.000003  -0.000286  -0.000039
    31  H    0.000410  -0.000029   0.000019   0.000036  -0.000305   0.000023
              19         20         21         22         23         24
     1  C    0.000238  -0.000093   0.000636  -0.007424  -0.008437   0.001828
     2  C    0.000028  -0.000500  -0.000846   0.015319  -0.005849  -0.008558
     3  H   -0.000438   0.000102  -0.000162   0.025097   0.003962  -0.000637
     4  C   -0.000035  -0.000007   0.000020   0.000035   0.240520  -0.046491
     5  H   -0.000002   0.000000  -0.000001   0.000000  -0.033683  -0.007186
     6  H   -0.000045   0.000048  -0.000096  -0.000149  -0.030062  -0.010158
     7  H   -0.000001   0.000000   0.000001  -0.000001  -0.041394   0.008838
     8  O    0.000030   0.000051   0.000449  -0.003150   0.000088  -0.000120
     9  N    0.013240   0.000289  -0.001659  -0.137057  -0.005892   0.002117
    10  H   -0.000827  -0.000217   0.000070   0.004772   0.002527   0.000990
    11  N    0.000005   0.000002   0.000002  -0.000872  -0.002953  -0.000095
    12  H    0.000000   0.000000  -0.000001  -0.000040  -0.000305   0.000021
    13  C    0.000001   0.000000   0.000001  -0.000063   0.000392   0.000009
    14  H    0.000000   0.000000   0.000000   0.000005   0.000279  -0.000003
    15  H    0.000000   0.000000   0.000000   0.000007  -0.000032   0.000001
    16  H    0.000000   0.000000   0.000000  -0.000001   0.000019   0.000000
    17  C   -0.053917  -0.024942  -0.025839   0.715977  -0.000191   0.000021
    18  C    0.390664   0.384573   0.388962  -0.070171  -0.000171   0.000000
    19  H    0.607386  -0.027642  -0.024593   0.004804   0.000155   0.000004
    20  H   -0.027642   0.575868  -0.024945   0.002854   0.000011  -0.000012
    21  H   -0.024593  -0.024945   0.564247   0.000596  -0.000015   0.000007
    22  O    0.004804   0.002854   0.000596   7.854024  -0.000060   0.000001
    23  C    0.000155   0.000011  -0.000015  -0.000060   5.322799   0.413064
    24  H    0.000004  -0.000012   0.000007   0.000001   0.413064   0.542072
    25  C   -0.000002   0.000000   0.000000   0.000001   0.285462  -0.024316
    26  H    0.000000   0.000000   0.000000   0.000000  -0.042858   0.008018
    27  H    0.000000   0.000000   0.000000   0.000000  -0.038396  -0.006370
    28  H    0.000000   0.000000   0.000000   0.000000  -0.033975  -0.006174
    29  C   -0.000301  -0.000026   0.000037   0.001717   0.216358  -0.046492
    30  H   -0.000010  -0.000025   0.000012  -0.000057  -0.047769  -0.005698
    31  H   -0.000002  -0.000005   0.000001   0.000035  -0.055697   0.007276
              25         26         27         28         29         30
     1  C   -0.000641  -0.000206  -0.000015   0.000037  -0.021016   0.005595
     2  C    0.006554  -0.000784   0.000784  -0.000451   0.200412  -0.026367
     3  H   -0.000181  -0.000053  -0.000006   0.000013  -0.027238  -0.007231
     4  C   -0.065529  -0.006444   0.007860  -0.006577  -0.047933   0.006699
     5  H   -0.008086  -0.000261  -0.000058   0.004409   0.008736  -0.000365
     6  H    0.006267  -0.000192  -0.000322  -0.000083  -0.009035  -0.000823
     7  H   -0.006617   0.004969  -0.000180  -0.000371  -0.000791   0.000055
     8  O    0.000013  -0.000040   0.000000   0.000003   0.003135  -0.000344
     9  N   -0.000147  -0.000032  -0.000017   0.000016  -0.038825  -0.001360
    10  H    0.000216   0.000011  -0.000027   0.000024  -0.005692   0.000921
    11  N   -0.001511   0.001152  -0.000024  -0.000011   0.007328   0.000426
    12  H    0.000315   0.000186   0.000024  -0.000009   0.003663  -0.000099
    13  C    0.000039   0.000048  -0.000002   0.000000  -0.001130   0.000059
    14  H    0.000115  -0.000176   0.000001   0.000003  -0.000721  -0.000022
    15  H   -0.000007   0.000013   0.000000   0.000000   0.000182   0.000012
    16  H   -0.000003   0.000029   0.000000   0.000000  -0.000113   0.000003
    17  C    0.000031  -0.000003   0.000002  -0.000001   0.008100  -0.000286
    18  C    0.000001   0.000000   0.000000   0.000000   0.000396  -0.000039
    19  H   -0.000002   0.000000   0.000000   0.000000  -0.000301  -0.000010
    20  H    0.000000   0.000000   0.000000   0.000000  -0.000026  -0.000025
    21  H    0.000000   0.000000   0.000000   0.000000   0.000037   0.000012
    22  O    0.000001   0.000000   0.000000   0.000000   0.001717  -0.000057
    23  C    0.285462  -0.042858  -0.038396  -0.033975   0.216358  -0.047769
    24  H   -0.024316   0.008018  -0.006370  -0.006174  -0.046492  -0.005698
    25  C    5.087539   0.402964   0.404390   0.408135  -0.059006  -0.002471
    26  H    0.402964   0.556110  -0.031025  -0.025789  -0.010790   0.000552
    27  H    0.404390  -0.031025   0.542004  -0.017263   0.000776   0.001552
    28  H    0.408135  -0.025789  -0.017263   0.527977   0.009598  -0.000375
    29  C   -0.059006  -0.010790   0.000776   0.009598   5.394448   0.419388
    30  H   -0.002471   0.000552   0.001552  -0.000375   0.419388   0.470876
    31  H   -0.004442   0.002215  -0.002756   0.000783   0.422262  -0.008149
              31
     1  C    0.005214
     2  C   -0.054430
     3  H   -0.007933
     4  C   -0.001135
     5  H   -0.000241
     6  H   -0.001026
     7  H    0.001672
     8  O   -0.000127
     9  N    0.005660
    10  H    0.000354
    11  N   -0.005994
    12  H    0.004306
    13  C    0.000410
    14  H   -0.000029
    15  H    0.000019
    16  H    0.000036
    17  C   -0.000305
    18  C    0.000023
    19  H   -0.000002
    20  H   -0.000005
    21  H    0.000001
    22  O    0.000035
    23  C   -0.055697
    24  H    0.007276
    25  C   -0.004442
    26  H    0.002215
    27  H   -0.002756
    28  H    0.000783
    29  C    0.422262
    30  H   -0.008149
    31  H    0.499300
 Mulliken charges:
               1
     1  C    0.290394
     2  C   -0.135156
     3  H    0.230595
     4  C   -0.495885
     5  H    0.152947
     6  H    0.176678
     7  H    0.168331
     8  O   -0.384433
     9  N   -0.188402
    10  H    0.158193
    11  N   -0.153027
    12  H    0.138374
    13  C   -0.184495
    14  H    0.113347
    15  H    0.125620
    16  H    0.087493
    17  C    0.303107
    18  C   -0.319687
    19  H    0.091260
    20  H    0.114616
    21  H    0.123118
    22  O   -0.406198
    23  C   -0.137897
    24  H    0.178043
    25  C   -0.429085
    26  H    0.142385
    27  H    0.139068
    28  H    0.140082
    29  C   -0.427428
    30  H    0.195338
    31  H    0.192705
 Sum of Mulliken charges =   0.00000
 Mulliken charges with hydrogens summed into heavy atoms:
               1
     1  C    0.290394
     2  C    0.095439
     4  C    0.002070
     8  O   -0.384433
     9  N   -0.030209
    11  N   -0.014653
    13  C    0.141965
    17  C    0.303107
    18  C    0.009307
    22  O   -0.406198
    23  C    0.040146
    25  C   -0.007550
    29  C   -0.039385
 Electronic spatial extent (au):  <R**2>=           2878.0565
 Charge=              0.0000 electrons
 Dipole moment (field-independent basis, Debye):
    X=             -4.2890    Y=             -2.7575    Z=             -0.8466  Tot=              5.1688
 Quadrupole moment (field-independent basis, Debye-Ang):
   XX=            -82.3751   YY=            -75.3674   ZZ=            -81.5287
   XY=            -11.6743   XZ=              6.5061   YZ=             -3.9190
 Traceless Quadrupole moment (field-independent basis, Debye-Ang):
   XX=             -2.6181   YY=              4.3897   ZZ=             -1.7716
   XY=            -11.6743   XZ=              6.5061   YZ=             -3.9190
 Octapole moment (field-independent basis, Debye-Ang**2):
  XXX=             -1.0554  YYY=             21.6072  ZZZ=             -5.9480  XYY=            -11.4107
  XXY=            -11.5534  XXZ=             17.2512  XZZ=             -3.8531  YZZ=             -1.1101
  YYZ=             -2.1794  XYZ=              4.6526
 Hexadecapole moment (field-independent basis, Debye-Ang**3):
 XXXX=          -2142.7852 YYYY=          -1220.4217 ZZZZ=           -406.2300 XXXY=            -89.4303
 XXXZ=             57.6085 YYYX=            -42.7268 YYYZ=             -7.4728 ZZZX=              4.4422
 ZZZY=             -7.2094 XXYY=           -547.8727 XXZZ=           -422.8266 YYZZ=           -282.8635
 XXYZ=              3.1075 YYXZ=              2.3238 ZZXY=            -10.7395
 N-N= 8.779375686846D+02 E-N=-3.185502817008D+03  KE= 6.091228573786D+02
 Calculating spin-rotation constants.
 Leave Link  601 at Wed Jun 18 17:34:27 2014, MaxMem=  4294967296 cpu:        69.2
 (Enter /home/ztw1e12/g09/l9999.exe)

 Test job not archived.
 1\1\GINC-GREEN0649\SP\RM06\Gen\C9H18N2O2\ROOT\18-Jun-2014\0\\#P Geom=A
 llCheck Guess=TCheck SCRF=Check GenChk RM06/ChkBas NMR=ReadFC IOp(3/6=
 22)\\NMR spin-spin scan\\0,1\C,0,0.532044,0.849759,0.499663\C,0,0.2123
 17,0.071802,-0.777248\H,0,0.688186,0.643467,-1.580066\C,0,-1.809132,-0
 .840811,1.273653\H,0,-2.560672,-1.393492,1.841296\H,0,-0.854109,-1.342
 497,1.427774\H,0,-1.744352,0.158071,1.718598\O,0,1.210338,0.382262,1.4
 08483\N,0,0.833531,-1.231398,-0.76643\H,0,0.29062,-2.023164,-0.457364\
 N,0,0.061463,2.101578,0.534341\H,0,-0.506577,2.439583,-0.225334\C,0,0.
 227687,2.933773,1.703897\H,0,-0.224616,2.468773,2.581985\H,0,1.282377,
 3.10903,1.916949\H,0,-0.255229,3.889836,1.525908\C,0,2.152277,-1.40421
 3,-0.966605\C,0,2.664712,-2.799096,-0.818861\H,0,1.878994,-3.532549,-0
 .649096\H,0,3.226527,-3.067528,-1.712682\H,0,3.359291,-2.823302,0.0214
 43\O,0,2.899447,-0.473542,-1.263218\C,0,-2.222152,-0.779479,-0.186152\
 H,0,-2.261701,-1.818317,-0.537507\C,0,-3.61437,-0.195725,-0.322759\H,0
 ,-3.635198,0.824499,0.073659\H,0,-3.930631,-0.152467,-1.367307\H,0,-4.
 349405,-0.785392,0.228228\C,0,-1.26808,-0.025126,-1.126776\H,0,-1.3442
 27,-0.452854,-2.128602\H,0,-1.633734,1.001814,-1.229528\\Version=EM64L
 -G09RevD.01\State=1-A\HF=-613.5777742\RMSD=2.890e-09\Dipole=-2.0116627
 ,0.0130103,-0.2973005\Quadrupole=-7.912246,11.0430716,-3.1308255,-3.60
 2632,1.5248569,1.6816091\PG=C01 [X(C9H18N2O2)]\\@


  DISAPPOINTMENT IS THE NURSE OF WISDOM.               
                              SIR BOYLE ROCHE                 
 Job cpu time:       2 days 14 hours 30 minutes 17.5 seconds.
 File lengths (MBytes):  RWF=   2456 Int=      0 D2E=      0 Chk=     48 Scr=      8
 Normal termination of Gaussian 09 at Wed Jun 18 17:34:28 2014.
