 Entering Gaussian System, Link 0=g09
 Input=scan_input_18.gjf
 Output=scan_input_18.log
 Initial command:
 /home/ztw1e12/g09/l1.exe "/home/ztw1e12/leucine_scan/leucine_chi2_scan/Gau-8600.inp" -scrdir="/home/ztw1e12/leucine_scan/leucine_chi2_scan/"
 Default is to use a total of   8 processors:
                                8 via shared-memory
                                1 via Linda
 Entering Link 1 = /home/ztw1e12/g09/l1.exe PID=      8601.
  
 Copyright (c) 1988,1990,1992,1993,1995,1998,2003,2009,2013,
            Gaussian, Inc.  All Rights Reserved.
  
 This is part of the Gaussian(R) 09 program.  It is based on
 the Gaussian(R) 03 system (copyright 2003, Gaussian, Inc.),
 the Gaussian(R) 98 system (copyright 1998, Gaussian, Inc.),
 the Gaussian(R) 94 system (copyright 1995, Gaussian, Inc.),
 the Gaussian 92(TM) system (copyright 1992, Gaussian, Inc.),
 the Gaussian 90(TM) system (copyright 1990, Gaussian, Inc.),
 the Gaussian 88(TM) system (copyright 1988, Gaussian, Inc.),
 the Gaussian 86(TM) system (copyright 1986, Carnegie Mellon
 University), and the Gaussian 82(TM) system (copyright 1983,
 Carnegie Mellon University). Gaussian is a federally registered
 trademark of Gaussian, Inc.
  
 This software contains proprietary and confidential information,
 including trade secrets, belonging to Gaussian, Inc.
  
 This software is provided under written license and may be
 used, copied, transmitted, or stored only in accord with that
 written license.
  
 The following legend is applicable only to US Government
 contracts under FAR:
  
                    RESTRICTED RIGHTS LEGEND
  
 Use, reproduction and disclosure by the US Government is
 subject to restrictions as set forth in subparagraphs (a)
 and (c) of the Commercial Computer Software - Restricted
 Rights clause in FAR 52.227-19.
  
 Gaussian, Inc.
 340 Quinnipiac St., Bldg. 40, Wallingford CT 06492
  
  
 ---------------------------------------------------------------
 Warning -- This program may not be used in any manner that
 competes with the business of Gaussian, Inc. or will provide
 assistance to any competitor of Gaussian, Inc.  The licensee
 of this program is prohibited from giving any competitor of
 Gaussian, Inc. access to this program.  By using this program,
 the user acknowledges that Gaussian, Inc. is engaged in the
 business of creating and licensing software in the field of
 computational chemistry and represents and warrants to the
 licensee that it is not a competitor of Gaussian, Inc. and that
 it will not use this program in any manner prohibited above.
 ---------------------------------------------------------------
  

 Cite this work as:
 Gaussian 09, Revision D.01,
 M. J. Frisch, G. W. Trucks, H. B. Schlegel, G. E. Scuseria, 
 M. A. Robb, J. R. Cheeseman, G. Scalmani, V. Barone, B. Mennucci, 
 G. A. Petersson, H. Nakatsuji, M. Caricato, X. Li, H. P. Hratchian, 
 A. F. Izmaylov, J. Bloino, G. Zheng, J. L. Sonnenberg, M. Hada, 
 M. Ehara, K. Toyota, R. Fukuda, J. Hasegawa, M. Ishida, T. Nakajima, 
 Y. Honda, O. Kitao, H. Nakai, T. Vreven, J. A. Montgomery, Jr., 
 J. E. Peralta, F. Ogliaro, M. Bearpark, J. J. Heyd, E. Brothers, 
 K. N. Kudin, V. N. Staroverov, T. Keith, R. Kobayashi, J. Normand, 
 K. Raghavachari, A. Rendell, J. C. Burant, S. S. Iyengar, J. Tomasi, 
 M. Cossi, N. Rega, J. M. Millam, M. Klene, J. E. Knox, J. B. Cross, 
 V. Bakken, C. Adamo, J. Jaramillo, R. Gomperts, R. E. Stratmann, 
 O. Yazyev, A. J. Austin, R. Cammi, C. Pomelli, J. W. Ochterski, 
 R. L. Martin, K. Morokuma, V. G. Zakrzewski, G. A. Voth, 
 P. Salvador, J. J. Dannenberg, S. Dapprich, A. D. Daniels, 
 O. Farkas, J. B. Foresman, J. V. Ortiz, J. Cioslowski, 
 and D. J. Fox, Gaussian, Inc., Wallingford CT, 2013.
 
 ******************************************
 Gaussian 09:  EM64L-G09RevD.01 24-Apr-2013
                18-Jun-2014 
 ******************************************
 %Mem=32GB
 %NProcShared=16
 Will use up to   16 processors via shared memory.
 Default route:  MaxDisk=100GB
 ----------------------------------------------------------------------
 #p nmr=(giao,mixed,spinspin) m06/cc-pvtz scf=tight integral=(grid=ultr
 afine)
 ----------------------------------------------------------------------
 1/38=1/1;
 2/12=2,17=6,18=5,40=1/2;
 3/5=16,6=1,10=1100000,11=2,16=1,25=1,30=1,74=-54,75=-5/1,2,8,3;
 4//1;
 5/5=2,32=2,38=5/2;
 8/6=1,10=90,11=11/1;
 10/13=100,45=16,47=3/2;
 6/7=2,8=2,9=2,10=2,28=1/1;
 99/9=1/99;
 Leave Link    1 at Wed Jun 18 04:06:22 2014, MaxMem=  4294967296 cpu:         6.0
 (Enter /home/ztw1e12/g09/l101.exe)
 ------------------
 NMR spin-spin scan
 ------------------
 Symbolic Z-matrix:
 Charge =  0 Multiplicity = 1
 C                     0.32852   0.88169   0.43735 
 C                     0.11969   0.02903  -0.81303 
 H                     0.56996   0.59965  -1.63216 
 C                    -1.81945  -1.61213   0.92995 
 H                    -2.6533   -2.01702   1.50739 
 H                    -1.20041  -2.46356   0.64212 
 H                    -1.23566  -0.97808   1.59724 
 O                     0.67804   0.42284   1.52045 
 N                     0.82421  -1.22575  -0.72867 
 H                     0.30171  -2.08369  -0.65673 
 N                     0.11098   2.18934   0.25299 
 H                    -0.2066    2.50896  -0.64841 
 C                     0.14841   3.12156   1.35623 
 H                    -0.60463   2.87652   2.10775 
 H                     1.12606   3.11475   1.83788 
 H                    -0.04665   4.12122   0.98029 
 C                     2.16642  -1.27741  -0.70207 
 C                     2.77868  -2.6345   -0.58764 
 H                     2.04789  -3.4396   -0.6198 
 H                     3.50004  -2.76577  -1.39341 
 H                     3.32728  -2.69001   0.35283 
 O                     2.85736  -0.26139  -0.76953 
 C                    -2.36928  -0.83199  -0.25353 
 H                    -2.94104  -1.52905  -0.87205 
 C                    -3.34027   0.21024   0.28527 
 H                    -2.81207   0.92224   0.92896 
 H                    -3.8137    0.77673  -0.51895 
 H                    -4.12841  -0.2525    0.88303 
 C                    -1.35038  -0.144    -1.19463 
 H                    -1.33198  -0.68565  -2.14409 
 H                    -1.72579   0.85062  -1.44469 
 
 NAtoms=     31 NQM=       31 NQMF=       0 NMMI=      0 NMMIF=      0
                NMic=       0 NMicF=      0.
                    Isotopes and Nuclear Properties:
 (Nuclear quadrupole moments (NQMom) in fm**2, nuclear magnetic moments (NMagM)
  in nuclear magnetons)

  Atom         1           2           3           4           5           6           7           8           9          10
 IAtWgt=          12          12           1          12           1           1           1          16          14           1
 AtmWgt=  12.0000000  12.0000000   1.0078250  12.0000000   1.0078250   1.0078250   1.0078250  15.9949146  14.0030740   1.0078250
 NucSpn=           0           0           1           0           1           1           1           0           2           1
 AtZEff=   0.0000000   0.0000000   0.0000000   0.0000000   0.0000000   0.0000000   0.0000000   0.0000000   0.0000000   0.0000000
 NQMom=    0.0000000   0.0000000   0.0000000   0.0000000   0.0000000   0.0000000   0.0000000   0.0000000   2.0440000   0.0000000
 NMagM=    0.0000000   0.0000000   2.7928460   0.0000000   2.7928460   2.7928460   2.7928460   0.0000000   0.4037610   2.7928460
 AtZNuc=   6.0000000   6.0000000   1.0000000   6.0000000   1.0000000   1.0000000   1.0000000   8.0000000   7.0000000   1.0000000

  Atom        11          12          13          14          15          16          17          18          19          20
 IAtWgt=          14           1          12           1           1           1          12          12           1           1
 AtmWgt=  14.0030740   1.0078250  12.0000000   1.0078250   1.0078250   1.0078250  12.0000000  12.0000000   1.0078250   1.0078250
 NucSpn=           2           1           0           1           1           1           0           0           1           1
 AtZEff=   0.0000000   0.0000000   0.0000000   0.0000000   0.0000000   0.0000000   0.0000000   0.0000000   0.0000000   0.0000000
 NQMom=    2.0440000   0.0000000   0.0000000   0.0000000   0.0000000   0.0000000   0.0000000   0.0000000   0.0000000   0.0000000
 NMagM=    0.4037610   2.7928460   0.0000000   2.7928460   2.7928460   2.7928460   0.0000000   0.0000000   2.7928460   2.7928460
 AtZNuc=   7.0000000   1.0000000   6.0000000   1.0000000   1.0000000   1.0000000   6.0000000   6.0000000   1.0000000   1.0000000

  Atom        21          22          23          24          25          26          27          28          29          30
 IAtWgt=           1          16          12           1          12           1           1           1          12           1
 AtmWgt=   1.0078250  15.9949146  12.0000000   1.0078250  12.0000000   1.0078250   1.0078250   1.0078250  12.0000000   1.0078250
 NucSpn=           1           0           0           1           0           1           1           1           0           1
 AtZEff=   0.0000000   0.0000000   0.0000000   0.0000000   0.0000000   0.0000000   0.0000000   0.0000000   0.0000000   0.0000000
 NQMom=    0.0000000   0.0000000   0.0000000   0.0000000   0.0000000   0.0000000   0.0000000   0.0000000   0.0000000   0.0000000
 NMagM=    2.7928460   0.0000000   0.0000000   2.7928460   0.0000000   2.7928460   2.7928460   2.7928460   0.0000000   2.7928460
 AtZNuc=   1.0000000   8.0000000   6.0000000   1.0000000   6.0000000   1.0000000   1.0000000   1.0000000   6.0000000   1.0000000

  Atom        31
 IAtWgt=           1
 AtmWgt=   1.0078250
 NucSpn=           1
 AtZEff=   0.0000000
 NQMom=    0.0000000
 NMagM=    2.7928460
 AtZNuc=   1.0000000
 Leave Link  101 at Wed Jun 18 04:06:22 2014, MaxMem=  4294967296 cpu:         2.2
 (Enter /home/ztw1e12/g09/l202.exe)
                          Input orientation:                          
 ---------------------------------------------------------------------
 Center     Atomic      Atomic             Coordinates (Angstroms)
 Number     Number       Type             X           Y           Z
 ---------------------------------------------------------------------
      1          6           0        0.328517    0.881692    0.437346
      2          6           0        0.119691    0.029030   -0.813031
      3          1           0        0.569959    0.599648   -1.632155
      4          6           0       -1.819453   -1.612132    0.929947
      5          1           0       -2.653304   -2.017025    1.507394
      6          1           0       -1.200405   -2.463563    0.642123
      7          1           0       -1.235655   -0.978075    1.597235
      8          8           0        0.678038    0.422844    1.520453
      9          7           0        0.824206   -1.225754   -0.728668
     10          1           0        0.301709   -2.083690   -0.656731
     11          7           0        0.110979    2.189338    0.252987
     12          1           0       -0.206599    2.508963   -0.648410
     13          6           0        0.148410    3.121565    1.356227
     14          1           0       -0.604633    2.876524    2.107747
     15          1           0        1.126059    3.114748    1.837881
     16          1           0       -0.046648    4.121221    0.980285
     17          6           0        2.166417   -1.277413   -0.702071
     18          6           0        2.778680   -2.634503   -0.587643
     19          1           0        2.047887   -3.439598   -0.619800
     20          1           0        3.500044   -2.765769   -1.393407
     21          1           0        3.327282   -2.690007    0.352829
     22          8           0        2.857357   -0.261387   -0.769532
     23          6           0       -2.369284   -0.831992   -0.253525
     24          1           0       -2.941041   -1.529050   -0.872046
     25          6           0       -3.340272    0.210242    0.285272
     26          1           0       -2.812070    0.922240    0.928962
     27          1           0       -3.813695    0.776730   -0.518952
     28          1           0       -4.128411   -0.252504    0.883025
     29          6           0       -1.350377   -0.143999   -1.194628
     30          1           0       -1.331977   -0.685645   -2.144089
     31          1           0       -1.725788    0.850619   -1.444687
 ---------------------------------------------------------------------
                    Distance matrix (angstroms):
                    1          2          3          4          5
     1  C    0.000000
     2  C    1.527771   0.000000
     3  H    2.102541   1.095130   0.000000
     4  C    3.328001   3.080855   4.143142   0.000000
     5  H    4.294045   4.154541   5.205110   1.092104   0.000000
     6  H    3.683784   3.173822   4.205923   1.091328   1.749001
     7  H    2.692714   2.942891   4.022240   1.090010   1.759891
     8  O    1.227122   2.431458   3.159411   3.275254   4.129282
     9  N    2.458989   1.441507   2.052565   3.144714   4.209413
    10  H    3.160888   2.126299   2.867702   2.690584   3.663330
    11  N    1.338376   2.409025   2.508294   4.316945   5.187320
    12  H    2.028109   2.506718   2.283918   4.698503   5.578389
    13  C    2.427717   3.777602   3.932963   5.144131   5.854704
    14  H    2.764121   4.142923   4.533288   4.796982   5.338942
    15  H    2.753926   4.190676   4.321588   5.643029   6.381841
    16  H    3.306067   4.470982   4.427925   6.001392   6.689586
    17  C    3.055795   2.430677   2.633836   4.320032   5.353361
    18  C    4.406532   3.770336   4.053293   4.948853   5.854649
    19  H    4.769417   3.973243   4.418670   4.549469   5.352557
    20  H    5.168579   4.424311   4.468605   5.918268   6.843899
    21  H    4.664415   4.363603   4.729146   5.289968   6.128078
    22  O    3.026254   2.753371   2.591851   5.156093   6.215629
    23  C    3.269885   2.692471   3.548149   1.520374   2.141450
    24  H    4.268043   3.434993   4.175673   2.124157   2.445945
    25  C    3.732825   3.634618   4.372422   2.459582   2.631772
    26  H    3.179091   3.525278   4.254586   2.721825   2.999845
    27  H    4.252463   4.014606   4.526257   3.432633   3.641106
    28  H    4.620524   4.582820   5.396941   2.679940   2.383131
    29  C    2.556182   1.528612   2.105263   2.624741   3.536491
    30  H    3.446388   2.095189   2.351896   3.247416   4.105095
    31  H    2.786249   2.116552   2.317021   3.422397   4.218821
                    6          7          8          9         10
     6  H    0.000000
     7  H    1.766396   0.000000
     8  O    3.554062   2.372908   0.000000
     9  N    2.740491   3.116761   2.792452   0.000000
    10  H    2.021799   2.943847   3.341327   1.007091   0.000000
    11  N    4.849809   3.694987   2.246893   3.624251   4.372955
    12  H    5.232508   4.273326   3.136629   3.875192   4.620704
    13  C    5.789896   4.333678   2.755099   4.868539   5.583026
    14  H    5.569518   3.939130   2.830319   5.188017   5.750436
    15  H    6.161155   4.731469   2.747332   5.051559   5.824637
    16  H    6.693645   5.272304   3.807223   5.680585   6.426671
    17  C    3.814354   4.117099   3.169505   1.343468   2.032062
    18  C    4.168292   4.861310   4.266631   2.413386   2.538416
    19  H    3.618908   4.664331   4.623378   2.531867   2.211106
    20  H    5.131173   5.879340   5.159608   3.158106   3.352204
    21  H    4.542567   5.029876   4.251080   3.095006   3.246679
    22  O    4.827813   4.782047   3.234445   2.250639   3.140836
    23  C    2.197837   2.175263   3.742697   3.252566   2.977168
    24  H    2.489144   3.051109   4.757276   3.780163   3.296879
    25  C    3.443197   2.750047   4.209238   4.520292   4.406078
    26  H    3.760772   2.557903   3.574928   4.536972   4.609301
    27  H    4.321675   3.768803   4.945713   5.056090   5.013735
    28  H    3.676960   3.066690   4.895341   5.298413   5.034884
    29  C    2.962520   2.916049   3.436196   2.473080   2.604059
    30  H    3.307761   3.753971   4.324093   2.635196   2.614516
    31  H    3.951532   3.582965   3.841019   3.365483   3.652641
                   11         12         13         14         15
    11  N    0.000000
    12  H    1.007736   0.000000
    13  C    1.444848   2.126001   0.000000
    14  H    2.103440   2.808903   1.091742   0.000000
    15  H    2.097298   2.885238   1.089878   1.767731   0.000000
    16  H    2.070261   2.297304   1.085676   1.769686   1.767399
    17  C    4.141899   4.468862   5.259273   5.729659   5.179264
    18  C    5.576085   5.947338   6.620368   7.005951   6.455092
    19  H    6.016501   6.361517   7.110665   7.373518   7.060412
    20  H    6.224906   6.489763   7.311268   7.806531   7.117409
    21  H    5.844876   6.365539   6.699732   7.037468   6.383255
    22  O    3.820234   4.132473   4.827174   5.487312   4.603725
    23  C    3.941661   3.999390   4.955875   4.737372   5.671698
    24  H    4.940338   4.881878   6.011500   5.809221   6.741652
    25  C    3.978567   3.996972   4.668367   4.232516   5.549312
    26  H    3.256792   3.434279   3.712685   3.175144   4.598052
    27  H    4.241983   4.003565   4.971199   4.648307   5.951652
    28  H    4.932744   5.035037   5.468040   4.869063   6.313445
    29  C    3.110565   2.940202   4.406487   4.537111   5.093945
    30  H    4.011686   3.702574   5.379461   5.594299   6.028351
    31  H    2.836896   2.385812   4.063857   4.240409   4.902506
                   16         17         18         19         20
    16  H    0.000000
    17  C    6.072333   0.000000
    18  C    7.488704   1.493202   0.000000
    19  H    8.007080   2.166994   1.087782   0.000000
    20  H    8.102103   2.114642   1.089428   1.777997   0.000000
    21  H    7.626921   2.110887   1.090198   1.773343   1.756396
    22  O    5.540971   1.230552   2.381376   3.283091   2.659736
    23  C    5.608141   4.579539   5.464633   5.142486   6.283935
    24  H    6.613184   5.116477   5.832505   5.348198   6.579428
    25  C    5.160112   5.788919   6.804126   6.570597   7.646210
    26  H    4.228909   5.681908   6.797573   6.711444   7.670567
    27  H    5.255851   6.325723   7.422980   7.221200   8.173417
    28  H    5.983287   6.571745   7.452831   7.110746   8.348172
    29  C    4.962062   3.727610   4.860057   4.768605   5.517225
    30  H    5.875351   3.829930   4.808126   4.618571   5.314025
    31  H    4.404184   4.497695   5.759412   5.772956   6.355329
                   21         22         23         24         25
    21  H    0.000000
    22  O    2.716380   0.000000
    23  C    6.022520   5.282957   0.000000
    24  H    6.491534   5.936236   1.093327   0.000000
    25  C    7.271333   6.304415   1.522948   2.126948   0.000000
    26  H    7.146461   6.035583   2.161403   3.044517   1.095571
    27  H    7.985726   6.755991   2.178247   2.490546   1.091702
    28  H    7.861926   7.178578   2.173035   2.473801   1.092065
    29  C    5.545924   4.230781   1.548283   2.133691   2.505049
    30  H    5.653385   4.429438   2.161401   2.217772   3.276836
    31  H    6.426555   4.764201   2.159661   2.732688   2.451408
                   26         27         28         29         30
    26  H    0.000000
    27  H    1.766601   0.000000
    28  H    1.764904   1.767458   0.000000
    29  C    2.789811   2.715182   3.470719   0.000000
    30  H    3.770890   3.307346   4.143799   1.093250   0.000000
    31  H    2.611388   2.285126   3.522459   1.092121   1.733308
                   31
    31  H    0.000000
 Stoichiometry    C9H18N2O2
 Framework group  C1[X(C9H18N2O2)]
 Deg. of freedom    87
 Full point group                 C1      NOp   1
 Largest Abelian subgroup         C1      NOp   1
 Largest concise Abelian subgroup C1      NOp   1
                         Standard orientation:                         
 ---------------------------------------------------------------------
 Center     Atomic      Atomic             Coordinates (Angstroms)
 Number     Number       Type             X           Y           Z
 ---------------------------------------------------------------------
      1          6           0       -0.251027    1.062116    0.144589
      2          6           0        0.199717   -0.048042   -0.803284
      3          1           0        0.515104    0.462533   -1.719337
      4          6           0       -1.143095   -1.965530    1.199654
      5          1           0       -1.816113   -2.574671    1.806848
      6          1           0       -0.169322   -2.457334    1.229515
      7          1           0       -1.048616   -0.995445    1.687639
      8          8           0        0.029426    1.089480    1.338919
      9          7           0        1.346934   -0.755241   -0.291714
     10          1           0        1.249763   -1.715739   -0.004952
     11          7           0       -0.974429    2.024010   -0.440815
     12          1           0       -1.203983    1.935714   -1.418078
     13          6           0       -1.579217    3.085796    0.330177
     14          1           0       -2.287706    2.690825    1.060891
     15          1           0       -0.821332    3.658347    0.864620
     16          1           0       -2.108383    3.753330   -0.342931
     17          6           0        2.538286   -0.151015   -0.148545
     18          6           0        3.643235   -0.982129    0.415362
     19          1           0        3.362438   -2.021397    0.571389
     20          1           0        4.499790   -0.933734   -0.256072
     21          1           0        3.951327   -0.550499    1.367888
     22          8           0        2.712802    1.025063   -0.465791
     23          6           0       -1.718295   -1.839454   -0.202055
     24          1           0       -1.784875   -2.845962   -0.623804
     25          6           0       -3.135723   -1.296515   -0.077607
     26          1           0       -3.119029   -0.292385    0.360249
     27          1           0       -3.629789   -1.227756   -1.048682
     28          1           0       -3.747697   -1.928159    0.569787
     29          6           0       -0.931257   -0.985506   -1.226030
     30          1           0       -0.480403   -1.654174   -1.964142
     31          1           0       -1.642269   -0.379540   -1.791711
 ---------------------------------------------------------------------
 Rotational constants (GHZ):      0.9254622      0.6147291      0.4397921
 Leave Link  202 at Wed Jun 18 04:06:22 2014, MaxMem=  4294967296 cpu:         1.6
 (Enter /home/ztw1e12/g09/l301.exe)
 Standard basis: CC-pVTZ (5D, 7F)
 Converting basis for Fermi contact spin-spin IFCMod=1.
 AO basis functions are being uncontracted.
 Ernie: Thresh=  0.10000D-02 Tol=  0.10000D-05 Strict=F.
 There are  1119 symmetry adapted cartesian basis functions of A   symmetry.
 There are  1036 symmetry adapted basis functions of A   symmetry.
  1036 basis functions,  1119 primitive gaussians,  1119 cartesian basis functions
    51 alpha electrons       51 beta electrons
       nuclear repulsion energy       881.7162334977 Hartrees.
 IExCor= 4235 DFT=T Ex+Corr=M06 ExCW=0 ScaHFX=  0.270000
 ScaDFX=  1.000000  1.000000  1.000000  1.000000 ScalE2=  1.000000  1.000000
 IRadAn= 199590 IRanWt=     -1 IRanGd=            0 ICorTp=0 IEmpDi=  4
 NAtoms=   31 NActive=   31 NUniq=   31 SFac= 1.00D+00 NAtFMM=   60 NAOKFM=F Big=F
 Integral buffers will be    131072 words long.
 Raffenetti 2 integral format.
 Two-electron integral symmetry is turned on.
 Leave Link  301 at Wed Jun 18 04:06:22 2014, MaxMem=  4294967296 cpu:         4.3
 (Enter /home/ztw1e12/g09/l302.exe)
 NPDir=0 NMtPBC=     1 NCelOv=     1 NCel=       1 NClECP=     1 NCelD=      1
         NCelK=      1 NCelE2=     1 NClLst=     1 CellRange=     0.0.
 One-electron integrals computed using PRISM.
 GSVD:  received Info=                   1 from GESDD.
 NBasis=  1036 RedAO= T EigKep=  1.24D-04  NBF=  1036
 NBsUse=   932 1.00D-06 EigRej=  5.21D-15 NBFU=   932
 Precomputing XC quadrature grid using
 IXCGrd= 4 IRadAn=      199590 IRanWt=          -1 IRanGd=           0 AccXCQ= 0.00D+00.
 Generated NRdTot=       0 NPtTot=           0 NUsed=           0 NTot=          32
 NSgBfM=   880   880   880   880   880 MxSgAt=    31 MxSgA2=    31.
 Leave Link  302 at Wed Jun 18 04:06:26 2014, MaxMem=  4294967296 cpu:        63.2
 (Enter /home/ztw1e12/g09/l308.exe)
 Leave Link  308 at Wed Jun 18 04:06:27 2014, MaxMem=  4294967296 cpu:         5.5
 (Enter /home/ztw1e12/g09/l303.exe)
 DipDrv:  MaxL=1.
 Leave Link  303 at Wed Jun 18 04:06:27 2014, MaxMem=  4294967296 cpu:         3.3
 (Enter /home/ztw1e12/g09/l401.exe)
 ExpMin= 1.03D-01 ExpMax= 1.38D+05 ExpMxC= 1.38D+05 IAcc=4 IRadAn=    199590 AccDes= 0.00D+00
 Harris functional with IExCor= 1009 and IRadAn=  199590 diagonalized for initial guess.
 HarFok:  IExCor= 1009 AccDes= 0.00D+00 IRadAn=    199590 IDoV= 1 UseB2=F ITyADJ=14
 ICtDFT=  3500011 ScaDFX=  1.000000  1.000000  1.000000  1.000000
 FoFCou: FMM=F IPFlag=           0 FMFlag=      100000 FMFlg1=           0
         NFxFlg=           0 DoJE=T BraDBF=F KetDBF=T FulRan=T
         wScrn=  0.000000 ICntrl=     500 IOpCl=  0 I1Cent=   200000004 NGrid=           0
         NMat0=    1 NMatS0=      1 NMatT0=    0 NMatD0=    1 NMtDS0=    0 NMtDT0=    0
 Petite list used in FoFCou.
 Harris En= -613.556824533681    
 JPrj=0 DoOrth=F DoCkMO=F.
 Leave Link  401 at Wed Jun 18 04:06:44 2014, MaxMem=  4294967296 cpu:       257.1
 (Enter /home/ztw1e12/g09/l502.exe)
 Closed shell SCF:
 Using DIIS extrapolation, IDIIS=  1040.
 Integral symmetry usage will be decided dynamically.
 IVT=     3801329 IEndB=     3801329 NGot=  4294967296 MDV=  4292435888
 LenX=  4292435888 LenY=  4291182608
 Requested convergence on RMS density matrix=1.00D-08 within 128 cycles.
 Requested convergence on MAX density matrix=1.00D-06.
 Requested convergence on             energy=1.00D-06.
 No special actions if energy rises.
 Fock matrices will be formed incrementally for  20 cycles.
 Integral accuracy reduced to 1.0D-05 until final iterations.

 Cycle   1  Pass 0  IDiag  1:
 FoFJK:  IHMeth= 1 ICntrl=       0 DoSepK=F KAlg= 0 I1Cent=   0 FoldK=F
 IRaf= 490000000 NMat=   1 IRICut=       1 DoRegI=T DoRafI=F ISym2E= 0.
 FoFCou: FMM=F IPFlag=           0 FMFlag=      100000 FMFlg1=           0
         NFxFlg=           0 DoJE=F BraDBF=F KetDBF=F FulRan=T
         wScrn=  0.000000 ICntrl=       0 IOpCl=  0 I1Cent=           0 NGrid=           0
         NMat0=    1 NMatS0=      1 NMatT0=    0 NMatD0=    1 NMtDS0=    0 NMtDT0=    0
 Symmetry not used in FoFCou.
 E= -613.176005286898    
 DIIS: error= 1.37D-01 at cycle   1 NSaved=   1.
 NSaved= 1 IEnMin= 1 EnMin= -613.176005286898     IErMin= 1 ErrMin= 1.37D-01
 ErrMax= 1.37D-01  0.00D+00 EMaxC= 1.00D-01 BMatC= 1.30D+01 BMatP= 1.30D+01
 IDIUse=3 WtCom= 0.00D+00 WtEn= 1.00D+00
 Coeff-Com:  0.100D+01
 Coeff-En:   0.100D+01
 Coeff:      0.100D+01
 Gap=     0.286 Goal=   None    Shift=    0.000
 GapD=    0.286 DampG=1.000 DampE=0.250 DampFc=0.2500 IDamp=-1.
 Damping current iteration by 2.50D-01
 RMSDP=2.18D-03 MaxDP=3.24D-01              OVMax= 2.87D-01

 Cycle   2  Pass 0  IDiag  1:
 RMSU=  5.44D-04    CP:  1.01D+00
 E= -613.332650333681     Delta-E=       -0.156645046784 Rises=F Damp=T
 DIIS: error= 1.04D-01 at cycle   2 NSaved=   2.
 NSaved= 2 IEnMin= 2 EnMin= -613.332650333681     IErMin= 2 ErrMin= 1.04D-01
 ErrMax= 1.04D-01  0.00D+00 EMaxC= 1.00D-01 BMatC= 7.66D+00 BMatP= 1.30D+01
 IDIUse=3 WtCom= 0.00D+00 WtEn= 1.00D+00
 Coeff-Com: -0.279D+01 0.379D+01
 Coeff-En:   0.000D+00 0.100D+01
 Coeff:      0.000D+00 0.100D+01
 Gap=     0.219 Goal=   None    Shift=    0.000
 RMSDP=5.82D-04 MaxDP=4.73D-02 DE=-1.57D-01 OVMax= 1.35D-01

 Cycle   3  Pass 0  IDiag  1:
 RMSU=  4.39D-04    CP:  1.03D+00  1.70D+00
 E= -613.522800166042     Delta-E=       -0.190149832361 Rises=F Damp=F
 DIIS: error= 1.59D-02 at cycle   3 NSaved=   3.
 NSaved= 3 IEnMin= 3 EnMin= -613.522800166042     IErMin= 3 ErrMin= 1.59D-02
 ErrMax= 1.59D-02  0.00D+00 EMaxC= 1.00D-01 BMatC= 2.30D-01 BMatP= 7.66D+00
 IDIUse=3 WtCom= 8.41D-01 WtEn= 1.59D-01
 Coeff-Com:  0.121D+01-0.166D+01 0.145D+01
 Coeff-En:   0.136D+00 0.000D+00 0.864D+00
 Coeff:      0.104D+01-0.140D+01 0.135D+01
 Gap=     0.249 Goal=   None    Shift=    0.000
 RMSDP=4.17D-04 MaxDP=3.58D-02 DE=-1.90D-01 OVMax= 6.63D-02

 Cycle   4  Pass 0  IDiag  1:
 RMSU=  2.68D-04    CP:  1.03D+00  1.16D+00  7.14D-01
 E= -613.539865360115     Delta-E=       -0.017065194073 Rises=F Damp=F
 DIIS: error= 7.77D-03 at cycle   4 NSaved=   4.
 NSaved= 4 IEnMin= 4 EnMin= -613.539865360115     IErMin= 4 ErrMin= 7.77D-03
 ErrMax= 7.77D-03  0.00D+00 EMaxC= 1.00D-01 BMatC= 9.98D-02 BMatP= 2.30D-01
 IDIUse=3 WtCom= 9.22D-01 WtEn= 7.77D-02
 Coeff-Com:  0.735D+00-0.101D+01 0.735D+00 0.542D+00
 Coeff-En:   0.000D+00 0.000D+00 0.437D+00 0.563D+00
 Coeff:      0.678D+00-0.934D+00 0.712D+00 0.544D+00
 Gap=     0.279 Goal=   None    Shift=    0.000
 RMSDP=2.70D-04 MaxDP=1.86D-02 DE=-1.71D-02 OVMax= 7.36D-02

 Cycle   5  Pass 0  IDiag  1:
 RMSU=  8.59D-05    CP:  1.02D+00  1.09D+00  8.54D-01  8.39D-02
 E= -613.608748154161     Delta-E=       -0.068882794046 Rises=F Damp=F
 DIIS: error= 2.85D-03 at cycle   5 NSaved=   5.
 NSaved= 5 IEnMin= 5 EnMin= -613.608748154161     IErMin= 5 ErrMin= 2.85D-03
 ErrMax= 2.85D-03  0.00D+00 EMaxC= 1.00D-01 BMatC= 1.40D-02 BMatP= 9.98D-02
 IDIUse=3 WtCom= 9.71D-01 WtEn= 2.85D-02
 Coeff-Com:  0.130D+00-0.185D+00 0.129D+00 0.274D+00 0.653D+00
 Coeff-En:   0.000D+00 0.000D+00 0.000D+00 0.847D-01 0.915D+00
 Coeff:      0.126D+00-0.180D+00 0.125D+00 0.269D+00 0.660D+00
 Gap=     0.269 Goal=   None    Shift=    0.000
 RMSDP=1.49D-04 MaxDP=1.55D-02 DE=-6.89D-02 OVMax= 2.80D-02

 Cycle   6  Pass 0  IDiag  1:
 RMSU=  7.85D-05    CP:  1.03D+00  1.14D+00  9.35D-01  4.78D-01  3.50D-01
 E= -613.616663311733     Delta-E=       -0.007915157572 Rises=F Damp=F
 DIIS: error= 9.51D-04 at cycle   6 NSaved=   6.
 NSaved= 6 IEnMin= 6 EnMin= -613.616663311733     IErMin= 6 ErrMin= 9.51D-04
 ErrMax= 9.51D-04  0.00D+00 EMaxC= 1.00D-01 BMatC= 1.06D-03 BMatP= 1.40D-02
 IDIUse=3 WtCom= 9.90D-01 WtEn= 9.51D-03
 Coeff-Com:  0.574D-01-0.779D-01 0.181D-01 0.444D-01 0.205D+00 0.753D+00
 Coeff-En:   0.000D+00 0.000D+00 0.000D+00 0.000D+00 0.831D-02 0.992D+00
 Coeff:      0.568D-01-0.772D-01 0.179D-01 0.440D-01 0.203D+00 0.755D+00
 Gap=     0.268 Goal=   None    Shift=    0.000
 RMSDP=3.04D-05 MaxDP=3.06D-03 DE=-7.92D-03 OVMax= 8.24D-03

 Cycle   7  Pass 0  IDiag  1:
 RMSU=  2.15D-05    CP:  1.03D+00  1.11D+00  9.33D-01  4.72D-01  4.92D-01
                    CP:  1.07D+00
 E= -613.617248135843     Delta-E=       -0.000584824110 Rises=F Damp=F
 DIIS: error= 4.49D-04 at cycle   7 NSaved=   7.
 NSaved= 7 IEnMin= 7 EnMin= -613.617248135843     IErMin= 7 ErrMin= 4.49D-04
 ErrMax= 4.49D-04  0.00D+00 EMaxC= 1.00D-01 BMatC= 2.26D-04 BMatP= 1.06D-03
 IDIUse=3 WtCom= 9.96D-01 WtEn= 4.49D-03
 Coeff-Com:  0.386D-01-0.518D-01 0.120D-01 0.787D-02 0.604D-01 0.417D+00
 Coeff-Com:  0.516D+00
 Coeff-En:   0.000D+00 0.000D+00 0.000D+00 0.000D+00 0.000D+00 0.104D+00
 Coeff-En:   0.896D+00
 Coeff:      0.384D-01-0.515D-01 0.120D-01 0.784D-02 0.601D-01 0.416D+00
 Coeff:      0.517D+00
 Gap=     0.268 Goal=   None    Shift=    0.000
 RMSDP=1.11D-05 MaxDP=1.09D-03 DE=-5.85D-04 OVMax= 2.59D-03

 Cycle   8  Pass 0  IDiag  1:
 RMSU=  6.77D-06    CP:  1.03D+00  1.10D+00  9.38D-01  4.84D-01  4.78D-01
                    CP:  1.13D+00  7.17D-01
 E= -613.617401636139     Delta-E=       -0.000153500296 Rises=F Damp=F
 DIIS: error= 1.46D-04 at cycle   8 NSaved=   8.
 NSaved= 8 IEnMin= 8 EnMin= -613.617401636139     IErMin= 8 ErrMin= 1.46D-04
 ErrMax= 1.46D-04  0.00D+00 EMaxC= 1.00D-01 BMatC= 2.61D-05 BMatP= 2.26D-04
 IDIUse=3 WtCom= 9.99D-01 WtEn= 1.46D-03
 Coeff-Com:  0.210D-01-0.282D-01 0.819D-02-0.315D-02 0.383D-02 0.164D+00
 Coeff-Com:  0.299D+00 0.535D+00
 Coeff-En:   0.000D+00 0.000D+00 0.000D+00 0.000D+00 0.000D+00 0.000D+00
 Coeff-En:   0.000D+00 0.100D+01
 Coeff:      0.210D-01-0.281D-01 0.818D-02-0.315D-02 0.382D-02 0.163D+00
 Coeff:      0.299D+00 0.536D+00
 Gap=     0.268 Goal=   None    Shift=    0.000
 RMSDP=5.41D-06 MaxDP=5.35D-04 DE=-1.54D-04 OVMax= 1.17D-03

 Initial convergence to 1.0D-05 achieved.  Increase integral accuracy.
 Cycle   9  Pass 1  IDiag  1:
 E= -613.617438605979     Delta-E=       -0.000036969839 Rises=F Damp=F
 DIIS: error= 7.43D-05 at cycle   1 NSaved=   1.
 NSaved= 1 IEnMin= 1 EnMin= -613.617438605979     IErMin= 1 ErrMin= 7.43D-05
 ErrMax= 7.43D-05  0.00D+00 EMaxC= 1.00D-01 BMatC= 1.21D-05 BMatP= 1.21D-05
 IDIUse=1 WtCom= 1.00D+00 WtEn= 0.00D+00
 Coeff-Com:  0.100D+01
 Coeff:      0.100D+01
 Gap=     0.268 Goal=   None    Shift=    0.000
 RMSDP=5.41D-06 MaxDP=5.35D-04 DE=-3.70D-05 OVMax= 1.44D-03

 Cycle  10  Pass 1  IDiag  1:
 RMSU=  2.64D-05    CP:  1.00D+00
 E= -613.617435821188     Delta-E=        0.000002784791 Rises=F Damp=F
 DIIS: error= 1.28D-04 at cycle   2 NSaved=   2.
 NSaved= 2 IEnMin= 1 EnMin= -613.617438605979     IErMin= 1 ErrMin= 7.43D-05
 ErrMax= 1.28D-04  0.00D+00 EMaxC= 1.00D-01 BMatC= 1.35D-05 BMatP= 1.21D-05
 IDIUse=3 WtCom= 4.70D-01 WtEn= 5.30D-01
 Coeff-Com:  0.518D+00 0.482D+00
 Coeff-En:   0.597D+00 0.403D+00
 Coeff:      0.560D+00 0.440D+00
 Gap=     0.268 Goal=   None    Shift=    0.000
 RMSDP=3.86D-06 MaxDP=4.55D-04 DE= 2.78D-06 OVMax= 1.25D-03

 Cycle  11  Pass 1  IDiag  1:
 RMSU=  3.83D-06    CP:  1.00D+00  9.89D-01
 E= -613.617444236121     Delta-E=       -0.000008414933 Rises=F Damp=F
 DIIS: error= 5.03D-05 at cycle   3 NSaved=   3.
 NSaved= 3 IEnMin= 3 EnMin= -613.617444236121     IErMin= 3 ErrMin= 5.03D-05
 ErrMax= 5.03D-05  0.00D+00 EMaxC= 1.00D-01 BMatC= 1.81D-06 BMatP= 1.21D-05
 IDIUse=1 WtCom= 1.00D+00 WtEn= 0.00D+00
 Coeff-Com:  0.503D-01 0.266D+00 0.684D+00
 Coeff:      0.503D-01 0.266D+00 0.684D+00
 Gap=     0.268 Goal=   None    Shift=    0.000
 RMSDP=1.10D-06 MaxDP=1.17D-04 DE=-8.41D-06 OVMax= 3.38D-04

 Cycle  12  Pass 1  IDiag  1:
 RMSU=  6.12D-07    CP:  1.00D+00  1.01D+00  7.96D-01
 E= -613.617445438826     Delta-E=       -0.000001202705 Rises=F Damp=F
 DIIS: error= 9.55D-06 at cycle   4 NSaved=   4.
 NSaved= 4 IEnMin= 4 EnMin= -613.617445438826     IErMin= 4 ErrMin= 9.55D-06
 ErrMax= 9.55D-06  0.00D+00 EMaxC= 1.00D-01 BMatC= 9.00D-08 BMatP= 1.81D-06
 IDIUse=1 WtCom= 1.00D+00 WtEn= 0.00D+00
 Coeff-Com:  0.440D-02 0.110D+00 0.327D+00 0.559D+00
 Coeff:      0.440D-02 0.110D+00 0.327D+00 0.559D+00
 Gap=     0.268 Goal=   None    Shift=    0.000
 RMSDP=2.48D-07 MaxDP=2.32D-05 DE=-1.20D-06 OVMax= 5.00D-05

 Cycle  13  Pass 1  IDiag  1:
 RMSU=  2.35D-07    CP:  1.00D+00  1.01D+00  7.99D-01  8.90D-01
 E= -613.617445499870     Delta-E=       -0.000000061045 Rises=F Damp=F
 DIIS: error= 2.78D-06 at cycle   5 NSaved=   5.
 NSaved= 5 IEnMin= 5 EnMin= -613.617445499870     IErMin= 5 ErrMin= 2.78D-06
 ErrMax= 2.78D-06  0.00D+00 EMaxC= 1.00D-01 BMatC= 7.74D-09 BMatP= 9.00D-08
 IDIUse=1 WtCom= 1.00D+00 WtEn= 0.00D+00
 Coeff-Com: -0.226D-02 0.314D-01 0.102D+00 0.279D+00 0.590D+00
 Coeff:     -0.226D-02 0.314D-01 0.102D+00 0.279D+00 0.590D+00
 Gap=     0.268 Goal=   None    Shift=    0.000
 RMSDP=8.18D-08 MaxDP=7.93D-06 DE=-6.10D-08 OVMax= 1.58D-05

 Cycle  14  Pass 1  IDiag  1:
 RMSU=  4.66D-08    CP:  1.00D+00  1.01D+00  8.05D-01  9.71D-01  8.61D-01
 E= -613.617445505396     Delta-E=       -0.000000005525 Rises=F Damp=F
 DIIS: error= 5.67D-07 at cycle   6 NSaved=   6.
 NSaved= 6 IEnMin= 6 EnMin= -613.617445505396     IErMin= 6 ErrMin= 5.67D-07
 ErrMax= 5.67D-07  0.00D+00 EMaxC= 1.00D-01 BMatC= 3.82D-10 BMatP= 7.74D-09
 IDIUse=1 WtCom= 1.00D+00 WtEn= 0.00D+00
 Coeff-Com: -0.117D-02 0.896D-02 0.301D-01 0.101D+00 0.267D+00 0.594D+00
 Coeff:     -0.117D-02 0.896D-02 0.301D-01 0.101D+00 0.267D+00 0.594D+00
 Gap=     0.268 Goal=   None    Shift=    0.000
 RMSDP=2.34D-08 MaxDP=2.29D-06 DE=-5.53D-09 OVMax= 8.02D-06

 Cycle  15  Pass 1  IDiag  1:
 RMSU=  1.99D-08    CP:  1.00D+00  1.01D+00  8.06D-01  9.85D-01  8.74D-01
                    CP:  8.47D-01
 E= -613.617445505532     Delta-E=       -0.000000000136 Rises=F Damp=F
 DIIS: error= 4.60D-07 at cycle   7 NSaved=   7.
 NSaved= 7 IEnMin= 7 EnMin= -613.617445505532     IErMin= 7 ErrMin= 4.60D-07
 ErrMax= 4.60D-07  0.00D+00 EMaxC= 1.00D-01 BMatC= 1.53D-10 BMatP= 3.82D-10
 IDIUse=1 WtCom= 1.00D+00 WtEn= 0.00D+00
 Coeff-Com: -0.313D-03-0.707D-03-0.164D-02 0.699D-02 0.476D-01 0.400D+00
 Coeff-Com:  0.548D+00
 Coeff:     -0.313D-03-0.707D-03-0.164D-02 0.699D-02 0.476D-01 0.400D+00
 Coeff:      0.548D+00
 Gap=     0.268 Goal=   None    Shift=    0.000
 RMSDP=1.63D-08 MaxDP=2.17D-06 DE=-1.36D-10 OVMax= 3.23D-06

 Cycle  16  Pass 1  IDiag  1:
 RMSU=  7.52D-09    CP:  1.00D+00  1.01D+00  8.06D-01  9.96D-01  8.91D-01
                    CP:  1.05D+00  7.69D-01
 E= -613.617445505633     Delta-E=       -0.000000000101 Rises=F Damp=F
 DIIS: error= 1.14D-07 at cycle   8 NSaved=   8.
 NSaved= 8 IEnMin= 8 EnMin= -613.617445505633     IErMin= 8 ErrMin= 1.14D-07
 ErrMax= 1.14D-07  0.00D+00 EMaxC= 1.00D-01 BMatC= 1.05D-11 BMatP= 1.53D-10
 IDIUse=1 WtCom= 1.00D+00 WtEn= 0.00D+00
 Coeff-Com: -0.191D-04-0.151D-02-0.461D-02-0.875D-02-0.789D-02 0.144D+00
 Coeff-Com:  0.286D+00 0.592D+00
 Coeff:     -0.191D-04-0.151D-02-0.461D-02-0.875D-02-0.789D-02 0.144D+00
 Coeff:      0.286D+00 0.592D+00
 Gap=     0.268 Goal=   None    Shift=    0.000
 RMSDP=3.54D-09 MaxDP=3.25D-07 DE=-1.01D-10 OVMax= 6.64D-07

 SCF Done:  E(RM06) =  -613.617445506     A.U. after   16 cycles
            NFock= 16  Conv=0.35D-08     -V/T= 2.0046
 KE= 6.107914753243D+02 PE=-3.194893113794D+03 EE= 1.088767959466D+03
 Leave Link  502 at Wed Jun 18 04:34:43 2014, MaxMem=  4294967296 cpu:     26801.4
 (Enter /home/ztw1e12/g09/l801.exe)
 DoSCS=F DFT=T ScalE2(SS,OS)=  1.000000  1.000000
 Range of M.O.s used for correlation:     1   932
 NBasis=  1036 NAE=    51 NBE=    51 NFC=     0 NFV=     0
 NROrb=    932 NOA=    51 NOB=    51 NVA=   881 NVB=   881

 **** Warning!!: The largest alpha MO coefficient is  0.13909203D+02

 Leave Link  801 at Wed Jun 18 04:34:43 2014, MaxMem=  4294967296 cpu:         0.4
 (Enter /home/ztw1e12/g09/l1002.exe)
 Minotr:  Closed shell wavefunction.
          IDoAtm=1111111111111111111111111111111
          Direct CPHF calculation.
          Differentiating once with respect to Fermi-contact.
          Electric field/nuclear overlap derivatives assumed to be zero.
          Requested convergence is 1.0D-10 RMS, and 1.0D-09 maximum.
          Secondary convergence is 1.0D-12 RMS, and 1.0D-12 maximum.
          NewPWx=T KeepS1=F KeepF1=F KeepIn=T MapXYZ=F SortEE=F KeepMc=T.
          MDV=    4294966050 using IRadAn=  199590.
 Using stored XC quadrature information.
          Solving linear equations simultaneously, MaxMat=       0.
          There are    31 degrees of freedom in the 1st order CPHF.  IDoFFX=0 NUNeed=    31.
     31 vectors produced by pass  0 Test12= 1.45D-17 3.23D-11 XBig12= 4.16D+01 2.57D+00.
 AX will form    31 AO Fock derivatives at one time.
 FoFJK:  IHMeth= 1 ICntrl=       0 DoSepK=F KAlg= 0 I1Cent=   0 FoldK=F
 IRaf= 510000000 NMat=  31 IRICut=       1 DoRegI=T DoRafI=F ISym2E=-1.
 FoFCou: FMM=F IPFlag=           0 FMFlag=      100000 FMFlg1=           0
         NFxFlg=           0 DoJE=F BraDBF=F KetDBF=F FulRan=T
         wScrn=  0.000000 ICntrl=       0 IOpCl=  0 I1Cent=           0 NGrid=           0
         NMat0=   31 NMatS0=      0 NMatT0=   31 NMatD0=   31 NMtDS0=    0 NMtDT0=    0
 Petite list used in FoFCou.
     31 vectors produced by pass  1 Test12= 1.45D-17 3.23D-11 XBig12= 3.45D-01 1.76D-01.
     31 vectors produced by pass  2 Test12= 1.45D-17 3.23D-11 XBig12= 1.68D-02 5.09D-02.
     31 vectors produced by pass  3 Test12= 1.45D-17 3.23D-11 XBig12= 3.73D-04 6.33D-03.
     31 vectors produced by pass  4 Test12= 1.45D-17 3.23D-11 XBig12= 5.35D-06 8.91D-04.
     31 vectors produced by pass  5 Test12= 1.45D-17 3.23D-11 XBig12= 1.04D-07 1.58D-04.
     31 vectors produced by pass  6 Test12= 1.45D-17 3.23D-11 XBig12= 3.20D-09 1.78D-05.
     31 vectors produced by pass  7 Test12= 1.45D-17 3.23D-11 XBig12= 1.02D-10 4.36D-06.
     31 vectors produced by pass  8 Test12= 1.45D-17 3.23D-11 XBig12= 2.26D-12 3.64D-07.
     31 vectors produced by pass  9 Test12= 1.45D-17 3.23D-11 XBig12= 6.03D-14 8.60D-08.
     31 vectors produced by pass 10 Test12= 1.45D-17 3.23D-11 XBig12= 2.41D-15 9.18D-09.
     30 vectors produced by pass 11 Test12= 1.45D-17 3.23D-11 XBig12= 2.31D-17 6.89D-10.
      6 vectors produced by pass 12 Test12= 1.45D-17 3.23D-11 XBig12= 1.87D-19 5.73D-11.
 InvSVY:  IOpt=1 It=  1 EMax= 7.11D-15
 Solved reduced A of dimension   377 with    31 vectors.
 Max diff in FC couplings:  IJMax=    11     1 Diff= 5.05D-04 IJMaxR=    13     6 DiffR= 5.93D-01
 Fermi Contact (FC) contribution to K (Hz):
                1             2             3             4             5 
      1  0.123400D+11
      2  0.272028D+02  0.123400D+11
      3 -0.115896D+01  0.186326D+02  0.123400D+11
      4  0.709115D-01  0.108768D+01  0.633223D-02  0.123400D+11
      5  0.201227D-01  0.300473D-01  0.751582D-02  0.168353D+02  0.123400D+11
      6  0.555649D-02 -0.701644D-02  0.616614D-02  0.164276D+02 -0.834948D+00
      7  0.383770D-01  0.198976D-01  0.690157D-02  0.187026D+02 -0.847995D+00
      8 -0.960676D+01  0.274001D+01  0.407326D+00  0.228784D+01  0.798821D-01
      9  0.439486D+00  0.196579D+02 -0.762481D+00  0.103630D+01  0.220502D+00
     10  0.649775D-01  0.251677D+00  0.169872D+00 -0.546315D-01 -0.547315D-02
     11  0.287498D+02  0.139937D+02  0.186552D+00  0.137620D+00  0.863224D-02
     12  0.460571D+00  0.104106D+00 -0.239836D-01  0.156539D-02 -0.907144D-04
     13 -0.373794D+00  0.106273D+01  0.552316D-03 -0.259988D-02  0.388322D-03
     14  0.197363D+00 -0.899776D-01  0.200993D-01  0.426143D-02 -0.138974D-03
     15  0.190030D+00 -0.764792D-01  0.115290D-01 -0.940988D-03  0.216125D-04
     16  0.960319D+00 -0.237620D-01 -0.514807D-03  0.402033D-03  0.991882D-04
     17  0.948944D-01 -0.420467D+00  0.305219D+00  0.164217D-01  0.150205D-01
     18 -0.151737D+00  0.899835D+00 -0.855475D-01 -0.379013D-02 -0.141979D-02
     19 -0.102615D-02  0.106867D+00 -0.162919D-02 -0.725804D-03  0.693973D-04
     20  0.502092D-01  0.342477D-01  0.156230D-01  0.148092D-02  0.563285D-03
     21  0.793235D-01  0.246130D-01  0.268555D-01  0.498858D-03  0.468236D-03
     22  0.493209D+00  0.819236D+00  0.231623D+00  0.953052D-01  0.970062D-02
     23  0.593698D+00 -0.686866D+00  0.115757D+01  0.169206D+02 -0.675899D+00
     24 -0.226737D-01  0.483816D+00 -0.268146D-01 -0.846677D+00  0.132651D+00
     25  0.529873D-01  0.239653D+00 -0.370033D-01  0.167408D+00  0.441879D+00
     26  0.175988D-01 -0.126180D-02  0.283172D-02  0.457349D+00 -0.709532D-02
     27  0.156780D-02 -0.224185D-02 -0.301599D-03  0.130873D+01  0.186829D-01
     28  0.576144D-02  0.328080D-01  0.126433D-02  0.314254D+00 -0.919534D-02
     29 -0.292689D+00  0.165461D+02 -0.896615D+00 -0.296863D+00  0.118787D+01
     30  0.116417D+01 -0.105589D+01  0.167110D+00  0.109862D+00 -0.215031D-01
     31  0.147079D+00 -0.440229D+00  0.154382D+00  0.447037D+00  0.812346D-02
                6             7             8             9            10 
      6  0.123400D+11
      7 -0.776235D+00  0.123400D+11
      8 -0.469850D-01 -0.562261D-01  0.123400D+11
      9  0.497049D+00  0.301723D-01  0.287918D+00  0.123400D+11
     10 -0.306418D-01  0.995680D-02 -0.954341D-03  0.317375D+02  0.123400D+11
     11 -0.147645D-02  0.208814D-02  0.646378D+01  0.117372D+01  0.172149D+00
     12  0.223863D-04 -0.465580D-03  0.484097D+00  0.480425D-01  0.109272D-03
     13  0.238251D-04  0.315153D-02  0.683069D+00  0.315106D+00  0.170120D-01
     14  0.634714D-04  0.624825D-03  0.242380D+00 -0.885906D-02 -0.110997D-02
     15  0.431260D-04  0.244834D-03  0.241924D+00 -0.521096D-02 -0.103990D-02
     16  0.139815D-04  0.295880D-03  0.186646D+00  0.266408D-01 -0.822515D-03
     17  0.262097D-01  0.423889D-02  0.575408D-01  0.266353D+02  0.401663D+00
     18  0.226747D-02 -0.483300D-03  0.782200D-01  0.127296D+02  0.975665D-01
     19  0.259291D-02 -0.123160D-03 -0.661662D-03  0.344179D+00 -0.100918D-01
     20  0.688908D-03  0.149012D-03  0.437360D-02  0.434069D+00 -0.648517D-02
     21  0.268881D-03  0.198605D-03  0.304107D-02  0.307584D+00 -0.161436D-01
     22  0.117747D-01  0.717172D-03  0.756385D+00  0.572991D+01  0.418158D+00
     23 -0.494071D+00 -0.778831D+00 -0.541514D-01  0.130679D+00 -0.939234D-03
     24  0.147779D+00  0.435576D+00  0.494414D-01  0.120291D-03  0.455312D-02
     25  0.150512D+01  0.397800D+00 -0.127800D-02  0.197144D+00 -0.305494D-02
     26 -0.721375D-02 -0.180325D-01  0.294268D-01  0.427969D-03  0.245459D-03
     27  0.906129D-01 -0.952411D-02  0.290980D-02  0.744897D-02 -0.441186D-03
     28  0.311871D-02 -0.544675D-02  0.729285D-03 -0.330334D-02 -0.949550D-04
     29  0.126598D+00  0.370298D+00  0.275154D+00  0.518299D+00  0.469497D+00
     30 -0.445830D-02 -0.771264D-02  0.714068D-01  0.601696D+00 -0.155790D-01
     31 -0.921576D-02 -0.925948D-02 -0.229558D-01  0.191043D+01 -0.217581D-01
               11            12            13            14            15 
     11  0.123400D+11
     12  0.311752D+02  0.123400D+11
     13  0.170919D+02  0.315590D+00  0.123400D+11
     14 -0.606023D+00  0.619642D-01  0.196306D+02  0.123400D+11
     15 -0.536328D+00  0.157587D+00  0.203510D+02 -0.731619D+00  0.123400D+11
     16 -0.377577D+00  0.285955D+00  0.182449D+02 -0.732530D+00 -0.761457D+00
     17 -0.694150D-01 -0.228178D-03 -0.944692D-02  0.101550D-02  0.585529D-03
     18  0.151991D-01  0.126144D-02  0.125909D-01  0.103657D-02  0.638240D-03
     19  0.686791D-02  0.252308D-04  0.579240D-04 -0.486945D-04 -0.246706D-04
     20 -0.303477D-02 -0.141551D-03 -0.439845D-03  0.432917D-04 -0.218809D-04
     21  0.140846D-01 -0.878688D-04  0.196237D-02  0.119676D-03 -0.554044D-04
     22  0.172805D+00 -0.176911D-02  0.104578D-01  0.503261D-02  0.190077D-02
     23 -0.745788D-02  0.173964D-02 -0.266562D-02 -0.224340D-02 -0.770352D-03
     24  0.616417D-02 -0.684344D-03  0.472560D-03  0.767473D-03  0.237220D-04
     25  0.171766D+00 -0.923578D-02 -0.269615D-01  0.485911D-02  0.584054D-02
     26  0.517654D-01 -0.566749D-04  0.403015D-02  0.807749D-02  0.302046D-02
     27 -0.326491D-02  0.543657D-03  0.585242D-03  0.193092D-05 -0.105297D-04
     28  0.203931D-01 -0.324163D-03 -0.109374D-02  0.131564D-02  0.110783D-02
     29  0.144380D+00 -0.321546D-01 -0.139640D+00  0.800705D-01  0.109073D+00
     30 -0.442227D-01 -0.647860D-02 -0.609147D-02  0.249081D-02  0.416595D-02
     31  0.794257D-01 -0.128460D-01 -0.267839D-02  0.587788D-03  0.107981D-02
               16            17            18            19            20 
     16  0.123400D+11
     17 -0.643440D-04  0.123400D+11
     18  0.325228D-03  0.272640D+02  0.123400D+11
     19  0.129171D-04 -0.756504D+00  0.170108D+02  0.123400D+11
     20  0.935403D-04 -0.116529D+01  0.179835D+02 -0.713397D+00  0.123400D+11
     21  0.359865D-03 -0.122175D+01  0.179347D+02 -0.752507D+00 -0.922093D+00
     22  0.175446D-02 -0.954836D+01  0.376906D+01  0.830376D+00  0.424666D+00
     23 -0.238413D-03 -0.650030D-01  0.115071D-01 -0.452619D-03 -0.963645D-03
     24  0.180879D-03  0.562701D-02 -0.117110D-02  0.273127D-05 -0.927048D-05
     25  0.134439D-02  0.160442D-01  0.660525D-02  0.111806D-02  0.107648D-02
     26  0.638388D-03 -0.103524D-03  0.476484D-04 -0.192834D-04 -0.241911D-04
     27 -0.335430D-04  0.135784D-02  0.187267D-03  0.791993D-04  0.663862D-05
     28  0.904973D-04 -0.202156D-03 -0.167893D-03 -0.699476D-05  0.637670D-04
     29  0.235291D-02  0.141902D+01 -0.366079D-01 -0.198135D-02  0.120980D-01
     30  0.388478D-03 -0.109998D-01  0.118891D-01  0.125586D-04 -0.373866D-03
     31  0.518351D-03  0.109515D+00  0.629303D-01 -0.316346D-04  0.262070D-02
               21            22            23            24            25 
     21  0.123400D+11
     22  0.449424D+00  0.123400D+11
     23 -0.188790D-03  0.804777D-01  0.123400D+11
     24  0.500619D-04  0.659228D-02  0.176164D+02  0.123400D+11
     25 -0.291263D-03  0.382234D-02  0.167117D+02 -0.789382D+00  0.123400D+11
     26  0.313385D-04  0.105009D-02 -0.729347D+00  0.426576D+00  0.170971D+02
     27 -0.313220D-04  0.160626D-03 -0.558474D+00  0.147000D+00  0.173803D+02
     28 -0.839659D-04  0.378650D-02 -0.509928D+00  0.125911D+00  0.174954D+02
     29 -0.462253D-02  0.165227D+00  0.173833D+02 -0.645459D+00  0.167551D+00
     30 -0.666700D-03 -0.217028D-02 -0.559443D+00  0.376634D+00  0.575451D+00
     31 -0.208465D-02 -0.473559D-02 -0.654532D+00  0.314517D-01  0.115645D+01
               26            27            28            29            30 
     26  0.123400D+11
     27 -0.746629D+00  0.123400D+11
     28 -0.777038D+00 -0.755111D+00  0.123400D+11
     29  0.386077D+00  0.433380D+00  0.146603D+01  0.123400D+11
     30 -0.668201D-02 -0.581129D-02  0.166745D-01  0.169900D+02  0.123400D+11
     31 -0.112659D-01 -0.156975D-01  0.387297D-01  0.173504D+02 -0.947059D+00
               31 
     31  0.123400D+11
 Fermi Contact (FC) contribution to J (Hz):
                1             2             3             4             5 
      1  0.243533D+11
      2  0.536853D+02  0.243533D+11
      3 -0.909427D+01  0.146209D+03  0.385007D+12
      4  0.139946D+00  0.214656D+01  0.496884D-01  0.243533D+11
      5  0.157901D+00  0.235779D+00  0.234493D+00  0.132105D+03  0.385007D+12
      6  0.436012D-01 -0.550574D-01  0.192383D+00  0.128906D+03 -0.260503D+02
      7  0.301141D+00  0.156134D+00  0.215329D+00  0.146757D+03 -0.264574D+02
      8  0.102233D+02 -0.291587D+01 -0.172351D+01 -0.243468D+01 -0.338003D+00
      9  0.249282D+00  0.111502D+02 -0.171961D+01  0.587800D+00  0.497295D+00
     10  0.509872D+00  0.197488D+01  0.529999D+01 -0.428688D+00 -0.170762D+00
     11  0.163073D+02  0.793738D+01  0.420727D+00  0.780600D-01  0.194682D-01
     12  0.361405D+01  0.816913D+00 -0.748288D+00  0.122834D-01 -0.283029D-02
     13 -0.737691D+00  0.209732D+01  0.433397D-02 -0.513094D-02  0.304712D-02
     14  0.154869D+01 -0.706045D+00  0.627097D+00  0.334390D-01 -0.433598D-02
     15  0.149115D+01 -0.600125D+00  0.359703D+00 -0.738384D-02  0.674310D-03
     16  0.753553D+01 -0.186458D+00 -0.160619D-01  0.315472D-02  0.309467D-02
     17  0.187277D+00 -0.829803D+00  0.239503D+01  0.324085D-01  0.117865D+00
     18 -0.299456D+00  0.177585D+01 -0.671283D+00 -0.747993D-02 -0.111410D-01
     19 -0.805212D-02  0.838577D+00 -0.508306D-01 -0.569531D-02  0.216519D-02
     20  0.393987D+00  0.268739D+00  0.487435D+00  0.116206D-01  0.175745D-01
     21  0.622443D+00  0.193136D+00  0.837889D+00  0.391449D-02  0.146089D-01
     22 -0.524864D+00 -0.871815D+00 -0.980060D+00 -0.101422D+00 -0.410460D-01
     23  0.117168D+01 -0.135555D+01  0.908334D+01  0.333931D+02 -0.530371D+01
     24 -0.177918D+00  0.379646D+01 -0.836614D+00 -0.664379D+01  0.413870D+01
     25  0.104572D+00  0.472961D+00 -0.290362D+00  0.330384D+00  0.346738D+01
     26  0.138096D+00 -0.990125D-02  0.883496D-01  0.358878D+01 -0.221374D+00
     27  0.123024D-01 -0.175916D-01 -0.940987D-02  0.102695D+02  0.582905D+00
     28  0.452095D-01  0.257441D+00  0.394470D-01  0.246592D+01 -0.286894D+00
     29 -0.577628D+00  0.326541D+02 -0.703565D+01 -0.585866D+00  0.932111D+01
     30  0.913514D+01 -0.828550D+01  0.521381D+01  0.862080D+00 -0.670894D+00
     31  0.115412D+01 -0.345444D+01  0.481671D+01  0.350785D+01  0.253452D+00
                6             7             8             9            10 
      6  0.385007D+12
      7 -0.242185D+02  0.385007D+12
      8  0.198807D+00  0.237908D+00  0.708114D+10
      9  0.112099D+01  0.680472D-01 -0.880617D-01  0.201170D+10
     10 -0.956023D+00  0.310652D+00  0.403808D-02  0.715771D+02  0.385007D+12
     11 -0.332982D-02  0.470935D-02 -0.197699D+01  0.191344D+00  0.388246D+00
     12  0.698452D-03 -0.145261D-01 -0.204835D+01  0.108350D+00  0.340930D-02
     13  0.186953D-03  0.247298D-01 -0.726909D+00  0.178732D+00  0.133491D+00
     14  0.198031D-02  0.194945D-01 -0.102558D+01 -0.199797D-01 -0.346312D-01
     15  0.134553D-02  0.763880D-02 -0.102365D+01 -0.117522D-01 -0.324449D-01
     16  0.436221D-03  0.923145D-02 -0.789748D+00  0.600826D-01 -0.256624D-01
     17  0.205665D+00  0.332622D-01 -0.612338D-01  0.151079D+02  0.315181D+01
     18  0.177926D-01 -0.379241D-02 -0.832402D-01  0.722037D+01  0.765595D+00
     19  0.808985D-01 -0.384260D-02  0.279967D-02  0.776221D+00 -0.314863D+00
     20  0.214939D-01  0.464916D-02 -0.185059D-01  0.978950D+00 -0.202337D+00
     21  0.838907D-02  0.619648D-02 -0.128676D-01  0.693689D+00 -0.503681D+00
     22 -0.498221D-01 -0.303455D-02  0.434041D+00 -0.175253D+01 -0.176934D+01
     23 -0.387692D+01 -0.611141D+01  0.576269D-01  0.741229D-01 -0.737008D-02
     24  0.461069D+01  0.135899D+02 -0.209200D+00  0.271291D-03  0.142057D+00
     25  0.118105D+02  0.312150D+01  0.136002D-02  0.111823D+00 -0.239718D-01
     26 -0.225069D+00 -0.562613D+00 -0.124513D+00  0.965191D-03  0.765830D-02
     27  0.282712D+01 -0.297152D+00 -0.123122D-01  0.167995D-01 -0.137650D-01
     28  0.973036D-01 -0.169938D+00 -0.308580D-02 -0.744998D-02 -0.296259D-02
     29  0.993405D+00  0.290569D+01 -0.292813D+00  0.293986D+00  0.368410D+01
     30 -0.139099D+00 -0.240634D+00 -0.302142D+00  0.135700D+01 -0.486065D+00
     31 -0.287531D+00 -0.288895D+00  0.971323D-01  0.430856D+01 -0.678852D+00
               11            12            13            14            15 
     11  0.201170D+10
     12  0.703089D+02  0.385007D+12
     13  0.969473D+01  0.247641D+01  0.243533D+11
     14 -0.136675D+01  0.193328D+01  0.154039D+03  0.385007D+12
     15 -0.120957D+01  0.491669D+01  0.159693D+03 -0.228265D+02  0.385007D+12
     16 -0.851544D+00  0.892177D+01  0.143166D+03 -0.228549D+02 -0.237574D+02
     17 -0.393730D-01 -0.179049D-02 -0.186437D-01  0.796854D-02  0.459459D-02
     18  0.862114D-02  0.989836D-02  0.248484D-01  0.813390D-02  0.500820D-02
     19  0.154891D-01  0.787199D-03  0.454524D-03 -0.151926D-02 -0.769723D-03
     20 -0.684428D-02 -0.441638D-02 -0.345142D-02  0.135070D-02 -0.682682D-03
     21  0.317647D-01 -0.274150D-02  0.153985D-01  0.373389D-02 -0.172862D-02
     22 -0.528535D-01  0.748558D-02 -0.111290D-01 -0.212944D-01 -0.804269D-02
     23 -0.423020D-02  0.136508D-01 -0.526067D-02 -0.176038D-01 -0.604488D-02
     24  0.139020D-01 -0.213515D-01  0.370813D-02  0.239451D-01  0.740126D-03
     25  0.974279D-01 -0.724722D-01 -0.532091D-01  0.381289D-01  0.458301D-01
     26  0.116746D+00 -0.176825D-02  0.316242D-01  0.252017D+00  0.942381D-01
     27 -0.736331D-02  0.169621D-01  0.459233D-02  0.602447D-04 -0.328525D-03
     28  0.459922D-01 -0.101139D-01 -0.858247D-02  0.410480D-01  0.345643D-01
     29  0.818943D-01 -0.252314D+00 -0.275583D+00  0.628306D+00  0.855886D+00
     30 -0.997347D-01 -0.202132D+00 -0.477991D-01  0.777131D-01  0.129977D+00
     31  0.179128D+00 -0.400796D+00 -0.210170D-01  0.183390D-01  0.336901D-01
               16            17            18            19            20 
     16  0.385007D+12
     17 -0.504901D-03  0.243533D+11
     18  0.255203D-02  0.538062D+02  0.243533D+11
     19  0.403013D-03 -0.593622D+01  0.133482D+03  0.385007D+12
     20  0.291845D-02 -0.914395D+01  0.141115D+03 -0.222580D+02  0.385007D+12
     21  0.112278D-01 -0.958693D+01  0.140732D+03 -0.234782D+02 -0.287692D+02
     22 -0.742362D-02  0.101612D+02 -0.401096D+01 -0.351355D+01 -0.179688D+01
     23 -0.187080D-02 -0.128285D+00  0.227096D-01 -0.355166D-02 -0.756163D-02
     24  0.564341D-02  0.441546D-01 -0.918951D-02  0.852155D-04 -0.289238D-03
     25  0.105493D-01  0.316635D-01  0.130356D-01  0.877328D-02  0.844702D-02
     26  0.199177D-01 -0.812342D-03  0.373892D-03 -0.601640D-03 -0.754760D-03
     27 -0.104654D-02  0.106548D-01  0.146946D-02  0.247102D-02  0.207125D-03
     28  0.282351D-02 -0.158630D-02 -0.131744D-02 -0.218236D-03  0.198953D-02
     29  0.184631D-01  0.280048D+01 -0.722466D-01 -0.155475D-01  0.949321D-01
     30  0.121205D-01 -0.863147D-01  0.932928D-01  0.391828D-03 -0.116646D-01
     31  0.161725D-01  0.859357D+00  0.493808D+00 -0.987000D-03  0.817657D-01
               21            22            23            24            25 
     21  0.385007D+12
     22 -0.190163D+01  0.708114D+10
     23 -0.148142D-02 -0.856428D-01  0.243533D+11
     24  0.156193D-02 -0.278937D-01  0.138234D+03  0.385007D+12
     25 -0.228551D-02 -0.406766D-02  0.329810D+02 -0.619421D+01  0.243533D+11
     26  0.977761D-03 -0.444323D-02 -0.572311D+01  0.133091D+02  0.134159D+03
     27 -0.977245D-03 -0.679653D-03 -0.438229D+01  0.458641D+01  0.136382D+03
     28 -0.261973D-02 -0.160217D-01 -0.400136D+01  0.392841D+01  0.137285D+03
     29 -0.362726D-01 -0.175831D+00  0.343063D+02 -0.506486D+01  0.330666D+00
     30 -0.208010D-01  0.918307D-02 -0.438990D+01  0.117510D+02  0.451551D+01
     31 -0.650411D-01  0.200376D-01 -0.513605D+01  0.981292D+00  0.907456D+01
               26            27            28            29            30 
     26  0.385007D+12
     27 -0.232948D+02  0.385007D+12
     28 -0.242436D+02 -0.235594D+02  0.385007D+12
     29  0.302951D+01  0.340069D+01  0.115038D+02  0.243533D+11
     30 -0.208478D+00 -0.181312D+00  0.520243D+00  0.133319D+03  0.385007D+12
     31 -0.351494D+00 -0.489761D+00  0.120836D+01  0.136147D+03 -0.295482D+02
               31 
     31  0.385007D+12
 End of Minotr F.D. properties file   721 does not exist.
 End of Minotr F.D. properties file   722 does not exist.
 End of Minotr F.D. properties file   788 does not exist.
 Leave Link 1002 at Wed Jun 18 11:16:28 2014, MaxMem=  4294967296 cpu:    384741.5
 (Enter /home/ztw1e12/g09/l601.exe)
 Copying SCF densities to generalized density rwf, IOpCl= 0 IROHF=0.

 **********************************************************************

            Population analysis using the SCF density.

 **********************************************************************

 Orbital symmetries:
       Occupied  (A) (A) (A) (A) (A) (A) (A) (A) (A) (A) (A) (A)
                 (A) (A) (A) (A) (A) (A) (A) (A) (A) (A) (A) (A)
                 (A) (A) (A) (A) (A) (A) (A) (A) (A) (A) (A) (A)
                 (A) (A) (A) (A) (A) (A) (A) (A) (A) (A) (A) (A)
                 (A) (A) (A)
       Virtual   (A) (A) (A) (A) (A) (A) (A) (A) (A) (A) (A) (A)
                 (A) (A) (A) (A) (A) (A) (A) (A) (A) (A) (A) (A)
                 (A) (A) (A) (A) (A) (A) (A) (A) (A) (A) (A) (A)
                 (A) (A) (A) (A) (A) (A) (A) (A) (A) (A) (A) (A)
                 (A) (A) (A) (A) (A) (A) (A) (A) (A) (A) (A) (A)
                 (A) (A) (A) (A) (A) (A) (A) (A) (A) (A) (A) (A)
                 (A) (A) (A) (A) (A) (A) (A) (A) (A) (A) (A) (A)
                 (A) (A) (A) (A) (A) (A) (A) (A) (A) (A) (A) (A)
                 (A) (A) (A) (A) (A) (A) (A) (A) (A) (A) (A) (A)
                 (A) (A) (A) (A) (A) (A) (A) (A) (A) (A) (A) (A)
                 (A) (A) (A) (A) (A) (A) (A) (A) (A) (A) (A) (A)
                 (A) (A) (A) (A) (A) (A) (A) (A) (A) (A) (A) (A)
                 (A) (A) (A) (A) (A) (A) (A) (A) (A) (A) (A) (A)
                 (A) (A) (A) (A) (A) (A) (A) (A) (A) (A) (A) (A)
                 (A) (A) (A) (A) (A) (A) (A) (A) (A) (A) (A) (A)
                 (A) (A) (A) (A) (A) (A) (A) (A) (A) (A) (A) (A)
                 (A) (A) (A) (A) (A) (A) (A) (A) (A) (A) (A) (A)
                 (A) (A) (A) (A) (A) (A) (A) (A) (A) (A) (A) (A)
                 (A) (A) (A) (A) (A) (A) (A) (A) (A) (A) (A) (A)
                 (A) (A) (A) (A) (A) (A) (A) (A) (A) (A) (A) (A)
                 (A) (A) (A) (A) (A) (A) (A) (A) (A) (A) (A) (A)
                 (A) (A) (A) (A) (A) (A) (A) (A) (A) (A) (A) (A)
                 (A) (A) (A) (A) (A) (A) (A) (A) (A) (A) (A) (A)
                 (A) (A) (A) (A) (A) (A) (A) (A) (A) (A) (A) (A)
                 (A) (A) (A) (A) (A) (A) (A) (A) (A) (A) (A) (A)
                 (A) (A) (A) (A) (A) (A) (A) (A) (A) (A) (A) (A)
                 (A) (A) (A) (A) (A) (A) (A) (A) (A) (A) (A) (A)
                 (A) (A) (A) (A) (A) (A) (A) (A) (A) (A) (A) (A)
                 (A) (A) (A) (A) (A) (A) (A) (A) (A) (A) (A) (A)
                 (A) (A) (A) (A) (A) (A) (A) (A) (A) (A) (A) (A)
                 (A) (A) (A) (A) (A) (A) (A) (A) (A) (A) (A) (A)
                 (A) (A) (A) (A) (A) (A) (A) (A) (A) (A) (A) (A)
                 (A) (A) (A) (A) (A) (A) (A) (A) (A) (A) (A) (A)
                 (A) (A) (A) (A) (A) (A) (A) (A) (A) (A) (A) (A)
                 (A) (A) (A) (A) (A) (A) (A) (A) (A) (A) (A) (A)
                 (A) (A) (A) (A) (A) (A) (A) (A) (A) (A) (A) (A)
                 (A) (A) (A) (A) (A) (A) (A) (A) (A) (A) (A) (A)
                 (A) (A) (A) (A) (A) (A) (A) (A) (A) (A) (A) (A)
                 (A) (A) (A) (A) (A) (A) (A) (A) (A) (A) (A) (A)
                 (A) (A) (A) (A) (A) (A) (A) (A) (A) (A) (A) (A)
                 (A) (A) (A) (A) (A) (A) (A) (A) (A) (A) (A) (A)
                 (A) (A) (A) (A) (A) (A) (A) (A) (A) (A) (A) (A)
                 (A) (A) (A) (A) (A) (A) (A) (A) (A) (A) (A) (A)
                 (A) (A) (A) (A) (A) (A) (A) (A) (A) (A) (A) (A)
                 (A) (A) (A) (A) (A) (A) (A) (A) (A) (A) (A) (A)
                 (A) (A) (A) (A) (A) (A) (A) (A) (A) (A) (A) (A)
                 (A) (A) (A) (A) (A) (A) (A) (A) (A) (A) (A) (A)
                 (A) (A) (A) (A) (A) (A) (A) (A) (A) (A) (A) (A)
                 (A) (A) (A) (A) (A) (A) (A) (A) (A) (A) (A) (A)
                 (A) (A) (A) (A) (A) (A) (A) (A) (A) (A) (A) (A)
                 (A) (A) (A) (A) (A) (A) (A) (A) (A) (A) (A) (A)
                 (A) (A) (A) (A) (A) (A) (A) (A) (A) (A) (A) (A)
                 (A) (A) (A) (A) (A) (A) (A) (A) (A) (A) (A) (A)
                 (A) (A) (A) (A) (A) (A) (A) (A) (A) (A) (A) (A)
                 (A) (A) (A) (A) (A) (A) (A) (A) (A) (A) (A) (A)
                 (A) (A) (A) (A) (A) (A) (A) (A) (A) (A) (A) (A)
                 (A) (A) (A) (A) (A) (A) (A) (A) (A) (A) (A) (A)
                 (A) (A) (A) (A) (A) (A) (A) (A) (A) (A) (A) (A)
                 (A) (A) (A) (A) (A) (A) (A) (A) (A) (A) (A) (A)
                 (A) (A) (A) (A) (A) (A) (A) (A) (A) (A) (A) (A)
                 (A) (A) (A) (A) (A) (A) (A) (A) (A) (A) (A) (A)
                 (A) (A) (A) (A) (A) (A) (A) (A) (A) (A) (A) (A)
                 (A) (A) (A) (A) (A) (A) (A) (A) (A) (A) (A) (A)
                 (A) (A) (A) (A) (A) (A) (A) (A) (A) (A) (A) (A)
                 (A) (A) (A) (A) (A) (A) (A) (A) (A) (A) (A) (A)
                 (A) (A) (A) (A) (A) (A) (A) (A) (A) (A) (A) (A)
                 (A) (A) (A) (A) (A) (A) (A) (A) (A) (A) (A) (A)
                 (A) (A) (A) (A) (A) (A) (A) (A) (A) (A) (A) (A)
                 (A) (A) (A) (A) (A) (A) (A) (A) (A) (A) (A) (A)
                 (A) (A) (A) (A) (A) (A) (A) (A) (A) (A) (A) (A)
                 (A) (A) (A) (A) (A) (A) (A) (A) (A) (A) (A) (A)
                 (A) (A) (A) (A) (A) (A) (A) (A) (A) (A) (A) (A)
                 (A) (A) (A) (A) (A) (A) (A) (A) (A) (A) (A) (A)
                 (A) (A) (A) (A) (A)
 The electronic state is 1-A.
 Alpha  occ. eigenvalues --  -19.17192 -19.16327 -14.41828 -14.41379 -10.33486
 Alpha  occ. eigenvalues --  -10.33243 -10.29335 -10.27139 -10.25772 -10.25501
 Alpha  occ. eigenvalues --  -10.23707 -10.23377 -10.22723  -1.05398  -1.04018
 Alpha  occ. eigenvalues --   -0.94348  -0.94136  -0.83556  -0.78584  -0.74297
 Alpha  occ. eigenvalues --   -0.72063  -0.69956  -0.66435  -0.60740  -0.59645
 Alpha  occ. eigenvalues --   -0.58147  -0.54761  -0.50753  -0.49449  -0.48148
 Alpha  occ. eigenvalues --   -0.46855  -0.46516  -0.45345  -0.44880  -0.44483
 Alpha  occ. eigenvalues --   -0.42610  -0.41435  -0.41014  -0.40580  -0.40124
 Alpha  occ. eigenvalues --   -0.39810  -0.38500  -0.37706  -0.36537  -0.35236
 Alpha  occ. eigenvalues --   -0.34191  -0.33141  -0.28275  -0.27497  -0.26098
 Alpha  occ. eigenvalues --   -0.25881
 Alpha virt. eigenvalues --    0.00890   0.02315   0.02540   0.03662   0.04396
 Alpha virt. eigenvalues --    0.04831   0.06745   0.07392   0.07701   0.08107
 Alpha virt. eigenvalues --    0.09778   0.10463   0.10855   0.11523   0.12169
 Alpha virt. eigenvalues --    0.12479   0.12844   0.14286   0.15300   0.15985
 Alpha virt. eigenvalues --    0.16475   0.17045   0.18082   0.18386   0.19855
 Alpha virt. eigenvalues --    0.21134   0.22826   0.23277   0.23840   0.24003
 Alpha virt. eigenvalues --    0.25683   0.26173   0.26791   0.27480   0.27817
 Alpha virt. eigenvalues --    0.28594   0.29579   0.30345   0.31189   0.31933
 Alpha virt. eigenvalues --    0.33384   0.33909   0.34169   0.35192   0.35832
 Alpha virt. eigenvalues --    0.36616   0.37726   0.38258   0.38641   0.39080
 Alpha virt. eigenvalues --    0.39543   0.40307   0.40392   0.40891   0.41264
 Alpha virt. eigenvalues --    0.41839   0.42160   0.42845   0.43122   0.43471
 Alpha virt. eigenvalues --    0.43554   0.43574   0.44605   0.44997   0.45404
 Alpha virt. eigenvalues --    0.45497   0.46059   0.47815   0.48218   0.48496
 Alpha virt. eigenvalues --    0.50140   0.50765   0.51044   0.51690   0.52417
 Alpha virt. eigenvalues --    0.53593   0.54050   0.54212   0.55352   0.56489
 Alpha virt. eigenvalues --    0.57255   0.58696   0.59430   0.60791   0.62184
 Alpha virt. eigenvalues --    0.62639   0.63132   0.64134   0.65566   0.67385
 Alpha virt. eigenvalues --    0.69508   0.70236   0.71618   0.72790   0.74370
 Alpha virt. eigenvalues --    0.75677   0.76470   0.76769   0.77177   0.78645
 Alpha virt. eigenvalues --    0.78788   0.80115   0.81802   0.82691   0.83184
 Alpha virt. eigenvalues --    0.83989   0.85349   0.85694   0.86734   0.86984
 Alpha virt. eigenvalues --    0.88236   0.88831   0.89974   0.90696   0.92632
 Alpha virt. eigenvalues --    0.93330   0.93672   0.93823   0.94703   0.95377
 Alpha virt. eigenvalues --    0.96087   0.96730   0.97139   0.97807   0.98199
 Alpha virt. eigenvalues --    0.99160   0.99970   1.00598   1.00652   1.02426
 Alpha virt. eigenvalues --    1.03627   1.04091   1.04468   1.05355   1.06619
 Alpha virt. eigenvalues --    1.07572   1.08085   1.08806   1.09620   1.10062
 Alpha virt. eigenvalues --    1.10715   1.11705   1.12104   1.13709   1.14803
 Alpha virt. eigenvalues --    1.15042   1.16135   1.16429   1.16519   1.17032
 Alpha virt. eigenvalues --    1.18779   1.19644   1.20226   1.20644   1.21118
 Alpha virt. eigenvalues --    1.21665   1.21757   1.22989   1.23617   1.24385
 Alpha virt. eigenvalues --    1.24482   1.25062   1.25524   1.25935   1.26405
 Alpha virt. eigenvalues --    1.27278   1.27553   1.28425   1.28699   1.29759
 Alpha virt. eigenvalues --    1.30173   1.30363   1.31843   1.32371   1.32937
 Alpha virt. eigenvalues --    1.33862   1.34394   1.35648   1.35792   1.37245
 Alpha virt. eigenvalues --    1.37446   1.38603   1.39507   1.40438   1.41960
 Alpha virt. eigenvalues --    1.43056   1.43449   1.44625   1.45571   1.48179
 Alpha virt. eigenvalues --    1.48781   1.51082   1.52342   1.53386   1.55315
 Alpha virt. eigenvalues --    1.57723   1.59021   1.60520   1.61228   1.62830
 Alpha virt. eigenvalues --    1.65376   1.67060   1.70257   1.71124   1.73956
 Alpha virt. eigenvalues --    1.74653   1.75967   1.77747   1.79808   1.83410
 Alpha virt. eigenvalues --    1.84458   1.87568   1.89600   1.91599   1.93201
 Alpha virt. eigenvalues --    1.93651   1.95901   1.97045   1.97804   1.99488
 Alpha virt. eigenvalues --    2.01288   2.01472   2.04250   2.04376   2.05734
 Alpha virt. eigenvalues --    2.08403   2.09005   2.10623   2.12479   2.17098
 Alpha virt. eigenvalues --    2.17907   2.18762   2.19319   2.21262   2.22824
 Alpha virt. eigenvalues --    2.23706   2.24224   2.27129   2.28067   2.29063
 Alpha virt. eigenvalues --    2.31773   2.34797   2.36612   2.37696   2.39008
 Alpha virt. eigenvalues --    2.40494   2.41428   2.42489   2.42995   2.44797
 Alpha virt. eigenvalues --    2.45229   2.45802   2.46257   2.48098   2.49481
 Alpha virt. eigenvalues --    2.50435   2.51407   2.53540   2.54131   2.54970
 Alpha virt. eigenvalues --    2.55623   2.57002   2.58996   2.60017   2.62491
 Alpha virt. eigenvalues --    2.64993   2.66576   2.67446   2.68151   2.69092
 Alpha virt. eigenvalues --    2.70553   2.70932   2.72330   2.72482   2.73493
 Alpha virt. eigenvalues --    2.74873   2.75324   2.75753   2.76840   2.78433
 Alpha virt. eigenvalues --    2.80318   2.80499   2.81471   2.81992   2.82740
 Alpha virt. eigenvalues --    2.84255   2.84791   2.85205   2.85908   2.86612
 Alpha virt. eigenvalues --    2.88474   2.89475   2.89643   2.89928   2.91381
 Alpha virt. eigenvalues --    2.91808   2.93170   2.93340   2.94639   2.95217
 Alpha virt. eigenvalues --    2.95720   2.96732   2.97407   2.98285   2.98489
 Alpha virt. eigenvalues --    2.99309   3.00461   3.01028   3.01177   3.01852
 Alpha virt. eigenvalues --    3.02704   3.04190   3.05021   3.05439   3.06934
 Alpha virt. eigenvalues --    3.07853   3.08652   3.09060   3.10144   3.10721
 Alpha virt. eigenvalues --    3.11878   3.12701   3.13605   3.14253   3.15093
 Alpha virt. eigenvalues --    3.15324   3.16263   3.16723   3.18409   3.19817
 Alpha virt. eigenvalues --    3.20219   3.21243   3.21637   3.22878   3.24306
 Alpha virt. eigenvalues --    3.25398   3.25991   3.26085   3.26479   3.28284
 Alpha virt. eigenvalues --    3.28403   3.29208   3.29682   3.30582   3.31259
 Alpha virt. eigenvalues --    3.32553   3.32782   3.34742   3.35549   3.36281
 Alpha virt. eigenvalues --    3.36729   3.37575   3.38639   3.39063   3.39684
 Alpha virt. eigenvalues --    3.39909   3.41348   3.42207   3.43126   3.43584
 Alpha virt. eigenvalues --    3.44648   3.44979   3.45987   3.46452   3.47445
 Alpha virt. eigenvalues --    3.48746   3.50424   3.50665   3.52100   3.53971
 Alpha virt. eigenvalues --    3.54788   3.56072   3.57558   3.58217   3.59269
 Alpha virt. eigenvalues --    3.60674   3.61852   3.63121   3.63774   3.65415
 Alpha virt. eigenvalues --    3.65853   3.66654   3.67753   3.69096   3.71581
 Alpha virt. eigenvalues --    3.71976   3.72961   3.73866   3.75103   3.75888
 Alpha virt. eigenvalues --    3.77126   3.77598   3.78736   3.79424   3.79608
 Alpha virt. eigenvalues --    3.81037   3.81693   3.83573   3.84593   3.85307
 Alpha virt. eigenvalues --    3.86123   3.87127   3.87698   3.89035   3.89829
 Alpha virt. eigenvalues --    3.90161   3.91613   3.92725   3.93338   3.93979
 Alpha virt. eigenvalues --    3.95897   3.96886   3.97867   3.98374   3.99371
 Alpha virt. eigenvalues --    4.01637   4.01786   4.02789   4.04835   4.05390
 Alpha virt. eigenvalues --    4.05691   4.06971   4.07371   4.07702   4.08787
 Alpha virt. eigenvalues --    4.10174   4.11713   4.12796   4.13897   4.15407
 Alpha virt. eigenvalues --    4.15584   4.17356   4.17907   4.18228   4.20576
 Alpha virt. eigenvalues --    4.21513   4.22324   4.23175   4.24317   4.24738
 Alpha virt. eigenvalues --    4.25387   4.26570   4.27620   4.28347   4.29476
 Alpha virt. eigenvalues --    4.31084   4.31843   4.33039   4.34826   4.35941
 Alpha virt. eigenvalues --    4.36073   4.36969   4.38118   4.40821   4.41271
 Alpha virt. eigenvalues --    4.43878   4.45118   4.46184   4.47160   4.49478
 Alpha virt. eigenvalues --    4.50293   4.51989   4.52603   4.53774   4.55609
 Alpha virt. eigenvalues --    4.57148   4.58414   4.59834   4.60667   4.61427
 Alpha virt. eigenvalues --    4.61895   4.62408   4.63408   4.63525   4.65068
 Alpha virt. eigenvalues --    4.66991   4.68980   4.69435   4.71299   4.73120
 Alpha virt. eigenvalues --    4.73493   4.74404   4.75957   4.76309   4.77360
 Alpha virt. eigenvalues --    4.77972   4.79421   4.80048   4.81749   4.82496
 Alpha virt. eigenvalues --    4.83367   4.86372   4.88346   4.90182   4.92692
 Alpha virt. eigenvalues --    4.93296   4.93989   4.94436   4.94856   4.95527
 Alpha virt. eigenvalues --    4.98017   4.98359   4.99927   5.01559   5.02449
 Alpha virt. eigenvalues --    5.02987   5.04339   5.06056   5.07685   5.09904
 Alpha virt. eigenvalues --    5.11510   5.12283   5.13027   5.13570   5.15170
 Alpha virt. eigenvalues --    5.16665   5.17752   5.18922   5.19699   5.20896
 Alpha virt. eigenvalues --    5.21900   5.22350   5.23169   5.24502   5.25447
 Alpha virt. eigenvalues --    5.26176   5.27764   5.28959   5.30927   5.31148
 Alpha virt. eigenvalues --    5.32290   5.33378   5.35879   5.38486   5.40253
 Alpha virt. eigenvalues --    5.42091   5.42192   5.44956   5.46167   5.50345
 Alpha virt. eigenvalues --    5.52718   5.53150   5.55763   5.58218   5.59893
 Alpha virt. eigenvalues --    5.60869   5.62393   5.63435   5.65509   5.65884
 Alpha virt. eigenvalues --    5.67829   5.68763   5.69113   5.69706   5.72383
 Alpha virt. eigenvalues --    5.73586   5.74954   5.76339   5.78049   5.80533
 Alpha virt. eigenvalues --    5.81094   5.82460   5.83023   5.87847   5.89348
 Alpha virt. eigenvalues --    5.90244   5.95858   5.98152   6.02406   6.05820
 Alpha virt. eigenvalues --    6.11381   6.18914   6.20283   6.24044   6.27752
 Alpha virt. eigenvalues --    6.52325   6.54902   6.58391   6.61310   6.64488
 Alpha virt. eigenvalues --    6.67101   6.76703   6.82089   6.90595   6.92133
 Alpha virt. eigenvalues --    6.93382   6.95483   7.18470   7.20151   7.24008
 Alpha virt. eigenvalues --    7.27846   8.13441   8.28148   8.66859   8.73462
 Alpha virt. eigenvalues --    8.77829   8.78699   8.80661   8.83059   8.83114
 Alpha virt. eigenvalues --    8.85549   8.86383   8.88313   8.88853   8.90566
 Alpha virt. eigenvalues --    8.92052   8.94962   8.96331   8.97842   8.99794
 Alpha virt. eigenvalues --    9.03324   9.07759   9.15198   9.15977   9.19223
 Alpha virt. eigenvalues --    9.23826   9.59854   9.62271   9.77301   9.83394
 Alpha virt. eigenvalues --    9.90906   9.95789  10.07509  10.11624  10.15071
 Alpha virt. eigenvalues --   10.18258  10.19087  10.21645  10.22031  10.25586
 Alpha virt. eigenvalues --   10.26902  10.28514  10.30407  10.30995  10.34348
 Alpha virt. eigenvalues --   10.40067  11.75436  11.83107  12.04435  12.14034
 Alpha virt. eigenvalues --   12.16989  12.20534  12.24394  12.25069  12.31402
 Alpha virt. eigenvalues --   12.40696  12.47426  12.56466  12.59658  12.83661
 Alpha virt. eigenvalues --   12.92959  14.97217  15.04086  15.24228  15.27783
 Alpha virt. eigenvalues --   15.99615  16.05355  16.83204  16.91308  22.01211
 Alpha virt. eigenvalues --   22.09654  40.17359  40.26144  40.66213  40.67775
 Alpha virt. eigenvalues --   40.69807  40.70461  40.72125  40.74469  40.76548
 Alpha virt. eigenvalues --   40.77860  40.79059  40.81374  40.82032  40.82336
 Alpha virt. eigenvalues --   40.82651  40.84094  40.84654  40.85340  40.85880
 Alpha virt. eigenvalues --   40.86967  40.87952  40.88762  40.90542  40.90675
 Alpha virt. eigenvalues --   40.92136  40.93465  40.96837  46.34715  46.44407
 Alpha virt. eigenvalues --   46.48799  46.53129  46.56849  46.57403  46.63195
 Alpha virt. eigenvalues --   46.74112  46.79713  54.46012  54.46883  55.77176
 Alpha virt. eigenvalues --   55.84170  55.97454  55.97972  56.05242  56.10465
 Alpha virt. eigenvalues --   56.18095  56.23542  56.25605  56.32172  56.36101
 Alpha virt. eigenvalues --   56.40858  56.44697  56.49892  56.55763  56.61209
 Alpha virt. eigenvalues --   57.46568  57.51335  57.99584  58.02622  58.19515
 Alpha virt. eigenvalues --   58.25697  64.70446  64.77845  73.94338  73.98404
 Alpha virt. eigenvalues --   74.09970  74.11527  74.63837  74.66975  86.07032
 Alpha virt. eigenvalues --   86.14502 165.43980 165.52443 165.57395 165.61576
 Alpha virt. eigenvalues --  165.64900 165.65026 165.69614 165.79349 165.84752
 Alpha virt. eigenvalues --  226.56031 226.60348 230.57679 230.64461 235.46363
 Alpha virt. eigenvalues --  235.81807 236.08867 236.30776 236.35211 236.42196
 Alpha virt. eigenvalues --  236.91329 237.17762 237.56324 237.76728 237.79867
 Alpha virt. eigenvalues --  237.86041 237.98353 238.14347 238.18741 238.64897
 Alpha virt. eigenvalues --  308.80636 308.87273 624.55205 624.60552 624.64852
 Alpha virt. eigenvalues --  624.67774 624.69945 624.71513 624.75265 624.82752
 Alpha virt. eigenvalues --  624.87191 794.05124 794.61083 825.68348 826.13833
 Alpha virt. eigenvalues --  827.12763 827.39388 827.61280 828.17864 829.34475
 Alpha virt. eigenvalues --  830.47922 831.53647 832.02456 832.25394 832.35551
 Alpha virt. eigenvalues --  832.70513 832.84270 833.64401 834.79464 868.33694
 Alpha virt. eigenvalues --  868.403431165.934101165.994732484.639882485.71295
 Alpha virt. eigenvalues -- 2587.515062589.588532591.645042595.136422596.66451
 Alpha virt. eigenvalues -- 2596.978882598.089722602.196002605.905652606.79664
 Alpha virt. eigenvalues -- 2607.493312607.562302607.625262607.710922611.25108
 Alpha virt. eigenvalues -- 2614.449422740.323852740.339342740.391802740.41735
 Alpha virt. eigenvalues -- 2740.435692740.502702740.526982740.550382740.57616
 Alpha virt. eigenvalues -- 3787.314523787.380125073.315945073.369818287.65327
 Alpha virt. eigenvalues -- 8296.321728619.636128625.549648634.925988637.34099
 Alpha virt. eigenvalues -- 8637.520938646.446938651.059688662.308548671.76035
 Alpha virt. eigenvalues -- 8674.971588676.769358677.583898679.376748682.05647
 Alpha virt. eigenvalues -- 8687.412518698.01230******************************
 Alpha virt. eigenvalues -- **************************************************
 Alpha virt. eigenvalues -- **************************************************
 Alpha virt. eigenvalues -- **************************************************
 Alpha virt. eigenvalues -- **************************************************
 Alpha virt. eigenvalues -- **************************************************
 Alpha virt. eigenvalues -- **************************************************
 Alpha virt. eigenvalues -- **************************************************
 Alpha virt. eigenvalues -- **********
          Condensed to atoms (all electrons):
               1          2          3          4          5          6
     1  C    4.656159   0.157838  -0.047689  -0.008040   0.000054  -0.002281
     2  C    0.157838   5.355728   0.387278   0.004459  -0.001719   0.001589
     3  H   -0.047689   0.387278   0.486590   0.000901   0.000096   0.000131
     4  C   -0.008040   0.004459   0.000901   5.048181   0.385391   0.406801
     5  H    0.000054  -0.001719   0.000096   0.385391   0.551219  -0.011903
     6  H   -0.002281   0.001589   0.000131   0.406801  -0.011903   0.540849
     7  H    0.001037   0.003560   0.000288   0.395063  -0.015799  -0.019364
     8  O    0.704376  -0.104068   0.004202  -0.007410   0.000732  -0.000351
     9  N   -0.055816   0.304745  -0.031684  -0.000479   0.001115  -0.001041
    10  H    0.004192  -0.037648   0.001384   0.001545  -0.000243   0.003556
    11  N    0.334139  -0.131171   0.004600   0.001517   0.000056   0.000028
    12  H   -0.023676   0.010298  -0.000163   0.000155  -0.000005   0.000005
    13  C   -0.052239   0.010928  -0.001141  -0.000170  -0.000012  -0.000009
    14  H    0.003542   0.002001   0.000150  -0.000341   0.000002  -0.000009
    15  H   -0.010254  -0.000800  -0.000335   0.000050  -0.000002   0.000000
    16  H    0.006677   0.000656  -0.000158   0.000000   0.000000   0.000000
    17  C   -0.007747  -0.056830   0.003817   0.000454   0.000034   0.000277
    18  C   -0.005856   0.016647   0.002366  -0.000081   0.000007   0.000357
    19  H    0.000488  -0.000234  -0.000332   0.000095  -0.000003   0.000135
    20  H   -0.000082  -0.000638   0.000175   0.000018   0.000001   0.000024
    21  H    0.000746  -0.000585  -0.000171  -0.000018  -0.000004  -0.000076
    22  O   -0.006045   0.020221   0.018034  -0.000084  -0.000001  -0.000022
[...]
 Alpha virt. eigenvalues --    4.34121   4.34663   4.35233   4.35746   4.37332
 Alpha virt. eigenvalues --    4.38015   4.39163   4.39995   4.42534   4.44984
 Alpha virt. eigenvalues --    4.45355   4.46813   4.49201   4.50928   4.51648
 Alpha virt. eigenvalues --    4.53941   4.54981   4.56154   4.57106   4.58479
 Alpha virt. eigenvalues --    4.59299   4.63093   4.65832   4.67683   4.68340
 Alpha virt. eigenvalues --    4.68996   4.70031   4.71626   4.72455   4.73098
 Alpha virt. eigenvalues --    4.74929   4.75526   4.76823   4.78527   4.79308
 Alpha virt. eigenvalues --    4.80167   4.80719   4.81584   4.82791   4.83550
 Alpha virt. eigenvalues --    4.84506   4.85578   4.86350   4.88573   4.89157
 Alpha virt. eigenvalues --    4.91379   4.93452   4.94972   4.95226   4.96106
 Alpha virt. eigenvalues --    4.97283   4.98357   4.99063   5.00199   5.02082
 Alpha virt. eigenvalues --    5.02975   5.03891   5.04858   5.05464   5.06942
 Alpha virt. eigenvalues --    5.07898   5.09426   5.10645   5.12626   5.13506
 Alpha virt. eigenvalues --    5.14123   5.14461   5.15247   5.16206   5.17569
 Alpha virt. eigenvalues --    5.19009   5.19756   5.20378   5.22121   5.23494
 Alpha virt. eigenvalues --    5.24870   5.24912   5.25822   5.27872   5.28102
 Alpha virt. eigenvalues --    5.29463   5.30635   5.31989   5.32092   5.34517
 Alpha virt. eigenvalues --    5.36130   5.36481   5.37671   5.39139   5.40874
 Alpha virt. eigenvalues --    5.44196   5.46380   5.48343   5.50273   5.56617
 Alpha virt. eigenvalues --    5.57076   5.59028   5.61193   5.63414   5.69251
 Alpha virt. eigenvalues --    5.72962   5.74938   5.75579   5.78495   5.78726
 Alpha virt. eigenvalues --    5.80792   5.81612   5.84580   5.85122   5.86219
 Alpha virt. eigenvalues --    5.89761   5.90576   5.92557   5.95540   5.98349
 Alpha virt. eigenvalues --    5.99158   6.01859   6.02737   6.06872   6.08610
 Alpha virt. eigenvalues --    6.22161   6.27573   6.36074   6.41099   6.49855
 Alpha virt. eigenvalues --    6.52946   6.55183   6.58877   6.66654   6.68482
 Alpha virt. eigenvalues --    6.88321   6.89893   6.92529   6.96850   7.10184
 Alpha virt. eigenvalues --    7.13760   7.17124   7.17357   9.47597  10.04054
 Alpha virt. eigenvalues --   11.51839  12.07251  12.37880  12.62632  12.89375
 Alpha virt. eigenvalues --   13.37647  13.53125  13.58143  13.73359  13.73963
 Alpha virt. eigenvalues --   13.93213
          Condensed to atoms (all electrons):
               1          2          3          4          5          6
     1  C    4.813831   0.129913  -0.055494  -0.003496  -0.000092  -0.002055
     2  C    0.129913   5.480627   0.425829  -0.015289  -0.001671   0.001331
     3  H   -0.055494   0.425829   0.457031   0.000658   0.000097   0.000093
     4  C   -0.003496  -0.015289   0.000658   5.214843   0.393211   0.399068
     5  H   -0.000092  -0.001671   0.000097   0.393211   0.542348  -0.017213
     6  H   -0.002055   0.001331   0.000093   0.399068  -0.017213   0.542366
     7  H    0.003029   0.001434   0.000164   0.392648  -0.023595  -0.023793
     8  O    0.699441  -0.098013   0.002445  -0.005851   0.000744  -0.000344
     9  N   -0.060214   0.261142  -0.036047   0.001452   0.001044  -0.000942
    10  H    0.005085  -0.035818   0.000061   0.001154  -0.000179   0.003289
    11  N    0.338610  -0.102492   0.000641   0.001248   0.000061   0.000025
    12  H   -0.020249   0.007093  -0.001196   0.000163  -0.000005   0.000004
    13  C   -0.068760   0.010479  -0.000971  -0.000203  -0.000015  -0.000009
    14  H    0.002518   0.001799   0.000150  -0.000304   0.000002  -0.000008
    15  H   -0.009411  -0.000769  -0.000320   0.000041  -0.000002   0.000000
    16  H    0.007204   0.000652  -0.000114  -0.000002   0.000000   0.000000
    17  C   -0.006360  -0.069073   0.002187   0.000711   0.000041   0.000262
    18  C   -0.004348   0.012882   0.002088  -0.000021   0.000006   0.000324
    19  H    0.000310   0.000705  -0.000313   0.000055  -0.000005   0.000119
    20  H   -0.000126  -0.000566   0.000168   0.000016   0.000001   0.000024
    21  H    0.000704  -0.000614  -0.000155  -0.000017  -0.000004  -0.000073
    22  O   -0.002757   0.017661   0.017139  -0.000075  -0.000001  -0.000022
    23  C   -0.003109  -0.001376   0.003574   0.254534  -0.032386  -0.040069
    24  H    0.000062   0.004060  -0.000252  -0.038007  -0.006763  -0.005544
    25  C    0.001934   0.000572  -0.000500  -0.068789  -0.010481   0.008654
    26  H    0.004289  -0.002886  -0.000174  -0.004285  -0.000637   0.000012
    27  H   -0.000314   0.000977  -0.000006   0.007853   0.000002  -0.000409
    28  H   -0.000041  -0.000401   0.000017  -0.006442   0.005153  -0.000163
    29  C   -0.030872   0.186428  -0.024904  -0.042904   0.009948  -0.002839
    30  H    0.009835  -0.040448  -0.012161   0.001993  -0.000685   0.000486
    31  H   -0.001827  -0.043080  -0.008744   0.006311  -0.000337  -0.000451
               7          8          9         10         11         12
     1  C    0.003029   0.699441  -0.060214   0.005085   0.338610  -0.020249
     2  C    0.001434  -0.098013   0.261142  -0.035818  -0.102492   0.007093
     3  H    0.000164   0.002445  -0.036047   0.000061   0.000641  -0.001196
     4  C    0.392648  -0.005851   0.001452   0.001154   0.001248   0.000163
     5  H   -0.023595   0.000744   0.001044  -0.000179   0.000061  -0.000005
     6  H   -0.023793  -0.000344  -0.000942   0.003289   0.000025   0.000004
     7  H    0.475276   0.017057  -0.002483  -0.000996  -0.002241  -0.000158
     8  O    0.017057   7.851001   0.006558  -0.001481  -0.119169   0.004976
     9  N   -0.002483   0.006558   6.540933   0.384804   0.005925   0.000592
    10  H   -0.000996  -0.001481   0.384804   0.497133  -0.000356  -0.000026
    11  N   -0.002241  -0.119169   0.005925  -0.000356   6.429709   0.382874
    12  H   -0.000158   0.004976   0.000592  -0.000026   0.382874   0.531931
    13  C    0.000035   0.005243  -0.000313   0.000036   0.302079  -0.032768
    14  H    0.000980   0.005355  -0.000040  -0.000001  -0.061151   0.002606
    15  H   -0.000179   0.005239  -0.000028   0.000005  -0.038396   0.002888
    16  H    0.000004   0.001428   0.000006   0.000000  -0.026997  -0.008020
    17  C    0.000279   0.013595   0.333251  -0.019875  -0.000350  -0.000096
    18  C    0.000036  -0.000319  -0.064924  -0.002445  -0.000099   0.000000
    19  H   -0.000034   0.000014   0.012724  -0.000931   0.000012   0.000001
    20  H   -0.000003   0.000035   0.000272  -0.000734   0.000005   0.000001
    21  H    0.000006   0.000268  -0.001554   0.000688   0.000002  -0.000001
    22  O    0.000060  -0.003356  -0.135983   0.004548  -0.003989  -0.000206
    23  C   -0.029927  -0.000028  -0.004472   0.001272  -0.004154   0.000065
    24  H    0.005602  -0.000046   0.000190  -0.001074  -0.000165   0.000023
    25  C   -0.005872  -0.000629  -0.000127   0.000219  -0.001390   0.000015
    26  H    0.001021  -0.001042   0.000133  -0.000008   0.002030   0.000610
    27  H    0.000191   0.000016  -0.000043  -0.000003  -0.000230  -0.000041
    28  H   -0.000744  -0.000011   0.000009   0.000016   0.000124  -0.000003
    29  C   -0.004808   0.001572  -0.048761  -0.002499   0.012129  -0.001324
    30  H   -0.000281  -0.000495   0.000563   0.002526   0.000503  -0.000209
    31  H    0.000194  -0.000072   0.004632   0.000464  -0.000940   0.003239
              13         14         15         16         17         18
     1  C   -0.068760   0.002518  -0.009411   0.007204  -0.006360  -0.004348
     2  C    0.010479   0.001799  -0.000769   0.000652  -0.069073   0.012882
     3  H   -0.000971   0.000150  -0.000320  -0.000114   0.002187   0.002088
     4  C   -0.000203  -0.000304   0.000041  -0.000002   0.000711  -0.000021
     5  H   -0.000015   0.000002  -0.000002   0.000000   0.000041   0.000006
     6  H   -0.000009  -0.000008   0.000000   0.000000   0.000262   0.000324
     7  H    0.000035   0.000980  -0.000179   0.000004   0.000279   0.000036
     8  O    0.005243   0.005355   0.005239   0.001428   0.013595  -0.000319
     9  N   -0.000313  -0.000040  -0.000028   0.000006   0.333251  -0.064924
    10  H    0.000036  -0.000001   0.000005   0.000000  -0.019875  -0.002445
    11  N    0.302079  -0.061151  -0.038396  -0.026997  -0.000350  -0.000099
    12  H   -0.032768   0.002606   0.002888  -0.008020  -0.000096   0.000000
    13  C    4.778521   0.388749   0.406192   0.394428  -0.000212  -0.000007
    14  H    0.388749   0.636796  -0.056647  -0.028718  -0.000025   0.000000
    15  H    0.406192  -0.056647   0.587557  -0.024726   0.000070   0.000001
    16  H    0.394428  -0.028718  -0.024726   0.597125  -0.000006   0.000000
    17  C   -0.000212  -0.000025   0.000070  -0.000006   4.534891   0.279565
    18  C   -0.000007   0.000000   0.000001   0.000000   0.279565   5.002128
    19  H    0.000000   0.000000   0.000000   0.000000  -0.054579   0.391717
    20  H    0.000000   0.000000   0.000000   0.000000  -0.026673   0.384426
    21  H    0.000002   0.000000   0.000001   0.000000  -0.024335   0.388190
    22  O   -0.000234   0.000009   0.000087  -0.000002   0.723699  -0.071193
    23  C    0.000315   0.000303  -0.000043   0.000004  -0.000896  -0.000148
    24  H   -0.000003   0.000009   0.000000   0.000000   0.000040   0.000008
    25  C   -0.000092   0.000273   0.000001   0.000023   0.000016   0.000000
    26  H   -0.000296  -0.000646   0.000163  -0.000102   0.000011   0.000000
    27  H    0.000038   0.000043  -0.000003   0.000004  -0.000001   0.000000
    28  H   -0.000008  -0.000047   0.000001  -0.000001  -0.000001   0.000000
    29  C   -0.000890  -0.000638   0.000098  -0.000051   0.010018   0.000417
    30  H    0.000068  -0.000031   0.000014   0.000002  -0.000546  -0.000121
    31  H    0.000068  -0.000088   0.000047   0.000011  -0.000191   0.000036
              19         20         21         22         23         24
     1  C    0.000310  -0.000126   0.000704  -0.002757  -0.003109   0.000062
     2  C    0.000705  -0.000566  -0.000614   0.017661  -0.001376   0.004060
     3  H   -0.000313   0.000168  -0.000155   0.017139   0.003574  -0.000252
     4  C    0.000055   0.000016  -0.000017  -0.000075   0.254534  -0.038007
     5  H   -0.000005   0.000001  -0.000004  -0.000001  -0.032386  -0.006763
     6  H    0.000119   0.000024  -0.000073  -0.000022  -0.040069  -0.005544
     7  H   -0.000034  -0.000003   0.000006   0.000060  -0.029927   0.005602
     8  O    0.000014   0.000035   0.000268  -0.003356  -0.000028  -0.000046
     9  N    0.012724   0.000272  -0.001554  -0.135983  -0.004472   0.000190
    10  H   -0.000931  -0.000734   0.000688   0.004548   0.001272  -0.001074
    11  N    0.000012   0.000005   0.000002  -0.003989  -0.004154  -0.000165
    12  H    0.000001   0.000001  -0.000001  -0.000206   0.000065   0.000023
    13  C    0.000000   0.000000   0.000002  -0.000234   0.000315  -0.000003
    14  H    0.000000   0.000000   0.000000   0.000009   0.000303   0.000009
    15  H    0.000000   0.000000   0.000001   0.000087  -0.000043   0.000000
    16  H    0.000000   0.000000   0.000000  -0.000002   0.000004   0.000000
    17  C   -0.054579  -0.026673  -0.024335   0.723699  -0.000896   0.000040
    18  C    0.391717   0.384426   0.388190  -0.071193  -0.000148   0.000008
    19  H    0.604912  -0.026916  -0.024812   0.004646   0.000087  -0.000001
    20  H   -0.026916   0.578331  -0.025075   0.002887  -0.000002   0.000000
    21  H   -0.024812  -0.025075   0.563873   0.000736   0.000007   0.000000
    22  O    0.004646   0.002887   0.000736   7.850793  -0.000063   0.000001
    23  C    0.000087  -0.000002   0.000007  -0.000063   5.231522   0.439382
    24  H   -0.000001   0.000000   0.000000   0.000001   0.439382   0.537925
    25  C    0.000001   0.000000   0.000000   0.000001   0.272164  -0.033424
    26  H    0.000000   0.000000   0.000000   0.000000  -0.042667   0.007437
    27  H    0.000000   0.000000   0.000000   0.000000  -0.032414  -0.006234
    28  H    0.000000   0.000000   0.000000   0.000000  -0.035869  -0.006285
    29  C   -0.000281   0.000017  -0.000007   0.002123   0.217526  -0.050507
    30  H   -0.000004  -0.000029   0.000017  -0.000133  -0.047525  -0.008975
    31  H   -0.000006  -0.000003  -0.000001   0.000096  -0.049684   0.001108
              25         26         27         28         29         30
     1  C    0.001934   0.004289  -0.000314  -0.000041  -0.030872   0.009835
     2  C    0.000572  -0.002886   0.000977  -0.000401   0.186428  -0.040448
     3  H   -0.000500  -0.000174  -0.000006   0.000017  -0.024904  -0.012161
     4  C   -0.068789  -0.004285   0.007853  -0.006442  -0.042904   0.001993
     5  H   -0.010481  -0.000637   0.000002   0.005153   0.009948  -0.000685
     6  H    0.008654   0.000012  -0.000409  -0.000163  -0.002839   0.000486
     7  H   -0.005872   0.001021   0.000191  -0.000744  -0.004808  -0.000281
     8  O   -0.000629  -0.001042   0.000016  -0.000011   0.001572  -0.000495
     9  N   -0.000127   0.000133  -0.000043   0.000009  -0.048761   0.000563
    10  H    0.000219  -0.000008  -0.000003   0.000016  -0.002499   0.002526
    11  N   -0.001390   0.002030  -0.000230   0.000124   0.012129   0.000503
    12  H    0.000015   0.000610  -0.000041  -0.000003  -0.001324  -0.000209
    13  C   -0.000092  -0.000296   0.000038  -0.000008  -0.000890   0.000068
    14  H    0.000273  -0.000646   0.000043  -0.000047  -0.000638  -0.000031
    15  H    0.000001   0.000163  -0.000003   0.000001   0.000098   0.000014
    16  H    0.000023  -0.000102   0.000004  -0.000001  -0.000051   0.000002
    17  C    0.000016   0.000011  -0.000001  -0.000001   0.010018  -0.000546
    18  C    0.000000   0.000000   0.000000   0.000000   0.000417  -0.000121
    19  H    0.000001   0.000000   0.000000   0.000000  -0.000281  -0.000004
    20  H    0.000000   0.000000   0.000000   0.000000   0.000017  -0.000029
    21  H    0.000000   0.000000   0.000000   0.000000  -0.000007   0.000017
    22  O    0.000001   0.000000   0.000000   0.000000   0.002123  -0.000133
    23  C    0.272164  -0.042667  -0.032414  -0.035869   0.217526  -0.047525
    24  H   -0.033424   0.007437  -0.006234  -0.006285  -0.050507  -0.008975
    25  C    5.124854   0.399223   0.402823   0.407455  -0.055305   0.007332
    26  H    0.399223   0.541707  -0.033812  -0.023380  -0.001505   0.000180
    27  H    0.402823  -0.033812   0.550481  -0.017929  -0.008493   0.000271
    28  H    0.407455  -0.023380  -0.017929   0.526952   0.009613  -0.000398
    29  C   -0.055305  -0.001505  -0.008493   0.009613   5.432039   0.407966
    30  H    0.007332   0.000180   0.000271  -0.000398   0.407966   0.490892
    31  H   -0.011967  -0.001238   0.003601   0.000779   0.419294  -0.002336
              31
     1  C   -0.001827
     2  C   -0.043080
     3  H   -0.008744
     4  C    0.006311
     5  H   -0.000337
     6  H   -0.000451
     7  H    0.000194
     8  O   -0.000072
     9  N    0.004632
    10  H    0.000464
    11  N   -0.000940
    12  H    0.003239
    13  C    0.000068
    14  H   -0.000088
    15  H    0.000047
    16  H    0.000011
    17  C   -0.000191
    18  C    0.000036
    19  H   -0.000006
    20  H   -0.000003
    21  H   -0.000001
    22  O    0.000096
    23  C   -0.049684
    24  H    0.001108
    25  C   -0.011967
    26  H   -0.001238
    27  H    0.003601
    28  H    0.000779
    29  C    0.419294
    30  H   -0.002336
    31  H    0.484545
 Mulliken charges:
               1
     1  C    0.252762
     2  C   -0.131087
     3  H    0.229010
     4  C   -0.490273
     5  H    0.141413
     6  H    0.137879
     7  H    0.197100
     8  O   -0.384130
     9  N   -0.198300
    10  H    0.165127
    11  N   -0.113859
    12  H    0.127225
    13  C   -0.181473
    14  H    0.108753
    15  H    0.128119
    16  H    0.087848
    17  C    0.304584
    18  C   -0.318200
    19  H    0.092579
    20  H    0.113945
    21  H    0.122154
    22  O   -0.406471
    23  C   -0.095924
    24  H    0.161434
    25  C   -0.436983
    26  H    0.155863
    27  H    0.133633
    28  H    0.141603
    29  C   -0.432601
    30  H    0.191730
    31  H    0.196539
 Sum of Mulliken charges =   0.00000
 Mulliken charges with hydrogens summed into heavy atoms:
               1
     1  C    0.252762
     2  C    0.097924
     4  C   -0.013881
     8  O   -0.384130
     9  N   -0.033174
    11  N    0.013367
    13  C    0.143248
    17  C    0.304584
    18  C    0.010478
    22  O   -0.406471
    23  C    0.065511
    25  C   -0.005885
    29  C   -0.044332
 Electronic spatial extent (au):  <R**2>=           2798.2502
 Charge=              0.0000 electrons
 Dipole moment (field-independent basis, Debye):
    X=             -3.0194    Y=             -2.5383    Z=             -2.3457  Tot=              4.5893
 Quadrupole moment (field-independent basis, Debye-Ang):
   XX=            -79.9568   YY=            -74.4369   ZZ=            -81.7745
   XY=            -12.1693   XZ=              4.1435   YZ=             -2.8426
 Traceless Quadrupole moment (field-independent basis, Debye-Ang):
   XX=             -1.2340   YY=              4.2858   ZZ=             -3.0518
   XY=            -12.1693   XZ=              4.1435   YZ=             -2.8426
 Octapole moment (field-independent basis, Debye-Ang**2):
  XXX=             10.5614  YYY=             23.3355  ZZZ=             -9.4966  XYY=            -14.9993
  XXY=            -15.6101  XXZ=             10.3318  XZZ=             -0.2639  YZZ=              3.5857
  YYZ=             -1.0313  XYZ=              5.4094
 Hexadecapole moment (field-independent basis, Debye-Ang**3):
 XXXX=          -2011.9959 YYYY=          -1217.0293 ZZZZ=           -395.5792 XXXY=            -77.5238
 XXXZ=             23.0813 YYYX=            -52.7761 YYYZ=              1.9506 ZZZX=              6.4542
 ZZZY=            -11.3447 XXYY=           -549.8037 XXZZ=           -392.7915 YYZZ=           -276.9109
 XXYZ=              3.4748 YYXZ=              6.2469 ZZXY=             -6.8464
 N-N= 8.817162334977D+02 E-N=-3.193169640596D+03  KE= 6.091079644568D+02
 Calculating spin-rotation constants.
 Leave Link  601 at Wed Jun 18 15:11:35 2014, MaxMem=  4294967296 cpu:        69.0
 (Enter /home/ztw1e12/g09/l9999.exe)

 Test job not archived.
 1\1\GINC-GREEN0642\SP\RM06\Gen\C9H18N2O2\ROOT\18-Jun-2014\0\\#P Geom=A
 llCheck Guess=TCheck SCRF=Check GenChk RM06/ChkBas NMR=ReadFC IOp(3/6=
 22)\\NMR spin-spin scan\\0,1\C,0,0.328517,0.881692,0.437346\C,0,0.1196
 91,0.02903,-0.813031\H,0,0.569959,0.599648,-1.632155\C,0,-1.819453,-1.
 612132,0.929947\H,0,-2.653304,-2.017025,1.507394\H,0,-1.200405,-2.4635
 63,0.642123\H,0,-1.235655,-0.978075,1.597235\O,0,0.678038,0.422844,1.5
 20453\N,0,0.824206,-1.225754,-0.728668\H,0,0.301709,-2.08369,-0.656731
 \N,0,0.110979,2.189338,0.252987\H,0,-0.206599,2.508963,-0.64841\C,0,0.
 14841,3.121565,1.356227\H,0,-0.604633,2.876524,2.107747\H,0,1.126059,3
 .114748,1.837881\H,0,-0.046648,4.121221,0.980285\C,0,2.166417,-1.27741
 3,-0.702071\C,0,2.77868,-2.634503,-0.587643\H,0,2.047887,-3.439598,-0.
 6198\H,0,3.500044,-2.765769,-1.393407\H,0,3.327282,-2.690007,0.352829\
 O,0,2.857357,-0.261387,-0.769532\C,0,-2.369284,-0.831992,-0.253525\H,0
 ,-2.941041,-1.52905,-0.872046\C,0,-3.340272,0.210242,0.285272\H,0,-2.8
 1207,0.92224,0.928962\H,0,-3.813695,0.77673,-0.518952\H,0,-4.128411,-0
 .252504,0.883025\C,0,-1.350377,-0.143999,-1.194628\H,0,-1.331977,-0.68
 5645,-2.144089\H,0,-1.725788,0.850619,-1.444687\\Version=EM64L-G09RevD
 .01\State=1-A\HF=-613.5737691\RMSD=8.735e-09\Dipole=-1.5872686,-0.0494
 517,-0.8592138\Quadrupole=-7.3011468,10.500329,-3.1991821,-3.8699377,0
 .9504439,1.0526095\PG=C01 [X(C9H18N2O2)]\\@


 A FOOL CAN ASK MORE QUESTIONS THAN
 A WISE MAN CAN ANSWER.
 Job cpu time:       2 days 14 hours 22 minutes 46.8 seconds.
 File lengths (MBytes):  RWF=   2456 Int=      0 D2E=      0 Chk=     48 Scr=      8
 Normal termination of Gaussian 09 at Wed Jun 18 15:11:35 2014.
