 Entering Gaussian System, Link 0=g09
 Input=scan_input_19.gjf
 Output=scan_input_19.log
 Initial command:
 /home/ztw1e12/g09/l1.exe "/home/ztw1e12/leucine_scan/leucine_chi2_scan/Gau-19167.inp" -scrdir="/home/ztw1e12/leucine_scan/leucine_chi2_scan/"
 Default is to use a total of   8 processors:
                                8 via shared-memory
                                1 via Linda
 Entering Link 1 = /home/ztw1e12/g09/l1.exe PID=     19168.
  
 Copyright (c) 1988,1990,1992,1993,1995,1998,2003,2009,2013,
            Gaussian, Inc.  All Rights Reserved.
  
 This is part of the Gaussian(R) 09 program.  It is based on
 the Gaussian(R) 03 system (copyright 2003, Gaussian, Inc.),
 the Gaussian(R) 98 system (copyright 1998, Gaussian, Inc.),
 the Gaussian(R) 94 system (copyright 1995, Gaussian, Inc.),
 the Gaussian 92(TM) system (copyright 1992, Gaussian, Inc.),
 the Gaussian 90(TM) system (copyright 1990, Gaussian, Inc.),
 the Gaussian 88(TM) system (copyright 1988, Gaussian, Inc.),
 the Gaussian 86(TM) system (copyright 1986, Carnegie Mellon
 University), and the Gaussian 82(TM) system (copyright 1983,
 Carnegie Mellon University). Gaussian is a federally registered
 trademark of Gaussian, Inc.
  
 This software contains proprietary and confidential information,
 including trade secrets, belonging to Gaussian, Inc.
  
 This software is provided under written license and may be
 used, copied, transmitted, or stored only in accord with that
 written license.
  
 The following legend is applicable only to US Government
 contracts under FAR:
  
                    RESTRICTED RIGHTS LEGEND
  
 Use, reproduction and disclosure by the US Government is
 subject to restrictions as set forth in subparagraphs (a)
 and (c) of the Commercial Computer Software - Restricted
 Rights clause in FAR 52.227-19.
  
 Gaussian, Inc.
 340 Quinnipiac St., Bldg. 40, Wallingford CT 06492
  
  
 ---------------------------------------------------------------
 Warning -- This program may not be used in any manner that
 competes with the business of Gaussian, Inc. or will provide
 assistance to any competitor of Gaussian, Inc.  The licensee
 of this program is prohibited from giving any competitor of
 Gaussian, Inc. access to this program.  By using this program,
 the user acknowledges that Gaussian, Inc. is engaged in the
 business of creating and licensing software in the field of
 computational chemistry and represents and warrants to the
 licensee that it is not a competitor of Gaussian, Inc. and that
 it will not use this program in any manner prohibited above.
 ---------------------------------------------------------------
  

 Cite this work as:
 Gaussian 09, Revision D.01,
 M. J. Frisch, G. W. Trucks, H. B. Schlegel, G. E. Scuseria, 
 M. A. Robb, J. R. Cheeseman, G. Scalmani, V. Barone, B. Mennucci, 
 G. A. Petersson, H. Nakatsuji, M. Caricato, X. Li, H. P. Hratchian, 
 A. F. Izmaylov, J. Bloino, G. Zheng, J. L. Sonnenberg, M. Hada, 
 M. Ehara, K. Toyota, R. Fukuda, J. Hasegawa, M. Ishida, T. Nakajima, 
 Y. Honda, O. Kitao, H. Nakai, T. Vreven, J. A. Montgomery, Jr., 
 J. E. Peralta, F. Ogliaro, M. Bearpark, J. J. Heyd, E. Brothers, 
 K. N. Kudin, V. N. Staroverov, T. Keith, R. Kobayashi, J. Normand, 
 K. Raghavachari, A. Rendell, J. C. Burant, S. S. Iyengar, J. Tomasi, 
 M. Cossi, N. Rega, J. M. Millam, M. Klene, J. E. Knox, J. B. Cross, 
 V. Bakken, C. Adamo, J. Jaramillo, R. Gomperts, R. E. Stratmann, 
 O. Yazyev, A. J. Austin, R. Cammi, C. Pomelli, J. W. Ochterski, 
 R. L. Martin, K. Morokuma, V. G. Zakrzewski, G. A. Voth, 
 P. Salvador, J. J. Dannenberg, S. Dapprich, A. D. Daniels, 
 O. Farkas, J. B. Foresman, J. V. Ortiz, J. Cioslowski, 
 and D. J. Fox, Gaussian, Inc., Wallingford CT, 2013.
 
 ******************************************
 Gaussian 09:  EM64L-G09RevD.01 24-Apr-2013
                18-Jun-2014 
 ******************************************
 %Mem=32GB
 %NProcShared=16
 Will use up to   16 processors via shared memory.
 Default route:  MaxDisk=100GB
 ----------------------------------------------------------------------
 #p nmr=(giao,mixed,spinspin) m06/cc-pvtz scf=tight integral=(grid=ultr
 afine)
 ----------------------------------------------------------------------
 1/38=1/1;
 2/12=2,17=6,18=5,40=1/2;
 3/5=16,6=1,10=1100000,11=2,16=1,25=1,30=1,74=-54,75=-5/1,2,8,3;
 4//1;
 5/5=2,32=2,38=5/2;
 8/6=1,10=90,11=11/1;
 10/13=100,45=16,47=3/2;
 6/7=2,8=2,9=2,10=2,28=1/1;
 99/9=1/99;
 Leave Link    1 at Wed Jun 18 04:31:19 2014, MaxMem=  4294967296 cpu:         9.7
 (Enter /home/ztw1e12/g09/l101.exe)
 ------------------
 NMR spin-spin scan
 ------------------
 Symbolic Z-matrix:
 Charge =  0 Multiplicity = 1
 C                     0.46328   0.81849   0.43356 
 C                     0.22514  -0.0142   -0.82463 
 H                     0.6999    0.55088  -1.63281 
 C                    -1.75556  -1.10908   1.1773 
 H                    -2.56716  -1.56298   1.74952 
 H                    -0.94611  -1.83924   1.1388 
 H                    -1.40852  -0.24796   1.75426 
 O                     1.15654   0.43027   1.36735 
 N                     0.90716  -1.28343  -0.75202 
 H                     0.37723  -2.10693  -0.51285 
 N                    -0.1075    2.03052   0.41972 
 H                    -0.75127   2.25265  -0.32274 
 C                    -0.10725   2.87176   1.59457 
 H                    -0.61315   2.38523   2.4322 
 H                     0.91047   3.10946   1.90238 
 H                    -0.62417   3.79863   1.3644 
 C                     2.23728  -1.39574  -0.90995 
 C                     2.80722  -2.7685   -0.76422 
 H                     2.05318  -3.531    -0.58152 
 H                     3.36255  -3.01724  -1.66811 
 H                     3.51735  -2.76334   0.06284 
 O                     2.95159  -0.42839  -1.1701 
 C                    -2.2796   -0.70311  -0.19121 
 H                    -2.72835  -1.59901  -0.63061 
 C                    -3.38996   0.31948  -0.01151 
 H                    -2.99269   1.23888   0.43143 
 H                    -3.85333   0.58251  -0.9643 
 H                    -4.17195  -0.05807   0.65075 
 C                    -1.24163  -0.18202  -1.21688 
 H                    -1.24134  -0.83171  -2.09431 
 H                    -1.58371   0.78647  -1.59098 
 
 NAtoms=     31 NQM=       31 NQMF=       0 NMMI=      0 NMMIF=      0
                NMic=       0 NMicF=      0.
                    Isotopes and Nuclear Properties:
 (Nuclear quadrupole moments (NQMom) in fm**2, nuclear magnetic moments (NMagM)
  in nuclear magnetons)

  Atom         1           2           3           4           5           6           7           8           9          10
 IAtWgt=          12          12           1          12           1           1           1          16          14           1
 AtmWgt=  12.0000000  12.0000000   1.0078250  12.0000000   1.0078250   1.0078250   1.0078250  15.9949146  14.0030740   1.0078250
 NucSpn=           0           0           1           0           1           1           1           0           2           1
 AtZEff=   0.0000000   0.0000000   0.0000000   0.0000000   0.0000000   0.0000000   0.0000000   0.0000000   0.0000000   0.0000000
 NQMom=    0.0000000   0.0000000   0.0000000   0.0000000   0.0000000   0.0000000   0.0000000   0.0000000   2.0440000   0.0000000
 NMagM=    0.0000000   0.0000000   2.7928460   0.0000000   2.7928460   2.7928460   2.7928460   0.0000000   0.4037610   2.7928460
 AtZNuc=   6.0000000   6.0000000   1.0000000   6.0000000   1.0000000   1.0000000   1.0000000   8.0000000   7.0000000   1.0000000

  Atom        11          12          13          14          15          16          17          18          19          20
 IAtWgt=          14           1          12           1           1           1          12          12           1           1
 AtmWgt=  14.0030740   1.0078250  12.0000000   1.0078250   1.0078250   1.0078250  12.0000000  12.0000000   1.0078250   1.0078250
 NucSpn=           2           1           0           1           1           1           0           0           1           1
 AtZEff=   0.0000000   0.0000000   0.0000000   0.0000000   0.0000000   0.0000000   0.0000000   0.0000000   0.0000000   0.0000000
 NQMom=    2.0440000   0.0000000   0.0000000   0.0000000   0.0000000   0.0000000   0.0000000   0.0000000   0.0000000   0.0000000
 NMagM=    0.4037610   2.7928460   0.0000000   2.7928460   2.7928460   2.7928460   0.0000000   0.0000000   2.7928460   2.7928460
 AtZNuc=   7.0000000   1.0000000   6.0000000   1.0000000   1.0000000   1.0000000   6.0000000   6.0000000   1.0000000   1.0000000

  Atom        21          22          23          24          25          26          27          28          29          30
 IAtWgt=           1          16          12           1          12           1           1           1          12           1
 AtmWgt=   1.0078250  15.9949146  12.0000000   1.0078250  12.0000000   1.0078250   1.0078250   1.0078250  12.0000000   1.0078250
 NucSpn=           1           0           0           1           0           1           1           1           0           1
 AtZEff=   0.0000000   0.0000000   0.0000000   0.0000000   0.0000000   0.0000000   0.0000000   0.0000000   0.0000000   0.0000000
 NQMom=    0.0000000   0.0000000   0.0000000   0.0000000   0.0000000   0.0000000   0.0000000   0.0000000   0.0000000   0.0000000
 NMagM=    2.7928460   0.0000000   0.0000000   2.7928460   0.0000000   2.7928460   2.7928460   2.7928460   0.0000000   2.7928460
 AtZNuc=   1.0000000   8.0000000   6.0000000   1.0000000   6.0000000   1.0000000   1.0000000   1.0000000   6.0000000   1.0000000

  Atom        31
 IAtWgt=           1
 AtmWgt=   1.0078250
 NucSpn=           1
 AtZEff=   0.0000000
 NQMom=    0.0000000
 NMagM=    2.7928460
 AtZNuc=   1.0000000
 Leave Link  101 at Wed Jun 18 04:31:19 2014, MaxMem=  4294967296 cpu:         1.7
 (Enter /home/ztw1e12/g09/l202.exe)
                          Input orientation:                          
 ---------------------------------------------------------------------
 Center     Atomic      Atomic             Coordinates (Angstroms)
 Number     Number       Type             X           Y           Z
 ---------------------------------------------------------------------
      1          6           0        0.463275    0.818494    0.433555
      2          6           0        0.225137   -0.014200   -0.824633
      3          1           0        0.699903    0.550882   -1.632809
      4          6           0       -1.755558   -1.109082    1.177304
      5          1           0       -2.567163   -1.562975    1.749522
      6          1           0       -0.946113   -1.839239    1.138796
      7          1           0       -1.408523   -0.247956    1.754255
      8          8           0        1.156538    0.430268    1.367352
      9          7           0        0.907157   -1.283429   -0.752017
     10          1           0        0.377233   -2.106928   -0.512847
     11          7           0       -0.107500    2.030519    0.419716
     12          1           0       -0.751270    2.252649   -0.322737
     13          6           0       -0.107247    2.871761    1.594567
     14          1           0       -0.613151    2.385232    2.432201
     15          1           0        0.910469    3.109464    1.902384
     16          1           0       -0.624165    3.798634    1.364404
     17          6           0        2.237280   -1.395744   -0.909947
     18          6           0        2.807217   -2.768500   -0.764223
     19          1           0        2.053176   -3.531003   -0.581522
     20          1           0        3.362553   -3.017239   -1.668107
     21          1           0        3.517348   -2.763341    0.062842
     22          8           0        2.951587   -0.428390   -1.170102
     23          6           0       -2.279602   -0.703110   -0.191209
     24          1           0       -2.728349   -1.599010   -0.630612
     25          6           0       -3.389958    0.319479   -0.011509
     26          1           0       -2.992685    1.238883    0.431429
     27          1           0       -3.853332    0.582506   -0.964298
     28          1           0       -4.171948   -0.058066    0.650753
     29          6           0       -1.241628   -0.182020   -1.216876
     30          1           0       -1.241342   -0.831711   -2.094314
     31          1           0       -1.583714    0.786467   -1.590976
 ---------------------------------------------------------------------
                    Distance matrix (angstroms):
                    1          2          3          4          5
     1  C    0.000000
     2  C    1.527457   0.000000
     3  H    2.097014   1.094472   0.000000
     4  C    3.031820   3.021535   4.084300   0.000000
     5  H    4.072679   4.101453   5.155800   1.091858   0.000000
     6  H    3.089868   2.925346   4.012959   1.090786   1.754170
     7  H    2.526894   3.061723   4.068883   1.093089   1.752639
     8  O    1.226095   2.422779   3.037109   3.299397   4.240875
     9  N    2.453710   1.442694   2.045347   3.292830   4.290308
    10  H    3.075902   2.121286   2.902135   2.898466   3.752821
    11  N    1.339769   2.416594   2.655953   3.625897   4.553188
    12  H    2.025808   2.518705   2.591950   3.815751   4.706454
    13  C    2.426798   3.780447   4.056344   4.328758   5.073665
    14  H    2.758251   4.131219   4.649006   3.884597   4.457864
    15  H    2.757895   4.202806   4.369012   5.042774   5.826575
    16  H    3.306091   4.477823   4.613495   5.039914   5.715803
    17  C    3.139258   2.442266   2.583682   4.514593   5.493943
    18  C    4.449187   3.775838   4.026600   5.228968   6.054433
    19  H    4.740917   3.970986   4.427001   4.844133   5.536645
    20  H    5.247442   4.424146   4.452240   6.158936   6.996900
    21  H    4.721687   4.379959   4.668758   5.637565   6.427055
    22  O    3.212185   2.779286   2.498630   5.303854   6.345714
    23  C    3.198278   2.673862   3.539514   1.520613   2.142077
    24  H    4.142854   3.357432   4.168854   2.110666   2.385858
    25  C    3.910819   3.720406   4.405579   2.474940   2.705893
    26  H    3.481435   3.674546   4.285981   2.756765   3.125515
    27  H    4.543433   4.124254   4.602158   3.442177   3.690818
    28  H    4.722375   4.638216   5.414832   2.687160   2.459142
    29  C    2.575198   1.527553   2.116527   2.618333   3.530382
    30  H    3.466845   2.104988   2.427547   3.323377   4.131298
    31  H    2.879221   2.121389   2.296118   3.359466   4.200711
                    6          7          8          9         10
     6  H    0.000000
     7  H    1.767709   0.000000
     8  O    3.102264   2.681272   0.000000
     9  N    2.705311   3.565947   2.736909   0.000000
    10  H    2.133267   3.432849   3.252665   1.008054   0.000000
    11  N    4.024348   2.943655   2.248691   3.658516   4.268853
    12  H    4.349436   3.316459   3.133242   3.929187   4.507280
    13  C    4.806760   3.384000   2.758563   4.878635   5.428007
    14  H    4.430566   2.833003   2.843868   5.090153   5.462021
    15  H    5.340377   4.083128   2.743155   5.132579   5.773078
    16  H    5.651563   4.140301   3.810092   5.714153   6.277144
    17  C    3.811565   4.659106   3.112622   1.344167   2.030578
    18  C    4.309582   5.519813   4.183356   2.411600   2.530946
    19  H    3.849324   5.312025   4.504857   2.528639   2.200339
    20  H    5.275509   6.491892   5.095667   3.142338   3.327976
    21  H    4.683388   5.783792   4.180228   3.109217   3.259236
    22  O    4.744847   5.253092   3.224619   2.255123   3.142733
    23  C    2.199522   2.179627   3.939634   3.287356   3.022073
    24  H    2.522871   3.042183   4.816864   3.651196   3.149046
    25  C    3.457693   2.714036   4.752279   4.645736   4.508938
    26  H    3.763464   2.543645   4.329649   4.792846   4.841741
    27  H    4.328946   3.749305   5.527980   5.117522   5.033343
    28  H    3.717092   2.981659   5.398588   5.409860   5.123168
    29  C    2.895323   2.976545   3.578314   2.458958   2.611827
    30  H    3.399305   3.896178   4.396084   2.573297   2.597499
    31  H    3.840901   3.505894   4.048156   3.345558   3.657788
                   11         12         13         14         15
    11  N    0.000000
    12  H    1.007481   0.000000
    13  C    1.444979   2.115212   0.000000
    14  H    2.105137   2.761583   1.092831   0.000000
    15  H    2.097305   2.906316   1.089495   1.768230   0.000000
    16  H    2.070171   2.291870   1.085943   1.771445   1.766205
    17  C    4.359504   4.752580   5.475490   5.795748   5.474170
    18  C    5.738281   6.170063   6.772779   6.962542   6.727474
    19  H    6.049919   6.432924   7.099167   7.154975   7.181321
    20  H    6.471486   6.819478   7.573960   7.861644   7.503173
    21  H    6.020629   6.597721   6.873008   7.013037   6.683530
    22  O    4.234592   4.649424   5.281179   5.796586   5.111041
    23  C    3.544571   3.330107   4.548387   4.381460   5.394016
    24  H    4.598426   4.340381   5.639981   5.452437   6.467364
    25  C    3.726680   3.285831   4.457557   4.236710   5.471807
    26  H    2.991842   2.573019   3.513536   3.313516   4.571367
    27  H    4.247763   3.581029   5.081499   5.028399   6.107142
    28  H    4.575511   4.241241   5.098673   4.669936   6.118071
    29  C    2.976577   2.639611   4.303093   4.505722   5.019479
    30  H    3.974708   3.590534   5.348805   5.588621   6.011385
    31  H    2.787428   2.109759   4.083637   4.436665   4.880659
                   16         17         18         19         20
    16  H    0.000000
    17  C    6.351543   0.000000
    18  C    7.709260   1.493493   0.000000
    19  H    8.042286   2.168199   1.087827   0.000000
    20  H    8.458497   2.114306   1.089622   1.777382   0.000000
    21  H    7.868018   2.110738   1.090114   1.774348   1.756306
    22  O    6.089126   1.230321   2.379432   3.283257   2.668153
    23  C    5.042430   4.625857   5.519955   5.188669   6.274578
    24  H    6.127172   4.977632   5.659333   5.157324   6.339310
    25  C    4.652662   5.951049   6.964709   6.691699   7.711965
    26  H    3.610077   6.007752   7.150354   7.017022   7.931688
    27  H    5.117993   6.404060   7.458699   7.207934   8.094597
    28  H    5.288686   6.730778   7.619538   7.234083   8.420364
    29  C    4.784336   3.697314   4.825756   4.740791   5.425915
    30  H    5.812378   3.717751   4.680932   4.519797   5.114102
    31  H    4.327604   4.452622   5.709780   5.734676   6.240167
                   21         22         23         24         25
    21  H    0.000000
    22  O    2.700413   0.000000
    23  C    6.157412   5.329075   0.000000
    24  H    6.391031   5.824352   1.094114   0.000000
    25  C    7.564402   6.489749   1.520155   2.121701   0.000000
    26  H    7.650764   6.378015   2.160440   3.041618   1.095136
    27  H    8.159450   6.882673   2.174190   2.477084   1.091653
    28  H    8.172480   7.361889   2.169321   2.469895   1.092080
    29  C    5.563160   4.200707   1.549489   2.135862   2.513908
    30  H    5.570426   4.312481   2.171711   2.223142   3.206223
    31  H    6.430947   4.714018   2.159270   2.814780   2.444445
                   26         27         28         29         30
    26  H    0.000000
    27  H    1.766238   0.000000
    28  H    1.766590   1.766420   0.000000
    29  C    2.793220   2.733001   3.477093   0.000000
    30  H    3.705933   3.177961   4.089300   1.091786   0.000000
    31  H    2.505993   2.363364   3.526690   1.093133   1.728892
                   31
    31  H    0.000000
 Stoichiometry    C9H18N2O2
 Framework group  C1[X(C9H18N2O2)]
 Deg. of freedom    87
 Full point group                 C1      NOp   1
 Largest Abelian subgroup         C1      NOp   1
 Largest concise Abelian subgroup C1      NOp   1
                         Standard orientation:                         
 ---------------------------------------------------------------------
 Center     Atomic      Atomic             Coordinates (Angstroms)
 Number     Number       Type             X           Y           Z
 ---------------------------------------------------------------------
      1          6           0       -0.225098    1.080083    0.057513
      2          6           0        0.286801   -0.112411   -0.748119
      3          1           0        0.629170    0.312276   -1.696957
      4          6           0       -1.384357   -1.356208    1.440458
      5          1           0       -2.003190   -1.952285    2.114174
      6          1           0       -0.347573   -1.505559    1.744741
      7          1           0       -1.643337   -0.309596    1.620390
      8          8           0        0.304142    1.457526    1.097105
      9          7           0        1.440773   -0.712320   -0.123760
     10          1           0        1.318778   -1.556338    0.413756
     11          7           0       -1.273242    1.714301   -0.484836
     12          1           0       -1.731577    1.297496   -1.279329
     13          6           0       -1.968820    2.758945    0.231301
     14          1           0       -2.381940    2.388559    1.172802
     15          1           0       -1.299404    3.588737    0.455639
     16          1           0       -2.782148    3.128196   -0.386296
     17          6           0        2.657731   -0.142880   -0.162947
     18          6           0        3.746945   -0.858853    0.566105
     19          1           0        3.421387   -1.793650    1.017254
     20          1           0        4.564230   -1.056257   -0.126970
     21          1           0        4.132914   -0.201715    1.345557
     22          8           0        2.873287    0.904435   -0.771517
     23          6           0       -1.667757   -1.773874    0.006058
     24          1           0       -1.513560   -2.856136   -0.038878
     25          6           0       -3.132286   -1.510558   -0.304891
     26          1           0       -3.341919   -0.436281   -0.268762
     27          1           0       -3.403617   -1.869149   -1.299627
     28          1           0       -3.785005   -2.001550    0.420040
     29          6           0       -0.773240   -1.155282   -1.097618
     30          1           0       -0.243287   -1.951882   -1.623521
     31          1           0       -1.421587   -0.708190   -1.855706
 ---------------------------------------------------------------------
 Rotational constants (GHZ):      1.0349084      0.5625663      0.4345581
 Leave Link  202 at Wed Jun 18 04:31:20 2014, MaxMem=  4294967296 cpu:         6.7
 (Enter /home/ztw1e12/g09/l301.exe)
 Standard basis: CC-pVTZ (5D, 7F)
 Converting basis for Fermi contact spin-spin IFCMod=1.
 AO basis functions are being uncontracted.
 Ernie: Thresh=  0.10000D-02 Tol=  0.10000D-05 Strict=F.
 There are  1119 symmetry adapted cartesian basis functions of A   symmetry.
 There are  1036 symmetry adapted basis functions of A   symmetry.
  1036 basis functions,  1119 primitive gaussians,  1119 cartesian basis functions
    51 alpha electrons       51 beta electrons
       nuclear repulsion energy       882.1594746795 Hartrees.
 IExCor= 4235 DFT=T Ex+Corr=M06 ExCW=0 ScaHFX=  0.270000
 ScaDFX=  1.000000  1.000000  1.000000  1.000000 ScalE2=  1.000000  1.000000
 IRadAn= 199590 IRanWt=     -1 IRanGd=            0 ICorTp=0 IEmpDi=  4
 NAtoms=   31 NActive=   31 NUniq=   31 SFac= 1.00D+00 NAtFMM=   60 NAOKFM=F Big=F
 Integral buffers will be    131072 words long.
 Raffenetti 2 integral format.
 Two-electron integral symmetry is turned on.
 Leave Link  301 at Wed Jun 18 04:31:20 2014, MaxMem=  4294967296 cpu:         7.9
 (Enter /home/ztw1e12/g09/l302.exe)
 NPDir=0 NMtPBC=     1 NCelOv=     1 NCel=       1 NClECP=     1 NCelD=      1
         NCelK=      1 NCelE2=     1 NClLst=     1 CellRange=     0.0.
 One-electron integrals computed using PRISM.
 GSVD:  received Info=                   1 from GESDD.
 NBasis=  1036 RedAO= T EigKep=  1.17D-04  NBF=  1036
 NBsUse=   932 1.00D-06 EigRej=  6.18D-15 NBFU=   932
 Precomputing XC quadrature grid using
 IXCGrd= 4 IRadAn=      199590 IRanWt=          -1 IRanGd=           0 AccXCQ= 0.00D+00.
 Generated NRdTot=       0 NPtTot=           0 NUsed=           0 NTot=          32
 NSgBfM=   872   875   875   875   875 MxSgAt=    31 MxSgA2=    31.
 Leave Link  302 at Wed Jun 18 04:31:25 2014, MaxMem=  4294967296 cpu:        65.9
 (Enter /home/ztw1e12/g09/l308.exe)
 Leave Link  308 at Wed Jun 18 04:31:26 2014, MaxMem=  4294967296 cpu:         5.4
 (Enter /home/ztw1e12/g09/l303.exe)
 DipDrv:  MaxL=1.
 Leave Link  303 at Wed Jun 18 04:31:26 2014, MaxMem=  4294967296 cpu:         3.3
 (Enter /home/ztw1e12/g09/l401.exe)
 ExpMin= 1.03D-01 ExpMax= 1.38D+05 ExpMxC= 1.38D+05 IAcc=4 IRadAn=    199590 AccDes= 0.00D+00
 Harris functional with IExCor= 1009 and IRadAn=  199590 diagonalized for initial guess.
 HarFok:  IExCor= 1009 AccDes= 0.00D+00 IRadAn=    199590 IDoV= 1 UseB2=F ITyADJ=14
 ICtDFT=  3500011 ScaDFX=  1.000000  1.000000  1.000000  1.000000
 FoFCou: FMM=F IPFlag=           0 FMFlag=      100000 FMFlg1=           0
         NFxFlg=           0 DoJE=T BraDBF=F KetDBF=T FulRan=T
         wScrn=  0.000000 ICntrl=     500 IOpCl=  0 I1Cent=   200000004 NGrid=           0
         NMat0=    1 NMatS0=      1 NMatT0=    0 NMatD0=    1 NMtDS0=    0 NMtDT0=    0
 Petite list used in FoFCou.
 Harris En= -613.554708633593    
 JPrj=0 DoOrth=F DoCkMO=F.
 Leave Link  401 at Wed Jun 18 04:31:44 2014, MaxMem=  4294967296 cpu:       268.1
 (Enter /home/ztw1e12/g09/l502.exe)
 Closed shell SCF:
 Using DIIS extrapolation, IDIIS=  1040.
 Integral symmetry usage will be decided dynamically.
 IVT=     3801329 IEndB=     3801329 NGot=  4294967296 MDV=  4292435888
 LenX=  4292435888 LenY=  4291182608
 Requested convergence on RMS density matrix=1.00D-08 within 128 cycles.
 Requested convergence on MAX density matrix=1.00D-06.
 Requested convergence on             energy=1.00D-06.
 No special actions if energy rises.
 Fock matrices will be formed incrementally for  20 cycles.
 Integral accuracy reduced to 1.0D-05 until final iterations.

 Cycle   1  Pass 0  IDiag  1:
 FoFJK:  IHMeth= 1 ICntrl=       0 DoSepK=F KAlg= 0 I1Cent=   0 FoldK=F
 IRaf= 490000000 NMat=   1 IRICut=       1 DoRegI=T DoRafI=F ISym2E= 0.
 FoFCou: FMM=F IPFlag=           0 FMFlag=      100000 FMFlg1=           0
         NFxFlg=           0 DoJE=F BraDBF=F KetDBF=F FulRan=T
         wScrn=  0.000000 ICntrl=       0 IOpCl=  0 I1Cent=           0 NGrid=           0
         NMat0=    1 NMatS0=      1 NMatT0=    0 NMatD0=    1 NMtDS0=    0 NMtDT0=    0
 Symmetry not used in FoFCou.
 E= -613.175318623143    
 DIIS: error= 1.28D-01 at cycle   1 NSaved=   1.
 NSaved= 1 IEnMin= 1 EnMin= -613.175318623143     IErMin= 1 ErrMin= 1.28D-01
 ErrMax= 1.28D-01  0.00D+00 EMaxC= 1.00D-01 BMatC= 1.30D+01 BMatP= 1.30D+01
 IDIUse=3 WtCom= 0.00D+00 WtEn= 1.00D+00
 Coeff-Com:  0.100D+01
 Coeff-En:   0.100D+01
 Coeff:      0.100D+01
 Gap=     0.282 Goal=   None    Shift=    0.000
 GapD=    0.282 DampG=1.000 DampE=0.250 DampFc=0.2500 IDamp=-1.
 Damping current iteration by 2.50D-01
 RMSDP=2.16D-03 MaxDP=3.27D-01              OVMax= 2.91D-01

 Cycle   2  Pass 0  IDiag  1:
 RMSU=  5.40D-04    CP:  1.01D+00
 E= -613.331619386647     Delta-E=       -0.156300763504 Rises=F Damp=T
 DIIS: error= 1.00D-01 at cycle   2 NSaved=   2.
 NSaved= 2 IEnMin= 2 EnMin= -613.331619386647     IErMin= 2 ErrMin= 1.00D-01
 ErrMax= 1.00D-01  0.00D+00 EMaxC= 1.00D-01 BMatC= 7.66D+00 BMatP= 1.30D+01
 IDIUse=3 WtCom= 0.00D+00 WtEn= 1.00D+00
 Coeff-Com: -0.279D+01 0.379D+01
 Coeff-En:   0.000D+00 0.100D+01
 Coeff:      0.000D+00 0.100D+01
 Gap=     0.216 Goal=   None    Shift=    0.000
 RMSDP=5.85D-04 MaxDP=5.99D-02 DE=-1.56D-01 OVMax= 1.37D-01

 Cycle   3  Pass 0  IDiag  1:
 RMSU=  4.42D-04    CP:  1.03D+00  1.71D+00
 E= -613.521997534754     Delta-E=       -0.190378148107 Rises=F Damp=F
 DIIS: error= 1.53D-02 at cycle   3 NSaved=   3.
 NSaved= 3 IEnMin= 3 EnMin= -613.521997534754     IErMin= 3 ErrMin= 1.53D-02
 ErrMax= 1.53D-02  0.00D+00 EMaxC= 1.00D-01 BMatC= 2.30D-01 BMatP= 7.66D+00
 IDIUse=3 WtCom= 8.47D-01 WtEn= 1.53D-01
 Coeff-Com:  0.119D+01-0.163D+01 0.144D+01
 Coeff-En:   0.134D+00 0.000D+00 0.866D+00
 Coeff:      0.103D+01-0.138D+01 0.135D+01
 Gap=     0.242 Goal=   None    Shift=    0.000
 RMSDP=4.19D-04 MaxDP=3.42D-02 DE=-1.90D-01 OVMax= 6.63D-02

 Cycle   4  Pass 0  IDiag  1:
 RMSU=  2.79D-04    CP:  1.03D+00  1.18D+00  7.09D-01
 E= -613.532803009177     Delta-E=       -0.010805474423 Rises=F Damp=F
 DIIS: error= 8.73D-03 at cycle   4 NSaved=   4.
 NSaved= 4 IEnMin= 4 EnMin= -613.532803009177     IErMin= 4 ErrMin= 8.73D-03
 ErrMax= 8.73D-03  0.00D+00 EMaxC= 1.00D-01 BMatC= 1.07D-01 BMatP= 2.30D-01
 IDIUse=3 WtCom= 9.13D-01 WtEn= 8.73D-02
 Coeff-Com:  0.746D+00-0.103D+01 0.746D+00 0.535D+00
 Coeff-En:   0.000D+00 0.000D+00 0.461D+00 0.539D+00
 Coeff:      0.681D+00-0.938D+00 0.721D+00 0.536D+00
 Gap=     0.275 Goal=   None    Shift=    0.000
 RMSDP=2.81D-04 MaxDP=2.77D-02 DE=-1.08D-02 OVMax= 7.11D-02

 Cycle   5  Pass 0  IDiag  1:
 RMSU=  8.78D-05    CP:  1.02D+00  1.09D+00  8.43D-01  8.20D-02
 E= -613.607578730864     Delta-E=       -0.074775721687 Rises=F Damp=F
 DIIS: error= 3.04D-03 at cycle   5 NSaved=   5.
 NSaved= 5 IEnMin= 5 EnMin= -613.607578730864     IErMin= 5 ErrMin= 3.04D-03
 ErrMax= 3.04D-03  0.00D+00 EMaxC= 1.00D-01 BMatC= 1.39D-02 BMatP= 1.07D-01
 IDIUse=3 WtCom= 9.70D-01 WtEn= 3.04D-02
 Coeff-Com:  0.122D+00-0.175D+00 0.126D+00 0.267D+00 0.660D+00
 Coeff-En:   0.000D+00 0.000D+00 0.000D+00 0.749D-01 0.925D+00
 Coeff:      0.118D+00-0.170D+00 0.122D+00 0.261D+00 0.668D+00
 Gap=     0.265 Goal=   None    Shift=    0.000
 RMSDP=1.51D-04 MaxDP=1.97D-02 DE=-7.48D-02 OVMax= 2.64D-02

 Cycle   6  Pass 0  IDiag  1:
 RMSU=  7.72D-05    CP:  1.03D+00  1.15D+00  9.23D-01  4.69D-01  3.86D-01
 E= -613.615454032990     Delta-E=       -0.007875302126 Rises=F Damp=F
 DIIS: error= 1.01D-03 at cycle   6 NSaved=   6.
 NSaved= 6 IEnMin= 6 EnMin= -613.615454032990     IErMin= 6 ErrMin= 1.01D-03
 ErrMax= 1.01D-03  0.00D+00 EMaxC= 1.00D-01 BMatC= 1.04D-03 BMatP= 1.39D-02
 IDIUse=3 WtCom= 9.90D-01 WtEn= 1.01D-02
 Coeff-Com:  0.542D-01-0.736D-01 0.165D-01 0.430D-01 0.204D+00 0.756D+00
 Coeff-En:   0.000D+00 0.000D+00 0.000D+00 0.000D+00 0.119D-01 0.988D+00
 Coeff:      0.536D-01-0.729D-01 0.164D-01 0.425D-01 0.202D+00 0.758D+00
 Gap=     0.264 Goal=   None    Shift=    0.000
 RMSDP=3.05D-05 MaxDP=3.54D-03 DE=-7.88D-03 OVMax= 7.08D-03

 Cycle   7  Pass 0  IDiag  1:
 RMSU=  2.11D-05    CP:  1.03D+00  1.12D+00  9.20D-01  4.61D-01  5.16D-01
                    CP:  1.07D+00
 E= -613.616037007675     Delta-E=       -0.000582974685 Rises=F Damp=F
 DIIS: error= 4.10D-04 at cycle   7 NSaved=   7.
 NSaved= 7 IEnMin= 7 EnMin= -613.616037007675     IErMin= 7 ErrMin= 4.10D-04
 ErrMax= 4.10D-04  0.00D+00 EMaxC= 1.00D-01 BMatC= 2.09D-04 BMatP= 1.04D-03
 IDIUse=3 WtCom= 9.96D-01 WtEn= 4.10D-03
 Coeff-Com:  0.364D-01-0.488D-01 0.110D-01 0.805D-02 0.600D-01 0.414D+00
 Coeff-Com:  0.520D+00
 Coeff-En:   0.000D+00 0.000D+00 0.000D+00 0.000D+00 0.000D+00 0.964D-01
 Coeff-En:   0.904D+00
 Coeff:      0.362D-01-0.486D-01 0.109D-01 0.802D-02 0.597D-01 0.413D+00
 Coeff:      0.521D+00
 Gap=     0.264 Goal=   None    Shift=    0.000
 RMSDP=1.09D-05 MaxDP=1.22D-03 DE=-5.83D-04 OVMax= 2.28D-03

 Cycle   8  Pass 0  IDiag  1:
 RMSU=  6.42D-06    CP:  1.03D+00  1.11D+00  9.25D-01  4.74D-01  5.01D-01
                    CP:  1.13D+00  7.16D-01
 E= -613.616181205071     Delta-E=       -0.000144197396 Rises=F Damp=F
 DIIS: error= 1.36D-04 at cycle   8 NSaved=   8.
 NSaved= 8 IEnMin= 8 EnMin= -613.616181205071     IErMin= 8 ErrMin= 1.36D-04
 ErrMax= 1.36D-04  0.00D+00 EMaxC= 1.00D-01 BMatC= 2.28D-05 BMatP= 2.09D-04
 IDIUse=3 WtCom= 9.99D-01 WtEn= 1.36D-03
 Coeff-Com:  0.196D-01-0.262D-01 0.754D-02-0.267D-02 0.366D-02 0.158D+00
 Coeff-Com:  0.293D+00 0.547D+00
 Coeff-En:   0.000D+00 0.000D+00 0.000D+00 0.000D+00 0.000D+00 0.000D+00
 Coeff-En:   0.000D+00 0.100D+01
 Coeff:      0.196D-01-0.262D-01 0.753D-02-0.267D-02 0.366D-02 0.158D+00
 Coeff:      0.292D+00 0.548D+00
 Gap=     0.264 Goal=   None    Shift=    0.000
 RMSDP=5.04D-06 MaxDP=5.42D-04 DE=-1.44D-04 OVMax= 1.08D-03

 Initial convergence to 1.0D-05 achieved.  Increase integral accuracy.
 Cycle   9  Pass 1  IDiag  1:
 E= -613.616243404444     Delta-E=       -0.000062199373 Rises=F Damp=F
 DIIS: error= 7.30D-05 at cycle   1 NSaved=   1.
 NSaved= 1 IEnMin= 1 EnMin= -613.616243404444     IErMin= 1 ErrMin= 7.30D-05
 ErrMax= 7.30D-05  0.00D+00 EMaxC= 1.00D-01 BMatC= 1.16D-05 BMatP= 1.16D-05
 IDIUse=1 WtCom= 1.00D+00 WtEn= 0.00D+00
 Coeff-Com:  0.100D+01
 Coeff:      0.100D+01
 Gap=     0.265 Goal=   None    Shift=    0.000
 RMSDP=5.04D-06 MaxDP=5.42D-04 DE=-6.22D-05 OVMax= 1.25D-03

 Cycle  10  Pass 1  IDiag  1:
 RMSU=  2.44D-05    CP:  1.00D+00
 E= -613.616239574104     Delta-E=        0.000003830340 Rises=F Damp=F
 DIIS: error= 1.18D-04 at cycle   2 NSaved=   2.
 NSaved= 2 IEnMin= 1 EnMin= -613.616243404444     IErMin= 1 ErrMin= 7.30D-05
 ErrMax= 1.18D-04  0.00D+00 EMaxC= 1.00D-01 BMatC= 1.45D-05 BMatP= 1.16D-05
 IDIUse=3 WtCom= 4.79D-01 WtEn= 5.21D-01
 Coeff-Com:  0.535D+00 0.465D+00
 Coeff-En:   0.626D+00 0.374D+00
 Coeff:      0.583D+00 0.417D+00
 Gap=     0.264 Goal=   None    Shift=    0.000
 RMSDP=3.69D-06 MaxDP=4.90D-04 DE= 3.83D-06 OVMax= 1.04D-03

 Cycle  11  Pass 1  IDiag  1:
 RMSU=  3.63D-06    CP:  1.00D+00  9.78D-01
 E= -613.616248948293     Delta-E=       -0.000009374189 Rises=F Damp=F
 DIIS: error= 3.76D-05 at cycle   3 NSaved=   3.
 NSaved= 3 IEnMin= 3 EnMin= -613.616248948293     IErMin= 3 ErrMin= 3.76D-05
 ErrMax= 3.76D-05  0.00D+00 EMaxC= 1.00D-01 BMatC= 1.29D-06 BMatP= 1.16D-05
 IDIUse=1 WtCom= 1.00D+00 WtEn= 0.00D+00
 Coeff-Com:  0.464D-01 0.230D+00 0.724D+00
 Coeff:      0.464D-01 0.230D+00 0.724D+00
 Gap=     0.264 Goal=   None    Shift=    0.000
 RMSDP=9.35D-07 MaxDP=8.83D-05 DE=-9.37D-06 OVMax= 2.52D-04

 Cycle  12  Pass 1  IDiag  1:
 RMSU=  4.72D-07    CP:  1.00D+00  9.96D-01  8.14D-01
 E= -613.616249786940     Delta-E=       -0.000000838647 Rises=F Damp=F
 DIIS: error= 1.08D-05 at cycle   4 NSaved=   4.
 NSaved= 4 IEnMin= 4 EnMin= -613.616249786940     IErMin= 4 ErrMin= 1.08D-05
 ErrMax= 1.08D-05  0.00D+00 EMaxC= 1.00D-01 BMatC= 8.09D-08 BMatP= 1.29D-06
 IDIUse=1 WtCom= 1.00D+00 WtEn= 0.00D+00
 Coeff-Com:  0.376D-02 0.946D-01 0.348D+00 0.553D+00
 Coeff:      0.376D-02 0.946D-01 0.348D+00 0.553D+00
 Gap=     0.264 Goal=   None    Shift=    0.000
 RMSDP=2.27D-07 MaxDP=2.42D-05 DE=-8.39D-07 OVMax= 4.38D-05

 Cycle  13  Pass 1  IDiag  1:
 RMSU=  1.91D-07    CP:  1.00D+00  9.97D-01  8.15D-01  7.47D-01
 E= -613.616249842813     Delta-E=       -0.000000055873 Rises=F Damp=F
 DIIS: error= 2.85D-06 at cycle   5 NSaved=   5.
 NSaved= 5 IEnMin= 5 EnMin= -613.616249842813     IErMin= 5 ErrMin= 2.85D-06
 ErrMax= 2.85D-06  0.00D+00 EMaxC= 1.00D-01 BMatC= 6.12D-09 BMatP= 8.09D-08
 IDIUse=1 WtCom= 1.00D+00 WtEn= 0.00D+00
 Coeff-Com: -0.221D-02 0.265D-01 0.107D+00 0.269D+00 0.600D+00
 Coeff:     -0.221D-02 0.265D-01 0.107D+00 0.269D+00 0.600D+00
 Gap=     0.264 Goal=   None    Shift=    0.000
 RMSDP=6.89D-08 MaxDP=7.18D-06 DE=-5.59D-08 OVMax= 1.10D-05

 Cycle  14  Pass 1  IDiag  1:
 RMSU=  3.83D-08    CP:  1.00D+00  9.97D-01  8.19D-01  8.52D-01  8.88D-01
 E= -613.616249847179     Delta-E=       -0.000000004366 Rises=F Damp=F
 DIIS: error= 4.22D-07 at cycle   6 NSaved=   6.
 NSaved= 6 IEnMin= 6 EnMin= -613.616249847179     IErMin= 6 ErrMin= 4.22D-07
 ErrMax= 4.22D-07  0.00D+00 EMaxC= 1.00D-01 BMatC= 2.42D-10 BMatP= 6.12D-09
 IDIUse=1 WtCom= 1.00D+00 WtEn= 0.00D+00
 Coeff-Com: -0.105D-02 0.675D-02 0.284D-01 0.885D-01 0.249D+00 0.628D+00
 Coeff:     -0.105D-02 0.675D-02 0.284D-01 0.885D-01 0.249D+00 0.628D+00
 Gap=     0.264 Goal=   None    Shift=    0.000
 RMSDP=1.96D-08 MaxDP=1.77D-06 DE=-4.37D-09 OVMax= 5.98D-06

 Cycle  15  Pass 1  IDiag  1:
 RMSU=  1.68D-08    CP:  1.00D+00  9.97D-01  8.19D-01  8.65D-01  9.08D-01
                    CP:  8.39D-01
 E= -613.616249847203     Delta-E=       -0.000000000024 Rises=F Damp=F
 DIIS: error= 3.86D-07 at cycle   7 NSaved=   7.
 NSaved= 7 IEnMin= 7 EnMin= -613.616249847203     IErMin= 7 ErrMin= 3.86D-07
 ErrMax= 3.86D-07  0.00D+00 EMaxC= 1.00D-01 BMatC= 1.16D-10 BMatP= 2.42D-10
 IDIUse=1 WtCom= 1.00D+00 WtEn= 0.00D+00
 Coeff-Com: -0.266D-03-0.709D-03-0.209D-02 0.478D-02 0.438D-01 0.423D+00
 Coeff-Com:  0.532D+00
 Coeff:     -0.266D-03-0.709D-03-0.209D-02 0.478D-02 0.438D-01 0.423D+00
 Coeff:      0.532D+00
 Gap=     0.264 Goal=   None    Shift=    0.000
 RMSDP=1.34D-08 MaxDP=2.25D-06 DE=-2.39D-11 OVMax= 2.69D-06

 Cycle  16  Pass 1  IDiag  1:
 RMSU=  5.59D-09    CP:  1.00D+00  9.97D-01  8.20D-01  8.76D-01  9.33D-01
                    CP:  1.04D+00  7.03D-01
 E= -613.616249847228     Delta-E=       -0.000000000025 Rises=F Damp=F
 DIIS: error= 1.20D-07 at cycle   8 NSaved=   8.
 NSaved= 8 IEnMin= 8 EnMin= -613.616249847228     IErMin= 8 ErrMin= 1.20D-07
 ErrMax= 1.20D-07  0.00D+00 EMaxC= 1.00D-01 BMatC= 9.46D-12 BMatP= 1.16D-10
 IDIUse=1 WtCom= 1.00D+00 WtEn= 0.00D+00
 Coeff-Com: -0.981D-05-0.132D-02-0.494D-02-0.899D-02-0.859D-02 0.158D+00
 Coeff-Com:  0.293D+00 0.573D+00
 Coeff:     -0.981D-05-0.132D-02-0.494D-02-0.899D-02-0.859D-02 0.158D+00
 Coeff:      0.293D+00 0.573D+00
 Gap=     0.264 Goal=   None    Shift=    0.000
 RMSDP=3.01D-09 MaxDP=2.85D-07 DE=-2.48D-11 OVMax= 5.23D-07

 SCF Done:  E(RM06) =  -613.616249847     A.U. after   16 cycles
            NFock= 16  Conv=0.30D-08     -V/T= 2.0046
 KE= 6.107989484782D+02 PE=-3.195630178564D+03 EE= 1.089055505559D+03
 Leave Link  502 at Wed Jun 18 05:01:06 2014, MaxMem=  4294967296 cpu:     28112.0
 (Enter /home/ztw1e12/g09/l801.exe)
 DoSCS=F DFT=T ScalE2(SS,OS)=  1.000000  1.000000
 Range of M.O.s used for correlation:     1   932
 NBasis=  1036 NAE=    51 NBE=    51 NFC=     0 NFV=     0
 NROrb=    932 NOA=    51 NOB=    51 NVA=   881 NVB=   881

 **** Warning!!: The largest alpha MO coefficient is  0.12154666D+02

 Leave Link  801 at Wed Jun 18 05:01:06 2014, MaxMem=  4294967296 cpu:         0.4
 (Enter /home/ztw1e12/g09/l1002.exe)
 Minotr:  Closed shell wavefunction.
          IDoAtm=1111111111111111111111111111111
          Direct CPHF calculation.
          Differentiating once with respect to Fermi-contact.
          Electric field/nuclear overlap derivatives assumed to be zero.
          Requested convergence is 1.0D-10 RMS, and 1.0D-09 maximum.
          Secondary convergence is 1.0D-12 RMS, and 1.0D-12 maximum.
          NewPWx=T KeepS1=F KeepF1=F KeepIn=T MapXYZ=F SortEE=F KeepMc=T.
          MDV=    4294966050 using IRadAn=  199590.
 Using stored XC quadrature information.
          Solving linear equations simultaneously, MaxMat=       0.
          There are    31 degrees of freedom in the 1st order CPHF.  IDoFFX=0 NUNeed=    31.
     31 vectors produced by pass  0 Test12= 1.45D-17 3.23D-11 XBig12= 4.16D+01 2.56D+00.
 AX will form    31 AO Fock derivatives at one time.
 FoFJK:  IHMeth= 1 ICntrl=       0 DoSepK=F KAlg= 0 I1Cent=   0 FoldK=F
 IRaf= 510000000 NMat=  31 IRICut=       1 DoRegI=T DoRafI=F ISym2E=-1.
 FoFCou: FMM=F IPFlag=           0 FMFlag=      100000 FMFlg1=           0
         NFxFlg=           0 DoJE=F BraDBF=F KetDBF=F FulRan=T
         wScrn=  0.000000 ICntrl=       0 IOpCl=  0 I1Cent=           0 NGrid=           0
         NMat0=   31 NMatS0=      0 NMatT0=   31 NMatD0=   31 NMtDS0=    0 NMtDT0=    0
 Petite list used in FoFCou.
     31 vectors produced by pass  1 Test12= 1.45D-17 3.23D-11 XBig12= 3.44D-01 1.76D-01.
     31 vectors produced by pass  2 Test12= 1.45D-17 3.23D-11 XBig12= 1.67D-02 3.74D-02.
     31 vectors produced by pass  3 Test12= 1.45D-17 3.23D-11 XBig12= 3.69D-04 6.36D-03.
     31 vectors produced by pass  4 Test12= 1.45D-17 3.23D-11 XBig12= 6.67D-06 9.88D-04.
     31 vectors produced by pass  5 Test12= 1.45D-17 3.23D-11 XBig12= 1.81D-07 1.83D-04.
     31 vectors produced by pass  6 Test12= 1.45D-17 3.23D-11 XBig12= 5.41D-09 1.90D-05.
     31 vectors produced by pass  7 Test12= 1.45D-17 3.23D-11 XBig12= 1.63D-10 5.06D-06.
     31 vectors produced by pass  8 Test12= 1.45D-17 3.23D-11 XBig12= 3.68D-12 4.56D-07.
     31 vectors produced by pass  9 Test12= 1.45D-17 3.23D-11 XBig12= 7.92D-14 7.83D-08.
     31 vectors produced by pass 10 Test12= 1.45D-17 3.23D-11 XBig12= 3.32D-15 9.63D-09.
     30 vectors produced by pass 11 Test12= 1.45D-17 3.23D-11 XBig12= 3.67D-17 7.94D-10.
      3 vectors produced by pass 12 Test12= 1.45D-17 3.23D-11 XBig12= 3.31D-19 6.57D-11.
 InvSVY:  IOpt=1 It=  1 EMax= 1.07D-14
 Solved reduced A of dimension   374 with    31 vectors.
 Max diff in FC couplings:  IJMax=    11     1 Diff= 7.18D-04 IJMaxR=    18    15 DiffR= 9.08D-01
 Fermi Contact (FC) contribution to K (Hz):
                1             2             3             4             5 
      1  0.123400D+11
      2  0.267661D+02  0.123400D+11
      3 -0.129468D+01  0.187658D+02  0.123400D+11
      4  0.141452D+00  0.167156D+01  0.105802D-01  0.123400D+11
      5  0.150128D-01  0.990923D-01  0.176196D-02  0.168105D+02  0.123400D+11
      6  0.331659D-01  0.119045D-01  0.984739D-02  0.172346D+02 -0.861650D+00
      7  0.118059D-02  0.380213D-01  0.585684D-02  0.176267D+02 -0.852104D+00
      8 -0.956176D+01  0.279432D+01  0.355558D+00  0.110519D+01  0.160742D+00
      9  0.354871D+00  0.196374D+02 -0.862045D+00  0.752159D+00  0.831425D-01
     10 -0.300491D-01  0.250887D+00  0.244384D+00 -0.323489D-03  0.529856D-03
     11  0.273782D+02  0.135221D+02 -0.257684D-02  0.153737D+00  0.229496D-01
     12  0.412042D+00  0.821357D-01 -0.193970D-01 -0.158391D-02 -0.488151D-03
     13 -0.481397D+00  0.975777D+00 -0.630957D-01  0.189819D-01  0.137492D-03
     14  0.216175D+00 -0.887055D-01  0.348501D-01  0.133149D-01  0.658392D-03
     15  0.159026D+00 -0.742433D-01  0.215207D-01  0.112119D-02  0.475639D-03
     16  0.975073D+00 -0.156137D-01  0.681348D-03  0.320599D-02  0.177986D-03
     17  0.179829D-01 -0.504336D+00  0.397684D+00  0.176287D-01  0.695336D-02
     18 -0.152671D+00  0.905749D+00 -0.870904D-01 -0.379290D-02 -0.521407D-03
     19 -0.887597D-03  0.107927D+00 -0.256475D-02 -0.880587D-03 -0.285848D-04
     20  0.529857D-01  0.191309D-01  0.100434D-01  0.148118D-02  0.213474D-03
     21  0.873025D-01  0.443663D-01  0.186376D-01  0.300747D-03  0.205855D-03
     22  0.440533D+00  0.750195D+00  0.147396D+00  0.806137D-01  0.274451D-02
     23  0.791337D+00 -0.558296D+00  0.112325D+01  0.169772D+02 -0.662658D+00
     24 -0.195044D-01  0.280178D+00 -0.222355D-01 -0.843106D+00  0.180588D+00
     25 -0.262066D-01  0.575399D+00 -0.358385D-01 -0.118528D-01  0.265381D+00
     26  0.903288D-02 -0.428128D-02  0.426489D-02  0.451536D+00 -0.812198D-02
     27  0.239112D-02 -0.210537D-02 -0.308591D-03  0.134044D+01  0.577331D-02
     28  0.455387D-02  0.882970D-01  0.218832D-02  0.305220D+00 -0.763763D-02
     29 -0.601090D-01  0.169655D+02 -0.906156D+00 -0.300618D+00  0.121856D+01
     30  0.104592D+01 -0.101001D+01  0.987094D-01  0.239011D+00 -0.176193D-01
     31  0.298863D-01 -0.531574D+00  0.215117D+00  0.277297D+00  0.141534D-02
                6             7             8             9            10 
      6  0.123400D+11
      7 -0.779053D+00  0.123400D+11
      8  0.745081D-01  0.218181D+00  0.123400D+11
      9  0.321314D+00  0.249002D-02  0.489149D+00  0.123400D+11
     10 -0.200211D-01  0.230069D-03 -0.966893D-02  0.313271D+02  0.123400D+11
     11 -0.611729D-03  0.477451D-01  0.643067D+01  0.913184D+00  0.851696D-01
     12  0.666033D-03  0.188962D-03  0.497739D+00  0.381767D-01 -0.164393D-02
     13 -0.747643D-03  0.262790D-01  0.674204D+00  0.290806D+00  0.171318D-02
     14  0.252374D-03  0.653581D-02  0.239946D+00 -0.832356D-02  0.696385D-03
     15  0.122375D-03  0.109424D-02  0.232423D+00 -0.273264D-02  0.189372D-03
     16 -0.166329D-03  0.732639D-03  0.177273D+00  0.325914D-01 -0.525371D-03
     17  0.255025D-01 -0.122404D-02  0.143587D+00  0.266933D+02  0.391727D+00
     18  0.174279D-02  0.698621D-04  0.742984D-01  0.129490D+02  0.108163D+00
     19  0.863146D-03  0.186172D-04 -0.383862D-04  0.345150D+00 -0.111164D-01
     20  0.278045D-03 -0.861178D-05  0.589878D-02  0.365727D+00 -0.654693D-02
     21  0.330332D-03  0.789488D-04  0.267914D-02  0.364380D+00 -0.155205D-01
     22  0.185687D-02 -0.725327D-03  0.837371D+00  0.573042D+01  0.376727D+00
     23 -0.504468D+00 -0.757999D+00  0.455268D-01 -0.374601D-01 -0.277151D-03
     24  0.110942D+00  0.436358D+00  0.210469D-01 -0.846806D-02  0.481988D-02
     25  0.146914D+01  0.563513D+00  0.850920D-02  0.189083D+00  0.265077D-02
     26 -0.100948D-01 -0.222858D-01  0.151602D-02  0.255936D-02  0.714949D-03
     27  0.919416D-01 -0.554247D-02  0.411054D-03  0.811761D-02 -0.447984D-03
     28  0.726243D-02 -0.362577D-02 -0.174580D-02  0.185006D-02  0.208767D-03
     29  0.255802D+00  0.215564D+00  0.419955D+00  0.856399D+00  0.406364D+00
     30 -0.766580D-02 -0.113545D-01  0.802602D-01  0.792505D+00 -0.142520D-01
     31 -0.653552D-02 -0.841822D-02 -0.244847D-01  0.184759D+01 -0.203738D-01
               11            12            13            14            15 
     11  0.123400D+11
     12  0.306889D+02  0.123400D+11
     13  0.166699D+02  0.262691D+00  0.123400D+11
     14 -0.600313D+00  0.304783D-01  0.195147D+02  0.123400D+11
     15 -0.494867D+00  0.205221D+00  0.203726D+02 -0.727771D+00  0.123400D+11
     16 -0.321894D+00  0.279156D+00  0.182816D+02 -0.719565D+00 -0.766804D+00
     17 -0.656945D-01 -0.151694D-02 -0.146410D-01  0.159242D-02  0.173475D-02
     18  0.182036D-01  0.198895D-02  0.144922D-01 -0.183728D-03  0.256924D-04
     19  0.467032D-02 -0.292397D-04 -0.849460D-04 -0.109728D-04 -0.415118D-05
     20 -0.228083D-02 -0.529471D-04 -0.308850D-03  0.452340D-04  0.277090D-05
     21  0.237398D-01  0.130761D-03  0.360361D-02 -0.472466D-04 -0.120296D-03
     22  0.184238D+00 -0.200098D-02  0.136108D-01  0.555914D-03  0.106743D-02
     23  0.178357D-01  0.138187D-01 -0.765307D-02 -0.974707D-04  0.297165D-03
     24  0.378539D-01 -0.879174D-03  0.193482D-02  0.307654D-02  0.114322D-02
     25  0.361476D+00  0.350708D-01 -0.339628D-01 -0.187334D-02  0.682478D-02
     26  0.117118D+00 -0.539625D-02  0.117179D-01  0.629837D-02  0.395283D-02
     27 -0.715398D-02  0.566887D-03  0.124983D-02  0.995876D-03  0.426377D-03
     28  0.277360D-01  0.121811D-02 -0.130092D-02  0.240787D-03  0.974940D-03
     29 -0.460080D-02 -0.483874D-01 -0.671449D-01  0.457029D-01  0.847096D-01
     30 -0.177017D-01 -0.162882D-01 -0.797473D-02  0.326139D-03  0.573842D-02
     31  0.292266D+00 -0.376940D-01  0.106177D-01 -0.123687D-02  0.267008D-02
               16            17            18            19            20 
     16  0.123400D+11
     17  0.234725D-03  0.123400D+11
     18  0.455007D-03  0.273757D+02  0.123400D+11
     19  0.106089D-04 -0.752091D+00  0.169647D+02  0.123400D+11
     20  0.105501D-03 -0.116785D+01  0.179065D+02 -0.717274D+00  0.123400D+11
     21  0.343557D-03 -0.122085D+01  0.180165D+02 -0.744525D+00 -0.922387D+00
     22  0.790208D-03 -0.963034D+01  0.379710D+01  0.823888D+00  0.424731D+00
     23 -0.108426D-02 -0.719281D-01  0.943538D-02 -0.109510D-03 -0.143979D-02
     24  0.629702D-03  0.543762D-02 -0.863475D-03 -0.506660D-04  0.920181D-05
     25  0.284991D-02  0.255381D-01  0.580187D-02  0.665212D-03  0.120063D-02
     26  0.254947D-02  0.161833D-02 -0.558123D-04 -0.147009D-04 -0.618700D-05
     27 -0.116264D-03  0.784512D-03  0.239815D-03  0.112271D-04  0.579894D-04
     28  0.152233D-03  0.211852D-02 -0.849313D-04  0.217619D-04  0.177925D-03
     29  0.375268D-02  0.128665D+01 -0.345662D-01 -0.289634D-02  0.233629D-01
     30  0.124373D-02  0.406543D-02  0.152919D-01  0.138208D-03  0.109608D-03
     31  0.778868D-03  0.970405D-01  0.616480D-01 -0.172582D-03  0.322950D-02
               21            22            23            24            25 
     21  0.123400D+11
     22  0.449033D+00  0.123400D+11
     23 -0.272864D-03  0.111589D+00  0.123400D+11
     24  0.280059D-04  0.154982D-02  0.172263D+02  0.123400D+11
     25 -0.286474D-03  0.597859D-03  0.172101D+02 -0.770640D+00  0.123400D+11
     26 -0.256002D-05 -0.973541D-04 -0.742182D+00  0.401764D+00  0.170001D+02
     27 -0.354600D-04  0.274799D-03 -0.597251D+00  0.159281D+00  0.174294D+02
     28 -0.918339D-04  0.450263D-02 -0.525442D+00  0.120402D+00  0.175074D+02
     29 -0.614993D-02  0.143935D+00  0.172667D+02 -0.709669D+00  0.180705D+00
     30 -0.989313D-03 -0.412036D-02 -0.539521D+00  0.402001D+00  0.332979D+00
     31 -0.187353D-02  0.753875D-02 -0.674970D+00  0.797687D-01  0.122425D+01
               26            27            28            29            30 
     26  0.123400D+11
     27 -0.747258D+00  0.123400D+11
     28 -0.765606D+00 -0.769965D+00  0.123400D+11
     29  0.415205D+00  0.381039D+00  0.146850D+01  0.123400D+11
     30 -0.996042D-02 -0.619687D-02 -0.275874D-02  0.175920D+02  0.123400D+11
     31 -0.216036D-01 -0.106102D-01  0.355263D-01  0.166813D+02 -0.974464D+00
               31 
     31  0.123400D+11
 Fermi Contact (FC) contribution to J (Hz):
                1             2             3             4             5 
      1  0.243533D+11
      2  0.528236D+02  0.243533D+11
      3 -0.101592D+02  0.147253D+03  0.385007D+12
      4  0.279159D+00  0.329887D+01  0.830222D-01  0.243533D+11
      5  0.117804D+00  0.777568D+00  0.549729D-01  0.131910D+03  0.385007D+12
      6  0.260249D+00  0.934136D-01  0.307238D+00  0.135238D+03 -0.268834D+02
      7  0.926399D-02  0.298350D+00  0.182733D+00  0.138315D+03 -0.265856D+02
      8  0.101754D+02 -0.297366D+01 -0.150446D+01 -0.117613D+01 -0.680144D+00
      9  0.201287D+00  0.111386D+02 -0.194416D+01  0.426634D+00  0.187510D+00
     10 -0.235792D+00  0.196868D+01  0.762476D+01 -0.253839D-02  0.165315D-01
     11  0.155293D+02  0.766988D+01 -0.581151D-02  0.872016D-01  0.517578D-01
     12  0.323326D+01  0.644511D+00 -0.605187D+00 -0.124288D-01 -0.152303D-01
     13 -0.950049D+00  0.192572D+01 -0.495106D+00  0.374613D-01  0.107889D-02
     14  0.169630D+01 -0.696064D+00  0.108732D+01  0.104481D+00  0.205418D-01
     15  0.124786D+01 -0.582580D+00  0.671444D+00  0.879790D-02  0.148399D-01
     16  0.765130D+01 -0.122519D+00  0.212580D-01  0.251571D-01  0.555316D-02
     17  0.354898D-01 -0.995319D+00  0.312059D+01  0.347906D-01  0.545624D-01
     18 -0.301300D+00  0.178752D+01 -0.683390D+00 -0.748538D-02 -0.409143D-02
     19 -0.696489D-02  0.846890D+00 -0.800200D-01 -0.690988D-02 -0.891845D-03
     20  0.415773D+00  0.150118D+00  0.313354D+00  0.116227D-01  0.666037D-02
     21  0.685054D+00  0.348138D+00  0.581493D+00  0.235994D-02  0.642266D-02
     22 -0.468807D+00 -0.798343D+00 -0.623672D+00 -0.857876D-01 -0.116128D-01
     23  0.156172D+01 -0.110181D+01  0.881404D+01  0.335050D+02 -0.519981D+01
     24 -0.153049D+00  0.219853D+01 -0.693746D+00 -0.661577D+01  0.563435D+01
     25 -0.517194D-01  0.113556D+01 -0.281221D+00 -0.233918D-01  0.208242D+01
     26  0.708802D-01 -0.335948D-01  0.133064D+00  0.354316D+01 -0.253405D+00
     27  0.187629D-01 -0.165206D-01 -0.962803D-02  0.105183D+02  0.180127D+00
     28  0.357338D-01  0.692858D+00  0.682756D-01  0.239503D+01 -0.238294D+00
     29 -0.118627D+00  0.334819D+02 -0.711052D+01 -0.593277D+00  0.956190D+01
     30  0.820721D+01 -0.792548D+01  0.307973D+01  0.187550D+01 -0.549721D+00
     31  0.234515D+00 -0.417121D+01  0.671165D+01  0.217592D+01  0.441585D-01
                6             7             8             9            10 
      6  0.385007D+12
      7 -0.243064D+02  0.385007D+12
      8 -0.315264D+00 -0.923182D+00  0.708114D+10
      9  0.724655D+00  0.561570D-02 -0.149610D+00  0.201170D+10
     10 -0.624656D+00  0.717814D-02  0.409119D-01  0.706515D+02  0.385007D+12
     11 -0.137962D-02  0.107679D+00 -0.196687D+01  0.148870D+00  0.192082D+00
     12  0.207802D-01  0.589560D-02 -0.210607D+01  0.860992D-01 -0.512905D-01
     13 -0.586668D-02  0.206209D+00 -0.717475D+00  0.164949D+00  0.134431D-01
     14  0.787407D-02  0.203917D+00 -0.101528D+01 -0.187720D-01  0.217272D-01
     15  0.381808D-02  0.341401D-01 -0.983445D+00 -0.616288D-02  0.590840D-02
     16 -0.518944D-02  0.228583D-01 -0.750089D+00  0.735029D-01 -0.163915D-01
     17  0.200115D+00 -0.960493D-02 -0.152802D+00  0.151408D+02  0.307384D+01
     18  0.136755D-01  0.548201D-03 -0.790669D-01  0.734482D+01  0.848743D+00
     19  0.269301D-01  0.580855D-03  0.162423D-03  0.778412D+00 -0.346832D+00
     20  0.867499D-02 -0.268687D-03 -0.249594D-01  0.824818D+00 -0.204264D+00
     21  0.103063D-01  0.246320D-02 -0.113362D-01  0.821780D+00 -0.484239D+00
     22 -0.785691D-02  0.306906D-02  0.480514D+00 -0.175269D+01 -0.159403D+01
     23 -0.395851D+01 -0.594794D+01 -0.484488D-01 -0.212478D-01 -0.217478D-02
     24  0.346137D+01  0.136144D+02 -0.890553D-01 -0.190979D-01  0.150380D+00
     25  0.115282D+02  0.442183D+01 -0.905533D-02  0.107250D+00  0.208003D-01
     26 -0.314958D+00 -0.695316D+00 -0.641471D-02  0.577208D-02  0.223064D-01
     27  0.286857D+01 -0.172925D+00 -0.173928D-02  0.183075D-01 -0.139771D-01
     28  0.226588D+00 -0.113124D+00  0.738696D-02  0.417242D-02  0.651352D-02
     29  0.200725D+01  0.169151D+01 -0.446908D+00  0.485760D+00  0.318870D+01
     30 -0.239173D+00 -0.354261D+00 -0.339603D+00  0.178732D+01 -0.444662D+00
     31 -0.203908D+00 -0.262648D+00  0.103601D+00  0.416684D+01 -0.635663D+00
               11            12            13            14            15 
     11  0.201170D+10
     12  0.692123D+02  0.385007D+12
     13  0.945535D+01  0.206131D+01  0.243533D+11
     14 -0.135388D+01  0.950921D+00  0.153130D+03  0.385007D+12
     15 -0.111607D+01  0.640287D+01  0.159861D+03 -0.227064D+02  0.385007D+12
     16 -0.725962D+00  0.870965D+01  0.143454D+03 -0.224504D+02 -0.239243D+02
     17 -0.372627D-01 -0.119033D-01 -0.288943D-01  0.124955D-01  0.136124D-01
     18  0.103253D-01  0.156071D-01  0.286006D-01 -0.144170D-02  0.201606D-03
     19  0.105329D-01 -0.912278D-03 -0.666563D-03 -0.342350D-03 -0.129516D-03
     20 -0.514392D-02 -0.165195D-02 -0.242352D-02  0.141130D-02  0.864519D-04
     21  0.535399D-01  0.407974D-02  0.282772D-01 -0.147409D-02 -0.375322D-02
     22 -0.563505D-01  0.846671D-02 -0.144843D-01 -0.235222D-02 -0.451658D-02
     23  0.101166D-01  0.108434D+00 -0.151035D-01 -0.764843D-03  0.233182D-02
     24  0.853714D-01 -0.274302D-01  0.151823D-01  0.959879D-01  0.356684D-01
     25  0.205034D+00  0.275197D+00 -0.670265D-01 -0.146999D-01  0.535534D-01
     26  0.264135D+00 -0.168363D+00  0.919491D-01  0.196509D+00  0.123328D+00
     27 -0.161343D-01  0.176868D-01  0.980726D-02  0.310713D-01  0.133030D-01
     28  0.625526D-01  0.380050D-01 -0.102082D-01  0.751254D-02  0.304181D-01
     29 -0.260963D-02 -0.379692D+00 -0.132512D+00  0.358626D+00  0.664708D+00
     30 -0.399223D-01 -0.508190D+00 -0.625769D-01  0.101755D-01  0.179038D+00
     31  0.659142D+00 -0.117605D+01  0.833158D-01 -0.385902D-01  0.833065D-01
               16            17            18            19            20 
     16  0.385007D+12
     17  0.184186D-02  0.243533D+11
     18  0.357040D-02  0.540265D+02  0.243533D+11
     19  0.330997D-03 -0.590159D+01  0.133120D+03  0.385007D+12
     20  0.329163D-02 -0.916398D+01  0.140510D+03 -0.223789D+02  0.385007D+12
     21  0.107190D-01 -0.957990D+01  0.141374D+03 -0.232291D+02 -0.287784D+02
     22 -0.334359D-02  0.102484D+02 -0.404080D+01 -0.348609D+01 -0.179715D+01
     23 -0.850812D-02 -0.141952D+00  0.186210D-01 -0.859314D-03 -0.112979D-01
     24  0.196467D-01  0.426685D-01 -0.677560D-02 -0.158078D-02  0.287096D-03
     25  0.223630D-01  0.504001D-01  0.114501D-01  0.521985D-02  0.942124D-02
     26  0.795435D-01  0.126989D-01 -0.437954D-03 -0.458666D-03 -0.193034D-03
     27 -0.362742D-02  0.615599D-02  0.188180D-02  0.350284D-03  0.180927D-02
     28  0.474965D-02  0.166238D-01 -0.666447D-03  0.678972D-03  0.555126D-02
     29  0.294469D-01  0.253924D+01 -0.682174D-01 -0.227273D-01  0.183326D+00
     30  0.388045D-01  0.319010D-01  0.119994D+00  0.431209D-02  0.341978D-02
     31  0.243006D-01  0.761468D+00  0.483746D+00 -0.538456D-02  0.100760D+00
               21            22            23            24            25 
     21  0.385007D+12
     22 -0.189998D+01  0.708114D+10
     23 -0.214113D-02 -0.118751D+00  0.243533D+11
     24  0.873783D-03 -0.655772D-02  0.135173D+03  0.385007D+12
     25 -0.224793D-02 -0.636230D-03  0.339645D+02 -0.604714D+01  0.243533D+11
     26 -0.798725D-04  0.411932D-03 -0.582383D+01  0.125350D+02  0.133398D+03
     27 -0.110635D-02 -0.116275D-02 -0.468657D+01  0.496955D+01  0.136767D+03
     28 -0.286521D-02 -0.190519D-01 -0.412309D+01  0.375654D+01  0.137379D+03
     29 -0.482579D-01 -0.153173D+00  0.340762D+02 -0.556870D+01  0.356626D+00
     30 -0.308665D-01  0.174344D-01 -0.423357D+01  0.125424D+02  0.261286D+01
     31 -0.584540D-01 -0.318985D-01 -0.529642D+01  0.248878D+01  0.960659D+01
               26            27            28            29            30 
     26  0.385007D+12
     27 -0.233144D+02  0.385007D+12
     28 -0.238869D+02 -0.240229D+02  0.385007D+12
     29  0.325807D+01  0.298997D+01  0.115231D+02  0.243533D+11
     30 -0.310765D+00 -0.193342D+00 -0.860727D-01  0.138043D+03  0.385007D+12
     31 -0.674032D+00 -0.331036D+00  0.110842D+01  0.130896D+03 -0.304032D+02
               31 
     31  0.385007D+12
 End of Minotr F.D. properties file   721 does not exist.
 End of Minotr F.D. properties file   722 does not exist.
 End of Minotr F.D. properties file   788 does not exist.
 Leave Link 1002 at Wed Jun 18 11:52:01 2014, MaxMem=  4294967296 cpu:    393516.8
 (Enter /home/ztw1e12/g09/l601.exe)
 Copying SCF densities to generalized density rwf, IOpCl= 0 IROHF=0.

 **********************************************************************

            Population analysis using the SCF density.

 **********************************************************************

 Orbital symmetries:
       Occupied  (A) (A) (A) (A) (A) (A) (A) (A) (A) (A) (A) (A)
                 (A) (A) (A) (A) (A) (A) (A) (A) (A) (A) (A) (A)
                 (A) (A) (A) (A) (A) (A) (A) (A) (A) (A) (A) (A)
                 (A) (A) (A) (A) (A) (A) (A) (A) (A) (A) (A) (A)
                 (A) (A) (A)
       Virtual   (A) (A) (A) (A) (A) (A) (A) (A) (A) (A) (A) (A)
                 (A) (A) (A) (A) (A) (A) (A) (A) (A) (A) (A) (A)
                 (A) (A) (A) (A) (A) (A) (A) (A) (A) (A) (A) (A)
                 (A) (A) (A) (A) (A) (A) (A) (A) (A) (A) (A) (A)
                 (A) (A) (A) (A) (A) (A) (A) (A) (A) (A) (A) (A)
                 (A) (A) (A) (A) (A) (A) (A) (A) (A) (A) (A) (A)
                 (A) (A) (A) (A) (A) (A) (A) (A) (A) (A) (A) (A)
                 (A) (A) (A) (A) (A) (A) (A) (A) (A) (A) (A) (A)
                 (A) (A) (A) (A) (A) (A) (A) (A) (A) (A) (A) (A)
                 (A) (A) (A) (A) (A) (A) (A) (A) (A) (A) (A) (A)
                 (A) (A) (A) (A) (A) (A) (A) (A) (A) (A) (A) (A)
                 (A) (A) (A) (A) (A) (A) (A) (A) (A) (A) (A) (A)
                 (A) (A) (A) (A) (A) (A) (A) (A) (A) (A) (A) (A)
                 (A) (A) (A) (A) (A) (A) (A) (A) (A) (A) (A) (A)
                 (A) (A) (A) (A) (A) (A) (A) (A) (A) (A) (A) (A)
                 (A) (A) (A) (A) (A) (A) (A) (A) (A) (A) (A) (A)
                 (A) (A) (A) (A) (A) (A) (A) (A) (A) (A) (A) (A)
                 (A) (A) (A) (A) (A) (A) (A) (A) (A) (A) (A) (A)
                 (A) (A) (A) (A) (A) (A) (A) (A) (A) (A) (A) (A)
                 (A) (A) (A) (A) (A) (A) (A) (A) (A) (A) (A) (A)
                 (A) (A) (A) (A) (A) (A) (A) (A) (A) (A) (A) (A)
                 (A) (A) (A) (A) (A) (A) (A) (A) (A) (A) (A) (A)
                 (A) (A) (A) (A) (A) (A) (A) (A) (A) (A) (A) (A)
                 (A) (A) (A) (A) (A) (A) (A) (A) (A) (A) (A) (A)
                 (A) (A) (A) (A) (A) (A) (A) (A) (A) (A) (A) (A)
                 (A) (A) (A) (A) (A) (A) (A) (A) (A) (A) (A) (A)
                 (A) (A) (A) (A) (A) (A) (A) (A) (A) (A) (A) (A)
                 (A) (A) (A) (A) (A) (A) (A) (A) (A) (A) (A) (A)
                 (A) (A) (A) (A) (A) (A) (A) (A) (A) (A) (A) (A)
                 (A) (A) (A) (A) (A) (A) (A) (A) (A) (A) (A) (A)
                 (A) (A) (A) (A) (A) (A) (A) (A) (A) (A) (A) (A)
                 (A) (A) (A) (A) (A) (A) (A) (A) (A) (A) (A) (A)
                 (A) (A) (A) (A) (A) (A) (A) (A) (A) (A) (A) (A)
                 (A) (A) (A) (A) (A) (A) (A) (A) (A) (A) (A) (A)
                 (A) (A) (A) (A) (A) (A) (A) (A) (A) (A) (A) (A)
                 (A) (A) (A) (A) (A) (A) (A) (A) (A) (A) (A) (A)
                 (A) (A) (A) (A) (A) (A) (A) (A) (A) (A) (A) (A)
                 (A) (A) (A) (A) (A) (A) (A) (A) (A) (A) (A) (A)
                 (A) (A) (A) (A) (A) (A) (A) (A) (A) (A) (A) (A)
                 (A) (A) (A) (A) (A) (A) (A) (A) (A) (A) (A) (A)
                 (A) (A) (A) (A) (A) (A) (A) (A) (A) (A) (A) (A)
                 (A) (A) (A) (A) (A) (A) (A) (A) (A) (A) (A) (A)
                 (A) (A) (A) (A) (A) (A) (A) (A) (A) (A) (A) (A)
                 (A) (A) (A) (A) (A) (A) (A) (A) (A) (A) (A) (A)
                 (A) (A) (A) (A) (A) (A) (A) (A) (A) (A) (A) (A)
                 (A) (A) (A) (A) (A) (A) (A) (A) (A) (A) (A) (A)
                 (A) (A) (A) (A) (A) (A) (A) (A) (A) (A) (A) (A)
                 (A) (A) (A) (A) (A) (A) (A) (A) (A) (A) (A) (A)
                 (A) (A) (A) (A) (A) (A) (A) (A) (A) (A) (A) (A)
                 (A) (A) (A) (A) (A) (A) (A) (A) (A) (A) (A) (A)
                 (A) (A) (A) (A) (A) (A) (A) (A) (A) (A) (A) (A)
                 (A) (A) (A) (A) (A) (A) (A) (A) (A) (A) (A) (A)
                 (A) (A) (A) (A) (A) (A) (A) (A) (A) (A) (A) (A)
                 (A) (A) (A) (A) (A) (A) (A) (A) (A) (A) (A) (A)
                 (A) (A) (A) (A) (A) (A) (A) (A) (A) (A) (A) (A)
                 (A) (A) (A) (A) (A) (A) (A) (A) (A) (A) (A) (A)
                 (A) (A) (A) (A) (A) (A) (A) (A) (A) (A) (A) (A)
                 (A) (A) (A) (A) (A) (A) (A) (A) (A) (A) (A) (A)
                 (A) (A) (A) (A) (A) (A) (A) (A) (A) (A) (A) (A)
                 (A) (A) (A) (A) (A) (A) (A) (A) (A) (A) (A) (A)
                 (A) (A) (A) (A) (A) (A) (A) (A) (A) (A) (A) (A)
                 (A) (A) (A) (A) (A) (A) (A) (A) (A) (A) (A) (A)
                 (A) (A) (A) (A) (A) (A) (A) (A) (A) (A) (A) (A)
                 (A) (A) (A) (A) (A) (A) (A) (A) (A) (A) (A) (A)
                 (A) (A) (A) (A) (A) (A) (A) (A) (A) (A) (A) (A)
                 (A) (A) (A) (A) (A) (A) (A) (A) (A) (A) (A) (A)
                 (A) (A) (A) (A) (A) (A) (A) (A) (A) (A) (A) (A)
                 (A) (A) (A) (A) (A) (A) (A) (A) (A) (A) (A) (A)
                 (A) (A) (A) (A) (A) (A) (A) (A) (A) (A) (A) (A)
                 (A) (A) (A) (A) (A) (A) (A) (A) (A) (A) (A) (A)
                 (A) (A) (A) (A) (A) (A) (A) (A) (A) (A) (A) (A)
                 (A) (A) (A) (A) (A) (A) (A) (A) (A) (A) (A) (A)
                 (A) (A) (A) (A) (A) (A) (A) (A) (A) (A) (A) (A)
                 (A) (A) (A) (A) (A)
 The electronic state is 1-A.
 Alpha  occ. eigenvalues --  -19.17214 -19.16010 -14.41943 -14.41264 -10.33527
 Alpha  occ. eigenvalues --  -10.33056 -10.29195 -10.27371 -10.25989 -10.25965
 Alpha  occ. eigenvalues --  -10.24077 -10.23545 -10.23519  -1.05400  -1.03776
 Alpha  occ. eigenvalues --   -0.94467  -0.94096  -0.83995  -0.78666  -0.74204
 Alpha  occ. eigenvalues --   -0.72178  -0.70712  -0.66747  -0.60647  -0.59834
 Alpha  occ. eigenvalues --   -0.58509  -0.55120  -0.50594  -0.49262  -0.48570
 Alpha  occ. eigenvalues --   -0.47371  -0.46353  -0.45316  -0.45098  -0.44877
 Alpha  occ. eigenvalues --   -0.42731  -0.41632  -0.41452  -0.40637  -0.40263
 Alpha  occ. eigenvalues --   -0.39927  -0.38688  -0.38085  -0.36514  -0.35539
 Alpha  occ. eigenvalues --   -0.34905  -0.33376  -0.28188  -0.27700  -0.26147
 Alpha  occ. eigenvalues --   -0.25521
 Alpha virt. eigenvalues --    0.00902   0.02259   0.02533   0.03777   0.04110
 Alpha virt. eigenvalues --    0.04653   0.06673   0.07050   0.07632   0.07691
 Alpha virt. eigenvalues --    0.09223   0.09946   0.10614   0.11260   0.11939
 Alpha virt. eigenvalues --    0.12331   0.12823   0.13220   0.14579   0.15323
 Alpha virt. eigenvalues --    0.16706   0.17269   0.18354   0.19166   0.19599
 Alpha virt. eigenvalues --    0.20995   0.22410   0.23396   0.23922   0.24232
 Alpha virt. eigenvalues --    0.25334   0.26375   0.26573   0.27215   0.27997
 Alpha virt. eigenvalues --    0.28443   0.28832   0.29617   0.30816   0.31943
 Alpha virt. eigenvalues --    0.33166   0.33438   0.34034   0.34369   0.36782
 Alpha virt. eigenvalues --    0.37012   0.37309   0.38193   0.38656   0.39045
 Alpha virt. eigenvalues --    0.39310   0.39902   0.40255   0.41140   0.41204
 Alpha virt. eigenvalues --    0.41670   0.42368   0.42520   0.43201   0.43430
 Alpha virt. eigenvalues --    0.43670   0.44069   0.44523   0.45090   0.45735
 Alpha virt. eigenvalues --    0.46174   0.46932   0.47826   0.48763   0.48794
 Alpha virt. eigenvalues --    0.49122   0.50061   0.51265   0.51562   0.52539
 Alpha virt. eigenvalues --    0.53435   0.54410   0.54816   0.55676   0.56584
 Alpha virt. eigenvalues --    0.56913   0.58298   0.59257   0.60137   0.61400
 Alpha virt. eigenvalues --    0.62711   0.63130   0.64643   0.65404   0.68639
 Alpha virt. eigenvalues --    0.70284   0.70746   0.70995   0.72687   0.73422
 Alpha virt. eigenvalues --    0.74061   0.75283   0.76083   0.77057   0.77638
 Alpha virt. eigenvalues --    0.79265   0.79842   0.81439   0.82537   0.83340
 Alpha virt. eigenvalues --    0.84289   0.84524   0.85900   0.86453   0.86992
 Alpha virt. eigenvalues --    0.88705   0.89504   0.89552   0.90819   0.91893
 Alpha virt. eigenvalues --    0.92881   0.93732   0.94308   0.94920   0.96280
 Alpha virt. eigenvalues --    0.96607   0.96729   0.97739   0.98036   0.98393
 Alpha virt. eigenvalues --    0.98880   0.99420   1.00264   1.01725   1.01962
 Alpha virt. eigenvalues --    1.02757   1.03257   1.05000   1.05438   1.05905
 Alpha virt. eigenvalues --    1.06771   1.07331   1.08323   1.09923   1.10752
 Alpha virt. eigenvalues --    1.11541   1.12080   1.12255   1.13117   1.15134
 Alpha virt. eigenvalues --    1.15379   1.15981   1.16419   1.17159   1.17858
 Alpha virt. eigenvalues --    1.18586   1.19219   1.19502   1.20741   1.21211
 Alpha virt. eigenvalues --    1.21782   1.21949   1.22690   1.23247   1.23564
 Alpha virt. eigenvalues --    1.24499   1.25217   1.25953   1.26375   1.27265
 Alpha virt. eigenvalues --    1.27291   1.27637   1.28623   1.29001   1.29818
 Alpha virt. eigenvalues --    1.30307   1.31058   1.31818   1.32323   1.33121
 Alpha virt. eigenvalues --    1.34146   1.34401   1.35672   1.36124   1.37096
 Alpha virt. eigenvalues --    1.38457   1.39001   1.39911   1.40410   1.42119
 Alpha virt. eigenvalues --    1.43731   1.45837   1.45948   1.47739   1.48797
 Alpha virt. eigenvalues --    1.50544   1.51191   1.52662   1.54249   1.56773
 Alpha virt. eigenvalues --    1.58195   1.58528   1.61179   1.62958   1.64584
 Alpha virt. eigenvalues --    1.65546   1.68335   1.69356   1.70981   1.72500
 Alpha virt. eigenvalues --    1.74019   1.75935   1.76574   1.80216   1.82654
 Alpha virt. eigenvalues --    1.85008   1.87825   1.89476   1.90303   1.91521
 Alpha virt. eigenvalues --    1.96043   1.97073   1.98254   1.98994   2.00887
 Alpha virt. eigenvalues --    2.01957   2.02610   2.04947   2.05512   2.06042
 Alpha virt. eigenvalues --    2.07918   2.10568   2.11415   2.13313   2.15509
 Alpha virt. eigenvalues --    2.18007   2.18473   2.19465   2.20139   2.21824
 Alpha virt. eigenvalues --    2.23569   2.24059   2.26866   2.28308   2.29665
 Alpha virt. eigenvalues --    2.31114   2.32280   2.34905   2.37525   2.38670
 Alpha virt. eigenvalues --    2.39682   2.40589   2.41661   2.42511   2.43086
 Alpha virt. eigenvalues --    2.44715   2.45073   2.47283   2.48334   2.49278
 Alpha virt. eigenvalues --    2.50090   2.52164   2.52951   2.54352   2.54843
 Alpha virt. eigenvalues --    2.55664   2.57733   2.58469   2.61251   2.62448
 Alpha virt. eigenvalues --    2.64909   2.66672   2.67192   2.69277   2.69551
 Alpha virt. eigenvalues --    2.70686   2.70827   2.71613   2.72354   2.73793
 Alpha virt. eigenvalues --    2.74781   2.75677   2.76493   2.77302   2.79052
 Alpha virt. eigenvalues --    2.79747   2.80292   2.81311   2.82193   2.82963
 Alpha virt. eigenvalues --    2.84037   2.84901   2.85167   2.85779   2.87438
 Alpha virt. eigenvalues --    2.88132   2.88436   2.88692   2.89902   2.91174
 Alpha virt. eigenvalues --    2.91580   2.93204   2.93543   2.94049   2.94745
 Alpha virt. eigenvalues --    2.95729   2.96749   2.97566   2.98399   2.98796
 Alpha virt. eigenvalues --    2.99720   3.00206   3.00600   3.01542   3.02729
 Alpha virt. eigenvalues --    3.03852   3.04912   3.05313   3.06602   3.07461
 Alpha virt. eigenvalues --    3.07640   3.08485   3.08727   3.09817   3.10176
 Alpha virt. eigenvalues --    3.12178   3.12385   3.12669   3.13860   3.14227
 Alpha virt. eigenvalues --    3.15888   3.16262   3.17305   3.18228   3.19493
 Alpha virt. eigenvalues --    3.20559   3.21333   3.21940   3.22484   3.23281
 Alpha virt. eigenvalues --    3.24470   3.25104   3.27017   3.27660   3.28046
 Alpha virt. eigenvalues --    3.29090   3.29446   3.30815   3.30981   3.32562
 Alpha virt. eigenvalues --    3.32956   3.33737   3.34274   3.34773   3.35060
 Alpha virt. eigenvalues --    3.36434   3.37512   3.37666   3.38939   3.40292
 Alpha virt. eigenvalues --    3.40725   3.41829   3.42369   3.43262   3.43826
 Alpha virt. eigenvalues --    3.44251   3.44512   3.46302   3.46788   3.48024
 Alpha virt. eigenvalues --    3.49123   3.50283   3.51816   3.52536   3.53218
 Alpha virt. eigenvalues --    3.55165   3.55627   3.57050   3.59713   3.60485
 Alpha virt. eigenvalues --    3.61257   3.62308   3.63025   3.63248   3.65160
 Alpha virt. eigenvalues --    3.66013   3.67236   3.67789   3.70778   3.70985
 Alpha virt. eigenvalues --    3.71767   3.71863   3.73198   3.74389   3.76713
 Alpha virt. eigenvalues --    3.76791   3.77982   3.78965   3.79389   3.80124
 Alpha virt. eigenvalues --    3.81279   3.82702   3.83044   3.85719   3.86085
 Alpha virt. eigenvalues --    3.86522   3.87874   3.87945   3.89088   3.90413
 Alpha virt. eigenvalues --    3.90718   3.91833   3.92258   3.93385   3.94425
 Alpha virt. eigenvalues --    3.95128   3.97137   3.97921   3.98657   4.00255
 Alpha virt. eigenvalues --    4.01349   4.02150   4.03303   4.04754   4.05411
 Alpha virt. eigenvalues --    4.06626   4.06722   4.06973   4.08018   4.10448
 Alpha virt. eigenvalues --    4.10591   4.13044   4.13509   4.13786   4.15520
 Alpha virt. eigenvalues --    4.15859   4.17200   4.17355   4.19312   4.20164
 Alpha virt. eigenvalues --    4.21041   4.21988   4.23037   4.23900   4.25470
 Alpha virt. eigenvalues --    4.25538   4.27155   4.27591   4.28367   4.29645
 Alpha virt. eigenvalues --    4.29995   4.31506   4.33322   4.34214   4.35880
 Alpha virt. eigenvalues --    4.36807   4.39151   4.39968   4.40447   4.42585
 Alpha virt. eigenvalues --    4.43240   4.44431   4.46638   4.47983   4.49578
 Alpha virt. eigenvalues --    4.51714   4.52146   4.53394   4.55078   4.55709
 Alpha virt. eigenvalues --    4.56589   4.58679   4.58938   4.60283   4.61011
 Alpha virt. eigenvalues --    4.61352   4.62118   4.62461   4.63536   4.64915
 Alpha virt. eigenvalues --    4.66962   4.68213   4.69709   4.70899   4.72125
 Alpha virt. eigenvalues --    4.72503   4.74207   4.74762   4.76484   4.76733
 Alpha virt. eigenvalues --    4.77497   4.80626   4.81133   4.81855   4.83717
 Alpha virt. eigenvalues --    4.85302   4.86961   4.89646   4.91462   4.91867
 Alpha virt. eigenvalues --    4.92498   4.93877   4.94165   4.94941   4.95735
 Alpha virt. eigenvalues --    4.97130   4.98391   4.99492   5.00495   5.02565
 Alpha virt. eigenvalues --    5.02644   5.03564   5.06471   5.08401   5.10302
 Alpha virt. eigenvalues --    5.11163   5.12953   5.13480   5.14048   5.15391
 Alpha virt. eigenvalues --    5.16721   5.17777   5.18071   5.20179   5.20714
 Alpha virt. eigenvalues --    5.21110   5.22705   5.24115   5.24921   5.25499
 Alpha virt. eigenvalues --    5.26363   5.27758   5.29777   5.30805   5.31502
 Alpha virt. eigenvalues --    5.32471   5.32964   5.37272   5.38380   5.38485
 Alpha virt. eigenvalues --    5.41460   5.43080   5.45006   5.47116   5.49767
 Alpha virt. eigenvalues --    5.52296   5.53011   5.55569   5.57258   5.58353
 Alpha virt. eigenvalues --    5.60919   5.62958   5.64032   5.66314   5.67792
 Alpha virt. eigenvalues --    5.68705   5.68977   5.69656   5.71727   5.72795
 Alpha virt. eigenvalues --    5.73661   5.75456   5.77005   5.77371   5.78965
 Alpha virt. eigenvalues --    5.79893   5.82115   5.83152   5.83747   5.89968
 Alpha virt. eigenvalues --    5.91086   5.94838   5.97577   6.02576   6.04196
 Alpha virt. eigenvalues --    6.11752   6.18728   6.19734   6.25843   6.28242
 Alpha virt. eigenvalues --    6.51083   6.52462   6.58174   6.61128   6.64885
 Alpha virt. eigenvalues --    6.66119   6.77691   6.83507   6.90470   6.92283
 Alpha virt. eigenvalues --    6.93434   6.95962   7.18615   7.19621   7.23119
 Alpha virt. eigenvalues --    7.28481   8.13955   8.29298   8.68177   8.73478
 Alpha virt. eigenvalues --    8.77685   8.78720   8.79599   8.82532   8.83536
 Alpha virt. eigenvalues --    8.84830   8.86653   8.88208   8.89123   8.91046
 Alpha virt. eigenvalues --    8.93134   8.93650   8.96868   8.97157   9.01825
 Alpha virt. eigenvalues --    9.02742   9.07419   9.14262   9.17346   9.19407
 Alpha virt. eigenvalues --    9.23138   9.60473   9.63068   9.77619   9.83459
 Alpha virt. eigenvalues --    9.90742   9.95098  10.06930  10.12495  10.15182
 Alpha virt. eigenvalues --   10.18087  10.20022  10.22068  10.22168  10.24151
 Alpha virt. eigenvalues --   10.27958  10.28958  10.30792  10.33014  10.35009
 Alpha virt. eigenvalues --   10.38991  11.77771  11.83477  12.04268  12.14387
 Alpha virt. eigenvalues --   12.16995  12.19491  12.24860  12.27661  12.30023
 Alpha virt. eigenvalues --   12.40004  12.48764  12.58455  12.60488  12.83863
 Alpha virt. eigenvalues --   12.93933  14.97243  15.02317  15.24435  15.28148
 Alpha virt. eigenvalues --   15.99864  16.05227  16.83025  16.92010  22.01428
 Alpha virt. eigenvalues --   22.08891  40.17704  40.26976  40.65693  40.66978
 Alpha virt. eigenvalues --   40.69938  40.70196  40.72261  40.74764  40.76393
 Alpha virt. eigenvalues --   40.77838  40.79232  40.81118  40.81530  40.81977
 Alpha virt. eigenvalues --   40.82302  40.83447  40.84429  40.84906  40.85353
 Alpha virt. eigenvalues --   40.87199  40.88091  40.88870  40.89784  40.90778
 Alpha virt. eigenvalues --   40.91654  40.93478  40.96857  46.34348  46.45857
 Alpha virt. eigenvalues --   46.48413  46.51997  46.57284  46.59207  46.62399
 Alpha virt. eigenvalues --   46.73059  46.82381  54.50182  54.51115  55.77089
 Alpha virt. eigenvalues --   55.85542  55.98085  56.02250  56.05779  56.13287
 Alpha virt. eigenvalues --   56.19169  56.23058  56.28693  56.30841  56.33139
 Alpha virt. eigenvalues --   56.40017  56.45756  56.50014  56.58197  56.62188
 Alpha virt. eigenvalues --   57.48159  57.51348  57.99968  58.02866  58.19522
 Alpha virt. eigenvalues --   58.26165  64.70055  64.78449  73.94469  73.97146
 Alpha virt. eigenvalues --   74.10151  74.12008  74.64174  74.66934  86.07276
 Alpha virt. eigenvalues --   86.13810 165.43617 165.54054 165.57061 165.60509
 Alpha virt. eigenvalues --  165.64889 165.66469 165.69067 165.78319 165.87014
 Alpha virt. eigenvalues --  226.72814 226.78237 230.57334 230.64965 235.39231
 Alpha virt. eigenvalues --  235.85213 236.25721 236.33113 236.46751 236.54631
 Alpha virt. eigenvalues --  237.24218 237.44832 237.46725 237.53077 237.63747
 Alpha virt. eigenvalues --  237.70170 237.83493 238.28558 238.37340 238.50925
 Alpha virt. eigenvalues --  308.80888 308.86668 624.55121 624.60863 624.64243
 Alpha virt. eigenvalues --  624.66290 624.71088 624.73463 624.74198 624.82042
 Alpha virt. eigenvalues --  624.89193 794.69898 794.80265 825.47400 826.95808
 Alpha virt. eigenvalues --  827.20235 827.29945 827.78209 828.85436 830.68442
 Alpha virt. eigenvalues --  830.79085 831.10067 831.26383 831.75915 831.80954
 Alpha virt. eigenvalues --  832.13922 833.62010 833.97161 834.17651 868.33616
 Alpha virt. eigenvalues --  868.409301165.937211165.991652486.539422487.06656
 Alpha virt. eigenvalues -- 2586.699302589.898732592.830012596.516812597.32425
 Alpha virt. eigenvalues -- 2597.327922602.752922603.162202604.794832605.24164
 Alpha virt. eigenvalues -- 2606.392012606.890642607.326322608.907432611.82455
 Alpha virt. eigenvalues -- 2613.124852740.327362740.338862740.381632740.40364
 Alpha virt. eigenvalues -- 2740.448512740.484372740.537112740.555932740.59581
 Alpha virt. eigenvalues -- 3787.316663787.386245073.319575073.369478294.75607
 Alpha virt. eigenvalues -- 8295.199038623.725158629.432878634.290158637.87690
 Alpha virt. eigenvalues -- 8638.823348652.105738662.480258664.042288666.31725
 Alpha virt. eigenvalues -- 8669.563518673.188858673.485178675.260968688.57787
 Alpha virt. eigenvalues -- 8689.913008690.97113******************************
 Alpha virt. eigenvalues -- **************************************************
 Alpha virt. eigenvalues -- **************************************************
 Alpha virt. eigenvalues -- **************************************************
 Alpha virt. eigenvalues -- **************************************************
 Alpha virt. eigenvalues -- **************************************************
 Alpha virt. eigenvalues -- **************************************************
 Alpha virt. eigenvalues -- **************************************************
 Alpha virt. eigenvalues -- **********
          Condensed to atoms (all electrons):
               1          2          3          4          5          6
     1  C    4.577819   0.152866  -0.047377   0.004706   0.000278  -0.009852
     2  C    0.152866   5.369640   0.378846   0.012889  -0.001805   0.004354
     3  H   -0.047377   0.378846   0.488902   0.000619   0.000059   0.000861
     4  C    0.004706   0.012889   0.000619   5.034058   0.393793   0.391948
     5  H    0.000278  -0.001805   0.000059   0.393793   0.534459  -0.004452
     6  H   -0.009852   0.004354   0.000861   0.391948  -0.004452   0.521758
     7  H    0.009456   0.001697  -0.000122   0.403550  -0.024896  -0.019002
     8  O    0.739184  -0.117590   0.003527  -0.001487   0.000502   0.003709
     9  N   -0.049759   0.292535  -0.037823  -0.012532   0.000527   0.008246
    10  H    0.000407  -0.029912   0.003251   0.002382  -0.000032   0.000506
    11  N    0.349127  -0.129557   0.008451  -0.003163   0.000113   0.001756
    12  H   -0.027451   0.009159  -0.001029   0.000020  -0.000020  -0.000084
    13  C   -0.035171   0.010783  -0.000915  -0.001128  -0.000022  -0.000163
    14  H   -0.003611   0.001727   0.000058   0.000161   0.000085  -0.000048
    15  H   -0.006721  -0.000213  -0.000190  -0.000025  -0.000007  -0.000015
    16  H    0.006657   0.000654  -0.000065  -0.000044  -0.000004  -0.000003
    17  C   -0.002432  -0.061076   0.003111   0.000382   0.000017   0.000736
    18  C   -0.004103   0.017480   0.002946  -0.000044   0.000002   0.000217
    19  H    0.000344  -0.000526  -0.000399  -0.000036  -0.000001   0.000130
    20  H   -0.000081  -0.000491   0.000134  -0.000010   0.000000   0.000064
    21  H    0.000616  -0.000847  -0.000192   0.000019  -0.000001  -0.000120
    22  O   -0.010923   0.016963   0.025091   0.000031   0.000000  -0.000119
[...]
 Alpha virt. eigenvalues --    4.38528   4.40573   4.41968   4.43495   4.44732
 Alpha virt. eigenvalues --    4.46287   4.46456   4.49485   4.50160   4.50947
 Alpha virt. eigenvalues --    4.52218   4.53864   4.56288   4.57128   4.57363
 Alpha virt. eigenvalues --    4.60849   4.64795   4.65555   4.66926   4.67665
 Alpha virt. eigenvalues --    4.69132   4.69559   4.70621   4.71600   4.72820
 Alpha virt. eigenvalues --    4.75918   4.76720   4.77358   4.77787   4.78690
 Alpha virt. eigenvalues --    4.79413   4.80847   4.81735   4.83260   4.83401
 Alpha virt. eigenvalues --    4.84811   4.85488   4.87386   4.88585   4.91135
 Alpha virt. eigenvalues --    4.92168   4.93672   4.95053   4.95540   4.95865
 Alpha virt. eigenvalues --    4.97160   4.98037   4.99311   5.00440   5.01610
 Alpha virt. eigenvalues --    5.02302   5.03586   5.04088   5.04855   5.06526
 Alpha virt. eigenvalues --    5.08287   5.09387   5.10456   5.11579   5.12915
 Alpha virt. eigenvalues --    5.13604   5.14434   5.15247   5.16855   5.18335
 Alpha virt. eigenvalues --    5.19599   5.20562   5.21122   5.22330   5.23145
 Alpha virt. eigenvalues --    5.24123   5.25124   5.26514   5.27754   5.28569
 Alpha virt. eigenvalues --    5.28837   5.30869   5.32252   5.33458   5.35438
 Alpha virt. eigenvalues --    5.36241   5.36770   5.37425   5.38545   5.40607
 Alpha virt. eigenvalues --    5.44117   5.47216   5.48524   5.49939   5.55036
 Alpha virt. eigenvalues --    5.57634   5.60258   5.61954   5.63516   5.67753
 Alpha virt. eigenvalues --    5.73692   5.75132   5.76977   5.78365   5.78661
 Alpha virt. eigenvalues --    5.80246   5.81502   5.85665   5.85924   5.87630
 Alpha virt. eigenvalues --    5.89130   5.90385   5.92531   5.95689   5.97141
 Alpha virt. eigenvalues --    6.00410   6.01736   6.03464   6.05847   6.09359
 Alpha virt. eigenvalues --    6.22565   6.27417   6.35451   6.38110   6.47766
 Alpha virt. eigenvalues --    6.51518   6.55052   6.56342   6.68005   6.70138
 Alpha virt. eigenvalues --    6.87506   6.89761   6.92690   6.97151   7.10099
 Alpha virt. eigenvalues --    7.13648   7.16039   7.18147   9.56359  10.01351
 Alpha virt. eigenvalues --   11.48424  12.04793  12.46164  12.50646  12.91514
 Alpha virt. eigenvalues --   13.37585  13.53429  13.64884  13.71100  13.74643
 Alpha virt. eigenvalues --   13.94285
          Condensed to atoms (all electrons):
               1          2          3          4          5          6
     1  C    4.735483   0.129965  -0.056124   0.002508   0.000134  -0.010760
     2  C    0.129965   5.511688   0.422711  -0.011500  -0.001528   0.003729
     3  H   -0.056124   0.422711   0.452581   0.000427   0.000071   0.000689
     4  C    0.002508  -0.011500   0.000427   5.198695   0.401561   0.393926
     5  H    0.000134  -0.001528   0.000071   0.401561   0.523927  -0.009381
     6  H   -0.010760   0.003729   0.000689   0.393926  -0.009381   0.514466
     7  H    0.013209  -0.000439  -0.000232   0.394594  -0.031305  -0.024595
     8  O    0.731203  -0.109860   0.001106   0.000025   0.000508   0.003808
     9  N   -0.049593   0.223684  -0.040967  -0.007315   0.000460   0.007640
    10  H    0.000460  -0.025730   0.001567   0.002259  -0.000012   0.000074
    11  N    0.347501  -0.100523   0.003573  -0.001747   0.000149   0.001586
    12  H   -0.022755   0.002340  -0.001372   0.000381  -0.000023  -0.000094
    13  C   -0.056390   0.010889  -0.000711  -0.001527  -0.000032  -0.000180
    14  H   -0.004284   0.001414   0.000063  -0.000007   0.000087  -0.000034
    15  H   -0.006130  -0.000221  -0.000176  -0.000012  -0.000006  -0.000018
    16  H    0.007354   0.000658  -0.000043  -0.000059  -0.000005  -0.000003
    17  C   -0.001246  -0.073860   0.000854   0.000609   0.000015   0.000905
    18  C   -0.003055   0.014289   0.002676  -0.000055   0.000001   0.000225
    19  H    0.000159   0.000276  -0.000388  -0.000017  -0.000002   0.000096
    20  H   -0.000102  -0.000475   0.000117  -0.000008   0.000000   0.000060
    21  H    0.000580  -0.000824  -0.000173   0.000016  -0.000001  -0.000115
    22  O   -0.007845   0.015019   0.024538   0.000020   0.000000  -0.000121
    23  C   -0.006755  -0.004552   0.003153   0.251300  -0.030381  -0.034661
    24  H    0.000418   0.001679  -0.000342  -0.041352  -0.008715  -0.005358
    25  C   -0.000845   0.002399  -0.000329  -0.065104  -0.009205   0.007034
    26  H    0.000252  -0.002031  -0.000084  -0.005018  -0.000273  -0.000003
    27  H    0.000124   0.000751  -0.000011   0.007564  -0.000133  -0.000359
    28  H    0.000047  -0.000443   0.000012  -0.004869   0.004167  -0.000102
    29  C   -0.021064   0.188050  -0.023327  -0.043576   0.009686  -0.006272
    30  H    0.008065  -0.039111  -0.007985   0.004235  -0.000476  -0.000599
    31  H    0.003732  -0.045383  -0.009098   0.004960  -0.000324  -0.000783
               7          8          9         10         11         12
     1  C    0.013209   0.731203  -0.049593   0.000460   0.347501  -0.022755
     2  C   -0.000439  -0.109860   0.223684  -0.025730  -0.100523   0.002340
     3  H   -0.000232   0.001106  -0.040967   0.001567   0.003573  -0.001372
     4  C    0.394594   0.000025  -0.007315   0.002259  -0.001747   0.000381
     5  H   -0.031305   0.000508   0.000460  -0.000012   0.000149  -0.000023
     6  H   -0.024595   0.003808   0.007640   0.000074   0.001586  -0.000094
     7  H    0.517013  -0.001060  -0.000884   0.000000  -0.009956   0.000427
     8  O   -0.001060   7.830644   0.007178  -0.002043  -0.120825   0.005167
     9  N   -0.000884   0.007178   6.560402   0.375806   0.005670   0.000432
    10  H    0.000000  -0.002043   0.375806   0.505521  -0.000372  -0.000007
    11  N   -0.009956  -0.120825   0.005670  -0.000372   6.478905   0.381307
    12  H    0.000427   0.005167   0.000432  -0.000007   0.381307   0.515470
    13  C    0.000752   0.006291  -0.000382   0.000035   0.281294  -0.033169
    14  H    0.002532   0.003269   0.000009  -0.000008  -0.060352   0.003585
    15  H   -0.000025   0.005752  -0.000035   0.000006  -0.035024   0.002576
    16  H    0.000015   0.001438   0.000004   0.000000  -0.027622  -0.008147
    17  C    0.000030   0.016775   0.346335  -0.019243   0.000498  -0.000160
    18  C    0.000008  -0.000213  -0.062130  -0.000339  -0.000013   0.000001
    19  H   -0.000005   0.000066   0.012969  -0.001115   0.000006   0.000000
    20  H   -0.000002   0.000044  -0.000417  -0.000710   0.000002   0.000000
    21  H    0.000003   0.000328  -0.001149   0.000482   0.000000  -0.000001
    22  O    0.000018  -0.003558  -0.135849   0.004963  -0.000915  -0.000024
    23  C   -0.034510  -0.001384  -0.002351   0.001448   0.001354  -0.002526
    24  H    0.006919  -0.000079   0.000274  -0.000723  -0.000048   0.000062
    25  C   -0.004909  -0.000010  -0.000167   0.000216  -0.004370   0.001151
    26  H    0.002639  -0.000390  -0.000011   0.000006   0.008612   0.001661
    27  H    0.000120  -0.000001  -0.000013  -0.000006  -0.000133  -0.000123
    28  H   -0.000951   0.000000   0.000009   0.000017   0.000143  -0.000001
    29  C   -0.005568   0.004557  -0.051852  -0.003475   0.003777   0.007102
    30  H   -0.000132  -0.000365   0.002389   0.002103  -0.000006  -0.000010
    31  H    0.000807  -0.000076   0.005102   0.000421  -0.008905   0.003578
              13         14         15         16         17         18
     1  C   -0.056390  -0.004284  -0.006130   0.007354  -0.001246  -0.003055
     2  C    0.010889   0.001414  -0.000221   0.000658  -0.073860   0.014289
     3  H   -0.000711   0.000063  -0.000176  -0.000043   0.000854   0.002676
     4  C   -0.001527  -0.000007  -0.000012  -0.000059   0.000609  -0.000055
     5  H   -0.000032   0.000087  -0.000006  -0.000005   0.000015   0.000001
     6  H   -0.000180  -0.000034  -0.000018  -0.000003   0.000905   0.000225
     7  H    0.000752   0.002532  -0.000025   0.000015   0.000030   0.000008
     8  O    0.006291   0.003269   0.005752   0.001438   0.016775  -0.000213
     9  N   -0.000382   0.000009  -0.000035   0.000004   0.346335  -0.062130
    10  H    0.000035  -0.000008   0.000006   0.000000  -0.019243  -0.000339
    11  N    0.281294  -0.060352  -0.035024  -0.027622   0.000498  -0.000013
    12  H   -0.033169   0.003585   0.002576  -0.008147  -0.000160   0.000001
    13  C    4.812179   0.398285   0.405148   0.394362  -0.000145  -0.000005
    14  H    0.398285   0.615877  -0.048370  -0.033022  -0.000005   0.000000
    15  H    0.405148  -0.048370   0.562655  -0.021637   0.000007   0.000000
    16  H    0.394362  -0.033022  -0.021637   0.590832  -0.000003   0.000000
    17  C   -0.000145  -0.000005   0.000007  -0.000003   4.531905   0.277191
    18  C   -0.000005   0.000000   0.000000   0.000000   0.277191   4.995798
    19  H    0.000000   0.000000   0.000000   0.000000  -0.054879   0.390774
    20  H    0.000000   0.000000   0.000000   0.000000  -0.025132   0.384237
    21  H    0.000001   0.000000   0.000000   0.000000  -0.025477   0.389850
    22  O   -0.000060   0.000003   0.000002   0.000000   0.713329  -0.069586
    23  C    0.000443  -0.000387   0.000027   0.000045  -0.000616  -0.000131
    24  H   -0.000013  -0.000008   0.000002   0.000001   0.000032   0.000009
    25  C    0.000277   0.000824  -0.000036   0.000030   0.000014   0.000001
    26  H   -0.000892  -0.002217   0.000270   0.000001   0.000000   0.000000
    27  H    0.000018   0.000004  -0.000001   0.000001   0.000001   0.000000
    28  H   -0.000012  -0.000028   0.000001  -0.000001  -0.000001   0.000000
    29  C   -0.001470  -0.000340   0.000071  -0.000135   0.008396   0.000354
    30  H    0.000055  -0.000023   0.000011   0.000002  -0.000336  -0.000089
    31  H    0.000396   0.000153  -0.000050   0.000061  -0.000288   0.000024
              19         20         21         22         23         24
     1  C    0.000159  -0.000102   0.000580  -0.007845  -0.006755   0.000418
     2  C    0.000276  -0.000475  -0.000824   0.015019  -0.004552   0.001679
     3  H   -0.000388   0.000117  -0.000173   0.024538   0.003153  -0.000342
     4  C   -0.000017  -0.000008   0.000016   0.000020   0.251300  -0.041352
     5  H   -0.000002   0.000000  -0.000001   0.000000  -0.030381  -0.008715
     6  H    0.000096   0.000060  -0.000115  -0.000121  -0.034661  -0.005358
     7  H   -0.000005  -0.000002   0.000003   0.000018  -0.034510   0.006919
     8  O    0.000066   0.000044   0.000328  -0.003558  -0.001384  -0.000079
     9  N    0.012969  -0.000417  -0.001149  -0.135849  -0.002351   0.000274
    10  H   -0.001115  -0.000710   0.000482   0.004963   0.001448  -0.000723
    11  N    0.000006   0.000002   0.000000  -0.000915   0.001354  -0.000048
    12  H    0.000000   0.000000  -0.000001  -0.000024  -0.002526   0.000062
    13  C    0.000000   0.000000   0.000001  -0.000060   0.000443  -0.000013
    14  H    0.000000   0.000000   0.000000   0.000003  -0.000387  -0.000008
    15  H    0.000000   0.000000   0.000000   0.000002   0.000027   0.000002
    16  H    0.000000   0.000000   0.000000   0.000000   0.000045   0.000001
    17  C   -0.054879  -0.025132  -0.025477   0.713329  -0.000616   0.000032
    18  C    0.390774   0.384237   0.389850  -0.069586  -0.000131   0.000009
    19  H    0.607975  -0.026945  -0.024817   0.004829   0.000079  -0.000001
    20  H   -0.026945   0.577473  -0.025144   0.002540   0.000003   0.000000
    21  H   -0.024817  -0.025144   0.563162   0.000854   0.000001   0.000000
    22  O    0.004829   0.002540   0.000854   7.856030  -0.000089   0.000000
    23  C    0.000079   0.000003   0.000001  -0.000089   5.278300   0.428371
    24  H   -0.000001   0.000000   0.000000   0.000000   0.428371   0.539792
    25  C   -0.000001   0.000000   0.000000   0.000001   0.266529  -0.027223
    26  H    0.000000   0.000000   0.000000   0.000000  -0.047489   0.008002
    27  H    0.000000   0.000000   0.000000   0.000000  -0.033325  -0.006394
    28  H    0.000000   0.000000   0.000000   0.000000  -0.037025  -0.005950
    29  C   -0.000280   0.000013   0.000002   0.002033   0.202409  -0.051086
    30  H   -0.000032  -0.000042   0.000020  -0.000142  -0.047837  -0.008352
    31  H   -0.000003  -0.000005   0.000000   0.000046  -0.058779   0.002946
              25         26         27         28         29         30
     1  C   -0.000845   0.000252   0.000124   0.000047  -0.021064   0.008065
     2  C    0.002399  -0.002031   0.000751  -0.000443   0.188050  -0.039111
     3  H   -0.000329  -0.000084  -0.000011   0.000012  -0.023327  -0.007985
     4  C   -0.065104  -0.005018   0.007564  -0.004869  -0.043576   0.004235
     5  H   -0.009205  -0.000273  -0.000133   0.004167   0.009686  -0.000476
     6  H    0.007034  -0.000003  -0.000359  -0.000102  -0.006272  -0.000599
     7  H   -0.004909   0.002639   0.000120  -0.000951  -0.005568  -0.000132
     8  O   -0.000010  -0.000390  -0.000001   0.000000   0.004557  -0.000365
     9  N   -0.000167  -0.000011  -0.000013   0.000009  -0.051852   0.002389
    10  H    0.000216   0.000006  -0.000006   0.000017  -0.003475   0.002103
    11  N   -0.004370   0.008612  -0.000133   0.000143   0.003777  -0.000006
    12  H    0.001151   0.001661  -0.000123  -0.000001   0.007102  -0.000010
    13  C    0.000277  -0.000892   0.000018  -0.000012  -0.001470   0.000055
    14  H    0.000824  -0.002217   0.000004  -0.000028  -0.000340  -0.000023
    15  H   -0.000036   0.000270  -0.000001   0.000001   0.000071   0.000011
    16  H    0.000030   0.000001   0.000001  -0.000001  -0.000135   0.000002
    17  C    0.000014   0.000000   0.000001  -0.000001   0.008396  -0.000336
    18  C    0.000001   0.000000   0.000000   0.000000   0.000354  -0.000089
    19  H   -0.000001   0.000000   0.000000   0.000000  -0.000280  -0.000032
    20  H    0.000000   0.000000   0.000000   0.000000   0.000013  -0.000042
    21  H    0.000000   0.000000   0.000000   0.000000   0.000002   0.000020
    22  O    0.000001   0.000000   0.000000   0.000000   0.002033  -0.000142
    23  C    0.266529  -0.047489  -0.033325  -0.037025   0.202409  -0.047837
    24  H   -0.027223   0.008002  -0.006394  -0.005950  -0.051086  -0.008352
    25  C    5.122439   0.399818   0.404720   0.407963  -0.049819   0.005426
    26  H    0.399818   0.561225  -0.033823  -0.024037  -0.003117   0.000210
    27  H    0.404720  -0.033823   0.539647  -0.016084  -0.005832   0.000603
    28  H    0.407963  -0.024037  -0.016084   0.523560   0.009654  -0.000363
    29  C   -0.049819  -0.003117  -0.005832   0.009654   5.445551   0.416208
    30  H    0.005426   0.000210   0.000603  -0.000363   0.416208   0.479810
    31  H   -0.008229  -0.003626   0.002130   0.000735   0.422711  -0.003695
              31
     1  C    0.003732
     2  C   -0.045383
     3  H   -0.009098
     4  C    0.004960
     5  H   -0.000324
     6  H   -0.000783
     7  H    0.000807
     8  O   -0.000076
     9  N    0.005102
    10  H    0.000421
    11  N   -0.008905
    12  H    0.003578
    13  C    0.000396
    14  H    0.000153
    15  H   -0.000050
    16  H    0.000061
    17  C   -0.000288
    18  C    0.000024
    19  H   -0.000003
    20  H   -0.000005
    21  H    0.000000
    22  O    0.000046
    23  C   -0.058779
    24  H    0.002946
    25  C   -0.008229
    26  H   -0.003626
    27  H    0.002130
    28  H    0.000735
    29  C    0.422711
    30  H   -0.003695
    31  H    0.495438
 Mulliken charges:
               1
     1  C    0.265757
     2  C   -0.113062
     3  H    0.227224
     4  C   -0.480915
     5  H    0.151035
     6  H    0.159200
     7  H    0.175483
     8  O   -0.378294
     9  N   -0.195248
    10  H    0.158398
    11  N   -0.143566
    12  H    0.143174
    13  C   -0.215437
    14  H    0.122981
    15  H    0.135213
    16  H    0.095873
    17  C    0.304495
    18  C   -0.319820
    19  H    0.091255
    20  H    0.114492
    21  H    0.122400
    22  O   -0.406035
    23  C   -0.090664
    24  H    0.167136
    25  C   -0.448595
    26  H    0.140314
    27  H    0.140555
    28  H    0.143557
    29  C   -0.453364
    30  H    0.190458
    31  H    0.196001
 Sum of Mulliken charges =   0.00000
 Mulliken charges with hydrogens summed into heavy atoms:
               1
     1  C    0.265757
     2  C    0.114162
     4  C    0.004803
     8  O   -0.378294
     9  N   -0.036850
    11  N   -0.000393
    13  C    0.138629
    17  C    0.304495
    18  C    0.008327
    22  O   -0.406035
    23  C    0.076472
    25  C   -0.024169
    29  C   -0.066904
 Electronic spatial extent (au):  <R**2>=           2825.9972
 Charge=              0.0000 electrons
 Dipole moment (field-independent basis, Debye):
    X=             -4.0504    Y=             -3.5678    Z=             -0.9422  Tot=              5.4793
 Quadrupole moment (field-independent basis, Debye-Ang):
   XX=            -79.3719   YY=            -78.0500   ZZ=            -81.7222
   XY=            -12.1681   XZ=              5.9624   YZ=             -2.4619
 Traceless Quadrupole moment (field-independent basis, Debye-Ang):
   XX=              0.3428   YY=              1.6647   ZZ=             -2.0075
   XY=            -12.1681   XZ=              5.9624   YZ=             -2.4619
 Octapole moment (field-independent basis, Debye-Ang**2):
  XXX=              2.2615  YYY=             13.1577  ZZZ=             -5.9649  XYY=            -13.7215
  XXY=            -12.1337  XXZ=             15.5520  XZZ=             -3.3191  YZZ=             -1.8078
  YYZ=              0.4433  XYZ=              5.1249
 Hexadecapole moment (field-independent basis, Debye-Ang**3):
 XXXX=          -2206.0283 YYYY=          -1069.9414 ZZZZ=           -406.0163 XXXY=            -89.2076
 XXXZ=             50.9938 YYYX=            -39.5294 YYYZ=             -0.4092 ZZZX=              4.3651
 ZZZY=             -4.7420 XXYY=           -545.8098 XXZZ=           -433.7996 YYZZ=           -258.1911
 XXYZ=              9.6695 YYXZ=              2.7387 ZZXY=             -7.2975
 N-N= 8.821594746795D+02 E-N=-3.193906683416D+03  KE= 6.091155425006D+02
 Calculating spin-rotation constants.
 Leave Link  601 at Wed Jun 18 15:51:09 2014, MaxMem=  4294967296 cpu:        70.5
 (Enter /home/ztw1e12/g09/l9999.exe)

 Test job not archived.
 1\1\GINC-GREEN0524\SP\RM06\Gen\C9H18N2O2\ROOT\18-Jun-2014\0\\#P Geom=A
 llCheck Guess=TCheck SCRF=Check GenChk RM06/ChkBas NMR=ReadFC IOp(3/6=
 22)\\NMR spin-spin scan\\0,1\C,0,0.463275,0.818494,0.433555\C,0,0.2251
 37,-0.0142,-0.824633\H,0,0.699903,0.550882,-1.632809\C,0,-1.755558,-1.
 109082,1.177304\H,0,-2.567163,-1.562975,1.749522\H,0,-0.946113,-1.8392
 39,1.138796\H,0,-1.408523,-0.247956,1.754255\O,0,1.156538,0.430268,1.3
 67352\N,0,0.907157,-1.283429,-0.752017\H,0,0.377233,-2.106928,-0.51284
 7\N,0,-0.1075,2.030519,0.419716\H,0,-0.75127,2.252649,-0.322737\C,0,-0
 .107247,2.871761,1.594567\H,0,-0.613151,2.385232,2.432201\H,0,0.910469
 ,3.109464,1.902384\H,0,-0.624165,3.798634,1.364404\C,0,2.23728,-1.3957
 44,-0.909947\C,0,2.807217,-2.7685,-0.764223\H,0,2.053176,-3.531003,-0.
 581522\H,0,3.362553,-3.017239,-1.668107\H,0,3.517348,-2.763341,0.06284
 2\O,0,2.951587,-0.42839,-1.170102\C,0,-2.279602,-0.70311,-0.191209\H,0
 ,-2.728349,-1.59901,-0.630612\C,0,-3.389958,0.319479,-0.011509\H,0,-2.
 992685,1.238883,0.431429\H,0,-3.853332,0.582506,-0.964298\H,0,-4.17194
 8,-0.058066,0.650753\C,0,-1.241628,-0.18202,-1.216876\H,0,-1.241342,-0
 .831711,-2.094314\H,0,-1.583714,0.786467,-1.590976\\Version=EM64L-G09R
 evD.01\State=1-A\HF=-613.5725954\RMSD=2.898e-09\Dipole=-2.1108316,-0.1
 890997,-0.3947542\Quadrupole=-7.3810847,10.0849198,-2.7038351,-4.54765
 97,1.2422963,1.6679546\PG=C01 [X(C9H18N2O2)]\\@


 A MAN IS NEVER SO BRILLIANT AS WHEN HE TAKES THE WORDS RIGHT OUT
 OF YOUR MOUTH. -- ARNOT SHEPPARD, JR.
 Job cpu time:       2 days 15 hours 26 minutes 43.5 seconds.
 File lengths (MBytes):  RWF=   2456 Int=      0 D2E=      0 Chk=     48 Scr=      8
 Normal termination of Gaussian 09 at Wed Jun 18 15:51:10 2014.
