 Entering Gaussian System, Link 0=g09
 Input=scan_input_15.gjf
 Output=scan_input_15.log
 Initial command:
 /home/ztw1e12/g09/l1.exe "/home/ztw1e12/leucine_scan/leucine_chi2_scan/Gau-21518.inp" -scrdir="/home/ztw1e12/leucine_scan/leucine_chi2_scan/"
 Default is to use a total of   8 processors:
                                8 via shared-memory
                                1 via Linda
 Entering Link 1 = /home/ztw1e12/g09/l1.exe PID=     21519.
  
 Copyright (c) 1988,1990,1992,1993,1995,1998,2003,2009,2013,
            Gaussian, Inc.  All Rights Reserved.
  
 This is part of the Gaussian(R) 09 program.  It is based on
 the Gaussian(R) 03 system (copyright 2003, Gaussian, Inc.),
 the Gaussian(R) 98 system (copyright 1998, Gaussian, Inc.),
 the Gaussian(R) 94 system (copyright 1995, Gaussian, Inc.),
 the Gaussian 92(TM) system (copyright 1992, Gaussian, Inc.),
 the Gaussian 90(TM) system (copyright 1990, Gaussian, Inc.),
 the Gaussian 88(TM) system (copyright 1988, Gaussian, Inc.),
 the Gaussian 86(TM) system (copyright 1986, Carnegie Mellon
 University), and the Gaussian 82(TM) system (copyright 1983,
 Carnegie Mellon University). Gaussian is a federally registered
 trademark of Gaussian, Inc.
  
 This software contains proprietary and confidential information,
 including trade secrets, belonging to Gaussian, Inc.
  
 This software is provided under written license and may be
 used, copied, transmitted, or stored only in accord with that
 written license.
  
 The following legend is applicable only to US Government
 contracts under FAR:
  
                    RESTRICTED RIGHTS LEGEND
  
 Use, reproduction and disclosure by the US Government is
 subject to restrictions as set forth in subparagraphs (a)
 and (c) of the Commercial Computer Software - Restricted
 Rights clause in FAR 52.227-19.
  
 Gaussian, Inc.
 340 Quinnipiac St., Bldg. 40, Wallingford CT 06492
  
  
 ---------------------------------------------------------------
 Warning -- This program may not be used in any manner that
 competes with the business of Gaussian, Inc. or will provide
 assistance to any competitor of Gaussian, Inc.  The licensee
 of this program is prohibited from giving any competitor of
 Gaussian, Inc. access to this program.  By using this program,
 the user acknowledges that Gaussian, Inc. is engaged in the
 business of creating and licensing software in the field of
 computational chemistry and represents and warrants to the
 licensee that it is not a competitor of Gaussian, Inc. and that
 it will not use this program in any manner prohibited above.
 ---------------------------------------------------------------
  

 Cite this work as:
 Gaussian 09, Revision D.01,
 M. J. Frisch, G. W. Trucks, H. B. Schlegel, G. E. Scuseria, 
 M. A. Robb, J. R. Cheeseman, G. Scalmani, V. Barone, B. Mennucci, 
 G. A. Petersson, H. Nakatsuji, M. Caricato, X. Li, H. P. Hratchian, 
 A. F. Izmaylov, J. Bloino, G. Zheng, J. L. Sonnenberg, M. Hada, 
 M. Ehara, K. Toyota, R. Fukuda, J. Hasegawa, M. Ishida, T. Nakajima, 
 Y. Honda, O. Kitao, H. Nakai, T. Vreven, J. A. Montgomery, Jr., 
 J. E. Peralta, F. Ogliaro, M. Bearpark, J. J. Heyd, E. Brothers, 
 K. N. Kudin, V. N. Staroverov, T. Keith, R. Kobayashi, J. Normand, 
 K. Raghavachari, A. Rendell, J. C. Burant, S. S. Iyengar, J. Tomasi, 
 M. Cossi, N. Rega, J. M. Millam, M. Klene, J. E. Knox, J. B. Cross, 
 V. Bakken, C. Adamo, J. Jaramillo, R. Gomperts, R. E. Stratmann, 
 O. Yazyev, A. J. Austin, R. Cammi, C. Pomelli, J. W. Ochterski, 
 R. L. Martin, K. Morokuma, V. G. Zakrzewski, G. A. Voth, 
 P. Salvador, J. J. Dannenberg, S. Dapprich, A. D. Daniels, 
 O. Farkas, J. B. Foresman, J. V. Ortiz, J. Cioslowski, 
 and D. J. Fox, Gaussian, Inc., Wallingford CT, 2013.
 
 ******************************************
 Gaussian 09:  EM64L-G09RevD.01 24-Apr-2013
                18-Jun-2014 
 ******************************************
 %Mem=32GB
 %NProcShared=16
 Will use up to   16 processors via shared memory.
 Default route:  MaxDisk=100GB
 ----------------------------------------------------------------------
 #p nmr=(giao,mixed,spinspin) m06/cc-pvtz scf=tight integral=(grid=ultr
 afine)
 ----------------------------------------------------------------------
 1/38=1/1;
 2/12=2,17=6,18=5,40=1/2;
 3/5=16,6=1,10=1100000,11=2,16=1,25=1,30=1,74=-54,75=-5/1,2,8,3;
 4//1;
 5/5=2,32=2,38=5/2;
 8/6=1,10=90,11=11/1;
 10/13=100,45=16,47=3/2;
 6/7=2,8=2,9=2,10=2,28=1/1;
 99/9=1/99;
 Leave Link    1 at Wed Jun 18 02:03:55 2014, MaxMem=  4294967296 cpu:         7.6
 (Enter /home/ztw1e12/g09/l101.exe)
 ------------------
 NMR spin-spin scan
 ------------------
 Symbolic Z-matrix:
 Charge =  0 Multiplicity = 1
 C                     0.2188    0.90004   0.3915 
 C                     0.0872    0.01783  -0.84498 
 H                     0.55405   0.57072  -1.66625 
 C                    -1.91396  -1.88841   0.61774 
 H                    -2.73259  -2.24832   1.24439 
 H                    -1.56389  -2.74124   0.02984 
 H                    -1.10843  -1.57416   1.28376 
 O                     0.44876   0.45677   1.51291 
 N                     0.81479  -1.2188   -0.69317 
 H                     0.30707  -2.08513  -0.61201 
 N                     0.0503    2.2059    0.15522 
 H                    -0.17371   2.50353  -0.78122 
 C                    -0.01077   3.16898   1.23026 
 H                    -0.82762   2.94272   1.91841 
 H                     0.91959   3.18144   1.79807 
 H                    -0.17353   4.15625   0.80872 
 C                     2.15401  -1.23423  -0.59004 
 C                     2.79535  -2.5734   -0.4313 
 H                     2.08026  -3.39291  -0.40948 
 H                     3.49405  -2.72659  -1.25359 
 H                     3.37409  -2.57695   0.49218 
 O                     2.82009  -0.20008  -0.63629 
 C                    -2.39607  -0.74229  -0.25481 
 H                    -3.22549  -1.1122   -0.86616 
 C                    -2.95284   0.36421   0.63008 
 H                    -2.20185   0.73764   1.33188 
 H                    -3.31042   1.21047   0.03937 
 H                    -3.78864  -0.00635   1.22741 
 C                    -1.36871  -0.20788  -1.26026 
 H                    -1.32288  -0.893    -2.11266 
 H                    -1.7414    0.73873  -1.65919 
 
 NAtoms=     31 NQM=       31 NQMF=       0 NMMI=      0 NMMIF=      0
                NMic=       0 NMicF=      0.
                    Isotopes and Nuclear Properties:
 (Nuclear quadrupole moments (NQMom) in fm**2, nuclear magnetic moments (NMagM)
  in nuclear magnetons)

  Atom         1           2           3           4           5           6           7           8           9          10
 IAtWgt=          12          12           1          12           1           1           1          16          14           1
 AtmWgt=  12.0000000  12.0000000   1.0078250  12.0000000   1.0078250   1.0078250   1.0078250  15.9949146  14.0030740   1.0078250
 NucSpn=           0           0           1           0           1           1           1           0           2           1
 AtZEff=   0.0000000   0.0000000   0.0000000   0.0000000   0.0000000   0.0000000   0.0000000   0.0000000   0.0000000   0.0000000
 NQMom=    0.0000000   0.0000000   0.0000000   0.0000000   0.0000000   0.0000000   0.0000000   0.0000000   2.0440000   0.0000000
 NMagM=    0.0000000   0.0000000   2.7928460   0.0000000   2.7928460   2.7928460   2.7928460   0.0000000   0.4037610   2.7928460
 AtZNuc=   6.0000000   6.0000000   1.0000000   6.0000000   1.0000000   1.0000000   1.0000000   8.0000000   7.0000000   1.0000000

  Atom        11          12          13          14          15          16          17          18          19          20
 IAtWgt=          14           1          12           1           1           1          12          12           1           1
 AtmWgt=  14.0030740   1.0078250  12.0000000   1.0078250   1.0078250   1.0078250  12.0000000  12.0000000   1.0078250   1.0078250
 NucSpn=           2           1           0           1           1           1           0           0           1           1
 AtZEff=   0.0000000   0.0000000   0.0000000   0.0000000   0.0000000   0.0000000   0.0000000   0.0000000   0.0000000   0.0000000
 NQMom=    2.0440000   0.0000000   0.0000000   0.0000000   0.0000000   0.0000000   0.0000000   0.0000000   0.0000000   0.0000000
 NMagM=    0.4037610   2.7928460   0.0000000   2.7928460   2.7928460   2.7928460   0.0000000   0.0000000   2.7928460   2.7928460
 AtZNuc=   7.0000000   1.0000000   6.0000000   1.0000000   1.0000000   1.0000000   6.0000000   6.0000000   1.0000000   1.0000000

  Atom        21          22          23          24          25          26          27          28          29          30
 IAtWgt=           1          16          12           1          12           1           1           1          12           1
 AtmWgt=   1.0078250  15.9949146  12.0000000   1.0078250  12.0000000   1.0078250   1.0078250   1.0078250  12.0000000   1.0078250
 NucSpn=           1           0           0           1           0           1           1           1           0           1
 AtZEff=   0.0000000   0.0000000   0.0000000   0.0000000   0.0000000   0.0000000   0.0000000   0.0000000   0.0000000   0.0000000
 NQMom=    0.0000000   0.0000000   0.0000000   0.0000000   0.0000000   0.0000000   0.0000000   0.0000000   0.0000000   0.0000000
 NMagM=    2.7928460   0.0000000   0.0000000   2.7928460   0.0000000   2.7928460   2.7928460   2.7928460   0.0000000   2.7928460
 AtZNuc=   1.0000000   8.0000000   6.0000000   1.0000000   6.0000000   1.0000000   1.0000000   1.0000000   6.0000000   1.0000000

  Atom        31
 IAtWgt=           1
 AtmWgt=   1.0078250
 NucSpn=           1
 AtZEff=   0.0000000
 NQMom=    0.0000000
 NMagM=    2.7928460
 AtZNuc=   1.0000000
 Leave Link  101 at Wed Jun 18 02:03:55 2014, MaxMem=  4294967296 cpu:         1.6
 (Enter /home/ztw1e12/g09/l202.exe)
                          Input orientation:                          
 ---------------------------------------------------------------------
 Center     Atomic      Atomic             Coordinates (Angstroms)
 Number     Number       Type             X           Y           Z
 ---------------------------------------------------------------------
      1          6           0        0.218795    0.900036    0.391499
      2          6           0        0.087202    0.017829   -0.844977
      3          1           0        0.554053    0.570720   -1.666254
      4          6           0       -1.913960   -1.888406    0.617743
      5          1           0       -2.732588   -2.248317    1.244394
      6          1           0       -1.563894   -2.741241    0.029839
      7          1           0       -1.108430   -1.574158    1.283759
      8          8           0        0.448758    0.456765    1.512910
      9          7           0        0.814785   -1.218797   -0.693166
     10          1           0        0.307073   -2.085132   -0.612009
     11          7           0        0.050303    2.205896    0.155215
     12          1           0       -0.173707    2.503533   -0.781223
     13          6           0       -0.010772    3.168977    1.230264
     14          1           0       -0.827617    2.942715    1.918414
     15          1           0        0.919590    3.181441    1.798073
     16          1           0       -0.173528    4.156253    0.808715
     17          6           0        2.154008   -1.234229   -0.590041
     18          6           0        2.795348   -2.573395   -0.431295
     19          1           0        2.080259   -3.392912   -0.409478
     20          1           0        3.494050   -2.726588   -1.253590
     21          1           0        3.374093   -2.576945    0.492177
     22          8           0        2.820092   -0.200080   -0.636286
     23          6           0       -2.396067   -0.742294   -0.254807
     24          1           0       -3.225491   -1.112197   -0.866156
     25          6           0       -2.952840    0.364207    0.630075
     26          1           0       -2.201846    0.737644    1.331877
     27          1           0       -3.310422    1.210474    0.039366
     28          1           0       -3.788642   -0.006349    1.227413
     29          6           0       -1.368707   -0.207883   -1.260264
     30          1           0       -1.322876   -0.893000   -2.112661
     31          1           0       -1.741400    0.738727   -1.659188
 ---------------------------------------------------------------------
                    Distance matrix (angstroms):
                    1          2          3          4          5
     1  C    0.000000
     2  C    1.524624   0.000000
     3  H    2.110733   1.094593   0.000000
     4  C    3.517846   3.126968   4.165937   0.000000
     5  H    4.398888   4.177572   5.217360   1.091961   0.000000
     6  H    4.070341   3.332250   4.281532   1.093391   1.756122
     7  H    2.946063   2.914700   4.008357   1.091425   1.758957
     8  O    1.227573   2.425493   3.182948   3.447258   4.184559
     9  N    2.453804   1.442798   2.053595   3.100469   4.171080
    10  H    3.150563   2.127219   2.868097   2.546366   3.565445
    11  N    1.337718   2.406114   2.499063   4.564600   5.363843
    12  H    2.024978   2.500172   2.246927   4.926938   5.764640
    13  C    2.429881   3.774382   3.931893   5.438238   6.062636
    14  H    2.756626   4.126522   4.514999   5.119728   5.570461
    15  H    2.770266   4.205594   4.353280   5.926680   6.567133
    16  H    3.306197   4.464217   4.417114   6.293129   6.910653
    17  C    3.043609   2.429882   2.641199   4.293606   5.317175
    18  C    4.402311   3.770892   4.053885   4.873117   5.785472
    19  H    4.747211   3.974304   4.429353   4.390046   5.216214
    20  H    5.156163   4.393791   4.436904   5.783685   6.726045
    21  H    4.696322   4.395962   4.745445   5.334169   6.161605
    22  O    3.005552   2.749495   2.605744   5.180182   6.210031
    23  C    3.154752   2.663215   3.524116   1.518994   2.151501
    24  H    4.182569   3.500192   4.213943   2.127104   2.447068
    25  C    3.225415   3.396706   4.196912   2.480663   2.692802
    26  H    2.601958   3.239841   4.075737   2.736605   3.034024
    27  H    3.560301   3.707872   4.272305   3.447852   3.707994
    28  H    4.192832   4.395174   5.250268   2.725485   2.478298
    29  C    2.544792   1.530712   2.113778   2.578443   3.506687
    30  H    3.444205   2.103557   2.421697   2.965690   3.885099
    31  H    2.841426   2.127538   2.301604   3.480807   4.282018
                    6          7          8          9         10
     6  H    0.000000
     7  H    1.772525   0.000000
     8  O    4.059250   2.569434   0.000000
     9  N    2.915251   2.780876   2.794326   0.000000
    10  H    2.083978   2.420471   3.316112   1.007420   0.000000
    11  N    5.205335   4.111579   2.249791   3.610084   4.366633
    12  H    5.486173   4.665343   3.136840   3.852351   4.616885
    13  C    6.227671   4.868783   2.765348   4.861449   5.576796
    14  H    6.034582   4.569878   2.823741   5.180349   5.741934
    15  H    6.661269   5.195489   2.779723   5.057603   5.824128
    16  H    7.079208   5.825575   3.816981   5.667766   6.419059
    17  C    4.059327   3.777589   3.192137   1.343276   2.033639
    18  C    4.386776   4.379425   4.297475   2.413740   2.542159
    19  H    3.727939   4.042605   4.601889   2.531537   2.212577
    20  H    5.218257   5.380433   5.202025   3.125055   3.313595
    21  H    4.962304   4.661030   4.336228   3.130441   3.296622
    22  O    5.110827   4.583443   3.267065   2.249950   3.141540
    23  C    2.183878   2.171910   3.557470   3.275482   3.039370
    24  H    2.493491   3.052456   4.649914   4.045382   3.672901
    25  C    3.454455   2.754344   3.515513   4.295564   4.262519
    26  H    3.768942   2.557792   2.671585   4.126563   4.247521
    27  H    4.320475   3.761842   4.107413   4.843067   4.936758
    28  H    3.723348   3.105598   4.272182   5.133244   4.947696
    29  C    2.849626   2.899397   3.381631   2.472081   2.598564
    30  H    2.839787   3.470682   4.255034   2.586640   2.515923
    31  H    3.872273   3.796186   3.865036   3.361425   3.642390
                   11         12         13         14         15
    11  N    0.000000
    12  H    1.007812   0.000000
    13  C    1.444640   2.124957   0.000000
    14  H    2.102978   2.812209   1.091779   0.000000
    15  H    2.099126   2.882295   1.090016   1.767542   0.000000
    16  H    2.069071   2.293335   1.085775   1.769728   1.767483
    17  C    4.100664   4.407456   5.233355   5.712206   5.169625
    18  C    5.542643   5.891768   6.603781   7.005318   6.450325
    19  H    5.982161   6.323498   7.079516   7.349489   7.031540
    20  H    6.178473   6.405446   7.294587   7.802526   7.130589
    21  H    5.834097   6.326112   6.709523   7.082031   6.394447
    22  O    3.753255   4.036504   4.779994   5.450636   4.579596
    23  C    3.852878   3.968802   4.815922   4.556557   5.532052
    24  H    4.773234   4.732241   5.749595   5.472288   6.535682
    25  C    3.554740   3.780484   4.108859   3.581214   4.929172
    26  H    2.934701   3.420074   3.274524   2.663620   3.991597
    27  H    3.506959   3.490609   4.017669   3.563117   4.987060
    28  H    4.558633   4.837549   4.935079   4.235815   5.714465
    29  C    3.137435   3.001547   4.410204   4.508108   5.106588
    30  H    4.078240   3.824886   5.421847   5.586372   6.076476
    31  H    2.941911   2.518536   4.153327   4.300209   5.000037
                   16         17         18         19         20
    16  H    0.000000
    17  C    6.035830   0.000000
    18  C    7.459223   1.493279   0.000000
    19  H    7.972041   2.167476   1.087859   0.000000
    20  H    8.067077   2.112616   1.089872   1.776321   0.000000
    21  H    7.617202   2.112508   1.089844   1.775610   1.756270
    22  O    5.479729   1.230963   2.382280   3.285266   2.686732
    23  C    5.483295   4.588852   5.507710   5.204536   6.295115
    24  H    6.314763   5.387963   6.210854   5.793203   6.921603
    25  C    4.704902   5.488495   6.541993   6.366215   7.393483
    26  H    4.009322   5.153204   6.248496   6.199212   7.150439
    27  H    4.371455   6.019362   7.198584   7.102962   7.966996
    28  H    5.529160   6.334502   7.258785   6.970812   8.160434
    29  C    4.975421   3.729894   4.860267   4.771123   5.476342
    30  H    5.945620   3.810975   4.755049   4.553210   5.225210
    31  H    4.497583   4.495535   5.749779   5.765179   6.291491
                   21         22         23         24         25
    21  H    0.000000
    22  O    2.688835   0.000000
    23  C    6.100711   5.258121   0.000000
    24  H    6.895293   6.118323   1.094769   0.000000
    25  C    6.978501   5.937073   1.522287   2.119626   0.000000
    26  H    6.540848   5.474747   2.178418   3.049772   1.093606
    27  H    7.696254   6.326877   2.176209   2.494390   1.092232
    28  H    7.645476   6.869226   2.162835   2.433736   1.092103
    29  C    5.583696   4.235026   1.533626   2.102558   2.531827
    30  H    5.628709   4.452416   2.150831   2.285118   3.429279
    31  H    6.464543   4.768112   2.143431   2.501469   2.616979
                   26         27         28         29         30
    26  H    0.000000
    27  H    1.767228   0.000000
    28  H    1.755665   1.766581   0.000000
    29  C    2.882245   2.733319   3.476383   0.000000
    30  H    3.911065   3.606406   4.245262   1.094562   0.000000
    31  H    3.026298   2.359971   3.616463   1.092754   1.744515
                   31
    31  H    0.000000
 Stoichiometry    C9H18N2O2
 Framework group  C1[X(C9H18N2O2)]
 Deg. of freedom    87
 Full point group                 C1      NOp   1
 Largest Abelian subgroup         C1      NOp   1
 Largest concise Abelian subgroup C1      NOp   1
                         Standard orientation:                         
 ---------------------------------------------------------------------
 Center     Atomic      Atomic             Coordinates (Angstroms)
 Number     Number       Type             X           Y           Z
 ---------------------------------------------------------------------
      1          6           0        0.396957    0.982388   -0.131774
      2          6           0       -0.203834   -0.028431    0.838677
      3          1           0       -0.486598    0.536513    1.732555
      4          6           0        0.807645   -2.427395   -0.893319
      5          1           0        1.440848   -3.059190   -1.519632
      6          1           0       -0.042710   -3.039219   -0.580154
      7          1           0        0.436264   -1.615328   -1.520879
      8          8           0        0.217483    0.938752   -1.345372
      9          7           0       -1.407521   -0.621191    0.308169
     10          1           0       -1.406917   -1.594397    0.047854
     11          7           0        1.151275    1.921467    0.450140
     12          1           0        1.290975    1.880984    1.447401
     13          6           0        1.919757    2.865760   -0.327505
     14          1           0        2.632449    2.355333   -0.978286
     15          1           0        1.269959    3.480954   -0.949947
     16          1           0        2.468063    3.514235    0.349066
     17          6           0       -2.511291    0.112718    0.090316
     18          6           0       -3.693648   -0.609923   -0.466196
     19          1           0       -3.508739   -1.667852   -0.639492
     20          1           0       -4.529057   -0.498570    0.224827
     21          1           0       -3.982690   -0.137306   -1.404730
     22          8           0       -2.551376    1.315906    0.347226
     23          6           0        1.607606   -1.900755    0.285687
     24          1           0        1.982232   -2.761994    0.848220
     25          6           0        2.822405   -1.141521   -0.229273
     26          1           0        2.534218   -0.304318   -0.871155
     27          1           0        3.425778   -0.744215    0.589909
     28          1           0        3.458317   -1.796497   -0.828700
     29          6           0        0.808561   -1.078063    1.303877
     30          1           0        0.241307   -1.763761    1.941142
     31          1           0        1.516218   -0.573252    1.966068
 ---------------------------------------------------------------------
 Rotational constants (GHZ):      0.9415264      0.6395143      0.4516410
 Leave Link  202 at Wed Jun 18 02:03:55 2014, MaxMem=  4294967296 cpu:         1.8
 (Enter /home/ztw1e12/g09/l301.exe)
 Standard basis: CC-pVTZ (5D, 7F)
 Converting basis for Fermi contact spin-spin IFCMod=1.
 AO basis functions are being uncontracted.
 Ernie: Thresh=  0.10000D-02 Tol=  0.10000D-05 Strict=F.
 There are  1119 symmetry adapted cartesian basis functions of A   symmetry.
 There are  1036 symmetry adapted basis functions of A   symmetry.
  1036 basis functions,  1119 primitive gaussians,  1119 cartesian basis functions
    51 alpha electrons       51 beta electrons
       nuclear repulsion energy       888.3127322988 Hartrees.
 IExCor= 4235 DFT=T Ex+Corr=M06 ExCW=0 ScaHFX=  0.270000
 ScaDFX=  1.000000  1.000000  1.000000  1.000000 ScalE2=  1.000000  1.000000
 IRadAn= 199590 IRanWt=     -1 IRanGd=            0 ICorTp=0 IEmpDi=  4
 NAtoms=   31 NActive=   31 NUniq=   31 SFac= 1.00D+00 NAtFMM=   60 NAOKFM=F Big=F
 Integral buffers will be    131072 words long.
 Raffenetti 2 integral format.
 Two-electron integral symmetry is turned on.
 Leave Link  301 at Wed Jun 18 02:03:55 2014, MaxMem=  4294967296 cpu:         4.6
 (Enter /home/ztw1e12/g09/l302.exe)
 NPDir=0 NMtPBC=     1 NCelOv=     1 NCel=       1 NClECP=     1 NCelD=      1
         NCelK=      1 NCelE2=     1 NClLst=     1 CellRange=     0.0.
 One-electron integrals computed using PRISM.
 GSVD:  received Info=                   1 from GESDD.
 NBasis=  1036 RedAO= T EigKep=  1.10D-04  NBF=  1036
 NBsUse=   932 1.00D-06 EigRej=  5.70D-15 NBFU=   932
 Precomputing XC quadrature grid using
 IXCGrd= 4 IRadAn=      199590 IRanWt=          -1 IRanGd=           0 AccXCQ= 0.00D+00.
 Generated NRdTot=       0 NPtTot=           0 NUsed=           0 NTot=          32
 NSgBfM=   886   886   886   886   886 MxSgAt=    31 MxSgA2=    31.
 Leave Link  302 at Wed Jun 18 02:04:00 2014, MaxMem=  4294967296 cpu:        64.3
 (Enter /home/ztw1e12/g09/l308.exe)
 Leave Link  308 at Wed Jun 18 02:04:00 2014, MaxMem=  4294967296 cpu:         5.4
 (Enter /home/ztw1e12/g09/l303.exe)
 DipDrv:  MaxL=1.
 Leave Link  303 at Wed Jun 18 02:04:00 2014, MaxMem=  4294967296 cpu:         3.9
 (Enter /home/ztw1e12/g09/l401.exe)
 ExpMin= 1.03D-01 ExpMax= 1.38D+05 ExpMxC= 1.38D+05 IAcc=4 IRadAn=    199590 AccDes= 0.00D+00
 Harris functional with IExCor= 1009 and IRadAn=  199590 diagonalized for initial guess.
 HarFok:  IExCor= 1009 AccDes= 0.00D+00 IRadAn=    199590 IDoV= 1 UseB2=F ITyADJ=14
 ICtDFT=  3500011 ScaDFX=  1.000000  1.000000  1.000000  1.000000
 FoFCou: FMM=F IPFlag=           0 FMFlag=      100000 FMFlg1=           0
         NFxFlg=           0 DoJE=T BraDBF=F KetDBF=T FulRan=T
         wScrn=  0.000000 ICntrl=     500 IOpCl=  0 I1Cent=   200000004 NGrid=           0
         NMat0=    1 NMatS0=      1 NMatT0=    0 NMatD0=    1 NMtDS0=    0 NMtDT0=    0
 Petite list used in FoFCou.
 Harris En= -613.560666922543    
 JPrj=0 DoOrth=F DoCkMO=F.
 Leave Link  401 at Wed Jun 18 02:04:17 2014, MaxMem=  4294967296 cpu:       261.7
 (Enter /home/ztw1e12/g09/l502.exe)
 Closed shell SCF:
 Using DIIS extrapolation, IDIIS=  1040.
 Integral symmetry usage will be decided dynamically.
 IVT=     3801329 IEndB=     3801329 NGot=  4294967296 MDV=  4292435888
 LenX=  4292435888 LenY=  4291182608
 Requested convergence on RMS density matrix=1.00D-08 within 128 cycles.
 Requested convergence on MAX density matrix=1.00D-06.
 Requested convergence on             energy=1.00D-06.
 No special actions if energy rises.
 Fock matrices will be formed incrementally for  20 cycles.
 Integral accuracy reduced to 1.0D-05 until final iterations.

 Cycle   1  Pass 0  IDiag  1:
 FoFJK:  IHMeth= 1 ICntrl=       0 DoSepK=F KAlg= 0 I1Cent=   0 FoldK=F
 IRaf= 490000000 NMat=   1 IRICut=       1 DoRegI=T DoRafI=F ISym2E= 0.
 FoFCou: FMM=F IPFlag=           0 FMFlag=      100000 FMFlg1=           0
         NFxFlg=           0 DoJE=F BraDBF=F KetDBF=F FulRan=T
         wScrn=  0.000000 ICntrl=       0 IOpCl=  0 I1Cent=           0 NGrid=           0
         NMat0=    1 NMatS0=      1 NMatT0=    0 NMatD0=    1 NMtDS0=    0 NMtDT0=    0
 Symmetry not used in FoFCou.
 E= -613.184810473678    
 DIIS: error= 1.28D-01 at cycle   1 NSaved=   1.
 NSaved= 1 IEnMin= 1 EnMin= -613.184810473678     IErMin= 1 ErrMin= 1.28D-01
 ErrMax= 1.28D-01  0.00D+00 EMaxC= 1.00D-01 BMatC= 1.30D+01 BMatP= 1.30D+01
 IDIUse=3 WtCom= 0.00D+00 WtEn= 1.00D+00
 Coeff-Com:  0.100D+01
 Coeff-En:   0.100D+01
 Coeff:      0.100D+01
 Gap=     0.289 Goal=   None    Shift=    0.000
 GapD=    0.289 DampG=1.000 DampE=0.250 DampFc=0.2500 IDamp=-1.
 Damping current iteration by 2.50D-01
 RMSDP=2.09D-03 MaxDP=3.10D-01              OVMax= 2.82D-01

 Cycle   2  Pass 0  IDiag  1:
 RMSU=  5.22D-04    CP:  1.01D+00
 E= -613.341217960272     Delta-E=       -0.156407486594 Rises=F Damp=T
 DIIS: error= 9.60D-02 at cycle   2 NSaved=   2.
 NSaved= 2 IEnMin= 2 EnMin= -613.341217960272     IErMin= 2 ErrMin= 9.60D-02
 ErrMax= 9.60D-02  0.00D+00 EMaxC= 1.00D-01 BMatC= 7.66D+00 BMatP= 1.30D+01
 IDIUse=3 WtCom= 3.97D-02 WtEn= 9.60D-01
 Coeff-Com: -0.279D+01 0.379D+01
 Coeff-En:   0.000D+00 0.100D+01
 Coeff:     -0.111D+00 0.111D+01
 Gap=     0.232 Goal=   None    Shift=    0.000
 RMSDP=5.41D-04 MaxDP=4.89D-02 DE=-1.56D-01 OVMax= 1.39D-01

 Cycle   3  Pass 0  IDiag  1:
 RMSU=  4.43D-04    CP:  1.02D+00  1.59D+00
 E= -613.558665901649     Delta-E=       -0.217447941377 Rises=F Damp=F
 DIIS: error= 1.45D-02 at cycle   3 NSaved=   3.
 NSaved= 3 IEnMin= 3 EnMin= -613.558665901649     IErMin= 3 ErrMin= 1.45D-02
 ErrMax= 1.45D-02  0.00D+00 EMaxC= 1.00D-01 BMatC= 1.85D-01 BMatP= 7.66D+00
 IDIUse=3 WtCom= 8.55D-01 WtEn= 1.45D-01
 Coeff-Com:  0.850D+00-0.118D+01 0.133D+01
 Coeff-En:   0.528D-01 0.000D+00 0.947D+00
 Coeff:      0.734D+00-0.101D+01 0.127D+01
 Gap=     0.251 Goal=   None    Shift=    0.000
 RMSDP=3.72D-04 MaxDP=3.20D-02 DE=-2.17D-01 OVMax= 6.90D-02

 Cycle   4  Pass 0  IDiag  1:
 RMSU=  2.83D-04    CP:  1.02D+00  1.19D+00  7.28D-01
 E= -613.543935915610     Delta-E=        0.014729986039 Rises=F Damp=F
 DIIS: error= 8.58D-03 at cycle   4 NSaved=   4.
 NSaved= 4 IEnMin= 3 EnMin= -613.558665901649     IErMin= 4 ErrMin= 8.58D-03
 ErrMax= 8.58D-03  0.00D+00 EMaxC= 1.00D-01 BMatC= 1.03D-01 BMatP= 1.85D-01
 IDIUse=3 WtCom= 9.14D-01 WtEn= 8.58D-02
 Coeff-Com:  0.559D+00-0.777D+00 0.693D+00 0.525D+00
 Coeff-En:   0.000D+00 0.000D+00 0.559D+00 0.441D+00
 Coeff:      0.511D+00-0.711D+00 0.682D+00 0.518D+00
 Gap=     0.281 Goal=   None    Shift=    0.000
 RMSDP=2.71D-04 MaxDP=1.89D-02 DE= 1.47D-02 OVMax= 7.40D-02

 Cycle   5  Pass 0  IDiag  1:
 RMSU=  8.03D-05    CP:  1.02D+00  1.12D+00  8.48D-01  1.12D-01
 E= -613.617275610389     Delta-E=       -0.073339694779 Rises=F Damp=F
 DIIS: error= 3.18D-03 at cycle   5 NSaved=   5.
 NSaved= 5 IEnMin= 5 EnMin= -613.617275610389     IErMin= 5 ErrMin= 3.18D-03
 ErrMax= 3.18D-03  0.00D+00 EMaxC= 1.00D-01 BMatC= 1.20D-02 BMatP= 1.03D-01
 IDIUse=3 WtCom= 9.68D-01 WtEn= 3.18D-02
 Coeff-Com:  0.600D-01-0.899D-01 0.852D-01 0.253D+00 0.692D+00
 Coeff-En:   0.000D+00 0.000D+00 0.000D+00 0.643D-01 0.936D+00
 Coeff:      0.581D-01-0.870D-01 0.825D-01 0.247D+00 0.699D+00
 Gap=     0.270 Goal=   None    Shift=    0.000
 RMSDP=1.32D-04 MaxDP=1.33D-02 DE=-7.33D-02 OVMax= 2.52D-02

 Cycle   6  Pass 0  IDiag  1:
 RMSU=  5.99D-05    CP:  1.02D+00  1.17D+00  9.30D-01  4.43D-01  2.89D-01
 E= -613.624376576257     Delta-E=       -0.007100965867 Rises=F Damp=F
 DIIS: error= 8.63D-04 at cycle   6 NSaved=   6.
 NSaved= 6 IEnMin= 6 EnMin= -613.624376576257     IErMin= 6 ErrMin= 8.63D-04
 ErrMax= 8.63D-04  0.00D+00 EMaxC= 1.00D-01 BMatC= 8.65D-04 BMatP= 1.20D-02
 IDIUse=3 WtCom= 9.91D-01 WtEn= 8.63D-03
 Coeff-Com:  0.252D-01-0.347D-01 0.279D-02 0.559D-01 0.247D+00 0.704D+00
 Coeff-En:   0.000D+00 0.000D+00 0.000D+00 0.000D+00 0.000D+00 0.100D+01
 Coeff:      0.250D-01-0.344D-01 0.277D-02 0.554D-01 0.245D+00 0.706D+00
 Gap=     0.269 Goal=   None    Shift=    0.000
 RMSDP=2.76D-05 MaxDP=2.77D-03 DE=-7.10D-03 OVMax= 6.12D-03

 Cycle   7  Pass 0  IDiag  1:
 RMSU=  2.00D-05    CP:  1.02D+00  1.14D+00  9.24D-01  4.37D-01  4.61D-01
                    CP:  9.83D-01
 E= -613.624866008657     Delta-E=       -0.000489432400 Rises=F Damp=F
 DIIS: error= 3.61D-04 at cycle   7 NSaved=   7.
 NSaved= 7 IEnMin= 7 EnMin= -613.624866008657     IErMin= 7 ErrMin= 3.61D-04
 ErrMax= 3.61D-04  0.00D+00 EMaxC= 1.00D-01 BMatC= 1.68D-04 BMatP= 8.65D-04
 IDIUse=3 WtCom= 9.96D-01 WtEn= 3.61D-03
 Coeff-Com:  0.186D-01-0.249D-01 0.217D-02 0.145D-01 0.783D-01 0.381D+00
 Coeff-Com:  0.530D+00
 Coeff-En:   0.000D+00 0.000D+00 0.000D+00 0.000D+00 0.000D+00 0.119D+00
 Coeff-En:   0.881D+00
 Coeff:      0.185D-01-0.248D-01 0.216D-02 0.144D-01 0.780D-01 0.380D+00
 Coeff:      0.531D+00
 Gap=     0.269 Goal=   None    Shift=    0.000
 RMSDP=9.29D-06 MaxDP=9.68D-04 DE=-4.89D-04 OVMax= 2.35D-03

 Initial convergence to 1.0D-05 achieved.  Increase integral accuracy.
 Cycle   8  Pass 1  IDiag  1:
 E= -613.624996724873     Delta-E=       -0.000130716217 Rises=F Damp=F
 DIIS: error= 1.29D-04 at cycle   1 NSaved=   1.
 NSaved= 1 IEnMin= 1 EnMin= -613.624996724873     IErMin= 1 ErrMin= 1.29D-04
 ErrMax= 1.29D-04  0.00D+00 EMaxC= 1.00D-01 BMatC= 2.10D-05 BMatP= 2.10D-05
 IDIUse=3 WtCom= 9.99D-01 WtEn= 1.29D-03
 Coeff-Com:  0.100D+01
 Coeff-En:   0.100D+01
 Coeff:      0.100D+01
 Gap=     0.269 Goal=   None    Shift=    0.000
 RMSDP=9.29D-06 MaxDP=9.68D-04 DE=-1.31D-04 OVMax= 2.18D-03

 Cycle   9  Pass 1  IDiag  1:
 RMSU=  2.48D-05    CP:  1.00D+00
 E= -613.624973517060     Delta-E=        0.000023207813 Rises=F Damp=F
 DIIS: error= 2.72D-04 at cycle   2 NSaved=   2.
 NSaved= 2 IEnMin= 1 EnMin= -613.624996724873     IErMin= 1 ErrMin= 1.29D-04
 ErrMax= 2.72D-04  0.00D+00 EMaxC= 1.00D-01 BMatC= 5.10D-05 BMatP= 2.10D-05
 IDIUse=3 WtCom= 3.77D-01 WtEn= 6.23D-01
 Coeff-Com:  0.623D+00 0.377D+00
 Coeff-En:   0.717D+00 0.283D+00
 Coeff:      0.681D+00 0.319D+00
 Gap=     0.269 Goal=   None    Shift=    0.000
 RMSDP=5.00D-06 MaxDP=4.23D-04 DE= 2.32D-05 OVMax= 1.48D-03

 Cycle  10  Pass 1  IDiag  1:
 RMSU=  4.88D-06    CP:  1.00D+00  9.56D-01
 E= -613.625009507496     Delta-E=       -0.000035990436 Rises=F Damp=F
 DIIS: error= 1.52D-05 at cycle   3 NSaved=   3.
 NSaved= 3 IEnMin= 3 EnMin= -613.625009507496     IErMin= 3 ErrMin= 1.52D-05
 ErrMax= 1.52D-05  0.00D+00 EMaxC= 1.00D-01 BMatC= 2.60D-07 BMatP= 2.10D-05
 IDIUse=1 WtCom= 1.00D+00 WtEn= 0.00D+00
 Coeff-Com:  0.774D-01 0.289D-01 0.894D+00
 Coeff:      0.774D-01 0.289D-01 0.894D+00
 Gap=     0.269 Goal=   None    Shift=    0.000
 RMSDP=8.55D-07 MaxDP=6.94D-05 DE=-3.60D-05 OVMax= 1.15D-04

 Cycle  11  Pass 1  IDiag  1:
 RMSU=  7.80D-07    CP:  1.00D+00  9.67D-01  1.05D+00
 E= -613.625009524008     Delta-E=       -0.000000016512 Rises=F Damp=F
 DIIS: error= 1.17D-05 at cycle   4 NSaved=   4.
 NSaved= 4 IEnMin= 4 EnMin= -613.625009524008     IErMin= 4 ErrMin= 1.17D-05
 ErrMax= 1.17D-05  0.00D+00 EMaxC= 1.00D-01 BMatC= 1.63D-07 BMatP= 2.60D-07
 IDIUse=1 WtCom= 1.00D+00 WtEn= 0.00D+00
 Coeff-Com:  0.777D-02-0.308D-02 0.447D+00 0.548D+00
 Coeff:      0.777D-02-0.308D-02 0.447D+00 0.548D+00
 Gap=     0.269 Goal=   None    Shift=    0.000
 RMSDP=3.61D-07 MaxDP=4.22D-05 DE=-1.65D-08 OVMax= 8.60D-05

 Cycle  12  Pass 1  IDiag  1:
 RMSU=  2.44D-07    CP:  1.00D+00  9.69D-01  1.05D+00  6.69D-01
 E= -613.625009638426     Delta-E=       -0.000000114418 Rises=F Damp=F
 DIIS: error= 3.69D-06 at cycle   5 NSaved=   5.
 NSaved= 5 IEnMin= 5 EnMin= -613.625009638426     IErMin= 5 ErrMin= 3.69D-06
 ErrMax= 3.69D-06  0.00D+00 EMaxC= 1.00D-01 BMatC= 1.38D-08 BMatP= 1.63D-07
 IDIUse=1 WtCom= 1.00D+00 WtEn= 0.00D+00
 Coeff-Com: -0.212D-02-0.349D-02 0.158D+00 0.287D+00 0.560D+00
 Coeff:     -0.212D-02-0.349D-02 0.158D+00 0.287D+00 0.560D+00
 Gap=     0.269 Goal=   None    Shift=    0.000
 RMSDP=9.10D-08 MaxDP=1.03D-05 DE=-1.14D-07 OVMax= 2.23D-05

 Cycle  13  Pass 1  IDiag  1:
 RMSU=  7.77D-08    CP:  1.00D+00  9.70D-01  1.05D+00  7.05D-01  8.69D-01
 E= -613.625009648413     Delta-E=       -0.000000009987 Rises=F Damp=F
 DIIS: error= 5.24D-07 at cycle   6 NSaved=   6.
 NSaved= 6 IEnMin= 6 EnMin= -613.625009648413     IErMin= 6 ErrMin= 5.24D-07
 ErrMax= 5.24D-07  0.00D+00 EMaxC= 1.00D-01 BMatC= 4.48D-10 BMatP= 1.38D-08
 IDIUse=1 WtCom= 1.00D+00 WtEn= 0.00D+00
 Coeff-Com: -0.133D-02-0.140D-02 0.388D-01 0.837D-01 0.222D+00 0.658D+00
 Coeff:     -0.133D-02-0.140D-02 0.388D-01 0.837D-01 0.222D+00 0.658D+00
 Gap=     0.269 Goal=   None    Shift=    0.000
 RMSDP=2.69D-08 MaxDP=2.20D-06 DE=-9.99D-09 OVMax= 3.85D-06

 Cycle  14  Pass 1  IDiag  1:
 RMSU=  1.25D-08    CP:  1.00D+00  9.70D-01  1.05D+00  7.24D-01  9.29D-01
                    CP:  9.02D-01
 E= -613.625009648848     Delta-E=       -0.000000000434 Rises=F Damp=F
 DIIS: error= 2.53D-07 at cycle   7 NSaved=   7.
 NSaved= 7 IEnMin= 7 EnMin= -613.625009648848     IErMin= 7 ErrMin= 2.53D-07
 ErrMax= 2.53D-07  0.00D+00 EMaxC= 1.00D-01 BMatC= 5.44D-11 BMatP= 4.48D-10
 IDIUse=1 WtCom= 1.00D+00 WtEn= 0.00D+00
 Coeff-Com: -0.326D-03-0.200D-03-0.698D-03 0.424D-02 0.328D-01 0.272D+00
 Coeff-Com:  0.692D+00
 Coeff:     -0.326D-03-0.200D-03-0.698D-03 0.424D-02 0.328D-01 0.272D+00
 Coeff:      0.692D+00
 Gap=     0.269 Goal=   None    Shift=    0.000
 RMSDP=1.38D-08 MaxDP=1.81D-06 DE=-4.34D-10 OVMax= 1.50D-06

 Cycle  15  Pass 1  IDiag  1:
 RMSU=  8.57D-09    CP:  1.00D+00  9.70D-01  1.05D+00  7.28D-01  9.56D-01
                    CP:  9.95D-01  9.54D-01
 E= -613.625009648893     Delta-E=       -0.000000000046 Rises=F Damp=F
 DIIS: error= 1.25D-07 at cycle   8 NSaved=   8.
 NSaved= 8 IEnMin= 8 EnMin= -613.625009648893     IErMin= 8 ErrMin= 1.25D-07
 ErrMax= 1.25D-07  0.00D+00 EMaxC= 1.00D-01 BMatC= 1.60D-11 BMatP= 5.44D-11
 IDIUse=1 WtCom= 1.00D+00 WtEn= 0.00D+00
 Coeff-Com: -0.124D-04 0.855D-04-0.615D-02-0.891D-02-0.984D-02 0.707D-01
 Coeff-Com:  0.402D+00 0.552D+00
 Coeff:     -0.124D-04 0.855D-04-0.615D-02-0.891D-02-0.984D-02 0.707D-01
 Coeff:      0.402D+00 0.552D+00
 Gap=     0.269 Goal=   None    Shift=    0.000
 RMSDP=3.58D-09 MaxDP=2.93D-07 DE=-4.59D-11 OVMax= 9.24D-07

 SCF Done:  E(RM06) =  -613.625009649     A.U. after   15 cycles
            NFock= 15  Conv=0.36D-08     -V/T= 2.0046
 KE= 6.107931343625D+02 PE=-3.208101524927D+03 EE= 1.095370648617D+03
 Leave Link  502 at Wed Jun 18 02:31:54 2014, MaxMem=  4294967296 cpu:     26446.5
 (Enter /home/ztw1e12/g09/l801.exe)
 DoSCS=F DFT=T ScalE2(SS,OS)=  1.000000  1.000000
 Range of M.O.s used for correlation:     1   932
 NBasis=  1036 NAE=    51 NBE=    51 NFC=     0 NFV=     0
 NROrb=    932 NOA=    51 NOB=    51 NVA=   881 NVB=   881

 **** Warning!!: The largest alpha MO coefficient is  0.13808977D+02

 Leave Link  801 at Wed Jun 18 02:31:55 2014, MaxMem=  4294967296 cpu:         0.4
 (Enter /home/ztw1e12/g09/l1002.exe)
 Minotr:  Closed shell wavefunction.
          IDoAtm=1111111111111111111111111111111
          Direct CPHF calculation.
          Differentiating once with respect to Fermi-contact.
          Electric field/nuclear overlap derivatives assumed to be zero.
          Requested convergence is 1.0D-10 RMS, and 1.0D-09 maximum.
          Secondary convergence is 1.0D-12 RMS, and 1.0D-12 maximum.
          NewPWx=T KeepS1=F KeepF1=F KeepIn=T MapXYZ=F SortEE=F KeepMc=T.
          MDV=    4294966050 using IRadAn=  199590.
 Using stored XC quadrature information.
          Solving linear equations simultaneously, MaxMat=       0.
          There are    31 degrees of freedom in the 1st order CPHF.  IDoFFX=0 NUNeed=    31.
     31 vectors produced by pass  0 Test12= 1.45D-17 3.23D-11 XBig12= 4.16D+01 2.57D+00.
 AX will form    31 AO Fock derivatives at one time.
 FoFJK:  IHMeth= 1 ICntrl=       0 DoSepK=F KAlg= 0 I1Cent=   0 FoldK=F
 IRaf= 510000000 NMat=  31 IRICut=       1 DoRegI=T DoRafI=F ISym2E=-1.
 FoFCou: FMM=F IPFlag=           0 FMFlag=      100000 FMFlg1=           0
         NFxFlg=           0 DoJE=F BraDBF=F KetDBF=F FulRan=T
         wScrn=  0.000000 ICntrl=       0 IOpCl=  0 I1Cent=           0 NGrid=           0
         NMat0=   31 NMatS0=      0 NMatT0=   31 NMatD0=   31 NMtDS0=    0 NMtDT0=    0
 Petite list used in FoFCou.
     31 vectors produced by pass  1 Test12= 1.45D-17 3.23D-11 XBig12= 3.49D-01 1.77D-01.
     31 vectors produced by pass  2 Test12= 1.45D-17 3.23D-11 XBig12= 1.75D-02 5.17D-02.
     31 vectors produced by pass  3 Test12= 1.45D-17 3.23D-11 XBig12= 4.02D-04 6.57D-03.
     31 vectors produced by pass  4 Test12= 1.45D-17 3.23D-11 XBig12= 6.50D-06 9.45D-04.
     31 vectors produced by pass  5 Test12= 1.45D-17 3.23D-11 XBig12= 1.42D-07 1.84D-04.
     31 vectors produced by pass  6 Test12= 1.45D-17 3.23D-11 XBig12= 4.76D-09 2.23D-05.
     31 vectors produced by pass  7 Test12= 1.45D-17 3.23D-11 XBig12= 1.36D-10 4.94D-06.
     31 vectors produced by pass  8 Test12= 1.45D-17 3.23D-11 XBig12= 2.98D-12 4.35D-07.
     31 vectors produced by pass  9 Test12= 1.45D-17 3.23D-11 XBig12= 7.19D-14 9.52D-08.
     31 vectors produced by pass 10 Test12= 1.45D-17 3.23D-11 XBig12= 3.04D-15 1.12D-08.
     30 vectors produced by pass 11 Test12= 1.45D-17 3.23D-11 XBig12= 3.25D-17 8.48D-10.
      7 vectors produced by pass 12 Test12= 1.45D-17 3.23D-11 XBig12= 2.38D-19 5.96D-11.
 InvSVY:  IOpt=1 It=  1 EMax= 1.33D-14
 Solved reduced A of dimension   378 with    31 vectors.
 Max diff in FC couplings:  IJMax=    23     8 Diff= 4.05D-04 IJMaxR=    27    18 DiffR= 1.22D+00
 Fermi Contact (FC) contribution to K (Hz):
                1             2             3             4             5 
      1  0.123400D+11
      2  0.271872D+02  0.123400D+11
      3 -0.110253D+01  0.187065D+02  0.123400D+11
      4  0.804500D-02  0.664793D+00  0.100706D-02  0.123400D+11
      5  0.981047D-02 -0.263460D-02  0.820798D-02  0.171438D+02  0.123400D+11
      6  0.162629D-02 -0.107106D-01  0.647188D-02  0.160824D+02 -0.820120D+00
      7  0.418086D-01  0.180960D-01  0.658585D-02  0.182780D+02 -0.849837D+00
      8 -0.960273D+01  0.280741D+01  0.437221D+00  0.163540D+01  0.198514D-01
      9  0.297025D+00  0.193322D+02 -0.738308D+00  0.138005D+01  0.377900D+00
     10  0.643452D-01  0.237470D+00  0.166084D+00 -0.986140D-01 -0.249568D-01
     11  0.288840D+02  0.139880D+02  0.207016D+00  0.131453D+00  0.287920D-02
     12  0.458941D+00  0.122743D+00 -0.230768D-01  0.227013D-02 -0.108174D-03
     13 -0.395987D+00  0.109161D+01  0.152369D-01  0.176959D-02  0.852672D-04
     14  0.207880D+00 -0.936444D-01  0.156471D-01  0.255811D-02 -0.273199D-04
     15  0.180357D+00 -0.758466D-01  0.860075D-02 -0.119508D-02  0.703049D-04
     16  0.964525D+00 -0.272196D-01 -0.655624D-03  0.529074D-03  0.379878D-04
     17  0.122385D+00 -0.409716D+00  0.287529D+00  0.332730D-01  0.288762D-01
     18 -0.156656D+00  0.897812D+00 -0.838960D-01 -0.832198D-02 -0.179940D-02
     19 -0.203097D-02  0.105754D+00 -0.191921D-02 -0.886046D-03  0.269496D-03
     20  0.588317D-01  0.118806D-01  0.190639D-01  0.229299D-02  0.603412D-03
     21  0.705231D-01  0.470369D-01  0.249184D-01  0.110550D-02  0.417714D-03
     22  0.487322D+00  0.862177D+00  0.236348D+00  0.106427D+00  0.118434D-01
     23  0.724891D+00 -0.698036D+00  0.109724D+01  0.169161D+02 -0.676393D+00
     24 -0.400102D-01  0.962215D+00 -0.278182D-01 -0.897987D+00  0.157941D+00
     25  0.143833D+00  0.107616D+00 -0.258750D-01  0.348904D+00  0.315062D+00
     26 -0.269293D-02  0.143006D-01  0.732190D-03  0.424860D+00 -0.466520D-02
     27  0.485036D-02 -0.508667D-02  0.633563D-03  0.124903D+01  0.124728D-01
     28  0.287374D-02 -0.127808D-01  0.123127D-02  0.246083D+00 -0.942319D-02
     29 -0.322311D+00  0.163597D+02 -0.886093D+00 -0.254740D+00  0.116638D+01
     30  0.105557D+01 -0.100285D+01  0.113247D+00  0.340868D-01 -0.190938D-01
     31  0.648048D-01 -0.380104D+00  0.203957D+00  0.934056D+00  0.311050D-01
                6             7             8             9            10 
      6  0.123400D+11
      7 -0.740145D+00  0.123400D+11
      8 -0.197254D-01 -0.442291D-01  0.123400D+11
      9  0.461217D+00  0.275199D+00  0.270686D+00  0.123400D+11
     10 -0.512410D-01 -0.402572D-02  0.130100D-02  0.318688D+02  0.123400D+11
     11  0.516968D-03 -0.112872D-01  0.648410D+01  0.122359D+01  0.180112D+00
     12 -0.140859D-03 -0.802291D-03  0.490083D+00  0.505873D-01  0.186762D-03
     13 -0.832538D-04  0.116372D-02  0.608521D+00  0.317442D+00  0.184300D-01
     14  0.330909D-03  0.115159D-03  0.241998D+00 -0.575473D-02 -0.134345D-02
     15  0.258411D-03  0.346157D-03  0.240615D+00 -0.236420D-02 -0.114417D-02
     16 -0.219708D-04  0.929738D-04  0.177891D+00  0.235375D-01 -0.903376D-03
     17  0.239203D-01  0.281507D-01  0.477296D-01  0.265840D+02  0.417259D+00
     18  0.976873D-03  0.392203D-03  0.702977D-01  0.126807D+02  0.962765D-01
     19  0.213651D-02  0.573858D-03 -0.237160D-03  0.346527D+00 -0.953514D-02
     20  0.192461D-03  0.530470D-03  0.415301D-02  0.331403D+00 -0.875939D-02
     21 -0.123368D-03  0.406105D-03  0.188044D-02  0.411164D+00 -0.149070D-01
     22  0.108115D-01  0.478413D-02  0.616762D+00  0.569526D+01  0.422750D+00
     23 -0.522978D+00 -0.794585D+00 -0.204866D-02  0.361354D-02  0.400474D-03
     24  0.118328D+00  0.429583D+00  0.786262D-01 -0.337847D-01  0.563801D-02
     25  0.132530D+01  0.375785D+00  0.827523D+00  0.141678D+00 -0.559484D-02
     26 -0.713045D-02 -0.275790D-01  0.101094D+00  0.989374D-02 -0.197611D-03
     27  0.820172D-01 -0.837096D-02 -0.966903D-02  0.559398D-03  0.104908D-04
     28  0.675346D-03 -0.558901D-02  0.301796D-01 -0.280511D-02 -0.307092D-03
     29  0.177918D+00  0.282617D+00  0.295765D+00  0.531713D+00  0.463850D+00
     30 -0.878355D-02 -0.535089D-02  0.643686D-01  0.782217D+00 -0.218952D-01
     31 -0.505266D-02 -0.136021D-01 -0.194586D-01  0.178793D+01 -0.219871D-01
               11            12            13            14            15 
     11  0.123400D+11
     12  0.312395D+02  0.123400D+11
     13  0.170343D+02  0.312377D+00  0.123400D+11
     14 -0.605191D+00  0.680244D-01  0.195738D+02  0.123400D+11
     15 -0.511247D+00  0.152629D+00  0.203310D+02 -0.732434D+00  0.123400D+11
     16 -0.388190D+00  0.290245D+00  0.182542D+02 -0.736402D+00 -0.760595D+00
     17 -0.637879D-01 -0.345634D-04 -0.802779D-02  0.699936D-03  0.190186D-03
     18  0.177327D-01  0.978376D-03  0.106469D-01  0.169194D-02  0.123941D-02
     19  0.639731D-02  0.458476D-04  0.489054D-04 -0.572912D-04 -0.362632D-04
     20 -0.291991D-02 -0.168984D-03 -0.364286D-03  0.420436D-04 -0.411233D-04
     21  0.135039D-01 -0.546794D-04  0.194306D-02  0.132091D-03 -0.497978D-04
     22  0.176246D+00 -0.172689D-02  0.677149D-02  0.691059D-02  0.355168D-02
     23 -0.211354D-01  0.168113D-02 -0.897670D-02 -0.365151D-03 -0.900939D-03
     24  0.112441D-02 -0.178711D-03  0.104609D-01  0.285717D-03  0.298008D-05
     25  0.227495D+00 -0.100815D-01  0.122912D+00  0.270099D-01  0.553935D-02
     26  0.931064D-01 -0.118179D-02  0.295962D-01  0.118770D-03  0.181136D-02
     27  0.164269D-01  0.148658D-02 -0.566531D-02  0.275002D-02  0.154777D-02
     28  0.638200D-01 -0.140258D-02  0.368412D-02  0.240400D-02  0.167914D-02
     29  0.129992D+00 -0.317125D-01 -0.125017D+00  0.787943D-01  0.990365D-01
     30 -0.408862D-01 -0.594808D-02 -0.428396D-02  0.256258D-02  0.423593D-02
     31  0.506460D-01 -0.672733D-02 -0.102599D-02 -0.376684D-04  0.793251D-04
               16            17            18            19            20 
     16  0.123400D+11
     17 -0.132316D-03  0.123400D+11
     18  0.225052D-03  0.272385D+02  0.123400D+11
     19  0.297132D-05 -0.755741D+00  0.170723D+02  0.123400D+11
     20  0.123715D-03 -0.118115D+01  0.177915D+02 -0.727926D+00  0.123400D+11
     21  0.339321D-03 -0.120867D+01  0.180820D+02 -0.736615D+00 -0.922980D+00
     22  0.190361D-02 -0.957887D+01  0.375476D+01  0.830273D+00  0.427618D+00
     23 -0.375211D-03 -0.540782D-01  0.461758D-02  0.138886D-03 -0.118618D-02
     24  0.282221D-03  0.106622D-01 -0.166938D-02  0.133465D-03  0.345522D-04
     25  0.511739D-02 -0.438706D-02  0.457496D-02  0.368579D-03  0.216511D-03
     26  0.742847D-03 -0.669851D-04  0.221166D-04 -0.345165D-04 -0.118528D-04
     27  0.120378D-03  0.328191D-03  0.533500D-05  0.783751D-04 -0.182096D-04
     28  0.307729D-03 -0.190185D-02 -0.923542D-04 -0.212199D-04 -0.843171D-05
     29  0.196087D-02  0.141413D+01 -0.386291D-01 -0.134447D-02  0.112988D-01
     30  0.542262D-03 -0.362030D-02  0.166713D-01 -0.103736D-03 -0.287689D-03
     31  0.361671D-03  0.103434D+00  0.610914D-01  0.539105D-04  0.210278D-02
               21            22            23            24            25 
     21  0.123400D+11
     22  0.441712D+00  0.123400D+11
     23 -0.982650D-04  0.561250D-01  0.123400D+11
     24  0.894806D-04  0.133371D-01  0.172585D+02  0.123400D+11
     25 -0.239774D-04  0.281989D-01  0.169253D+02 -0.896449D+00  0.123400D+11
     26  0.550269D-04 -0.902483D-03 -0.753156D+00  0.433963D+00  0.174187D+02
     27 -0.120012D-04 -0.423944D-04 -0.535919D+00  0.113563D+00  0.170753D+02
     28 -0.264779D-04  0.160062D-02 -0.584043D+00  0.168699D+00  0.171638D+02
     29 -0.496425D-02  0.181112D+00  0.172323D+02 -0.776141D+00 -0.178558D+00
     30 -0.706867D-03  0.625023D-04 -0.589138D+00  0.248606D+00  0.998834D+00
     31 -0.182864D-02 -0.644487D-02 -0.651242D+00  0.525170D-01  0.640699D+00
               26            27            28            29            30 
     26  0.123400D+11
     27 -0.748430D+00  0.123400D+11
     28 -0.837860D+00 -0.773413D+00  0.123400D+11
     29  0.214963D+00  0.423367D+00  0.128871D+01  0.123400D+11
     30 -0.199530D-01  0.233871D-02  0.373061D-01  0.169702D+02  0.123400D+11
     31 -0.122322D-01 -0.180340D-01  0.127141D-01  0.173499D+02 -0.918125D+00
               31 
     31  0.123400D+11
 Fermi Contact (FC) contribution to J (Hz):
                1             2             3             4             5 
      1  0.243533D+11
      2  0.536545D+02  0.243533D+11
      3 -0.865146D+01  0.146788D+03  0.385007D+12
      4  0.158770D-01  0.131199D+01  0.790230D-02  0.243533D+11
      5  0.769818D-01 -0.206734D-01  0.256089D+00  0.134526D+03  0.385007D+12
      6  0.127614D-01 -0.840452D-01  0.201923D+00  0.126197D+03 -0.255877D+02
      7  0.328068D+00  0.141997D+00  0.205478D+00  0.143426D+03 -0.265149D+02
      8  0.102190D+02 -0.298759D+01 -0.185000D+01 -0.174036D+01 -0.839966D-01
      9  0.168476D+00  0.109655D+02 -0.166509D+01  0.782783D+00  0.852273D+00
     10  0.504910D+00  0.186340D+01  0.518181D+01 -0.773814D+00 -0.778650D+00
     11  0.163834D+02  0.793416D+01  0.466879D+00  0.745619D-01  0.649343D-02
     12  0.360127D+01  0.963156D+00 -0.719994D+00  0.178135D-01 -0.337503D-02
     13 -0.781491D+00  0.215433D+01  0.119562D+00  0.349233D-02  0.669084D-03
     14  0.163122D+01 -0.734818D+00  0.488190D+00  0.200732D-01 -0.852381D-03
     15  0.141524D+01 -0.595161D+00  0.268343D+00 -0.937770D-02  0.219351D-02
     16  0.756853D+01 -0.213590D+00 -0.204554D-01  0.415159D-02  0.118522D-02
     17  0.241530D+00 -0.808585D+00  0.225621D+01  0.656651D-01  0.226588D+00
     18 -0.309165D+00  0.177185D+01 -0.658324D+00 -0.164236D-01 -0.141197D-01
     19 -0.159368D-01  0.829838D+00 -0.598794D-01 -0.695271D-02  0.840825D-02
     20  0.461647D+00  0.932261D-01  0.594791D+00  0.179929D-01  0.188264D-01
     21  0.553388D+00  0.369094D+00  0.777452D+00  0.867476D-02  0.130327D-01
     22 -0.518598D+00 -0.917513D+00 -0.100005D+01 -0.113257D+00 -0.501129D-01
     23  0.143059D+01 -0.137759D+01  0.860993D+01  0.333844D+02 -0.530759D+01
     24 -0.313956D+00  0.755041D+01 -0.867925D+00 -0.704642D+01  0.492776D+01
     25  0.283857D+00  0.212382D+00 -0.203038D+00  0.688571D+00  0.247226D+01
     26 -0.211312D-01  0.112215D+00  0.228443D-01  0.333384D+01 -0.145554D+00
     27  0.380603D-01 -0.399146D-01  0.197671D-01  0.980101D+01  0.389152D+00
     28  0.225500D-01 -0.100289D+00  0.384157D-01  0.193099D+01 -0.294003D+00
     29 -0.636089D+00  0.322863D+02 -0.695308D+01 -0.502736D+00  0.915247D+01
     30  0.828297D+01 -0.786928D+01  0.353330D+01  0.267476D+00 -0.595725D+00
     31  0.508517D+00 -0.298264D+01  0.636344D+01  0.732945D+01  0.970475D+00
                6             7             8             9            10 
      6  0.385007D+12
      7 -0.230925D+02  0.385007D+12
      8  0.834635D-01  0.187145D+00  0.708114D+10
      9  0.104018D+01  0.620653D+00 -0.827911D-01  0.201170D+10
     10 -0.159872D+01 -0.125602D+00 -0.550490D-02  0.718733D+02  0.385007D+12
     11  0.116591D-02 -0.254558D-01 -0.198321D+01  0.199474D+00  0.406205D+00
     12 -0.439479D-02 -0.250314D-01 -0.207368D+01  0.114089D+00  0.582696D-02
     13 -0.653284D-03  0.913161D-02 -0.647577D+00  0.180057D+00  0.144618D+00
     14  0.103243D-01  0.359294D-02 -0.102396D+01 -0.129786D-01 -0.419157D-01
     15  0.806243D-02  0.108001D-01 -0.101811D+01 -0.533195D-02 -0.356979D-01
     16 -0.685487D-03  0.290078D-02 -0.752705D+00  0.530837D-01 -0.281853D-01
     17  0.187700D+00  0.220896D+00 -0.507929D-01  0.150788D+02  0.327419D+01
     18  0.766543D-02  0.307758D-02 -0.748094D-01  0.719263D+01  0.755472D+00
     19  0.666589D-01  0.179043D-01  0.100349D-02  0.781516D+00 -0.297496D+00
     20  0.600476D-02  0.165507D-01 -0.175725D-01  0.747409D+00 -0.273293D+00
     21 -0.384909D-02  0.126705D-01 -0.795665D-02  0.927293D+00 -0.465097D+00
     22 -0.457463D-01 -0.202429D-01  0.353921D+00 -0.174193D+01 -0.178877D+01
     23 -0.410376D+01 -0.623503D+01  0.218015D-02  0.204965D-02  0.314248D-02
     24  0.369183D+01  0.134030D+02 -0.332689D+00 -0.761941D-01  0.175906D+00
     25  0.103995D+02  0.294875D+01 -0.880634D+00  0.803618D-01 -0.439022D-01
     26 -0.222470D+00 -0.860463D+00 -0.427754D+00  0.223132D-01 -0.616544D-02
     27  0.255893D+01 -0.261173D+00  0.409123D-01  0.126160D-02  0.327312D-03
     28  0.210708D-01 -0.174377D+00 -0.127698D+00 -0.632632D-02 -0.958126D-02
     29  0.139610D+01  0.221767D+01 -0.314748D+00  0.301594D+00  0.363979D+01
     30 -0.274047D+00 -0.166947D+00 -0.272361D+00  0.176412D+01 -0.683130D+00
     31 -0.157643D+00 -0.424385D+00  0.823347D-01  0.403228D+01 -0.685995D+00
               11            12            13            14            15 
     11  0.201170D+10
     12  0.704540D+02  0.385007D+12
     13  0.966206D+01  0.245119D+01  0.243533D+11
     14 -0.136488D+01  0.212236D+01  0.153594D+03  0.385007D+12
     15 -0.115301D+01  0.476203D+01  0.159535D+03 -0.228519D+02  0.385007D+12
     16 -0.875479D+00  0.905562D+01  0.143239D+03 -0.229757D+02 -0.237305D+02
     17 -0.361813D-01 -0.271216D-03 -0.158430D-01  0.549233D-02  0.149237D-02
     18  0.100582D-01  0.767722D-02  0.210119D-01  0.132765D-01  0.972550D-02
     19  0.144277D-01  0.143044D-02  0.383756D-03 -0.178748D-02 -0.113141D-02
     20 -0.658524D-02 -0.527228D-02 -0.285852D-02  0.131176D-02 -0.128305D-02
     21  0.304551D-01 -0.170599D-02  0.152470D-01  0.412124D-02 -0.155369D-02
     22 -0.539062D-01  0.730694D-02 -0.720609D-02 -0.292406D-01 -0.150281D-01
     23 -0.119882D-01  0.131917D-01 -0.177157D-01 -0.286530D-02 -0.706958D-02
     24  0.253586D-02 -0.557577D-02  0.820857D-01  0.891434D-02  0.929784D-04
     25  0.129038D+00 -0.791089D-01  0.242570D+00  0.211944D+00  0.434668D-01
     26  0.209981D+00 -0.368718D-01  0.232238D+00  0.370561D-02  0.565145D-01
     27  0.370474D-01  0.463812D-01 -0.444552D-01  0.858007D-01  0.482903D-01
     28  0.143932D+00 -0.437604D-01  0.289089D-01  0.750047D-01  0.523891D-01
     29  0.737332D-01 -0.248845D+00 -0.246723D+00  0.618291D+00  0.777129D+00
     30 -0.922099D-01 -0.185580D+00 -0.336159D-01  0.799525D-01  0.132161D+00
     31  0.114221D+00 -0.209892D+00 -0.805086D-02 -0.117525D-02  0.247494D-02
               16            17            18            19            20 
     16  0.385007D+12
     17 -0.103827D-02  0.243533D+11
     18  0.176596D-02  0.537559D+02  0.243533D+11
     19  0.927050D-04 -0.593023D+01  0.133965D+03  0.385007D+12
     20  0.385992D-02 -0.926839D+01  0.139608D+03 -0.227113D+02  0.385007D+12
     21  0.105868D-01 -0.948430D+01  0.141888D+03 -0.229823D+02 -0.287969D+02
     22 -0.805469D-02  0.101936D+02 -0.399574D+01 -0.351311D+01 -0.180937D+01
     23 -0.294425D-02 -0.106725D+00  0.911290D-02  0.108982D-02 -0.930782D-02
     24  0.880528D-02  0.836651D-01 -0.130994D-01  0.416410D-02  0.107803D-02
     25  0.401557D-01 -0.865798D-02  0.902879D-02  0.289220D-02  0.169894D-02
     26  0.231768D-01 -0.525625D-03  0.173547D-03 -0.107691D-02 -0.369807D-03
     27  0.375577D-02  0.257528D-02  0.418632D-04  0.244530D-02 -0.568139D-03
     28  0.960114D-02 -0.149236D-01 -0.724695D-03 -0.662061D-03 -0.263069D-03
     29  0.153867D-01  0.279081D+01 -0.762355D-01 -0.105499D-01  0.886606D-01
     30  0.169186D-01 -0.284081D-01  0.130818D+00 -0.323656D-02 -0.897589D-02
     31  0.112841D-01  0.811637D+00  0.479378D+00  0.168200D-02  0.656066D-01
               21            22            23            24            25 
     21  0.385007D+12
     22 -0.186900D+01  0.708114D+10
     23 -0.771076D-03 -0.597272D-01  0.243533D+11
     24  0.279179D-02 -0.564331D-01  0.135426D+03  0.385007D+12
     25 -0.188149D-03 -0.300087D-01  0.334024D+02 -0.703435D+01  0.243533D+11
     26  0.171684D-02  0.381865D-02 -0.590994D+01  0.135396D+02  0.136683D+03
     27 -0.374438D-03  0.179382D-03 -0.420530D+01  0.354317D+01  0.133988D+03
     28 -0.826110D-03 -0.677268D-02 -0.458293D+01  0.526339D+01  0.134682D+03
     29 -0.389540D-01 -0.192736D+00  0.340085D+02 -0.609031D+01 -0.352389D+00
     30 -0.220542D-01 -0.264464D-03 -0.462291D+01  0.775649D+01  0.783775D+01
     31 -0.570536D-01  0.272700D-01 -0.511024D+01  0.163853D+01  0.502751D+01
               26            27            28            29            30 
     26  0.385007D+12
     27 -0.233510D+02  0.385007D+12
     28 -0.261412D+02 -0.241305D+02  0.385007D+12
     29  0.168679D+01  0.332212D+01  0.101124D+02  0.243533D+11
     30 -0.622533D+00  0.729675D-01  0.116395D+01  0.133163D+03  0.385007D+12
     31 -0.381645D+00 -0.562660D+00  0.396679D+00  0.136143D+03 -0.286454D+02
               31 
     31  0.385007D+12
 End of Minotr F.D. properties file   721 does not exist.
 End of Minotr F.D. properties file   722 does not exist.
 End of Minotr F.D. properties file   788 does not exist.
 Leave Link 1002 at Wed Jun 18 09:25:19 2014, MaxMem=  4294967296 cpu:    395909.9
 (Enter /home/ztw1e12/g09/l601.exe)
 Copying SCF densities to generalized density rwf, IOpCl= 0 IROHF=0.

 **********************************************************************

            Population analysis using the SCF density.

 **********************************************************************

 Orbital symmetries:
       Occupied  (A) (A) (A) (A) (A) (A) (A) (A) (A) (A) (A) (A)
                 (A) (A) (A) (A) (A) (A) (A) (A) (A) (A) (A) (A)
                 (A) (A) (A) (A) (A) (A) (A) (A) (A) (A) (A) (A)
                 (A) (A) (A) (A) (A) (A) (A) (A) (A) (A) (A) (A)
                 (A) (A) (A)
       Virtual   (A) (A) (A) (A) (A) (A) (A) (A) (A) (A) (A) (A)
                 (A) (A) (A) (A) (A) (A) (A) (A) (A) (A) (A) (A)
                 (A) (A) (A) (A) (A) (A) (A) (A) (A) (A) (A) (A)
                 (A) (A) (A) (A) (A) (A) (A) (A) (A) (A) (A) (A)
                 (A) (A) (A) (A) (A) (A) (A) (A) (A) (A) (A) (A)
                 (A) (A) (A) (A) (A) (A) (A) (A) (A) (A) (A) (A)
                 (A) (A) (A) (A) (A) (A) (A) (A) (A) (A) (A) (A)
                 (A) (A) (A) (A) (A) (A) (A) (A) (A) (A) (A) (A)
                 (A) (A) (A) (A) (A) (A) (A) (A) (A) (A) (A) (A)
                 (A) (A) (A) (A) (A) (A) (A) (A) (A) (A) (A) (A)
                 (A) (A) (A) (A) (A) (A) (A) (A) (A) (A) (A) (A)
                 (A) (A) (A) (A) (A) (A) (A) (A) (A) (A) (A) (A)
                 (A) (A) (A) (A) (A) (A) (A) (A) (A) (A) (A) (A)
                 (A) (A) (A) (A) (A) (A) (A) (A) (A) (A) (A) (A)
                 (A) (A) (A) (A) (A) (A) (A) (A) (A) (A) (A) (A)
                 (A) (A) (A) (A) (A) (A) (A) (A) (A) (A) (A) (A)
                 (A) (A) (A) (A) (A) (A) (A) (A) (A) (A) (A) (A)
                 (A) (A) (A) (A) (A) (A) (A) (A) (A) (A) (A) (A)
                 (A) (A) (A) (A) (A) (A) (A) (A) (A) (A) (A) (A)
                 (A) (A) (A) (A) (A) (A) (A) (A) (A) (A) (A) (A)
                 (A) (A) (A) (A) (A) (A) (A) (A) (A) (A) (A) (A)
                 (A) (A) (A) (A) (A) (A) (A) (A) (A) (A) (A) (A)
                 (A) (A) (A) (A) (A) (A) (A) (A) (A) (A) (A) (A)
                 (A) (A) (A) (A) (A) (A) (A) (A) (A) (A) (A) (A)
                 (A) (A) (A) (A) (A) (A) (A) (A) (A) (A) (A) (A)
                 (A) (A) (A) (A) (A) (A) (A) (A) (A) (A) (A) (A)
                 (A) (A) (A) (A) (A) (A) (A) (A) (A) (A) (A) (A)
                 (A) (A) (A) (A) (A) (A) (A) (A) (A) (A) (A) (A)
                 (A) (A) (A) (A) (A) (A) (A) (A) (A) (A) (A) (A)
                 (A) (A) (A) (A) (A) (A) (A) (A) (A) (A) (A) (A)
                 (A) (A) (A) (A) (A) (A) (A) (A) (A) (A) (A) (A)
                 (A) (A) (A) (A) (A) (A) (A) (A) (A) (A) (A) (A)
                 (A) (A) (A) (A) (A) (A) (A) (A) (A) (A) (A) (A)
                 (A) (A) (A) (A) (A) (A) (A) (A) (A) (A) (A) (A)
                 (A) (A) (A) (A) (A) (A) (A) (A) (A) (A) (A) (A)
                 (A) (A) (A) (A) (A) (A) (A) (A) (A) (A) (A) (A)
                 (A) (A) (A) (A) (A) (A) (A) (A) (A) (A) (A) (A)
                 (A) (A) (A) (A) (A) (A) (A) (A) (A) (A) (A) (A)
                 (A) (A) (A) (A) (A) (A) (A) (A) (A) (A) (A) (A)
                 (A) (A) (A) (A) (A) (A) (A) (A) (A) (A) (A) (A)
                 (A) (A) (A) (A) (A) (A) (A) (A) (A) (A) (A) (A)
                 (A) (A) (A) (A) (A) (A) (A) (A) (A) (A) (A) (A)
                 (A) (A) (A) (A) (A) (A) (A) (A) (A) (A) (A) (A)
                 (A) (A) (A) (A) (A) (A) (A) (A) (A) (A) (A) (A)
                 (A) (A) (A) (A) (A) (A) (A) (A) (A) (A) (A) (A)
                 (A) (A) (A) (A) (A) (A) (A) (A) (A) (A) (A) (A)
                 (A) (A) (A) (A) (A) (A) (A) (A) (A) (A) (A) (A)
                 (A) (A) (A) (A) (A) (A) (A) (A) (A) (A) (A) (A)
                 (A) (A) (A) (A) (A) (A) (A) (A) (A) (A) (A) (A)
                 (A) (A) (A) (A) (A) (A) (A) (A) (A) (A) (A) (A)
                 (A) (A) (A) (A) (A) (A) (A) (A) (A) (A) (A) (A)
                 (A) (A) (A) (A) (A) (A) (A) (A) (A) (A) (A) (A)
                 (A) (A) (A) (A) (A) (A) (A) (A) (A) (A) (A) (A)
                 (A) (A) (A) (A) (A) (A) (A) (A) (A) (A) (A) (A)
                 (A) (A) (A) (A) (A) (A) (A) (A) (A) (A) (A) (A)
                 (A) (A) (A) (A) (A) (A) (A) (A) (A) (A) (A) (A)
                 (A) (A) (A) (A) (A) (A) (A) (A) (A) (A) (A) (A)
                 (A) (A) (A) (A) (A) (A) (A) (A) (A) (A) (A) (A)
                 (A) (A) (A) (A) (A) (A) (A) (A) (A) (A) (A) (A)
                 (A) (A) (A) (A) (A) (A) (A) (A) (A) (A) (A) (A)
                 (A) (A) (A) (A) (A) (A) (A) (A) (A) (A) (A) (A)
                 (A) (A) (A) (A) (A) (A) (A) (A) (A) (A) (A) (A)
                 (A) (A) (A) (A) (A) (A) (A) (A) (A) (A) (A) (A)
                 (A) (A) (A) (A) (A) (A) (A) (A) (A) (A) (A) (A)
                 (A) (A) (A) (A) (A) (A) (A) (A) (A) (A) (A) (A)
                 (A) (A) (A) (A) (A) (A) (A) (A) (A) (A) (A) (A)
                 (A) (A) (A) (A) (A) (A) (A) (A) (A) (A) (A) (A)
                 (A) (A) (A) (A) (A) (A) (A) (A) (A) (A) (A) (A)
                 (A) (A) (A) (A) (A) (A) (A) (A) (A) (A) (A) (A)
                 (A) (A) (A) (A) (A) (A) (A) (A) (A) (A) (A) (A)
                 (A) (A) (A) (A) (A) (A) (A) (A) (A) (A) (A) (A)
                 (A) (A) (A) (A) (A) (A) (A) (A) (A) (A) (A) (A)
                 (A) (A) (A) (A) (A) (A) (A) (A) (A) (A) (A) (A)
                 (A) (A) (A) (A) (A)
 The electronic state is 1-A.
 Alpha  occ. eigenvalues --  -19.17251 -19.16349 -14.41843 -14.41322 -10.33500
 Alpha  occ. eigenvalues --  -10.33248 -10.29250 -10.27154 -10.25719 -10.25370
 Alpha  occ. eigenvalues --  -10.23721 -10.23071 -10.22908  -1.05415  -1.04026
 Alpha  occ. eigenvalues --   -0.94353  -0.94127  -0.83634  -0.78459  -0.74281
 Alpha  occ. eigenvalues --   -0.72093  -0.70032  -0.66519  -0.60824  -0.59592
 Alpha  occ. eigenvalues --   -0.57882  -0.54782  -0.50669  -0.49473  -0.48031
 Alpha  occ. eigenvalues --   -0.46985  -0.46377  -0.45391  -0.45351  -0.44475
 Alpha  occ. eigenvalues --   -0.42367  -0.41349  -0.40979  -0.40526  -0.40221
 Alpha  occ. eigenvalues --   -0.39421  -0.38602  -0.38001  -0.36514  -0.35198
 Alpha  occ. eigenvalues --   -0.34552  -0.32963  -0.28230  -0.27597  -0.26105
 Alpha  occ. eigenvalues --   -0.25960
 Alpha virt. eigenvalues --    0.00924   0.02459   0.02616   0.03723   0.04675
 Alpha virt. eigenvalues --    0.05105   0.06903   0.07479   0.07819   0.08555
 Alpha virt. eigenvalues --    0.10047   0.10819   0.11341   0.11730   0.12144
 Alpha virt. eigenvalues --    0.12518   0.12622   0.13830   0.14404   0.15015
 Alpha virt. eigenvalues --    0.16060   0.17103   0.18252   0.19759   0.20288
 Alpha virt. eigenvalues --    0.21153   0.23160   0.23270   0.24784   0.25108
 Alpha virt. eigenvalues --    0.25444   0.25771   0.26804   0.27150   0.27805
 Alpha virt. eigenvalues --    0.29207   0.29567   0.30470   0.30961   0.31754
 Alpha virt. eigenvalues --    0.32737   0.34239   0.34652   0.34901   0.35970
 Alpha virt. eigenvalues --    0.36896   0.37254   0.37637   0.38545   0.38912
 Alpha virt. eigenvalues --    0.39406   0.39973   0.40706   0.41186   0.41256
 Alpha virt. eigenvalues --    0.41847   0.42427   0.42657   0.43131   0.43276
 Alpha virt. eigenvalues --    0.43599   0.44559   0.45003   0.45685   0.45882
 Alpha virt. eigenvalues --    0.46090   0.47503   0.47707   0.48375   0.49698
 Alpha virt. eigenvalues --    0.50059   0.50563   0.51367   0.52482   0.52884
 Alpha virt. eigenvalues --    0.53479   0.54726   0.55234   0.55323   0.57116
 Alpha virt. eigenvalues --    0.57351   0.59475   0.59897   0.61084   0.61902
 Alpha virt. eigenvalues --    0.63074   0.64476   0.65243   0.66501   0.66778
 Alpha virt. eigenvalues --    0.69695   0.70674   0.71435   0.72517   0.74150
 Alpha virt. eigenvalues --    0.74865   0.75543   0.76350   0.78141   0.78356
 Alpha virt. eigenvalues --    0.79840   0.80935   0.82207   0.83268   0.83637
 Alpha virt. eigenvalues --    0.85290   0.85984   0.86350   0.86776   0.87655
 Alpha virt. eigenvalues --    0.88766   0.89396   0.89709   0.91219   0.92267
 Alpha virt. eigenvalues --    0.93451   0.93987   0.94507   0.95425   0.95705
 Alpha virt. eigenvalues --    0.96104   0.96195   0.97247   0.97543   0.98438
 Alpha virt. eigenvalues --    0.99661   1.00320   1.01461   1.02564   1.03496
 Alpha virt. eigenvalues --    1.03802   1.04041   1.05072   1.05577   1.06394
 Alpha virt. eigenvalues --    1.07954   1.08952   1.09353   1.10155   1.10581
 Alpha virt. eigenvalues --    1.11448   1.11866   1.12399   1.13876   1.14714
 Alpha virt. eigenvalues --    1.15303   1.16478   1.17312   1.18971   1.19151
 Alpha virt. eigenvalues --    1.19850   1.19966   1.20639   1.21505   1.21787
 Alpha virt. eigenvalues --    1.22144   1.22413   1.23517   1.23576   1.24308
 Alpha virt. eigenvalues --    1.25116   1.25576   1.26319   1.26552   1.26666
 Alpha virt. eigenvalues --    1.26977   1.28502   1.29190   1.29676   1.30385
 Alpha virt. eigenvalues --    1.30693   1.31063   1.31564   1.32727   1.33797
 Alpha virt. eigenvalues --    1.34495   1.35613   1.36481   1.37155   1.37393
 Alpha virt. eigenvalues --    1.38340   1.39687   1.39813   1.40839   1.42774
 Alpha virt. eigenvalues --    1.43698   1.44968   1.45771   1.47013   1.48558
 Alpha virt. eigenvalues --    1.49570   1.50012   1.52281   1.53815   1.56949
 Alpha virt. eigenvalues --    1.57035   1.60816   1.61735   1.62926   1.63291
 Alpha virt. eigenvalues --    1.65137   1.67609   1.70080   1.71018   1.73520
 Alpha virt. eigenvalues --    1.74582   1.76075   1.77910   1.80440   1.82179
 Alpha virt. eigenvalues --    1.84528   1.88056   1.90028   1.91962   1.92503
 Alpha virt. eigenvalues --    1.93942   1.97127   1.98176   1.99540   2.00726
 Alpha virt. eigenvalues --    2.01173   2.02959   2.04020   2.05710   2.07260
 Alpha virt. eigenvalues --    2.09376   2.10179   2.13631   2.14665   2.17026
 Alpha virt. eigenvalues --    2.17913   2.19313   2.20822   2.21886   2.23969
 Alpha virt. eigenvalues --    2.24541   2.26892   2.28585   2.30543   2.31508
 Alpha virt. eigenvalues --    2.34211   2.35332   2.36251   2.36779   2.39508
 Alpha virt. eigenvalues --    2.40405   2.41730   2.42351   2.43739   2.45185
 Alpha virt. eigenvalues --    2.45882   2.46022   2.47256   2.47622   2.49628
 Alpha virt. eigenvalues --    2.51380   2.51511   2.53814   2.54771   2.55616
 Alpha virt. eigenvalues --    2.56435   2.57331   2.57522   2.59660   2.63441
 Alpha virt. eigenvalues --    2.63677   2.66195   2.67610   2.68419   2.69234
 Alpha virt. eigenvalues --    2.70130   2.71119   2.72027   2.72212   2.73735
 Alpha virt. eigenvalues --    2.74053   2.75381   2.76773   2.77597   2.78274
 Alpha virt. eigenvalues --    2.79917   2.80737   2.81359   2.82506   2.83376
 Alpha virt. eigenvalues --    2.84957   2.85046   2.85675   2.86711   2.86926
 Alpha virt. eigenvalues --    2.88742   2.89626   2.89876   2.90825   2.91695
 Alpha virt. eigenvalues --    2.92659   2.93603   2.94401   2.95073   2.95462
 Alpha virt. eigenvalues --    2.95859   2.96458   2.98045   2.98440   2.98839
 Alpha virt. eigenvalues --    2.99855   3.00228   3.01627   3.02006   3.03288
 Alpha virt. eigenvalues --    3.03871   3.05123   3.05865   3.05920   3.06573
 Alpha virt. eigenvalues --    3.07078   3.08237   3.09085   3.09615   3.10520
 Alpha virt. eigenvalues --    3.11733   3.12059   3.14056   3.15128   3.16044
 Alpha virt. eigenvalues --    3.16918   3.17704   3.18799   3.19470   3.20569
 Alpha virt. eigenvalues --    3.20837   3.22408   3.23350   3.23921   3.25084
 Alpha virt. eigenvalues --    3.26270   3.26597   3.27720   3.28227   3.28388
 Alpha virt. eigenvalues --    3.29023   3.29992   3.30599   3.30836   3.32349
 Alpha virt. eigenvalues --    3.32670   3.34017   3.34543   3.35632   3.37188
 Alpha virt. eigenvalues --    3.37383   3.38386   3.38833   3.39346   3.40832
 Alpha virt. eigenvalues --    3.41288   3.42012   3.42360   3.43229   3.43982
 Alpha virt. eigenvalues --    3.44862   3.46595   3.46849   3.47580   3.48629
 Alpha virt. eigenvalues --    3.49366   3.50106   3.51119   3.51817   3.54090
 Alpha virt. eigenvalues --    3.54642   3.56151   3.57684   3.58917   3.59245
 Alpha virt. eigenvalues --    3.60736   3.62327   3.62764   3.64471   3.64888
 Alpha virt. eigenvalues --    3.66939   3.67775   3.68021   3.70114   3.71596
 Alpha virt. eigenvalues --    3.72812   3.73360   3.73828   3.74732   3.75950
 Alpha virt. eigenvalues --    3.76756   3.78176   3.79205   3.79318   3.80848
 Alpha virt. eigenvalues --    3.81224   3.82310   3.83050   3.84225   3.85805
 Alpha virt. eigenvalues --    3.86202   3.86629   3.87541   3.89318   3.90440
 Alpha virt. eigenvalues --    3.92192   3.92469   3.93237   3.93737   3.94999
 Alpha virt. eigenvalues --    3.96350   3.96896   3.98009   3.99267   3.99584
 Alpha virt. eigenvalues --    4.01018   4.02436   4.03189   4.05002   4.05601
 Alpha virt. eigenvalues --    4.06603   4.07259   4.07966   4.08509   4.10243
 Alpha virt. eigenvalues --    4.11310   4.12534   4.14164   4.14972   4.15689
 Alpha virt. eigenvalues --    4.15732   4.17132   4.18287   4.18659   4.19501
 Alpha virt. eigenvalues --    4.20780   4.21353   4.22293   4.23597   4.25140
 Alpha virt. eigenvalues --    4.25430   4.26492   4.27800   4.28664   4.29269
 Alpha virt. eigenvalues --    4.30515   4.31811   4.33210   4.34443   4.34929
 Alpha virt. eigenvalues --    4.35935   4.37568   4.39775   4.40079   4.42193
 Alpha virt. eigenvalues --    4.43787   4.45931   4.46179   4.47907   4.50479
 Alpha virt. eigenvalues --    4.51569   4.52199   4.53432   4.54239   4.54903
 Alpha virt. eigenvalues --    4.57344   4.58302   4.59688   4.60417   4.61664
 Alpha virt. eigenvalues --    4.62701   4.63174   4.63508   4.63883   4.66147
 Alpha virt. eigenvalues --    4.67262   4.67539   4.69539   4.70589   4.72757
 Alpha virt. eigenvalues --    4.74421   4.74858   4.75384   4.75799   4.78526
 Alpha virt. eigenvalues --    4.79105   4.79226   4.81009   4.82137   4.83243
 Alpha virt. eigenvalues --    4.84032   4.85950   4.89536   4.90751   4.91583
 Alpha virt. eigenvalues --    4.92615   4.93575   4.94891   4.96080   4.97246
 Alpha virt. eigenvalues --    4.98144   4.98514   5.01113   5.01992   5.03375
 Alpha virt. eigenvalues --    5.04300   5.05172   5.07402   5.07945   5.09303
 Alpha virt. eigenvalues --    5.10316   5.12699   5.13464   5.14182   5.15453
 Alpha virt. eigenvalues --    5.16627   5.17083   5.18806   5.19143   5.22013
 Alpha virt. eigenvalues --    5.22758   5.23061   5.23545   5.25624   5.26192
 Alpha virt. eigenvalues --    5.26869   5.27852   5.29028   5.29764   5.30775
 Alpha virt. eigenvalues --    5.32065   5.33892   5.36304   5.39172   5.39893
 Alpha virt. eigenvalues --    5.41153   5.43295   5.45687   5.48467   5.49623
 Alpha virt. eigenvalues --    5.52697   5.53494   5.56347   5.58044   5.58692
 Alpha virt. eigenvalues --    5.61122   5.62355   5.63523   5.65542   5.66041
 Alpha virt. eigenvalues --    5.66227   5.68644   5.69315   5.71879   5.72323
 Alpha virt. eigenvalues --    5.75471   5.76014   5.77510   5.79390   5.81040
 Alpha virt. eigenvalues --    5.82015   5.83899   5.85951   5.87452   5.89107
 Alpha virt. eigenvalues --    5.90734   5.92792   5.97281   6.02634   6.06219
 Alpha virt. eigenvalues --    6.11459   6.18703   6.21647   6.23314   6.27305
 Alpha virt. eigenvalues --    6.53064   6.54441   6.58439   6.63884   6.65416
 Alpha virt. eigenvalues --    6.67045   6.78142   6.82352   6.90553   6.92747
 Alpha virt. eigenvalues --    6.93363   6.95492   7.19104   7.20473   7.24792
 Alpha virt. eigenvalues --    7.28104   8.13296   8.34216   8.67582   8.73836
 Alpha virt. eigenvalues --    8.78493   8.79895   8.81045   8.83241   8.83661
 Alpha virt. eigenvalues --    8.86905   8.88021   8.88968   8.89653   8.91487
 Alpha virt. eigenvalues --    8.93919   8.95727   8.98082   8.98777   9.00988
 Alpha virt. eigenvalues --    9.05121   9.08511   9.12743   9.15019   9.15595
 Alpha virt. eigenvalues --    9.23455   9.59728   9.62194   9.77561   9.83534
 Alpha virt. eigenvalues --    9.91759   9.95624  10.10841  10.12146  10.15008
 Alpha virt. eigenvalues --   10.18157  10.19613  10.21205  10.21777  10.24475
 Alpha virt. eigenvalues --   10.27853  10.30001  10.31746  10.33447  10.36621
 Alpha virt. eigenvalues --   10.41408  11.76320  11.82857  12.04191  12.14525
 Alpha virt. eigenvalues --   12.16188  12.23457  12.24236  12.25945  12.32703
 Alpha virt. eigenvalues --   12.39905  12.48401  12.56132  12.59426  12.83564
 Alpha virt. eigenvalues --   12.93254  14.97211  15.04069  15.24386  15.27864
 Alpha virt. eigenvalues --   15.99815  16.06304  16.83642  16.91215  22.01526
 Alpha virt. eigenvalues --   22.13496  40.17257  40.30430  40.66808  40.68527
 Alpha virt. eigenvalues --   40.69575  40.71334  40.72121  40.74359  40.76494
 Alpha virt. eigenvalues --   40.77894  40.80402  40.82003  40.82447  40.82719
 Alpha virt. eigenvalues --   40.83258  40.84025  40.84881  40.85202  40.87144
 Alpha virt. eigenvalues --   40.87611  40.87847  40.89678  40.90179  40.90635
 Alpha virt. eigenvalues --   40.91224  40.92543  40.94143  46.34392  46.44454
 Alpha virt. eigenvalues --   46.48536  46.56077  46.56543  46.57883  46.63886
 Alpha virt. eigenvalues --   46.73897  46.80291  54.45760  54.46649  55.78923
 Alpha virt. eigenvalues --   55.84311  55.97540  55.97653  56.06541  56.13906
 Alpha virt. eigenvalues --   56.17354  56.23733  56.28731  56.31543  56.38710
 Alpha virt. eigenvalues --   56.43249  56.45904  56.55154  56.58318  56.62403
 Alpha virt. eigenvalues --   57.47217  57.51124  57.99541  58.02860  58.19460
 Alpha virt. eigenvalues --   58.25706  64.70926  64.77776  73.94328  73.98294
 Alpha virt. eigenvalues --   74.10066  74.11659  74.63951  74.67499  86.07286
 Alpha virt. eigenvalues --   86.18025 165.43663 165.52287 165.57483 165.64001
 Alpha virt. eigenvalues --  165.64507 165.65481 165.70210 165.79280 165.85125
 Alpha virt. eigenvalues --  226.54489 226.55908 230.58068 230.64426 235.51635
 Alpha virt. eigenvalues --  235.81831 236.28795 236.30473 236.33087 236.53076
 Alpha virt. eigenvalues --  236.92881 237.14288 237.45382 237.62577 237.72929
 Alpha virt. eigenvalues --  237.99551 238.03655 238.11735 238.36081 238.83071
 Alpha virt. eigenvalues --  308.80852 308.90436 624.54973 624.61041 624.63901
 Alpha virt. eigenvalues --  624.68905 624.69732 624.72346 624.76011 624.82923
 Alpha virt. eigenvalues --  624.87311 793.91044 794.53141 825.82610 826.89956
 Alpha virt. eigenvalues --  827.11772 827.21116 827.92698 828.14644 829.50917
 Alpha virt. eigenvalues --  830.37424 830.47036 831.53639 831.90176 832.81210
 Alpha virt. eigenvalues --  832.92440 832.93537 834.14421 835.17700 868.34100
 Alpha virt. eigenvalues --  868.404191165.935711166.022672484.335862485.26327
 Alpha virt. eigenvalues -- 2587.913862589.610112594.020042595.105092596.02671
 Alpha virt. eigenvalues -- 2598.032482598.039532601.906722604.527892606.44837
 Alpha virt. eigenvalues -- 2607.208952607.753732608.948342609.566152609.85067
 Alpha virt. eigenvalues -- 2616.521422740.323192740.344342740.386542740.41640
 Alpha virt. eigenvalues -- 2740.433652740.510302740.525262740.559592740.57538
 Alpha virt. eigenvalues -- 3787.318623787.381865073.317075073.393828285.51650
 Alpha virt. eigenvalues -- 8296.040428626.726878626.904938633.740528637.24786
 Alpha virt. eigenvalues -- 8639.817388646.048318652.767008659.119458661.47424
 Alpha virt. eigenvalues -- 8671.089918674.382638681.137568681.709738683.38929
 Alpha virt. eigenvalues -- 8691.671258701.03014******************************
 Alpha virt. eigenvalues -- **************************************************
 Alpha virt. eigenvalues -- **************************************************
 Alpha virt. eigenvalues -- **************************************************
 Alpha virt. eigenvalues -- **************************************************
 Alpha virt. eigenvalues -- **************************************************
 Alpha virt. eigenvalues -- **************************************************
 Alpha virt. eigenvalues -- **************************************************
 Alpha virt. eigenvalues -- **********
          Condensed to atoms (all electrons):
               1          2          3          4          5          6
     1  C    4.662379   0.172062  -0.047846  -0.007925  -0.000123   0.000951
     2  C    0.172062   5.311958   0.399969   0.007942  -0.000708  -0.004407
     3  H   -0.047846   0.399969   0.486773   0.000073   0.000080  -0.000150
     4  C   -0.007925   0.007942   0.000073   5.045240   0.389867   0.407030
     5  H   -0.000123  -0.000708   0.000080   0.389867   0.540005  -0.011550
     6  H    0.000951  -0.004407  -0.000150   0.407030  -0.011550   0.559631
     7  H   -0.005430   0.002766   0.000810   0.388335  -0.008654  -0.028587
     8  O    0.690741  -0.091237   0.004894  -0.010255   0.000260  -0.000092
     9  N   -0.063368   0.321474  -0.030624  -0.005935   0.000978  -0.004834
    10  H    0.004709  -0.044498   0.001983   0.005136   0.000072   0.004455
    11  N    0.337339  -0.106703   0.003123  -0.000175   0.000022  -0.000054
    12  H   -0.026051   0.008897   0.000031   0.000098  -0.000001  -0.000006
    13  C   -0.044678   0.010632  -0.001192   0.000043  -0.000006   0.000002
    14  H    0.003543   0.000595   0.000115  -0.000010  -0.000002   0.000000
    15  H   -0.011953  -0.000380  -0.000278   0.000014   0.000000   0.000000
    16  H    0.006856   0.000551  -0.000170   0.000002   0.000000   0.000000
    17  C   -0.009395  -0.057097   0.003046  -0.000035   0.000035   0.000237
    18  C   -0.005484   0.015874   0.002164  -0.000137   0.000005   0.000123
    19  H    0.000402  -0.000066  -0.000264   0.000149  -0.000005   0.000109
    20  H   -0.000127  -0.000615   0.000181   0.000021   0.000001  -0.000026
    21  H    0.000716  -0.000551  -0.000185  -0.000022  -0.000004   0.000004
    22  O   -0.001941   0.018541   0.016361   0.000007   0.000000   0.000016
    23  C    0.003266  -0.002571   0.006010   0.328624  -0.033820  -0.051004
    24  H   -0.000163   0.007359  -0.000300  -0.039580  -0.006016  -0.005163
    25  C    0.000650  -0.013810  -0.000195  -0.050659  -0.004785   0.007868
    26  H    0.020064  -0.000361  -0.000241  -0.001485  -0.001477   0.000365
    27  H   -0.001117  -0.000639  -0.000054   0.007992  -0.000099  -0.000527
    28  H   -0.000566   0.000110   0.000029  -0.004843   0.004899  -0.000262
    29  C   -0.013820   0.270864  -0.034170  -0.037901   0.008160   0.002983
    30  H    0.009793  -0.052152  -0.011073  -0.002831  -0.000786   0.002565
    31  H   -0.003497  -0.044380  -0.006560   0.007117  -0.000471   0.000052
               7          8          9         10         11         12
     1  C   -0.005430   0.690741  -0.063368   0.004709   0.337339  -0.026051
     2  C    0.002766  -0.091237   0.321474  -0.044498  -0.106703   0.008897
[...]
 Alpha virt. eigenvalues --    4.45671   4.47706   4.49521   4.50858   4.52358
 Alpha virt. eigenvalues --    4.53443   4.55955   4.56791   4.58161   4.58671
 Alpha virt. eigenvalues --    4.60215   4.64039   4.65686   4.66957   4.68025
 Alpha virt. eigenvalues --    4.69071   4.70182   4.71607   4.71871   4.72820
 Alpha virt. eigenvalues --    4.73024   4.75358   4.76854   4.77539   4.79782
 Alpha virt. eigenvalues --    4.80693   4.81607   4.82209   4.83080   4.83272
 Alpha virt. eigenvalues --    4.85259   4.86076   4.88620   4.89728   4.91465
 Alpha virt. eigenvalues --    4.91891   4.93454   4.94384   4.95399   4.95658
 Alpha virt. eigenvalues --    4.96135   4.97263   5.00085   5.01550   5.01978
 Alpha virt. eigenvalues --    5.03249   5.04286   5.05176   5.06043   5.07681
 Alpha virt. eigenvalues --    5.08595   5.09886   5.10860   5.12939   5.13417
 Alpha virt. eigenvalues --    5.14581   5.14701   5.16080   5.16609   5.18017
 Alpha virt. eigenvalues --    5.19343   5.20503   5.20939   5.22775   5.23076
 Alpha virt. eigenvalues --    5.24816   5.25356   5.27515   5.27988   5.29158
 Alpha virt. eigenvalues --    5.29723   5.30022   5.31366   5.33258   5.35278
 Alpha virt. eigenvalues --    5.36032   5.36203   5.37481   5.37943   5.40127
 Alpha virt. eigenvalues --    5.42784   5.46792   5.49157   5.51501   5.55147
 Alpha virt. eigenvalues --    5.58751   5.59879   5.62960   5.63627   5.71555
 Alpha virt. eigenvalues --    5.73276   5.75468   5.75986   5.78412   5.78818
 Alpha virt. eigenvalues --    5.80654   5.81708   5.82894   5.84371   5.89189
 Alpha virt. eigenvalues --    5.89855   5.92081   5.94183   5.96159   5.97986
 Alpha virt. eigenvalues --    6.00245   6.01017   6.04031   6.06333   6.08633
 Alpha virt. eigenvalues --    6.21991   6.27589   6.36405   6.41245   6.49719
 Alpha virt. eigenvalues --    6.53632   6.54530   6.59343   6.67685   6.69824
 Alpha virt. eigenvalues --    6.88544   6.89860   6.92553   6.96991   7.10370
 Alpha virt. eigenvalues --    7.15061   7.17619   7.18254   9.49900  10.02141
 Alpha virt. eigenvalues --   11.64350  12.11578  12.38887  12.67719  12.98695
 Alpha virt. eigenvalues --   13.42012  13.58839  13.60130  13.67418  13.76755
 Alpha virt. eigenvalues --   13.96946
          Condensed to atoms (all electrons):
               1          2          3          4          5          6
     1  C    4.835269   0.132581  -0.056069  -0.004834  -0.000188   0.001056
     2  C    0.132581   5.446682   0.439154  -0.000509  -0.000777  -0.004620
     3  H   -0.056069   0.439154   0.451976  -0.000018   0.000077  -0.000164
     4  C   -0.004834  -0.000509  -0.000018   5.215802   0.396924   0.401922
     5  H   -0.000188  -0.000777   0.000077   0.396924   0.525509  -0.016407
     6  H    0.001056  -0.004620  -0.000164   0.401922  -0.016407   0.556981
     7  H   -0.004856   0.002008   0.000672   0.386378  -0.015228  -0.034214
     8  O    0.683608  -0.086291   0.002892  -0.009750   0.000249  -0.000107
     9  N   -0.064117   0.272226  -0.035698  -0.005176   0.000893  -0.004285
    10  H    0.005587  -0.042372   0.000538   0.002886   0.000259   0.003903
    11  N    0.330652  -0.079592  -0.000971  -0.000321   0.000023  -0.000052
    12  H   -0.020678   0.006189  -0.001214   0.000105  -0.000001  -0.000006
    13  C   -0.067083   0.009949  -0.001010   0.000040  -0.000007   0.000002
    14  H    0.003300   0.000487   0.000122   0.000008  -0.000002   0.000001
    15  H   -0.011272  -0.000377  -0.000271   0.000010   0.000000   0.000000
    16  H    0.007796   0.000550  -0.000128   0.000001   0.000000   0.000000
    17  C   -0.008882  -0.068810   0.002366   0.000021   0.000036   0.000158
    18  C   -0.004093   0.012456   0.001968   0.000008   0.000005   0.000125
    19  H    0.000231   0.000755  -0.000252   0.000114  -0.000007   0.000095
    20  H   -0.000169  -0.000553   0.000166   0.000015   0.000001  -0.000025
    21  H    0.000674  -0.000564  -0.000164  -0.000023  -0.000004   0.000004
    22  O    0.001038   0.016355   0.015822   0.000025   0.000000   0.000017
    23  C   -0.003408  -0.007476   0.005663   0.245840  -0.033588  -0.049732
    24  H   -0.000259   0.008550  -0.000120  -0.037269  -0.006334  -0.005553
    25  C    0.001087  -0.005673  -0.000429  -0.062218  -0.006224   0.008262
    26  H    0.019525   0.000638  -0.000154  -0.002267  -0.001213   0.000287
    27  H   -0.001928   0.000033  -0.000075   0.007906  -0.000147  -0.000409
    28  H   -0.000330  -0.000331   0.000026  -0.005998   0.004716  -0.000289
    29  C   -0.026739   0.194482  -0.034998  -0.039103   0.008530   0.003946
    30  H    0.010538  -0.049595  -0.010209  -0.002717  -0.000710   0.002145
    31  H   -0.000843  -0.048207  -0.008776   0.006937  -0.000336   0.000098
               7          8          9         10         11         12
     1  C   -0.004856   0.683608  -0.064117   0.005587   0.330652  -0.020678
     2  C    0.002008  -0.086291   0.272226  -0.042372  -0.079592   0.006189
     3  H    0.000672   0.002892  -0.035698   0.000538  -0.000971  -0.001214
     4  C    0.386378  -0.009750  -0.005176   0.002886  -0.000321   0.000105
     5  H   -0.015228   0.000249   0.000893   0.000259   0.000023  -0.000001
     6  H   -0.034214  -0.000107  -0.004285   0.003903  -0.000052  -0.000006
     7  H    0.496570   0.022949   0.004105  -0.006140   0.001190  -0.000133
     8  O    0.022949   7.849956   0.003540  -0.001696  -0.112623   0.005081
     9  N    0.004105   0.003540   6.536168   0.393592   0.005157   0.000642
    10  H   -0.006140  -0.001696   0.393592   0.483548  -0.000284  -0.000009
    11  N    0.001190  -0.112623   0.005157  -0.000284   6.411483   0.382495
    12  H   -0.000133   0.005081   0.000642  -0.000009   0.382495   0.536842
    13  C   -0.000215   0.008982  -0.000324   0.000040   0.297156  -0.032185
    14  H    0.000115   0.002127  -0.000017  -0.000005  -0.057285   0.002160
    15  H   -0.000056   0.004892  -0.000037   0.000006  -0.037824   0.003193
    16  H   -0.000005   0.001414   0.000008   0.000000  -0.027205  -0.008059
    17  C    0.001434   0.014554   0.331923  -0.021732  -0.000428  -0.000099
    18  C    0.000077  -0.000104  -0.065266  -0.003307  -0.000106   0.000000
    19  H    0.000053   0.000030   0.012481  -0.001129   0.000014   0.000001
    20  H    0.000032   0.000028  -0.000762  -0.000258   0.000004   0.000001
    21  H   -0.000041   0.000175  -0.000634   0.000576   0.000001  -0.000001
    22  O   -0.000166  -0.003462  -0.136258   0.004192  -0.004117  -0.000209
    23  C   -0.025854   0.005226  -0.000698  -0.002047  -0.005895  -0.000292
    24  H    0.005568  -0.000002  -0.000081  -0.000827  -0.000217   0.000014
    25  C   -0.006135  -0.011300   0.000116   0.000138   0.009300   0.000528
    26  H    0.000931   0.007769  -0.000019  -0.000059  -0.016815   0.000309
    27  H   -0.000004   0.000071  -0.000045   0.000000   0.000786   0.000215
    28  H   -0.000252  -0.000090   0.000004   0.000016   0.000558   0.000000
    29  C   -0.009412  -0.003153  -0.051123   0.002740   0.005364  -0.001333
    30  H   -0.000807  -0.000610   0.001705   0.003158   0.000264  -0.000114
    31  H   -0.000536  -0.000081   0.004452   0.000382  -0.000080   0.002342
              13         14         15         16         17         18
     1  C   -0.067083   0.003300  -0.011272   0.007796  -0.008882  -0.004093
     2  C    0.009949   0.000487  -0.000377   0.000550  -0.068810   0.012456
     3  H   -0.001010   0.000122  -0.000271  -0.000128   0.002366   0.001968
     4  C    0.000040   0.000008   0.000010   0.000001   0.000021   0.000008
     5  H   -0.000007  -0.000002   0.000000   0.000000   0.000036   0.000005
     6  H    0.000002   0.000001   0.000000   0.000000   0.000158   0.000125
     7  H   -0.000215   0.000115  -0.000056  -0.000005   0.001434   0.000077
     8  O    0.008982   0.002127   0.004892   0.001414   0.014554  -0.000104
     9  N   -0.000324  -0.000017  -0.000037   0.000008   0.331923  -0.065266
    10  H    0.000040  -0.000005   0.000006   0.000000  -0.021732  -0.003307
    11  N    0.297156  -0.057285  -0.037824  -0.027205  -0.000428  -0.000106
    12  H   -0.032185   0.002160   0.003193  -0.008059  -0.000099   0.000000
    13  C    4.783470   0.392726   0.405978   0.393936  -0.000266  -0.000008
    14  H    0.392726   0.617330  -0.053246  -0.028207  -0.000029   0.000000
    15  H    0.405978  -0.053246   0.586327  -0.025672   0.000093   0.000002
    16  H    0.393936  -0.028207  -0.025672   0.597758  -0.000010   0.000000
    17  C   -0.000266  -0.000029   0.000093  -0.000010   4.539006   0.280622
    18  C   -0.000008   0.000000   0.000002   0.000000   0.280622   5.000350
    19  H    0.000000   0.000000   0.000000   0.000000  -0.054513   0.393418
    20  H    0.000000   0.000000   0.000000   0.000000  -0.025360   0.384839
    21  H    0.000002   0.000000   0.000001   0.000000  -0.025157   0.389092
    22  O   -0.000244   0.000002   0.000103  -0.000003   0.724237  -0.070785
    23  C    0.000147   0.000584  -0.000115  -0.000007  -0.000874  -0.000100
    24  H   -0.000014   0.000016  -0.000001   0.000000   0.000076   0.000004
    25  C   -0.001754  -0.003303   0.000396  -0.000104   0.000107   0.000002
    26  H   -0.000208   0.004994  -0.000419   0.000111  -0.000036   0.000002
    27  H    0.000273  -0.000129   0.000009   0.000022  -0.000006   0.000000
    28  H   -0.000044  -0.000188   0.000011  -0.000008   0.000001   0.000000
    29  C   -0.000296  -0.000336   0.000074   0.000005   0.009475   0.000265
    30  H    0.000078  -0.000026   0.000010   0.000002  -0.000881  -0.000126
    31  H    0.000118  -0.000080   0.000036   0.000005  -0.000240   0.000032
              19         20         21         22         23         24
     1  C    0.000231  -0.000169   0.000674   0.001038  -0.003408  -0.000259
     2  C    0.000755  -0.000553  -0.000564   0.016355  -0.007476   0.008550
     3  H   -0.000252   0.000166  -0.000164   0.015822   0.005663  -0.000120
     4  C    0.000114   0.000015  -0.000023   0.000025   0.245840  -0.037269
     5  H   -0.000007   0.000001  -0.000004   0.000000  -0.033588  -0.006334
     6  H    0.000095  -0.000025   0.000004   0.000017  -0.049732  -0.005553
     7  H    0.000053   0.000032  -0.000041  -0.000166  -0.025854   0.005568
     8  O    0.000030   0.000028   0.000175  -0.003462   0.005226  -0.000002
     9  N    0.012481  -0.000762  -0.000634  -0.136258  -0.000698  -0.000081
    10  H   -0.001129  -0.000258   0.000576   0.004192  -0.002047  -0.000827
    11  N    0.000014   0.000004   0.000001  -0.004117  -0.005895  -0.000217
    12  H    0.000001   0.000001  -0.000001  -0.000209  -0.000292   0.000014
    13  C    0.000000   0.000000   0.000002  -0.000244   0.000147  -0.000014
    14  H    0.000000   0.000000   0.000000   0.000002   0.000584   0.000016
    15  H    0.000000   0.000000   0.000001   0.000103  -0.000115  -0.000001
    16  H    0.000000   0.000000   0.000000  -0.000003  -0.000007   0.000000
    17  C   -0.054513  -0.025360  -0.025157   0.724237  -0.000874   0.000076
    18  C    0.393418   0.384839   0.389092  -0.070785  -0.000100   0.000004
    19  H    0.602052  -0.026582  -0.025091   0.004521   0.000049   0.000000
    20  H   -0.026582   0.578067  -0.025553   0.001853   0.000002   0.000000
    21  H   -0.025091  -0.025553   0.564283   0.001456   0.000002   0.000000
    22  O    0.004521   0.001853   0.001456   7.850946  -0.000091   0.000001
    23  C    0.000049   0.000002   0.000002  -0.000091   5.201221   0.454193
    24  H    0.000000   0.000000   0.000000   0.000001   0.454193   0.541305
    25  C    0.000003   0.000000   0.000000  -0.000006   0.259326  -0.040138
    26  H   -0.000001   0.000000   0.000000   0.000017  -0.023384   0.006182
    27  H    0.000000   0.000000   0.000000   0.000000  -0.044839  -0.005282
    28  H    0.000000   0.000000   0.000000   0.000000  -0.037454  -0.007668
    29  C   -0.000249   0.000006   0.000001   0.002172   0.236804  -0.057827
    30  H   -0.000036  -0.000038   0.000020  -0.000120  -0.049265  -0.009694
    31  H   -0.000005  -0.000003   0.000000   0.000082  -0.044693  -0.004301
              25         26         27         28         29         30
     1  C    0.001087   0.019525  -0.001928  -0.000330  -0.026739   0.010538
     2  C   -0.005673   0.000638   0.000033  -0.000331   0.194482  -0.049595
     3  H   -0.000429  -0.000154  -0.000075   0.000026  -0.034998  -0.010209
     4  C   -0.062218  -0.002267   0.007906  -0.005998  -0.039103  -0.002717
     5  H   -0.006224  -0.001213  -0.000147   0.004716   0.008530  -0.000710
     6  H    0.008262   0.000287  -0.000409  -0.000289   0.003946   0.002145
     7  H   -0.006135   0.000931  -0.000004  -0.000252  -0.009412  -0.000807
     8  O   -0.011300   0.007769   0.000071  -0.000090  -0.003153  -0.000610
     9  N    0.000116  -0.000019  -0.000045   0.000004  -0.051123   0.001705
    10  H    0.000138  -0.000059   0.000000   0.000016   0.002740   0.003158
    11  N    0.009300  -0.016815   0.000786   0.000558   0.005364   0.000264
    12  H    0.000528   0.000309   0.000215   0.000000  -0.001333  -0.000114
    13  C   -0.001754  -0.000208   0.000273  -0.000044  -0.000296   0.000078
    14  H   -0.003303   0.004994  -0.000129  -0.000188  -0.000336  -0.000026
    15  H    0.000396  -0.000419   0.000009   0.000011   0.000074   0.000010
    16  H   -0.000104   0.000111   0.000022  -0.000008   0.000005   0.000002
    17  C    0.000107  -0.000036  -0.000006   0.000001   0.009475  -0.000881
    18  C    0.000002   0.000002   0.000000   0.000000   0.000265  -0.000126
    19  H    0.000003  -0.000001   0.000000   0.000000  -0.000249  -0.000036
    20  H    0.000000   0.000000   0.000000   0.000000   0.000006  -0.000038
    21  H    0.000000   0.000000   0.000000   0.000000   0.000001   0.000020
    22  O   -0.000006   0.000017   0.000000   0.000000   0.002172  -0.000120
    23  C    0.259326  -0.023384  -0.044839  -0.037454   0.236804  -0.049265
    24  H   -0.040138   0.006182  -0.005282  -0.007668  -0.057827  -0.009694
    25  C    5.194920   0.375237   0.400725   0.412230  -0.053628   0.007742
    26  H    0.375237   0.525913  -0.030090  -0.028810  -0.008402  -0.000199
    27  H    0.400725  -0.030090   0.537947  -0.011701  -0.002669   0.000463
    28  H    0.412230  -0.028810  -0.011701   0.518666   0.009076  -0.000324
    29  C   -0.053628  -0.008402  -0.002669   0.009076   5.391593   0.417613
    30  H    0.007742  -0.000199   0.000463  -0.000324   0.417613   0.485287
    31  H   -0.008107   0.000551   0.003816   0.000181   0.429371   0.001911
              31
     1  C   -0.000843
     2  C   -0.048207
     3  H   -0.008776
     4  C    0.006937
     5  H   -0.000336
     6  H    0.000098
     7  H   -0.000536
     8  O   -0.000081
     9  N    0.004452
    10  H    0.000382
    11  N   -0.000080
    12  H    0.002342
    13  C    0.000118
    14  H   -0.000080
    15  H    0.000036
    16  H    0.000005
    17  C   -0.000240
    18  C    0.000032
    19  H   -0.000005
    20  H   -0.000003
    21  H    0.000000
    22  O    0.000082
    23  C   -0.044693
    24  H   -0.004301
    25  C   -0.008107
    26  H    0.000551
    27  H    0.003816
    28  H    0.000181
    29  C    0.429371
    30  H    0.001911
    31  H    0.469537
 Mulliken charges:
               1
     1  C    0.242804
     2  C   -0.147346
     3  H    0.229276
     4  C   -0.494737
     5  H    0.143952
     6  H    0.136862
     7  H    0.181974
     8  O   -0.384274
     9  N   -0.202474
    10  H    0.178305
    11  N   -0.100631
    12  H    0.124217
    13  C   -0.189238
    14  H    0.118880
    15  H    0.128150
    16  H    0.087799
    17  C    0.303211
    18  C   -0.319371
    19  H    0.094050
    20  H    0.114290
    21  H    0.120945
    22  O   -0.407379
    23  C   -0.079244
    24  H    0.159679
    25  C   -0.471098
    26  H    0.169613
    27  H    0.145059
    28  H    0.148004
    29  C   -0.422250
    30  H    0.194534
    31  H    0.196438
 Sum of Mulliken charges =   0.00000
 Mulliken charges with hydrogens summed into heavy atoms:
               1
     1  C    0.242804
     2  C    0.081930
     4  C   -0.031949
     8  O   -0.384274
     9  N   -0.024169
    11  N    0.023586
    13  C    0.145591
    17  C    0.303211
    18  C    0.009914
    22  O   -0.407379
    23  C    0.080436
    25  C   -0.008422
    29  C   -0.031278
 Electronic spatial extent (au):  <R**2>=           2725.1378
 Charge=              0.0000 electrons
 Dipole moment (field-independent basis, Debye):
    X=              2.5150    Y=             -2.6184    Z=              2.5690  Tot=              4.4476
 Quadrupole moment (field-independent basis, Debye-Ang):
   XX=            -77.3571   YY=            -76.5976   ZZ=            -81.4387
   XY=             12.1672   XZ=              4.2031   YZ=              2.5957
 Traceless Quadrupole moment (field-independent basis, Debye-Ang):
   XX=              1.1074   YY=              1.8668   ZZ=             -2.9742
   XY=             12.1672   XZ=              4.2031   YZ=              2.5957
 Octapole moment (field-independent basis, Debye-Ang**2):
  XXX=            -13.7003  YYY=             18.1912  ZZZ=              9.3344  XYY=             20.5811
  XXY=            -11.1094  XXZ=             -8.1988  XZZ=             -0.5601  YZZ=              5.0686
  YYZ=              0.0975  XYZ=              6.1681
 Hexadecapole moment (field-independent basis, Debye-Ang**3):
 XXXX=          -1905.2286 YYYY=          -1233.2810 ZZZZ=           -378.5324 XXXY=             69.8930
 XXXZ=             17.6239 YYYX=             58.3132 YYYZ=             -2.9718 ZZZX=              8.8218
 ZZZY=             12.2565 XXYY=           -540.1557 XXZZ=           -376.1209 YYZZ=           -270.1734
 XXYZ=             -1.6532 YYXZ=              5.6209 ZZXY=              4.2005
 N-N= 8.883127322988D+02 E-N=-3.206381321492D+03  KE= 6.091122155549D+02
 Calculating spin-rotation constants.
 Leave Link  601 at Wed Jun 18 13:26:53 2014, MaxMem=  4294967296 cpu:        70.9
 (Enter /home/ztw1e12/g09/l9999.exe)

 Test job not archived.
 1\1\GINC-GREEN0576\SP\RM06\Gen\C9H18N2O2\ROOT\18-Jun-2014\0\\#P Geom=A
 llCheck Guess=TCheck SCRF=Check GenChk RM06/ChkBas NMR=ReadFC IOp(3/6=
 22)\\NMR spin-spin scan\\0,1\C,0,0.218795,0.900036,0.391499\C,0,0.0872
 02,0.017829,-0.844977\H,0,0.554053,0.57072,-1.666254\C,0,-1.91396,-1.8
 88406,0.617743\H,0,-2.732588,-2.248317,1.244394\H,0,-1.563894,-2.74124
 1,0.029839\H,0,-1.10843,-1.574158,1.283759\O,0,0.448758,0.456765,1.512
 91\N,0,0.814785,-1.218797,-0.693166\H,0,0.307073,-2.085132,-0.612009\N
 ,0,0.050303,2.205896,0.155215\H,0,-0.173707,2.503533,-0.781223\C,0,-0.
 010772,3.168977,1.230264\H,0,-0.827617,2.942715,1.918414\H,0,0.91959,3
 .181441,1.798073\H,0,-0.173528,4.156253,0.808715\C,0,2.154008,-1.23422
 9,-0.590041\C,0,2.795348,-2.573395,-0.431295\H,0,2.080259,-3.392912,-0
 .409478\H,0,3.49405,-2.726588,-1.25359\H,0,3.374093,-2.576945,0.492177
 \O,0,2.820092,-0.20008,-0.636286\C,0,-2.396067,-0.742294,-0.254807\H,0
 ,-3.225491,-1.112197,-0.866156\C,0,-2.95284,0.364207,0.630075\H,0,-2.2
 01846,0.737644,1.331877\H,0,-3.310422,1.210474,0.039366\H,0,-3.788642,
 -0.006349,1.227413\C,0,-1.368707,-0.207883,-1.260264\H,0,-1.322876,-0.
 893,-2.112661\H,0,-1.7414,0.738727,-1.659188\\Version=EM64L-G09RevD.01
 \State=1-A\HF=-613.5813646\RMSD=7.227e-09\Dipole=-1.4728717,-0.0792296
 ,-0.9413708\Quadrupole=-6.980802,10.1994225,-3.2186206,-4.0533535,0.94
 67123,0.4247175\PG=C01 [X(C9H18N2O2)]\\@


 KEEP CLOSE TO NATURES HEART, YOURSELF;
 AND BREAK CLEAR AWAY, ONCE IN A WHILE, AND
 CLIMB A MOUNTAIN OR SPEND A WEEK IN THE
 WOODS.  WASH YOUR SPIRIT CLEAN...
                                         -- JOHN MUIR
 Job cpu time:       2 days 16 hours  5 minutes 46.4 seconds.
 File lengths (MBytes):  RWF=   2456 Int=      0 D2E=      0 Chk=     48 Scr=      8
 Normal termination of Gaussian 09 at Wed Jun 18 13:26:54 2014.
