 Entering Gaussian System, Link 0=g09
 Input=scan_input_23.gjf
 Output=scan_input_23.log
 Initial command:
 /home/ztw1e12/g09/l1.exe "/home/ztw1e12/leucine_scan/leucine_chi2_scan/Gau-17124.inp" -scrdir="/home/ztw1e12/leucine_scan/leucine_chi2_scan/"
 Default is to use a total of   8 processors:
                                8 via shared-memory
                                1 via Linda
 Entering Link 1 = /home/ztw1e12/g09/l1.exe PID=     17125.
  
 Copyright (c) 1988,1990,1992,1993,1995,1998,2003,2009,2013,
            Gaussian, Inc.  All Rights Reserved.
  
 This is part of the Gaussian(R) 09 program.  It is based on
 the Gaussian(R) 03 system (copyright 2003, Gaussian, Inc.),
 the Gaussian(R) 98 system (copyright 1998, Gaussian, Inc.),
 the Gaussian(R) 94 system (copyright 1995, Gaussian, Inc.),
 the Gaussian 92(TM) system (copyright 1992, Gaussian, Inc.),
 the Gaussian 90(TM) system (copyright 1990, Gaussian, Inc.),
 the Gaussian 88(TM) system (copyright 1988, Gaussian, Inc.),
 the Gaussian 86(TM) system (copyright 1986, Carnegie Mellon
 University), and the Gaussian 82(TM) system (copyright 1983,
 Carnegie Mellon University). Gaussian is a federally registered
 trademark of Gaussian, Inc.
  
 This software contains proprietary and confidential information,
 including trade secrets, belonging to Gaussian, Inc.
  
 This software is provided under written license and may be
 used, copied, transmitted, or stored only in accord with that
 written license.
  
 The following legend is applicable only to US Government
 contracts under FAR:
  
                    RESTRICTED RIGHTS LEGEND
  
 Use, reproduction and disclosure by the US Government is
 subject to restrictions as set forth in subparagraphs (a)
 and (c) of the Commercial Computer Software - Restricted
 Rights clause in FAR 52.227-19.
  
 Gaussian, Inc.
 340 Quinnipiac St., Bldg. 40, Wallingford CT 06492
  
  
 ---------------------------------------------------------------
 Warning -- This program may not be used in any manner that
 competes with the business of Gaussian, Inc. or will provide
 assistance to any competitor of Gaussian, Inc.  The licensee
 of this program is prohibited from giving any competitor of
 Gaussian, Inc. access to this program.  By using this program,
 the user acknowledges that Gaussian, Inc. is engaged in the
 business of creating and licensing software in the field of
 computational chemistry and represents and warrants to the
 licensee that it is not a competitor of Gaussian, Inc. and that
 it will not use this program in any manner prohibited above.
 ---------------------------------------------------------------
  

 Cite this work as:
 Gaussian 09, Revision D.01,
 M. J. Frisch, G. W. Trucks, H. B. Schlegel, G. E. Scuseria, 
 M. A. Robb, J. R. Cheeseman, G. Scalmani, V. Barone, B. Mennucci, 
 G. A. Petersson, H. Nakatsuji, M. Caricato, X. Li, H. P. Hratchian, 
 A. F. Izmaylov, J. Bloino, G. Zheng, J. L. Sonnenberg, M. Hada, 
 M. Ehara, K. Toyota, R. Fukuda, J. Hasegawa, M. Ishida, T. Nakajima, 
 Y. Honda, O. Kitao, H. Nakai, T. Vreven, J. A. Montgomery, Jr., 
 J. E. Peralta, F. Ogliaro, M. Bearpark, J. J. Heyd, E. Brothers, 
 K. N. Kudin, V. N. Staroverov, T. Keith, R. Kobayashi, J. Normand, 
 K. Raghavachari, A. Rendell, J. C. Burant, S. S. Iyengar, J. Tomasi, 
 M. Cossi, N. Rega, J. M. Millam, M. Klene, J. E. Knox, J. B. Cross, 
 V. Bakken, C. Adamo, J. Jaramillo, R. Gomperts, R. E. Stratmann, 
 O. Yazyev, A. J. Austin, R. Cammi, C. Pomelli, J. W. Ochterski, 
 R. L. Martin, K. Morokuma, V. G. Zakrzewski, G. A. Voth, 
 P. Salvador, J. J. Dannenberg, S. Dapprich, A. D. Daniels, 
 O. Farkas, J. B. Foresman, J. V. Ortiz, J. Cioslowski, 
 and D. J. Fox, Gaussian, Inc., Wallingford CT, 2013.
 
 ******************************************
 Gaussian 09:  EM64L-G09RevD.01 24-Apr-2013
                18-Jun-2014 
 ******************************************
 %Mem=32GB
 %NProcShared=16
 Will use up to   16 processors via shared memory.
 Default route:  MaxDisk=100GB
 ----------------------------------------------------------------------
 #p nmr=(giao,mixed,spinspin) m06/cc-pvtz scf=tight integral=(grid=ultr
 afine)
 ----------------------------------------------------------------------
 1/38=1/1;
 2/12=2,17=6,18=5,40=1/2;
 3/5=16,6=1,10=1100000,11=2,16=1,25=1,30=1,74=-54,75=-5/1,2,8,3;
 4//1;
 5/5=2,32=2,38=5/2;
 8/6=1,10=90,11=11/1;
 10/13=100,45=16,47=3/2;
 6/7=2,8=2,9=2,10=2,28=1/1;
 99/9=1/99;
 Leave Link    1 at Wed Jun 18 09:34:54 2014, MaxMem=  4294967296 cpu:         5.2
 (Enter /home/ztw1e12/g09/l101.exe)
 ------------------
 NMR spin-spin scan
 ------------------
 Symbolic Z-matrix:
 Charge =  0 Multiplicity = 1
 C                     0.52956   0.85489   0.51708 
 C                     0.16505   0.11135  -0.77012 
 H                     0.61585   0.70107  -1.57397 
 C                    -1.87366  -0.84357   1.28301 
 H                    -2.61093  -1.42904   1.83643 
 H                    -0.89528  -1.28034   1.47977 
 H                    -1.88363   0.16818   1.7038 
 O                     1.12304   0.3237    1.45001 
 N                     0.77552  -1.19593  -0.80816 
 H                     0.22869  -1.99169  -0.51668 
 N                     0.19387   2.14978   0.53175 
 H                    -0.2822    2.54533  -0.26261 
 C                     0.4386    2.97815   1.68989 
 H                    -0.08662   2.59364   2.56604 
 H                     1.5024    3.02426   1.92409 
 H                     0.08389   3.98392   1.48603 
 C                     2.10473  -1.35657  -0.94663 
 C                     2.62155  -2.74928  -0.79627 
 H                     1.83135  -3.4945   -0.73253 
 H                     3.27664  -2.98167  -1.63456 
 H                     3.22286  -2.79409   0.11263 
 O                     2.85564  -0.41276  -1.18644 
 C                    -2.22938  -0.83359  -0.19197 
 H                    -2.1384   -1.86886  -0.54628 
 C                    -3.66898  -0.40429  -0.39555 
 H                    -3.82318   0.6026    0.00469 
 H                    -3.93659  -0.38513  -1.45438 
 H                    -4.36002  -1.07723   0.11521 
 C                    -1.32702   0.03232  -1.07684 
 H                    -1.43614  -0.29546  -2.1133 
 H                    -1.7116    1.05812  -1.05381 
 
 NAtoms=     31 NQM=       31 NQMF=       0 NMMI=      0 NMMIF=      0
                NMic=       0 NMicF=      0.
                    Isotopes and Nuclear Properties:
 (Nuclear quadrupole moments (NQMom) in fm**2, nuclear magnetic moments (NMagM)
  in nuclear magnetons)

  Atom         1           2           3           4           5           6           7           8           9          10
 IAtWgt=          12          12           1          12           1           1           1          16          14           1
 AtmWgt=  12.0000000  12.0000000   1.0078250  12.0000000   1.0078250   1.0078250   1.0078250  15.9949146  14.0030740   1.0078250
 NucSpn=           0           0           1           0           1           1           1           0           2           1
 AtZEff=   0.0000000   0.0000000   0.0000000   0.0000000   0.0000000   0.0000000   0.0000000   0.0000000   0.0000000   0.0000000
 NQMom=    0.0000000   0.0000000   0.0000000   0.0000000   0.0000000   0.0000000   0.0000000   0.0000000   2.0440000   0.0000000
 NMagM=    0.0000000   0.0000000   2.7928460   0.0000000   2.7928460   2.7928460   2.7928460   0.0000000   0.4037610   2.7928460
 AtZNuc=   6.0000000   6.0000000   1.0000000   6.0000000   1.0000000   1.0000000   1.0000000   8.0000000   7.0000000   1.0000000

  Atom        11          12          13          14          15          16          17          18          19          20
 IAtWgt=          14           1          12           1           1           1          12          12           1           1
 AtmWgt=  14.0030740   1.0078250  12.0000000   1.0078250   1.0078250   1.0078250  12.0000000  12.0000000   1.0078250   1.0078250
 NucSpn=           2           1           0           1           1           1           0           0           1           1
 AtZEff=   0.0000000   0.0000000   0.0000000   0.0000000   0.0000000   0.0000000   0.0000000   0.0000000   0.0000000   0.0000000
 NQMom=    2.0440000   0.0000000   0.0000000   0.0000000   0.0000000   0.0000000   0.0000000   0.0000000   0.0000000   0.0000000
 NMagM=    0.4037610   2.7928460   0.0000000   2.7928460   2.7928460   2.7928460   0.0000000   0.0000000   2.7928460   2.7928460
 AtZNuc=   7.0000000   1.0000000   6.0000000   1.0000000   1.0000000   1.0000000   6.0000000   6.0000000   1.0000000   1.0000000

  Atom        21          22          23          24          25          26          27          28          29          30
 IAtWgt=           1          16          12           1          12           1           1           1          12           1
 AtmWgt=   1.0078250  15.9949146  12.0000000   1.0078250  12.0000000   1.0078250   1.0078250   1.0078250  12.0000000   1.0078250
 NucSpn=           1           0           0           1           0           1           1           1           0           1
 AtZEff=   0.0000000   0.0000000   0.0000000   0.0000000   0.0000000   0.0000000   0.0000000   0.0000000   0.0000000   0.0000000
 NQMom=    0.0000000   0.0000000   0.0000000   0.0000000   0.0000000   0.0000000   0.0000000   0.0000000   0.0000000   0.0000000
 NMagM=    2.7928460   0.0000000   0.0000000   2.7928460   0.0000000   2.7928460   2.7928460   2.7928460   0.0000000   2.7928460
 AtZNuc=   1.0000000   8.0000000   6.0000000   1.0000000   6.0000000   1.0000000   1.0000000   1.0000000   6.0000000   1.0000000

  Atom        31
 IAtWgt=           1
 AtmWgt=   1.0078250
 NucSpn=           1
 AtZEff=   0.0000000
 NQMom=    0.0000000
 NMagM=    2.7928460
 AtZNuc=   1.0000000
 Leave Link  101 at Wed Jun 18 09:34:54 2014, MaxMem=  4294967296 cpu:         1.8
 (Enter /home/ztw1e12/g09/l202.exe)
                          Input orientation:                          
 ---------------------------------------------------------------------
 Center     Atomic      Atomic             Coordinates (Angstroms)
 Number     Number       Type             X           Y           Z
 ---------------------------------------------------------------------
      1          6           0        0.529555    0.854894    0.517081
      2          6           0        0.165053    0.111353   -0.770116
      3          1           0        0.615847    0.701074   -1.573966
      4          6           0       -1.873657   -0.843572    1.283006
      5          1           0       -2.610931   -1.429043    1.836429
      6          1           0       -0.895278   -1.280342    1.479773
      7          1           0       -1.883634    0.168179    1.703800
      8          8           0        1.123036    0.323697    1.450010
      9          7           0        0.775524   -1.195932   -0.808162
     10          1           0        0.228692   -1.991687   -0.516681
     11          7           0        0.193866    2.149778    0.531754
     12          1           0       -0.282200    2.545330   -0.262612
     13          6           0        0.438598    2.978153    1.689890
     14          1           0       -0.086616    2.593638    2.566038
     15          1           0        1.502402    3.024264    1.924088
     16          1           0        0.083886    3.983917    1.486026
     17          6           0        2.104733   -1.356569   -0.946630
     18          6           0        2.621546   -2.749276   -0.796267
     19          1           0        1.831347   -3.494504   -0.732531
     20          1           0        3.276644   -2.981674   -1.634557
     21          1           0        3.222858   -2.794091    0.112630
     22          8           0        2.855642   -0.412763   -1.186443
     23          6           0       -2.229378   -0.833594   -0.191965
     24          1           0       -2.138399   -1.868858   -0.546278
     25          6           0       -3.668982   -0.404290   -0.395551
     26          1           0       -3.823177    0.602602    0.004686
     27          1           0       -3.936589   -0.385133   -1.454375
     28          1           0       -4.360015   -1.077232    0.115212
     29          6           0       -1.327015    0.032324   -1.076842
     30          1           0       -1.436140   -0.295462   -2.113302
     31          1           0       -1.711597    1.058116   -1.053806
 ---------------------------------------------------------------------
                    Distance matrix (angstroms):
                    1          2          3          4          5
     1  C    0.000000
     2  C    1.530553   0.000000
     3  H    2.098472   1.094148   0.000000
     4  C    3.040864   3.046889   4.092169   0.000000
     5  H    4.101183   4.107674   5.155608   1.092074   0.000000
     6  H    2.741561   2.850108   3.941425   1.089363   1.758630
     7  H    2.775493   3.212570   4.156336   1.095813   1.760020
     8  O    1.226681   2.427299   3.089350   3.220338   4.142937
     9  N    2.454110   1.443301   2.051971   3.393420   4.303055
    10  H    3.043387   2.119211   2.918682   2.996150   3.730570
    11  N    1.337769   2.418858   2.590534   3.714724   4.730436
    12  H    2.030872   2.526230   2.434629   4.050472   5.062075
    13  C    2.427341   3.787479   3.983624   4.485271   5.361388
    14  H    2.757013   4.165933   4.605962   4.080943   4.804837
    15  H    2.762656   4.187158   4.291803   5.173869   6.062931
    16  H    3.305792   4.482579   4.519247   5.213237   6.056811
    17  C    3.084510   2.438916   2.616147   4.589339   5.476144
    18  C    4.369365   3.770708   4.066025   5.306782   6.004408
    19  H    4.708870   3.972424   4.448407   4.981655   5.531683
    20  H    5.186068   4.471697   4.543803   6.293588   7.008705
    21  H    4.553301   4.309410   4.675178   5.581108   6.234415
    22  O    3.149544   2.772597   2.531302   5.352574   6.328823
    23  C    3.311412   2.638273   3.515741   1.517292   2.148144
    24  H    3.958224   3.045855   3.904685   2.113665   2.468606
    25  C    4.477293   3.886645   4.579329   2.496741   2.674196
    26  H    4.390043   4.092386   4.712406   2.743383   2.992057
    27  H    5.036938   4.187861   4.681754   3.458195   3.698176
    28  H    5.272808   4.761594   5.547513   2.756867   2.479043
    29  C    2.581485   1.525317   2.114018   2.575829   3.503025
    30  H    3.479395   2.129194   2.344060   3.467961   4.273817
    31  H    2.744403   2.121003   2.411440   3.017179   3.917680
                    6          7          8          9         10
     6  H    0.000000
     7  H    1.767837   0.000000
     8  O    2.578259   3.021367   0.000000
     9  N    2.834317   3.904084   2.743971   0.000000
    10  H    2.398989   3.749330   3.166817   1.008569   0.000000
    11  N    3.721653   3.101037   2.245244   3.650682   4.272255
    12  H    4.248239   3.475948   3.137422   3.925996   4.572755
    13  C    4.467455   3.645396   2.751751   4.876143   5.441721
    14  H    4.103855   3.139360   2.803820   5.146781   5.534237
    15  H    4.947314   4.435199   2.767983   5.079724   5.721840
    16  H    5.354552   4.298653   3.805041   5.707232   6.303939
    17  C    3.859185   5.025605   3.087217   1.346022   2.026761
    18  C    4.439164   5.921024   4.090777   2.412637   2.525442
    19  H    4.151058   5.757781   4.454643   2.530596   2.207613
    20  H    5.477090   6.906133   5.007800   3.182358   3.394073
    21  H    4.595602   6.114174   3.989792   3.064541   3.163055
    22  O    4.683033   5.581374   3.239627   2.254627   3.137268
    23  C    2.184975   2.171869   3.908207   3.088758   2.736554
    24  H    2.448792   3.045862   4.407882   3.002059   2.370460
    25  C    3.460887   2.814687   5.186472   4.533275   4.210269
    26  H    3.780734   2.614869   5.160598   5.004348   4.839401
    27  H    4.319745   3.807210   5.876878   4.824831   4.561782
    28  H    3.729301   3.194859   5.814476   5.219240   4.721414
    29  C    2.906161   2.839058   3.531661   2.449790   2.613546
    30  H    3.764666   3.871109   4.430568   2.721341   2.863223
    31  H    3.543132   2.902753   3.852741   3.365538   3.654384
                   11         12         13         14         15
    11  N    0.000000
    12  H    1.007034   0.000000
    13  C    1.444776   2.125829   0.000000
    14  H    2.100951   2.835815   1.091484   0.000000
    15  H    2.101330   2.862838   1.090254   1.767064   0.000000
    16  H    2.070458   2.293749   1.085791   1.768721   1.767773
    17  C    4.258110   4.624948   5.340137   5.722323   5.272146
    18  C    5.626544   6.062127   6.614354   6.869204   6.479705
    19  H    6.011462   6.416190   7.050047   7.185027   7.046997
    20  H    6.366178   6.715309   7.390940   7.748588   7.202998
    21  H    5.813114   6.398098   6.599898   6.782290   6.332030
    22  O    4.074785   4.410196   5.060998   5.637060   4.829060
    23  C    3.911060   3.900464   5.018853   4.893253   5.769483
    24  H    4.769806   4.796978   5.927468   5.814653   6.580333
    25  C    4.722791   4.493131   5.715085   5.530997   6.624117
    26  H    4.336841   4.047735   5.161965   4.948397   6.157138
    27  H    5.237475   4.833474   6.351406   6.313406   7.254007
    28  H    5.596868   5.467566   6.477071   6.143596   7.379853
    29  C    3.063376   2.840741   4.410227   4.622715   5.095379
    30  H    3.953788   3.581442   5.356815   5.662538   5.996343
    31  H    2.708600   2.209292   3.979667   4.254605   4.802435
                   16         17         18         19         20
    16  H    0.000000
    17  C    6.206644   0.000000
    18  C    7.548806   1.493097   0.000000
    19  H    7.993897   2.165951   1.088045   0.000000
    20  H    8.273524   2.118392   1.088987   1.779193   0.000000
    21  H    7.594785   2.106823   1.090724   1.772337   1.758051
    22  O    5.844272   1.229693   2.380406   3.279077   2.641468
    23  C    5.601362   4.430298   5.250379   4.884889   6.083716
    24  H    6.582081   4.292655   4.847134   4.293751   5.634306
    25  C    6.072949   5.877611   6.725346   6.317958   7.511309
    26  H    5.375202   6.315336   7.308288   7.021639   8.120444
    27  H    6.625615   6.139956   7.002243   6.592293   7.668456
    28  H    6.873326   6.557324   7.236623   6.700361   8.062701
    29  C    4.916708   3.704440   4.838094   4.746822   5.530724
    30  H    5.794715   3.876191   4.921443   4.776701   5.445665
    31  H    4.270225   4.517363   5.773966   5.777717   6.445132
                   21         22         23         24         25
    21  H    0.000000
    22  O    2.737364   0.000000
    23  C    5.802000   5.198415   0.000000
    24  H    5.480264   5.241228   1.097992   0.000000
    25  C    7.312103   6.572389   1.515984   2.123761   0.000000
    26  H    7.822773   6.859765   2.154420   3.041406   1.094439
    27  H    7.714679   6.797570   2.170107   2.501913   1.092286
    28  H    7.774804   7.362169   2.166410   2.449453   1.091447
    29  C    5.486785   4.207699   1.532018   2.134089   2.477821
    30  H    5.736217   4.392291   2.147172   2.329014   2.819237
    31  H    6.367803   4.800078   2.142296   3.001153   2.530472
                   26         27         28         29         30
    26  H    0.000000
    27  H    1.765600   0.000000
    28  H    1.766990   1.766888   0.000000
    29  C    2.779522   2.669584   3.442557   0.000000
    30  H    3.315168   2.587368   3.758522   1.092521   0.000000
    31  H    2.405550   2.682166   3.597281   1.095757   1.740857
                   31
    31  H    0.000000
 Stoichiometry    C9H18N2O2
 Framework group  C1[X(C9H18N2O2)]
 Deg. of freedom    87
 Full point group                 C1      NOp   1
 Largest Abelian subgroup         C1      NOp   1
 Largest concise Abelian subgroup C1      NOp   1
                         Standard orientation:                         
 ---------------------------------------------------------------------
 Center     Atomic      Atomic             Coordinates (Angstroms)
 Number     Number       Type             X           Y           Z
 ---------------------------------------------------------------------
      1          6           0       -0.020700    1.189961    0.068889
      2          6           0        0.176585   -0.084556   -0.755294
      3          1           0        0.557910    0.260179   -1.721167
      4          6           0       -1.798250   -0.868930    1.428353
      5          1           0       -2.389493   -1.425949    2.158276
      6          1           0       -0.795507   -0.755279    1.838599
      7          1           0       -2.245016    0.128194    1.344991
      8          8           0        0.505215    1.365851    1.163066
      9          7           0        1.192254   -0.929534   -0.174307
     10          1           0        0.903406   -1.687826    0.424669
     11          7           0       -0.775838    2.126078   -0.516839
     12          1           0       -1.177374    1.941409   -1.421706
     13          6           0       -1.084224    3.370423    0.149405
     14          1           0       -1.619577    3.193530    1.083987
     15          1           0       -0.177322    3.930829    0.377723
     16          1           0       -1.710692    3.973398   -0.500904
     17          6           0        2.492546   -0.581662   -0.174327
     18          6           0        3.411666   -1.459160    0.609608
     19          1           0        2.931572   -2.365197    0.973541
     20          1           0        4.269725   -1.722388   -0.007108
     21          1           0        3.782716   -0.889528    1.462556
     22          8           0        2.906088    0.401382   -0.786496
     23          6           0       -1.811782   -1.595130    0.096201
     24          1           0       -1.297069   -2.552324    0.252520
     25          6           0       -3.232268   -1.903486   -0.334316
     26          1           0       -3.804851   -0.976703   -0.439289
     27          1           0       -3.257306   -2.419862   -1.296510
     28          1           0       -3.742048   -2.530945    0.398949
     29          6           0       -1.095130   -0.873661   -1.049649
     30          1           0       -0.860784   -1.602702   -1.828869
     31          1           0       -1.804283   -0.175312   -1.508010
 ---------------------------------------------------------------------
 Rotational constants (GHZ):      0.8709786      0.6059689      0.4262538
 Leave Link  202 at Wed Jun 18 09:34:54 2014, MaxMem=  4294967296 cpu:         1.8
 (Enter /home/ztw1e12/g09/l301.exe)
 Standard basis: CC-pVTZ (5D, 7F)
 Converting basis for Fermi contact spin-spin IFCMod=1.
 AO basis functions are being uncontracted.
 Ernie: Thresh=  0.10000D-02 Tol=  0.10000D-05 Strict=F.
 There are  1119 symmetry adapted cartesian basis functions of A   symmetry.
 There are  1036 symmetry adapted basis functions of A   symmetry.
  1036 basis functions,  1119 primitive gaussians,  1119 cartesian basis functions
    51 alpha electrons       51 beta electrons
       nuclear repulsion energy       877.3816128988 Hartrees.
 IExCor= 4235 DFT=T Ex+Corr=M06 ExCW=0 ScaHFX=  0.270000
 ScaDFX=  1.000000  1.000000  1.000000  1.000000 ScalE2=  1.000000  1.000000
 IRadAn= 199590 IRanWt=     -1 IRanGd=            0 ICorTp=0 IEmpDi=  4
 NAtoms=   31 NActive=   31 NUniq=   31 SFac= 1.00D+00 NAtFMM=   60 NAOKFM=F Big=F
 Integral buffers will be    131072 words long.
 Raffenetti 2 integral format.
 Two-electron integral symmetry is turned on.
 Leave Link  301 at Wed Jun 18 09:34:55 2014, MaxMem=  4294967296 cpu:         9.3
 (Enter /home/ztw1e12/g09/l302.exe)
 NPDir=0 NMtPBC=     1 NCelOv=     1 NCel=       1 NClECP=     1 NCelD=      1
         NCelK=      1 NCelE2=     1 NClLst=     1 CellRange=     0.0.
 One-electron integrals computed using PRISM.
 GSVD:  received Info=                   1 from GESDD.
 NBasis=  1036 RedAO= T EigKep=  1.36D-04  NBF=  1036
 NBsUse=   932 1.00D-06 EigRej=  6.09D-15 NBFU=   932
 Precomputing XC quadrature grid using
 IXCGrd= 4 IRadAn=      199590 IRanWt=          -1 IRanGd=           0 AccXCQ= 0.00D+00.
 Generated NRdTot=       0 NPtTot=           0 NUsed=           0 NTot=          32
 NSgBfM=   879   879   879   879   879 MxSgAt=    31 MxSgA2=    31.
 Leave Link  302 at Wed Jun 18 09:34:59 2014, MaxMem=  4294967296 cpu:        66.2
 (Enter /home/ztw1e12/g09/l308.exe)
 Leave Link  308 at Wed Jun 18 09:35:00 2014, MaxMem=  4294967296 cpu:         5.6
 (Enter /home/ztw1e12/g09/l303.exe)
 DipDrv:  MaxL=1.
 Leave Link  303 at Wed Jun 18 09:35:01 2014, MaxMem=  4294967296 cpu:         3.3
 (Enter /home/ztw1e12/g09/l401.exe)
 ExpMin= 1.03D-01 ExpMax= 1.38D+05 ExpMxC= 1.38D+05 IAcc=4 IRadAn=    199590 AccDes= 0.00D+00
 Harris functional with IExCor= 1009 and IRadAn=  199590 diagonalized for initial guess.
 HarFok:  IExCor= 1009 AccDes= 0.00D+00 IRadAn=    199590 IDoV= 1 UseB2=F ITyADJ=14
 ICtDFT=  3500011 ScaDFX=  1.000000  1.000000  1.000000  1.000000
 FoFCou: FMM=F IPFlag=           0 FMFlag=      100000 FMFlg1=           0
         NFxFlg=           0 DoJE=T BraDBF=F KetDBF=T FulRan=T
         wScrn=  0.000000 ICntrl=     500 IOpCl=  0 I1Cent=   200000004 NGrid=           0
         NMat0=    1 NMatS0=      1 NMatT0=    0 NMatD0=    1 NMtDS0=    0 NMtDT0=    0
 Petite list used in FoFCou.
 Harris En= -613.562852780030    
 JPrj=0 DoOrth=F DoCkMO=F.
 Leave Link  401 at Wed Jun 18 09:35:18 2014, MaxMem=  4294967296 cpu:       263.0
 (Enter /home/ztw1e12/g09/l502.exe)
 Closed shell SCF:
 Using DIIS extrapolation, IDIIS=  1040.
 Integral symmetry usage will be decided dynamically.
 IVT=     3801329 IEndB=     3801329 NGot=  4294967296 MDV=  4292435888
 LenX=  4292435888 LenY=  4291182608
 Requested convergence on RMS density matrix=1.00D-08 within 128 cycles.
 Requested convergence on MAX density matrix=1.00D-06.
 Requested convergence on             energy=1.00D-06.
 No special actions if energy rises.
 Fock matrices will be formed incrementally for  20 cycles.
 Integral accuracy reduced to 1.0D-05 until final iterations.

 Cycle   1  Pass 0  IDiag  1:
 FoFJK:  IHMeth= 1 ICntrl=       0 DoSepK=F KAlg= 0 I1Cent=   0 FoldK=F
 IRaf= 480000000 NMat=   1 IRICut=       1 DoRegI=T DoRafI=F ISym2E= 0.
 FoFCou: FMM=F IPFlag=           0 FMFlag=      100000 FMFlg1=           0
         NFxFlg=           0 DoJE=F BraDBF=F KetDBF=F FulRan=T
         wScrn=  0.000000 ICntrl=       0 IOpCl=  0 I1Cent=           0 NGrid=           0
         NMat0=    1 NMatS0=      1 NMatT0=    0 NMatD0=    1 NMtDS0=    0 NMtDT0=    0
 Symmetry not used in FoFCou.
 E= -613.181645436440    
 DIIS: error= 1.38D-01 at cycle   1 NSaved=   1.
 NSaved= 1 IEnMin= 1 EnMin= -613.181645436440     IErMin= 1 ErrMin= 1.38D-01
 ErrMax= 1.38D-01  0.00D+00 EMaxC= 1.00D-01 BMatC= 1.30D+01 BMatP= 1.30D+01
 IDIUse=3 WtCom= 0.00D+00 WtEn= 1.00D+00
 Coeff-Com:  0.100D+01
 Coeff-En:   0.100D+01
 Coeff:      0.100D+01
 Gap=     0.286 Goal=   None    Shift=    0.000
 GapD=    0.286 DampG=1.000 DampE=0.250 DampFc=0.2500 IDamp=-1.
 Damping current iteration by 2.50D-01
 RMSDP=2.12D-03 MaxDP=3.08D-01              OVMax= 2.87D-01

 Cycle   2  Pass 0  IDiag  1:
 RMSU=  5.30D-04    CP:  1.01D+00
 E= -613.338775776251     Delta-E=       -0.157130339811 Rises=F Damp=T
 DIIS: error= 1.05D-01 at cycle   2 NSaved=   2.
 NSaved= 2 IEnMin= 2 EnMin= -613.338775776251     IErMin= 2 ErrMin= 1.05D-01
 ErrMax= 1.05D-01  0.00D+00 EMaxC= 1.00D-01 BMatC= 7.66D+00 BMatP= 1.30D+01
 IDIUse=3 WtCom= 0.00D+00 WtEn= 1.00D+00
 Coeff-Com: -0.279D+01 0.379D+01
 Coeff-En:   0.000D+00 0.100D+01
 Coeff:      0.000D+00 0.100D+01
 Gap=     0.218 Goal=   None    Shift=    0.000
 RMSDP=5.81D-04 MaxDP=5.40D-02 DE=-1.57D-01 OVMax= 1.35D-01

 Cycle   3  Pass 0  IDiag  1:
 RMSU=  4.28D-04    CP:  1.03D+00  1.74D+00
 E= -613.528761043008     Delta-E=       -0.189985266757 Rises=F Damp=F
 DIIS: error= 1.45D-02 at cycle   3 NSaved=   3.
 NSaved= 3 IEnMin= 3 EnMin= -613.528761043008     IErMin= 3 ErrMin= 1.45D-02
 ErrMax= 1.45D-02  0.00D+00 EMaxC= 1.00D-01 BMatC= 2.31D-01 BMatP= 7.66D+00
 IDIUse=3 WtCom= 8.55D-01 WtEn= 1.45D-01
 Coeff-Com:  0.122D+01-0.167D+01 0.145D+01
 Coeff-En:   0.136D+00 0.000D+00 0.864D+00
 Coeff:      0.106D+01-0.142D+01 0.136D+01
 Gap=     0.248 Goal=   None    Shift=    0.000
 RMSDP=4.18D-04 MaxDP=3.46D-02 DE=-1.90D-01 OVMax= 6.47D-02

 Cycle   4  Pass 0  IDiag  1:
 RMSU=  2.71D-04    CP:  1.02D+00  1.18D+00  7.11D-01
 E= -613.542540593814     Delta-E=       -0.013779550806 Rises=F Damp=F
 DIIS: error= 8.12D-03 at cycle   4 NSaved=   4.
 NSaved= 4 IEnMin= 4 EnMin= -613.542540593814     IErMin= 4 ErrMin= 8.12D-03
 ErrMax= 8.12D-03  0.00D+00 EMaxC= 1.00D-01 BMatC= 1.05D-01 BMatP= 2.31D-01
 IDIUse=3 WtCom= 9.19D-01 WtEn= 8.12D-02
 Coeff-Com:  0.757D+00-0.104D+01 0.748D+00 0.537D+00
 Coeff-En:   0.000D+00 0.000D+00 0.450D+00 0.550D+00
 Coeff:      0.695D+00-0.957D+00 0.723D+00 0.538D+00
 Gap=     0.278 Goal=   None    Shift=    0.000
 RMSDP=2.73D-04 MaxDP=2.14D-02 DE=-1.38D-02 OVMax= 7.45D-02

 Cycle   5  Pass 0  IDiag  1:
 RMSU=  8.31D-05    CP:  1.02D+00  1.11D+00  8.52D-01  7.84D-02
 E= -613.615384740910     Delta-E=       -0.072844147096 Rises=F Damp=F
 DIIS: error= 2.84D-03 at cycle   5 NSaved=   5.
 NSaved= 5 IEnMin= 5 EnMin= -613.615384740910     IErMin= 5 ErrMin= 2.84D-03
 ErrMax= 2.84D-03  0.00D+00 EMaxC= 1.00D-01 BMatC= 1.40D-02 BMatP= 1.05D-01
 IDIUse=3 WtCom= 9.72D-01 WtEn= 2.84D-02
 Coeff-Com:  0.134D+00-0.192D+00 0.133D+00 0.271D+00 0.654D+00
 Coeff-En:   0.000D+00 0.000D+00 0.000D+00 0.779D-01 0.922D+00
 Coeff:      0.131D+00-0.186D+00 0.129D+00 0.265D+00 0.661D+00
 Gap=     0.267 Goal=   None    Shift=    0.000
 RMSDP=1.50D-04 MaxDP=1.99D-02 DE=-7.28D-02 OVMax= 2.84D-02

 Cycle   6  Pass 0  IDiag  1:
 RMSU=  7.51D-05    CP:  1.02D+00  1.17D+00  9.37D-01  4.75D-01  3.57D-01
 E= -613.623244670581     Delta-E=       -0.007859929671 Rises=F Damp=F
 DIIS: error= 8.14D-04 at cycle   6 NSaved=   6.
 NSaved= 6 IEnMin= 6 EnMin= -613.623244670581     IErMin= 6 ErrMin= 8.14D-04
 ErrMax= 8.14D-04  0.00D+00 EMaxC= 1.00D-01 BMatC= 1.08D-03 BMatP= 1.40D-02
 IDIUse=3 WtCom= 9.92D-01 WtEn= 8.14D-03
 Coeff-Com:  0.591D-01-0.802D-01 0.194D-01 0.438D-01 0.203D+00 0.755D+00
 Coeff-En:   0.000D+00 0.000D+00 0.000D+00 0.000D+00 0.150D-01 0.985D+00
 Coeff:      0.586D-01-0.796D-01 0.192D-01 0.434D-01 0.202D+00 0.756D+00
 Gap=     0.268 Goal=   None    Shift=    0.000
 RMSDP=3.11D-05 MaxDP=3.02D-03 DE=-7.86D-03 OVMax= 9.14D-03

 Cycle   7  Pass 0  IDiag  1:
 RMSU=  2.20D-05    CP:  1.02D+00  1.13D+00  9.35D-01  4.71D-01  4.89D-01
                    CP:  1.09D+00
 E= -613.623825590197     Delta-E=       -0.000580919616 Rises=F Damp=F
 DIIS: error= 3.92D-04 at cycle   7 NSaved=   7.
 NSaved= 7 IEnMin= 7 EnMin= -613.623825590197     IErMin= 7 ErrMin= 3.92D-04
 ErrMax= 3.92D-04  0.00D+00 EMaxC= 1.00D-01 BMatC= 2.57D-04 BMatP= 1.08D-03
 IDIUse=3 WtCom= 9.96D-01 WtEn= 3.92D-03
 Coeff-Com:  0.404D-01-0.541D-01 0.127D-01 0.819D-02 0.615D-01 0.429D+00
 Coeff-Com:  0.503D+00
 Coeff-En:   0.000D+00 0.000D+00 0.000D+00 0.000D+00 0.000D+00 0.130D+00
 Coeff-En:   0.870D+00
 Coeff:      0.402D-01-0.539D-01 0.127D-01 0.816D-02 0.612D-01 0.428D+00
 Coeff:      0.504D+00
 Gap=     0.268 Goal=   None    Shift=    0.000
 RMSDP=1.20D-05 MaxDP=1.22D-03 DE=-5.81D-04 OVMax= 3.18D-03

 Cycle   8  Pass 0  IDiag  1:
 RMSU=  7.26D-06    CP:  1.02D+00  1.13D+00  9.41D-01  4.83D-01  4.76D-01
                    CP:  1.15D+00  6.67D-01
 E= -613.623998410608     Delta-E=       -0.000172820411 Rises=F Damp=F
 DIIS: error= 1.26D-04 at cycle   8 NSaved=   8.
 NSaved= 8 IEnMin= 8 EnMin= -613.623998410608     IErMin= 8 ErrMin= 1.26D-04
 ErrMax= 1.26D-04  0.00D+00 EMaxC= 1.00D-01 BMatC= 2.99D-05 BMatP= 2.57D-04
 IDIUse=3 WtCom= 9.99D-01 WtEn= 1.26D-03
 Coeff-Com:  0.224D-01-0.300D-01 0.866D-02-0.287D-02 0.455D-02 0.174D+00
 Coeff-Com:  0.299D+00 0.524D+00
 Coeff-En:   0.000D+00 0.000D+00 0.000D+00 0.000D+00 0.000D+00 0.000D+00
 Coeff-En:   0.000D+00 0.100D+01
 Coeff:      0.224D-01-0.299D-01 0.865D-02-0.286D-02 0.454D-02 0.174D+00
 Coeff:      0.299D+00 0.525D+00
 Gap=     0.267 Goal=   None    Shift=    0.000
 RMSDP=5.59D-06 MaxDP=6.35D-04 DE=-1.73D-04 OVMax= 1.19D-03

 Initial convergence to 1.0D-05 achieved.  Increase integral accuracy.
 Cycle   9  Pass 1  IDiag  1:
 E= -613.623954769011     Delta-E=        0.000043641596 Rises=F Damp=F
 DIIS: error= 7.48D-05 at cycle   1 NSaved=   1.
 NSaved= 1 IEnMin= 1 EnMin= -613.623954769011     IErMin= 1 ErrMin= 7.48D-05
 ErrMax= 7.48D-05  0.00D+00 EMaxC= 1.00D-01 BMatC= 1.16D-05 BMatP= 1.16D-05
 IDIUse=1 WtCom= 1.00D+00 WtEn= 0.00D+00
 Coeff-Com:  0.100D+01
 Coeff:      0.100D+01
 Gap=     0.268 Goal=   None    Shift=    0.000
 RMSDP=5.59D-06 MaxDP=6.35D-04 DE= 4.36D-05 OVMax= 1.28D-03

 Cycle  10  Pass 1  IDiag  1:
 RMSU=  2.63D-05    CP:  1.00D+00
 E= -613.623952129075     Delta-E=        0.000002639937 Rises=F Damp=F
 DIIS: error= 1.07D-04 at cycle   2 NSaved=   2.
 NSaved= 2 IEnMin= 1 EnMin= -613.623954769011     IErMin= 1 ErrMin= 7.48D-05
 ErrMax= 1.07D-04  0.00D+00 EMaxC= 1.00D-01 BMatC= 1.22D-05 BMatP= 1.16D-05
 IDIUse=3 WtCom= 9.99D-01 WtEn= 1.07D-03
 Coeff-Com:  0.508D+00 0.492D+00
 Coeff-En:   0.601D+00 0.399D+00
 Coeff:      0.508D+00 0.492D+00
 Gap=     0.268 Goal=   None    Shift=    0.000
 RMSDP=4.05D-06 MaxDP=5.73D-04 DE= 2.64D-06 OVMax= 1.27D-03

 Cycle  11  Pass 1  IDiag  1:
 RMSU=  3.99D-06    CP:  1.00D+00  9.86D-01
 E= -613.623958580544     Delta-E=       -0.000006451469 Rises=F Damp=F
 DIIS: error= 5.76D-05 at cycle   3 NSaved=   3.
 NSaved= 3 IEnMin= 3 EnMin= -613.623958580544     IErMin= 3 ErrMin= 5.76D-05
 ErrMax= 5.76D-05  0.00D+00 EMaxC= 1.00D-01 BMatC= 3.18D-06 BMatP= 1.16D-05
 IDIUse=1 WtCom= 1.00D+00 WtEn= 0.00D+00
 Coeff-Com:  0.599D-01 0.334D+00 0.606D+00
 Coeff:      0.599D-01 0.334D+00 0.606D+00
 Gap=     0.268 Goal=   None    Shift=    0.000
 RMSDP=1.40D-06 MaxDP=1.66D-04 DE=-6.45D-06 OVMax= 4.42D-04

 Cycle  12  Pass 1  IDiag  1:
 RMSU=  4.78D-07    CP:  1.00D+00  1.00D+00  6.95D-01
 E= -613.623960763809     Delta-E=       -0.000002183266 Rises=F Damp=F
 DIIS: error= 8.23D-06 at cycle   4 NSaved=   4.
 NSaved= 4 IEnMin= 4 EnMin= -613.623960763809     IErMin= 4 ErrMin= 8.23D-06
 ErrMax= 8.23D-06  0.00D+00 EMaxC= 1.00D-01 BMatC= 1.07D-07 BMatP= 3.18D-06
 IDIUse=1 WtCom= 1.00D+00 WtEn= 0.00D+00
 Coeff-Com:  0.722D-02 0.144D+00 0.301D+00 0.547D+00
 Coeff:      0.722D-02 0.144D+00 0.301D+00 0.547D+00
 Gap=     0.268 Goal=   None    Shift=    0.000
 RMSDP=2.43D-07 MaxDP=2.14D-05 DE=-2.18D-06 OVMax= 5.48D-05

 Cycle  13  Pass 1  IDiag  1:
 RMSU=  1.91D-07    CP:  1.00D+00  1.00D+00  7.02D-01  7.01D-01
 E= -613.623960836496     Delta-E=       -0.000000072686 Rises=F Damp=F
 DIIS: error= 2.15D-06 at cycle   5 NSaved=   5.
 NSaved= 5 IEnMin= 5 EnMin= -613.623960836496     IErMin= 5 ErrMin= 2.15D-06
 ErrMax= 2.15D-06  0.00D+00 EMaxC= 1.00D-01 BMatC= 8.02D-09 BMatP= 1.07D-07
 IDIUse=1 WtCom= 1.00D+00 WtEn= 0.00D+00
 Coeff-Com: -0.185D-02 0.416D-01 0.941D-01 0.271D+00 0.595D+00
 Coeff:     -0.185D-02 0.416D-01 0.941D-01 0.271D+00 0.595D+00
 Gap=     0.268 Goal=   None    Shift=    0.000
 RMSDP=7.43D-08 MaxDP=8.92D-06 DE=-7.27D-08 OVMax= 1.49D-05

 Cycle  14  Pass 1  IDiag  1:
 RMSU=  4.12D-08    CP:  1.00D+00  1.01D+00  7.05D-01  8.16D-01  9.06D-01
 E= -613.623960841954     Delta-E=       -0.000000005458 Rises=F Damp=F
 DIIS: error= 4.27D-07 at cycle   6 NSaved=   6.
 NSaved= 6 IEnMin= 6 EnMin= -613.623960841954     IErMin= 6 ErrMin= 4.27D-07
 ErrMax= 4.27D-07  0.00D+00 EMaxC= 1.00D-01 BMatC= 3.10D-10 BMatP= 8.02D-09
 IDIUse=1 WtCom= 1.00D+00 WtEn= 0.00D+00
 Coeff-Com: -0.107D-02 0.127D-01 0.294D-01 0.997D-01 0.262D+00 0.597D+00
 Coeff:     -0.107D-02 0.127D-01 0.294D-01 0.997D-01 0.262D+00 0.597D+00
 Gap=     0.268 Goal=   None    Shift=    0.000
 RMSDP=1.94D-08 MaxDP=1.83D-06 DE=-5.46D-09 OVMax= 7.10D-06

 Cycle  15  Pass 1  IDiag  1:
 RMSU=  1.73D-08    CP:  1.00D+00  1.01D+00  7.06D-01  8.26D-01  9.22D-01
                    CP:  8.49D-01
 E= -613.623960842062     Delta-E=       -0.000000000108 Rises=F Damp=F
 DIIS: error= 3.37D-07 at cycle   7 NSaved=   7.
 NSaved= 7 IEnMin= 7 EnMin= -613.623960842062     IErMin= 7 ErrMin= 3.37D-07
 ErrMax= 3.37D-07  0.00D+00 EMaxC= 1.00D-01 BMatC= 1.18D-10 BMatP= 3.10D-10
 IDIUse=1 WtCom= 1.00D+00 WtEn= 0.00D+00
 Coeff-Com: -0.350D-03 0.177D-03 0.780D-03 0.112D-01 0.508D-01 0.391D+00
 Coeff-Com:  0.547D+00
 Coeff:     -0.350D-03 0.177D-03 0.780D-03 0.112D-01 0.508D-01 0.391D+00
 Coeff:      0.547D+00
 Gap=     0.268 Goal=   None    Shift=    0.000
 RMSDP=1.42D-08 MaxDP=2.08D-06 DE=-1.08D-10 OVMax= 2.94D-06

 Cycle  16  Pass 1  IDiag  1:
 RMSU=  6.04D-09    CP:  1.00D+00  1.01D+00  7.06D-01  8.39D-01  9.53D-01
                    CP:  1.02D+00  7.63D-01
 E= -613.623960842175     Delta-E=       -0.000000000113 Rises=F Damp=F
 DIIS: error= 8.80D-08 at cycle   8 NSaved=   8.
 NSaved= 8 IEnMin= 8 EnMin= -613.623960842175     IErMin= 8 ErrMin= 8.80D-08
 ErrMax= 8.80D-08  0.00D+00 EMaxC= 1.00D-01 BMatC= 1.13D-11 BMatP= 1.18D-10
 IDIUse=1 WtCom= 1.00D+00 WtEn= 0.00D+00
 Coeff-Com: -0.418D-04-0.174D-02-0.378D-02-0.792D-02-0.940D-02 0.138D+00
 Coeff-Com:  0.302D+00 0.583D+00
 Coeff:     -0.418D-04-0.174D-02-0.378D-02-0.792D-02-0.940D-02 0.138D+00
 Coeff:      0.302D+00 0.583D+00
 Gap=     0.268 Goal=   None    Shift=    0.000
 RMSDP=3.43D-09 MaxDP=3.45D-07 DE=-1.13D-10 OVMax= 7.26D-07

 SCF Done:  E(RM06) =  -613.623960842     A.U. after   16 cycles
            NFock= 16  Conv=0.34D-08     -V/T= 2.0046
 KE= 6.107999949456D+02 PE=-3.186164286971D+03 EE= 1.084358718285D+03
 Leave Link  502 at Wed Jun 18 10:03:15 2014, MaxMem=  4294967296 cpu:     26752.9
 (Enter /home/ztw1e12/g09/l801.exe)
 DoSCS=F DFT=T ScalE2(SS,OS)=  1.000000  1.000000
 Range of M.O.s used for correlation:     1   932
 NBasis=  1036 NAE=    51 NBE=    51 NFC=     0 NFV=     0
 NROrb=    932 NOA=    51 NOB=    51 NVA=   881 NVB=   881

 **** Warning!!: The largest alpha MO coefficient is  0.10081821D+02

 Leave Link  801 at Wed Jun 18 10:03:15 2014, MaxMem=  4294967296 cpu:         0.3
 (Enter /home/ztw1e12/g09/l1002.exe)
 Minotr:  Closed shell wavefunction.
          IDoAtm=1111111111111111111111111111111
          Direct CPHF calculation.
          Differentiating once with respect to Fermi-contact.
          Electric field/nuclear overlap derivatives assumed to be zero.
          Requested convergence is 1.0D-10 RMS, and 1.0D-09 maximum.
          Secondary convergence is 1.0D-12 RMS, and 1.0D-12 maximum.
          NewPWx=T KeepS1=F KeepF1=F KeepIn=T MapXYZ=F SortEE=F KeepMc=T.
          MDV=    4294966050 using IRadAn=  199590.
 Using stored XC quadrature information.
          Solving linear equations simultaneously, MaxMat=       0.
          There are    31 degrees of freedom in the 1st order CPHF.  IDoFFX=0 NUNeed=    31.
     31 vectors produced by pass  0 Test12= 1.45D-17 3.23D-11 XBig12= 4.16D+01 2.57D+00.
 AX will form    31 AO Fock derivatives at one time.
 FoFJK:  IHMeth= 1 ICntrl=       0 DoSepK=F KAlg= 0 I1Cent=   0 FoldK=F
 IRaf= 510000000 NMat=  31 IRICut=       1 DoRegI=T DoRafI=F ISym2E=-1.
 FoFCou: FMM=F IPFlag=           0 FMFlag=      100000 FMFlg1=           0
         NFxFlg=           0 DoJE=F BraDBF=F KetDBF=F FulRan=T
         wScrn=  0.000000 ICntrl=       0 IOpCl=  0 I1Cent=           0 NGrid=           0
         NMat0=   31 NMatS0=      0 NMatT0=   31 NMatD0=   31 NMtDS0=    0 NMtDT0=    0
 Petite list used in FoFCou.
     31 vectors produced by pass  1 Test12= 1.45D-17 3.23D-11 XBig12= 3.45D-01 1.76D-01.
     31 vectors produced by pass  2 Test12= 1.45D-17 3.23D-11 XBig12= 1.70D-02 5.01D-02.
     31 vectors produced by pass  3 Test12= 1.45D-17 3.23D-11 XBig12= 3.80D-04 6.45D-03.
     31 vectors produced by pass  4 Test12= 1.45D-17 3.23D-11 XBig12= 5.43D-06 9.01D-04.
     31 vectors produced by pass  5 Test12= 1.45D-17 3.23D-11 XBig12= 1.45D-07 1.58D-04.
     31 vectors produced by pass  6 Test12= 1.45D-17 3.23D-11 XBig12= 4.34D-09 1.96D-05.
     31 vectors produced by pass  7 Test12= 1.45D-17 3.23D-11 XBig12= 1.49D-10 5.09D-06.
     31 vectors produced by pass  8 Test12= 1.45D-17 3.23D-11 XBig12= 2.98D-12 3.57D-07.
     31 vectors produced by pass  9 Test12= 1.45D-17 3.23D-11 XBig12= 5.47D-14 7.55D-08.
     31 vectors produced by pass 10 Test12= 1.45D-17 3.23D-11 XBig12= 2.09D-15 7.53D-09.
     30 vectors produced by pass 11 Test12= 1.45D-17 3.23D-11 XBig12= 2.20D-17 5.79D-10.
      4 vectors produced by pass 12 Test12= 1.45D-17 3.23D-11 XBig12= 2.29D-19 4.97D-11.
 InvSVY:  IOpt=1 It=  1 EMax= 8.88D-15
 Solved reduced A of dimension   375 with    31 vectors.
 Max diff in FC couplings:  IJMax=    13    11 Diff= 3.39D-04 IJMaxR=    18    14 DiffR= 6.09D-01
 Fermi Contact (FC) contribution to K (Hz):
                1             2             3             4             5 
      1  0.123400D+11
      2  0.268437D+02  0.123400D+11
      3 -0.122902D+01  0.186551D+02  0.123400D+11
      4  0.199957D+00  0.104611D+01  0.210529D-01  0.123400D+11
      5  0.277966D-01  0.106849D+00  0.183172D-02  0.167936D+02  0.123400D+11
      6  0.602714D-01  0.378131D-01  0.115916D-01  0.179860D+02 -0.852555D+00
      7  0.138437D-01  0.467349D-01  0.338827D-02  0.169158D+02 -0.828005D+00
      8 -0.950773D+01  0.275892D+01  0.363899D+00  0.182296D+01  0.206090D+00
      9 -0.185178D-01  0.186220D+02 -0.777284D+00  0.529724D+00  0.345850D-01
     10 -0.467361D-01  0.200207D+00  0.265402D+00  0.206540D-01 -0.294005D-03
     11  0.288523D+02  0.133980D+02  0.550159D-01  0.144545D+00  0.315564D-01
     12  0.479852D+00  0.696642D-01 -0.224173D-01 -0.220696D-02 -0.849468D-03
     13 -0.404996D+00  0.990173D+00 -0.442164D-01 -0.152430D-02  0.186793D-02
     14  0.195227D+00 -0.850539D-01  0.286263D-01  0.713054D-02  0.153533D-02
     15  0.179679D+00 -0.811427D-01  0.211799D-01  0.221398D-02  0.112245D-02
     16  0.951935D+00 -0.174846D-01  0.351301D-03  0.145802D-02  0.264248D-03
     17  0.649442D-01 -0.544259D+00  0.328480D+00  0.196436D-01  0.202036D-02
     18 -0.167026D+00  0.865387D+00 -0.819730D-01 -0.312282D-02 -0.222836D-03
     19  0.132273D-03  0.109565D+00 -0.224500D-02 -0.868297D-03 -0.182190D-04
     20  0.505314D-01  0.358970D-01  0.842392D-02  0.902941D-03  0.115993D-03
     21  0.944822D-01  0.236627D-01  0.189130D-01  0.996401D-03  0.108564D-03
     22  0.445856D+00  0.808180D+00  0.176320D+00  0.612347D-01  0.741287D-03
     23  0.353244D+00 -0.657420D+00  0.106375D+01  0.169834D+02 -0.683030D+00
     24 -0.196526D-02  0.279512D-01 -0.195857D-01 -0.687023D+00  0.109933D+00
     25 -0.858900D-01  0.195265D+01 -0.580642D-01 -0.216596D+00  0.449773D+00
     26  0.547011D-02 -0.148935D-01  0.283957D-02  0.459020D+00 -0.426281D-02
     27  0.164074D-02  0.424050D-02 -0.143105D-02  0.130545D+01  0.128978D-01
     28 -0.775514D-02  0.220659D+00  0.116256D-02  0.252534D+00 -0.106751D-01
     29 -0.989234D-01  0.172379D+02 -0.946472D+00 -0.237412D+00  0.121435D+01
     30  0.108847D+01 -0.846257D+00  0.207226D+00  0.917023D+00  0.215602D-01
     31  0.219068D+00 -0.507205D+00  0.109337D+00  0.695442D-01 -0.209365D-01
                6             7             8             9            10 
      6  0.123400D+11
      7 -0.782357D+00  0.123400D+11
      8  0.196659D+00  0.131765D+00  0.123400D+11
      9  0.143956D+00  0.858195D-02  0.405001D+00  0.123400D+11
     10 -0.116590D-01 -0.504658D-03 -0.712857D-02  0.311139D+02  0.123400D+11
     11 -0.639149D-02  0.464824D-01  0.648252D+01  0.695227D+00  0.846685D-01
     12  0.408844D-03  0.273763D-04  0.481340D+00  0.382843D-01 -0.140145D-02
     13  0.138923D-02  0.110010D-01  0.673220D+00  0.249227D+00  0.104260D-03
     14 -0.275993D-04  0.772628D-02  0.251134D+00 -0.803386D-02  0.556148D-03
     15  0.199184D-03  0.128567D-02  0.245396D+00 -0.445379D-02 -0.207486D-03
     16  0.431389D-04  0.725108D-03  0.189553D+00  0.271307D-01 -0.663070D-03
     17  0.133659D-01 -0.724406D-04  0.135322D+00  0.258688D+02  0.327211D+00
     18  0.892950D-03  0.188876D-03  0.100601D+00  0.127899D+02  0.106524D+00
     19  0.373281D-03  0.387683D-04 -0.120057D-03  0.356759D+00 -0.123532D-01
     20  0.253415D-03 -0.425476D-04  0.772479D-02  0.411180D+00  0.204808D-02
     21  0.167087D-03  0.945284D-04  0.884588D-02  0.317393D+00 -0.201745D-01
     22 -0.738903D-03  0.192588D-02  0.703442D+00  0.581747D+01  0.406156D+00
     23 -0.585029D+00 -0.707040D+00  0.334932D-02  0.100420D+01 -0.456626D-01
     24  0.163139D+00  0.415856D+00  0.699401D-02  0.815233D-01 -0.195365D-01
     25  0.145873D+01  0.292156D+00  0.104922D+00 -0.505286D-01 -0.379348D-02
     26 -0.677904D-02 -0.101911D-01 -0.335355D-03  0.562647D-01 -0.198771D-02
     27  0.866475D-01 -0.122433D-01  0.934089D-02 -0.213419D-02  0.625314D-04
     28 -0.541253D-03 -0.400906D-02  0.930300D-03 -0.129588D-01  0.181195D-02
     29  0.149073D+00  0.383858D+00  0.277695D+00  0.997575D+00  0.394633D+00
     30 -0.988446D-02 -0.143839D-01  0.853673D-01  0.233179D+00 -0.848263D-02
     31 -0.313486D-02 -0.860488D-02 -0.157997D-01  0.179750D+01 -0.187745D-01
               11            12            13            14            15 
     11  0.123400D+11
     12  0.312624D+02  0.123400D+11
     13  0.172895D+02  0.324282D+00  0.123400D+11
     14 -0.581212D+00  0.886068D-01  0.197364D+02  0.123400D+11
     15 -0.551927D+00  0.122622D+00  0.202834D+02 -0.733575D+00  0.123400D+11
     16 -0.382411D+00  0.289337D+00  0.182096D+02 -0.742497D+00 -0.753320D+00
     17 -0.790700D-01  0.280987D-04 -0.126008D-01  0.123244D-02  0.143618D-02
     18  0.506412D-02  0.180073D-02  0.131942D-01 -0.137668D-04  0.427913D-04
     19  0.577076D-02  0.415348D-05  0.298756D-04 -0.240138D-04 -0.701622D-05
     20 -0.610728D-03 -0.838065D-04 -0.489921D-03  0.389714D-04  0.118691D-04
     21  0.254265D-01 -0.854771D-04  0.306149D-02  0.121616D-04 -0.664533D-04
     22  0.195244D+00 -0.181532D-02  0.134603D-01  0.119726D-02  0.553610D-03
     23  0.476055D-01  0.190372D-02  0.242546D-02 -0.387747D-03 -0.190767D-03
     24  0.461165D-01 -0.239886D-02 -0.373732D-03  0.108887D-02  0.507666D-04
     25 -0.429840D-02  0.830847D-04  0.418378D-03  0.708516D-03 -0.271668D-03
     26  0.551194D-02  0.176173D-03 -0.468215D-03  0.121478D-04  0.136055D-03
     27  0.267328D-02 -0.974871D-04 -0.132259D-03  0.270966D-03  0.121531D-03
     28  0.106619D-03 -0.964759D-04 -0.493387D-03  0.282818D-03  0.216624D-03
     29  0.764015D-01 -0.233599D-01 -0.111539D+00  0.549875D-01  0.107549D+00
     30 -0.476897D-01 -0.505062D-02 -0.479245D-02  0.710839D-03  0.233101D-02
     31  0.135554D+00 -0.214140D-01  0.101119D-02 -0.643845D-03  0.499414D-03
               16            17            18            19            20 
     16  0.123400D+11
     17  0.115337D-03  0.123400D+11
     18  0.290955D-03  0.273440D+02  0.123400D+11
     19  0.219155D-04 -0.768352D+00  0.169680D+02  0.123400D+11
     20  0.691024D-04 -0.115553D+01  0.181853D+02 -0.704871D+00  0.123400D+11
     21  0.324684D-03 -0.122573D+01  0.177816D+02 -0.764196D+00 -0.916359D+00
     22  0.105256D-02 -0.944546D+01  0.379867D+01  0.830227D+00  0.425381D+00
     23 -0.689043D-03 -0.344584D-01  0.333771D-01 -0.188274D-02 -0.636542D-03
     24  0.300367D-03  0.106110D-01 -0.946896D-03  0.855735D-04  0.871477D-04
     25  0.391030D-04  0.939393D-02 -0.250422D-02  0.463258D-03  0.121939D-02
     26 -0.809807D-05  0.912634D-02  0.411257D-03  0.155111D-04  0.224960D-04
     27 -0.483919D-05 -0.258793D-04 -0.470323D-04  0.460960D-05  0.502178D-05
     28  0.129872D-04  0.584184D-02 -0.643725D-03  0.213580D-04  0.107688D-03
     29  0.446050D-02  0.142218D+01 -0.290442D-01 -0.333247D-02  0.216399D-01
     30  0.499139D-03 -0.272930D-01  0.322644D-02  0.101599D-03 -0.549256D-03
     31  0.877174D-03  0.996753D-01  0.601778D-01 -0.104498D-03  0.281443D-02
               21            22            23            24            25 
     21  0.123400D+11
     22  0.460345D+00  0.123400D+11
     23 -0.103314D-02  0.133435D+00  0.123400D+11
     24 -0.286682D-04  0.199967D-02  0.163229D+02  0.123400D+11
     25 -0.265590D-03  0.296951D-01  0.175683D+02 -0.798543D+00  0.123400D+11
     26 -0.182922D-04 -0.657711D-03 -0.739325D+00  0.360004D+00  0.172144D+02
     27  0.000000D+00  0.240520D-03 -0.626199D+00  0.118217D+00  0.172356D+02
     28 -0.333184D-04  0.487379D-02 -0.545479D+00  0.147674D+00  0.175883D+02
     29 -0.434722D-02  0.125843D+00  0.171507D+02 -0.750884D+00  0.308496D+00
     30 -0.610190D-03  0.490964D-03 -0.584662D+00  0.260807D+00  0.387594D-01
     31 -0.223426D-02 -0.252151D-02 -0.750941D+00  0.303018D+00  0.821102D+00
               26            27            28            29            30 
     26  0.123400D+11
     27 -0.756591D+00  0.123400D+11
     28 -0.755381D+00 -0.769274D+00  0.123400D+11
     29  0.353405D+00  0.382768D+00  0.140443D+01  0.123400D+11
     30 -0.688587D-02 -0.918939D-02 -0.173337D-01  0.179050D+02  0.123400D+11
     31 -0.175834D-01  0.136505D-02  0.172234D-01  0.163576D+02 -0.898155D+00
               31 
     31  0.123400D+11
 Fermi Contact (FC) contribution to J (Hz):
                1             2             3             4             5 
      1  0.243533D+11
      2  0.529768D+02  0.243533D+11
      3 -0.964401D+01  0.146384D+03  0.385007D+12
      4  0.394621D+00  0.206453D+01  0.165200D+00  0.243533D+11
      5  0.218117D+00  0.838431D+00  0.571496D-01  0.131778D+03  0.385007D+12
      6  0.472944D+00  0.296716D+00  0.361657D+00  0.141134D+03 -0.265997D+02
      7  0.108630D+00  0.366724D+00  0.105714D+00  0.132737D+03 -0.258337D+02
      8  0.101179D+02 -0.293599D+01 -0.153975D+01 -0.193995D+01 -0.872024D+00
      9 -0.105035D-01  0.105626D+02 -0.175300D+01  0.300466D+00  0.779989D-01
     10 -0.366734D+00  0.157100D+01  0.828054D+01  0.162070D+00 -0.917295D-02
     11  0.163654D+02  0.759950D+01  0.124076D+00  0.819877D-01  0.711686D-01
     12  0.376535D+01  0.546648D+00 -0.699420D+00 -0.173178D-01 -0.265034D-01
     13 -0.799269D+00  0.195413D+01 -0.346962D+00 -0.300824D-02  0.146574D-01
     14  0.153193D+01 -0.667410D+00  0.893138D+00  0.559526D-01  0.479022D-01
     15  0.140993D+01 -0.636719D+00  0.660811D+00  0.173729D-01  0.350204D-01
     16  0.746974D+01 -0.137200D+00  0.109606D-01  0.114410D-01  0.824451D-02
     17  0.128169D+00 -0.107411D+01  0.257755D+01  0.387672D-01  0.158536D-01
     18 -0.329629D+00  0.170786D+01 -0.643234D+00 -0.616296D-02 -0.174857D-02
     19  0.103793D-02  0.859748D+00 -0.700439D-01 -0.681345D-02 -0.568433D-03
     20  0.396515D+00  0.281680D+00  0.262826D+00  0.708529D-02  0.361898D-02
     21  0.741393D+00  0.185679D+00  0.590084D+00  0.781866D-02  0.338718D-02
     22 -0.474471D+00 -0.860050D+00 -0.746056D+00 -0.651648D-01 -0.313659D-02
     23  0.697137D+00 -0.129743D+01  0.834711D+01  0.335173D+02 -0.535967D+01
     24 -0.154212D-01  0.219331D+00 -0.611073D+00 -0.539100D+01  0.342990D+01
     25 -0.169506D+00  0.385361D+01 -0.455624D+00 -0.427458D+00  0.352932D+01
     26  0.429234D-01 -0.116868D+00  0.885945D-01  0.360189D+01 -0.132999D+00
     27  0.128747D-01  0.332748D-01 -0.446486D-01  0.102438D+02  0.402412D+00
     28 -0.608538D-01  0.173149D+01  0.362718D-01  0.198161D+01 -0.333062D+00
     29 -0.195228D+00  0.340194D+02 -0.742687D+01 -0.468539D+00  0.952886D+01
     30  0.854114D+01 -0.664050D+01  0.646546D+01  0.719579D+01  0.672679D+00
     31  0.171901D+01 -0.397999D+01  0.341130D+01  0.545707D+00 -0.653219D+00
                6             7             8             9            10 
      6  0.385007D+12
      7 -0.244095D+02  0.385007D+12
      8 -0.832120D+00 -0.557536D+00  0.708114D+10
      9  0.324661D+00  0.193547D-01 -0.123872D+00  0.201170D+10
     10 -0.363759D+00 -0.157453D-01  0.301629D-01  0.701708D+02  0.385007D+12
     11 -0.144146D-01  0.104831D+00 -0.198272D+01  0.113338D+00  0.190951D+00
     12  0.127559D-01  0.854140D-03 -0.203668D+01  0.863419D-01 -0.437251D-01
     13  0.109012D-01  0.863240D-01 -0.716427D+00  0.141365D+00  0.818121D-03
     14 -0.861098D-03  0.241060D+00 -0.106262D+01 -0.181186D-01  0.173518D-01
     15  0.621455D-02  0.401129D-01 -0.103834D+01 -0.100446D-01 -0.647356D-02
     16  0.134593D-02  0.226233D-01 -0.802050D+00  0.611875D-01 -0.206877D-01
     17  0.104881D+00 -0.568434D-03 -0.144007D+00  0.146731D+02  0.256759D+01
     18  0.700689D-02  0.148209D-02 -0.107057D+00  0.725460D+01  0.835884D+00
     19  0.116463D-01  0.120957D-02  0.507994D-03  0.804592D+00 -0.385419D+00
     20  0.790653D-02 -0.132748D-02 -0.326857D-01  0.927329D+00  0.638999D-01
     21  0.521310D-02  0.294928D-02 -0.374293D-01  0.715812D+00 -0.629445D+00
     22  0.312650D-02 -0.814892D-02  0.403661D+00 -0.177931D+01 -0.171856D+01
     23 -0.459067D+01 -0.554807D+01 -0.356428D-02  0.569597D+00 -0.358310D+00
     24  0.508993D+01  0.129747D+02 -0.295936D-01  0.183858D+00 -0.609536D+00
     25  0.114465D+02  0.229252D+01 -0.111656D+00 -0.286605D-01 -0.297671D-01
     26 -0.211506D+00 -0.317961D+00  0.141898D-02  0.126893D+00 -0.620163D-01
     27  0.270340D+01 -0.381989D+00 -0.395238D-01 -0.481322D-02  0.195098D-02
     28 -0.168871D-01 -0.125082D+00 -0.393635D-02 -0.292257D-01  0.565329D-01
     29  0.116976D+01  0.301210D+01 -0.295518D+00  0.565837D+00  0.309665D+01
     30 -0.308395D+00 -0.448776D+00 -0.361212D+00  0.525884D+00 -0.264658D+00
     31 -0.978076D-01 -0.268472D+00  0.668529D-01  0.405387D+01 -0.585763D+00
               11            12            13            14            15 
     11  0.201170D+10
     12  0.705056D+02  0.385007D+12
     13  0.980682D+01  0.254461D+01  0.243533D+11
     14 -0.131080D+01  0.276453D+01  0.154870D+03  0.385007D+12
     15 -0.124475D+01  0.382580D+01  0.159162D+03 -0.228875D+02  0.385007D+12
     16 -0.862445D+00  0.902732D+01  0.142889D+03 -0.231659D+02 -0.235036D+02
     17 -0.448495D-01  0.220488D-03 -0.248680D-01  0.967080D-02  0.112696D-01
     18  0.287243D-02  0.141302D-01  0.260390D-01 -0.108027D-03  0.335779D-03
     19  0.130147D-01  0.129589D-03  0.234431D-03 -0.749231D-03 -0.218906D-03
     20 -0.137736D-02 -0.261476D-02 -0.384436D-02  0.121591D-02  0.370317D-03
     21  0.573439D-01 -0.266688D-02  0.240233D-01  0.379441D-03 -0.207334D-02
     22 -0.597167D-01  0.768111D-02 -0.143242D-01 -0.506593D-02 -0.234248D-02
     23  0.270024D-01  0.149383D-01  0.478670D-02 -0.304262D-02 -0.149693D-02
     24  0.104006D+00 -0.748444D-01 -0.293264D-02  0.339728D-01  0.158392D-02
     25 -0.243810D-02  0.651957D-03  0.825679D-03  0.555966D-02 -0.213175D-02
     26  0.124310D-01  0.549659D-02 -0.367404D-02  0.379011D-03  0.424491D-02
     27  0.602901D-02 -0.304159D-02 -0.103783D-02  0.845414D-02  0.379176D-02
     28  0.240456D-03 -0.301004D-02 -0.387156D-02  0.882391D-02  0.675865D-02
     29  0.433359D-01 -0.183303D+00 -0.220126D+00  0.431481D+00  0.843930D+00
     30 -0.107554D+00 -0.157579D+00 -0.376059D-01  0.221781D-01  0.727275D-01
     31  0.305713D+00 -0.668116D+00  0.793474D-02 -0.200879D-01  0.155817D-01
               16            17            18            19            20 
     16  0.385007D+12
     17  0.905039D-03  0.243533D+11
     18  0.228310D-02  0.539640D+02  0.243533D+11
     19  0.683762D-03 -0.602918D+01  0.133146D+03  0.385007D+12
     20  0.215599D-02 -0.906734D+01  0.142698D+03 -0.219920D+02  0.385007D+12
     21  0.101301D-01 -0.961821D+01  0.139531D+03 -0.238429D+02 -0.285903D+02
     22 -0.445366D-02  0.100517D+02 -0.404247D+01 -0.351292D+01 -0.179990D+01
     23 -0.540685D-02 -0.680046D-01  0.658706D-01 -0.147737D-01 -0.499488D-02
     24  0.937143D-02  0.832633D-01 -0.743020D-02  0.266989D-02  0.271900D-02
     25  0.306837D-03  0.185392D-01 -0.494213D-02  0.363514D-02  0.956843D-02
     26 -0.252659D-03  0.716135D-01  0.322709D-02  0.483944D-03  0.701874D-03
     27 -0.150982D-03 -0.203072D-03 -0.369058D-03  0.143819D-03  0.156679D-03
     28  0.405199D-03  0.458404D-01 -0.505125D-02  0.666369D-03  0.335987D-02
     29  0.350011D-01  0.280671D+01 -0.573194D-01 -0.261495D-01  0.169806D+00
     30  0.155731D-01 -0.214166D+00  0.253175D-01  0.316990D-02 -0.171368D-01
     31  0.273678D-01  0.782143D+00  0.472209D+00 -0.326032D-02  0.878100D-01
               21            22            23            24            25 
     21  0.385007D+12
     22 -0.194784D+01  0.708114D+10
     23 -0.810694D-02 -0.141999D+00  0.243533D+11
     24 -0.894446D-03 -0.846113D-02  0.128084D+03  0.385007D+12
     25 -0.208406D-02 -0.316010D-01  0.346714D+02 -0.626609D+01  0.243533D+11
     26 -0.570715D-03  0.278296D-02 -0.580141D+01  0.112321D+02  0.135080D+03
     27  0.201625D-04 -0.101771D-02 -0.491372D+01  0.368837D+01  0.135246D+03
     28 -0.103953D-02 -0.206223D-01 -0.428032D+01  0.460742D+01  0.138013D+03
     29 -0.341122D-01 -0.133920D+00  0.338473D+02 -0.589212D+01  0.608825D+00
     30 -0.190379D-01 -0.207740D-02 -0.458778D+01  0.813715D+01  0.304142D+00
     31 -0.697089D-01  0.106692D-01 -0.589256D+01  0.945416D+01  0.644311D+01
               26            27            28            29            30 
     26  0.385007D+12
     27 -0.236056D+02  0.385007D+12
     28 -0.235679D+02 -0.240013D+02  0.385007D+12
     29  0.277314D+01  0.300355D+01  0.110205D+02  0.243533D+11
     30 -0.214839D+00 -0.286709D+00 -0.540811D+00  0.140499D+03  0.385007D+12
     31 -0.548601D+00  0.425894D-01  0.537370D+00  0.128357D+03 -0.280224D+02
               31 
     31  0.385007D+12
 End of Minotr F.D. properties file   721 does not exist.
 End of Minotr F.D. properties file   722 does not exist.
 End of Minotr F.D. properties file   788 does not exist.
 Leave Link 1002 at Wed Jun 18 16:41:43 2014, MaxMem=  4294967296 cpu:    381573.2
 (Enter /home/ztw1e12/g09/l601.exe)
 Copying SCF densities to generalized density rwf, IOpCl= 0 IROHF=0.

 **********************************************************************

            Population analysis using the SCF density.

 **********************************************************************

 Orbital symmetries:
       Occupied  (A) (A) (A) (A) (A) (A) (A) (A) (A) (A) (A) (A)
                 (A) (A) (A) (A) (A) (A) (A) (A) (A) (A) (A) (A)
                 (A) (A) (A) (A) (A) (A) (A) (A) (A) (A) (A) (A)
                 (A) (A) (A) (A) (A) (A) (A) (A) (A) (A) (A) (A)
                 (A) (A) (A)
       Virtual   (A) (A) (A) (A) (A) (A) (A) (A) (A) (A) (A) (A)
                 (A) (A) (A) (A) (A) (A) (A) (A) (A) (A) (A) (A)
                 (A) (A) (A) (A) (A) (A) (A) (A) (A) (A) (A) (A)
                 (A) (A) (A) (A) (A) (A) (A) (A) (A) (A) (A) (A)
                 (A) (A) (A) (A) (A) (A) (A) (A) (A) (A) (A) (A)
                 (A) (A) (A) (A) (A) (A) (A) (A) (A) (A) (A) (A)
                 (A) (A) (A) (A) (A) (A) (A) (A) (A) (A) (A) (A)
                 (A) (A) (A) (A) (A) (A) (A) (A) (A) (A) (A) (A)
                 (A) (A) (A) (A) (A) (A) (A) (A) (A) (A) (A) (A)
                 (A) (A) (A) (A) (A) (A) (A) (A) (A) (A) (A) (A)
                 (A) (A) (A) (A) (A) (A) (A) (A) (A) (A) (A) (A)
                 (A) (A) (A) (A) (A) (A) (A) (A) (A) (A) (A) (A)
                 (A) (A) (A) (A) (A) (A) (A) (A) (A) (A) (A) (A)
                 (A) (A) (A) (A) (A) (A) (A) (A) (A) (A) (A) (A)
                 (A) (A) (A) (A) (A) (A) (A) (A) (A) (A) (A) (A)
                 (A) (A) (A) (A) (A) (A) (A) (A) (A) (A) (A) (A)
                 (A) (A) (A) (A) (A) (A) (A) (A) (A) (A) (A) (A)
                 (A) (A) (A) (A) (A) (A) (A) (A) (A) (A) (A) (A)
                 (A) (A) (A) (A) (A) (A) (A) (A) (A) (A) (A) (A)
                 (A) (A) (A) (A) (A) (A) (A) (A) (A) (A) (A) (A)
                 (A) (A) (A) (A) (A) (A) (A) (A) (A) (A) (A) (A)
                 (A) (A) (A) (A) (A) (A) (A) (A) (A) (A) (A) (A)
                 (A) (A) (A) (A) (A) (A) (A) (A) (A) (A) (A) (A)
                 (A) (A) (A) (A) (A) (A) (A) (A) (A) (A) (A) (A)
                 (A) (A) (A) (A) (A) (A) (A) (A) (A) (A) (A) (A)
                 (A) (A) (A) (A) (A) (A) (A) (A) (A) (A) (A) (A)
                 (A) (A) (A) (A) (A) (A) (A) (A) (A) (A) (A) (A)
                 (A) (A) (A) (A) (A) (A) (A) (A) (A) (A) (A) (A)
                 (A) (A) (A) (A) (A) (A) (A) (A) (A) (A) (A) (A)
                 (A) (A) (A) (A) (A) (A) (A) (A) (A) (A) (A) (A)
                 (A) (A) (A) (A) (A) (A) (A) (A) (A) (A) (A) (A)
                 (A) (A) (A) (A) (A) (A) (A) (A) (A) (A) (A) (A)
                 (A) (A) (A) (A) (A) (A) (A) (A) (A) (A) (A) (A)
                 (A) (A) (A) (A) (A) (A) (A) (A) (A) (A) (A) (A)
                 (A) (A) (A) (A) (A) (A) (A) (A) (A) (A) (A) (A)
                 (A) (A) (A) (A) (A) (A) (A) (A) (A) (A) (A) (A)
                 (A) (A) (A) (A) (A) (A) (A) (A) (A) (A) (A) (A)
                 (A) (A) (A) (A) (A) (A) (A) (A) (A) (A) (A) (A)
                 (A) (A) (A) (A) (A) (A) (A) (A) (A) (A) (A) (A)
                 (A) (A) (A) (A) (A) (A) (A) (A) (A) (A) (A) (A)
                 (A) (A) (A) (A) (A) (A) (A) (A) (A) (A) (A) (A)
                 (A) (A) (A) (A) (A) (A) (A) (A) (A) (A) (A) (A)
                 (A) (A) (A) (A) (A) (A) (A) (A) (A) (A) (A) (A)
                 (A) (A) (A) (A) (A) (A) (A) (A) (A) (A) (A) (A)
                 (A) (A) (A) (A) (A) (A) (A) (A) (A) (A) (A) (A)
                 (A) (A) (A) (A) (A) (A) (A) (A) (A) (A) (A) (A)
                 (A) (A) (A) (A) (A) (A) (A) (A) (A) (A) (A) (A)
                 (A) (A) (A) (A) (A) (A) (A) (A) (A) (A) (A) (A)
                 (A) (A) (A) (A) (A) (A) (A) (A) (A) (A) (A) (A)
                 (A) (A) (A) (A) (A) (A) (A) (A) (A) (A) (A) (A)
                 (A) (A) (A) (A) (A) (A) (A) (A) (A) (A) (A) (A)
                 (A) (A) (A) (A) (A) (A) (A) (A) (A) (A) (A) (A)
                 (A) (A) (A) (A) (A) (A) (A) (A) (A) (A) (A) (A)
                 (A) (A) (A) (A) (A) (A) (A) (A) (A) (A) (A) (A)
                 (A) (A) (A) (A) (A) (A) (A) (A) (A) (A) (A) (A)
                 (A) (A) (A) (A) (A) (A) (A) (A) (A) (A) (A) (A)
                 (A) (A) (A) (A) (A) (A) (A) (A) (A) (A) (A) (A)
                 (A) (A) (A) (A) (A) (A) (A) (A) (A) (A) (A) (A)
                 (A) (A) (A) (A) (A) (A) (A) (A) (A) (A) (A) (A)
                 (A) (A) (A) (A) (A) (A) (A) (A) (A) (A) (A) (A)
                 (A) (A) (A) (A) (A) (A) (A) (A) (A) (A) (A) (A)
                 (A) (A) (A) (A) (A) (A) (A) (A) (A) (A) (A) (A)
                 (A) (A) (A) (A) (A) (A) (A) (A) (A) (A) (A) (A)
                 (A) (A) (A) (A) (A) (A) (A) (A) (A) (A) (A) (A)
                 (A) (A) (A) (A) (A) (A) (A) (A) (A) (A) (A) (A)
                 (A) (A) (A) (A) (A) (A) (A) (A) (A) (A) (A) (A)
                 (A) (A) (A) (A) (A) (A) (A) (A) (A) (A) (A) (A)
                 (A) (A) (A) (A) (A) (A) (A) (A) (A) (A) (A) (A)
                 (A) (A) (A) (A) (A) (A) (A) (A) (A) (A) (A) (A)
                 (A) (A) (A) (A) (A) (A) (A) (A) (A) (A) (A) (A)
                 (A) (A) (A) (A) (A) (A) (A) (A) (A) (A) (A) (A)
                 (A) (A) (A) (A) (A) (A) (A) (A) (A) (A) (A) (A)
                 (A) (A) (A) (A) (A) (A) (A) (A) (A) (A) (A) (A)
                 (A) (A) (A) (A) (A)
 The electronic state is 1-A.
 Alpha  occ. eigenvalues --  -19.17240 -19.16194 -14.41952 -14.41244 -10.33547
 Alpha  occ. eigenvalues --  -10.33145 -10.29178 -10.27282 -10.25751 -10.25704
 Alpha  occ. eigenvalues --  -10.23747 -10.23548 -10.23016  -1.05453  -1.03906
 Alpha  occ. eigenvalues --   -0.94385  -0.94115  -0.84029  -0.78553  -0.74176
 Alpha  occ. eigenvalues --   -0.72047  -0.70483  -0.66424  -0.60493  -0.59988
 Alpha  occ. eigenvalues --   -0.58252  -0.55007  -0.50823  -0.49393  -0.48027
 Alpha  occ. eigenvalues --   -0.47257  -0.46790  -0.45323  -0.45100  -0.44075
 Alpha  occ. eigenvalues --   -0.42645  -0.41529  -0.40923  -0.40442  -0.40215
 Alpha  occ. eigenvalues --   -0.39861  -0.38790  -0.38328  -0.36391  -0.35262
 Alpha  occ. eigenvalues --   -0.34661  -0.33614  -0.28328  -0.27541  -0.26321
 Alpha  occ. eigenvalues --   -0.25667
 Alpha virt. eigenvalues --    0.01100   0.02031   0.02582   0.03645   0.04624
 Alpha virt. eigenvalues --    0.04727   0.06656   0.07045   0.07452   0.08226
 Alpha virt. eigenvalues --    0.10019   0.10569   0.11233   0.11357   0.11666
 Alpha virt. eigenvalues --    0.12254   0.12866   0.13539   0.14545   0.15458
 Alpha virt. eigenvalues --    0.16320   0.17237   0.17680   0.19155   0.20222
 Alpha virt. eigenvalues --    0.21532   0.21957   0.23169   0.23779   0.23990
 Alpha virt. eigenvalues --    0.24823   0.26255   0.26659   0.26888   0.27933
 Alpha virt. eigenvalues --    0.28805   0.29636   0.29648   0.30534   0.31767
 Alpha virt. eigenvalues --    0.32848   0.33642   0.34533   0.35040   0.35763
 Alpha virt. eigenvalues --    0.37038   0.37647   0.38085   0.38565   0.39145
 Alpha virt. eigenvalues --    0.39254   0.39696   0.40010   0.41234   0.41413
 Alpha virt. eigenvalues --    0.41661   0.42338   0.42498   0.42639   0.43043
 Alpha virt. eigenvalues --    0.43798   0.44273   0.44756   0.45154   0.45712
 Alpha virt. eigenvalues --    0.45803   0.46462   0.46980   0.48879   0.49570
 Alpha virt. eigenvalues --    0.50049   0.50775   0.51385   0.51866   0.52306
 Alpha virt. eigenvalues --    0.53934   0.54016   0.55231   0.55653   0.56423
 Alpha virt. eigenvalues --    0.57048   0.58382   0.59654   0.60724   0.61454
 Alpha virt. eigenvalues --    0.62998   0.63409   0.64358   0.65531   0.67075
 Alpha virt. eigenvalues --    0.69337   0.70311   0.71670   0.72528   0.74618
 Alpha virt. eigenvalues --    0.74692   0.76121   0.76850   0.77682   0.78792
 Alpha virt. eigenvalues --    0.79864   0.80517   0.80786   0.82031   0.83397
 Alpha virt. eigenvalues --    0.83987   0.85018   0.85423   0.86005   0.86996
 Alpha virt. eigenvalues --    0.87678   0.88848   0.89186   0.90119   0.91503
 Alpha virt. eigenvalues --    0.92539   0.93433   0.93744   0.94769   0.95777
 Alpha virt. eigenvalues --    0.96062   0.96340   0.96609   0.97529   0.98230
 Alpha virt. eigenvalues --    0.98801   0.99903   1.00845   1.01080   1.01967
 Alpha virt. eigenvalues --    1.03223   1.04081   1.04440   1.05642   1.06221
 Alpha virt. eigenvalues --    1.07527   1.07849   1.08435   1.08999   1.10530
 Alpha virt. eigenvalues --    1.11054   1.11259   1.12677   1.13947   1.14514
 Alpha virt. eigenvalues --    1.15444   1.16017   1.16388   1.17283   1.17914
 Alpha virt. eigenvalues --    1.18810   1.19049   1.19971   1.20802   1.21375
 Alpha virt. eigenvalues --    1.21817   1.22502   1.22741   1.23336   1.23913
 Alpha virt. eigenvalues --    1.24815   1.25260   1.25684   1.26318   1.27163
 Alpha virt. eigenvalues --    1.27709   1.28350   1.28699   1.29028   1.29952
 Alpha virt. eigenvalues --    1.30554   1.30865   1.31222   1.32009   1.32977
 Alpha virt. eigenvalues --    1.33648   1.34518   1.34954   1.36613   1.36852
 Alpha virt. eigenvalues --    1.37266   1.38159   1.39466   1.40387   1.41894
 Alpha virt. eigenvalues --    1.43475   1.43851   1.44991   1.46098   1.48785
 Alpha virt. eigenvalues --    1.50117   1.51758   1.53105   1.54849   1.56385
 Alpha virt. eigenvalues --    1.57247   1.59810   1.60310   1.63424   1.64048
 Alpha virt. eigenvalues --    1.65727   1.66712   1.68669   1.69895   1.72306
 Alpha virt. eigenvalues --    1.74416   1.75027   1.77369   1.77968   1.81656
 Alpha virt. eigenvalues --    1.84511   1.88135   1.90081   1.91474   1.93539
 Alpha virt. eigenvalues --    1.93803   1.95753   1.96338   1.99418   2.00867
 Alpha virt. eigenvalues --    2.01419   2.03028   2.03453   2.06046   2.08155
 Alpha virt. eigenvalues --    2.08325   2.10557   2.13171   2.13605   2.15495
 Alpha virt. eigenvalues --    2.16645   2.19226   2.21096   2.21482   2.22620
 Alpha virt. eigenvalues --    2.23478   2.24182   2.26669   2.27786   2.29769
 Alpha virt. eigenvalues --    2.32260   2.33273   2.35369   2.38578   2.39293
 Alpha virt. eigenvalues --    2.39906   2.40203   2.42083   2.43443   2.43963
 Alpha virt. eigenvalues --    2.45224   2.45708   2.46946   2.48668   2.49139
 Alpha virt. eigenvalues --    2.50296   2.52851   2.53099   2.54186   2.54957
 Alpha virt. eigenvalues --    2.55308   2.57422   2.58803   2.60399   2.63457
 Alpha virt. eigenvalues --    2.65499   2.66795   2.67778   2.68273   2.69068
 Alpha virt. eigenvalues --    2.70376   2.70932   2.71431   2.72716   2.73532
 Alpha virt. eigenvalues --    2.74566   2.74943   2.75590   2.76845   2.78818
 Alpha virt. eigenvalues --    2.79831   2.80260   2.80579   2.81401   2.83080
 Alpha virt. eigenvalues --    2.84479   2.85621   2.86274   2.86907   2.87307
 Alpha virt. eigenvalues --    2.88550   2.89111   2.90011   2.90646   2.91203
 Alpha virt. eigenvalues --    2.91861   2.92491   2.93538   2.94425   2.95299
 Alpha virt. eigenvalues --    2.96559   2.96849   2.98401   2.98903   2.99582
 Alpha virt. eigenvalues --    3.00076   3.00742   3.01711   3.02138   3.03144
 Alpha virt. eigenvalues --    3.03639   3.03819   3.04488   3.05681   3.06119
 Alpha virt. eigenvalues --    3.06782   3.08037   3.08863   3.09570   3.10133
 Alpha virt. eigenvalues --    3.11123   3.11540   3.13306   3.13495   3.14464
 Alpha virt. eigenvalues --    3.14716   3.15985   3.18076   3.19095   3.19676
 Alpha virt. eigenvalues --    3.20776   3.21144   3.22208   3.23284   3.24213
 Alpha virt. eigenvalues --    3.24680   3.26352   3.26986   3.27417   3.28477
 Alpha virt. eigenvalues --    3.28706   3.30147   3.30284   3.31051   3.31600
 Alpha virt. eigenvalues --    3.32248   3.32347   3.34040   3.34450   3.35497
 Alpha virt. eigenvalues --    3.37083   3.37614   3.37860   3.39199   3.40063
 Alpha virt. eigenvalues --    3.40297   3.41744   3.42455   3.43706   3.43884
 Alpha virt. eigenvalues --    3.44475   3.45002   3.45962   3.46285   3.47871
 Alpha virt. eigenvalues --    3.48637   3.49596   3.50391   3.51873   3.53023
 Alpha virt. eigenvalues --    3.54829   3.55614   3.56345   3.58714   3.59105
 Alpha virt. eigenvalues --    3.61069   3.61348   3.62756   3.64411   3.65739
 Alpha virt. eigenvalues --    3.66706   3.67718   3.68734   3.70114   3.70941
 Alpha virt. eigenvalues --    3.71956   3.72925   3.73313   3.74131   3.75340
 Alpha virt. eigenvalues --    3.76077   3.76706   3.78011   3.78545   3.79290
 Alpha virt. eigenvalues --    3.81607   3.82216   3.82876   3.83246   3.85274
 Alpha virt. eigenvalues --    3.86059   3.86954   3.88217   3.88502   3.90211
 Alpha virt. eigenvalues --    3.90862   3.91792   3.92574   3.93407   3.94808
 Alpha virt. eigenvalues --    3.95032   3.95665   3.96511   3.98026   3.98161
 Alpha virt. eigenvalues --    4.00493   4.01598   4.03707   4.03811   4.05032
 Alpha virt. eigenvalues --    4.06441   4.07085   4.07526   4.09274   4.10071
 Alpha virt. eigenvalues --    4.10807   4.12221   4.12696   4.14333   4.14519
 Alpha virt. eigenvalues --    4.16095   4.17290   4.18095   4.18932   4.19868
 Alpha virt. eigenvalues --    4.20730   4.22106   4.22657   4.24966   4.25492
 Alpha virt. eigenvalues --    4.25972   4.26645   4.27514   4.29055   4.29495
 Alpha virt. eigenvalues --    4.30581   4.30957   4.31907   4.32992   4.34546
 Alpha virt. eigenvalues --    4.36529   4.38308   4.40076   4.40797   4.41600
 Alpha virt. eigenvalues --    4.44141   4.45473   4.45841   4.47836   4.49418
 Alpha virt. eigenvalues --    4.51185   4.51408   4.52164   4.52506   4.56732
 Alpha virt. eigenvalues --    4.57933   4.59046   4.59318   4.60784   4.61201
 Alpha virt. eigenvalues --    4.62458   4.62754   4.63235   4.64185   4.65895
 Alpha virt. eigenvalues --    4.66313   4.69373   4.70480   4.71541   4.71678
 Alpha virt. eigenvalues --    4.72333   4.74364   4.74597   4.76925   4.77913
 Alpha virt. eigenvalues --    4.77960   4.79213   4.80325   4.82206   4.82893
 Alpha virt. eigenvalues --    4.84850   4.87207   4.88799   4.89844   4.91210
 Alpha virt. eigenvalues --    4.92259   4.93850   4.94664   4.95462   4.97237
 Alpha virt. eigenvalues --    4.97581   4.98957   4.99600   5.01830   5.02662
 Alpha virt. eigenvalues --    5.03522   5.04323   5.05264   5.09225   5.10852
 Alpha virt. eigenvalues --    5.11391   5.12053   5.12838   5.13847   5.15233
 Alpha virt. eigenvalues --    5.15978   5.17207   5.18551   5.19125   5.20664
 Alpha virt. eigenvalues --    5.21404   5.22245   5.23971   5.24288   5.24975
 Alpha virt. eigenvalues --    5.26347   5.28686   5.29139   5.30232   5.31181
 Alpha virt. eigenvalues --    5.31617   5.35885   5.37417   5.37788   5.40463
 Alpha virt. eigenvalues --    5.43073   5.44439   5.44632   5.45853   5.49940
 Alpha virt. eigenvalues --    5.52249   5.52771   5.57349   5.57374   5.59156
 Alpha virt. eigenvalues --    5.60412   5.62233   5.63007   5.65186   5.65304
 Alpha virt. eigenvalues --    5.66024   5.67986   5.69790   5.70933   5.72172
 Alpha virt. eigenvalues --    5.73453   5.75541   5.76453   5.78297   5.79479
 Alpha virt. eigenvalues --    5.80289   5.82738   5.84249   5.85644   5.87145
 Alpha virt. eigenvalues --    5.89083   5.94846   5.96493   6.03117   6.04629
 Alpha virt. eigenvalues --    6.12604   6.19336   6.20685   6.23963   6.27966
 Alpha virt. eigenvalues --    6.51400   6.52986   6.57695   6.62314   6.64525
 Alpha virt. eigenvalues --    6.65802   6.77852   6.82072   6.90607   6.92419
 Alpha virt. eigenvalues --    6.94060   6.95148   7.18595   7.19555   7.23264
 Alpha virt. eigenvalues --    7.28823   8.14599   8.30348   8.66432   8.73951
 Alpha virt. eigenvalues --    8.78081   8.79711   8.82344   8.82725   8.83510
 Alpha virt. eigenvalues --    8.85220   8.87541   8.88793   8.91075   8.92057
 Alpha virt. eigenvalues --    8.94571   8.95611   8.96380   8.97835   9.03566
 Alpha virt. eigenvalues --    9.04989   9.08311   9.12645   9.14471   9.15913
 Alpha virt. eigenvalues --    9.23293   9.60508   9.62562   9.77445   9.83268
 Alpha virt. eigenvalues --    9.90977   9.93418  10.10297  10.11485  10.15492
 Alpha virt. eigenvalues --   10.18175  10.19885  10.20350  10.21906  10.25157
 Alpha virt. eigenvalues --   10.27311  10.29243  10.31938  10.32593  10.34071
 Alpha virt. eigenvalues --   10.38017  11.75311  11.82976  12.04766  12.14029
 Alpha virt. eigenvalues --   12.15192  12.19331  12.24225  12.25145  12.28793
 Alpha virt. eigenvalues --   12.37480  12.47498  12.56652  12.59649  12.83951
 Alpha virt. eigenvalues --   12.93034  14.97706  15.03131  15.24002  15.28076
 Alpha virt. eigenvalues --   15.99642  16.04657  16.84130  16.90458  22.00822
 Alpha virt. eigenvalues --   22.10521  40.18050  40.27379  40.66792  40.67653
 Alpha virt. eigenvalues --   40.69369  40.71434  40.73022  40.74747  40.76720
 Alpha virt. eigenvalues --   40.77624  40.79777  40.80909  40.81707  40.82119
 Alpha virt. eigenvalues --   40.83777  40.84682  40.84921  40.85542  40.86191
 Alpha virt. eigenvalues --   40.87029  40.88514  40.89936  40.90480  40.90617
 Alpha virt. eigenvalues --   40.91534  40.92517  40.93659  46.34660  46.45349
 Alpha virt. eigenvalues --   46.48261  46.50855  46.56732  46.57393  46.60961
 Alpha virt. eigenvalues --   46.70818  46.81090  54.45240  54.51031  55.79143
 Alpha virt. eigenvalues --   55.84434  55.95060  55.97698  56.05864  56.14740
 Alpha virt. eigenvalues --   56.17517  56.19439  56.23803  56.30020  56.37353
 Alpha virt. eigenvalues --   56.37897  56.45313  56.55701  56.64898  56.71848
 Alpha virt. eigenvalues --   57.46359  57.51145  57.99531  58.02742  58.19581
 Alpha virt. eigenvalues --   58.25806  64.71106  64.77111  73.94690  73.97659
 Alpha virt. eigenvalues --   74.09845  74.11832  74.63968  74.66490  86.06741
 Alpha virt. eigenvalues --   86.15281 165.43909 165.53529 165.57252 165.58833
 Alpha virt. eigenvalues --  165.64581 165.65282 165.67868 165.76397 165.85879
 Alpha virt. eigenvalues --  226.56736 226.67992 230.58267 230.63802 235.59484
 Alpha virt. eigenvalues --  235.84073 236.16374 236.27526 236.39945 236.49009
 Alpha virt. eigenvalues --  236.66394 237.22145 237.43711 237.54540 237.68465
 Alpha virt. eigenvalues --  237.78727 238.05868 238.27458 238.79013 239.14123
 Alpha virt. eigenvalues --  308.80411 308.87963 624.55348 624.60856 624.62788
 Alpha virt. eigenvalues --  624.67332 624.70040 624.70817 624.73620 624.80927
 Alpha virt. eigenvalues --  624.88063 794.43490 794.59471 826.07658 827.18826
 Alpha virt. eigenvalues --  827.35171 827.58017 827.60579 827.74585 828.43290
 Alpha virt. eigenvalues --  830.58939 831.16639 831.41690 831.81474 832.00921
 Alpha virt. eigenvalues --  832.73002 833.07807 834.94541 836.36235 868.34072
 Alpha virt. eigenvalues --  868.398411165.932031166.001112485.285812485.90003
 Alpha virt. eigenvalues -- 2588.697182589.835002593.830962593.874152595.57479
 Alpha virt. eigenvalues -- 2596.703102597.967682602.663662603.837042604.74686
 Alpha virt. eigenvalues -- 2607.073072607.745902610.425322612.081922615.22629
 Alpha virt. eigenvalues -- 2617.047822740.326932740.340462740.363602740.41304
 Alpha virt. eigenvalues -- 2740.436742740.469712740.521332740.557172740.58490
 Alpha virt. eigenvalues -- 3787.315423787.377245073.314085073.375518294.16795
 Alpha virt. eigenvalues -- 8294.241188628.862698635.478778635.682858636.26410
 Alpha virt. eigenvalues -- 8637.819138642.225968642.879718663.214038668.74553
 Alpha virt. eigenvalues -- 8669.643118673.824428674.949578681.438768683.67276
 Alpha virt. eigenvalues -- 8698.099128709.96741******************************
 Alpha virt. eigenvalues -- **************************************************
 Alpha virt. eigenvalues -- **************************************************
 Alpha virt. eigenvalues -- **************************************************
 Alpha virt. eigenvalues -- **************************************************
 Alpha virt. eigenvalues -- **************************************************
 Alpha virt. eigenvalues -- **************************************************
 Alpha virt. eigenvalues -- **************************************************
 Alpha virt. eigenvalues -- **********
          Condensed to atoms (all electrons):
               1          2          3          4          5          6
     1  C    4.518050   0.197586  -0.041343   0.007352   0.000225  -0.009129
     2  C    0.197586   5.346195   0.376274   0.018567  -0.000951  -0.000881
     3  H   -0.041343   0.376274   0.481178   0.000151   0.000046   0.001174
     4  C    0.007352   0.018567   0.000151   5.078976   0.398520   0.385682
     5  H    0.000225  -0.000951   0.000046   0.398520   0.527727  -0.005189
     6  H   -0.009129  -0.000881   0.001174   0.385682  -0.005189   0.503413
     7  H    0.004542  -0.007817  -0.000149   0.395396  -0.019960  -0.019990
     8  O    0.723187  -0.112778   0.003913  -0.009498   0.000440   0.016735
     9  N   -0.058329   0.288546  -0.031195  -0.011888   0.000173   0.008904
    10  H   -0.003093  -0.029404   0.004718   0.000111   0.000122   0.000807
    11  N    0.380188  -0.127699   0.004520  -0.005674   0.000060   0.002557
    12  H   -0.026740   0.011210   0.000018   0.000117  -0.000012  -0.000159
    13  C   -0.046099   0.010991  -0.001174  -0.000376  -0.000025  -0.000259
    14  H    0.001004   0.002452   0.000062   0.000590   0.000004   0.000194
    15  H   -0.008094  -0.001234  -0.000202  -0.000020  -0.000002  -0.000096
    16  H    0.006889   0.000570  -0.000111   0.000005  -0.000001  -0.000009
    17  C   -0.000919  -0.055795   0.002111  -0.000260   0.000011   0.000693
    18  C   -0.005132   0.017764   0.002668   0.000002   0.000002   0.000271
    19  H    0.000625  -0.000797  -0.000478  -0.000041  -0.000002  -0.000112
    20  H   -0.000049  -0.000587   0.000124  -0.000008   0.000000   0.000044
    21  H    0.000826  -0.000877  -0.000167   0.000019  -0.000001  -0.000078
    22  O   -0.011190   0.019770   0.023043   0.000049   0.000000  -0.000150
[...]
 Alpha virt. eigenvalues --    4.39037   4.39317   4.41331   4.42673   4.44094
 Alpha virt. eigenvalues --    4.44949   4.46202   4.49049   4.51760   4.52779
 Alpha virt. eigenvalues --    4.53234   4.54746   4.56153   4.58208   4.59505
 Alpha virt. eigenvalues --    4.60504   4.63178   4.64685   4.65728   4.67626
 Alpha virt. eigenvalues --    4.68356   4.70050   4.71207   4.72280   4.73679
 Alpha virt. eigenvalues --    4.73923   4.74806   4.77069   4.77973   4.78667
 Alpha virt. eigenvalues --    4.80162   4.80558   4.81709   4.82666   4.83200
 Alpha virt. eigenvalues --    4.84096   4.87303   4.88602   4.89519   4.90090
 Alpha virt. eigenvalues --    4.91481   4.92900   4.94672   4.95161   4.97128
 Alpha virt. eigenvalues --    4.97854   4.97896   4.99713   5.01174   5.01642
 Alpha virt. eigenvalues --    5.03022   5.03170   5.04393   5.04627   5.06355
 Alpha virt. eigenvalues --    5.07848   5.08466   5.11812   5.12490   5.13199
 Alpha virt. eigenvalues --    5.13933   5.14083   5.16750   5.17586   5.17745
 Alpha virt. eigenvalues --    5.19349   5.20138   5.21198   5.21409   5.22982
 Alpha virt. eigenvalues --    5.24243   5.24658   5.25495   5.27796   5.28149
 Alpha virt. eigenvalues --    5.28703   5.30527   5.31252   5.32417   5.33387
 Alpha virt. eigenvalues --    5.34582   5.37111   5.37648   5.38632   5.40049
 Alpha virt. eigenvalues --    5.43106   5.46675   5.49903   5.52497   5.56804
 Alpha virt. eigenvalues --    5.56998   5.59924   5.61524   5.64464   5.70413
 Alpha virt. eigenvalues --    5.72985   5.74620   5.77265   5.78736   5.79317
 Alpha virt. eigenvalues --    5.79881   5.80335   5.82162   5.84484   5.86277
 Alpha virt. eigenvalues --    5.87925   5.88693   5.90975   5.95635   5.97165
 Alpha virt. eigenvalues --    6.00319   6.01488   6.02262   6.06289   6.08483
 Alpha virt. eigenvalues --    6.22676   6.26630   6.35003   6.40104   6.49676
 Alpha virt. eigenvalues --    6.51525   6.54108   6.56817   6.67949   6.68861
 Alpha virt. eigenvalues --    6.88153   6.89429   6.92631   6.96734   7.09945
 Alpha virt. eigenvalues --    7.14158   7.16199   7.18334   9.45713   9.97954
 Alpha virt. eigenvalues --   11.61693  12.18488  12.44198  12.64818  12.98225
 Alpha virt. eigenvalues --   13.36699  13.53502  13.62087  13.67763  13.77746
 Alpha virt. eigenvalues --   13.98460
          Condensed to atoms (all electrons):
               1          2          3          4          5          6
     1  C    4.686418   0.176207  -0.049748   0.002147   0.000290  -0.012152
     2  C    0.176207   5.438648   0.421766   0.007321  -0.000921   0.000490
     3  H   -0.049748   0.421766   0.444141   0.000171   0.000053   0.001012
     4  C    0.002147   0.007321   0.000171   5.232757   0.406100   0.389306
     5  H    0.000290  -0.000921   0.000053   0.406100   0.514569  -0.009913
     6  H   -0.012152   0.000490   0.001012   0.389306  -0.009913   0.496721
     7  H    0.004544  -0.008498  -0.000281   0.393755  -0.025259  -0.027073
     8  O    0.713186  -0.100890   0.001771  -0.006954   0.000468   0.016577
     9  N   -0.060574   0.237288  -0.035075  -0.009763   0.000166   0.007762
    10  H   -0.001357  -0.025441   0.002614   0.000379   0.000093   0.000818
    11  N    0.371373  -0.100723   0.000227  -0.002649   0.000077   0.002226
    12  H   -0.023998   0.006850  -0.000628   0.000187  -0.000011  -0.000156
    13  C   -0.063555   0.010045  -0.000958  -0.000292  -0.000033  -0.000298
    14  H    0.000720   0.002259   0.000077   0.000505   0.000005   0.000217
    15  H   -0.008203  -0.001179  -0.000204  -0.000013  -0.000001  -0.000101
    16  H    0.007535   0.000595  -0.000084  -0.000016  -0.000002  -0.000008
    17  C   -0.001404  -0.066743   0.000907  -0.000300   0.000012   0.000979
    18  C   -0.003661   0.014254   0.002448  -0.000025   0.000001   0.000269
    19  H    0.000406   0.000093  -0.000442  -0.000027  -0.000002  -0.000135
    20  H   -0.000103  -0.000511   0.000114  -0.000006   0.000000   0.000042
    21  H    0.000779  -0.000877  -0.000151   0.000020  -0.000001  -0.000075
    22  O   -0.007018   0.017085   0.022182   0.000036   0.000000  -0.000152
    23  C   -0.008065  -0.007935   0.004343   0.242247  -0.034285  -0.030412
    24  H    0.002310  -0.011151  -0.000755  -0.048891  -0.006228  -0.010547
    25  C   -0.000734   0.007329  -0.000125  -0.067547  -0.008241   0.006537
    26  H   -0.000181  -0.000315  -0.000033  -0.006366  -0.000546  -0.000024
    27  H   -0.000012   0.000651  -0.000017   0.007976  -0.000012  -0.000325
    28  H    0.000025  -0.000449   0.000015  -0.007103   0.004672  -0.000055
    29  C   -0.029929   0.212497  -0.029320  -0.049999   0.008531  -0.007721
    30  H    0.006030  -0.024722  -0.008190   0.006893  -0.000386  -0.000799
    31  H    0.005636  -0.056420  -0.007207  -0.002827  -0.000182  -0.001081
               7          8          9         10         11         12
     1  C    0.004544   0.713186  -0.060574  -0.001357   0.371373  -0.023998
     2  C   -0.008498  -0.100890   0.237288  -0.025441  -0.100723   0.006850
     3  H   -0.000281   0.001771  -0.035075   0.002614   0.000227  -0.000628
     4  C    0.393755  -0.006954  -0.009763   0.000379  -0.002649   0.000187
     5  H   -0.025259   0.000468   0.000166   0.000093   0.000077  -0.000011
     6  H   -0.027073   0.016577   0.007762   0.000818   0.002226  -0.000156
     7  H    0.538282  -0.004991   0.000402   0.000153   0.002493   0.000361
     8  O   -0.004991   7.846102   0.004804  -0.001048  -0.117645   0.004992
     9  N    0.000402   0.004804   6.553418   0.384444   0.005742   0.000522
    10  H    0.000153  -0.001048   0.384444   0.495426  -0.000146  -0.000003
    11  N    0.002493  -0.117645   0.005742  -0.000146   6.426757   0.383207
    12  H    0.000361   0.004992   0.000522  -0.000003   0.383207   0.527476
    13  C    0.000388   0.005364  -0.000314   0.000014   0.299230  -0.032372
    14  H   -0.001118   0.004558  -0.000016  -0.000014  -0.057491   0.004307
    15  H    0.000272   0.005481  -0.000043   0.000009  -0.041956   0.001344
    16  H   -0.000033   0.001466   0.000008   0.000000  -0.027008  -0.007985
    17  C   -0.000035   0.015964   0.332008  -0.019751  -0.000040  -0.000145
    18  C    0.000000  -0.000454  -0.068534   0.000041  -0.000044  -0.000001
    19  H    0.000001  -0.000018   0.013723  -0.000832   0.000007   0.000001
    20  H    0.000000   0.000061   0.001147   0.000073   0.000004   0.000000
    21  H    0.000001   0.000678  -0.002247  -0.000209   0.000004  -0.000002
    22  O   -0.000002  -0.003526  -0.136799   0.004597  -0.001672  -0.000107
    23  C   -0.043756   0.000192  -0.006382   0.005144  -0.002940   0.000357
    24  H    0.008662  -0.000124   0.002513   0.000749  -0.000176   0.000000
    25  C   -0.006900   0.000002  -0.000139   0.000228  -0.000676   0.000102
    26  H    0.004237  -0.000010  -0.000022  -0.000004   0.000111   0.000001
    27  H   -0.000206   0.000000  -0.000013  -0.000032  -0.000012   0.000016
    28  H   -0.000378   0.000003   0.000017   0.000029  -0.000008  -0.000002
    29  C   -0.000103   0.002308  -0.037139  -0.007477   0.005368  -0.000018
    30  H    0.000207  -0.000368  -0.001342   0.000722   0.000334  -0.000258
    31  H    0.002602  -0.000226   0.005261   0.000347   0.000188   0.003233
              13         14         15         16         17         18
     1  C   -0.063555   0.000720  -0.008203   0.007535  -0.001404  -0.003661
     2  C    0.010045   0.002259  -0.001179   0.000595  -0.066743   0.014254
     3  H   -0.000958   0.000077  -0.000204  -0.000084   0.000907   0.002448
     4  C   -0.000292   0.000505  -0.000013  -0.000016  -0.000300  -0.000025
     5  H   -0.000033   0.000005  -0.000001  -0.000002   0.000012   0.000001
     6  H   -0.000298   0.000217  -0.000101  -0.000008   0.000979   0.000269
     7  H    0.000388  -0.001118   0.000272  -0.000033  -0.000035   0.000000
     8  O    0.005364   0.004558   0.005481   0.001466   0.015964  -0.000454
     9  N   -0.000314  -0.000016  -0.000043   0.000008   0.332008  -0.068534
    10  H    0.000014  -0.000014   0.000009   0.000000  -0.019751   0.000041
    11  N    0.299230  -0.057491  -0.041956  -0.027008  -0.000040  -0.000044
    12  H   -0.032372   0.004307   0.001344  -0.007985  -0.000145  -0.000001
    13  C    4.772792   0.389668   0.405952   0.393714  -0.000179  -0.000006
    14  H    0.389668   0.631071  -0.057811  -0.027868  -0.000007   0.000000
    15  H    0.405952  -0.057811   0.598646  -0.026320   0.000040   0.000000
    16  H    0.393714  -0.027868  -0.026320   0.599114  -0.000005   0.000000
    17  C   -0.000179  -0.000007   0.000040  -0.000005   4.532782   0.282443
    18  C   -0.000006   0.000000   0.000000   0.000000   0.282443   5.001391
    19  H    0.000001   0.000000   0.000000   0.000000  -0.054038   0.390574
    20  H    0.000000   0.000000   0.000000   0.000000  -0.025315   0.384870
    21  H    0.000002   0.000000   0.000001   0.000000  -0.025506   0.387643
    22  O   -0.000114   0.000007   0.000027  -0.000002   0.720442  -0.071419
    23  C    0.000239   0.000268  -0.000037   0.000010  -0.000445  -0.000153
    24  H    0.000011   0.000005   0.000000   0.000000   0.000135  -0.000025
    25  C    0.000011   0.000045  -0.000003   0.000000   0.000031   0.000002
    26  H    0.000023  -0.000014   0.000001   0.000006  -0.000001   0.000000
    27  H   -0.000001   0.000000   0.000000   0.000000   0.000002   0.000000
    28  H    0.000000   0.000002   0.000000   0.000000  -0.000001   0.000000
    29  C   -0.000761  -0.000432   0.000084  -0.000075   0.008881   0.000375
    30  H    0.000064  -0.000020   0.000012   0.000004  -0.000215  -0.000048
    31  H    0.000293  -0.000235   0.000099   0.000009  -0.000218   0.000027
              19         20         21         22         23         24
     1  C    0.000406  -0.000103   0.000779  -0.007018  -0.008065   0.002310
     2  C    0.000093  -0.000511  -0.000877   0.017085  -0.007935  -0.011151
     3  H   -0.000442   0.000114  -0.000151   0.022182   0.004343  -0.000755
     4  C   -0.000027  -0.000006   0.000020   0.000036   0.242247  -0.048891
     5  H   -0.000002   0.000000  -0.000001   0.000000  -0.034285  -0.006228
     6  H   -0.000135   0.000042  -0.000075  -0.000152  -0.030412  -0.010547
     7  H    0.000001   0.000000   0.000001  -0.000002  -0.043756   0.008662
     8  O   -0.000018   0.000061   0.000678  -0.003526   0.000192  -0.000124
     9  N    0.013723   0.001147  -0.002247  -0.136799  -0.006382   0.002513
    10  H   -0.000832   0.000073  -0.000209   0.004597   0.005144   0.000749
    11  N    0.000007   0.000004   0.000004  -0.001672  -0.002940  -0.000176
    12  H    0.000001   0.000000  -0.000002  -0.000107   0.000357   0.000000
    13  C    0.000001   0.000000   0.000002  -0.000114   0.000239   0.000011
    14  H    0.000000   0.000000   0.000000   0.000007   0.000268   0.000005
    15  H    0.000000   0.000000   0.000001   0.000027  -0.000037   0.000000
    16  H    0.000000   0.000000   0.000000  -0.000002   0.000010   0.000000
    17  C   -0.054038  -0.025315  -0.025506   0.720442  -0.000445   0.000135
    18  C    0.390574   0.384870   0.387643  -0.071419  -0.000153  -0.000025
    19  H    0.606962  -0.028217  -0.024542   0.004727   0.000162   0.000056
    20  H   -0.028217   0.573616  -0.023913   0.003279   0.000014  -0.000020
    21  H   -0.024542  -0.023913   0.563379   0.000244  -0.000028   0.000012
    22  O    0.004727   0.003279   0.000244   7.851112  -0.000055   0.000005
    23  C    0.000162   0.000014  -0.000028  -0.000055   5.310181   0.416122
    24  H    0.000056  -0.000020   0.000012   0.000005   0.416122   0.540425
    25  C   -0.000002   0.000000   0.000000   0.000001   0.288334  -0.026025
    26  H    0.000000   0.000000   0.000000   0.000000  -0.041121   0.007585
    27  H    0.000000   0.000000   0.000000   0.000000  -0.038555  -0.006077
    28  H    0.000000   0.000000   0.000000   0.000000  -0.033505  -0.006218
    29  C   -0.000269  -0.000027   0.000045   0.001757   0.227373  -0.043318
    30  H    0.000010  -0.000019   0.000010  -0.000058  -0.046539  -0.005224
    31  H   -0.000001  -0.000004   0.000001   0.000052  -0.049028   0.007762
              25         26         27         28         29         30
     1  C   -0.000734  -0.000181  -0.000012   0.000025  -0.029929   0.006030
     2  C    0.007329  -0.000315   0.000651  -0.000449   0.212497  -0.024722
     3  H   -0.000125  -0.000033  -0.000017   0.000015  -0.029320  -0.008190
     4  C   -0.067547  -0.006366   0.007976  -0.007103  -0.049999   0.006893
     5  H   -0.008241  -0.000546  -0.000012   0.004672   0.008531  -0.000386
     6  H    0.006537  -0.000024  -0.000325  -0.000055  -0.007721  -0.000799
     7  H   -0.006900   0.004237  -0.000206  -0.000378  -0.000103   0.000207
     8  O    0.000002  -0.000010   0.000000   0.000003   0.002308  -0.000368
     9  N   -0.000139  -0.000022  -0.000013   0.000017  -0.037139  -0.001342
    10  H    0.000228  -0.000004  -0.000032   0.000029  -0.007477   0.000722
    11  N   -0.000676   0.000111  -0.000012  -0.000008   0.005368   0.000334
    12  H    0.000102   0.000001   0.000016  -0.000002  -0.000018  -0.000258
    13  C    0.000011   0.000023  -0.000001   0.000000  -0.000761   0.000064
    14  H    0.000045  -0.000014   0.000000   0.000002  -0.000432  -0.000020
    15  H   -0.000003   0.000001   0.000000   0.000000   0.000084   0.000012
    16  H    0.000000   0.000006   0.000000   0.000000  -0.000075   0.000004
    17  C    0.000031  -0.000001   0.000002  -0.000001   0.008881  -0.000215
    18  C    0.000002   0.000000   0.000000   0.000000   0.000375  -0.000048
    19  H   -0.000002   0.000000   0.000000   0.000000  -0.000269   0.000010
    20  H    0.000000   0.000000   0.000000   0.000000  -0.000027  -0.000019
    21  H    0.000000   0.000000   0.000000   0.000000   0.000045   0.000010
    22  O    0.000001   0.000000   0.000000   0.000000   0.001757  -0.000058
    23  C    0.288334  -0.041121  -0.038555  -0.033505   0.227373  -0.046539
    24  H   -0.026025   0.007585  -0.006077  -0.006218  -0.043318  -0.005224
    25  C    5.089421   0.408044   0.402571   0.407738  -0.064653  -0.004966
    26  H    0.408044   0.550490  -0.029939  -0.027032  -0.013269   0.000234
    27  H    0.402571  -0.029939   0.543901  -0.017374   0.000789   0.002613
    28  H    0.407738  -0.027032  -0.017374   0.530829   0.009625  -0.000355
    29  C   -0.064653  -0.013269   0.000789   0.009625   5.377505   0.417773
    30  H   -0.004966   0.000234   0.002613  -0.000355   0.417773   0.474264
    31  H   -0.004648   0.003683  -0.002619   0.000566   0.418395  -0.008783
              31
     1  C    0.005636
     2  C   -0.056420
     3  H   -0.007207
     4  C   -0.002827
     5  H   -0.000182
     6  H   -0.001081
     7  H    0.002602
     8  O   -0.000226
     9  N    0.005261
    10  H    0.000347
    11  N    0.000188
    12  H    0.003233
    13  C    0.000293
    14  H   -0.000235
    15  H    0.000099
    16  H    0.000009
    17  C   -0.000218
    18  C    0.000027
    19  H   -0.000001
    20  H   -0.000004
    21  H    0.000001
    22  O    0.000052
    23  C   -0.049028
    24  H    0.007762
    25  C   -0.004648
    26  H    0.003683
    27  H   -0.002619
    28  H    0.000566
    29  C    0.418395
    30  H   -0.008783
    31  H    0.495137
 Mulliken charges:
               1
     1  C    0.293088
     2  C   -0.146604
     3  H    0.231377
     4  C   -0.487022
     5  H    0.150986
     6  H    0.178071
     7  H    0.162273
     8  O   -0.387723
     9  N   -0.190825
    10  H    0.160434
    11  N   -0.144161
    12  H    0.132730
    13  C   -0.178929
    14  H    0.111313
    15  H    0.123904
    16  H    0.086943
    17  C    0.299724
    18  C   -0.319968
    19  H    0.091804
    20  H    0.114915
    21  H    0.124733
    22  O   -0.404629
    23  C   -0.151743
    24  H    0.178429
    25  C   -0.425736
    26  H    0.144463
    27  H    0.136675
    28  H    0.138961
    29  C   -0.406795
    30  H    0.193123
    31  H    0.190190
 Sum of Mulliken charges =   0.00000
 Mulliken charges with hydrogens summed into heavy atoms:
               1
     1  C    0.293088
     2  C    0.084773
     4  C    0.004308
     8  O   -0.387723
     9  N   -0.030391
    11  N   -0.011431
    13  C    0.143230
    17  C    0.299724
    18  C    0.011483
    22  O   -0.404629
    23  C    0.026687
    25  C   -0.005637
    29  C   -0.023482
 Electronic spatial extent (au):  <R**2>=           2881.4180
 Charge=              0.0000 electrons
 Dipole moment (field-independent basis, Debye):
    X=             -4.1775    Y=             -2.0488    Z=             -1.1198  Tot=              4.7858
 Quadrupole moment (field-independent basis, Debye-Ang):
   XX=            -84.6795   YY=            -72.1461   ZZ=            -81.6012
   XY=            -10.4707   XZ=              5.7697   YZ=             -4.7480
 Traceless Quadrupole moment (field-independent basis, Debye-Ang):
   XX=             -5.2039   YY=              7.3295   ZZ=             -2.1256
   XY=            -10.4707   XZ=              5.7697   YZ=             -4.7480
 Octapole moment (field-independent basis, Debye-Ang**2):
  XXX=             -1.2061  YYY=             29.0417  ZZZ=             -7.3522  XYY=             -6.7367
  XXY=            -13.8567  XXZ=             16.9457  XZZ=             -3.1641  YZZ=              0.4857
  YYZ=             -3.1257  XYZ=              3.3528
 Hexadecapole moment (field-independent basis, Debye-Ang**3):
 XXXX=          -2088.2809 YYYY=          -1276.4486 ZZZZ=           -407.9409 XXXY=            -78.4843
 XXXZ=             48.9415 YYYX=            -41.5273 YYYZ=            -11.0085 ZZZX=              4.0183
 ZZZY=            -10.2204 XXYY=           -547.4892 XXZZ=           -411.1243 YYZZ=           -293.4588
 XXYZ=             -0.7076 YYXZ=              3.7127 ZZXY=            -11.0140
 N-N= 8.773816128988D+02 E-N=-3.184444452439D+03  KE= 6.091200900001D+02
 Calculating spin-rotation constants.
 Leave Link  601 at Wed Jun 18 20:36:13 2014, MaxMem=  4294967296 cpu:        70.2
 (Enter /home/ztw1e12/g09/l9999.exe)

 Test job not archived.
 1\1\GINC-GREEN0084\SP\RM06\Gen\C9H18N2O2\ROOT\18-Jun-2014\0\\#P Geom=A
 llCheck Guess=TCheck SCRF=Check GenChk RM06/ChkBas NMR=ReadFC IOp(3/6=
 22)\\NMR spin-spin scan\\0,1\C,0,0.529555,0.854894,0.517081\C,0,0.1650
 53,0.111353,-0.770116\H,0,0.615847,0.701074,-1.573966\C,0,-1.873657,-0
 .843572,1.283006\H,0,-2.610931,-1.429043,1.836429\H,0,-0.895278,-1.280
 342,1.479773\H,0,-1.883634,0.168179,1.7038\O,0,1.123036,0.323697,1.450
 01\N,0,0.775524,-1.195932,-0.808162\H,0,0.228692,-1.991687,-0.516681\N
 ,0,0.193866,2.149778,0.531754\H,0,-0.2822,2.54533,-0.262612\C,0,0.4385
 98,2.978153,1.68989\H,0,-0.086616,2.593638,2.566038\H,0,1.502402,3.024
 264,1.924088\H,0,0.083886,3.983917,1.486026\C,0,2.104733,-1.356569,-0.
 94663\C,0,2.621546,-2.749276,-0.796267\H,0,1.831347,-3.494504,-0.73253
 1\H,0,3.276644,-2.981674,-1.634557\H,0,3.222858,-2.794091,0.11263\O,0,
 2.855642,-0.412763,-1.186443\C,0,-2.229378,-0.833594,-0.191965\H,0,-2.
 138399,-1.868858,-0.546278\C,0,-3.668982,-0.40429,-0.395551\H,0,-3.823
 177,0.602602,0.004686\H,0,-3.936589,-0.385133,-1.454375\H,0,-4.360015,
 -1.077232,0.115212\C,0,-1.327015,0.032324,-1.076842\H,0,-1.43614,-0.29
 5462,-2.113302\H,0,-1.711597,1.058116,-1.053806\\Version=EM64L-G09RevD
 .01\State=1-A\HF=-613.5803259\RMSD=2.937e-09\Dipole=-1.8445184,0.10097
 84,-0.3643368\Quadrupole=-7.8987954,11.2753872,-3.3765918,-3.0282865,1
 .5384383,1.7446914\PG=C01 [X(C9H18N2O2)]\\@


 THERE'S SMALL CHOICE IN A BOWL OF ROTTEN APPLES.
                     SHAKESPEARE
 Job cpu time:       2 days 14 hours 12 minutes 57.0 seconds.
 File lengths (MBytes):  RWF=   2456 Int=      0 D2E=      0 Chk=     48 Scr=      8
 Normal termination of Gaussian 09 at Wed Jun 18 20:36:14 2014.
