 Entering Gaussian System, Link 0=g09
 Input=scan_input_30.gjf
 Output=scan_input_30.log
 Initial command:
 /home/ztw1e12/g09/l1.exe "/home/ztw1e12/leucine_scan/leucine_chi2_scan/Gau-9367.inp" -scrdir="/home/ztw1e12/leucine_scan/leucine_chi2_scan/"
 Default is to use a total of   8 processors:
                                8 via shared-memory
                                1 via Linda
 Entering Link 1 = /home/ztw1e12/g09/l1.exe PID=      9368.
  
 Copyright (c) 1988,1990,1992,1993,1995,1998,2003,2009,2013,
            Gaussian, Inc.  All Rights Reserved.
  
 This is part of the Gaussian(R) 09 program.  It is based on
 the Gaussian(R) 03 system (copyright 2003, Gaussian, Inc.),
 the Gaussian(R) 98 system (copyright 1998, Gaussian, Inc.),
 the Gaussian(R) 94 system (copyright 1995, Gaussian, Inc.),
 the Gaussian 92(TM) system (copyright 1992, Gaussian, Inc.),
 the Gaussian 90(TM) system (copyright 1990, Gaussian, Inc.),
 the Gaussian 88(TM) system (copyright 1988, Gaussian, Inc.),
 the Gaussian 86(TM) system (copyright 1986, Carnegie Mellon
 University), and the Gaussian 82(TM) system (copyright 1983,
 Carnegie Mellon University). Gaussian is a federally registered
 trademark of Gaussian, Inc.
  
 This software contains proprietary and confidential information,
 including trade secrets, belonging to Gaussian, Inc.
  
 This software is provided under written license and may be
 used, copied, transmitted, or stored only in accord with that
 written license.
  
 The following legend is applicable only to US Government
 contracts under FAR:
  
                    RESTRICTED RIGHTS LEGEND
  
 Use, reproduction and disclosure by the US Government is
 subject to restrictions as set forth in subparagraphs (a)
 and (c) of the Commercial Computer Software - Restricted
 Rights clause in FAR 52.227-19.
  
 Gaussian, Inc.
 340 Quinnipiac St., Bldg. 40, Wallingford CT 06492
  
  
 ---------------------------------------------------------------
 Warning -- This program may not be used in any manner that
 competes with the business of Gaussian, Inc. or will provide
 assistance to any competitor of Gaussian, Inc.  The licensee
 of this program is prohibited from giving any competitor of
 Gaussian, Inc. access to this program.  By using this program,
 the user acknowledges that Gaussian, Inc. is engaged in the
 business of creating and licensing software in the field of
 computational chemistry and represents and warrants to the
 licensee that it is not a competitor of Gaussian, Inc. and that
 it will not use this program in any manner prohibited above.
 ---------------------------------------------------------------
  

 Cite this work as:
 Gaussian 09, Revision D.01,
 M. J. Frisch, G. W. Trucks, H. B. Schlegel, G. E. Scuseria, 
 M. A. Robb, J. R. Cheeseman, G. Scalmani, V. Barone, B. Mennucci, 
 G. A. Petersson, H. Nakatsuji, M. Caricato, X. Li, H. P. Hratchian, 
 A. F. Izmaylov, J. Bloino, G. Zheng, J. L. Sonnenberg, M. Hada, 
 M. Ehara, K. Toyota, R. Fukuda, J. Hasegawa, M. Ishida, T. Nakajima, 
 Y. Honda, O. Kitao, H. Nakai, T. Vreven, J. A. Montgomery, Jr., 
 J. E. Peralta, F. Ogliaro, M. Bearpark, J. J. Heyd, E. Brothers, 
 K. N. Kudin, V. N. Staroverov, T. Keith, R. Kobayashi, J. Normand, 
 K. Raghavachari, A. Rendell, J. C. Burant, S. S. Iyengar, J. Tomasi, 
 M. Cossi, N. Rega, J. M. Millam, M. Klene, J. E. Knox, J. B. Cross, 
 V. Bakken, C. Adamo, J. Jaramillo, R. Gomperts, R. E. Stratmann, 
 O. Yazyev, A. J. Austin, R. Cammi, C. Pomelli, J. W. Ochterski, 
 R. L. Martin, K. Morokuma, V. G. Zakrzewski, G. A. Voth, 
 P. Salvador, J. J. Dannenberg, S. Dapprich, A. D. Daniels, 
 O. Farkas, J. B. Foresman, J. V. Ortiz, J. Cioslowski, 
 and D. J. Fox, Gaussian, Inc., Wallingford CT, 2013.
 
 ******************************************
 Gaussian 09:  EM64L-G09RevD.01 24-Apr-2013
                18-Jun-2014 
 ******************************************
 %Mem=32GB
 %NProcShared=16
 Will use up to   16 processors via shared memory.
 Default route:  MaxDisk=100GB
 ----------------------------------------------------------------------
 #p nmr=(giao,mixed,spinspin) m06/cc-pvtz scf=tight integral=(grid=ultr
 afine)
 ----------------------------------------------------------------------
 1/38=1/1;
 2/12=2,17=6,18=5,40=1/2;
 3/5=16,6=1,10=1100000,11=2,16=1,25=1,30=1,74=-54,75=-5/1,2,8,3;
 4//1;
 5/5=2,32=2,38=5/2;
 8/6=1,10=90,11=11/1;
 10/13=100,45=16,47=3/2;
 6/7=2,8=2,9=2,10=2,28=1/1;
 99/9=1/99;
 Leave Link    1 at Wed Jun 18 15:10:08 2014, MaxMem=  4294967296 cpu:         5.8
 (Enter /home/ztw1e12/g09/l101.exe)
 ------------------
 NMR spin-spin scan
 ------------------
 Symbolic Z-matrix:
 Charge =  0 Multiplicity = 1
 C                     0.58528   0.74581   0.61276 
 C                     0.14354   0.23459  -0.7528 
 H                     0.53779   0.92092  -1.50754 
 C                    -2.76653   0.23748   1.24623 
 H                    -3.25439  -0.372     2.00968 
 H                    -2.0498    0.89254   1.74907 
 H                    -3.52915   0.87215   0.7853 
 O                     0.8144   -0.00042   1.56059 
 N                     0.66302  -1.08615  -1.01395 
 H                     0.02077  -1.86319  -1.0563 
 N                     0.66499   2.07722   0.70697 
 H                     0.40972   2.6326   -0.09447 
 C                     0.90063   2.73475   1.97178 
 H                     0.11965   2.49421   2.69557 
 H                     1.85968   2.43546   2.39389 
 H                     0.91269   3.80875   1.81377 
 C                     1.98319  -1.32223  -1.09024 
 C                     2.39705  -2.74057  -1.30413 
 H                     1.55711  -3.41248  -1.4669 
 H                     3.07189  -2.78735  -2.15781 
 H                     2.95527  -3.07473  -0.42916 
 O                     2.80856  -0.41471  -0.99114 
 C                    -2.09971  -0.62819   0.19291 
 H                    -1.36711  -1.26931   0.69457 
 C                    -3.12609  -1.52487  -0.47439 
 H                    -3.86653  -0.92357  -1.01077 
 H                    -2.65696  -2.19561  -1.19847 
 H                    -3.65911  -2.13392   0.25862 
 C                    -1.37692   0.23483  -0.85248 
 H                    -1.6259   -0.1092   -1.86046 
 H                    -1.72139   1.27048  -0.79036 
 
 NAtoms=     31 NQM=       31 NQMF=       0 NMMI=      0 NMMIF=      0
                NMic=       0 NMicF=      0.
                    Isotopes and Nuclear Properties:
 (Nuclear quadrupole moments (NQMom) in fm**2, nuclear magnetic moments (NMagM)
  in nuclear magnetons)

  Atom         1           2           3           4           5           6           7           8           9          10
 IAtWgt=          12          12           1          12           1           1           1          16          14           1
 AtmWgt=  12.0000000  12.0000000   1.0078250  12.0000000   1.0078250   1.0078250   1.0078250  15.9949146  14.0030740   1.0078250
 NucSpn=           0           0           1           0           1           1           1           0           2           1
 AtZEff=   0.0000000   0.0000000   0.0000000   0.0000000   0.0000000   0.0000000   0.0000000   0.0000000   0.0000000   0.0000000
 NQMom=    0.0000000   0.0000000   0.0000000   0.0000000   0.0000000   0.0000000   0.0000000   0.0000000   2.0440000   0.0000000
 NMagM=    0.0000000   0.0000000   2.7928460   0.0000000   2.7928460   2.7928460   2.7928460   0.0000000   0.4037610   2.7928460
 AtZNuc=   6.0000000   6.0000000   1.0000000   6.0000000   1.0000000   1.0000000   1.0000000   8.0000000   7.0000000   1.0000000

  Atom        11          12          13          14          15          16          17          18          19          20
 IAtWgt=          14           1          12           1           1           1          12          12           1           1
 AtmWgt=  14.0030740   1.0078250  12.0000000   1.0078250   1.0078250   1.0078250  12.0000000  12.0000000   1.0078250   1.0078250
 NucSpn=           2           1           0           1           1           1           0           0           1           1
 AtZEff=   0.0000000   0.0000000   0.0000000   0.0000000   0.0000000   0.0000000   0.0000000   0.0000000   0.0000000   0.0000000
 NQMom=    2.0440000   0.0000000   0.0000000   0.0000000   0.0000000   0.0000000   0.0000000   0.0000000   0.0000000   0.0000000
 NMagM=    0.4037610   2.7928460   0.0000000   2.7928460   2.7928460   2.7928460   0.0000000   0.0000000   2.7928460   2.7928460
 AtZNuc=   7.0000000   1.0000000   6.0000000   1.0000000   1.0000000   1.0000000   6.0000000   6.0000000   1.0000000   1.0000000

  Atom        21          22          23          24          25          26          27          28          29          30
 IAtWgt=           1          16          12           1          12           1           1           1          12           1
 AtmWgt=   1.0078250  15.9949146  12.0000000   1.0078250  12.0000000   1.0078250   1.0078250   1.0078250  12.0000000   1.0078250
 NucSpn=           1           0           0           1           0           1           1           1           0           1
 AtZEff=   0.0000000   0.0000000   0.0000000   0.0000000   0.0000000   0.0000000   0.0000000   0.0000000   0.0000000   0.0000000
 NQMom=    0.0000000   0.0000000   0.0000000   0.0000000   0.0000000   0.0000000   0.0000000   0.0000000   0.0000000   0.0000000
 NMagM=    2.7928460   0.0000000   0.0000000   2.7928460   0.0000000   2.7928460   2.7928460   2.7928460   0.0000000   2.7928460
 AtZNuc=   1.0000000   8.0000000   6.0000000   1.0000000   6.0000000   1.0000000   1.0000000   1.0000000   6.0000000   1.0000000

  Atom        31
 IAtWgt=           1
 AtmWgt=   1.0078250
 NucSpn=           1
 AtZEff=   0.0000000
 NQMom=    0.0000000
 NMagM=    2.7928460
 AtZNuc=   1.0000000
 Leave Link  101 at Wed Jun 18 15:10:09 2014, MaxMem=  4294967296 cpu:         1.9
 (Enter /home/ztw1e12/g09/l202.exe)
                          Input orientation:                          
 ---------------------------------------------------------------------
 Center     Atomic      Atomic             Coordinates (Angstroms)
 Number     Number       Type             X           Y           Z
 ---------------------------------------------------------------------
      1          6           0        0.585284    0.745814    0.612755
      2          6           0        0.143536    0.234592   -0.752803
      3          1           0        0.537785    0.920924   -1.507541
      4          6           0       -2.766528    0.237477    1.246228
      5          1           0       -3.254392   -0.371998    2.009679
      6          1           0       -2.049797    0.892539    1.749066
      7          1           0       -3.529151    0.872149    0.785295
      8          8           0        0.814399   -0.000418    1.560588
      9          7           0        0.663016   -1.086146   -1.013946
     10          1           0        0.020765   -1.863188   -1.056296
     11          7           0        0.664994    2.077218    0.706971
     12          1           0        0.409716    2.632600   -0.094469
     13          6           0        0.900632    2.734753    1.971781
     14          1           0        0.119654    2.494210    2.695567
     15          1           0        1.859682    2.435459    2.393888
     16          1           0        0.912691    3.808745    1.813772
     17          6           0        1.983186   -1.322228   -1.090242
     18          6           0        2.397053   -2.740574   -1.304129
     19          1           0        1.557110   -3.412484   -1.466900
     20          1           0        3.071886   -2.787348   -2.157806
     21          1           0        2.955265   -3.074732   -0.429161
     22          8           0        2.808559   -0.414713   -0.991139
     23          6           0       -2.099705   -0.628192    0.192908
     24          1           0       -1.367109   -1.269313    0.694572
     25          6           0       -3.126094   -1.524871   -0.474388
     26          1           0       -3.866530   -0.923567   -1.010769
     27          1           0       -2.656959   -2.195608   -1.198468
     28          1           0       -3.659113   -2.133916    0.258623
     29          6           0       -1.376924    0.234825   -0.852476
     30          1           0       -1.625902   -0.109197   -1.860459
     31          1           0       -1.721388    1.270484   -0.790364
 ---------------------------------------------------------------------
                    Distance matrix (angstroms):
                    1          2          3          4          5
     1  C    0.000000
     2  C    1.523561   0.000000
     3  H    2.128045   1.093670   0.000000
     4  C    3.448817   3.530525   4.355322   0.000000
     5  H    4.236037   4.420992   5.331331   1.091938   0.000000
     6  H    2.873392   3.391600   4.159552   1.093460   1.765792
     7  H    4.119989   4.032475   4.668988   1.094012   1.767063
     8  O    1.227902   2.420137   3.215401   3.602562   4.110330
     9  N    2.451178   1.443054   2.070664   4.315337   4.999840
    10  H    3.148222   2.123173   2.867440   4.181317   4.727632
    11  N    1.337111   2.407930   2.501452   3.930749   4.801801
    12  H    2.022610   2.500939   2.223288   4.197929   5.184663
    13  C    2.429460   3.774567   3.940471   4.495651   5.188214
    14  H    2.758950   4.122827   4.507347   3.939984   4.479930
    15  H    2.766121   4.206024   4.388892   5.248816   5.846639
    16  H    3.306234   4.466931   4.417147   5.158751   5.906062
    17  C    3.021775   2.433488   2.700936   5.518293   6.159925
    18  C    4.371710   3.772786   4.111547   6.483493   6.966370
    19  H    4.749827   3.976090   4.451865   6.275119   6.669461
    20  H    5.132488   4.436371   4.538259   7.404329   7.951329
    21  H    4.615081   4.354560   4.792951   6.820306   7.198094
    22  O    2.976953   2.753316   2.684588   6.042579   6.765065
    23  C    3.045214   2.582808   3.499663   1.517735   2.167855
    24  H    2.807004   2.576562   3.643496   2.129111   2.469113
    25  C    4.484665   3.723400   4.524746   2.489112   2.741563
    26  H    5.024073   4.181926   4.800721   2.766236   3.130822
    27  H    4.737577   3.734603   4.473778   3.450862   3.738273
    28  H    5.141319   4.592706   5.483187   2.719481   2.516814
    29  C    2.501654   1.523724   2.136809   2.517055   3.476356
    30  H    3.425956   2.115657   2.422239   3.327569   4.207019
    31  H    2.750410   2.133641   2.395913   2.511400   3.589998
                    6          7          8          9         10
     6  H    0.000000
     7  H    1.765718   0.000000
     8  O    3.006080   4.497653   0.000000
     9  N    4.348423   4.964519   2.798204   0.000000
    10  H    4.444245   4.845145   3.308753   1.008997   0.000000
    11  N    3.139987   4.364536   2.251123   3.601171   4.364738
    12  H    3.532087   4.403163   3.136202   3.839098   4.613947
    13  C    3.485453   4.949750   2.767251   4.854925   5.575346
    14  H    2.857924   4.426511   2.827369   5.184079   5.750928
    15  H    4.252108   5.837040   2.778579   5.044506   5.810658
    16  H    4.157497   5.423221   3.818833   5.658470   6.419007
    17  C    5.406645   6.222442   3.184359   1.343281   2.035899
    18  C    6.503536   7.248266   4.268472   2.414171   2.545186
    19  H    6.471896   7.021432   4.621634   2.533065   2.220196
    20  H    7.418683   8.101077   5.166206   3.163093   3.372942
    21  H    6.747930   7.687680   4.241912   3.090445   3.236113
    22  O    5.728984   6.706586   3.264908   2.248265   3.142311
    23  C    2.176406   2.155287   3.279733   3.049401   2.753565
    24  H    2.500325   3.044424   2.668156   2.659698   2.311800
    25  C    3.456304   2.737693   4.689624   3.852396   3.218042
    26  H    3.770338   2.562082   5.419887   4.532464   3.999503
    27  H    4.311990   3.755951   4.947886   3.505309   2.702022
    28  H    3.737746   3.054620   5.124377   4.625803   3.917117
    29  C    2.766472   2.778589   3.268044   2.435650   2.529177
    30  H    3.769858   3.403735   4.203625   2.628718   2.536666
    31  H    2.588320   2.430921   3.684072   3.359922   3.595235
                   11         12         13         14         15
    11  N    0.000000
    12  H    1.007930   0.000000
    13  C    1.444861   2.126223   0.000000
    14  H    2.103757   2.808485   1.091629   0.000000
    15  H    2.097929   2.886726   1.089738   1.766963   0.000000
    16  H    2.069915   2.297321   1.085620   1.770444   1.766137
    17  C    4.064952   4.371274   5.196826   5.689490   5.125878
    18  C    5.500516   5.855236   6.553630   6.970443   6.383997
    19  H    5.971467   6.304214   7.074179   7.367594   7.013963
    20  H    6.137107   6.381249   7.229207   7.756659   7.033141
    21  H    5.751411   6.258233   6.613332   6.986969   6.287457
    22  O    3.699753   3.980525   4.726332   5.411455   4.525733
    23  C    3.902187   4.124626   4.845184   4.575833   5.468731
    24  H    3.915210   4.359429   4.775611   4.514261   5.198576
    25  C    5.361250   5.470910   6.351587   6.061065   6.983494
    26  H    5.700004   5.636684   6.708557   6.427114   7.460848
    27  H    5.737866   5.825367   6.856777   6.698319   7.399449
    28  H    6.052484   6.276919   6.886953   6.452699   7.476339
    29  C    3.161600   3.084799   4.406056   4.464658   5.085006
    30  H    4.076802   3.844465   5.399768   5.530105   6.060036
    31  H    2.930469   2.623211   4.080259   4.127791   4.931601
                   16         17         18         19         20
    16  H    0.000000
    17  C    5.992173   0.000000
    18  C    7.403933   1.492896   0.000000
    19  H    7.957652   2.166237   1.087870   0.000000
    20  H    7.996499   2.114601   1.089198   1.778396   0.000000
    21  H    7.522308   2.110269   1.090335   1.773645   1.756247
    22  O    5.412896   1.230709   2.382631   3.283155   2.657038
    23  C    5.602512   4.335684   5.188845   4.886670   6.077266
    24  H    5.677743   3.796424   4.508695   4.220924   5.490461
    25  C    7.070709   5.150251   5.715904   5.145927   6.545434
    26  H    7.294776   5.863823   6.528403   5.984867   7.275369
    27  H    7.607118   4.722865   5.084407   4.394453   5.838677
    28  H    7.657356   5.857799   6.283898   5.641024   7.181396
    29  C    5.012397   3.710968   4.826996   4.721116   5.534377
    30  H    5.940934   3.884610   4.839196   4.604146   5.415729
    31  H    4.490286   4.531661   5.771837   5.756426   6.427392
                   21         22         23         24         25
    21  H    0.000000
    22  O    2.722690   0.000000
    23  C    5.650243   5.053573   0.000000
    24  H    4.817181   4.583467   1.095171   0.000000
    25  C    6.275910   6.059669   1.517495   2.127394   0.000000
    26  H    7.176536   6.694485   2.158183   3.045461   1.094311
    27  H    5.732517   5.752083   2.168698   2.470898   1.092826
    28  H    6.716262   6.807962   2.168704   2.488146   1.091948
    29  C    5.468110   4.237853   1.536242   2.157750   2.509796
    30  H    5.641817   4.529183   2.170291   2.817983   2.485136
    31  H    6.393939   4.837419   2.171386   2.963295   3.144368
                   26         27         28         29         30
    26  H    0.000000
    27  H    1.765328   0.000000
    28  H    1.766160   1.769529   0.000000
    29  C    2.750467   2.768611   3.471867   0.000000
    30  H    2.530926   2.419591   3.567064   1.093787   0.000000
    31  H    3.076373   3.613258   4.055255   1.093208   1.748640
                   31
    31  H    0.000000
 Stoichiometry    C9H18N2O2
 Framework group  C1[X(C9H18N2O2)]
 Deg. of freedom    87
 Full point group                 C1      NOp   1
 Largest Abelian subgroup         C1      NOp   1
 Largest concise Abelian subgroup C1      NOp   1
                         Standard orientation:                         
 ---------------------------------------------------------------------
 Center     Atomic      Atomic             Coordinates (Angstroms)
 Number     Number       Type             X           Y           Z
 ---------------------------------------------------------------------
      1          6           0       -0.005309    1.172150   -0.094271
      2          6           0       -0.210573   -0.036728    0.810007
      3          1           0       -0.587298    0.327167    1.770097
      4          6           0        3.029268   -0.403738   -0.544003
      5          1           0        3.516688   -0.745000   -1.459584
      6          1           0        2.757955    0.646599   -0.681253
      7          1           0        3.763201   -0.453584    0.265762
      8          8           0       -0.142146    1.122192   -1.313501
      9          7           0       -1.176101   -0.953163    0.252956
     10          1           0       -0.862246   -1.857079   -0.067207
     11          7           0        0.375141    2.283700    0.544150
     12          1           0        0.521867    2.240279    1.540397
     13          6           0        0.778419    3.470313   -0.174835
     14          1           0        1.631574    3.269230   -0.825485
     15          1           0       -0.037174    3.849062   -0.790371
     16          1           0        1.056923    4.238108    0.540357
     17          6           0       -2.453881   -0.592867    0.048336
     18          6           0       -3.340865   -1.609959   -0.590038
     19          1           0       -2.855853   -2.573344   -0.731862
     20          1           0       -4.231843   -1.737317    0.023387
     21          1           0       -3.664443   -1.228763   -1.558964
     22          8           0       -2.871728    0.518277    0.373003
     23          6           0        1.822240   -1.260969   -0.209698
     24          1           0        1.126132   -1.210837   -1.053688
     25          6           0        2.240799   -2.709041   -0.034518
     26          1           0        2.920173   -2.809250    0.817494
     27          1           0        1.377521   -3.352372    0.152947
     28          1           0        2.758909   -3.083529   -0.919770
     29          6           0        1.114949   -0.747593    1.053719
     30          1           0        0.905156   -1.580269    1.731220
     31          1           0        1.770185   -0.066031    1.602575
 ---------------------------------------------------------------------
 Rotational constants (GHZ):      0.8343713      0.6472491      0.4160462
 Leave Link  202 at Wed Jun 18 15:10:09 2014, MaxMem=  4294967296 cpu:         1.9
 (Enter /home/ztw1e12/g09/l301.exe)
 Standard basis: CC-pVTZ (5D, 7F)
 Converting basis for Fermi contact spin-spin IFCMod=1.
 AO basis functions are being uncontracted.
 Ernie: Thresh=  0.10000D-02 Tol=  0.10000D-05 Strict=F.
 There are  1119 symmetry adapted cartesian basis functions of A   symmetry.
 There are  1036 symmetry adapted basis functions of A   symmetry.
  1036 basis functions,  1119 primitive gaussians,  1119 cartesian basis functions
    51 alpha electrons       51 beta electrons
       nuclear repulsion energy       876.6361572610 Hartrees.
 IExCor= 4235 DFT=T Ex+Corr=M06 ExCW=0 ScaHFX=  0.270000
 ScaDFX=  1.000000  1.000000  1.000000  1.000000 ScalE2=  1.000000  1.000000
 IRadAn= 199590 IRanWt=     -1 IRanGd=            0 ICorTp=0 IEmpDi=  4
 NAtoms=   31 NActive=   31 NUniq=   31 SFac= 1.00D+00 NAtFMM=   60 NAOKFM=F Big=F
 Integral buffers will be    131072 words long.
 Raffenetti 2 integral format.
 Two-electron integral symmetry is turned on.
 Leave Link  301 at Wed Jun 18 15:10:09 2014, MaxMem=  4294967296 cpu:         5.2
 (Enter /home/ztw1e12/g09/l302.exe)
 NPDir=0 NMtPBC=     1 NCelOv=     1 NCel=       1 NClECP=     1 NCelD=      1
         NCelK=      1 NCelE2=     1 NClLst=     1 CellRange=     0.0.
 One-electron integrals computed using PRISM.
 GSVD:  received Info=                   1 from GESDD.
 NBasis=  1036 RedAO= T EigKep=  1.24D-04  NBF=  1036
 NBsUse=   932 1.00D-06 EigRej=  5.99D-15 NBFU=   932
 Precomputing XC quadrature grid using
 IXCGrd= 4 IRadAn=      199590 IRanWt=          -1 IRanGd=           0 AccXCQ= 0.00D+00.
 Generated NRdTot=       0 NPtTot=           0 NUsed=           0 NTot=          32
 NSgBfM=   889   889   889   889   889 MxSgAt=    31 MxSgA2=    31.
 Leave Link  302 at Wed Jun 18 15:10:14 2014, MaxMem=  4294967296 cpu:        66.1
 (Enter /home/ztw1e12/g09/l308.exe)
 Leave Link  308 at Wed Jun 18 15:10:14 2014, MaxMem=  4294967296 cpu:         5.6
 (Enter /home/ztw1e12/g09/l303.exe)
 DipDrv:  MaxL=1.
 Leave Link  303 at Wed Jun 18 15:10:14 2014, MaxMem=  4294967296 cpu:         3.3
 (Enter /home/ztw1e12/g09/l401.exe)
 ExpMin= 1.03D-01 ExpMax= 1.38D+05 ExpMxC= 1.38D+05 IAcc=4 IRadAn=    199590 AccDes= 0.00D+00
 Harris functional with IExCor= 1009 and IRadAn=  199590 diagonalized for initial guess.
 HarFok:  IExCor= 1009 AccDes= 0.00D+00 IRadAn=    199590 IDoV= 1 UseB2=F ITyADJ=14
 ICtDFT=  3500011 ScaDFX=  1.000000  1.000000  1.000000  1.000000
 FoFCou: FMM=F IPFlag=           0 FMFlag=      100000 FMFlg1=           0
         NFxFlg=           0 DoJE=T BraDBF=F KetDBF=T FulRan=T
         wScrn=  0.000000 ICntrl=     500 IOpCl=  0 I1Cent=   200000004 NGrid=           0
         NMat0=    1 NMatS0=      1 NMatT0=    0 NMatD0=    1 NMtDS0=    0 NMtDT0=    0
 Petite list used in FoFCou.
 Harris En= -613.564291590168    
 JPrj=0 DoOrth=F DoCkMO=F.
 Leave Link  401 at Wed Jun 18 15:10:32 2014, MaxMem=  4294967296 cpu:       261.7
 (Enter /home/ztw1e12/g09/l502.exe)
 Closed shell SCF:
 Using DIIS extrapolation, IDIIS=  1040.
 Integral symmetry usage will be decided dynamically.
 IVT=     3801329 IEndB=     3801329 NGot=  4294967296 MDV=  4292435888
 LenX=  4292435888 LenY=  4291182608
 Requested convergence on RMS density matrix=1.00D-08 within 128 cycles.
 Requested convergence on MAX density matrix=1.00D-06.
 Requested convergence on             energy=1.00D-06.
 No special actions if energy rises.
 Fock matrices will be formed incrementally for  20 cycles.
 Integral accuracy reduced to 1.0D-05 until final iterations.

 Cycle   1  Pass 0  IDiag  1:
 FoFJK:  IHMeth= 1 ICntrl=       0 DoSepK=F KAlg= 0 I1Cent=   0 FoldK=F
 IRaf= 480000000 NMat=   1 IRICut=       1 DoRegI=T DoRafI=F ISym2E= 0.
 FoFCou: FMM=F IPFlag=           0 FMFlag=      100000 FMFlg1=           0
         NFxFlg=           0 DoJE=F BraDBF=F KetDBF=F FulRan=T
         wScrn=  0.000000 ICntrl=       0 IOpCl=  0 I1Cent=           0 NGrid=           0
         NMat0=    1 NMatS0=      1 NMatT0=    0 NMatD0=    1 NMtDS0=    0 NMtDT0=    0
 Symmetry not used in FoFCou.
 E= -613.182141956238    
 DIIS: error= 1.52D-01 at cycle   1 NSaved=   1.
 NSaved= 1 IEnMin= 1 EnMin= -613.182141956238     IErMin= 1 ErrMin= 1.52D-01
 ErrMax= 1.52D-01  0.00D+00 EMaxC= 1.00D-01 BMatC= 1.30D+01 BMatP= 1.30D+01
 IDIUse=3 WtCom= 0.00D+00 WtEn= 1.00D+00
 Coeff-Com:  0.100D+01
 Coeff-En:   0.100D+01
 Coeff:      0.100D+01
 Gap=     0.289 Goal=   None    Shift=    0.000
 GapD=    0.289 DampG=1.000 DampE=0.250 DampFc=0.2500 IDamp=-1.
 Damping current iteration by 2.50D-01
 RMSDP=2.13D-03 MaxDP=3.08D-01              OVMax= 2.86D-01

 Cycle   2  Pass 0  IDiag  1:
 RMSU=  5.33D-04    CP:  1.01D+00
 E= -613.339966523898     Delta-E=       -0.157824567659 Rises=F Damp=T
 DIIS: error= 1.15D-01 at cycle   2 NSaved=   2.
 NSaved= 2 IEnMin= 2 EnMin= -613.339966523898     IErMin= 2 ErrMin= 1.15D-01
 ErrMax= 1.15D-01  0.00D+00 EMaxC= 1.00D-01 BMatC= 7.66D+00 BMatP= 1.30D+01
 IDIUse=3 WtCom= 0.00D+00 WtEn= 1.00D+00
 Coeff-Com: -0.279D+01 0.379D+01
 Coeff-En:   0.000D+00 0.100D+01
 Coeff:      0.000D+00 0.100D+01
 Gap=     0.223 Goal=   None    Shift=    0.000
 RMSDP=5.86D-04 MaxDP=5.24D-02 DE=-1.58D-01 OVMax= 1.33D-01

 Cycle   3  Pass 0  IDiag  1:
 RMSU=  4.43D-04    CP:  1.03D+00  1.71D+00
 E= -613.530391095067     Delta-E=       -0.190424571170 Rises=F Damp=F
 DIIS: error= 1.44D-02 at cycle   3 NSaved=   3.
 NSaved= 3 IEnMin= 3 EnMin= -613.530391095067     IErMin= 3 ErrMin= 1.44D-02
 ErrMax= 1.44D-02  0.00D+00 EMaxC= 1.00D-01 BMatC= 2.31D-01 BMatP= 7.66D+00
 IDIUse=3 WtCom= 8.56D-01 WtEn= 1.44D-01
 Coeff-Com:  0.122D+01-0.167D+01 0.145D+01
 Coeff-En:   0.138D+00 0.000D+00 0.862D+00
 Coeff:      0.106D+01-0.143D+01 0.136D+01
 Gap=     0.255 Goal=   None    Shift=    0.000
 RMSDP=4.21D-04 MaxDP=3.57D-02 DE=-1.90D-01 OVMax= 6.56D-02

 Cycle   4  Pass 0  IDiag  1:
 RMSU=  2.66D-04    CP:  1.03D+00  1.15D+00  7.07D-01
 E= -613.547363499066     Delta-E=       -0.016972403999 Rises=F Damp=F
 DIIS: error= 8.62D-03 at cycle   4 NSaved=   4.
 NSaved= 4 IEnMin= 4 EnMin= -613.547363499066     IErMin= 4 ErrMin= 8.62D-03
 ErrMax= 8.62D-03  0.00D+00 EMaxC= 1.00D-01 BMatC= 1.02D-01 BMatP= 2.31D-01
 IDIUse=3 WtCom= 9.14D-01 WtEn= 8.62D-02
 Coeff-Com:  0.749D+00-0.103D+01 0.741D+00 0.541D+00
 Coeff-En:   0.000D+00 0.000D+00 0.437D+00 0.563D+00
 Coeff:      0.684D+00-0.942D+00 0.715D+00 0.543D+00
 Gap=     0.285 Goal=   None    Shift=    0.000
 RMSDP=2.68D-04 MaxDP=2.09D-02 DE=-1.70D-02 OVMax= 7.13D-02

 Cycle   5  Pass 0  IDiag  1:
 RMSU=  8.42D-05    CP:  1.02D+00  1.09D+00  8.46D-01  7.71D-02
 E= -613.617665304519     Delta-E=       -0.070301805453 Rises=F Damp=F
 DIIS: error= 2.73D-03 at cycle   5 NSaved=   5.
 NSaved= 5 IEnMin= 5 EnMin= -613.617665304519     IErMin= 5 ErrMin= 2.73D-03
 ErrMax= 2.73D-03  0.00D+00 EMaxC= 1.00D-01 BMatC= 1.40D-02 BMatP= 1.02D-01
 IDIUse=3 WtCom= 9.73D-01 WtEn= 2.73D-02
 Coeff-Com:  0.130D+00-0.186D+00 0.131D+00 0.273D+00 0.652D+00
 Coeff-En:   0.000D+00 0.000D+00 0.000D+00 0.804D-01 0.920D+00
 Coeff:      0.126D+00-0.180D+00 0.127D+00 0.267D+00 0.660D+00
 Gap=     0.273 Goal=   None    Shift=    0.000
 RMSDP=1.54D-04 MaxDP=1.65D-02 DE=-7.03D-02 OVMax= 2.94D-02

 Cycle   6  Pass 0  IDiag  1:
 RMSU=  8.04D-05    CP:  1.03D+00  1.14D+00  9.43D-01  4.81D-01  3.44D-01
 E= -613.625506851174     Delta-E=       -0.007841546655 Rises=F Damp=F
 DIIS: error= 9.20D-04 at cycle   6 NSaved=   6.
 NSaved= 6 IEnMin= 6 EnMin= -613.625506851174     IErMin= 6 ErrMin= 9.20D-04
 ErrMax= 9.20D-04  0.00D+00 EMaxC= 1.00D-01 BMatC= 1.06D-03 BMatP= 1.40D-02
 IDIUse=3 WtCom= 9.91D-01 WtEn= 9.20D-03
 Coeff-Com:  0.580D-01-0.788D-01 0.185D-01 0.430D-01 0.200D+00 0.759D+00
 Coeff-En:   0.000D+00 0.000D+00 0.000D+00 0.000D+00 0.974D-02 0.990D+00
 Coeff:      0.575D-01-0.780D-01 0.183D-01 0.426D-01 0.198D+00 0.762D+00
 Gap=     0.273 Goal=   None    Shift=    0.000
 RMSDP=3.08D-05 MaxDP=2.96D-03 DE=-7.84D-03 OVMax= 9.30D-03

 Cycle   7  Pass 0  IDiag  1:
 RMSU=  2.13D-05    CP:  1.03D+00  1.11D+00  9.43D-01  4.76D-01  4.75D-01
                    CP:  1.10D+00
 E= -613.626087485891     Delta-E=       -0.000580634717 Rises=F Damp=F
 DIIS: error= 4.19D-04 at cycle   7 NSaved=   7.
 NSaved= 7 IEnMin= 7 EnMin= -613.626087485891     IErMin= 7 ErrMin= 4.19D-04
 ErrMax= 4.19D-04  0.00D+00 EMaxC= 1.00D-01 BMatC= 2.21D-04 BMatP= 1.06D-03
 IDIUse=3 WtCom= 9.96D-01 WtEn= 4.19D-03
 Coeff-Com:  0.391D-01-0.524D-01 0.123D-01 0.773D-02 0.590D-01 0.421D+00
 Coeff-Com:  0.514D+00
 Coeff-En:   0.000D+00 0.000D+00 0.000D+00 0.000D+00 0.000D+00 0.101D+00
 Coeff-En:   0.899D+00
 Coeff:      0.389D-01-0.522D-01 0.123D-01 0.769D-02 0.587D-01 0.419D+00
 Coeff:      0.515D+00
 Gap=     0.273 Goal=   None    Shift=    0.000
 RMSDP=1.10D-05 MaxDP=8.96D-04 DE=-5.81D-04 OVMax= 3.11D-03

 Cycle   8  Pass 0  IDiag  1:
 RMSU=  6.50D-06    CP:  1.03D+00  1.11D+00  9.49D-01  4.88D-01  4.61D-01
                    CP:  1.15D+00  6.89D-01
 E= -613.626238813436     Delta-E=       -0.000151327545 Rises=F Damp=F
 DIIS: error= 1.43D-04 at cycle   8 NSaved=   8.
 NSaved= 8 IEnMin= 8 EnMin= -613.626238813436     IErMin= 8 ErrMin= 1.43D-04
 ErrMax= 1.43D-04  0.00D+00 EMaxC= 1.00D-01 BMatC= 2.54D-05 BMatP= 2.21D-04
 IDIUse=3 WtCom= 9.99D-01 WtEn= 1.43D-03
 Coeff-Com:  0.212D-01-0.283D-01 0.826D-02-0.322D-02 0.306D-02 0.165D+00
 Coeff-Com:  0.297D+00 0.537D+00
 Coeff-En:   0.000D+00 0.000D+00 0.000D+00 0.000D+00 0.000D+00 0.000D+00
 Coeff-En:   0.000D+00 0.100D+01
 Coeff:      0.211D-01-0.283D-01 0.825D-02-0.321D-02 0.306D-02 0.165D+00
 Coeff:      0.297D+00 0.538D+00
 Gap=     0.273 Goal=   None    Shift=    0.000
 RMSDP=5.49D-06 MaxDP=5.32D-04 DE=-1.51D-04 OVMax= 1.22D-03

 Initial convergence to 1.0D-05 achieved.  Increase integral accuracy.
 Cycle   9  Pass 1  IDiag  1:
 E= -613.626274851805     Delta-E=       -0.000036038370 Rises=F Damp=F
 DIIS: error= 7.65D-05 at cycle   1 NSaved=   1.
 NSaved= 1 IEnMin= 1 EnMin= -613.626274851805     IErMin= 1 ErrMin= 7.65D-05
 ErrMax= 7.65D-05  0.00D+00 EMaxC= 1.00D-01 BMatC= 1.07D-05 BMatP= 1.07D-05
 IDIUse=1 WtCom= 1.00D+00 WtEn= 0.00D+00
 Coeff-Com:  0.100D+01
 Coeff:      0.100D+01
 Gap=     0.273 Goal=   None    Shift=    0.000
 RMSDP=5.49D-06 MaxDP=5.32D-04 DE=-3.60D-05 OVMax= 1.50D-03

 Cycle  10  Pass 1  IDiag  1:
 RMSU=  2.26D-05    CP:  1.00D+00
 E= -613.626270765773     Delta-E=        0.000004086033 Rises=F Damp=F
 DIIS: error= 1.06D-04 at cycle   2 NSaved=   2.
 NSaved= 2 IEnMin= 1 EnMin= -613.626274851805     IErMin= 1 ErrMin= 7.65D-05
 ErrMax= 1.06D-04  0.00D+00 EMaxC= 1.00D-01 BMatC= 1.38D-05 BMatP= 1.07D-05
 IDIUse=3 WtCom= 4.92D-01 WtEn= 5.08D-01
 Coeff-Com:  0.539D+00 0.461D+00
 Coeff-En:   0.640D+00 0.360D+00
 Coeff:      0.591D+00 0.409D+00
 Gap=     0.273 Goal=   None    Shift=    0.000
 RMSDP=3.51D-06 MaxDP=4.09D-04 DE= 4.09D-06 OVMax= 1.22D-03

 Cycle  11  Pass 1  IDiag  1:
 RMSU=  3.47D-06    CP:  1.00D+00  9.84D-01
 E= -613.626279858822     Delta-E=       -0.000009093049 Rises=F Damp=F
 DIIS: error= 3.05D-05 at cycle   3 NSaved=   3.
 NSaved= 3 IEnMin= 3 EnMin= -613.626279858822     IErMin= 3 ErrMin= 3.05D-05
 ErrMax= 3.05D-05  0.00D+00 EMaxC= 1.00D-01 BMatC= 1.07D-06 BMatP= 1.07D-05
 IDIUse=1 WtCom= 1.00D+00 WtEn= 0.00D+00
 Coeff-Com:  0.603D-01 0.218D+00 0.722D+00
 Coeff:      0.603D-01 0.218D+00 0.722D+00
 Gap=     0.273 Goal=   None    Shift=    0.000
 RMSDP=8.32D-07 MaxDP=8.78D-05 DE=-9.09D-06 OVMax= 2.64D-04

 Cycle  12  Pass 1  IDiag  1:
 RMSU=  4.65D-07    CP:  1.00D+00  1.00D+00  8.30D-01
 E= -613.626280525223     Delta-E=       -0.000000666401 Rises=F Damp=F
 DIIS: error= 1.16D-05 at cycle   4 NSaved=   4.
 NSaved= 4 IEnMin= 4 EnMin= -613.626280525223     IErMin= 4 ErrMin= 1.16D-05
 ErrMax= 1.16D-05  0.00D+00 EMaxC= 1.00D-01 BMatC= 8.64D-08 BMatP= 1.07D-06
 IDIUse=1 WtCom= 1.00D+00 WtEn= 0.00D+00
 Coeff-Com:  0.622D-02 0.851D-01 0.346D+00 0.562D+00
 Coeff:      0.622D-02 0.851D-01 0.346D+00 0.562D+00
 Gap=     0.273 Goal=   None    Shift=    0.000
 RMSDP=2.28D-07 MaxDP=2.12D-05 DE=-6.66D-07 OVMax= 5.97D-05

 Cycle  13  Pass 1  IDiag  1:
 RMSU=  1.95D-07    CP:  1.00D+00  1.00D+00  8.37D-01  7.62D-01
 E= -613.626280583121     Delta-E=       -0.000000057898 Rises=F Damp=F
 DIIS: error= 2.98D-06 at cycle   5 NSaved=   5.
 NSaved= 5 IEnMin= 5 EnMin= -613.626280583121     IErMin= 5 ErrMin= 2.98D-06
 ErrMax= 2.98D-06  0.00D+00 EMaxC= 1.00D-01 BMatC= 7.80D-09 BMatP= 8.64D-08
 IDIUse=1 WtCom= 1.00D+00 WtEn= 0.00D+00
 Coeff-Com: -0.233D-02 0.238D-01 0.110D+00 0.284D+00 0.584D+00
 Coeff:     -0.233D-02 0.238D-01 0.110D+00 0.284D+00 0.584D+00
 Gap=     0.273 Goal=   None    Shift=    0.000
 RMSDP=7.88D-08 MaxDP=6.63D-06 DE=-5.79D-08 OVMax= 1.94D-05

 Cycle  14  Pass 1  IDiag  1:
 RMSU=  4.19D-08    CP:  1.00D+00  1.00D+00  8.42D-01  8.86D-01  8.82D-01
 E= -613.626280588517     Delta-E=       -0.000000005396 Rises=F Damp=F
 DIIS: error= 6.81D-07 at cycle   6 NSaved=   6.
 NSaved= 6 IEnMin= 6 EnMin= -613.626280588517     IErMin= 6 ErrMin= 6.81D-07
 ErrMax= 6.81D-07  0.00D+00 EMaxC= 1.00D-01 BMatC= 3.97D-10 BMatP= 7.80D-09
 IDIUse=1 WtCom= 1.00D+00 WtEn= 0.00D+00
 Coeff-Com: -0.131D-02 0.752D-02 0.366D-01 0.111D+00 0.277D+00 0.569D+00
 Coeff:     -0.131D-02 0.752D-02 0.366D-01 0.111D+00 0.277D+00 0.569D+00
 Gap=     0.273 Goal=   None    Shift=    0.000
 RMSDP=2.21D-08 MaxDP=2.43D-06 DE=-5.40D-09 OVMax= 8.87D-06

 Cycle  15  Pass 1  IDiag  1:
 RMSU=  2.00D-08    CP:  1.00D+00  1.00D+00  8.42D-01  8.95D-01  8.98D-01
                    CP:  8.27D-01
 E= -613.626280588629     Delta-E=       -0.000000000113 Rises=F Damp=F
 DIIS: error= 4.04D-07 at cycle   7 NSaved=   7.
 NSaved= 7 IEnMin= 7 EnMin= -613.626280588629     IErMin= 7 ErrMin= 4.04D-07
 ErrMax= 4.04D-07  0.00D+00 EMaxC= 1.00D-01 BMatC= 1.46D-10 BMatP= 3.97D-10
 IDIUse=1 WtCom= 1.00D+00 WtEn= 0.00D+00
 Coeff-Com: -0.326D-03-0.829D-03-0.270D-02 0.388D-02 0.387D-01 0.388D+00
 Coeff-Com:  0.574D+00
 Coeff:     -0.326D-03-0.829D-03-0.270D-02 0.388D-02 0.387D-01 0.388D+00
 Coeff:      0.574D+00
 Gap=     0.273 Goal=   None    Shift=    0.000
 RMSDP=1.55D-08 MaxDP=1.80D-06 DE=-1.13D-10 OVMax= 2.96D-06

 Cycle  16  Pass 1  IDiag  1:
 RMSU=  5.63D-09    CP:  1.00D+00  1.00D+00  8.43D-01  9.11D-01  9.26D-01
                    CP:  1.04D+00  7.75D-01
 E= -613.626280588709     Delta-E=       -0.000000000079 Rises=F Damp=F
 DIIS: error= 8.94D-08 at cycle   8 NSaved=   8.
 NSaved= 8 IEnMin= 8 EnMin= -613.626280588709     IErMin= 8 ErrMin= 8.94D-08
 ErrMax= 8.94D-08  0.00D+00 EMaxC= 1.00D-01 BMatC= 8.78D-12 BMatP= 1.46D-10
 IDIUse=1 WtCom= 1.00D+00 WtEn= 0.00D+00
 Coeff-Com: -0.298D-04-0.125D-02-0.528D-02-0.979D-02-0.101D-01 0.143D+00
 Coeff-Com:  0.288D+00 0.596D+00
 Coeff:     -0.298D-04-0.125D-02-0.528D-02-0.979D-02-0.101D-01 0.143D+00
 Coeff:      0.288D+00 0.596D+00
 Gap=     0.273 Goal=   None    Shift=    0.000
 RMSDP=3.15D-09 MaxDP=3.61D-07 DE=-7.94D-11 OVMax= 4.47D-07

 SCF Done:  E(RM06) =  -613.626280589     A.U. after   16 cycles
            NFock= 16  Conv=0.31D-08     -V/T= 2.0046
 KE= 6.108062665802D+02 PE=-3.184728947087D+03 EE= 1.083660242657D+03
 Leave Link  502 at Wed Jun 18 15:38:44 2014, MaxMem=  4294967296 cpu:     27002.9
 (Enter /home/ztw1e12/g09/l801.exe)
 DoSCS=F DFT=T ScalE2(SS,OS)=  1.000000  1.000000
 Range of M.O.s used for correlation:     1   932
 NBasis=  1036 NAE=    51 NBE=    51 NFC=     0 NFV=     0
 NROrb=    932 NOA=    51 NOB=    51 NVA=   881 NVB=   881

 **** Warning!!: The largest alpha MO coefficient is  0.11170489D+02

 Leave Link  801 at Wed Jun 18 15:38:44 2014, MaxMem=  4294967296 cpu:         0.4
 (Enter /home/ztw1e12/g09/l1002.exe)
 Minotr:  Closed shell wavefunction.
          IDoAtm=1111111111111111111111111111111
          Direct CPHF calculation.
          Differentiating once with respect to Fermi-contact.
          Electric field/nuclear overlap derivatives assumed to be zero.
          Requested convergence is 1.0D-10 RMS, and 1.0D-09 maximum.
          Secondary convergence is 1.0D-12 RMS, and 1.0D-12 maximum.
          NewPWx=T KeepS1=F KeepF1=F KeepIn=T MapXYZ=F SortEE=F KeepMc=T.
          MDV=    4294966050 using IRadAn=  199590.
 Using stored XC quadrature information.
          Solving linear equations simultaneously, MaxMat=       0.
          There are    31 degrees of freedom in the 1st order CPHF.  IDoFFX=0 NUNeed=    31.
     31 vectors produced by pass  0 Test12= 1.45D-17 3.23D-11 XBig12= 4.16D+01 2.57D+00.
 AX will form    31 AO Fock derivatives at one time.
 FoFJK:  IHMeth= 1 ICntrl=       0 DoSepK=F KAlg= 0 I1Cent=   0 FoldK=F
 IRaf= 500000000 NMat=  31 IRICut=       1 DoRegI=T DoRafI=F ISym2E=-1.
 FoFCou: FMM=F IPFlag=           0 FMFlag=      100000 FMFlg1=           0
         NFxFlg=           0 DoJE=F BraDBF=F KetDBF=F FulRan=T
         wScrn=  0.000000 ICntrl=       0 IOpCl=  0 I1Cent=           0 NGrid=           0
         NMat0=   31 NMatS0=      0 NMatT0=   31 NMatD0=   31 NMtDS0=    0 NMtDT0=    0
 Petite list used in FoFCou.
     31 vectors produced by pass  1 Test12= 1.45D-17 3.23D-11 XBig12= 3.47D-01 1.77D-01.
     31 vectors produced by pass  2 Test12= 1.45D-17 3.23D-11 XBig12= 1.73D-02 4.90D-02.
     31 vectors produced by pass  3 Test12= 1.45D-17 3.23D-11 XBig12= 3.94D-04 6.49D-03.
     31 vectors produced by pass  4 Test12= 1.45D-17 3.23D-11 XBig12= 6.39D-06 9.45D-04.
     31 vectors produced by pass  5 Test12= 1.45D-17 3.23D-11 XBig12= 1.43D-07 1.88D-04.
     31 vectors produced by pass  6 Test12= 1.45D-17 3.23D-11 XBig12= 3.41D-09 2.22D-05.
     31 vectors produced by pass  7 Test12= 1.45D-17 3.23D-11 XBig12= 1.13D-10 4.21D-06.
     31 vectors produced by pass  8 Test12= 1.45D-17 3.23D-11 XBig12= 2.42D-12 3.62D-07.
     31 vectors produced by pass  9 Test12= 1.45D-17 3.23D-11 XBig12= 5.99D-14 8.02D-08.
     31 vectors produced by pass 10 Test12= 1.45D-17 3.23D-11 XBig12= 2.44D-15 8.09D-09.
     30 vectors produced by pass 11 Test12= 1.45D-17 3.23D-11 XBig12= 2.39D-17 6.72D-10.
      4 vectors produced by pass 12 Test12= 1.45D-17 3.23D-11 XBig12= 1.87D-19 4.92D-11.
 InvSVY:  IOpt=1 It=  1 EMax= 5.33D-15
 Solved reduced A of dimension   375 with    31 vectors.
 Max diff in FC couplings:  IJMax=    11     1 Diff= 6.30D-04 IJMaxR=    17    14 DiffR= 1.40D+00
 Fermi Contact (FC) contribution to K (Hz):
                1             2             3             4             5 
      1  0.123400D+11
      2  0.272979D+02  0.123400D+11
      3 -0.907044D+00  0.191319D+02  0.123400D+11
      4  0.742720D-01  0.270654D+00 -0.364435D-01  0.123400D+11
      5  0.479245D-02 -0.930212D-02  0.329805D-02  0.175303D+02  0.123400D+11
      6  0.648360D-02  0.672584D-02  0.121172D-02  0.174151D+02 -0.783486D+00
      7  0.566679D-02 -0.830725D-02  0.141451D-02  0.169823D+02 -0.745927D+00
      8 -0.982491D+01  0.249082D+01  0.410914D+00  0.440726D+00  0.178702D-01
      9  0.941475D-01  0.194901D+02 -0.515661D+00 -0.144176D-01 -0.103973D-02
     10  0.928326D-01  0.222793D+00  0.140404D+00 -0.312259D-02  0.928996D-03
     11  0.288842D+02  0.137554D+02  0.195630D+00  0.876677D-01  0.141472D-01
     12  0.440254D+00  0.137437D+00 -0.233109D-01 -0.927071D-02 -0.513049D-03
     13 -0.380237D+00  0.113472D+01  0.239056D-01  0.605005D-01 -0.999293D-03
     14  0.204141D+00 -0.933065D-01  0.117002D-01  0.188193D-01  0.558404D-03
     15  0.182410D+00 -0.725040D-01  0.478318D-02  0.418964D-02  0.489995D-03
     16  0.967808D+00 -0.276605D-01 -0.798734D-03  0.272102D-02 -0.101589D-04
     17  0.184263D+00 -0.357711D+00  0.207036D+00 -0.136458D-01  0.107363D-02
     18 -0.159665D+00  0.897507D+00 -0.759383D-01 -0.524489D-03  0.191676D-04
     19 -0.164274D-02  0.103935D+00 -0.141945D-02  0.675205D-05  0.343061D-05
     20  0.505280D-01  0.327646D-01  0.177192D-01  0.100298D-02  0.000000D+00
     21  0.709766D-01  0.242365D-01  0.266571D-01 -0.578666D-03 -0.288071D-04
     22  0.493576D+00  0.749180D+00  0.228173D+00  0.306026D-01  0.143465D-03
     23  0.579260D+00 -0.536527D+00  0.955692D+00  0.173309D+02 -0.554822D+00
     24  0.117592D-01  0.758897D+00 -0.125967D-01 -0.774423D+00  0.127632D+00
     25 -0.217781D-01  0.100472D+01  0.363354D-03  0.515278D-01  0.267613D+00
     26  0.741092D-02 -0.147230D-01 -0.459017D-03  0.408043D+00 -0.496894D-02
     27  0.144407D-02 -0.105171D-01  0.201825D-02  0.132475D+01  0.395662D-02
     28 -0.607084D-02  0.573313D-01  0.368975D-02  0.300209D+00 -0.654254D-02
     29 -0.547163D+00  0.160330D+02 -0.747950D+00  0.119755D+00  0.139525D+01
     30  0.109759D+01 -0.974494D+00  0.151157D+00  0.473152D+00  0.325648D-01
     31  0.170829D+00 -0.382668D+00  0.134772D+00  0.106602D+01  0.290041D-01
                6             7             8             9            10 
      6  0.123400D+11
      7 -0.751953D+00  0.123400D+11
      8  0.995728D-01  0.255335D-01  0.123400D+11
      9  0.345774D-02  0.777934D-01  0.317237D+00  0.123400D+11
     10  0.113959D-05 -0.523791D-03  0.383082D-02  0.315123D+02  0.123400D+11
     11  0.361391D-01 -0.292924D-02  0.648117D+01  0.110546D+01  0.197777D+00
     12 -0.170121D-03  0.155332D-03  0.480217D+00  0.501431D-01  0.227337D-03
     13  0.237834D-01 -0.198176D-02  0.629598D+00  0.305770D+00  0.191734D-01
     14  0.742065D-02 -0.200355D-03  0.242568D+00 -0.471775D-02 -0.154048D-02
     15  0.163536D-02 -0.674664D-04  0.243191D+00 -0.689763D-03 -0.115620D-02
     16  0.807133D-03 -0.509497D-04  0.176434D+00  0.204043D-01 -0.971103D-03
     17 -0.350658D-03  0.849788D-02  0.337930D-01  0.265583D+02  0.405908D+00
     18  0.239043D-04  0.558504D-03  0.803131D-01  0.126733D+02  0.898032D-01
     19 -0.141058D-05  0.383611D-04 -0.885202D-03  0.341772D+00 -0.996909D-02
     20 -0.215383D-04 -0.331285D-04  0.405385D-02  0.421802D+00 -0.476208D-02
     21  0.363401D-04  0.135882D-03  0.387784D-02  0.315085D+00 -0.172786D-01
     22  0.620891D-03  0.496229D-03  0.596102D+00  0.590903D+01  0.444134D+00
     23 -0.629276D+00 -0.757851D+00  0.906940D+00  0.101340D+01 -0.184753D-01
     24  0.133250D+00  0.366300D+00  0.723861D-01  0.778196D-01 -0.180714D-01
     25  0.144496D+01  0.499503D+00  0.144650D+00 -0.666550D-01  0.191682D-01
     26 -0.945067D-02 -0.129579D-01  0.545077D-01  0.239314D-02  0.102936D-02
     27  0.825466D-01 -0.775502D-02  0.575125D-02  0.189081D-01  0.288827D-04
     28  0.445909D-02 -0.389821D-02 -0.136845D-03  0.789012D-03  0.165714D-02
     29  0.296890D+00  0.429108D+00  0.239630D+00  0.702853D+00  0.507714D+00
     30  0.745044D-03 -0.779685D-02  0.789666D-01  0.650785D+00 -0.178992D-01
     31 -0.100051D-01 -0.158410D-01 -0.114266D-01  0.185165D+01 -0.187577D-01
               11            12            13            14            15 
     11  0.123400D+11
     12  0.312160D+02  0.123400D+11
     13  0.169560D+02  0.316049D+00  0.123400D+11
     14 -0.602303D+00  0.627418D-01  0.195818D+02  0.123400D+11
     15 -0.506009D+00  0.159466D+00  0.203077D+02 -0.733821D+00  0.123400D+11
     16 -0.384254D+00  0.288743D+00  0.182683D+02 -0.731063D+00 -0.764969D+00
     17 -0.533680D-01  0.485507D-03 -0.453565D-02 -0.246606D-05 -0.356983D-03
     18  0.125829D-01  0.764551D-03  0.855853D-02  0.219559D-02  0.164516D-02
     19  0.717004D-02  0.871867D-04  0.228753D-03 -0.902364D-04 -0.579607D-04
     20 -0.309242D-02 -0.172944D-03 -0.383802D-03  0.139523D-04 -0.505262D-04
     21  0.109617D-01 -0.949738D-04  0.169168D-02  0.152716D-03 -0.479016D-04
     22  0.186370D+00 -0.207043D-02  0.229410D-02  0.903575D-02  0.535253D-02
     23 -0.344436D-01  0.606346D-02 -0.858393D-02 -0.279453D-02 -0.217593D-02
     24  0.232024D-01 -0.101445D-02 -0.887316D-03  0.839103D-03  0.345780D-03
     25  0.153369D-01 -0.170954D-02  0.345358D-02  0.242660D-02  0.129810D-02
     26  0.347776D-03  0.792877D-04  0.489563D-03 -0.739957D-04 -0.284638D-04
     27  0.354553D-02 -0.902488D-04  0.626865D-03  0.750479D-03  0.339508D-03
     28  0.937339D-03 -0.192887D-03 -0.660601D-03  0.395127D-03  0.448087D-03
     29  0.163695D+00 -0.387343D-01 -0.123179D+00  0.816735D-01  0.947956D-01
     30 -0.212012D-01 -0.536759D-02 -0.195941D-02  0.366385D-02  0.437162D-02
     31  0.242110D-01 -0.513185D-02 -0.120657D-02  0.436840D-03  0.318057D-03
               16            17            18            19            20 
     16  0.123400D+11
     17 -0.128685D-03  0.123400D+11
     18  0.164866D-03  0.271874D+02  0.123400D+11
     19  0.114451D-04 -0.761201D+00  0.170361D+02  0.123400D+11
     20  0.997400D-04 -0.117116D+01  0.180350D+02 -0.712541D+00  0.123400D+11
     21  0.344806D-03 -0.121498D+01  0.178891D+02 -0.754228D+00 -0.922785D+00
     22  0.212882D-02 -0.952688D+01  0.373531D+01  0.829551D+00  0.426608D+00
     23  0.575396D-03 -0.438684D-01  0.242523D-01 -0.162806D-02 -0.136285D-02
     24  0.429179D-04  0.358583D-02 -0.195486D-02  0.240536D-03  0.834506D-03
     25  0.491911D-03  0.270282D-01 -0.439118D-02 -0.133423D-03 -0.227575D-04
     26  0.485460D-04  0.960323D-03 -0.616015D-04  0.153448D-04  0.824762D-04
     27  0.211625D-04  0.171827D-02  0.274033D-04  0.727895D-04  0.564296D-05
     28  0.455779D-05  0.174019D-02  0.106633D-04 -0.182791D-04  0.000000D+00
     29  0.127826D-02  0.150381D+01 -0.406338D-01 -0.186888D-02  0.690580D-02
     30  0.177614D-03 -0.953627D-02  0.139120D-01 -0.189670D-03 -0.353497D-03
     31  0.345321D-03  0.135390D+00  0.595198D-01 -0.172105D-03  0.164013D-02
               21            22            23            24            25 
     21  0.123400D+11
     22  0.451227D+00  0.123400D+11
     23 -0.104818D-02  0.103999D+00  0.123400D+11
     24 -0.979928D-04  0.164189D-01  0.176308D+02  0.123400D+11
     25 -0.130638D-03  0.874004D-02  0.169297D+02 -0.729785D+00  0.123400D+11
     26  0.539126D-04 -0.826867D-04 -0.812977D+00  0.422135D+00  0.171776D+02
     27 -0.638590D-05  0.392786D-03 -0.553113D+00  0.168149D+00  0.170607D+02
     28  0.271285D-05  0.178843D-02 -0.526988D+00  0.118789D+00  0.175639D+02
     29 -0.270154D-02  0.142695D+00  0.170980D+02 -0.718532D+00  0.236987D+00
     30 -0.555842D-03  0.128617D-02 -0.552369D+00  0.279065D-01  0.109037D+01
     31 -0.199152D-02 -0.997304D-02 -0.633683D+00  0.163847D+00  0.684075D-01
               26            27            28            29            30 
     26  0.123400D+11
     27 -0.752147D+00  0.123400D+11
     28 -0.755894D+00 -0.752132D+00  0.123400D+11
     29  0.446372D+00  0.319841D+00  0.145593D+01  0.123400D+11
     30 -0.999373D-02 -0.126966D-01  0.330744D-01  0.173327D+02  0.123400D+11
     31 -0.368947D-02 -0.782043D-03 -0.776661D-02  0.174951D+02 -0.892511D+00
               31 
     31  0.123400D+11
 Fermi Contact (FC) contribution to J (Hz):
                1             2             3             4             5 
      1  0.243533D+11
      2  0.538732D+02  0.243533D+11
      3 -0.711748D+01  0.150126D+03  0.385007D+12
      4  0.146578D+00  0.534143D+00 -0.285969D+00  0.243533D+11
      5  0.376059D-01 -0.729928D-01  0.102899D+00  0.137559D+03  0.385007D+12
      6  0.508762D-01  0.527770D-01  0.378056D-01  0.136655D+03 -0.244447D+02
      7  0.444668D-01 -0.651862D-01  0.441325D-01  0.133259D+03 -0.232729D+02
      8  0.104555D+02 -0.265069D+01 -0.173869D+01 -0.469013D+00 -0.756138D-01
      9  0.534016D-01  0.110550D+02 -0.116296D+01 -0.817785D-02 -0.234489D-02
     10  0.728448D+00  0.174823D+01  0.438059D+01 -0.245027D-01  0.289846D-01
     11  0.163835D+02  0.780221D+01  0.441201D+00  0.497262D-01  0.319061D-01
     12  0.345463D+01  0.107846D+01 -0.727298D+00 -0.727463D-01 -0.160071D-01
     13 -0.750407D+00  0.223940D+01  0.187585D+00  0.119399D+00 -0.784135D-02
     14  0.160187D+01 -0.732167D+00  0.365047D+00  0.147673D+00  0.174222D-01
     15  0.143136D+01 -0.568932D+00  0.149235D+00  0.328757D-01  0.152878D-01
     16  0.759429D+01 -0.217049D+00 -0.249205D-01  0.213516D-01 -0.316957D-03
     17  0.363647D+00 -0.705952D+00  0.162459D+01 -0.269303D-01  0.842467D-02
     18 -0.315102D+00  0.177125D+01 -0.595880D+00 -0.103509D-02  0.150406D-03
     19 -0.128904D-01  0.815570D+00 -0.442869D-01  0.529827D-04  0.107035D-03
     20  0.396488D+00  0.257101D+00  0.552838D+00  0.787028D-02 -0.189032D-04
     21  0.556947D+00  0.190181D+00  0.831699D+00 -0.454073D-02 -0.898779D-03
     22 -0.525254D+00 -0.797263D+00 -0.965462D+00 -0.325667D-01 -0.607041D-03
     23  0.114318D+01 -0.105885D+01  0.749923D+01  0.342030D+02 -0.435363D+01
     24  0.922736D-01  0.595499D+01 -0.393015D+00 -0.607682D+01  0.398210D+01
     25 -0.429796D-01  0.198284D+01  0.285120D-02  0.101691D+00  0.209993D+01
     26  0.581528D-01 -0.115530D+00 -0.143213D-01  0.320188D+01 -0.155031D+00
     27  0.113315D-01 -0.825263D-01  0.629693D-01  0.103952D+02  0.123446D+00
     28 -0.476373D-01  0.449873D+00  0.115120D+00  0.235571D+01 -0.204127D+00
     29 -0.107984D+01  0.316415D+02 -0.586909D+01  0.236340D+00  0.109484D+02
     30  0.861267D+01 -0.764676D+01  0.471610D+01  0.371278D+01  0.101602D+01
     31  0.134048D+01 -0.300276D+01  0.420488D+01  0.836499D+01  0.904927D+00
                6             7             8             9            10 
      6  0.385007D+12
      7 -0.234609D+02  0.385007D+12
      8 -0.421320D+00 -0.108039D+00  0.708114D+10
      9  0.779819D-02  0.175446D+00 -0.970290D-01  0.201170D+10
     10  0.355551D-04 -0.163423D-01 -0.162093D-01  0.710693D+02  0.385007D+12
     11  0.815039D-01 -0.660626D-02 -0.198231D+01  0.180215D+00  0.446042D+00
     12 -0.530777D-02  0.484636D-02 -0.203193D+01  0.113087D+00  0.709290D-02
     13  0.186626D+00 -0.155507D-01 -0.670006D+00  0.173436D+00  0.150452D+00
     14  0.231524D+00 -0.625107D-02 -0.102637D+01 -0.106399D-01 -0.480629D-01
     15  0.510233D-01 -0.210495D-02 -0.102901D+01 -0.155561D-02 -0.360733D-01
     16  0.251825D-01 -0.158963D-02 -0.746540D+00  0.460176D-01 -0.302984D-01
     17 -0.275158D-02  0.666820D-01 -0.359619D-01  0.150642D+02  0.318512D+01
     18  0.187575D-03  0.438252D-02 -0.854676D-01  0.718848D+01  0.704677D+00
     19 -0.440102D-04  0.119686D-02  0.374553D-02  0.770793D+00 -0.311035D+00
     20 -0.671995D-03 -0.103361D-02 -0.171529D-01  0.951284D+00 -0.148577D+00
     21  0.113381D-02  0.423950D-02 -0.164082D-01  0.710607D+00 -0.539092D+00
     22 -0.262716D-02 -0.209968D-02  0.342065D+00 -0.180732D+01 -0.187925D+01
     23 -0.493787D+01 -0.594678D+01 -0.965148D+00  0.574813D+00 -0.144974D+00
     24  0.415738D+01  0.114285D+02 -0.306285D+00  0.175505D+00 -0.563828D+00
     25  0.113385D+02  0.391955D+01 -0.153934D+00 -0.378075D-01  0.150411D+00
     26 -0.294861D+00 -0.404285D+00 -0.230637D+00  0.539721D-02  0.321160D-01
     27  0.257545D+01 -0.241956D+00 -0.243351D-01  0.426431D-01  0.901140D-03
     28  0.139123D+00 -0.121624D+00  0.579030D-03  0.177945D-02  0.517026D-01
     29  0.232967D+01  0.336717D+01 -0.255010D+00  0.398667D+00  0.398399D+01
     30  0.232454D-01 -0.243261D+00 -0.334129D+00  0.146770D+01 -0.558455D+00
     31 -0.312160D+00 -0.494240D+00  0.483491D-01  0.417601D+01 -0.585239D+00
               11            12            13            14            15 
     11  0.201170D+10
     12  0.704010D+02  0.385007D+12
     13  0.961766D+01  0.248000D+01  0.243533D+11
     14 -0.135836D+01  0.195754D+01  0.153656D+03  0.385007D+12
     15 -0.114119D+01  0.497535D+01  0.159352D+03 -0.228952D+02  0.385007D+12
     16 -0.866603D+00  0.900878D+01  0.143350D+03 -0.228091D+02 -0.238670D+02
     17 -0.302710D-01  0.380973D-02 -0.895121D-02 -0.193510D-04 -0.280121D-02
     18  0.713716D-02  0.599936D-02  0.168905D-01  0.172286D-01  0.129094D-01
     19  0.161705D-01  0.272022D-02  0.179500D-02 -0.281537D-02 -0.180837D-02
     20 -0.697428D-02 -0.539585D-02 -0.301166D-02  0.435312D-03 -0.157642D-02
     21  0.247218D-01 -0.296318D-02  0.132744D-01  0.476473D-02 -0.149453D-02
     22 -0.570027D-01  0.876055D-02 -0.244134D-02 -0.382327D-01 -0.226480D-01
     23 -0.195369D-01  0.475793D-01 -0.169406D-01 -0.219284D-01 -0.170743D-01
     24  0.523281D-01 -0.316507D-01 -0.696268D-02  0.261800D-01  0.107883D-01
     25  0.869926D-02 -0.134146D-01  0.681572D-02  0.190413D-01  0.101860D-01
     26  0.784334D-03  0.247377D-02  0.384155D-02 -0.230866D-02 -0.888069D-03
     27  0.799618D-02 -0.281576D-02  0.491895D-02  0.234149D-01  0.105926D-01
     28  0.211397D-02 -0.601806D-02 -0.518367D-02  0.123280D-01  0.139803D-01
     29  0.928499D-01 -0.303944D+00 -0.243096D+00  0.640884D+00  0.743852D+00
     30 -0.478147D-01 -0.167469D+00 -0.153753D-01  0.114312D+00  0.136394D+00
     31  0.546028D-01 -0.160113D+00 -0.946785D-02  0.136294D-01  0.992336D-02
               16            17            18            19            20 
     16  0.385007D+12
     17 -0.100978D-02  0.243533D+11
     18  0.129369D-02  0.536549D+02  0.243533D+11
     19  0.357088D-03 -0.597307D+01  0.133680D+03  0.385007D+12
     20  0.311188D-02 -0.918995D+01  0.141519D+03 -0.222312D+02  0.385007D+12
     21  0.107579D-01 -0.953383D+01  0.140374D+03 -0.235319D+02 -0.287908D+02
     22 -0.900762D-02  0.101383D+02 -0.397505D+01 -0.351006D+01 -0.180509D+01
     23  0.451508D-02 -0.865754D-01  0.478624D-01 -0.127752D-01 -0.106941D-01
     24  0.133904D-02  0.281377D-01 -0.153396D-01  0.750472D-02  0.260365D-01
     25  0.385998D-02  0.533409D-01 -0.866610D-02 -0.104696D-02 -0.178576D-03
     26  0.151463D-02  0.753556D-02 -0.483381D-03  0.478756D-03  0.257325D-02
     27  0.660268D-03  0.134831D-01  0.215031D-03  0.227103D-02  0.176060D-03
     28  0.142203D-03  0.136551D-01  0.836736D-04 -0.570308D-03  0.186105D-04
     29  0.100304D-01  0.296781D+01 -0.801918D-01 -0.146649D-01  0.541892D-01
     30  0.554155D-02 -0.748302D-01  0.109166D+00 -0.591770D-02 -0.110291D-01
     31  0.107740D-01  0.106239D+01  0.467046D+00 -0.536968D-02  0.511720D-01
               21            22            23            24            25 
     21  0.385007D+12
     22 -0.190927D+01  0.708114D+10
     23 -0.822499D-02 -0.110674D+00  0.243533D+11
     24 -0.305737D-02 -0.694730D-01  0.138347D+03  0.385007D+12
     25 -0.102510D-02 -0.930099D-02  0.334111D+02 -0.572655D+01  0.243533D+11
     26  0.168207D-02  0.349870D-03 -0.637935D+01  0.131706D+02  0.134791D+03
     27 -0.199240D-03 -0.166198D-02 -0.434022D+01  0.524623D+01  0.133874D+03
     28  0.846409D-04 -0.756736D-02 -0.413522D+01  0.370621D+01  0.137822D+03
     29 -0.211988D-01 -0.151853D+00  0.337433D+02 -0.563825D+01  0.467699D+00
     30 -0.173423D-01 -0.544212D-02 -0.433438D+01  0.870681D+00  0.855604D+01
     31 -0.621352D-01  0.421987D-01 -0.497245D+01  0.511201D+01  0.536787D+00
               26            27            28            29            30 
     26  0.385007D+12
     27 -0.234669D+02  0.385007D+12
     28 -0.235839D+02 -0.234665D+02  0.385007D+12
     29  0.350264D+01  0.250977D+01  0.114246D+02  0.243533D+11
     30 -0.311804D+00 -0.396135D+00  0.103192D+01  0.136008D+03  0.385007D+12
     31 -0.115111D+00 -0.243997D-01 -0.242318D+00  0.137283D+03 -0.278463D+02
               31 
     31  0.385007D+12
 End of Minotr F.D. properties file   721 does not exist.
 End of Minotr F.D. properties file   722 does not exist.
 End of Minotr F.D. properties file   788 does not exist.
 Leave Link 1002 at Wed Jun 18 22:10:46 2014, MaxMem=  4294967296 cpu:    375430.3
 (Enter /home/ztw1e12/g09/l601.exe)
 Copying SCF densities to generalized density rwf, IOpCl= 0 IROHF=0.

 **********************************************************************

            Population analysis using the SCF density.

 **********************************************************************

 Orbital symmetries:
       Occupied  (A) (A) (A) (A) (A) (A) (A) (A) (A) (A) (A) (A)
                 (A) (A) (A) (A) (A) (A) (A) (A) (A) (A) (A) (A)
                 (A) (A) (A) (A) (A) (A) (A) (A) (A) (A) (A) (A)
                 (A) (A) (A) (A) (A) (A) (A) (A) (A) (A) (A) (A)
                 (A) (A) (A)
       Virtual   (A) (A) (A) (A) (A) (A) (A) (A) (A) (A) (A) (A)
                 (A) (A) (A) (A) (A) (A) (A) (A) (A) (A) (A) (A)
                 (A) (A) (A) (A) (A) (A) (A) (A) (A) (A) (A) (A)
                 (A) (A) (A) (A) (A) (A) (A) (A) (A) (A) (A) (A)
                 (A) (A) (A) (A) (A) (A) (A) (A) (A) (A) (A) (A)
                 (A) (A) (A) (A) (A) (A) (A) (A) (A) (A) (A) (A)
                 (A) (A) (A) (A) (A) (A) (A) (A) (A) (A) (A) (A)
                 (A) (A) (A) (A) (A) (A) (A) (A) (A) (A) (A) (A)
                 (A) (A) (A) (A) (A) (A) (A) (A) (A) (A) (A) (A)
                 (A) (A) (A) (A) (A) (A) (A) (A) (A) (A) (A) (A)
                 (A) (A) (A) (A) (A) (A) (A) (A) (A) (A) (A) (A)
                 (A) (A) (A) (A) (A) (A) (A) (A) (A) (A) (A) (A)
                 (A) (A) (A) (A) (A) (A) (A) (A) (A) (A) (A) (A)
                 (A) (A) (A) (A) (A) (A) (A) (A) (A) (A) (A) (A)
                 (A) (A) (A) (A) (A) (A) (A) (A) (A) (A) (A) (A)
                 (A) (A) (A) (A) (A) (A) (A) (A) (A) (A) (A) (A)
                 (A) (A) (A) (A) (A) (A) (A) (A) (A) (A) (A) (A)
                 (A) (A) (A) (A) (A) (A) (A) (A) (A) (A) (A) (A)
                 (A) (A) (A) (A) (A) (A) (A) (A) (A) (A) (A) (A)
                 (A) (A) (A) (A) (A) (A) (A) (A) (A) (A) (A) (A)
                 (A) (A) (A) (A) (A) (A) (A) (A) (A) (A) (A) (A)
                 (A) (A) (A) (A) (A) (A) (A) (A) (A) (A) (A) (A)
                 (A) (A) (A) (A) (A) (A) (A) (A) (A) (A) (A) (A)
                 (A) (A) (A) (A) (A) (A) (A) (A) (A) (A) (A) (A)
                 (A) (A) (A) (A) (A) (A) (A) (A) (A) (A) (A) (A)
                 (A) (A) (A) (A) (A) (A) (A) (A) (A) (A) (A) (A)
                 (A) (A) (A) (A) (A) (A) (A) (A) (A) (A) (A) (A)
                 (A) (A) (A) (A) (A) (A) (A) (A) (A) (A) (A) (A)
                 (A) (A) (A) (A) (A) (A) (A) (A) (A) (A) (A) (A)
                 (A) (A) (A) (A) (A) (A) (A) (A) (A) (A) (A) (A)
                 (A) (A) (A) (A) (A) (A) (A) (A) (A) (A) (A) (A)
                 (A) (A) (A) (A) (A) (A) (A) (A) (A) (A) (A) (A)
                 (A) (A) (A) (A) (A) (A) (A) (A) (A) (A) (A) (A)
                 (A) (A) (A) (A) (A) (A) (A) (A) (A) (A) (A) (A)
                 (A) (A) (A) (A) (A) (A) (A) (A) (A) (A) (A) (A)
                 (A) (A) (A) (A) (A) (A) (A) (A) (A) (A) (A) (A)
                 (A) (A) (A) (A) (A) (A) (A) (A) (A) (A) (A) (A)
                 (A) (A) (A) (A) (A) (A) (A) (A) (A) (A) (A) (A)
                 (A) (A) (A) (A) (A) (A) (A) (A) (A) (A) (A) (A)
                 (A) (A) (A) (A) (A) (A) (A) (A) (A) (A) (A) (A)
                 (A) (A) (A) (A) (A) (A) (A) (A) (A) (A) (A) (A)
                 (A) (A) (A) (A) (A) (A) (A) (A) (A) (A) (A) (A)
                 (A) (A) (A) (A) (A) (A) (A) (A) (A) (A) (A) (A)
                 (A) (A) (A) (A) (A) (A) (A) (A) (A) (A) (A) (A)
                 (A) (A) (A) (A) (A) (A) (A) (A) (A) (A) (A) (A)
                 (A) (A) (A) (A) (A) (A) (A) (A) (A) (A) (A) (A)
                 (A) (A) (A) (A) (A) (A) (A) (A) (A) (A) (A) (A)
                 (A) (A) (A) (A) (A) (A) (A) (A) (A) (A) (A) (A)
                 (A) (A) (A) (A) (A) (A) (A) (A) (A) (A) (A) (A)
                 (A) (A) (A) (A) (A) (A) (A) (A) (A) (A) (A) (A)
                 (A) (A) (A) (A) (A) (A) (A) (A) (A) (A) (A) (A)
                 (A) (A) (A) (A) (A) (A) (A) (A) (A) (A) (A) (A)
                 (A) (A) (A) (A) (A) (A) (A) (A) (A) (A) (A) (A)
                 (A) (A) (A) (A) (A) (A) (A) (A) (A) (A) (A) (A)
                 (A) (A) (A) (A) (A) (A) (A) (A) (A) (A) (A) (A)
                 (A) (A) (A) (A) (A) (A) (A) (A) (A) (A) (A) (A)
                 (A) (A) (A) (A) (A) (A) (A) (A) (A) (A) (A) (A)
                 (A) (A) (A) (A) (A) (A) (A) (A) (A) (A) (A) (A)
                 (A) (A) (A) (A) (A) (A) (A) (A) (A) (A) (A) (A)
                 (A) (A) (A) (A) (A) (A) (A) (A) (A) (A) (A) (A)
                 (A) (A) (A) (A) (A) (A) (A) (A) (A) (A) (A) (A)
                 (A) (A) (A) (A) (A) (A) (A) (A) (A) (A) (A) (A)
                 (A) (A) (A) (A) (A) (A) (A) (A) (A) (A) (A) (A)
                 (A) (A) (A) (A) (A) (A) (A) (A) (A) (A) (A) (A)
                 (A) (A) (A) (A) (A) (A) (A) (A) (A) (A) (A) (A)
                 (A) (A) (A) (A) (A) (A) (A) (A) (A) (A) (A) (A)
                 (A) (A) (A) (A) (A) (A) (A) (A) (A) (A) (A) (A)
                 (A) (A) (A) (A) (A) (A) (A) (A) (A) (A) (A) (A)
                 (A) (A) (A) (A) (A) (A) (A) (A) (A) (A) (A) (A)
                 (A) (A) (A) (A) (A) (A) (A) (A) (A) (A) (A) (A)
                 (A) (A) (A) (A) (A) (A) (A) (A) (A) (A) (A) (A)
                 (A) (A) (A) (A) (A) (A) (A) (A) (A) (A) (A) (A)
                 (A) (A) (A) (A) (A) (A) (A) (A) (A) (A) (A) (A)
                 (A) (A) (A) (A) (A)
 The electronic state is 1-A.
 Alpha  occ. eigenvalues --  -19.17122 -19.16473 -14.41796 -14.41532 -10.33375
 Alpha  occ. eigenvalues --  -10.33369 -10.29219 -10.27120 -10.25490 -10.24972
 Alpha  occ. eigenvalues --  -10.23800 -10.23562 -10.23064  -1.05370  -1.04074
 Alpha  occ. eigenvalues --   -0.94398  -0.94179  -0.83816  -0.78586  -0.74310
 Alpha  occ. eigenvalues --   -0.72004  -0.70232  -0.65890  -0.60711  -0.59764
 Alpha  occ. eigenvalues --   -0.58619  -0.54499  -0.50797  -0.49793  -0.47900
 Alpha  occ. eigenvalues --   -0.46924  -0.46650  -0.45451  -0.44957  -0.44365
 Alpha  occ. eigenvalues --   -0.42612  -0.41684  -0.40822  -0.40477  -0.40257
 Alpha  occ. eigenvalues --   -0.40029  -0.38260  -0.37652  -0.36544  -0.35053
 Alpha  occ. eigenvalues --   -0.34438  -0.33967  -0.28293  -0.27506  -0.26146
 Alpha  occ. eigenvalues --   -0.25977
 Alpha virt. eigenvalues --    0.01320   0.01999   0.02684   0.03733   0.04644
 Alpha virt. eigenvalues --    0.05197   0.06667   0.07111   0.07969   0.08460
 Alpha virt. eigenvalues --    0.09972   0.10352   0.10601   0.11074   0.12035
 Alpha virt. eigenvalues --    0.12278   0.12710   0.13203   0.14151   0.14925
 Alpha virt. eigenvalues --    0.15948   0.17575   0.18489   0.18854   0.19888
 Alpha virt. eigenvalues --    0.20131   0.22576   0.23206   0.23609   0.24718
 Alpha virt. eigenvalues --    0.25722   0.26339   0.27326   0.27502   0.27893
 Alpha virt. eigenvalues --    0.28738   0.30117   0.30673   0.30794   0.32018
 Alpha virt. eigenvalues --    0.32561   0.33609   0.34170   0.34972   0.35587
 Alpha virt. eigenvalues --    0.37278   0.37501   0.38391   0.38748   0.38908
 Alpha virt. eigenvalues --    0.39238   0.40103   0.40268   0.40802   0.40877
 Alpha virt. eigenvalues --    0.41676   0.42124   0.42316   0.42747   0.43321
 Alpha virt. eigenvalues --    0.43624   0.44456   0.44617   0.44944   0.45510
 Alpha virt. eigenvalues --    0.46069   0.46720   0.47215   0.48115   0.49308
 Alpha virt. eigenvalues --    0.49512   0.50110   0.51506   0.52205   0.52557
 Alpha virt. eigenvalues --    0.53105   0.53684   0.54096   0.55349   0.56299
 Alpha virt. eigenvalues --    0.56807   0.59168   0.59413   0.60743   0.61241
 Alpha virt. eigenvalues --    0.62566   0.63184   0.65617   0.65975   0.67380
 Alpha virt. eigenvalues --    0.69026   0.70393   0.71482   0.72311   0.73336
 Alpha virt. eigenvalues --    0.74235   0.75444   0.77198   0.78261   0.78993
 Alpha virt. eigenvalues --    0.80046   0.80257   0.82522   0.83156   0.84198
 Alpha virt. eigenvalues --    0.84285   0.85425   0.86101   0.86994   0.87800
 Alpha virt. eigenvalues --    0.88373   0.89052   0.89399   0.90882   0.91410
 Alpha virt. eigenvalues --    0.92309   0.93417   0.93968   0.94395   0.94783
 Alpha virt. eigenvalues --    0.95634   0.96487   0.96547   0.97459   0.97642
 Alpha virt. eigenvalues --    0.98080   0.98888   0.99350   1.00825   1.01190
 Alpha virt. eigenvalues --    1.02391   1.02930   1.03738   1.04219   1.05074
 Alpha virt. eigenvalues --    1.07392   1.09056   1.09431   1.10214   1.10981
 Alpha virt. eigenvalues --    1.11764   1.13307   1.13445   1.14524   1.15402
 Alpha virt. eigenvalues --    1.15760   1.16530   1.17180   1.17915   1.18566
 Alpha virt. eigenvalues --    1.19616   1.19671   1.20004   1.20776   1.21242
 Alpha virt. eigenvalues --    1.21616   1.22447   1.22909   1.23482   1.23783
 Alpha virt. eigenvalues --    1.24289   1.24391   1.24787   1.25979   1.26511
 Alpha virt. eigenvalues --    1.27199   1.27824   1.27944   1.28187   1.29836
 Alpha virt. eigenvalues --    1.30439   1.30735   1.31096   1.31961   1.32869
 Alpha virt. eigenvalues --    1.33272   1.34747   1.35100   1.36493   1.36908
 Alpha virt. eigenvalues --    1.37418   1.38908   1.39912   1.40479   1.40825
 Alpha virt. eigenvalues --    1.42705   1.44583   1.45570   1.46313   1.48021
 Alpha virt. eigenvalues --    1.50330   1.50536   1.51329   1.54325   1.54675
 Alpha virt. eigenvalues --    1.56634   1.57129   1.59118   1.62267   1.63084
 Alpha virt. eigenvalues --    1.64417   1.67243   1.69138   1.70166   1.72898
 Alpha virt. eigenvalues --    1.74550   1.75467   1.78096   1.79192   1.82863
 Alpha virt. eigenvalues --    1.84823   1.87702   1.89255   1.90833   1.92584
 Alpha virt. eigenvalues --    1.93267   1.94119   1.97972   1.98853   1.99573
 Alpha virt. eigenvalues --    2.01128   2.01783   2.04201   2.04784   2.05768
 Alpha virt. eigenvalues --    2.08050   2.08552   2.12441   2.14247   2.15865
 Alpha virt. eigenvalues --    2.18018   2.18971   2.19650   2.19944   2.21820
 Alpha virt. eigenvalues --    2.24269   2.25474   2.26818   2.27976   2.30341
 Alpha virt. eigenvalues --    2.31567   2.33502   2.36472   2.37286   2.39946
 Alpha virt. eigenvalues --    2.41208   2.41820   2.42589   2.43305   2.43935
 Alpha virt. eigenvalues --    2.45340   2.45830   2.46789   2.47765   2.50026
 Alpha virt. eigenvalues --    2.51089   2.52059   2.52662   2.54024   2.54564
 Alpha virt. eigenvalues --    2.55113   2.57722   2.58390   2.60390   2.61640
 Alpha virt. eigenvalues --    2.63714   2.65200   2.66332   2.68377   2.68742
 Alpha virt. eigenvalues --    2.70727   2.71152   2.71989   2.72423   2.73365
 Alpha virt. eigenvalues --    2.74111   2.75376   2.76240   2.76714   2.78893
 Alpha virt. eigenvalues --    2.79266   2.80389   2.81593   2.82186   2.83470
 Alpha virt. eigenvalues --    2.83747   2.84084   2.85200   2.86866   2.87828
 Alpha virt. eigenvalues --    2.88240   2.88487   2.89257   2.89780   2.90696
 Alpha virt. eigenvalues --    2.91848   2.92353   2.92927   2.94121   2.94495
 Alpha virt. eigenvalues --    2.95653   2.95984   2.96583   2.97708   2.98256
 Alpha virt. eigenvalues --    2.99043   2.99532   2.99995   3.02076   3.02344
 Alpha virt. eigenvalues --    3.02805   3.04393   3.04851   3.06102   3.07567
 Alpha virt. eigenvalues --    3.07693   3.08435   3.09349   3.10241   3.10891
 Alpha virt. eigenvalues --    3.11350   3.11754   3.13118   3.14091   3.15011
 Alpha virt. eigenvalues --    3.15879   3.17413   3.18499   3.18979   3.20344
 Alpha virt. eigenvalues --    3.21159   3.21614   3.23303   3.23716   3.24419
 Alpha virt. eigenvalues --    3.25800   3.26175   3.26542   3.27132   3.28526
 Alpha virt. eigenvalues --    3.29067   3.29661   3.30336   3.31083   3.31858
 Alpha virt. eigenvalues --    3.32348   3.32688   3.34240   3.34733   3.36138
 Alpha virt. eigenvalues --    3.36740   3.37828   3.38576   3.39352   3.39845
 Alpha virt. eigenvalues --    3.40580   3.41349   3.42149   3.42449   3.43011
 Alpha virt. eigenvalues --    3.43399   3.44434   3.45639   3.46920   3.48188
 Alpha virt. eigenvalues --    3.48720   3.50275   3.50447   3.51452   3.52519
 Alpha virt. eigenvalues --    3.54449   3.56820   3.57009   3.57889   3.58965
 Alpha virt. eigenvalues --    3.59929   3.62982   3.63840   3.64245   3.65207
 Alpha virt. eigenvalues --    3.66478   3.67501   3.69362   3.70016   3.71484
 Alpha virt. eigenvalues --    3.72220   3.73152   3.73730   3.74125   3.75251
 Alpha virt. eigenvalues --    3.76470   3.77744   3.78212   3.78677   3.80599
 Alpha virt. eigenvalues --    3.81097   3.82267   3.83003   3.83322   3.84018
 Alpha virt. eigenvalues --    3.85791   3.86047   3.86689   3.88605   3.89137
 Alpha virt. eigenvalues --    3.89584   3.92204   3.93153   3.93965   3.95150
 Alpha virt. eigenvalues --    3.95842   3.96517   3.98377   3.99288   4.00090
 Alpha virt. eigenvalues --    4.01514   4.02809   4.03562   4.03906   4.05922
 Alpha virt. eigenvalues --    4.06354   4.06848   4.07939   4.08879   4.09943
 Alpha virt. eigenvalues --    4.10418   4.11390   4.13269   4.13625   4.13979
 Alpha virt. eigenvalues --    4.14289   4.15528   4.16250   4.17163   4.18827
 Alpha virt. eigenvalues --    4.19943   4.21776   4.22270   4.23269   4.24017
 Alpha virt. eigenvalues --    4.25822   4.26120   4.27895   4.28763   4.29053
 Alpha virt. eigenvalues --    4.30704   4.30942   4.31526   4.33490   4.34554
 Alpha virt. eigenvalues --    4.35591   4.36795   4.39740   4.41472   4.42312
 Alpha virt. eigenvalues --    4.44580   4.45126   4.46701   4.48573   4.50101
 Alpha virt. eigenvalues --    4.50776   4.51969   4.53899   4.54687   4.54986
 Alpha virt. eigenvalues --    4.57537   4.59360   4.59931   4.60516   4.61122
 Alpha virt. eigenvalues --    4.62224   4.63662   4.64728   4.65542   4.65857
 Alpha virt. eigenvalues --    4.66995   4.68378   4.69543   4.71184   4.71610
 Alpha virt. eigenvalues --    4.72360   4.72795   4.74911   4.76872   4.77714
 Alpha virt. eigenvalues --    4.78222   4.79441   4.79970   4.81589   4.82704
 Alpha virt. eigenvalues --    4.84795   4.86049   4.89253   4.90205   4.91532
 Alpha virt. eigenvalues --    4.92474   4.93416   4.94698   4.95436   4.95593
 Alpha virt. eigenvalues --    4.96734   4.98701   5.00174   5.01414   5.01881
 Alpha virt. eigenvalues --    5.03056   5.04254   5.04812   5.06882   5.10733
 Alpha virt. eigenvalues --    5.11370   5.12789   5.13315   5.14119   5.15180
 Alpha virt. eigenvalues --    5.15822   5.17114   5.17686   5.19001   5.20317
 Alpha virt. eigenvalues --    5.21743   5.22273   5.23082   5.23724   5.24664
 Alpha virt. eigenvalues --    5.25614   5.26814   5.27550   5.29052   5.29459
 Alpha virt. eigenvalues --    5.30321   5.32566   5.35547   5.37173   5.39538
 Alpha virt. eigenvalues --    5.40156   5.43558   5.44479   5.46139   5.49896
 Alpha virt. eigenvalues --    5.52745   5.54276   5.55201   5.58330   5.59260
 Alpha virt. eigenvalues --    5.60260   5.62386   5.63233   5.64985   5.65637
 Alpha virt. eigenvalues --    5.66658   5.68806   5.69306   5.72019   5.72177
 Alpha virt. eigenvalues --    5.74649   5.76123   5.76371   5.76698   5.78480
 Alpha virt. eigenvalues --    5.80307   5.80791   5.81568   5.85700   5.87793
 Alpha virt. eigenvalues --    5.90739   5.94334   5.97870   6.00659   6.06066
 Alpha virt. eigenvalues --    6.11152   6.18623   6.21864   6.22549   6.26396
 Alpha virt. eigenvalues --    6.52868   6.54492   6.57919   6.62758   6.64456
 Alpha virt. eigenvalues --    6.67521   6.78111   6.81113   6.90271   6.91967
 Alpha virt. eigenvalues --    6.92315   6.93895   7.18062   7.20265   7.24240
 Alpha virt. eigenvalues --    7.26755   8.13056   8.31349   8.67365   8.73462
 Alpha virt. eigenvalues --    8.78327   8.78871   8.82641   8.82874   8.83483
 Alpha virt. eigenvalues --    8.85050   8.87022   8.88426   8.90651   8.92954
 Alpha virt. eigenvalues --    8.94061   8.96048   8.96766   8.97843   9.00841
 Alpha virt. eigenvalues --    9.03972   9.07099   9.11748   9.15772   9.19152
 Alpha virt. eigenvalues --    9.23342   9.59686   9.62235   9.77333   9.83239
 Alpha virt. eigenvalues --    9.88959   9.94974  10.11617  10.11996  10.15011
 Alpha virt. eigenvalues --   10.18175  10.19615  10.20958  10.21762  10.24078
 Alpha virt. eigenvalues --   10.25360  10.28435  10.28806  10.33187  10.33878
 Alpha virt. eigenvalues --   10.39028  11.76094  11.80690  12.03897  12.14645
 Alpha virt. eigenvalues --   12.16681  12.20394  12.22972  12.24529  12.32865
 Alpha virt. eigenvalues --   12.42509  12.44103  12.55615  12.58270  12.83336
 Alpha virt. eigenvalues --   12.92878  14.97180  15.03634  15.24063  15.26789
 Alpha virt. eigenvalues --   15.99524  16.04948  16.83585  16.89159  22.01144
 Alpha virt. eigenvalues --   22.11750  40.17085  40.28249  40.66659  40.68728
 Alpha virt. eigenvalues --   40.69570  40.72701  40.73862  40.75317  40.77539
 Alpha virt. eigenvalues --   40.78164  40.79998  40.80682  40.81529  40.83126
 Alpha virt. eigenvalues --   40.83310  40.83810  40.84371  40.85143  40.85888
 Alpha virt. eigenvalues --   40.86877  40.87812  40.89508  40.90372  40.90524
 Alpha virt. eigenvalues --   40.91172  40.94529  40.97247  46.34041  46.45352
 Alpha virt. eigenvalues --   46.48854  46.52550  46.54441  46.56972  46.64952
 Alpha virt. eigenvalues --   46.76138  46.77677  54.45173  54.49479  55.78073
 Alpha virt. eigenvalues --   55.83833  55.97116  55.97610  56.04930  56.17417
 Alpha virt. eigenvalues --   56.20264  56.23645  56.26635  56.31715  56.38289
 Alpha virt. eigenvalues --   56.43143  56.45364  56.49347  56.51632  56.57068
 Alpha virt. eigenvalues --   57.46930  57.49581  57.99336  58.01574  58.19359
 Alpha virt. eigenvalues --   58.25370  64.70914  64.76003  73.94271  73.98076
 Alpha virt. eigenvalues --   74.09860  74.10940  74.63719  74.66694  86.06931
 Alpha virt. eigenvalues --   86.16389 165.43350 165.53471 165.57622 165.60694
 Alpha virt. eigenvalues --  165.62912 165.64619 165.71172 165.81258 165.83105
 Alpha virt. eigenvalues --  226.55920 226.68247 230.58088 230.62893 235.47571
 Alpha virt. eigenvalues --  235.79827 236.30219 236.32290 236.42167 236.85394
 Alpha virt. eigenvalues --  237.15658 237.44456 237.49856 237.63671 237.71004
 Alpha virt. eigenvalues --  237.90441 237.99206 238.05103 238.17159 238.22873
 Alpha virt. eigenvalues --  308.80534 308.88967 624.54705 624.61018 624.64046
 Alpha virt. eigenvalues --  624.67495 624.69301 624.71421 624.76685 624.84056
 Alpha virt. eigenvalues --  624.85925 794.54666 794.63858 825.72866 827.07025
 Alpha virt. eigenvalues --  827.42099 827.49266 828.16476 829.51547 830.41122
 Alpha virt. eigenvalues --  831.21345 831.30326 831.43746 831.55047 832.40603
 Alpha virt. eigenvalues --  832.59492 832.72434 833.24496 833.32262 868.34162
 Alpha virt. eigenvalues --  868.390371165.933161166.010102485.355452486.21362
 Alpha virt. eigenvalues -- 2587.517472589.404962595.062962596.169012597.21560
 Alpha virt. eigenvalues -- 2597.301892602.068182604.211972605.039222605.29379
 Alpha virt. eigenvalues -- 2606.913182607.389602607.848572610.202222610.94173
 Alpha virt. eigenvalues -- 2611.502942740.320742740.342552740.380162740.41034
 Alpha virt. eigenvalues -- 2740.441662740.519052740.535092740.544982740.56937
 Alpha virt. eigenvalues -- 3787.319763787.370505073.315155073.383518294.78941
 Alpha virt. eigenvalues -- 8296.184598625.967898635.199288636.414488636.87919
 Alpha virt. eigenvalues -- 8646.277908653.994048661.778538666.655558669.31118
 Alpha virt. eigenvalues -- 8669.855508670.802498677.533608678.773208681.36091
 Alpha virt. eigenvalues -- 8685.583498686.74285******************************
 Alpha virt. eigenvalues -- **************************************************
 Alpha virt. eigenvalues -- **************************************************
 Alpha virt. eigenvalues -- **************************************************
 Alpha virt. eigenvalues -- **************************************************
 Alpha virt. eigenvalues -- **************************************************
 Alpha virt. eigenvalues -- **************************************************
 Alpha virt. eigenvalues -- **************************************************
 Alpha virt. eigenvalues -- **********
          Condensed to atoms (all electrons):
               1          2          3          4          5          6
     1  C    4.662916   0.176664  -0.055595   0.004166  -0.000228   0.006489
     2  C    0.176664   5.234327   0.403712  -0.007049  -0.000257  -0.004434
     3  H   -0.055595   0.403712   0.499781  -0.000351   0.000034  -0.000064
     4  C    0.004166  -0.007049  -0.000351   4.984630   0.402806   0.407016
     5  H   -0.000228  -0.000257   0.000034   0.402806   0.538031  -0.006322
     6  H    0.006489  -0.004434  -0.000064   0.407016  -0.006322   0.502356
     7  H   -0.000369   0.001657  -0.000053   0.403485  -0.023442  -0.025698
     8  O    0.700354  -0.091373   0.004886  -0.001752   0.000016  -0.000956
     9  N   -0.059209   0.324852  -0.030658   0.000551   0.000004   0.000258
    10  H    0.001783  -0.039160   0.002634   0.000383   0.000026  -0.000027
    11  N    0.331097  -0.109007   0.004088  -0.002788   0.000087   0.000737
    12  H   -0.021780   0.010456   0.000551   0.000161  -0.000002   0.000378
    13  C   -0.047697   0.011023  -0.001137  -0.000338  -0.000006  -0.000200
    14  H    0.004266   0.001543   0.000102   0.000405  -0.000058   0.000248
    15  H   -0.010757  -0.000991  -0.000281  -0.000005   0.000000   0.000170
    16  H    0.006339   0.000567  -0.000176   0.000031  -0.000001  -0.000083
    17  C   -0.006456  -0.061406   0.003107  -0.000056   0.000002   0.000026
    18  C   -0.006146   0.016755   0.001691  -0.000005   0.000000   0.000001
    19  H    0.000610  -0.000232  -0.000291   0.000000   0.000000   0.000000
    20  H   -0.000133  -0.000547   0.000189   0.000000   0.000000   0.000000
    21  H    0.000861  -0.000765  -0.000151   0.000000   0.000000   0.000000
    22  O   -0.002375   0.021442   0.012818   0.000001   0.000000   0.000002
[...]
 Alpha virt. eigenvalues --    4.36730   4.39958   4.40810   4.41928   4.44324
 Alpha virt. eigenvalues --    4.45035   4.47501   4.49556   4.51516   4.52937
 Alpha virt. eigenvalues --    4.54580   4.55604   4.57159   4.58822   4.61419
 Alpha virt. eigenvalues --    4.62893   4.63180   4.64631   4.64862   4.68469
 Alpha virt. eigenvalues --    4.69421   4.70406   4.71691   4.72224   4.73589
 Alpha virt. eigenvalues --    4.74870   4.75219   4.76324   4.77753   4.78963
 Alpha virt. eigenvalues --    4.79642   4.80742   4.81222   4.81805   4.83951
 Alpha virt. eigenvalues --    4.85650   4.87320   4.87642   4.88377   4.89687
 Alpha virt. eigenvalues --    4.91274   4.93034   4.94215   4.94485   4.95959
 Alpha virt. eigenvalues --    4.96577   4.98795   5.00081   5.00926   5.01527
 Alpha virt. eigenvalues --    5.02870   5.03378   5.04668   5.05636   5.06948
 Alpha virt. eigenvalues --    5.08538   5.09218   5.10096   5.12153   5.12733
 Alpha virt. eigenvalues --    5.14068   5.14486   5.15484   5.16369   5.18398
 Alpha virt. eigenvalues --    5.19325   5.19514   5.20789   5.21738   5.22594
 Alpha virt. eigenvalues --    5.24169   5.24408   5.24710   5.25923   5.26972
 Alpha virt. eigenvalues --    5.27961   5.28916   5.30076   5.31300   5.31732
 Alpha virt. eigenvalues --    5.33949   5.35087   5.36550   5.37860   5.40069
 Alpha virt. eigenvalues --    5.42819   5.45285   5.48633   5.49285   5.54341
 Alpha virt. eigenvalues --    5.57840   5.58846   5.61353   5.63464   5.70846
 Alpha virt. eigenvalues --    5.72934   5.74884   5.75783   5.78019   5.78579
 Alpha virt. eigenvalues --    5.80771   5.81538   5.83652   5.83863   5.86412
 Alpha virt. eigenvalues --    5.87859   5.88947   5.90522   5.91987   5.95490
 Alpha virt. eigenvalues --    5.98632   6.00769   6.01740   6.05584   6.08995
 Alpha virt. eigenvalues --    6.21900   6.27069   6.35444   6.40196   6.49131
 Alpha virt. eigenvalues --    6.53547   6.54665   6.58168   6.66694   6.68328
 Alpha virt. eigenvalues --    6.88297   6.89430   6.92382   6.95315   7.09980
 Alpha virt. eigenvalues --    7.13815   7.16364   7.17928   9.44840   9.96558
 Alpha virt. eigenvalues --   11.74282  12.12299  12.31658  12.68790  13.04942
 Alpha virt. eigenvalues --   13.41272  13.56165  13.62887  13.72803  13.74639
 Alpha virt. eigenvalues --   13.95640
          Condensed to atoms (all electrons):
               1          2          3          4          5          6
     1  C    4.831519   0.145863  -0.058500   0.004358  -0.000069   0.006907
     2  C    0.145863   5.362804   0.438238  -0.000835  -0.000729  -0.004779
     3  H   -0.058500   0.438238   0.462425  -0.000351   0.000024  -0.000031
     4  C    0.004358  -0.000835  -0.000351   5.125987   0.405628   0.400662
     5  H   -0.000069  -0.000729   0.000024   0.405628   0.531829  -0.011460
     6  H    0.006907  -0.004779  -0.000031   0.400662  -0.011460   0.510619
     7  H   -0.000481   0.002421  -0.000044   0.405013  -0.030405  -0.031520
     8  O    0.696660  -0.089121   0.003014  -0.001832  -0.000034  -0.001026
     9  N   -0.062275   0.274575  -0.033891   0.000215   0.000018   0.000293
    10  H    0.003421  -0.036287   0.000999   0.000507   0.000024  -0.000041
    11  N    0.326948  -0.085879  -0.000606  -0.003460   0.000102   0.000893
    12  H   -0.017971   0.008595  -0.000595   0.000106   0.000000   0.000426
    13  C   -0.065491   0.010054  -0.000929  -0.000193  -0.000006  -0.000376
    14  H    0.003464   0.001418   0.000117   0.000569  -0.000072  -0.000158
    15  H   -0.010081  -0.000861  -0.000279  -0.000013   0.000001   0.000218
    16  H    0.007117   0.000555  -0.000119   0.000039  -0.000001  -0.000112
    17  C   -0.006022  -0.071901   0.002334  -0.000034  -0.000001   0.000027
    18  C   -0.004599   0.013497   0.001471  -0.000002   0.000000   0.000001
    19  H    0.000444   0.000583  -0.000265   0.000000   0.000000   0.000000
    20  H   -0.000177  -0.000494   0.000170   0.000000   0.000000   0.000000
    21  H    0.000804  -0.000756  -0.000132   0.000000   0.000000   0.000000
    22  O   -0.000630   0.021155   0.012167   0.000002   0.000000   0.000001
    23  C   -0.019747  -0.005621   0.010438   0.258871  -0.034278  -0.035151
    24  H   -0.015192   0.007906   0.001304  -0.025777  -0.005265  -0.005356
    25  C    0.000375   0.001091  -0.000144  -0.070723  -0.006199   0.007768
    26  H   -0.000202   0.001772  -0.000004  -0.009155  -0.000329  -0.000193
    27  H    0.000202  -0.001507  -0.000042   0.009715  -0.000130  -0.000344
    28  H    0.000032  -0.000629   0.000021  -0.006510   0.003881   0.000041
    29  C   -0.025035   0.199045  -0.033621  -0.050197   0.009077   0.001405
    30  H    0.010088  -0.034066  -0.009821   0.004962  -0.000349   0.000102
    31  H   -0.002829  -0.032074  -0.007633  -0.006946   0.000559  -0.001394
               7          8          9         10         11         12
     1  C   -0.000481   0.696660  -0.062275   0.003421   0.326948  -0.017971
     2  C    0.002421  -0.089121   0.274575  -0.036287  -0.085879   0.008595
     3  H   -0.000044   0.003014  -0.033891   0.000999  -0.000606  -0.000595
     4  C    0.405013  -0.001832   0.000215   0.000507  -0.003460   0.000106
     5  H   -0.030405  -0.000034   0.000018   0.000024   0.000102   0.000000
     6  H   -0.031520  -0.001026   0.000293  -0.000041   0.000893   0.000426
     7  H    0.562726   0.000162  -0.000118  -0.000007  -0.000376  -0.000024
     8  O    0.000162   7.847569   0.004203  -0.001816  -0.118176   0.005368
     9  N   -0.000118   0.004203   6.531092   0.386957   0.005674   0.000725
    10  H   -0.000007  -0.001816   0.386957   0.497813  -0.000326   0.000007
    11  N   -0.000376  -0.118176   0.005674  -0.000326   6.419555   0.377512
    12  H   -0.000024   0.005368   0.000725   0.000007   0.377512   0.539883
    13  C    0.000031   0.007251  -0.000311   0.000033   0.301616  -0.032532
    14  H    0.000141   0.004450  -0.000052  -0.000005  -0.061302   0.001843
    15  H   -0.000007   0.005147  -0.000019   0.000006  -0.038777   0.003364
    16  H    0.000004   0.001400   0.000007   0.000000  -0.026827  -0.007872
    17  C   -0.000002   0.015338   0.328892  -0.020127  -0.000699  -0.000024
    18  C    0.000000  -0.000174  -0.067317  -0.000762  -0.000109   0.000001
    19  H    0.000000   0.000001   0.012948  -0.000497   0.000011   0.000001
    20  H    0.000000   0.000033   0.000227  -0.000191   0.000005   0.000001
    21  H    0.000000   0.000292  -0.001533   0.000131   0.000000  -0.000002
    22  O    0.000000  -0.003276  -0.135186   0.004664  -0.004309  -0.000253
    23  C   -0.041797   0.001561  -0.009777   0.003075  -0.002154   0.000168
    24  H    0.006731   0.020072   0.006916  -0.002247   0.002276  -0.000213
    25  C   -0.009328   0.000430   0.000533  -0.001350  -0.000052  -0.000009
    26  H    0.004762  -0.000013  -0.000099  -0.000053  -0.000008   0.000005
    27  H    0.000046  -0.000004  -0.000151   0.002678  -0.000007  -0.000002
    28  H   -0.000762   0.000001   0.000020   0.000103   0.000004   0.000000
    29  C   -0.012558  -0.006942  -0.050735  -0.001562   0.007286  -0.003377
    30  H    0.000285  -0.000675   0.000182   0.001848   0.000318  -0.000142
    31  H    0.003360  -0.000290   0.004319   0.000431   0.004525   0.002063
              13         14         15         16         17         18
     1  C   -0.065491   0.003464  -0.010081   0.007117  -0.006022  -0.004599
     2  C    0.010054   0.001418  -0.000861   0.000555  -0.071901   0.013497
     3  H   -0.000929   0.000117  -0.000279  -0.000119   0.002334   0.001471
     4  C   -0.000193   0.000569  -0.000013   0.000039  -0.000034  -0.000002
     5  H   -0.000006  -0.000072   0.000001  -0.000001  -0.000001   0.000000
     6  H   -0.000376  -0.000158   0.000218  -0.000112   0.000027   0.000001
     7  H    0.000031   0.000141  -0.000007   0.000004  -0.000002   0.000000
     8  O    0.007251   0.004450   0.005147   0.001400   0.015338  -0.000174
     9  N   -0.000311  -0.000052  -0.000019   0.000007   0.328892  -0.067317
    10  H    0.000033  -0.000005   0.000006   0.000000  -0.020127  -0.000762
    11  N    0.301616  -0.061302  -0.038777  -0.026827  -0.000699  -0.000109
    12  H   -0.032532   0.001843   0.003364  -0.007872  -0.000024   0.000001
    13  C    4.777507   0.388108   0.405967   0.394183  -0.000271  -0.000007
    14  H    0.388108   0.636289  -0.057684  -0.027524  -0.000042   0.000000
    15  H    0.405967  -0.057684   0.591023  -0.025633   0.000116   0.000002
    16  H    0.394183  -0.027524  -0.025633   0.597142  -0.000012   0.000000
    17  C   -0.000271  -0.000042   0.000116  -0.000012   4.536384   0.281480
    18  C   -0.000007   0.000000   0.000002   0.000000   0.281480   5.000403
    19  H    0.000001   0.000000   0.000000   0.000000  -0.054324   0.392169
    20  H    0.000000   0.000000   0.000000   0.000000  -0.025960   0.385154
    21  H    0.000002   0.000000   0.000001   0.000000  -0.024732   0.387827
    22  O   -0.000237   0.000008   0.000113  -0.000004   0.724352  -0.071310
    23  C   -0.000261   0.000338  -0.000074  -0.000036   0.000540  -0.000011
    24  H   -0.000249   0.000078  -0.000057  -0.000007   0.001178   0.000249
    25  C   -0.000011   0.000012  -0.000001   0.000000   0.000115   0.000014
    26  H    0.000000   0.000000   0.000000   0.000000   0.000002   0.000002
    27  H    0.000000   0.000000   0.000000   0.000000   0.000061   0.000009
    28  H    0.000000  -0.000001   0.000000   0.000000  -0.000006   0.000000
    29  C   -0.000330  -0.000571   0.000108   0.000019   0.008634   0.000170
    30  H    0.000073  -0.000034   0.000012   0.000002  -0.000518  -0.000155
    31  H    0.000069  -0.000296   0.000083  -0.000016   0.000000   0.000035
              19         20         21         22         23         24
     1  C    0.000444  -0.000177   0.000804  -0.000630  -0.019747  -0.015192
     2  C    0.000583  -0.000494  -0.000756   0.021155  -0.005621   0.007906
     3  H   -0.000265   0.000170  -0.000132   0.012167   0.010438   0.001304
     4  C    0.000000   0.000000   0.000000   0.000002   0.258871  -0.025777
     5  H    0.000000   0.000000   0.000000   0.000000  -0.034278  -0.005265
     6  H    0.000000   0.000000   0.000000   0.000001  -0.035151  -0.005356
     7  H    0.000000   0.000000   0.000000   0.000000  -0.041797   0.006731
     8  O    0.000001   0.000033   0.000292  -0.003276   0.001561   0.020072
     9  N    0.012948   0.000227  -0.001533  -0.135186  -0.009777   0.006916
    10  H   -0.000497  -0.000191   0.000131   0.004664   0.003075  -0.002247
    11  N    0.000011   0.000005   0.000000  -0.004309  -0.002154   0.002276
    12  H    0.000001   0.000001  -0.000002  -0.000253   0.000168  -0.000213
    13  C    0.000001   0.000000   0.000002  -0.000237  -0.000261  -0.000249
    14  H    0.000000   0.000000   0.000000   0.000008   0.000338   0.000078
    15  H    0.000000   0.000000   0.000001   0.000113  -0.000074  -0.000057
    16  H    0.000000   0.000000   0.000000  -0.000004  -0.000036  -0.000007
    17  C   -0.054324  -0.025960  -0.024732   0.724352   0.000540   0.001178
    18  C    0.392169   0.385154   0.387827  -0.071310  -0.000011   0.000249
    19  H    0.604142  -0.027318  -0.024774   0.004604   0.000083  -0.000011
    20  H   -0.027318   0.576399  -0.024951   0.002672   0.000009   0.000028
    21  H   -0.024774  -0.024951   0.564413   0.000858  -0.000020  -0.000055
    22  O    0.004604   0.002672   0.000858   7.848912   0.000044  -0.000157
    23  C    0.000083   0.000009  -0.000020   0.000044   5.423406   0.413981
    24  H   -0.000011   0.000028  -0.000055  -0.000157   0.413981   0.486429
    25  C   -0.000040   0.000001  -0.000002   0.000002   0.269936  -0.032052
    26  H   -0.000001   0.000000   0.000000   0.000000  -0.035968   0.006551
    27  H    0.000000  -0.000005  -0.000001   0.000004  -0.038695  -0.008353
    28  H    0.000001   0.000000   0.000000   0.000000  -0.039323  -0.004200
    29  C   -0.000273  -0.000003   0.000032   0.001895   0.165586  -0.070028
    30  H    0.000031  -0.000021   0.000018  -0.000148  -0.059230   0.001002
    31  H   -0.000004  -0.000003   0.000000   0.000076  -0.042278   0.002979
              25         26         27         28         29         30
     1  C    0.000375  -0.000202   0.000202   0.000032  -0.025035   0.010088
     2  C    0.001091   0.001772  -0.001507  -0.000629   0.199045  -0.034066
     3  H   -0.000144  -0.000004  -0.000042   0.000021  -0.033621  -0.009821
     4  C   -0.070723  -0.009155   0.009715  -0.006510  -0.050197   0.004962
     5  H   -0.006199  -0.000329  -0.000130   0.003881   0.009077  -0.000349
     6  H    0.007768  -0.000193  -0.000344   0.000041   0.001405   0.000102
     7  H   -0.009328   0.004762   0.000046  -0.000762  -0.012558   0.000285
     8  O    0.000430  -0.000013  -0.000004   0.000001  -0.006942  -0.000675
     9  N    0.000533  -0.000099  -0.000151   0.000020  -0.050735   0.000182
    10  H   -0.001350  -0.000053   0.002678   0.000103  -0.001562   0.001848
    11  N   -0.000052  -0.000008  -0.000007   0.000004   0.007286   0.000318
    12  H   -0.000009   0.000005  -0.000002   0.000000  -0.003377  -0.000142
    13  C   -0.000011   0.000000   0.000000   0.000000  -0.000330   0.000073
    14  H    0.000012   0.000000   0.000000  -0.000001  -0.000571  -0.000034
    15  H   -0.000001   0.000000   0.000000   0.000000   0.000108   0.000012
    16  H    0.000000   0.000000   0.000000   0.000000   0.000019   0.000002
    17  C    0.000115   0.000002   0.000061  -0.000006   0.008634  -0.000518
    18  C    0.000014   0.000002   0.000009   0.000000   0.000170  -0.000155
    19  H   -0.000040  -0.000001   0.000000   0.000001  -0.000273   0.000031
    20  H    0.000001   0.000000  -0.000005   0.000000  -0.000003  -0.000021
    21  H   -0.000002   0.000000  -0.000001   0.000000   0.000032   0.000018
    22  O    0.000002   0.000000   0.000004   0.000000   0.001895  -0.000148
    23  C    0.269936  -0.035968  -0.038695  -0.039323   0.165586  -0.059230
    24  H   -0.032052   0.006551  -0.008353  -0.004200  -0.070028   0.001002
    25  C    5.114447   0.402650   0.396935   0.411166  -0.052897  -0.010650
    26  H    0.402650   0.551587  -0.029854  -0.028555  -0.009877   0.001445
    27  H    0.396935  -0.029854   0.548130  -0.016074   0.000680  -0.000776
    28  H    0.411166  -0.028555  -0.016074   0.531773   0.009747   0.000391
    29  C   -0.052897  -0.009877   0.000680   0.009747   5.524702   0.414254
    30  H   -0.010650   0.001445  -0.000776   0.000391   0.414254   0.469238
    31  H    0.001023   0.000208   0.000317  -0.000280   0.409897  -0.000791
              31
     1  C   -0.002829
     2  C   -0.032074
     3  H   -0.007633
     4  C   -0.006946
     5  H    0.000559
     6  H   -0.001394
     7  H    0.003360
     8  O   -0.000290
     9  N    0.004319
    10  H    0.000431
    11  N    0.004525
    12  H    0.002063
    13  C    0.000069
    14  H   -0.000296
    15  H    0.000083
    16  H   -0.000016
    17  C    0.000000
    18  C    0.000035
    19  H   -0.000004
    20  H   -0.000003
    21  H    0.000000
    22  O    0.000076
    23  C   -0.042278
    24  H    0.002979
    25  C    0.001023
    26  H    0.000208
    27  H    0.000317
    28  H   -0.000280
    29  C    0.409897
    30  H   -0.000791
    31  H    0.462123
 Mulliken charges:
               1
     1  C    0.251101
     2  C   -0.124033
     3  H    0.214284
     4  C   -0.440603
     5  H    0.138184
     6  H    0.162578
     7  H    0.141744
     8  O   -0.389573
     9  N   -0.196331
    10  H    0.162572
    11  N   -0.103656
    12  H    0.122947
    13  C   -0.183690
    14  H    0.110906
    15  H    0.127323
    16  H    0.087694
    17  C    0.305222
    18  C   -0.318034
    19  H    0.092488
    20  H    0.114422
    21  H    0.122581
    22  O   -0.406018
    23  C   -0.183617
    24  H    0.211537
    25  C   -0.423043
    26  H    0.145325
    27  H    0.137168
    28  H    0.139161
    29  C   -0.434532
    30  H    0.213126
    31  H    0.202767
 Sum of Mulliken charges =   0.00000
 Mulliken charges with hydrogens summed into heavy atoms:
               1
     1  C    0.251101
     2  C    0.090251
     4  C    0.001903
     8  O   -0.389573
     9  N   -0.033759
    11  N    0.019291
    13  C    0.142233
    17  C    0.305222
    18  C    0.011457
    22  O   -0.406018
    23  C    0.027920
    25  C   -0.001389
    29  C   -0.018639
 Electronic spatial extent (au):  <R**2>=           2889.5248
 Charge=              0.0000 electrons
 Dipole moment (field-independent basis, Debye):
    X=              3.0527    Y=             -1.7752    Z=              2.3102  Tot=              4.2199
 Quadrupole moment (field-independent basis, Debye-Ang):
   XX=            -85.1687   YY=            -70.1007   ZZ=            -81.2252
   XY=              9.7850   XZ=              3.5041   YZ=              5.0697
 Traceless Quadrupole moment (field-independent basis, Debye-Ang):
   XX=             -6.3371   YY=              8.7308   ZZ=             -2.3936
   XY=              9.7850   XZ=              3.5041   YZ=              5.0697
 Octapole moment (field-independent basis, Debye-Ang**2):
  XXX=             -0.2285  YYY=             36.4731  ZZZ=              8.5224  XYY=              0.1160
  XXY=            -19.4450  XXZ=            -12.8338  XZZ=             -1.9813  YZZ=              4.1071
  YYZ=              3.2239  XYZ=              2.6156
 Hexadecapole moment (field-independent basis, Debye-Ang**3):
 XXXX=          -2026.0887 YYYY=          -1430.6062 ZZZZ=           -319.3850 XXXY=             77.5319
 XXXZ=             26.9697 YYYX=             44.8452 YYYZ=             14.1805 ZZZX=              1.9822
 ZZZY=             20.5292 XXYY=           -583.7646 XXZZ=           -371.8844 YYZZ=           -301.6348
 XXYZ=             -0.5193 YYXZ=              4.4865 ZZXY=              4.2763
 N-N= 8.766361572610D+02 E-N=-3.183009754380D+03  KE= 6.091262471461D+02
 Calculating spin-rotation constants.
 Leave Link  601 at Thu Jun 19 02:00:50 2014, MaxMem=  4294967296 cpu:        71.1
 (Enter /home/ztw1e12/g09/l9999.exe)

 Test job not archived.
 1\1\GINC-GREEN0052\SP\RM06\Gen\C9H18N2O2\ZTW1E12\19-Jun-2014\0\\#P Geo
 m=AllCheck Guess=TCheck SCRF=Check GenChk RM06/ChkBas NMR=ReadFC IOp(3
 /6=22)\\NMR spin-spin scan\\0,1\C,0,0.585284,0.745814,0.612755\C,0,0.1
 43536,0.234592,-0.752803\H,0,0.537785,0.920924,-1.507541\C,0,-2.766528
 ,0.237477,1.246228\H,0,-3.254392,-0.371998,2.009679\H,0,-2.049797,0.89
 2539,1.749066\H,0,-3.529151,0.872149,0.785295\O,0,0.814399,-0.000418,1
 .560588\N,0,0.663016,-1.086146,-1.013946\H,0,0.020765,-1.863188,-1.056
 296\N,0,0.664994,2.077218,0.706971\H,0,0.409716,2.6326,-0.094469\C,0,0
 .900632,2.734753,1.971781\H,0,0.119654,2.49421,2.695567\H,0,1.859682,2
 .435459,2.393888\H,0,0.912691,3.808745,1.813772\C,0,1.983186,-1.322228
 ,-1.090242\C,0,2.397053,-2.740574,-1.304129\H,0,1.55711,-3.412484,-1.4
 669\H,0,3.071886,-2.787348,-2.157806\H,0,2.955265,-3.074732,-0.429161\
 O,0,2.808559,-0.414713,-0.991139\C,0,-2.099705,-0.628192,0.192908\H,0,
 -1.367109,-1.269313,0.694572\C,0,-3.126094,-1.524871,-0.474388\H,0,-3.
 86653,-0.923567,-1.010769\H,0,-2.656959,-2.195608,-1.198468\H,0,-3.659
 113,-2.133916,0.258623\C,0,-1.376924,0.234825,-0.852476\H,0,-1.625902,
 -0.109197,-1.860459\H,0,-1.721388,1.270484,-0.790364\\Version=EM64L-G0
 9RevD.01\State=1-A\HF=-613.5826414\RMSD=7.746e-09\Dipole=-1.4741719,0.
 3328152,-0.6873432\Quadrupole=-8.0762659,10.5785252,-2.5022593,-1.1580
 125,0.8529966,3.728816\PG=C01 [X(C9H18N2O2)]\\@


 WISDOM IS KNOWING WHAT TO DO,
 SKILL IS KNOWING HOW TO DO IT,
 AND VIRTUE IS NOT DOING IT.
 Job cpu time:       2 days 13 hours  2 minutes  5.1 seconds.
 File lengths (MBytes):  RWF=   2456 Int=      0 D2E=      0 Chk=     48 Scr=      8
 Normal termination of Gaussian 09 at Thu Jun 19 02:00:51 2014.
