 Entering Gaussian System, Link 0=g09
 Input=scan_input_21.gjf
 Output=scan_input_21.log
 Initial command:
 /home/ztw1e12/g09/l1.exe "/home/ztw1e12/leucine_scan/leucine_chi2_scan/Gau-13342.inp" -scrdir="/home/ztw1e12/leucine_scan/leucine_chi2_scan/"
 Default is to use a total of   8 processors:
                                8 via shared-memory
                                1 via Linda
 Entering Link 1 = /home/ztw1e12/g09/l1.exe PID=     13343.
  
 Copyright (c) 1988,1990,1992,1993,1995,1998,2003,2009,2013,
            Gaussian, Inc.  All Rights Reserved.
  
 This is part of the Gaussian(R) 09 program.  It is based on
 the Gaussian(R) 03 system (copyright 2003, Gaussian, Inc.),
 the Gaussian(R) 98 system (copyright 1998, Gaussian, Inc.),
 the Gaussian(R) 94 system (copyright 1995, Gaussian, Inc.),
 the Gaussian 92(TM) system (copyright 1992, Gaussian, Inc.),
 the Gaussian 90(TM) system (copyright 1990, Gaussian, Inc.),
 the Gaussian 88(TM) system (copyright 1988, Gaussian, Inc.),
 the Gaussian 86(TM) system (copyright 1986, Carnegie Mellon
 University), and the Gaussian 82(TM) system (copyright 1983,
 Carnegie Mellon University). Gaussian is a federally registered
 trademark of Gaussian, Inc.
  
 This software contains proprietary and confidential information,
 including trade secrets, belonging to Gaussian, Inc.
  
 This software is provided under written license and may be
 used, copied, transmitted, or stored only in accord with that
 written license.
  
 The following legend is applicable only to US Government
 contracts under FAR:
  
                    RESTRICTED RIGHTS LEGEND
  
 Use, reproduction and disclosure by the US Government is
 subject to restrictions as set forth in subparagraphs (a)
 and (c) of the Commercial Computer Software - Restricted
 Rights clause in FAR 52.227-19.
  
 Gaussian, Inc.
 340 Quinnipiac St., Bldg. 40, Wallingford CT 06492
  
  
 ---------------------------------------------------------------
 Warning -- This program may not be used in any manner that
 competes with the business of Gaussian, Inc. or will provide
 assistance to any competitor of Gaussian, Inc.  The licensee
 of this program is prohibited from giving any competitor of
 Gaussian, Inc. access to this program.  By using this program,
 the user acknowledges that Gaussian, Inc. is engaged in the
 business of creating and licensing software in the field of
 computational chemistry and represents and warrants to the
 licensee that it is not a competitor of Gaussian, Inc. and that
 it will not use this program in any manner prohibited above.
 ---------------------------------------------------------------
  

 Cite this work as:
 Gaussian 09, Revision D.01,
 M. J. Frisch, G. W. Trucks, H. B. Schlegel, G. E. Scuseria, 
 M. A. Robb, J. R. Cheeseman, G. Scalmani, V. Barone, B. Mennucci, 
 G. A. Petersson, H. Nakatsuji, M. Caricato, X. Li, H. P. Hratchian, 
 A. F. Izmaylov, J. Bloino, G. Zheng, J. L. Sonnenberg, M. Hada, 
 M. Ehara, K. Toyota, R. Fukuda, J. Hasegawa, M. Ishida, T. Nakajima, 
 Y. Honda, O. Kitao, H. Nakai, T. Vreven, J. A. Montgomery, Jr., 
 J. E. Peralta, F. Ogliaro, M. Bearpark, J. J. Heyd, E. Brothers, 
 K. N. Kudin, V. N. Staroverov, T. Keith, R. Kobayashi, J. Normand, 
 K. Raghavachari, A. Rendell, J. C. Burant, S. S. Iyengar, J. Tomasi, 
 M. Cossi, N. Rega, J. M. Millam, M. Klene, J. E. Knox, J. B. Cross, 
 V. Bakken, C. Adamo, J. Jaramillo, R. Gomperts, R. E. Stratmann, 
 O. Yazyev, A. J. Austin, R. Cammi, C. Pomelli, J. W. Ochterski, 
 R. L. Martin, K. Morokuma, V. G. Zakrzewski, G. A. Voth, 
 P. Salvador, J. J. Dannenberg, S. Dapprich, A. D. Daniels, 
 O. Farkas, J. B. Foresman, J. V. Ortiz, J. Cioslowski, 
 and D. J. Fox, Gaussian, Inc., Wallingford CT, 2013.
 
 ******************************************
 Gaussian 09:  EM64L-G09RevD.01 24-Apr-2013
                18-Jun-2014 
 ******************************************
 %Mem=32GB
 %NProcShared=16
 Will use up to   16 processors via shared memory.
 Default route:  MaxDisk=100GB
 ----------------------------------------------------------------------
 #p nmr=(giao,mixed,spinspin) m06/cc-pvtz scf=tight integral=(grid=ultr
 afine)
 ----------------------------------------------------------------------
 1/38=1/1;
 2/12=2,17=6,18=5,40=1/2;
 3/5=16,6=1,10=1100000,11=2,16=1,25=1,30=1,74=-54,75=-5/1,2,8,3;
 4//1;
 5/5=2,32=2,38=5/2;
 8/6=1,10=90,11=11/1;
 10/13=100,45=16,47=3/2;
 6/7=2,8=2,9=2,10=2,28=1/1;
 99/9=1/99;
 Leave Link    1 at Wed Jun 18 06:29:23 2014, MaxMem=  4294967296 cpu:         5.8
 (Enter /home/ztw1e12/g09/l101.exe)
 ------------------
 NMR spin-spin scan
 ------------------
 Symbolic Z-matrix:
 Charge =  0 Multiplicity = 1
 C                     0.51244   0.84951   0.48949 
 C                     0.22929   0.04747  -0.78155 
 H                     0.71789   0.61252  -1.58161 
 C                    -1.77348  -0.92344   1.24482 
 H                    -2.54741  -1.44989   1.80719 
 H                    -0.85618  -1.50475   1.34049 
 H                    -1.61896   0.03783   1.74456 
 O                     1.22609   0.42689   1.39326 
 N                     0.86654  -1.2469   -0.73934 
 H                     0.32543  -2.04286  -0.43861 
 N                    -0.02802   2.07327   0.52101 
 H                    -0.64283   2.36062  -0.22248 
 C                     0.10512   2.92293   1.68175 
 H                    -0.30249   2.43861   2.57135 
 H                     1.15015   3.16561   1.87522 
 H                    -0.43964   3.84559   1.50577 
 C                     2.18229  -1.41638  -0.95859 
 C                     2.70083  -2.80919  -0.80955 
 H                     1.92137  -3.53959  -0.60264 
 H                     3.22948  -3.08933  -1.71998 
 H                     3.42584  -2.82229   0.00469 
 O                     2.92251  -0.48582  -1.27294 
 C                    -2.23124  -0.75327  -0.1942 
 H                    -2.39971  -1.76671  -0.57664 
 C                    -3.55787  -0.01952  -0.239 
 H                    -3.44448   0.98846   0.17374 
 H                    -3.92556   0.08163  -1.26237 
 H                    -4.32107  -0.53827   0.34439 
 C                    -1.24101  -0.07293  -1.16311 
 H                    -1.28206  -0.57832  -2.1298 
 H                    -1.59766   0.94182  -1.36496 
 
 NAtoms=     31 NQM=       31 NQMF=       0 NMMI=      0 NMMIF=      0
                NMic=       0 NMicF=      0.
                    Isotopes and Nuclear Properties:
 (Nuclear quadrupole moments (NQMom) in fm**2, nuclear magnetic moments (NMagM)
  in nuclear magnetons)

  Atom         1           2           3           4           5           6           7           8           9          10
 IAtWgt=          12          12           1          12           1           1           1          16          14           1
 AtmWgt=  12.0000000  12.0000000   1.0078250  12.0000000   1.0078250   1.0078250   1.0078250  15.9949146  14.0030740   1.0078250
 NucSpn=           0           0           1           0           1           1           1           0           2           1
 AtZEff=   0.0000000   0.0000000   0.0000000   0.0000000   0.0000000   0.0000000   0.0000000   0.0000000   0.0000000   0.0000000
 NQMom=    0.0000000   0.0000000   0.0000000   0.0000000   0.0000000   0.0000000   0.0000000   0.0000000   2.0440000   0.0000000
 NMagM=    0.0000000   0.0000000   2.7928460   0.0000000   2.7928460   2.7928460   2.7928460   0.0000000   0.4037610   2.7928460
 AtZNuc=   6.0000000   6.0000000   1.0000000   6.0000000   1.0000000   1.0000000   1.0000000   8.0000000   7.0000000   1.0000000

  Atom        11          12          13          14          15          16          17          18          19          20
 IAtWgt=          14           1          12           1           1           1          12          12           1           1
 AtmWgt=  14.0030740   1.0078250  12.0000000   1.0078250   1.0078250   1.0078250  12.0000000  12.0000000   1.0078250   1.0078250
 NucSpn=           2           1           0           1           1           1           0           0           1           1
 AtZEff=   0.0000000   0.0000000   0.0000000   0.0000000   0.0000000   0.0000000   0.0000000   0.0000000   0.0000000   0.0000000
 NQMom=    2.0440000   0.0000000   0.0000000   0.0000000   0.0000000   0.0000000   0.0000000   0.0000000   0.0000000   0.0000000
 NMagM=    0.4037610   2.7928460   0.0000000   2.7928460   2.7928460   2.7928460   0.0000000   0.0000000   2.7928460   2.7928460
 AtZNuc=   7.0000000   1.0000000   6.0000000   1.0000000   1.0000000   1.0000000   6.0000000   6.0000000   1.0000000   1.0000000

  Atom        21          22          23          24          25          26          27          28          29          30
 IAtWgt=           1          16          12           1          12           1           1           1          12           1
 AtmWgt=   1.0078250  15.9949146  12.0000000   1.0078250  12.0000000   1.0078250   1.0078250   1.0078250  12.0000000   1.0078250
 NucSpn=           1           0           0           1           0           1           1           1           0           1
 AtZEff=   0.0000000   0.0000000   0.0000000   0.0000000   0.0000000   0.0000000   0.0000000   0.0000000   0.0000000   0.0000000
 NQMom=    0.0000000   0.0000000   0.0000000   0.0000000   0.0000000   0.0000000   0.0000000   0.0000000   0.0000000   0.0000000
 NMagM=    2.7928460   0.0000000   0.0000000   2.7928460   0.0000000   2.7928460   2.7928460   2.7928460   0.0000000   2.7928460
 AtZNuc=   1.0000000   8.0000000   6.0000000   1.0000000   6.0000000   1.0000000   1.0000000   1.0000000   6.0000000   1.0000000

  Atom        31
 IAtWgt=           1
 AtmWgt=   1.0078250
 NucSpn=           1
 AtZEff=   0.0000000
 NQMom=    0.0000000
 NMagM=    2.7928460
 AtZNuc=   1.0000000
 Leave Link  101 at Wed Jun 18 06:29:23 2014, MaxMem=  4294967296 cpu:         1.6
 (Enter /home/ztw1e12/g09/l202.exe)
                          Input orientation:                          
 ---------------------------------------------------------------------
 Center     Atomic      Atomic             Coordinates (Angstroms)
 Number     Number       Type             X           Y           Z
 ---------------------------------------------------------------------
      1          6           0        0.512440    0.849510    0.489490
      2          6           0        0.229289    0.047467   -0.781549
      3          1           0        0.717894    0.612517   -1.581607
      4          6           0       -1.773478   -0.923440    1.244817
      5          1           0       -2.547412   -1.449893    1.807192
      6          1           0       -0.856183   -1.504750    1.340493
      7          1           0       -1.618956    0.037834    1.744561
      8          8           0        1.226091    0.426891    1.393263
      9          7           0        0.866540   -1.246895   -0.739340
     10          1           0        0.325433   -2.042858   -0.438614
     11          7           0       -0.028023    2.073265    0.521006
     12          1           0       -0.642827    2.360616   -0.222483
     13          6           0        0.105117    2.922934    1.681748
     14          1           0       -0.302485    2.438613    2.571346
     15          1           0        1.150154    3.165614    1.875223
     16          1           0       -0.439639    3.845585    1.505772
     17          6           0        2.182285   -1.416380   -0.958588
     18          6           0        2.700832   -2.809189   -0.809554
     19          1           0        1.921372   -3.539592   -0.602644
     20          1           0        3.229480   -3.089332   -1.719981
     21          1           0        3.425839   -2.822287    0.004693
     22          8           0        2.922511   -0.485816   -1.272944
     23          6           0       -2.231237   -0.753273   -0.194204
     24          1           0       -2.399707   -1.766714   -0.576642
     25          6           0       -3.557874   -0.019524   -0.238996
     26          1           0       -3.444477    0.988463    0.173736
     27          1           0       -3.925564    0.081627   -1.262374
     28          1           0       -4.321074   -0.538270    0.344389
     29          6           0       -1.241005   -0.072925   -1.163111
     30          1           0       -1.282055   -0.578320   -2.129804
     31          1           0       -1.597656    0.941818   -1.364955
 ---------------------------------------------------------------------
                    Distance matrix (angstroms):
                    1          2          3          4          5
     1  C    0.000000
     2  C    1.529375   0.000000
     3  H    2.094712   1.094582   0.000000
     4  C    2.989865   3.009966   4.068755   0.000000
     5  H    4.047998   4.080899   5.138065   1.091967   0.000000
     6  H    2.853047   2.844414   3.936903   1.090186   1.755298
     7  H    2.603242   3.130069   4.105426   1.094381   1.754789
     8  O    1.226666   2.422268   3.023669   3.292847   4.234735
     9  N    2.455672   1.443345   2.046686   3.318312   4.263930
    10  H    3.043377   2.120450   2.917443   2.914183   3.694386
    11  N    1.338159   2.422131   2.666676   3.542705   4.518212
    12  H    2.031007   2.534522   2.598967   3.770459   4.718793
    13  C    2.426207   3.788345   4.045122   4.302862   5.115981
    14  H    2.742895   4.152381   4.650034   3.902166   4.554570
    15  H    2.773314   4.198722   4.319123   5.066103   5.914349
    16  H    3.303899   4.483860   4.617848   4.958914   5.707508
    17  C    3.165370   2.447118   2.578569   4.554783   5.479115
    18  C    4.456754   3.777538   4.029414   5.272185   6.019893
    19  H    4.737305   3.970157   4.432464   4.889712   5.490372
    20  H    5.270536   4.440868   4.475589   6.205699   6.964280
    21  H    4.712220   4.367104   4.652654   5.672427   6.388442
    22  O    3.270736   2.789140   2.482326   5.346302   6.351121
    23  C    3.250248   2.653365   3.533786   1.519632   2.142623
    24  H    4.057322   3.200759   4.048473   2.102614   2.409327
    25  C    4.225325   3.826415   4.525955   2.490549   2.693302
    26  H    3.971927   3.910831   4.532979   2.755871   3.068955
    27  H    4.832655   4.182722   4.684598   3.453642   3.696903
    28  H    5.030889   4.724048   5.515883   2.729354   2.473202
    29  C    2.580028   1.523761   2.117134   2.608643   3.524974
    30  H    3.481323   2.119802   2.391319   3.427633   4.226193
    31  H    2.810692   2.116118   2.348861   3.212633   4.084707
                    6          7          8          9         10
     6  H    0.000000
     7  H    1.767670   0.000000
     8  O    2.840755   2.892934   0.000000
     9  N    2.712926   3.741388   2.734745   0.000000
    10  H    2.202498   3.588340   3.204156   1.008360   0.000000
    11  N    3.762924   2.858520   2.245926   3.662264   4.241258
    12  H    4.174862   3.196468   3.137321   3.944549   4.513848
    13  C    4.543670   3.361573   2.751370   4.881486   5.404032
    14  H    4.167936   2.860141   2.787732   5.090209   5.434862
    15  H    5.111127   4.179480   2.781844   5.136790   5.758662
    16  H    5.369070   3.993342   3.804574   5.716641   6.248178
    17  C    3.811282   4.885815   3.137381   1.344611   2.027498
    18  C    4.356216   5.769715   4.183238   2.410460   2.523367
    19  H    3.953628   5.553492   4.494446   2.527413   2.194115
    20  H    5.345095   6.729751   5.105848   3.152732   3.342230
    21  H    4.675038   6.054535   4.162232   3.096039   3.227468
    22  O    4.706040   5.477633   3.289306   2.256323   3.140908
    23  C    2.193350   2.181639   3.983209   3.183875   2.873905
    24  H    2.475176   3.042030   4.673204   3.311352   2.742571
    25  C    3.464075   2.774381   5.074434   4.618682   4.383355
    26  H    3.778452   2.589153   4.859713   4.941194   4.876074
    27  H    4.325807   3.789989   5.806132   5.000280   4.823172
    28  H    3.732529   3.097389   5.727365   5.346771   4.946403
    29  C    2.909681   2.934224   3.587677   2.449394   2.619019
    30  H    3.616988   3.937493   4.439960   2.645155   2.754816
    31  H    3.722221   3.238322   3.980762   3.354716   3.669424
                   11         12         13         14         15
    11  N    0.000000
    12  H    1.006643   0.000000
    13  C    1.444640   2.121725   0.000000
    14  H    2.100643   2.815563   1.091829   0.000000
    15  H    2.101245   2.874574   1.090151   1.767280   0.000000
    16  H    2.068891   2.287637   1.085823   1.770263   1.768134
    17  C    4.387742   4.773762   5.487773   5.787529   5.485476
    18  C    5.749382   6.184787   6.767685   6.927469   6.731337
    19  H    6.047057   6.444540   7.090943   7.124513   7.189881
    20  H    6.502750   6.851219   7.581606   7.838906   7.508225
    21  H    6.013499   6.593037   6.844507   6.940114   6.673274
    22  O    4.298000   4.681589   5.318599   5.807878   5.136647
    23  C    3.654449   3.495733   4.742599   4.642896   5.574407
    24  H    4.644906   4.499657   5.776441   5.656231   6.552939
    25  C    4.173394   3.763355   5.075906   4.953586   6.064697
    26  H    3.601326   3.144684   4.314614   4.209939   5.361500
    27  H    4.726298   4.129349   5.743454   5.777499   6.717023
    28  H    5.028081   4.717455   5.775780   5.474507   6.782075
    29  C    2.985583   2.676699   4.345163   4.597261   5.043535
    30  H    3.953517   3.561437   5.358260   5.671177   5.997743
    31  H    2.701994   2.056679   4.013310   4.405942   4.795256
                   16         17         18         19         20
    16  H    0.000000
    17  C    6.374624   0.000000
    18  C    7.714228   1.493660   0.000000
    19  H    8.034963   2.168594   1.088052   0.000000
    20  H    8.482982   2.115444   1.089415   1.778292   0.000000
    21  H    7.852113   2.109718   1.090323   1.773924   1.756238
    22  O    6.147060   1.229920   2.379482   3.282854   2.659392
    23  C    5.220080   4.528043   5.378731   5.017425   6.132259
    24  H    6.298906   4.611211   5.211190   4.670706   5.894429
    25  C    5.263713   5.951340   6.875985   6.522672   7.595078
    26  H    4.355057   6.223012   7.290668   7.063879   8.047129
    27  H    5.829381   6.296200   7.243686   6.909062   7.839582
    28  H    5.969299   6.690479   7.469660   6.990918   8.232886
    29  C    4.808310   3.683153   4.811468   4.725731   5.421628
    30  H    5.787747   3.751765   4.752181   4.622044   5.179487
    31  H    4.244283   4.473722   5.731974   5.748714   6.299004
                   21         22         23         24         25
    21  H    0.000000
    22  O    2.710128   0.000000
    23  C    6.026847   5.272223   0.000000
    24  H    5.948880   5.518291   1.096222   0.000000
    25  C    7.529084   6.578896   1.516694   2.123212   0.000000
    26  H    7.858221   6.693648   2.154292   3.040660   1.095100
    27  H    8.005080   6.871553   2.169974   2.492957   1.092122
    28  H    8.083736   7.422132   2.168808   2.459476   1.091746
    29  C    5.540956   4.185380   1.543442   2.134352   2.494939
    30  H    5.635222   4.291986   2.162892   2.252496   3.011106
    31  H    6.424945   4.741151   2.155323   2.932724   2.456505
                   26         27         28         29         30
    26  H    0.000000
    27  H    1.765278   0.000000
    28  H    1.768745   1.767028   0.000000
    29  C    2.787291   2.690836   3.460625   0.000000
    30  H    3.526638   2.859389   3.919040   1.091606   0.000000
    31  H    2.404266   2.483869   3.539707   1.094369   1.730727
                   31
    31  H    0.000000
 Stoichiometry    C9H18N2O2
 Framework group  C1[X(C9H18N2O2)]
 Deg. of freedom    87
 Full point group                 C1      NOp   1
 Largest Abelian subgroup         C1      NOp   1
 Largest concise Abelian subgroup C1      NOp   1
                         Standard orientation:                         
 ---------------------------------------------------------------------
 Center     Atomic      Atomic             Coordinates (Angstroms)
 Number     Number       Type             X           Y           Z
 ---------------------------------------------------------------------
      1          6           0       -0.190365    1.154419    0.049415
      2          6           0        0.253284   -0.084329   -0.730114
      3          1           0        0.623878    0.305042   -1.683613
      4          6           0       -1.546844   -1.110213    1.453231
      5          1           0       -2.117969   -1.705630    2.168554
      6          1           0       -0.525470   -1.049790    1.829596
      7          1           0       -1.973841   -0.102698    1.469184
      8          8           0        0.377901    1.533642    1.068225
      9          7           0        1.368259   -0.738242   -0.087875
     10          1           0        1.184510   -1.519047    0.523165
     11          7           0       -1.209763    1.831292   -0.492194
     12          1           0       -1.673943    1.458507   -1.303920
     13          6           0       -1.774861    2.988264    0.162838
     14          1           0       -2.135294    2.736334    1.162192
     15          1           0       -1.038608    3.786575    0.258009
     16          1           0       -2.609653    3.353290   -0.427832
     17          6           0        2.627083   -0.272161   -0.166042
     18          6           0        3.657111   -1.023377    0.612249
     19          1           0        3.264003   -1.911540    1.102647
     20          1           0        4.469215   -1.306403   -0.056489
     21          1           0        4.074529   -0.355837    1.366542
     22          8           0        2.924480    0.710069   -0.843894
     23          6           0       -1.645340   -1.751829    0.079219
     24          1           0       -1.237038   -2.763016    0.190992
     25          6           0       -3.098592   -1.886813   -0.333331
     26          1           0       -3.559385   -0.896935   -0.417335
     27          1           0       -3.195821   -2.380166   -1.302805
     28          1           0       -3.669380   -2.462913    0.397573
     29          6           0       -0.853563   -1.077804   -1.061392
     30          1           0       -0.413799   -1.849367   -1.696139
     31          1           0       -1.561937   -0.554385   -1.710917
 ---------------------------------------------------------------------
 Rotational constants (GHZ):      0.9551915      0.5745266      0.4270384
 Leave Link  202 at Wed Jun 18 06:29:23 2014, MaxMem=  4294967296 cpu:         1.9
 (Enter /home/ztw1e12/g09/l301.exe)
 Standard basis: CC-pVTZ (5D, 7F)
 Converting basis for Fermi contact spin-spin IFCMod=1.
 AO basis functions are being uncontracted.
 Ernie: Thresh=  0.10000D-02 Tol=  0.10000D-05 Strict=F.
 There are  1119 symmetry adapted cartesian basis functions of A   symmetry.
 There are  1036 symmetry adapted basis functions of A   symmetry.
  1036 basis functions,  1119 primitive gaussians,  1119 cartesian basis functions
    51 alpha electrons       51 beta electrons
       nuclear repulsion energy       878.5076705440 Hartrees.
 IExCor= 4235 DFT=T Ex+Corr=M06 ExCW=0 ScaHFX=  0.270000
 ScaDFX=  1.000000  1.000000  1.000000  1.000000 ScalE2=  1.000000  1.000000
 IRadAn= 199590 IRanWt=     -1 IRanGd=            0 ICorTp=0 IEmpDi=  4
 NAtoms=   31 NActive=   31 NUniq=   31 SFac= 1.00D+00 NAtFMM=   60 NAOKFM=F Big=F
 Integral buffers will be    131072 words long.
 Raffenetti 2 integral format.
 Two-electron integral symmetry is turned on.
 Leave Link  301 at Wed Jun 18 06:29:24 2014, MaxMem=  4294967296 cpu:         4.4
 (Enter /home/ztw1e12/g09/l302.exe)
 NPDir=0 NMtPBC=     1 NCelOv=     1 NCel=       1 NClECP=     1 NCelD=      1
         NCelK=      1 NCelE2=     1 NClLst=     1 CellRange=     0.0.
 One-electron integrals computed using PRISM.
 GSVD:  received Info=                   1 from GESDD.
 NBasis=  1036 RedAO= T EigKep=  1.26D-04  NBF=  1036
 NBsUse=   932 1.00D-06 EigRej=  5.55D-15 NBFU=   932
 Precomputing XC quadrature grid using
 IXCGrd= 4 IRadAn=      199590 IRanWt=          -1 IRanGd=           0 AccXCQ= 0.00D+00.
 Generated NRdTot=       0 NPtTot=           0 NUsed=           0 NTot=          32
 NSgBfM=   881   881   881   881   881 MxSgAt=    31 MxSgA2=    31.
 Leave Link  302 at Wed Jun 18 06:29:28 2014, MaxMem=  4294967296 cpu:        65.0
 (Enter /home/ztw1e12/g09/l308.exe)
 Leave Link  308 at Wed Jun 18 06:29:29 2014, MaxMem=  4294967296 cpu:         5.6
 (Enter /home/ztw1e12/g09/l303.exe)
 DipDrv:  MaxL=1.
 Leave Link  303 at Wed Jun 18 06:29:29 2014, MaxMem=  4294967296 cpu:         3.3
 (Enter /home/ztw1e12/g09/l401.exe)
 ExpMin= 1.03D-01 ExpMax= 1.38D+05 ExpMxC= 1.38D+05 IAcc=4 IRadAn=    199590 AccDes= 0.00D+00
 Harris functional with IExCor= 1009 and IRadAn=  199590 diagonalized for initial guess.
 HarFok:  IExCor= 1009 AccDes= 0.00D+00 IRadAn=    199590 IDoV= 1 UseB2=F ITyADJ=14
 ICtDFT=  3500011 ScaDFX=  1.000000  1.000000  1.000000  1.000000
 FoFCou: FMM=F IPFlag=           0 FMFlag=      100000 FMFlg1=           0
         NFxFlg=           0 DoJE=T BraDBF=F KetDBF=T FulRan=T
         wScrn=  0.000000 ICntrl=     500 IOpCl=  0 I1Cent=   200000004 NGrid=           0
         NMat0=    1 NMatS0=      1 NMatT0=    0 NMatD0=    1 NMtDS0=    0 NMtDT0=    0
 Petite list used in FoFCou.
 Harris En= -613.558348954610    
 JPrj=0 DoOrth=F DoCkMO=F.
 Leave Link  401 at Wed Jun 18 06:29:47 2014, MaxMem=  4294967296 cpu:       266.0
 (Enter /home/ztw1e12/g09/l502.exe)
 Closed shell SCF:
 Using DIIS extrapolation, IDIIS=  1040.
 Integral symmetry usage will be decided dynamically.
 IVT=     3801329 IEndB=     3801329 NGot=  4294967296 MDV=  4292435888
 LenX=  4292435888 LenY=  4291182608
 Requested convergence on RMS density matrix=1.00D-08 within 128 cycles.
 Requested convergence on MAX density matrix=1.00D-06.
 Requested convergence on             energy=1.00D-06.
 No special actions if energy rises.
 Fock matrices will be formed incrementally for  20 cycles.
 Integral accuracy reduced to 1.0D-05 until final iterations.

 Cycle   1  Pass 0  IDiag  1:
 FoFJK:  IHMeth= 1 ICntrl=       0 DoSepK=F KAlg= 0 I1Cent=   0 FoldK=F
 IRaf= 490000000 NMat=   1 IRICut=       1 DoRegI=T DoRafI=F ISym2E= 0.
 FoFCou: FMM=F IPFlag=           0 FMFlag=      100000 FMFlg1=           0
         NFxFlg=           0 DoJE=F BraDBF=F KetDBF=F FulRan=T
         wScrn=  0.000000 ICntrl=       0 IOpCl=  0 I1Cent=           0 NGrid=           0
         NMat0=    1 NMatS0=      1 NMatT0=    0 NMatD0=    1 NMtDS0=    0 NMtDT0=    0
 Symmetry not used in FoFCou.
 E= -613.177173321198    
 DIIS: error= 1.25D-01 at cycle   1 NSaved=   1.
 NSaved= 1 IEnMin= 1 EnMin= -613.177173321198     IErMin= 1 ErrMin= 1.25D-01
 ErrMax= 1.25D-01  0.00D+00 EMaxC= 1.00D-01 BMatC= 1.30D+01 BMatP= 1.30D+01
 IDIUse=3 WtCom= 0.00D+00 WtEn= 1.00D+00
 Coeff-Com:  0.100D+01
 Coeff-En:   0.100D+01
 Coeff:      0.100D+01
 Gap=     0.284 Goal=   None    Shift=    0.000
 GapD=    0.284 DampG=1.000 DampE=0.250 DampFc=0.2500 IDamp=-1.
 Damping current iteration by 2.50D-01
 RMSDP=2.15D-03 MaxDP=3.04D-01              OVMax= 2.88D-01

 Cycle   2  Pass 0  IDiag  1:
 RMSU=  5.37D-04    CP:  1.01D+00
 E= -613.333918014290     Delta-E=       -0.156744693091 Rises=F Damp=T
 DIIS: error= 9.44D-02 at cycle   2 NSaved=   2.
 NSaved= 2 IEnMin= 2 EnMin= -613.333918014290     IErMin= 2 ErrMin= 9.44D-02
 ErrMax= 9.44D-02  0.00D+00 EMaxC= 1.00D-01 BMatC= 7.66D+00 BMatP= 1.30D+01
 IDIUse=3 WtCom= 5.60D-02 WtEn= 9.44D-01
 Coeff-Com: -0.279D+01 0.379D+01
 Coeff-En:   0.000D+00 0.100D+01
 Coeff:     -0.156D+00 0.116D+01
 Gap=     0.234 Goal=   None    Shift=    0.000
 RMSDP=5.34D-04 MaxDP=4.76D-02 DE=-1.57D-01 OVMax= 1.46D-01

 Cycle   3  Pass 0  IDiag  1:
 RMSU=  4.54D-04    CP:  1.03D+00  1.52D+00
 E= -613.561262743119     Delta-E=       -0.227344728829 Rises=F Damp=F
 DIIS: error= 1.56D-02 at cycle   3 NSaved=   3.
 NSaved= 3 IEnMin= 3 EnMin= -613.561262743119     IErMin= 3 ErrMin= 1.56D-02
 ErrMax= 1.56D-02  0.00D+00 EMaxC= 1.00D-01 BMatC= 1.70D-01 BMatP= 7.66D+00
 IDIUse=3 WtCom= 8.44D-01 WtEn= 1.56D-01
 Coeff-Com:  0.681D+00-0.955D+00 0.127D+01
 Coeff-En:   0.144D-01 0.000D+00 0.986D+00
 Coeff:      0.577D+00-0.806D+00 0.123D+01
 Gap=     0.247 Goal=   None    Shift=    0.000
 RMSDP=3.78D-04 MaxDP=3.19D-02 DE=-2.27D-01 OVMax= 7.24D-02

 Cycle   4  Pass 0  IDiag  1:
 RMSU=  3.16D-04    CP:  1.03D+00  1.19D+00  7.48D-01
 E= -613.529491491469     Delta-E=        0.031771251650 Rises=F Damp=F
 DIIS: error= 8.66D-03 at cycle   4 NSaved=   4.
 NSaved= 4 IEnMin= 3 EnMin= -613.561262743119     IErMin= 4 ErrMin= 8.66D-03
 ErrMax= 8.66D-03  0.00D+00 EMaxC= 1.00D-01 BMatC= 1.13D-01 BMatP= 1.70D-01
 IDIUse=3 WtCom= 9.13D-01 WtEn= 8.66D-02
 Coeff-Com:  0.484D+00-0.678D+00 0.681D+00 0.513D+00
 Coeff-En:   0.000D+00 0.000D+00 0.620D+00 0.380D+00
 Coeff:      0.442D+00-0.620D+00 0.676D+00 0.502D+00
 Gap=     0.275 Goal=   None    Shift=    0.000
 RMSDP=2.89D-04 MaxDP=2.95D-02 DE= 3.18D-02 OVMax= 7.24D-02

 Cycle   5  Pass 0  IDiag  1:
 RMSU=  7.17D-05    CP:  1.02D+00  1.11D+00  8.55D-01  1.41D-01
 E= -613.612790624684     Delta-E=       -0.083299133215 Rises=F Damp=F
 DIIS: error= 2.43D-03 at cycle   5 NSaved=   5.
 NSaved= 5 IEnMin= 5 EnMin= -613.612790624684     IErMin= 5 ErrMin= 2.43D-03
 ErrMax= 2.43D-03  0.00D+00 EMaxC= 1.00D-01 BMatC= 9.98D-03 BMatP= 1.13D-01
 IDIUse=3 WtCom= 9.76D-01 WtEn= 2.43D-02
 Coeff-Com:  0.346D-01-0.546D-01 0.640D-01 0.225D+00 0.731D+00
 Coeff-En:   0.000D+00 0.000D+00 0.000D+00 0.238D-01 0.976D+00
 Coeff:      0.337D-01-0.533D-01 0.625D-01 0.221D+00 0.737D+00
 Gap=     0.264 Goal=   None    Shift=    0.000
 RMSDP=1.23D-04 MaxDP=1.87D-02 DE=-8.33D-02 OVMax= 2.21D-02

 Cycle   6  Pass 0  IDiag  1:
 RMSU=  5.14D-05    CP:  1.03D+00  1.16D+00  9.29D-01  4.31D-01  3.69D-01
 E= -613.618590206133     Delta-E=       -0.005799581449 Rises=F Damp=F
 DIIS: error= 7.09D-04 at cycle   6 NSaved=   6.
 NSaved= 6 IEnMin= 6 EnMin= -613.618590206133     IErMin= 6 ErrMin= 7.09D-04
 ErrMax= 7.09D-04  0.00D+00 EMaxC= 1.00D-01 BMatC= 7.69D-04 BMatP= 9.98D-03
 IDIUse=3 WtCom= 9.93D-01 WtEn= 7.09D-03
 Coeff-Com:  0.151D-01-0.210D-01-0.250D-02 0.555D-01 0.270D+00 0.683D+00
 Coeff-En:   0.000D+00 0.000D+00 0.000D+00 0.000D+00 0.000D+00 0.100D+01
 Coeff:      0.149D-01-0.208D-01-0.248D-02 0.551D-01 0.268D+00 0.685D+00
 Gap=     0.265 Goal=   None    Shift=    0.000
 RMSDP=2.64D-05 MaxDP=3.74D-03 DE=-5.80D-03 OVMax= 6.16D-03

 Cycle   7  Pass 0  IDiag  1:
 RMSU=  1.90D-05    CP:  1.03D+00  1.14D+00  9.21D-01  4.24D-01  5.33D-01
                    CP:  9.40D-01
 E= -613.619030370189     Delta-E=       -0.000440164056 Rises=F Damp=F
 DIIS: error= 3.52D-04 at cycle   7 NSaved=   7.
 NSaved= 7 IEnMin= 7 EnMin= -613.619030370189     IErMin= 7 ErrMin= 3.52D-04
 ErrMax= 3.52D-04  0.00D+00 EMaxC= 1.00D-01 BMatC= 1.62D-04 BMatP= 7.69D-04
 IDIUse=3 WtCom= 9.96D-01 WtEn= 3.52D-03
 Coeff-Com:  0.125D-01-0.167D-01-0.118D-02 0.160D-01 0.885D-01 0.376D+00
 Coeff-Com:  0.524D+00
 Coeff-En:   0.000D+00 0.000D+00 0.000D+00 0.000D+00 0.000D+00 0.142D+00
 Coeff-En:   0.858D+00
 Coeff:      0.125D-01-0.166D-01-0.118D-02 0.159D-01 0.882D-01 0.376D+00
 Coeff:      0.526D+00
 Gap=     0.265 Goal=   None    Shift=    0.000
 RMSDP=9.34D-06 MaxDP=1.04D-03 DE=-4.40D-04 OVMax= 2.35D-03

 Cycle   8  Pass 0  IDiag  1:
 RMSU=  5.46D-06    CP:  1.03D+00  1.13D+00  9.24D-01  4.32D-01  5.18D-01
                    CP:  1.00D+00  6.81D-01
 E= -613.619144408444     Delta-E=       -0.000114038255 Rises=F Damp=F
 DIIS: error= 9.86D-05 at cycle   8 NSaved=   8.
 NSaved= 8 IEnMin= 8 EnMin= -613.619144408444     IErMin= 8 ErrMin= 9.86D-05
 ErrMax= 9.86D-05  0.00D+00 EMaxC= 1.00D-01 BMatC= 1.47D-05 BMatP= 1.62D-04
 IDIUse=1 WtCom= 1.00D+00 WtEn= 0.00D+00
 Coeff-Com:  0.724D-02-0.963D-02 0.519D-03 0.430D-02 0.276D-01 0.167D+00
 Coeff-Com:  0.305D+00 0.498D+00
 Coeff:      0.724D-02-0.963D-02 0.519D-03 0.430D-02 0.276D-01 0.167D+00
 Coeff:      0.305D+00 0.498D+00
 Gap=     0.264 Goal=   None    Shift=    0.000
 RMSDP=3.92D-06 MaxDP=4.78D-04 DE=-1.14D-04 OVMax= 9.42D-04

 Initial convergence to 1.0D-05 achieved.  Increase integral accuracy.
 Cycle   9  Pass 1  IDiag  1:
 E= -613.619156223032     Delta-E=       -0.000011814589 Rises=F Damp=F
 DIIS: error= 7.52D-05 at cycle   1 NSaved=   1.
 NSaved= 1 IEnMin= 1 EnMin= -613.619156223032     IErMin= 1 ErrMin= 7.52D-05
 ErrMax= 7.52D-05  0.00D+00 EMaxC= 1.00D-01 BMatC= 8.35D-06 BMatP= 8.35D-06
 IDIUse=1 WtCom= 1.00D+00 WtEn= 0.00D+00
 Coeff-Com:  0.100D+01
 Coeff:      0.100D+01
 Gap=     0.265 Goal=   None    Shift=    0.000
 RMSDP=3.92D-06 MaxDP=4.78D-04 DE=-1.18D-05 OVMax= 8.83D-04

 Cycle  10  Pass 1  IDiag  1:
 RMSU=  2.50D-05    CP:  1.00D+00
 E= -613.619155793500     Delta-E=        0.000000429532 Rises=F Damp=F
 DIIS: error= 7.79D-05 at cycle   2 NSaved=   2.
 NSaved= 2 IEnMin= 1 EnMin= -613.619156223032     IErMin= 1 ErrMin= 7.52D-05
 ErrMax= 7.79D-05  0.00D+00 EMaxC= 1.00D-01 BMatC= 7.51D-06 BMatP= 8.35D-06
 IDIUse=1 WtCom= 1.00D+00 WtEn= 0.00D+00
 Coeff-Com:  0.482D+00 0.518D+00
 Coeff:      0.482D+00 0.518D+00
 Gap=     0.264 Goal=   None    Shift=    0.000
 RMSDP=3.28D-06 MaxDP=4.21D-04 DE= 4.30D-07 OVMax= 9.25D-04

 Cycle  11  Pass 1  IDiag  1:
 RMSU=  3.26D-06    CP:  1.00D+00  9.88D-01
 E= -613.619159306010     Delta-E=       -0.000003512510 Rises=F Damp=F
 DIIS: error= 5.02D-05 at cycle   3 NSaved=   3.
 NSaved= 3 IEnMin= 3 EnMin= -613.619159306010     IErMin= 3 ErrMin= 5.02D-05
 ErrMax= 5.02D-05  0.00D+00 EMaxC= 1.00D-01 BMatC= 2.63D-06 BMatP= 7.51D-06
 IDIUse=1 WtCom= 1.00D+00 WtEn= 0.00D+00
 Coeff-Com:  0.232D-01 0.369D+00 0.608D+00
 Coeff:      0.232D-01 0.369D+00 0.608D+00
 Gap=     0.264 Goal=   None    Shift=    0.000
 RMSDP=1.26D-06 MaxDP=1.31D-04 DE=-3.51D-06 OVMax= 3.57D-04

 Cycle  12  Pass 1  IDiag  1:
 RMSU=  3.79D-07    CP:  1.00D+00  1.01D+00  6.56D-01
 E= -613.619161132690     Delta-E=       -0.000001826680 Rises=F Damp=F
 DIIS: error= 9.65D-06 at cycle   4 NSaved=   4.
 NSaved= 4 IEnMin= 4 EnMin= -613.619161132690     IErMin= 4 ErrMin= 9.65D-06
 ErrMax= 9.65D-06  0.00D+00 EMaxC= 1.00D-01 BMatC= 7.27D-08 BMatP= 2.63D-06
 IDIUse=1 WtCom= 1.00D+00 WtEn= 0.00D+00
 Coeff-Com: -0.207D-03 0.186D+00 0.331D+00 0.483D+00
 Coeff:     -0.207D-03 0.186D+00 0.331D+00 0.483D+00
 Gap=     0.264 Goal=   None    Shift=    0.000
 RMSDP=1.92D-07 MaxDP=1.91D-05 DE=-1.83D-06 OVMax= 3.87D-05

 Cycle  13  Pass 1  IDiag  1:
 RMSU=  1.32D-07    CP:  1.00D+00  1.01D+00  6.60D-01  6.38D-01
 E= -613.619161187393     Delta-E=       -0.000000054703 Rises=F Damp=F
 DIIS: error= 1.18D-06 at cycle   5 NSaved=   5.
 NSaved= 5 IEnMin= 5 EnMin= -613.619161187393     IErMin= 5 ErrMin= 1.18D-06
 ErrMax= 1.18D-06  0.00D+00 EMaxC= 1.00D-01 BMatC= 1.97D-09 BMatP= 7.27D-08
 IDIUse=1 WtCom= 1.00D+00 WtEn= 0.00D+00
 Coeff-Com: -0.152D-02 0.571D-01 0.104D+00 0.208D+00 0.632D+00
 Coeff:     -0.152D-02 0.571D-01 0.104D+00 0.208D+00 0.632D+00
 Gap=     0.264 Goal=   None    Shift=    0.000
 RMSDP=3.66D-08 MaxDP=4.19D-06 DE=-5.47D-08 OVMax= 6.69D-06

 Cycle  14  Pass 1  IDiag  1:
 RMSU=  2.18D-08    CP:  1.00D+00  1.01D+00  6.62D-01  7.11D-01  9.65D-01
 E= -613.619161188509     Delta-E=       -0.000000001116 Rises=F Damp=F
 DIIS: error= 2.44D-07 at cycle   6 NSaved=   6.
 NSaved= 6 IEnMin= 6 EnMin= -613.619161188509     IErMin= 6 ErrMin= 2.44D-07
 ErrMax= 2.44D-07  0.00D+00 EMaxC= 1.00D-01 BMatC= 9.60D-11 BMatP= 1.97D-09
 IDIUse=1 WtCom= 1.00D+00 WtEn= 0.00D+00
 Coeff-Com: -0.599D-03 0.146D-01 0.272D-01 0.617D-01 0.250D+00 0.647D+00
 Coeff:     -0.599D-03 0.146D-01 0.272D-01 0.617D-01 0.250D+00 0.647D+00
 Gap=     0.264 Goal=   None    Shift=    0.000
 RMSDP=1.25D-08 MaxDP=9.19D-07 DE=-1.12D-09 OVMax= 3.32D-06

 Cycle  15  Pass 1  IDiag  1:
 RMSU=  1.06D-08    CP:  1.00D+00  1.01D+00  6.62D-01  7.20D-01  9.91D-01
                    CP:  8.27D-01
 E= -613.619161188577     Delta-E=       -0.000000000068 Rises=F Damp=F
 DIIS: error= 2.07D-07 at cycle   7 NSaved=   7.
 NSaved= 7 IEnMin= 7 EnMin= -613.619161188577     IErMin= 7 ErrMin= 2.07D-07
 ErrMax= 2.07D-07  0.00D+00 EMaxC= 1.00D-01 BMatC= 4.34D-11 BMatP= 9.60D-11
 IDIUse=1 WtCom= 1.00D+00 WtEn= 0.00D+00
 Coeff-Com: -0.126D-03-0.510D-03-0.627D-03 0.266D-02 0.455D-01 0.415D+00
 Coeff-Com:  0.538D+00
 Coeff:     -0.126D-03-0.510D-03-0.627D-03 0.266D-02 0.455D-01 0.415D+00
 Coeff:      0.538D+00
 Gap=     0.264 Goal=   None    Shift=    0.000
 RMSDP=7.87D-09 MaxDP=1.20D-06 DE=-6.84D-11 OVMax= 1.77D-06

 Cycle  16  Pass 1  IDiag  1:
 RMSU=  4.00D-09    CP:  1.00D+00  1.01D+00  6.63D-01  7.28D-01  1.01D+00
                    CP:  9.91D-01  6.94D-01
 E= -613.619161188615     Delta-E=       -0.000000000037 Rises=F Damp=F
 DIIS: error= 6.73D-08 at cycle   8 NSaved=   8.
 NSaved= 8 IEnMin= 8 EnMin= -613.619161188615     IErMin= 8 ErrMin= 6.73D-08
 ErrMax= 6.73D-08  0.00D+00 EMaxC= 1.00D-01 BMatC= 4.78D-12 BMatP= 4.34D-11
 IDIUse=1 WtCom= 1.00D+00 WtEn= 0.00D+00
 Coeff-Com: -0.397D-06-0.217D-02-0.380D-02-0.598D-02-0.308D-02 0.169D+00
 Coeff-Com:  0.315D+00 0.531D+00
 Coeff:     -0.397D-06-0.217D-02-0.380D-02-0.598D-02-0.308D-02 0.169D+00
 Coeff:      0.315D+00 0.531D+00
 Gap=     0.264 Goal=   None    Shift=    0.000
 RMSDP=2.09D-09 MaxDP=1.79D-07 DE=-3.73D-11 OVMax= 3.97D-07

 SCF Done:  E(RM06) =  -613.619161189     A.U. after   16 cycles
            NFock= 16  Conv=0.21D-08     -V/T= 2.0046
 KE= 6.108005125017D+02 PE=-3.188332396956D+03 EE= 1.085405052722D+03
 Leave Link  502 at Wed Jun 18 06:58:58 2014, MaxMem=  4294967296 cpu:     27936.6
 (Enter /home/ztw1e12/g09/l801.exe)
 DoSCS=F DFT=T ScalE2(SS,OS)=  1.000000  1.000000
 Range of M.O.s used for correlation:     1   932
 NBasis=  1036 NAE=    51 NBE=    51 NFC=     0 NFV=     0
 NROrb=    932 NOA=    51 NOB=    51 NVA=   881 NVB=   881

 **** Warning!!: The largest alpha MO coefficient is  0.10451559D+02

 Leave Link  801 at Wed Jun 18 06:58:58 2014, MaxMem=  4294967296 cpu:         0.4
 (Enter /home/ztw1e12/g09/l1002.exe)
 Minotr:  Closed shell wavefunction.
          IDoAtm=1111111111111111111111111111111
          Direct CPHF calculation.
          Differentiating once with respect to Fermi-contact.
          Electric field/nuclear overlap derivatives assumed to be zero.
          Requested convergence is 1.0D-10 RMS, and 1.0D-09 maximum.
          Secondary convergence is 1.0D-12 RMS, and 1.0D-12 maximum.
          NewPWx=T KeepS1=F KeepF1=F KeepIn=T MapXYZ=F SortEE=F KeepMc=T.
          MDV=    4294966050 using IRadAn=  199590.
 Using stored XC quadrature information.
          Solving linear equations simultaneously, MaxMat=       0.
          There are    31 degrees of freedom in the 1st order CPHF.  IDoFFX=0 NUNeed=    31.
     31 vectors produced by pass  0 Test12= 1.45D-17 3.23D-11 XBig12= 4.16D+01 2.57D+00.
 AX will form    31 AO Fock derivatives at one time.
 FoFJK:  IHMeth= 1 ICntrl=       0 DoSepK=F KAlg= 0 I1Cent=   0 FoldK=F
 IRaf= 510000000 NMat=  31 IRICut=       1 DoRegI=T DoRafI=F ISym2E=-1.
 FoFCou: FMM=F IPFlag=           0 FMFlag=      100000 FMFlg1=           0
         NFxFlg=           0 DoJE=F BraDBF=F KetDBF=F FulRan=T
         wScrn=  0.000000 ICntrl=       0 IOpCl=  0 I1Cent=           0 NGrid=           0
         NMat0=   31 NMatS0=      0 NMatT0=   31 NMatD0=   31 NMtDS0=    0 NMtDT0=    0
 Petite list used in FoFCou.
     31 vectors produced by pass  1 Test12= 1.45D-17 3.23D-11 XBig12= 3.44D-01 1.76D-01.
     31 vectors produced by pass  2 Test12= 1.45D-17 3.23D-11 XBig12= 1.67D-02 4.60D-02.
     31 vectors produced by pass  3 Test12= 1.45D-17 3.23D-11 XBig12= 3.72D-04 6.40D-03.
     31 vectors produced by pass  4 Test12= 1.45D-17 3.23D-11 XBig12= 5.36D-06 9.00D-04.
     31 vectors produced by pass  5 Test12= 1.45D-17 3.23D-11 XBig12= 1.21D-07 1.59D-04.
     31 vectors produced by pass  6 Test12= 1.45D-17 3.23D-11 XBig12= 3.71D-09 1.85D-05.
     31 vectors produced by pass  7 Test12= 1.45D-17 3.23D-11 XBig12= 1.10D-10 4.36D-06.
     31 vectors produced by pass  8 Test12= 1.45D-17 3.23D-11 XBig12= 2.46D-12 3.57D-07.
     31 vectors produced by pass  9 Test12= 1.45D-17 3.23D-11 XBig12= 6.56D-14 8.73D-08.
     31 vectors produced by pass 10 Test12= 1.45D-17 3.23D-11 XBig12= 2.80D-15 1.00D-08.
     30 vectors produced by pass 11 Test12= 1.45D-17 3.23D-11 XBig12= 3.09D-17 7.75D-10.
      4 vectors produced by pass 12 Test12= 1.45D-17 3.23D-11 XBig12= 3.69D-19 4.72D-11.
 InvSVY:  IOpt=1 It=  1 EMax= 6.22D-15
 Solved reduced A of dimension   375 with    31 vectors.
 Max diff in FC couplings:  IJMax=     9     1 Diff= 4.91D-04 IJMaxR=    19    13 DiffR= 6.93D-01
 Fermi Contact (FC) contribution to K (Hz):
                1             2             3             4             5 
      1  0.123400D+11
      2  0.267624D+02  0.123400D+11
      3 -0.130281D+01  0.187264D+02  0.123400D+11
      4  0.218649D+00  0.154649D+01  0.271208D-01  0.123400D+11
      5  0.265798D-01  0.131295D+00  0.332162D-02  0.167854D+02  0.123400D+11
      6  0.493251D-01  0.355383D-01  0.126169D-01  0.175531D+02 -0.866629D+00
      7  0.163880D-01  0.489895D-01  0.487029D-02  0.172067D+02 -0.842577D+00
      8 -0.961171D+01  0.283369D+01  0.352132D+00  0.107234D+01  0.177662D+00
      9  0.238181D+00  0.191949D+02 -0.874632D+00  0.787070D+00  0.532349D-01
     10 -0.486837D-01  0.246643D+00  0.272417D+00  0.111741D-01  0.152558D-03
     11  0.282454D+02  0.131754D+02 -0.167480D-01  0.306686D+00  0.471523D-01
     12  0.465949D+00  0.625098D-01 -0.204510D-01 -0.983744D-02 -0.162240D-02
     13 -0.439903D+00  0.949905D+00 -0.657909D-01  0.127509D-02 -0.243501D-03
     14  0.218177D+00 -0.871442D-01  0.335679D-01  0.116400D-01  0.203052D-02
     15  0.151701D+00 -0.804269D-01  0.267271D-01  0.474906D-02  0.172514D-02
     16  0.953437D+00 -0.136220D-01  0.699544D-03  0.268707D-02  0.272268D-03
     17  0.109292D-01 -0.531864D+00  0.415710D+00  0.299902D-01  0.422104D-02
     18 -0.154158D+00  0.889769D+00 -0.852864D-01 -0.285281D-02 -0.322335D-03
     19 -0.218711D-03  0.109095D+00 -0.277109D-02 -0.982594D-03 -0.247926D-04
     20  0.495330D-01  0.234547D-01  0.738166D-02  0.123059D-02  0.154933D-03
     21  0.936138D-01  0.394613D-01  0.161448D-01  0.618366D-03  0.144475D-03
     22  0.431380D+00  0.782957D+00  0.117228D+00  0.755329D-01  0.191715D-02
     23  0.579651D+00 -0.586067D+00  0.112974D+01  0.170462D+02 -0.672545D+00
     24 -0.917560D-02  0.479561D-01 -0.205563D-01 -0.810206D+00  0.149910D+00
     25 -0.590805D-01  0.132882D+01 -0.460919D-01 -0.164354D+00  0.339718D+00
     26  0.582781D-02 -0.100720D-01  0.296356D-02  0.475882D+00 -0.610429D-02
     27  0.100296D-02  0.483413D-02 -0.109723D-02  0.136430D+01  0.802344D-02
     28 -0.868316D-03  0.173071D+00  0.171402D-02  0.270333D+00 -0.869003D-02
     29 -0.377024D-01  0.172709D+02 -0.911907D+00 -0.308879D+00  0.122351D+01
     30  0.107806D+01 -0.917872D+00  0.143256D+00  0.595245D+00 -0.358258D-02
     31  0.103012D+00 -0.555520D+00  0.161867D+00  0.343062D-01 -0.133481D-01
                6             7             8             9            10 
      6  0.123400D+11
      7 -0.774824D+00  0.123400D+11
      8  0.169722D+00  0.187389D+00  0.123400D+11
      9  0.249415D+00  0.122941D-01  0.500992D+00  0.123400D+11
     10 -0.190570D-01 -0.103785D-02 -0.108023D-01  0.312041D+02  0.123400D+11
     11 -0.105579D-01  0.771452D-01  0.638660D+01  0.743782D+00  0.626991D-01
     12  0.901347D-03 -0.457131D-03  0.483159D+00  0.315884D-01 -0.162967D-02
     13 -0.400281D-03  0.206398D-01  0.672981D+00  0.262884D+00 -0.275147D-02
     14  0.153005D-03  0.786124D-02  0.255490D+00 -0.708501D-02  0.105362D-02
     15  0.139036D-03  0.212006D-02  0.238208D+00 -0.892205D-03  0.436760D-03
     16 -0.590438D-04  0.887971D-03  0.189467D+00  0.344742D-01 -0.495835D-03
     17  0.221644D-01 -0.511934D-04  0.133475D+00  0.265445D+02  0.369858D+00
     18  0.163934D-02  0.205374D-03  0.684001D-01  0.129997D+02  0.113843D+00
     19  0.588681D-03  0.552127D-04 -0.169022D-03  0.351673D+00 -0.119831D-01
     20  0.229523D-03 -0.296755D-04  0.555131D-02  0.382037D+00 -0.431123D-02
     21  0.233067D-03  0.934064D-04  0.335423D-02  0.350369D+00 -0.171751D-01
     22  0.393694D-03  0.476593D-03  0.610094D+00  0.570283D+01  0.369811D+00
     23 -0.546820D+00 -0.732824D+00  0.471067D-01  0.277763D+00 -0.144506D-01
     24  0.138432D+00  0.439523D+00  0.784017D-02 -0.449304D-02  0.105035D-02
     25  0.145834D+01  0.425301D+00  0.242558D-01  0.268096D-01  0.319689D-02
     26 -0.909813D-02 -0.140342D-01  0.264154D-03  0.218854D-01  0.396513D-03
     27  0.875631D-01 -0.983519D-02  0.341016D-02  0.114359D-02 -0.154072D-03
     28  0.312849D-02 -0.333785D-02 -0.740495D-03 -0.345146D-02  0.754852D-03
     29  0.204536D+00  0.268840D+00  0.391497D+00  0.928093D+00  0.371735D+00
     30 -0.802210D-02 -0.158822D-01  0.894793D-01  0.486435D+00 -0.951555D-02
     31 -0.495489D-02 -0.696567D-02 -0.226818D-01  0.190236D+01 -0.200977D-01
               11            12            13            14            15 
     11  0.123400D+11
     12  0.311527D+02  0.123400D+11
     13  0.170938D+02  0.313219D+00  0.123400D+11
     14 -0.600665D+00  0.720323D-01  0.196934D+02  0.123400D+11
     15 -0.511904D+00  0.140433D+00  0.202935D+02 -0.733686D+00  0.123400D+11
     16 -0.364606D+00  0.289954D+00  0.182232D+02 -0.736842D+00 -0.752950D+00
     17 -0.559505D-01 -0.141158D-02 -0.152479D-01  0.151426D-02  0.168765D-02
     18  0.145377D-01  0.168950D-02  0.131296D-01 -0.195766D-03  0.138564D-03
     19  0.458226D-02 -0.212509D-04 -0.221990D-04 -0.160667D-04 -0.889045D-05
     20 -0.159294D-02 -0.356093D-04 -0.331472D-03  0.288886D-04  0.635625D-05
     21  0.259226D-01  0.920626D-04  0.393461D-02 -0.753550D-04 -0.136813D-03
     22  0.188801D+00 -0.176870D-02  0.129758D-01  0.442929D-03  0.122049D-02
     23  0.165738D-01  0.661340D-02 -0.101732D-02  0.815486D-03 -0.627584D-03
     24  0.547654D-01 -0.341988D-02 -0.571398D-03  0.204611D-02  0.376935D-03
     25  0.243240D-01 -0.137850D-02 -0.413344D-02  0.273359D-02  0.231897D-02
     26  0.242948D-01  0.156862D-02  0.465049D-03  0.633205D-03  0.881895D-03
     27  0.349808D-02 -0.156359D-04  0.424482D-04  0.210354D-03  0.488429D-04
     28  0.147764D-02  0.508971D-03 -0.747683D-03  0.220424D-03  0.373455D-03
     29 -0.184989D-01 -0.437855D-01 -0.596435D-01  0.347735D-01  0.882542D-01
     30 -0.395721D-01 -0.112341D-01 -0.665219D-02 -0.199838D-03  0.411239D-02
     31  0.286545D+00 -0.344902D-01  0.101476D-01 -0.142902D-02  0.220698D-02
               16            17            18            19            20 
     16  0.123400D+11
     17  0.764109D-04  0.123400D+11
     18  0.590159D-03  0.273831D+02  0.123400D+11
     19  0.161275D-04 -0.751494D+00  0.169839D+02  0.123400D+11
     20  0.667828D-04 -0.116280D+01  0.179834D+02 -0.712706D+00  0.123400D+11
     21  0.311855D-03 -0.122211D+01  0.179270D+02 -0.749451D+00 -0.922078D+00
     22  0.679990D-03 -0.957747D+01  0.381401D+01  0.825119D+00  0.424145D+00
     23 -0.115646D-02 -0.759414D-01  0.213883D-01 -0.864533D-03 -0.121186D-02
     24  0.445333D-03  0.503688D-02 -0.577192D-03 -0.445431D-04  0.326493D-04
     25  0.744389D-03  0.197095D-01  0.192632D-02  0.614549D-03  0.133321D-02
     26  0.296757D-03  0.432048D-02  0.184474D-03 -0.457514D-05  0.194571D-04
     27  0.114834D-05  0.545528D-03 -0.154694D-04  0.786167D-05  0.436246D-04
     28  0.493858D-04  0.401825D-02 -0.379345D-03  0.308404D-04  0.196873D-03
     29  0.583261D-02  0.125594D+01 -0.362446D-01 -0.329377D-02  0.266636D-01
     30  0.128834D-02 -0.118156D-01  0.812230D-02  0.175361D-03 -0.214298D-03
     31  0.109029D-02  0.969228D-01  0.620622D-01 -0.119478D-03  0.367170D-02
               21            22            23            24            25 
     21  0.123400D+11
     22  0.446644D+00  0.123400D+11
     23 -0.539340D-03  0.133571D+00  0.123400D+11
     24  0.703009D-05 -0.184389D-02  0.166855D+02  0.123400D+11
     25 -0.237109D-03  0.116318D-01  0.175392D+02 -0.777166D+00  0.123400D+11
     26 -0.176652D-04 -0.310731D-03 -0.739651D+00  0.380630D+00  0.171381D+02
     27 -0.166451D-04  0.214073D-03 -0.628669D+00  0.142609D+00  0.173558D+02
     28 -0.710495D-04  0.527963D-02 -0.535815D+00  0.131823D+00  0.175820D+02
     29 -0.453071D-02  0.133436D+00  0.172174D+02 -0.740381D+00  0.255131D+00
     30 -0.882267D-03 -0.762221D-03 -0.543711D+00  0.361701D+00  0.361084D-01
     31 -0.210392D-02  0.617510D-02 -0.711429D+00  0.201609D+00  0.113859D+01
               26            27            28            29            30 
     26  0.123400D+11
     27 -0.757820D+00  0.123400D+11
     28 -0.749374D+00 -0.768629D+00  0.123400D+11
     29  0.413594D+00  0.372741D+00  0.145347D+01  0.123400D+11
     30 -0.593837D-02 -0.543874D-02 -0.209113D-01  0.179410D+02  0.123400D+11
     31 -0.197240D-01 -0.235621D-02  0.313677D-01  0.162775D+02 -0.943898D+00
               31 
     31  0.123400D+11
 Fermi Contact (FC) contribution to J (Hz):
                1             2             3             4             5 
      1  0.243533D+11
      2  0.528162D+02  0.243533D+11
      3 -0.102230D+02  0.146944D+03  0.385007D+12
      4  0.431509D+00  0.305203D+01  0.212815D+00  0.243533D+11
      5  0.208569D+00  0.103026D+01  0.103634D+00  0.131714D+03  0.385007D+12
      6  0.387049D+00  0.278865D+00  0.393645D+00  0.137738D+03 -0.270388D+02
      7  0.128595D+00  0.384416D+00  0.151953D+00  0.135019D+03 -0.262884D+02
      8  0.102286D+02 -0.301556D+01 -0.148997D+01 -0.114116D+01 -0.751738D+00
      9  0.135099D+00  0.108876D+02 -0.197254D+01  0.446436D+00  0.120060D+00
     10 -0.382017D+00  0.193538D+01  0.849940D+01  0.876822D-01  0.475981D-02
     11  0.160212D+02  0.747324D+01 -0.377716D-01  0.173956D+00  0.106342D+00
     12  0.365625D+01  0.490508D+00 -0.638072D+00 -0.771935D-01 -0.506188D-01
     13 -0.868160D+00  0.187466D+01 -0.516255D+00  0.251642D-02 -0.191073D-02
     14  0.171202D+01 -0.683812D+00  0.104732D+01  0.913381D-01  0.633522D-01
     15  0.119039D+01 -0.631102D+00  0.833886D+00  0.372654D-01  0.538244D-01
     16  0.748153D+01 -0.106890D+00  0.218257D-01  0.210852D-01  0.849476D-02
     17  0.215690D-01 -0.104965D+01  0.326204D+01  0.591865D-01  0.331221D-01
     18 -0.304234D+00  0.175598D+01 -0.669234D+00 -0.563008D-02 -0.252933D-02
     19 -0.171620D-02  0.856056D+00 -0.864580D-01 -0.771032D-02 -0.773527D-03
     20  0.388681D+00  0.184047D+00  0.230307D+00  0.965634D-02  0.483392D-02
     21  0.734578D+00  0.309649D+00  0.503717D+00  0.485226D-02  0.450763D-02
     22 -0.459066D+00 -0.833208D+00 -0.496025D+00 -0.803806D-01 -0.811198D-02
     23  0.114395D+01 -0.115662D+01  0.886495D+01  0.336411D+02 -0.527740D+01
     24 -0.720000D-01  0.376307D+00 -0.641354D+00 -0.635761D+01  0.467720D+01
     25 -0.116597D+00  0.262246D+01 -0.361679D+00 -0.324357D+00  0.266573D+01
     26  0.457302D-01 -0.790342D-01  0.924631D-01  0.373420D+01 -0.190454D+00
     27  0.787010D-02  0.379330D-01 -0.342335D-01  0.107056D+02  0.250331D+00
     28 -0.681359D-02  0.135808D+01  0.534774D-01  0.212128D+01 -0.271128D+00
     29 -0.744065D-01  0.340845D+02 -0.715565D+01 -0.609580D+00  0.960075D+01
     30  0.845944D+01 -0.720246D+01  0.446957D+01  0.467083D+01 -0.111776D+00
     31  0.808326D+00 -0.435911D+01  0.505024D+01  0.269197D+00 -0.416460D+00
                6             7             8             9            10 
      6  0.385007D+12
      7 -0.241745D+02  0.385007D+12
      8 -0.718142D+00 -0.792895D+00  0.708114D+10
      9  0.562501D+00  0.277267D-01 -0.153232D+00  0.201170D+10
     10 -0.594577D+00 -0.323809D-01  0.457076D-01  0.703742D+02  0.385007D+12
     11 -0.238111D-01  0.173984D+00 -0.195339D+01  0.121254D+00  0.141404D+00
     12  0.281220D-01 -0.142625D-01 -0.204438D+01  0.712408D-01 -0.508456D-01
     13 -0.314096D-02  0.161959D+00 -0.716174D+00  0.149111D+00 -0.215905D-01
     14  0.477375D-02  0.245270D+00 -0.108105D+01 -0.159787D-01  0.328729D-01
     15  0.433793D-02  0.661458D-01 -0.100792D+01 -0.201218D-02  0.136269D-01
     16 -0.184216D-02  0.277047D-01 -0.801688D+00  0.777491D-01 -0.154700D-01
     17  0.173922D+00 -0.401710D-03 -0.142041D+00  0.150564D+02  0.290224D+01
     18  0.128637D-01  0.161155D-02 -0.727901D-01  0.737357D+01  0.893315D+00
     19  0.183668D-01  0.172263D-02  0.715180D-03  0.793123D+00 -0.373874D+00
     20  0.716111D-02 -0.925874D-03 -0.234891D-01  0.861602D+00 -0.134510D+00
     21  0.727168D-02  0.291427D-02 -0.141926D-01  0.790181D+00 -0.535863D+00
     22 -0.166583D-02 -0.201660D-02  0.350094D+00 -0.174425D+01 -0.156477D+01
     23 -0.429084D+01 -0.575040D+01 -0.501301D-01  0.157550D+00 -0.113392D+00
     24  0.431908D+01  0.137131D+02 -0.331739D-01 -0.101331D-01  0.327708D-01
     25  0.114434D+02  0.333729D+01 -0.258126D-01  0.152068D-01  0.250857D-01
     26 -0.283861D+00 -0.437865D+00 -0.111771D-02  0.493579D-01  0.123712D-01
     27  0.273196D+01 -0.306858D+00 -0.144293D-01  0.257911D-02 -0.480703D-02
     28  0.976088D-01 -0.104141D+00  0.313323D-02 -0.778402D-02  0.235514D-01
     29  0.160498D+01  0.210956D+01 -0.416623D+00  0.526426D+00  0.291697D+01
     30 -0.250289D+00 -0.495524D+00 -0.378612D+00  0.109705D+01 -0.296885D+00
     31 -0.154592D+00 -0.217329D+00  0.959730D-01  0.429036D+01 -0.627048D+00
               11            12            13            14            15 
     11  0.201170D+10
     12  0.702581D+02  0.385007D+12
     13  0.969579D+01  0.245780D+01  0.243533D+11
     14 -0.135467D+01  0.224740D+01  0.154532D+03  0.385007D+12
     15 -0.115449D+01  0.438149D+01  0.159241D+03 -0.228910D+02  0.385007D+12
     16 -0.822291D+00  0.904655D+01  0.142996D+03 -0.229894D+02 -0.234920D+02
     17 -0.317358D-01 -0.110765D-01 -0.300921D-01  0.118823D-01  0.132428D-01
     18  0.824598D-02  0.132574D-01  0.259116D-01 -0.153616D-02  0.108730D-02
     19  0.103343D-01 -0.663028D-03 -0.174193D-03 -0.501280D-03 -0.277382D-03
     20 -0.359254D-02 -0.111101D-02 -0.260103D-02  0.901322D-03  0.198315D-03
     21  0.584629D-01  0.287235D-02  0.308745D-01 -0.235107D-02 -0.426856D-02
     22 -0.577460D-01  0.748384D-02 -0.138086D-01 -0.187416D-02 -0.516424D-02
     23  0.940087D-02  0.518947D-01 -0.200770D-02  0.639904D-02 -0.492459D-02
     24  0.123512D+00 -0.106700D+00 -0.448370D-02  0.638385D-01  0.117603D-01
     25  0.137968D-01 -0.108169D-01 -0.815745D-02  0.214502D-01  0.181968D-01
     26  0.547917D-01  0.489409D-01  0.364919D-02  0.197560D-01  0.275151D-01
     27  0.788917D-02 -0.487840D-03  0.333087D-03  0.656302D-02  0.152390D-02
     28  0.333249D-02  0.158799D-01 -0.586700D-02  0.687722D-02  0.116518D-01
     29 -0.104928D-01 -0.343580D+00 -0.117708D+00  0.272864D+00  0.692522D+00
     30 -0.892463D-01 -0.350505D+00 -0.521991D-01 -0.623493D-02  0.128306D+00
     31  0.646241D+00 -0.107609D+01  0.796276D-01 -0.445853D-01  0.688577D-01
               16            17            18            19            20 
     16  0.385007D+12
     17  0.599589D-03  0.243533D+11
     18  0.463092D-02  0.540413D+02  0.243533D+11
     19  0.503177D-03 -0.589690D+01  0.133271D+03  0.385007D+12
     20  0.208362D-02 -0.912435D+01  0.141114D+03 -0.222364D+02  0.385007D+12
     21  0.972986D-02 -0.958974D+01  0.140671D+03 -0.233829D+02 -0.287688D+02
     22 -0.287722D-02  0.101922D+02 -0.405880D+01 -0.349130D+01 -0.179467D+01
     23 -0.907464D-02 -0.149872D+00  0.422103D-01 -0.678390D-02 -0.950938D-02
     24  0.138944D-01  0.395239D-01 -0.452917D-02 -0.138974D-02  0.101866D-02
     25  0.584115D-02  0.388973D-01  0.380165D-02  0.482231D-02  0.104616D-01
     26  0.925879D-02  0.339024D-01  0.144755D-02 -0.142744D-03  0.607060D-03
     27  0.358283D-04  0.428071D-02 -0.121387D-03  0.245284D-03  0.136109D-02
     28  0.154084D-02  0.315308D-01 -0.297669D-02  0.962218D-03  0.614243D-02
     29  0.457679D-01  0.247864D+01 -0.715295D-01 -0.258459D-01  0.209227D+00
     30  0.401960D-01 -0.927161D-01  0.637349D-01  0.547125D-02 -0.668610D-02
     31  0.340170D-01  0.760544D+00  0.486996D+00 -0.372772D-02  0.114557D+00
               21            22            23            24            25 
     21  0.385007D+12
     22 -0.188987D+01  0.708114D+10
     23 -0.423215D-02 -0.142143D+00  0.243533D+11
     24  0.219339D-03  0.780199D-02  0.130930D+03  0.385007D+12
     25 -0.186057D-02 -0.123783D-01  0.346141D+02 -0.609835D+01  0.243533D+11
     26 -0.551153D-03  0.131479D-02 -0.580397D+01  0.118756D+02  0.134481D+03
     27 -0.519325D-03 -0.905800D-03 -0.493310D+01  0.444941D+01  0.136189D+03
     28 -0.221674D-02 -0.223396D-01 -0.420449D+01  0.411286D+01  0.137964D+03
     29 -0.355521D-01 -0.142000D+00  0.339789D+02 -0.580970D+01  0.503506D+00
     30 -0.275267D-01  0.322517D-02 -0.426645D+01  0.112850D+02  0.283339D+00
     31 -0.656423D-01 -0.261285D-01 -0.558252D+01  0.629018D+01  0.893438D+01
               26            27            28            29            30 
     26  0.385007D+12
     27 -0.236439D+02  0.385007D+12
     28 -0.233805D+02 -0.239812D+02  0.385007D+12
     29  0.324543D+01  0.292487D+01  0.114052D+02  0.243533D+11
     30 -0.185277D+00 -0.169688D+00 -0.652431D+00  0.140781D+03  0.385007D+12
     31 -0.615389D+00 -0.735138D-01  0.978670D+00  0.127728D+03 -0.294496D+02
               31 
     31  0.385007D+12
 End of Minotr F.D. properties file   721 does not exist.
 End of Minotr F.D. properties file   722 does not exist.
 End of Minotr F.D. properties file   788 does not exist.
 Leave Link 1002 at Wed Jun 18 13:40:29 2014, MaxMem=  4294967296 cpu:    384505.7
 (Enter /home/ztw1e12/g09/l601.exe)
 Copying SCF densities to generalized density rwf, IOpCl= 0 IROHF=0.

 **********************************************************************

            Population analysis using the SCF density.

 **********************************************************************

 Orbital symmetries:
       Occupied  (A) (A) (A) (A) (A) (A) (A) (A) (A) (A) (A) (A)
                 (A) (A) (A) (A) (A) (A) (A) (A) (A) (A) (A) (A)
                 (A) (A) (A) (A) (A) (A) (A) (A) (A) (A) (A) (A)
                 (A) (A) (A) (A) (A) (A) (A) (A) (A) (A) (A) (A)
                 (A) (A) (A)
       Virtual   (A) (A) (A) (A) (A) (A) (A) (A) (A) (A) (A) (A)
                 (A) (A) (A) (A) (A) (A) (A) (A) (A) (A) (A) (A)
                 (A) (A) (A) (A) (A) (A) (A) (A) (A) (A) (A) (A)
                 (A) (A) (A) (A) (A) (A) (A) (A) (A) (A) (A) (A)
                 (A) (A) (A) (A) (A) (A) (A) (A) (A) (A) (A) (A)
                 (A) (A) (A) (A) (A) (A) (A) (A) (A) (A) (A) (A)
                 (A) (A) (A) (A) (A) (A) (A) (A) (A) (A) (A) (A)
                 (A) (A) (A) (A) (A) (A) (A) (A) (A) (A) (A) (A)
                 (A) (A) (A) (A) (A) (A) (A) (A) (A) (A) (A) (A)
                 (A) (A) (A) (A) (A) (A) (A) (A) (A) (A) (A) (A)
                 (A) (A) (A) (A) (A) (A) (A) (A) (A) (A) (A) (A)
                 (A) (A) (A) (A) (A) (A) (A) (A) (A) (A) (A) (A)
                 (A) (A) (A) (A) (A) (A) (A) (A) (A) (A) (A) (A)
                 (A) (A) (A) (A) (A) (A) (A) (A) (A) (A) (A) (A)
                 (A) (A) (A) (A) (A) (A) (A) (A) (A) (A) (A) (A)
                 (A) (A) (A) (A) (A) (A) (A) (A) (A) (A) (A) (A)
                 (A) (A) (A) (A) (A) (A) (A) (A) (A) (A) (A) (A)
                 (A) (A) (A) (A) (A) (A) (A) (A) (A) (A) (A) (A)
                 (A) (A) (A) (A) (A) (A) (A) (A) (A) (A) (A) (A)
                 (A) (A) (A) (A) (A) (A) (A) (A) (A) (A) (A) (A)
                 (A) (A) (A) (A) (A) (A) (A) (A) (A) (A) (A) (A)
                 (A) (A) (A) (A) (A) (A) (A) (A) (A) (A) (A) (A)
                 (A) (A) (A) (A) (A) (A) (A) (A) (A) (A) (A) (A)
                 (A) (A) (A) (A) (A) (A) (A) (A) (A) (A) (A) (A)
                 (A) (A) (A) (A) (A) (A) (A) (A) (A) (A) (A) (A)
                 (A) (A) (A) (A) (A) (A) (A) (A) (A) (A) (A) (A)
                 (A) (A) (A) (A) (A) (A) (A) (A) (A) (A) (A) (A)
                 (A) (A) (A) (A) (A) (A) (A) (A) (A) (A) (A) (A)
                 (A) (A) (A) (A) (A) (A) (A) (A) (A) (A) (A) (A)
                 (A) (A) (A) (A) (A) (A) (A) (A) (A) (A) (A) (A)
                 (A) (A) (A) (A) (A) (A) (A) (A) (A) (A) (A) (A)
                 (A) (A) (A) (A) (A) (A) (A) (A) (A) (A) (A) (A)
                 (A) (A) (A) (A) (A) (A) (A) (A) (A) (A) (A) (A)
                 (A) (A) (A) (A) (A) (A) (A) (A) (A) (A) (A) (A)
                 (A) (A) (A) (A) (A) (A) (A) (A) (A) (A) (A) (A)
                 (A) (A) (A) (A) (A) (A) (A) (A) (A) (A) (A) (A)
                 (A) (A) (A) (A) (A) (A) (A) (A) (A) (A) (A) (A)
                 (A) (A) (A) (A) (A) (A) (A) (A) (A) (A) (A) (A)
                 (A) (A) (A) (A) (A) (A) (A) (A) (A) (A) (A) (A)
                 (A) (A) (A) (A) (A) (A) (A) (A) (A) (A) (A) (A)
                 (A) (A) (A) (A) (A) (A) (A) (A) (A) (A) (A) (A)
                 (A) (A) (A) (A) (A) (A) (A) (A) (A) (A) (A) (A)
                 (A) (A) (A) (A) (A) (A) (A) (A) (A) (A) (A) (A)
                 (A) (A) (A) (A) (A) (A) (A) (A) (A) (A) (A) (A)
                 (A) (A) (A) (A) (A) (A) (A) (A) (A) (A) (A) (A)
                 (A) (A) (A) (A) (A) (A) (A) (A) (A) (A) (A) (A)
                 (A) (A) (A) (A) (A) (A) (A) (A) (A) (A) (A) (A)
                 (A) (A) (A) (A) (A) (A) (A) (A) (A) (A) (A) (A)
                 (A) (A) (A) (A) (A) (A) (A) (A) (A) (A) (A) (A)
                 (A) (A) (A) (A) (A) (A) (A) (A) (A) (A) (A) (A)
                 (A) (A) (A) (A) (A) (A) (A) (A) (A) (A) (A) (A)
                 (A) (A) (A) (A) (A) (A) (A) (A) (A) (A) (A) (A)
                 (A) (A) (A) (A) (A) (A) (A) (A) (A) (A) (A) (A)
                 (A) (A) (A) (A) (A) (A) (A) (A) (A) (A) (A) (A)
                 (A) (A) (A) (A) (A) (A) (A) (A) (A) (A) (A) (A)
                 (A) (A) (A) (A) (A) (A) (A) (A) (A) (A) (A) (A)
                 (A) (A) (A) (A) (A) (A) (A) (A) (A) (A) (A) (A)
                 (A) (A) (A) (A) (A) (A) (A) (A) (A) (A) (A) (A)
                 (A) (A) (A) (A) (A) (A) (A) (A) (A) (A) (A) (A)
                 (A) (A) (A) (A) (A) (A) (A) (A) (A) (A) (A) (A)
                 (A) (A) (A) (A) (A) (A) (A) (A) (A) (A) (A) (A)
                 (A) (A) (A) (A) (A) (A) (A) (A) (A) (A) (A) (A)
                 (A) (A) (A) (A) (A) (A) (A) (A) (A) (A) (A) (A)
                 (A) (A) (A) (A) (A) (A) (A) (A) (A) (A) (A) (A)
                 (A) (A) (A) (A) (A) (A) (A) (A) (A) (A) (A) (A)
                 (A) (A) (A) (A) (A) (A) (A) (A) (A) (A) (A) (A)
                 (A) (A) (A) (A) (A) (A) (A) (A) (A) (A) (A) (A)
                 (A) (A) (A) (A) (A) (A) (A) (A) (A) (A) (A) (A)
                 (A) (A) (A) (A) (A) (A) (A) (A) (A) (A) (A) (A)
                 (A) (A) (A) (A) (A) (A) (A) (A) (A) (A) (A) (A)
                 (A) (A) (A) (A) (A) (A) (A) (A) (A) (A) (A) (A)
                 (A) (A) (A) (A) (A) (A) (A) (A) (A) (A) (A) (A)
                 (A) (A) (A) (A) (A) (A) (A) (A) (A) (A) (A) (A)
                 (A) (A) (A) (A) (A)
 The electronic state is 1-A.
 Alpha  occ. eigenvalues --  -19.17216 -19.16062 -14.41995 -14.41258 -10.33558
 Alpha  occ. eigenvalues --  -10.33094 -10.29172 -10.27365 -10.25933 -10.25884
 Alpha  occ. eigenvalues --  -10.24028 -10.23552 -10.23445  -1.05401  -1.03825
 Alpha  occ. eigenvalues --   -0.94456  -0.94114  -0.84068  -0.78655  -0.74204
 Alpha  occ. eigenvalues --   -0.72154  -0.70754  -0.66666  -0.60560  -0.59985
 Alpha  occ. eigenvalues --   -0.58521  -0.55179  -0.50653  -0.49291  -0.48386
 Alpha  occ. eigenvalues --   -0.47454  -0.46559  -0.45351  -0.45165  -0.44355
 Alpha  occ. eigenvalues --   -0.42711  -0.41797  -0.41236  -0.40593  -0.40358
 Alpha  occ. eigenvalues --   -0.39945  -0.38654  -0.38273  -0.36482  -0.35536
 Alpha  occ. eigenvalues --   -0.34806  -0.33517  -0.28196  -0.27627  -0.26255
 Alpha  occ. eigenvalues --   -0.25581
 Alpha virt. eigenvalues --    0.00850   0.02040   0.02505   0.03744   0.04484
 Alpha virt. eigenvalues --    0.04690   0.06632   0.06949   0.07523   0.08064
 Alpha virt. eigenvalues --    0.09187   0.10120   0.10821   0.11402   0.11979
 Alpha virt. eigenvalues --    0.12291   0.12773   0.13025   0.14267   0.15493
 Alpha virt. eigenvalues --    0.16474   0.17107   0.18530   0.19175   0.19980
 Alpha virt. eigenvalues --    0.21065   0.22514   0.22827   0.23978   0.24602
 Alpha virt. eigenvalues --    0.24684   0.26281   0.26923   0.27370   0.27628
 Alpha virt. eigenvalues --    0.28195   0.28399   0.29330   0.29937   0.31819
 Alpha virt. eigenvalues --    0.32738   0.33579   0.34243   0.34522   0.36156
 Alpha virt. eigenvalues --    0.37129   0.37562   0.38372   0.38669   0.39067
 Alpha virt. eigenvalues --    0.39188   0.39543   0.40206   0.40935   0.41357
 Alpha virt. eigenvalues --    0.41436   0.42037   0.42487   0.42825   0.43603
 Alpha virt. eigenvalues --    0.43677   0.43959   0.44772   0.45253   0.45692
 Alpha virt. eigenvalues --    0.46382   0.47007   0.47067   0.48706   0.49124
 Alpha virt. eigenvalues --    0.49613   0.50111   0.51602   0.51853   0.52398
 Alpha virt. eigenvalues --    0.53976   0.54194   0.54422   0.54843   0.56157
 Alpha virt. eigenvalues --    0.57613   0.58189   0.59398   0.59804   0.61114
 Alpha virt. eigenvalues --    0.63197   0.63315   0.64272   0.65952   0.67800
 Alpha virt. eigenvalues --    0.69490   0.69871   0.71436   0.72879   0.73480
 Alpha virt. eigenvalues --    0.74211   0.75133   0.76517   0.77120   0.77820
 Alpha virt. eigenvalues --    0.79565   0.80485   0.81697   0.82436   0.83357
 Alpha virt. eigenvalues --    0.84102   0.84901   0.85280   0.86118   0.86758
 Alpha virt. eigenvalues --    0.87857   0.89154   0.90722   0.90961   0.91788
 Alpha virt. eigenvalues --    0.92386   0.92878   0.93959   0.94395   0.95148
 Alpha virt. eigenvalues --    0.95717   0.96463   0.97471   0.97490   0.98245
 Alpha virt. eigenvalues --    0.99104   0.99593   1.00218   1.01280   1.01696
 Alpha virt. eigenvalues --    1.03013   1.03624   1.04169   1.04423   1.05608
 Alpha virt. eigenvalues --    1.07008   1.07849   1.08035   1.09311   1.10142
 Alpha virt. eigenvalues --    1.11982   1.12161   1.13157   1.13731   1.14391
 Alpha virt. eigenvalues --    1.15156   1.15919   1.16049   1.17316   1.18191
 Alpha virt. eigenvalues --    1.18509   1.18659   1.18937   1.20578   1.21021
 Alpha virt. eigenvalues --    1.21689   1.22116   1.22863   1.23223   1.23574
 Alpha virt. eigenvalues --    1.24370   1.24639   1.26006   1.26565   1.27311
 Alpha virt. eigenvalues --    1.27644   1.27981   1.28486   1.28932   1.29381
 Alpha virt. eigenvalues --    1.30392   1.30898   1.31665   1.32327   1.32733
 Alpha virt. eigenvalues --    1.33298   1.34228   1.35726   1.36220   1.36841
 Alpha virt. eigenvalues --    1.37497   1.39853   1.40215   1.41523   1.43023
 Alpha virt. eigenvalues --    1.44050   1.44569   1.47087   1.47727   1.48430
 Alpha virt. eigenvalues --    1.50042   1.51737   1.52319   1.53750   1.56618
 Alpha virt. eigenvalues --    1.57838   1.59422   1.60391   1.63580   1.64931
 Alpha virt. eigenvalues --    1.65775   1.68503   1.69742   1.71008   1.71928
 Alpha virt. eigenvalues --    1.74099   1.74845   1.77876   1.79784   1.82894
 Alpha virt. eigenvalues --    1.84489   1.87252   1.88827   1.90926   1.92393
 Alpha virt. eigenvalues --    1.94356   1.96685   1.97318   1.98494   1.99765
 Alpha virt. eigenvalues --    2.02556   2.03296   2.04115   2.06386   2.06771
 Alpha virt. eigenvalues --    2.08246   2.10326   2.13235   2.14838   2.15563
 Alpha virt. eigenvalues --    2.17254   2.18037   2.19135   2.20765   2.22561
 Alpha virt. eigenvalues --    2.23150   2.24319   2.26098   2.28139   2.29249
 Alpha virt. eigenvalues --    2.30130   2.32220   2.36180   2.36946   2.38964
 Alpha virt. eigenvalues --    2.39306   2.40135   2.41721   2.42508   2.43436
 Alpha virt. eigenvalues --    2.44520   2.45310   2.47553   2.47654   2.50274
 Alpha virt. eigenvalues --    2.50592   2.50814   2.52677   2.54434   2.54879
 Alpha virt. eigenvalues --    2.56345   2.57378   2.59811   2.61257   2.62279
 Alpha virt. eigenvalues --    2.65324   2.67633   2.68562   2.69534   2.70055
 Alpha virt. eigenvalues --    2.70279   2.70966   2.71128   2.71993   2.73688
 Alpha virt. eigenvalues --    2.73950   2.75123   2.76037   2.76504   2.78909
 Alpha virt. eigenvalues --    2.79986   2.80196   2.81089   2.81626   2.82785
 Alpha virt. eigenvalues --    2.83815   2.84802   2.86171   2.86518   2.87240
 Alpha virt. eigenvalues --    2.87999   2.88622   2.89030   2.89349   2.90958
 Alpha virt. eigenvalues --    2.91985   2.93300   2.93816   2.94439   2.95513
 Alpha virt. eigenvalues --    2.95611   2.96668   2.97815   2.98643   2.99333
 Alpha virt. eigenvalues --    2.99606   3.00206   3.00400   3.01463   3.02703
 Alpha virt. eigenvalues --    3.03560   3.04028   3.05680   3.06466   3.06946
 Alpha virt. eigenvalues --    3.07426   3.07824   3.09035   3.09742   3.10847
 Alpha virt. eigenvalues --    3.11370   3.11990   3.12889   3.13814   3.14572
 Alpha virt. eigenvalues --    3.15347   3.15799   3.17422   3.19001   3.19772
 Alpha virt. eigenvalues --    3.20241   3.20882   3.21869   3.23523   3.24265
 Alpha virt. eigenvalues --    3.24929   3.26526   3.27087   3.27194   3.27809
 Alpha virt. eigenvalues --    3.29277   3.29788   3.30621   3.31000   3.31141
 Alpha virt. eigenvalues --    3.33182   3.33330   3.33896   3.34632   3.35135
 Alpha virt. eigenvalues --    3.36408   3.37074   3.38477   3.39091   3.39966
 Alpha virt. eigenvalues --    3.40484   3.41160   3.41809   3.42975   3.43290
 Alpha virt. eigenvalues --    3.44227   3.45586   3.46291   3.46837   3.47975
 Alpha virt. eigenvalues --    3.49125   3.49848   3.51068   3.51581   3.52186
 Alpha virt. eigenvalues --    3.54373   3.55274   3.57013   3.58565   3.60131
 Alpha virt. eigenvalues --    3.61121   3.61998   3.62808   3.63927   3.66166
 Alpha virt. eigenvalues --    3.67527   3.68080   3.69094   3.69802   3.70461
 Alpha virt. eigenvalues --    3.71539   3.72228   3.73502   3.73974   3.75341
 Alpha virt. eigenvalues --    3.76037   3.76879   3.77890   3.78819   3.79753
 Alpha virt. eigenvalues --    3.81866   3.82728   3.84143   3.85009   3.86431
 Alpha virt. eigenvalues --    3.86810   3.87674   3.88101   3.88811   3.90553
 Alpha virt. eigenvalues --    3.90672   3.92314   3.93111   3.93712   3.94884
 Alpha virt. eigenvalues --    3.95375   3.96719   3.97310   3.98348   3.99977
 Alpha virt. eigenvalues --    4.01511   4.02149   4.03032   4.04520   4.05741
 Alpha virt. eigenvalues --    4.06274   4.06932   4.07203   4.07688   4.09158
 Alpha virt. eigenvalues --    4.10818   4.11872   4.12284   4.15066   4.15706
 Alpha virt. eigenvalues --    4.16131   4.17001   4.18717   4.19224   4.19625
 Alpha virt. eigenvalues --    4.20231   4.21274   4.22513   4.23604   4.24228
 Alpha virt. eigenvalues --    4.25664   4.27037   4.27935   4.29059   4.30255
 Alpha virt. eigenvalues --    4.30722   4.31968   4.32013   4.33522   4.35241
 Alpha virt. eigenvalues --    4.35743   4.38801   4.40341   4.41592   4.42817
 Alpha virt. eigenvalues --    4.44931   4.45392   4.45911   4.47481   4.49064
 Alpha virt. eigenvalues --    4.51880   4.52205   4.53836   4.54777   4.56916
 Alpha virt. eigenvalues --    4.57604   4.57721   4.59237   4.60408   4.61472
 Alpha virt. eigenvalues --    4.62394   4.63254   4.64216   4.64299   4.65334
 Alpha virt. eigenvalues --    4.68582   4.69786   4.69991   4.71427   4.71938
 Alpha virt. eigenvalues --    4.72507   4.73881   4.74638   4.76740   4.77094
 Alpha virt. eigenvalues --    4.77433   4.79194   4.81271   4.81359   4.83500
 Alpha virt. eigenvalues --    4.84290   4.86960   4.88965   4.90475   4.92598
 Alpha virt. eigenvalues --    4.92695   4.93148   4.95297   4.95435   4.96446
 Alpha virt. eigenvalues --    4.97200   4.99039   4.99359   5.01605   5.01966
 Alpha virt. eigenvalues --    5.02764   5.03620   5.06384   5.09270   5.10430
 Alpha virt. eigenvalues --    5.11191   5.12330   5.12846   5.13683   5.14670
 Alpha virt. eigenvalues --    5.16400   5.16943   5.19011   5.19693   5.21033
 Alpha virt. eigenvalues --    5.21617   5.22513   5.23251   5.24069   5.25052
 Alpha virt. eigenvalues --    5.26445   5.27369   5.29168   5.30319   5.31232
 Alpha virt. eigenvalues --    5.32547   5.35133   5.37214   5.38044   5.40278
 Alpha virt. eigenvalues --    5.41607   5.44107   5.44416   5.47105   5.49886
 Alpha virt. eigenvalues --    5.52374   5.53284   5.56708   5.57708   5.58893
 Alpha virt. eigenvalues --    5.60946   5.62477   5.63901   5.65359   5.66498
 Alpha virt. eigenvalues --    5.67879   5.68662   5.69743   5.71057   5.72890
 Alpha virt. eigenvalues --    5.74528   5.74831   5.77201   5.78541   5.79469
 Alpha virt. eigenvalues --    5.80332   5.81757   5.82738   5.83479   5.88727
 Alpha virt. eigenvalues --    5.89818   5.93764   5.96154   6.03001   6.04105
 Alpha virt. eigenvalues --    6.12342   6.19234   6.19985   6.24315   6.28111
 Alpha virt. eigenvalues --    6.50952   6.52121   6.57831   6.61668   6.64537
 Alpha virt. eigenvalues --    6.66105   6.78000   6.83290   6.90458   6.92290
 Alpha virt. eigenvalues --    6.93479   6.95150   7.18423   7.19678   7.22825
 Alpha virt. eigenvalues --    7.29267   8.14074   8.29130   8.66837   8.73749
 Alpha virt. eigenvalues --    8.77195   8.78893   8.80953   8.82626   8.84085
 Alpha virt. eigenvalues --    8.84457   8.86787   8.88853   8.90950   8.91584
 Alpha virt. eigenvalues --    8.92961   8.94429   8.96397   8.97575   9.01664
 Alpha virt. eigenvalues --    9.03394   9.08082   9.14086   9.16591   9.17934
 Alpha virt. eigenvalues --    9.22911   9.60629   9.62669   9.77283   9.83381
 Alpha virt. eigenvalues --    9.91338   9.93951  10.08341  10.11736  10.15213
 Alpha virt. eigenvalues --   10.18125  10.19851  10.21437  10.22161  10.24503
 Alpha virt. eigenvalues --   10.27453  10.29803  10.31060  10.33553  10.34997
 Alpha virt. eigenvalues --   10.36503  11.76571  11.83304  12.04260  12.14635
 Alpha virt. eigenvalues --   12.16094  12.18707  12.24536  12.26987  12.28432
 Alpha virt. eigenvalues --   12.39598  12.47391  12.57835  12.59727  12.84313
 Alpha virt. eigenvalues --   12.93855  14.97230  15.02107  15.24358  15.28556
 Alpha virt. eigenvalues --   15.99830  16.04913  16.83887  16.91449  22.01333
 Alpha virt. eigenvalues --   22.09594  40.17718  40.26812  40.66128  40.66990
 Alpha virt. eigenvalues --   40.69697  40.71344  40.71849  40.75017  40.76829
 Alpha virt. eigenvalues --   40.77611  40.79424  40.81138  40.81351  40.81582
 Alpha virt. eigenvalues --   40.82882  40.84139  40.84488  40.85198  40.85672
 Alpha virt. eigenvalues --   40.86835  40.88155  40.89495  40.90166  40.90704
 Alpha virt. eigenvalues --   40.91322  40.94077  40.95023  46.34295  46.46276
 Alpha virt. eigenvalues --   46.48222  46.50596  46.57141  46.58914  46.60845
 Alpha virt. eigenvalues --   46.72346  46.81446  54.48013  54.51039  55.79630
 Alpha virt. eigenvalues --   55.84693  55.96090  55.98343  56.05514  56.11663
 Alpha virt. eigenvalues --   56.19194  56.22405  56.26752  56.30019  56.33348
 Alpha virt. eigenvalues --   56.38596  56.47496  56.52289  56.62650  56.67301
 Alpha virt. eigenvalues --   57.47226  57.51254  57.99704  58.02657  58.19733
 Alpha virt. eigenvalues --   58.26232  64.70880  64.78009  73.94434  73.97053
 Alpha virt. eigenvalues --   74.09996  74.12365  74.64152  74.66686  86.07179
 Alpha virt. eigenvalues --   86.14377 165.43555 165.54535 165.56917 165.59005
 Alpha virt. eigenvalues --  165.64804 165.66451 165.67708 165.77625 165.86239
 Alpha virt. eigenvalues --  226.66491 226.71961 230.58081 230.64613 235.58998
 Alpha virt. eigenvalues --  235.84345 236.19920 236.22808 236.36185 236.43326
 Alpha virt. eigenvalues --  237.24984 237.30450 237.36916 237.43481 237.64168
 Alpha virt. eigenvalues --  237.74269 237.95958 238.25944 238.70862 238.87940
 Alpha virt. eigenvalues --  308.80789 308.87144 624.55120 624.61006 624.63465
 Alpha virt. eigenvalues --  624.66030 624.70631 624.71774 624.74466 624.81804
 Alpha virt. eigenvalues --  624.88412 794.52860 794.70103 826.08025 826.74773
 Alpha virt. eigenvalues --  827.19786 827.40986 827.65403 827.90702 830.49873
 Alpha virt. eigenvalues --  830.70131 830.91406 831.17377 831.71350 831.85744
 Alpha virt. eigenvalues --  832.11956 833.31223 835.17337 835.32967 868.33940
 Alpha virt. eigenvalues --  868.405301165.935821165.995442485.973952486.39704
 Alpha virt. eigenvalues -- 2588.578662589.837292592.445962594.501622596.79076
 Alpha virt. eigenvalues -- 2597.024212602.379702602.661202602.912272604.85638
 Alpha virt. eigenvalues -- 2606.555812607.195692608.856412612.223412612.98857
 Alpha virt. eigenvalues -- 2615.324322740.327592740.339482740.370702740.40533
 Alpha virt. eigenvalues -- 2740.437892740.472342740.533922740.567542740.58423
 Alpha virt. eigenvalues -- 3787.315213787.382245073.317835073.372328293.20969
 Alpha virt. eigenvalues -- 8295.113798627.505818628.975118635.089328637.83480
 Alpha virt. eigenvalues -- 8637.896908644.106278660.694318664.173858665.27837
 Alpha virt. eigenvalues -- 8668.897808673.047698673.568908674.593258686.47432
 Alpha virt. eigenvalues -- 8700.134468700.83222******************************
 Alpha virt. eigenvalues -- **************************************************
 Alpha virt. eigenvalues -- **************************************************
 Alpha virt. eigenvalues -- **************************************************
 Alpha virt. eigenvalues -- **************************************************
 Alpha virt. eigenvalues -- **************************************************
 Alpha virt. eigenvalues -- **************************************************
 Alpha virt. eigenvalues -- **************************************************
 Alpha virt. eigenvalues -- **********
          Condensed to atoms (all electrons):
               1          2          3          4          5          6
     1  C    4.509043   0.177153  -0.040576   0.011542   0.000318  -0.010290
     2  C    0.177153   5.379462   0.373085   0.020322  -0.001383   0.001709
     3  H   -0.040576   0.373085   0.483471   0.000184   0.000046   0.001068
     4  C    0.011542   0.020322   0.000184   5.065352   0.397138   0.386751
     5  H    0.000318  -0.001383   0.000046   0.397138   0.527579  -0.005082
     6  H   -0.010290   0.001709   0.001068   0.386751  -0.005082   0.515617
     7  H    0.005321  -0.004698  -0.000064   0.397455  -0.021836  -0.019015
     8  O    0.742956  -0.119372   0.003570  -0.003986   0.000362   0.008949
     9  N   -0.053246   0.284370  -0.037950  -0.014643   0.000316   0.010705
    10  H   -0.001009  -0.027801   0.004079   0.001633   0.000074  -0.000337
    11  N    0.370997  -0.131518   0.005967  -0.007808   0.000189   0.002063
    12  H   -0.026154   0.007278  -0.000706  -0.000129  -0.000017  -0.000122
    13  C   -0.039919   0.010954  -0.001000  -0.000845  -0.000029  -0.000253
    14  H    0.001171   0.002839   0.000036   0.000744   0.000014   0.000107
    15  H   -0.009162  -0.001263  -0.000143  -0.000067  -0.000002  -0.000054
    16  H    0.007616   0.000653  -0.000073  -0.000002  -0.000003  -0.000008
    17  C   -0.000481  -0.061419   0.002498  -0.000094   0.000012   0.000990
    18  C   -0.003939   0.017500   0.003149  -0.000008   0.000002   0.000219
    19  H    0.000368  -0.000755  -0.000460  -0.000057  -0.000003   0.000071
    20  H   -0.000067  -0.000496   0.000109  -0.000012   0.000000   0.000063
    21  H    0.000610  -0.000876  -0.000187   0.000023  -0.000001  -0.000116
    22  O   -0.010637   0.015459   0.027267   0.000049   0.000000  -0.000146
    23  C   -0.008544  -0.020580   0.004192   0.327463  -0.031875  -0.029821
    24  H    0.000971  -0.003057  -0.000558  -0.048265  -0.007254  -0.009069
[...]
 Alpha virt. eigenvalues --    4.38756   4.39891   4.41391   4.43158   4.45184
 Alpha virt. eigenvalues --    4.45575   4.46346   4.49592   4.51172   4.53273
 Alpha virt. eigenvalues --    4.53881   4.54792   4.56011   4.57021   4.59230
 Alpha virt. eigenvalues --    4.61180   4.63720   4.65538   4.66947   4.68828
 Alpha virt. eigenvalues --    4.69465   4.70100   4.70946   4.71939   4.73565
 Alpha virt. eigenvalues --    4.74568   4.75851   4.76788   4.77846   4.78989
 Alpha virt. eigenvalues --    4.79620   4.80514   4.81294   4.82672   4.83238
 Alpha virt. eigenvalues --    4.83659   4.85846   4.88494   4.89209   4.91789
 Alpha virt. eigenvalues --    4.92424   4.93319   4.94664   4.94798   4.96030
 Alpha virt. eigenvalues --    4.97678   4.98909   4.99084   5.00722   5.01440
 Alpha virt. eigenvalues --    5.01993   5.03183   5.04138   5.04995   5.06392
 Alpha virt. eigenvalues --    5.08761   5.09166   5.11307   5.12253   5.13310
 Alpha virt. eigenvalues --    5.14063   5.14379   5.15850   5.16625   5.17586
 Alpha virt. eigenvalues --    5.19400   5.20115   5.20710   5.21652   5.22702
 Alpha virt. eigenvalues --    5.24059   5.25461   5.26211   5.27232   5.27632
 Alpha virt. eigenvalues --    5.29292   5.29866   5.31183   5.32979   5.34647
 Alpha virt. eigenvalues --    5.35537   5.36060   5.37351   5.39107   5.41732
 Alpha virt. eigenvalues --    5.42940   5.47586   5.50549   5.51119   5.56423
 Alpha virt. eigenvalues --    5.57970   5.59893   5.61502   5.63741   5.67573
 Alpha virt. eigenvalues --    5.73197   5.75590   5.77811   5.78365   5.79294
 Alpha virt. eigenvalues --    5.80079   5.81629   5.83754   5.84866   5.86496
 Alpha virt. eigenvalues --    5.87945   5.89543   5.91662   5.95755   5.97186
 Alpha virt. eigenvalues --    6.00539   6.01804   6.03453   6.05813   6.08702
 Alpha virt. eigenvalues --    6.22642   6.26595   6.35634   6.39061   6.48912
 Alpha virt. eigenvalues --    6.51152   6.54336   6.56002   6.67948   6.69321
 Alpha virt. eigenvalues --    6.87762   6.89805   6.92573   6.96446   7.09811
 Alpha virt. eigenvalues --    7.13358   7.15951   7.18261   9.53216   9.98369
 Alpha virt. eigenvalues --   11.57075  12.14272  12.47567  12.49685  12.94093
 Alpha virt. eigenvalues --   13.39409  13.54779  13.63458  13.72150  13.78792
 Alpha virt. eigenvalues --   14.00115
          Condensed to atoms (all electrons):
               1          2          3          4          5          6
     1  C    4.667620   0.156837  -0.049534   0.005029   0.000325  -0.012685
     2  C    0.156837   5.498586   0.419077   0.001186  -0.001170   0.001925
     3  H   -0.049534   0.419077   0.448171   0.000179   0.000058   0.000901
     4  C    0.005029   0.001186   0.000179   5.224271   0.404787   0.389700
     5  H    0.000325  -0.001170   0.000058   0.404787   0.515109  -0.009505
     6  H   -0.012685   0.001925   0.000901   0.389700  -0.009505   0.507111
     7  H    0.007682  -0.006680  -0.000207   0.393956  -0.027357  -0.025317
     8  O    0.735239  -0.110512   0.001137  -0.002153   0.000383   0.009215
     9  N   -0.053307   0.217912  -0.040876  -0.010871   0.000284   0.009868
    10  H   -0.000452  -0.023129   0.002157   0.001753   0.000064  -0.000557
    11  N    0.366811  -0.104103   0.001347  -0.004194   0.000203   0.001773
    12  H   -0.023181   0.001000  -0.001048   0.000302  -0.000023  -0.000130
    13  C   -0.058458   0.010498  -0.000792  -0.000970  -0.000040  -0.000284
    14  H    0.000998   0.002572   0.000044   0.000526   0.000017   0.000151
    15  H   -0.009165  -0.001220  -0.000134  -0.000048  -0.000001  -0.000061
    16  H    0.008191   0.000686  -0.000050  -0.000025  -0.000005  -0.000007
    17  C   -0.000254  -0.073390   0.000074  -0.000066   0.000010   0.001262
    18  C   -0.002918   0.014499   0.002864  -0.000040   0.000002   0.000228
    19  H    0.000169   0.000053  -0.000436  -0.000031  -0.000002   0.000031
    20  H   -0.000092  -0.000475   0.000097  -0.000010   0.000000   0.000059
    21  H    0.000580  -0.000858  -0.000169   0.000022  -0.000001  -0.000114
    22  O   -0.007514   0.014237   0.026480   0.000035   0.000000  -0.000150
    23  C   -0.007698  -0.005828   0.003696   0.244601  -0.032215  -0.032083
    24  H    0.001307  -0.004816  -0.000514  -0.044769  -0.007972  -0.009070
    25  C   -0.000551   0.005106  -0.000248  -0.064019  -0.008455   0.006204
    26  H   -0.000187  -0.001379  -0.000066  -0.006126  -0.000155  -0.000236
    27  H   -0.000006   0.000878   0.000000   0.007781  -0.000074  -0.000327
    28  H    0.000042  -0.000467   0.000012  -0.006162   0.004325  -0.000118
    29  C   -0.018191   0.192037  -0.025578  -0.046160   0.008988  -0.008483
    30  H    0.005788  -0.029882  -0.007059   0.006246  -0.000377  -0.000732
    31  H    0.004379  -0.049599  -0.008514   0.001110  -0.000284  -0.000954
               7          8          9         10         11         12
     1  C    0.007682   0.735239  -0.053307  -0.000452   0.366811  -0.023181
     2  C   -0.006680  -0.110512   0.217912  -0.023129  -0.104103   0.001000
     3  H   -0.000207   0.001137  -0.040876   0.002157   0.001347  -0.001048
     4  C    0.393956  -0.002153  -0.010871   0.001753  -0.004194   0.000302
     5  H   -0.027357   0.000383   0.000284   0.000064   0.000203  -0.000023
     6  H   -0.025317   0.009215   0.009868  -0.000557   0.001773  -0.000130
     7  H    0.522594  -0.004979  -0.000001   0.000153  -0.000650   0.000621
     8  O   -0.004979   7.832659   0.006069  -0.001804  -0.120815   0.004962
     9  N   -0.000001   0.006069   6.560386   0.377973   0.004777   0.000442
    10  H    0.000153  -0.001804   0.377973   0.502440  -0.000218  -0.000001
    11  N   -0.000650  -0.120815   0.004777  -0.000218   6.463835   0.382472
    12  H    0.000621   0.004962   0.000442  -0.000001   0.382472   0.516597
    13  C    0.000253   0.005498  -0.000372   0.000026   0.294224  -0.033017
    14  H   -0.000625   0.004872   0.000010  -0.000016  -0.060602   0.004072
    15  H    0.000324   0.005061  -0.000039   0.000009  -0.039390   0.001854
    16  H   -0.000115   0.001510   0.000006   0.000000  -0.028061  -0.008312
    17  C   -0.000029   0.015990   0.347385  -0.020477   0.000661  -0.000145
    18  C    0.000004  -0.000209  -0.063073  -0.000031  -0.000004   0.000001
    19  H   -0.000001   0.000054   0.013037  -0.000959   0.000004   0.000000
    20  H    0.000000   0.000044  -0.000047  -0.000501   0.000002   0.000000
    21  H    0.000001   0.000363  -0.001433   0.000325   0.000001  -0.000001
    22  O    0.000001  -0.002985  -0.136783   0.004885  -0.000620  -0.000020
    23  C   -0.037542  -0.000536  -0.004917   0.002010  -0.000950  -0.001292
    24  H    0.008384  -0.000106   0.001390   0.000532  -0.000026   0.000046
    25  C   -0.005884   0.000015  -0.000136   0.000264  -0.002446   0.000714
    26  H    0.004579  -0.000091  -0.000042   0.000020   0.003165   0.000721
    27  H   -0.000110   0.000000  -0.000017  -0.000020  -0.000040  -0.000004
    28  H   -0.000403   0.000002   0.000014   0.000023   0.000005  -0.000016
    29  C   -0.002959   0.004054  -0.041989  -0.004729   0.007041   0.006569
    30  H   -0.000099  -0.000336  -0.000968   0.001218   0.000341  -0.000010
    31  H    0.001110  -0.000093   0.005886   0.000364  -0.008849   0.004422
              13         14         15         16         17         18
     1  C   -0.058458   0.000998  -0.009165   0.008191  -0.000254  -0.002918
     2  C    0.010498   0.002572  -0.001220   0.000686  -0.073390   0.014499
     3  H   -0.000792   0.000044  -0.000134  -0.000050   0.000074   0.002864
     4  C   -0.000970   0.000526  -0.000048  -0.000025  -0.000066  -0.000040
     5  H   -0.000040   0.000017  -0.000001  -0.000005   0.000010   0.000002
     6  H   -0.000284   0.000151  -0.000061  -0.000007   0.001262   0.000228
     7  H    0.000253  -0.000625   0.000324  -0.000115  -0.000029   0.000004
     8  O    0.005498   0.004872   0.005061   0.001510   0.015990  -0.000209
     9  N   -0.000372   0.000010  -0.000039   0.000006   0.347385  -0.063073
    10  H    0.000026  -0.000016   0.000009   0.000000  -0.020477  -0.000031
    11  N    0.294224  -0.060602  -0.039390  -0.028061   0.000661  -0.000004
    12  H   -0.033017   0.004072   0.001854  -0.008312  -0.000145   0.000001
    13  C    4.781125   0.389421   0.407371   0.392908  -0.000137  -0.000005
    14  H    0.389421   0.628827  -0.056976  -0.027391   0.000005   0.000000
    15  H    0.407371  -0.056976   0.592377  -0.026174  -0.000003   0.000000
    16  H    0.392908  -0.027391  -0.026174   0.598915  -0.000003   0.000000
    17  C   -0.000137   0.000005  -0.000003  -0.000003   4.529279   0.279042
    18  C   -0.000005   0.000000   0.000000   0.000000   0.279042   4.994055
    19  H    0.000000   0.000000   0.000000   0.000000  -0.054024   0.390568
    20  H    0.000000   0.000000   0.000000   0.000000  -0.025193   0.384890
    21  H    0.000001   0.000000   0.000000   0.000000  -0.025628   0.389437
    22  O   -0.000049   0.000004   0.000003  -0.000001   0.713765  -0.069592
    23  C    0.000401   0.000049  -0.000003   0.000025  -0.000302  -0.000166
    24  H    0.000005  -0.000008   0.000001   0.000001  -0.000005   0.000010
    25  C    0.000084   0.000210  -0.000012  -0.000004   0.000025   0.000001
    26  H    0.000033  -0.000507   0.000050   0.000059  -0.000005   0.000000
    27  H   -0.000002   0.000002   0.000000   0.000000   0.000001   0.000000
    28  H   -0.000001   0.000002   0.000000   0.000000  -0.000001   0.000000
    29  C   -0.001276  -0.000672   0.000203  -0.000143   0.007821   0.000367
    30  H    0.000055  -0.000020   0.000012   0.000003  -0.000296  -0.000045
    31  H    0.000439   0.000109  -0.000044   0.000054  -0.000294   0.000021
              19         20         21         22         23         24
     1  C    0.000169  -0.000092   0.000580  -0.007514  -0.007698   0.001307
     2  C    0.000053  -0.000475  -0.000858   0.014237  -0.005828  -0.004816
     3  H   -0.000436   0.000097  -0.000169   0.026480   0.003696  -0.000514
     4  C   -0.000031  -0.000010   0.000022   0.000035   0.244601  -0.044769
     5  H   -0.000002   0.000000  -0.000001   0.000000  -0.032215  -0.007972
     6  H    0.000031   0.000059  -0.000114  -0.000150  -0.032083  -0.009070
     7  H   -0.000001   0.000000   0.000001   0.000001  -0.037542   0.008384
     8  O    0.000054   0.000044   0.000363  -0.002985  -0.000536  -0.000106
     9  N    0.013037  -0.000047  -0.001433  -0.136783  -0.004917   0.001390
    10  H   -0.000959  -0.000501   0.000325   0.004885   0.002010   0.000532
    11  N    0.000004   0.000002   0.000001  -0.000620  -0.000950  -0.000026
    12  H    0.000000   0.000000  -0.000001  -0.000020  -0.001292   0.000046
    13  C    0.000000   0.000000   0.000001  -0.000049   0.000401   0.000005
    14  H    0.000000   0.000000   0.000000   0.000004   0.000049  -0.000008
    15  H    0.000000   0.000000   0.000000   0.000003  -0.000003   0.000001
    16  H    0.000000   0.000000   0.000000  -0.000001   0.000025   0.000001
    17  C   -0.054024  -0.025193  -0.025628   0.713765  -0.000302  -0.000005
    18  C    0.390568   0.384890   0.389437  -0.069592  -0.000166   0.000010
    19  H    0.607739  -0.027274  -0.024719   0.004819   0.000130  -0.000008
    20  H   -0.027274   0.576482  -0.025182   0.002707   0.000008  -0.000006
    21  H   -0.024719  -0.025182   0.564033   0.000712  -0.000008   0.000003
    22  O    0.004819   0.002707   0.000712   7.855061  -0.000067   0.000000
    23  C    0.000130   0.000008  -0.000008  -0.000067   5.322487   0.416560
    24  H   -0.000008  -0.000006   0.000003   0.000000   0.416560   0.538930
    25  C   -0.000002   0.000000   0.000000   0.000001   0.277736  -0.022763
    26  H    0.000000   0.000000   0.000000   0.000000  -0.046039   0.008204
    27  H    0.000000   0.000000   0.000000   0.000000  -0.036658  -0.006615
    28  H    0.000000   0.000000   0.000000   0.000000  -0.035227  -0.005862
    29  C   -0.000310  -0.000015   0.000028   0.001714   0.206709  -0.048872
    30  H   -0.000022  -0.000031   0.000014  -0.000074  -0.048370  -0.006757
    31  H   -0.000002  -0.000005   0.000001   0.000025  -0.059804   0.005895
              25         26         27         28         29         30
     1  C   -0.000551  -0.000187  -0.000006   0.000042  -0.018191   0.005788
     2  C    0.005106  -0.001379   0.000878  -0.000467   0.192037  -0.029882
     3  H   -0.000248  -0.000066   0.000000   0.000012  -0.025578  -0.007059
     4  C   -0.064019  -0.006126   0.007781  -0.006162  -0.046160   0.006246
     5  H   -0.008455  -0.000155  -0.000074   0.004325   0.008988  -0.000377
     6  H    0.006204  -0.000236  -0.000327  -0.000118  -0.008483  -0.000732
     7  H   -0.005884   0.004579  -0.000110  -0.000403  -0.002959  -0.000099
     8  O    0.000015  -0.000091   0.000000   0.000002   0.004054  -0.000336
     9  N   -0.000136  -0.000042  -0.000017   0.000014  -0.041989  -0.000968
    10  H    0.000264   0.000020  -0.000020   0.000023  -0.004729   0.001218
    11  N   -0.002446   0.003165  -0.000040   0.000005   0.007041   0.000341
    12  H    0.000714   0.000721  -0.000004  -0.000016   0.006569  -0.000010
    13  C    0.000084   0.000033  -0.000002  -0.000001  -0.001276   0.000055
    14  H    0.000210  -0.000507   0.000002   0.000002  -0.000672  -0.000020
    15  H   -0.000012   0.000050   0.000000   0.000000   0.000203   0.000012
    16  H   -0.000004   0.000059   0.000000   0.000000  -0.000143   0.000003
    17  C    0.000025  -0.000005   0.000001  -0.000001   0.007821  -0.000296
    18  C    0.000001   0.000000   0.000000   0.000000   0.000367  -0.000045
    19  H   -0.000002   0.000000   0.000000   0.000000  -0.000310  -0.000022
    20  H    0.000000   0.000000   0.000000   0.000000  -0.000015  -0.000031
    21  H    0.000000   0.000000   0.000000   0.000000   0.000028   0.000014
    22  O    0.000001   0.000000   0.000000   0.000000   0.001714  -0.000074
    23  C    0.277736  -0.046039  -0.036658  -0.035227   0.206709  -0.048370
    24  H   -0.022763   0.008204  -0.006615  -0.005862  -0.048872  -0.006757
    25  C    5.092834   0.400585   0.404994   0.407981  -0.054118   0.000603
    26  H    0.400585   0.560239  -0.032488  -0.024075  -0.007641   0.000612
    27  H    0.404994  -0.032488   0.542406  -0.017440  -0.001135   0.000944
    28  H    0.407981  -0.024075  -0.017440   0.526086   0.009698  -0.000378
    29  C   -0.054118  -0.007641  -0.001135   0.009698   5.418873   0.420510
    30  H    0.000603   0.000612   0.000944  -0.000378   0.420510   0.470725
    31  H   -0.004649  -0.000586  -0.001766   0.000880   0.422312  -0.007482
              31
     1  C    0.004379
     2  C   -0.049599
     3  H   -0.008514
     4  C    0.001110
     5  H   -0.000284
     6  H   -0.000954
     7  H    0.001110
     8  O   -0.000093
     9  N    0.005886
    10  H    0.000364
    11  N   -0.008849
    12  H    0.004422
    13  C    0.000439
    14  H    0.000109
    15  H   -0.000044
    16  H    0.000054
    17  C   -0.000294
    18  C    0.000021
    19  H   -0.000002
    20  H   -0.000005
    21  H    0.000001
    22  O    0.000025
    23  C   -0.059804
    24  H    0.005895
    25  C   -0.004649
    26  H   -0.000586
    27  H   -0.001766
    28  H    0.000880
    29  C    0.422312
    30  H   -0.007482
    31  H    0.499852
 Mulliken charges:
               1
     1  C    0.283198
     2  C   -0.123581
     3  H    0.228930
     4  C   -0.495838
     5  H    0.153078
     6  H    0.172386
     7  H    0.173297
     8  O   -0.382507
     9  N   -0.190570
    10  H    0.158679
    11  N   -0.155692
    12  H    0.142404
    13  C   -0.186940
    14  H    0.114924
    15  H    0.126005
    16  H    0.087934
    17  C    0.304933
    18  C   -0.319906
    19  H    0.091186
    20  H    0.114543
    21  H    0.122592
    22  O   -0.406595
    23  C   -0.124707
    24  H    0.176901
    25  C   -0.434068
    26  H    0.141356
    27  H    0.139695
    28  H    0.141078
    29  C   -0.444654
    30  H    0.195870
    31  H    0.196067
 Sum of Mulliken charges =   0.00000
 Mulliken charges with hydrogens summed into heavy atoms:
               1
     1  C    0.283198
     2  C    0.105349
     4  C    0.002923
     8  O   -0.382507
     9  N   -0.031890
    11  N   -0.013288
    13  C    0.141924
    17  C    0.304933
    18  C    0.008414
    22  O   -0.406595
    23  C    0.052194
    25  C   -0.011939
    29  C   -0.052718
 Electronic spatial extent (au):  <R**2>=           2869.8407
 Charge=              0.0000 electrons
 Dipole moment (field-independent basis, Debye):
    X=             -4.2770    Y=             -3.1267    Z=             -0.7664  Tot=              5.3532
 Quadrupole moment (field-independent basis, Debye-Ang):
   XX=            -81.1752   YY=            -76.7352   ZZ=            -81.6149
   XY=            -11.9635   XZ=              6.6065   YZ=             -3.3821
 Traceless Quadrupole moment (field-independent basis, Debye-Ang):
   XX=             -1.3334   YY=              3.1066   ZZ=             -1.7732
   XY=            -11.9635   XZ=              6.6065   YZ=             -3.3821
 Octapole moment (field-independent basis, Debye-Ang**2):
  XXX=             -1.1136  YYY=             17.9070  ZZZ=             -5.3556  XYY=            -12.7147
  XXY=            -11.0498  XXZ=             17.2126  XZZ=             -3.9750  YZZ=             -1.8109
  YYZ=             -1.5539  XYZ=              4.9616
 Hexadecapole moment (field-independent basis, Debye-Ang**3):
 XXXX=          -2173.0407 YYYY=          -1174.1445 ZZZZ=           -407.2914 XXXY=            -92.2061
 XXXZ=             59.2510 YYYX=            -41.3613 YYYZ=             -5.7853 ZZZX=              4.2225
 ZZZY=             -5.3595 XXYY=           -547.6029 XXZZ=           -429.4339 YYZZ=           -275.3269
 XXYZ=              6.4056 YYXZ=              1.3754 ZZXY=             -9.7521
 N-N= 8.785076705440D+02 E-N=-3.186611534104D+03  KE= 6.091197043286D+02
 Calculating spin-rotation constants.
 Leave Link  601 at Wed Jun 18 17:36:47 2014, MaxMem=  4294967296 cpu:        71.1
 (Enter /home/ztw1e12/g09/l9999.exe)

 Test job not archived.
 1\1\GINC-GREEN0629\SP\RM06\Gen\C9H18N2O2\ROOT\18-Jun-2014\0\\#P Geom=A
 llCheck Guess=TCheck SCRF=Check GenChk RM06/ChkBas NMR=ReadFC IOp(3/6=
 22)\\NMR spin-spin scan\\0,1\C,0,0.51244,0.84951,0.48949\C,0,0.229289,
 0.047467,-0.781549\H,0,0.717894,0.612517,-1.581607\C,0,-1.773478,-0.92
 344,1.244817\H,0,-2.547412,-1.449893,1.807192\H,0,-0.856183,-1.50475,1
 .340493\H,0,-1.618956,0.037834,1.744561\O,0,1.226091,0.426891,1.393263
 \N,0,0.86654,-1.246895,-0.73934\H,0,0.325433,-2.042858,-0.438614\N,0,-
 0.028023,2.073265,0.521006\H,0,-0.642827,2.360616,-0.222483\C,0,0.1051
 17,2.922934,1.681748\H,0,-0.302485,2.438613,2.571346\H,0,1.150154,3.16
 5614,1.875223\H,0,-0.439639,3.845585,1.505772\C,0,2.182285,-1.41638,-0
 .958588\C,0,2.700832,-2.809189,-0.809554\H,0,1.921372,-3.539592,-0.602
 644\H,0,3.22948,-3.089332,-1.719981\H,0,3.425839,-2.822287,0.004693\O,
 0,2.922511,-0.485816,-1.272944\C,0,-2.231237,-0.753273,-0.194204\H,0,-
 2.399707,-1.766714,-0.576642\C,0,-3.557874,-0.019524,-0.238996\H,0,-3.
 444477,0.988463,0.173736\H,0,-3.925564,0.081627,-1.262374\H,0,-4.32107
 4,-0.53827,0.344389\C,0,-1.241005,-0.072925,-1.163111\H,0,-1.282055,-0
 .57832,-2.129804\H,0,-1.597656,0.941818,-1.364955\\Version=EM64L-G09Re
 vD.01\State=1-A\HF=-613.5755239\RMSD=2.901e-09\Dipole=-2.0844688,-0.05
 82243,-0.2953567\Quadrupole=-7.7887567,10.7984673,-3.0097106,-3.942090
 5,1.4889554,1.6331984\PG=C01 [X(C9H18N2O2)]\\@


 A great many people think they are thinking when they
 are merely rearranging their prejudices.
                               -- William James
 Job cpu time:       2 days 14 hours 41 minutes 23.5 seconds.
 File lengths (MBytes):  RWF=   2456 Int=      0 D2E=      0 Chk=     48 Scr=      8
 Normal termination of Gaussian 09 at Wed Jun 18 17:36:49 2014.
