 Entering Gaussian System, Link 0=g09
 Input=scan_input_8.gjf
 Output=scan_input_8.log
 Initial command:
 /home/ztw1e12/g09/l1.exe "/home/ztw1e12/leucine_scan/leucine_chi2_scan/Gau-2028.inp" -scrdir="/home/ztw1e12/leucine_scan/leucine_chi2_scan/"
 Default is to use a total of   8 processors:
                                8 via shared-memory
                                1 via Linda
 Entering Link 1 = /home/ztw1e12/g09/l1.exe PID=      2029.
  
 Copyright (c) 1988,1990,1992,1993,1995,1998,2003,2009,2013,
            Gaussian, Inc.  All Rights Reserved.
  
 This is part of the Gaussian(R) 09 program.  It is based on
 the Gaussian(R) 03 system (copyright 2003, Gaussian, Inc.),
 the Gaussian(R) 98 system (copyright 1998, Gaussian, Inc.),
 the Gaussian(R) 94 system (copyright 1995, Gaussian, Inc.),
 the Gaussian 92(TM) system (copyright 1992, Gaussian, Inc.),
 the Gaussian 90(TM) system (copyright 1990, Gaussian, Inc.),
 the Gaussian 88(TM) system (copyright 1988, Gaussian, Inc.),
 the Gaussian 86(TM) system (copyright 1986, Carnegie Mellon
 University), and the Gaussian 82(TM) system (copyright 1983,
 Carnegie Mellon University). Gaussian is a federally registered
 trademark of Gaussian, Inc.
  
 This software contains proprietary and confidential information,
 including trade secrets, belonging to Gaussian, Inc.
  
 This software is provided under written license and may be
 used, copied, transmitted, or stored only in accord with that
 written license.
  
 The following legend is applicable only to US Government
 contracts under FAR:
  
                    RESTRICTED RIGHTS LEGEND
  
 Use, reproduction and disclosure by the US Government is
 subject to restrictions as set forth in subparagraphs (a)
 and (c) of the Commercial Computer Software - Restricted
 Rights clause in FAR 52.227-19.
  
 Gaussian, Inc.
 340 Quinnipiac St., Bldg. 40, Wallingford CT 06492
  
  
 ---------------------------------------------------------------
 Warning -- This program may not be used in any manner that
 competes with the business of Gaussian, Inc. or will provide
 assistance to any competitor of Gaussian, Inc.  The licensee
 of this program is prohibited from giving any competitor of
 Gaussian, Inc. access to this program.  By using this program,
 the user acknowledges that Gaussian, Inc. is engaged in the
 business of creating and licensing software in the field of
 computational chemistry and represents and warrants to the
 licensee that it is not a competitor of Gaussian, Inc. and that
 it will not use this program in any manner prohibited above.
 ---------------------------------------------------------------
  

 Cite this work as:
 Gaussian 09, Revision D.01,
 M. J. Frisch, G. W. Trucks, H. B. Schlegel, G. E. Scuseria, 
 M. A. Robb, J. R. Cheeseman, G. Scalmani, V. Barone, B. Mennucci, 
 G. A. Petersson, H. Nakatsuji, M. Caricato, X. Li, H. P. Hratchian, 
 A. F. Izmaylov, J. Bloino, G. Zheng, J. L. Sonnenberg, M. Hada, 
 M. Ehara, K. Toyota, R. Fukuda, J. Hasegawa, M. Ishida, T. Nakajima, 
 Y. Honda, O. Kitao, H. Nakai, T. Vreven, J. A. Montgomery, Jr., 
 J. E. Peralta, F. Ogliaro, M. Bearpark, J. J. Heyd, E. Brothers, 
 K. N. Kudin, V. N. Staroverov, T. Keith, R. Kobayashi, J. Normand, 
 K. Raghavachari, A. Rendell, J. C. Burant, S. S. Iyengar, J. Tomasi, 
 M. Cossi, N. Rega, J. M. Millam, M. Klene, J. E. Knox, J. B. Cross, 
 V. Bakken, C. Adamo, J. Jaramillo, R. Gomperts, R. E. Stratmann, 
 O. Yazyev, A. J. Austin, R. Cammi, C. Pomelli, J. W. Ochterski, 
 R. L. Martin, K. Morokuma, V. G. Zakrzewski, G. A. Voth, 
 P. Salvador, J. J. Dannenberg, S. Dapprich, A. D. Daniels, 
 O. Farkas, J. B. Foresman, J. V. Ortiz, J. Cioslowski, 
 and D. J. Fox, Gaussian, Inc., Wallingford CT, 2013.
 
 ******************************************
 Gaussian 09:  EM64L-G09RevD.01 24-Apr-2013
                18-Jun-2014 
 ******************************************
 %Mem=32GB
 %NProcShared=16
 Will use up to   16 processors via shared memory.
 Default route:  MaxDisk=100GB
 ----------------------------------------------------------------------
 #p nmr=(giao,mixed,spinspin) m06/cc-pvtz scf=tight integral=(grid=ultr
 afine)
 ----------------------------------------------------------------------
 1/38=1/1;
 2/12=2,17=6,18=5,40=1/2;
 3/5=16,6=1,10=1100000,11=2,16=1,25=1,30=1,74=-54,75=-5/1,2,8,3;
 4//1;
 5/5=2,32=2,38=5/2;
 8/6=1,10=90,11=11/1;
 10/13=100,45=16,47=3/2;
 6/7=2,8=2,9=2,10=2,28=1/1;
 99/9=1/99;
 Leave Link    1 at Wed Jun 18 01:13:25 2014, MaxMem=  4294967296 cpu:         7.6
 (Enter /home/ztw1e12/g09/l101.exe)
 ------------------
 NMR spin-spin scan
 ------------------
 Symbolic Z-matrix:
 Charge =  0 Multiplicity = 1
 C                     0.30562   1.24885   0.25226 
 C                     0.1575    0.11556  -0.7626 
 H                     0.68336   0.46852  -1.65541 
 C                    -2.7509   -2.06515  -0.40543 
 H                    -3.56411  -2.36018   0.26108 
 H                    -3.08759  -2.20851  -1.43374 
 H                    -1.91369  -2.74981  -0.23203 
 O                     0.92262   1.12134   1.30483 
 N                     0.84357  -1.0771   -0.32371 
 H                     0.30832  -1.8185    0.10155 
 N                    -0.24616   2.41195  -0.1138 
 H                    -0.76139   2.46466  -0.97705 
 C                    -0.22715   3.5604    0.76237 
 H                    -0.71317   3.33513   1.71365 
 H                     0.79399   3.88091   0.96991 
 H                    -0.75857   4.37779   0.28461 
 C                     2.18257  -1.19105  -0.36171 
 C                     2.75404  -2.46544   0.16764 
 H                     1.99587  -3.17801   0.48535 
 H                     3.375    -2.91944  -0.60405 
 H                     3.4023   -2.23323   1.01257 
 O                     2.90368  -0.30446  -0.81717 
 C                    -2.32903  -0.62631  -0.15624 
 H                    -3.21015  -0.00384  -0.34155 
 C                    -1.97054  -0.43124   1.30668 
 H                    -1.10922  -1.03126   1.60993 
 H                    -1.76316   0.61005   1.55911 
 H                    -2.81207  -0.74659   1.92704 
 C                    -1.27199  -0.1902   -1.19923 
 H                    -1.19655  -0.9581   -1.97303 
 H                    -1.63736   0.69652  -1.72147 
 
 NAtoms=     31 NQM=       31 NQMF=       0 NMMI=      0 NMMIF=      0
                NMic=       0 NMicF=      0.
                    Isotopes and Nuclear Properties:
 (Nuclear quadrupole moments (NQMom) in fm**2, nuclear magnetic moments (NMagM)
  in nuclear magnetons)

  Atom         1           2           3           4           5           6           7           8           9          10
 IAtWgt=          12          12           1          12           1           1           1          16          14           1
 AtmWgt=  12.0000000  12.0000000   1.0078250  12.0000000   1.0078250   1.0078250   1.0078250  15.9949146  14.0030740   1.0078250
 NucSpn=           0           0           1           0           1           1           1           0           2           1
 AtZEff=   0.0000000   0.0000000   0.0000000   0.0000000   0.0000000   0.0000000   0.0000000   0.0000000   0.0000000   0.0000000
 NQMom=    0.0000000   0.0000000   0.0000000   0.0000000   0.0000000   0.0000000   0.0000000   0.0000000   2.0440000   0.0000000
 NMagM=    0.0000000   0.0000000   2.7928460   0.0000000   2.7928460   2.7928460   2.7928460   0.0000000   0.4037610   2.7928460
 AtZNuc=   6.0000000   6.0000000   1.0000000   6.0000000   1.0000000   1.0000000   1.0000000   8.0000000   7.0000000   1.0000000

  Atom        11          12          13          14          15          16          17          18          19          20
 IAtWgt=          14           1          12           1           1           1          12          12           1           1
 AtmWgt=  14.0030740   1.0078250  12.0000000   1.0078250   1.0078250   1.0078250  12.0000000  12.0000000   1.0078250   1.0078250
 NucSpn=           2           1           0           1           1           1           0           0           1           1
 AtZEff=   0.0000000   0.0000000   0.0000000   0.0000000   0.0000000   0.0000000   0.0000000   0.0000000   0.0000000   0.0000000
 NQMom=    2.0440000   0.0000000   0.0000000   0.0000000   0.0000000   0.0000000   0.0000000   0.0000000   0.0000000   0.0000000
 NMagM=    0.4037610   2.7928460   0.0000000   2.7928460   2.7928460   2.7928460   0.0000000   0.0000000   2.7928460   2.7928460
 AtZNuc=   7.0000000   1.0000000   6.0000000   1.0000000   1.0000000   1.0000000   6.0000000   6.0000000   1.0000000   1.0000000

  Atom        21          22          23          24          25          26          27          28          29          30
 IAtWgt=           1          16          12           1          12           1           1           1          12           1
 AtmWgt=   1.0078250  15.9949146  12.0000000   1.0078250  12.0000000   1.0078250   1.0078250   1.0078250  12.0000000   1.0078250
 NucSpn=           1           0           0           1           0           1           1           1           0           1
 AtZEff=   0.0000000   0.0000000   0.0000000   0.0000000   0.0000000   0.0000000   0.0000000   0.0000000   0.0000000   0.0000000
 NQMom=    0.0000000   0.0000000   0.0000000   0.0000000   0.0000000   0.0000000   0.0000000   0.0000000   0.0000000   0.0000000
 NMagM=    2.7928460   0.0000000   0.0000000   2.7928460   0.0000000   2.7928460   2.7928460   2.7928460   0.0000000   2.7928460
 AtZNuc=   1.0000000   8.0000000   6.0000000   1.0000000   6.0000000   1.0000000   1.0000000   1.0000000   6.0000000   1.0000000

  Atom        31
 IAtWgt=           1
 AtmWgt=   1.0078250
 NucSpn=           1
 AtZEff=   0.0000000
 NQMom=    0.0000000
 NMagM=    2.7928460
 AtZNuc=   1.0000000
 Leave Link  101 at Wed Jun 18 01:13:25 2014, MaxMem=  4294967296 cpu:         1.9
 (Enter /home/ztw1e12/g09/l202.exe)
                          Input orientation:                          
 ---------------------------------------------------------------------
 Center     Atomic      Atomic             Coordinates (Angstroms)
 Number     Number       Type             X           Y           Z
 ---------------------------------------------------------------------
      1          6           0        0.305624    1.248854    0.252258
      2          6           0        0.157496    0.115563   -0.762596
      3          1           0        0.683361    0.468517   -1.655412
      4          6           0       -2.750900   -2.065150   -0.405432
      5          1           0       -3.564113   -2.360175    0.261079
      6          1           0       -3.087594   -2.208510   -1.433744
      7          1           0       -1.913694   -2.749811   -0.232034
      8          8           0        0.922616    1.121343    1.304825
      9          7           0        0.843570   -1.077099   -0.323712
     10          1           0        0.308321   -1.818501    0.101546
     11          7           0       -0.246164    2.411947   -0.113798
     12          1           0       -0.761391    2.464663   -0.977046
     13          6           0       -0.227149    3.560404    0.762367
     14          1           0       -0.713166    3.335132    1.713654
     15          1           0        0.793991    3.880906    0.969913
     16          1           0       -0.758573    4.377792    0.284612
     17          6           0        2.182565   -1.191048   -0.361709
     18          6           0        2.754037   -2.465437    0.167638
     19          1           0        1.995874   -3.178011    0.485350
     20          1           0        3.375004   -2.919441   -0.604054
     21          1           0        3.402302   -2.233225    1.012567
     22          8           0        2.903678   -0.304458   -0.817169
     23          6           0       -2.329033   -0.626305   -0.156244
     24          1           0       -3.210150   -0.003843   -0.341550
     25          6           0       -1.970542   -0.431236    1.306679
     26          1           0       -1.109221   -1.031255    1.609928
     27          1           0       -1.763155    0.610054    1.559107
     28          1           0       -2.812068   -0.746592    1.927042
     29          6           0       -1.271987   -0.190198   -1.199233
     30          1           0       -1.196553   -0.958104   -1.973025
     31          1           0       -1.637360    0.696520   -1.721469
 ---------------------------------------------------------------------
                    Distance matrix (angstroms):
                    1          2          3          4          5
     1  C    0.000000
     2  C    1.528470   0.000000
     3  H    2.095427   1.094637   0.000000
     4  C    4.556042   3.652649   4.447029   0.000000
     5  H    5.291506   4.585582   5.451190   1.092059   0.000000
     6  H    5.129317   4.047513   4.629872   1.091485   1.767059
     7  H    4.598830   3.575149   4.373595   1.095327   1.766029
     8  O    1.226717   2.423062   3.040794   5.154943   5.774176
     9  N    2.455847   1.444216   2.046465   3.728691   4.627735
    10  H    3.071057   2.123698   2.908265   3.110739   3.913388
    11  N    1.338377   2.420178   2.649058   5.138400   5.824300
    12  H    2.031724   2.531524   2.555795   4.980371   5.715528
    13  C    2.426380   3.786871   4.029200   6.275343   6.814681
    14  H    2.743386   4.153973   4.638790   6.148653   6.532564
    15  H    2.771503   4.193390   4.306851   7.057861   7.645038
    16  H    3.305120   4.483573   4.596226   6.779161   7.298754
    17  C    3.138946   2.443122   2.583687   5.010493   5.897375
    18  C    4.449477   3.777423   4.027319   5.549141   6.319718
    19  H    4.744303   3.972988   4.427496   4.956190   5.624287
    20  H    5.246813   4.425917   4.452927   6.188373   7.015168
    21  H    4.721478   4.381412   4.670135   6.316713   7.007980
    22  O    3.210348   2.778653   2.495987   5.936650   6.871747
    23  C    3.259526   2.664743   3.538454   1.519981   2.169305
    24  H    3.779223   3.395965   4.136277   2.112813   2.457794
    25  C    3.019178   3.018184   4.077590   2.491979   2.711744
    26  H    3.007316   2.923805   4.015608   2.797450   3.100309
    27  H    2.528985   3.053478   4.042104   3.462914   3.708178
    28  H    4.062845   4.098265   5.150582   2.680069   2.438166
    29  C    2.581967   1.525635   2.113147   2.516495   3.477809
    30  H    3.475498   2.109822   2.381219   2.469594   3.544343
    31  H    2.824156   2.116236   2.332830   3.255572   4.121439
                    6          7          8          9         10
     6  H    0.000000
     7  H    1.764980   0.000000
     8  O    5.888078   5.039090   0.000000
     9  N    4.238669   3.226279   2.737066   0.000000
    10  H    3.747194   2.432276   3.235417   1.008471   0.000000
    11  N    5.582527   5.425715   2.245929   3.661287   4.272062
    12  H    5.240071   5.391993   3.138045   3.942946   4.544572
    13  C    6.803339   6.606972   2.750498   4.881848   5.445735
    14  H    6.802646   6.500269   2.782766   5.103143   5.495658
    15  H    7.610864   7.262413   2.782786   5.124230   5.785601
    16  H    7.194196   7.239057   3.804168   5.717758   6.290137
    17  C    5.473487   4.384734   3.116402   1.344372   2.030048
    18  C    6.062598   4.693434   4.184769   2.412217   2.530696
    19  H    5.519466   3.997839   4.506425   2.529074   2.200774
    20  H    6.554310   5.304479   5.097643   3.143402   3.333839
    21  H    6.935690   5.484132   4.181792   3.109562   3.251872
    22  O    6.316717   5.434078   3.234250   2.254888   3.142012
    23  C    2.170436   2.165070   3.970166   3.208843   2.905757
    24  H    2.463425   3.038607   4.588720   4.193428   3.983586
    25  C    3.452018   2.783282   3.283423   3.315802   2.927468
    26  H    3.816258   2.644510   2.975757   2.748537   2.214588
    27  H    4.319213   3.810452   2.745804   3.631323   3.509042
    28  H    3.675323   3.079216   4.221872   4.305673   3.770710
    29  C    2.724887   2.810495   3.578649   2.455344   2.615487
    30  H    2.330317   2.599145   4.422587   2.626118   2.703474
    31  H    3.259626   3.764568   3.986528   3.354767   3.665295
                   11         12         13         14         15
    11  N    0.000000
    12  H    1.006695   0.000000
    13  C    1.444638   2.124058   0.000000
    14  H    2.099986   2.828411   1.091745   0.000000
    15  H    2.100998   2.866288   1.090194   1.767072   0.000000
    16  H    2.070227   2.291692   1.085718   1.769566   1.768329
    17  C    4.352213   4.733893   5.444866   5.760095   5.424580
    18  C    5.733174   6.162339   6.749217   6.932407   6.690403
    19  H    6.052548   6.448324   7.101043   7.160214   7.176882
    20  H    6.463506   6.799813   7.538634   7.823336   7.442024
    21  H    6.013121   6.585215   6.841173   6.959540   6.647383
    22  O    4.218423   4.596338   5.218637   5.721297   5.016145
    23  C    3.683900   3.561643   4.773918   4.669104   5.597898
    24  H    3.830552   3.534657   4.777110   4.648392   5.730999
    25  C    3.615926   3.881195   4.389634   3.991510   5.133286
    26  H    3.946104   4.362896   4.751815   4.385539   5.306709
    27  H    2.889064   3.297753   3.420332   2.924451   4.193402
    28  H    4.552500   4.790737   5.156403   4.594714   5.944198
    29  C    3.000273   2.712630   4.359653   4.607075   5.054438
    30  H    3.964493   3.591194   5.370198   5.679537   6.003263
    31  H    2.731798   2.108985   4.044746   4.429049   4.826522
                   16         17         18         19         20
    16  H    0.000000
    17  C    6.330877   0.000000
    18  C    7.692977   1.493605   0.000000
    19  H    8.044715   2.168037   1.087894   0.000000
    20  H    8.433611   2.113761   1.089600   1.776417   0.000000
    21  H    7.845275   2.112469   1.089989   1.774435   1.756446
    22  O    6.045616   1.230240   2.379510   3.282982   2.665652
    23  C    5.263239   4.551447   5.415248   5.062378   6.164012
    24  H    5.059746   5.521887   6.472267   6.153194   7.206516
    25  C    5.063619   4.539728   5.268495   4.894059   6.198139
    26  H    5.580072   3.840409   4.365987   3.938890   5.345581
    27  H    4.102362   4.743649   5.639136   5.443592   6.598278
    28  H    5.759664   5.512012   6.085348   5.577327   7.029053
    29  C    4.830313   3.692841   4.822232   4.737485   5.421949
    30  H    5.810382   3.750872   4.739373   4.600346   5.159463
    31  H    4.283502   4.472548   5.731585   5.751733   6.280731
                   21         22         23         24         25
    21  H    0.000000
    22  O    2.704940   0.000000
    23  C    6.066013   5.284096   0.000000
    24  H    7.108326   6.139664   1.094607   0.000000
    25  C    5.674603   5.318348   1.518786   2.106170   0.000000
    26  H    4.706954   4.745776   2.184328   3.045939   1.092637
    27  H    5.921561   5.316235   2.188888   2.466407   1.091336
    28  H    6.454823   6.355779   2.141932   2.420053   1.092001
    29  C    5.560126   4.194664   1.547696   2.127633   2.612599
    30  H    5.629313   4.309890   2.166401   2.761684   3.410734
    31  H    6.438676   4.737166   2.162916   2.206434   3.248465
                   26         27         28         29         30
    26  H    0.000000
    27  H    1.767515   0.000000
    28  H    1.755358   1.753877   0.000000
    29  C    2.936878   2.913776   3.529167   0.000000
    30  H    3.584764   3.905908   4.226718   1.092760   0.000000
    31  H    3.789768   3.284125   4.095625   1.092015   1.730714
                   31
    31  H    0.000000
 Stoichiometry    C9H18N2O2
 Framework group  C1[X(C9H18N2O2)]
 Deg. of freedom    87
 Full point group                 C1      NOp   1
 Largest Abelian subgroup         C1      NOp   1
 Largest concise Abelian subgroup C1      NOp   1
                         Standard orientation:                         
 ---------------------------------------------------------------------
 Center     Atomic      Atomic             Coordinates (Angstroms)
 Number     Number       Type             X           Y           Z
 ---------------------------------------------------------------------
      1          6           0        0.490206   -1.213703    0.052381
      2          6           0       -0.114502   -0.072038   -0.764411
      3          1           0       -0.456876   -0.541897   -1.691904
      4          6           0        1.155172    3.290484   -0.113860
      5          1           0        1.743370    3.900655    0.574840
      6          1           0        1.244967    3.724523   -1.111301
      7          1           0        0.104997    3.366963    0.187843
      8          8           0        0.022444   -1.583644    1.124378
      9          7           0       -1.286745    0.472660   -0.120277
     10          1           0       -1.199108    1.325914    0.410091
     11          7           0        1.542619   -1.817778   -0.512217
     12          1           0        1.905660   -1.466621   -1.383036
     13          6           0        2.247831   -2.882813    0.162583
     14          1           0        2.632986   -2.547410    1.127502
     15          1           0        1.595893   -3.739227    0.335950
     16          1           0        3.082845   -3.199890   -0.454668
     17          6           0       -2.466387   -0.172078   -0.110596
     18          6           0       -3.577985    0.492057    0.633803
     19          1           0       -3.301007    1.458856    1.048648
     20          1           0       -4.425748    0.617714   -0.039054
     21          1           0       -3.898464   -0.164925    1.442347
     22          8           0       -2.632795   -1.244082   -0.690774
     23          6           0        1.615205    1.841893   -0.096697
     24          1           0        2.666719    1.842428   -0.400806
     25          6           0        1.582827    1.298599    1.321222
     26          1           0        0.572855    1.275770    1.737506
     27          1           0        2.005034    0.295542    1.402657
     28          1           0        2.178464    1.947003    1.967174
     29          6           0        0.860047    1.027707   -1.174751
     30          1           0        0.294724    1.714536   -1.809416
     31          1           0        1.589894    0.567049   -1.843791
 ---------------------------------------------------------------------
 Rotational constants (GHZ):      0.7934952      0.6761054      0.4332568
 Leave Link  202 at Wed Jun 18 01:13:25 2014, MaxMem=  4294967296 cpu:         3.2
 (Enter /home/ztw1e12/g09/l301.exe)
 Standard basis: CC-pVTZ (5D, 7F)
 Converting basis for Fermi contact spin-spin IFCMod=1.
 AO basis functions are being uncontracted.
 Ernie: Thresh=  0.10000D-02 Tol=  0.10000D-05 Strict=F.
 There are  1119 symmetry adapted cartesian basis functions of A   symmetry.
 There are  1036 symmetry adapted basis functions of A   symmetry.
  1036 basis functions,  1119 primitive gaussians,  1119 cartesian basis functions
    51 alpha electrons       51 beta electrons
       nuclear repulsion energy       879.5628417551 Hartrees.
 IExCor= 4235 DFT=T Ex+Corr=M06 ExCW=0 ScaHFX=  0.270000
 ScaDFX=  1.000000  1.000000  1.000000  1.000000 ScalE2=  1.000000  1.000000
 IRadAn= 199590 IRanWt=     -1 IRanGd=            0 ICorTp=0 IEmpDi=  4
 NAtoms=   31 NActive=   31 NUniq=   31 SFac= 1.00D+00 NAtFMM=   60 NAOKFM=F Big=F
 Integral buffers will be    131072 words long.
 Raffenetti 2 integral format.
 Two-electron integral symmetry is turned on.
 Leave Link  301 at Wed Jun 18 01:13:26 2014, MaxMem=  4294967296 cpu:         5.8
 (Enter /home/ztw1e12/g09/l302.exe)
 NPDir=0 NMtPBC=     1 NCelOv=     1 NCel=       1 NClECP=     1 NCelD=      1
         NCelK=      1 NCelE2=     1 NClLst=     1 CellRange=     0.0.
 One-electron integrals computed using PRISM.
 GSVD:  received Info=                   1 from GESDD.
 NBasis=  1036 RedAO= T EigKep=  1.21D-04  NBF=  1036
 NBsUse=   932 1.00D-06 EigRej=  6.60D-15 NBFU=   932
 Precomputing XC quadrature grid using
 IXCGrd= 4 IRadAn=      199590 IRanWt=          -1 IRanGd=           0 AccXCQ= 0.00D+00.
 Generated NRdTot=       0 NPtTot=           0 NUsed=           0 NTot=          32
 NSgBfM=   883   883   883   884   884 MxSgAt=    31 MxSgA2=    31.
 Leave Link  302 at Wed Jun 18 01:13:30 2014, MaxMem=  4294967296 cpu:        66.0
 (Enter /home/ztw1e12/g09/l308.exe)
 Leave Link  308 at Wed Jun 18 01:13:31 2014, MaxMem=  4294967296 cpu:         5.4
 (Enter /home/ztw1e12/g09/l303.exe)
 DipDrv:  MaxL=1.
 Leave Link  303 at Wed Jun 18 01:13:32 2014, MaxMem=  4294967296 cpu:         3.5
 (Enter /home/ztw1e12/g09/l401.exe)
 ExpMin= 1.03D-01 ExpMax= 1.38D+05 ExpMxC= 1.38D+05 IAcc=4 IRadAn=    199590 AccDes= 0.00D+00
 Harris functional with IExCor= 1009 and IRadAn=  199590 diagonalized for initial guess.
 HarFok:  IExCor= 1009 AccDes= 0.00D+00 IRadAn=    199590 IDoV= 1 UseB2=F ITyADJ=14
 ICtDFT=  3500011 ScaDFX=  1.000000  1.000000  1.000000  1.000000
 FoFCou: FMM=F IPFlag=           0 FMFlag=      100000 FMFlg1=           0
         NFxFlg=           0 DoJE=T BraDBF=F KetDBF=T FulRan=T
         wScrn=  0.000000 ICntrl=     500 IOpCl=  0 I1Cent=   200000004 NGrid=           0
         NMat0=    1 NMatS0=      1 NMatT0=    0 NMatD0=    1 NMtDS0=    0 NMtDT0=    0
 Petite list used in FoFCou.
 Harris En= -613.556910340691    
 JPrj=0 DoOrth=F DoCkMO=F.
 Leave Link  401 at Wed Jun 18 01:13:50 2014, MaxMem=  4294967296 cpu:       267.0
 (Enter /home/ztw1e12/g09/l502.exe)
 Closed shell SCF:
 Using DIIS extrapolation, IDIIS=  1040.
 Integral symmetry usage will be decided dynamically.
 IVT=     3801329 IEndB=     3801329 NGot=  4294967296 MDV=  4292435888
 LenX=  4292435888 LenY=  4291182608
 Requested convergence on RMS density matrix=1.00D-08 within 128 cycles.
 Requested convergence on MAX density matrix=1.00D-06.
 Requested convergence on             energy=1.00D-06.
 No special actions if energy rises.
 Fock matrices will be formed incrementally for  20 cycles.
 Integral accuracy reduced to 1.0D-05 until final iterations.

 Cycle   1  Pass 0  IDiag  1:
 FoFJK:  IHMeth= 1 ICntrl=       0 DoSepK=F KAlg= 0 I1Cent=   0 FoldK=F
 IRaf= 490000000 NMat=   1 IRICut=       1 DoRegI=T DoRafI=F ISym2E= 0.
 FoFCou: FMM=F IPFlag=           0 FMFlag=      100000 FMFlg1=           0
         NFxFlg=           0 DoJE=F BraDBF=F KetDBF=F FulRan=T
         wScrn=  0.000000 ICntrl=       0 IOpCl=  0 I1Cent=           0 NGrid=           0
         NMat0=    1 NMatS0=      1 NMatT0=    0 NMatD0=    1 NMtDS0=    0 NMtDT0=    0
 Symmetry not used in FoFCou.
 E= -613.175224546830    
 DIIS: error= 1.30D-01 at cycle   1 NSaved=   1.
 NSaved= 1 IEnMin= 1 EnMin= -613.175224546830     IErMin= 1 ErrMin= 1.30D-01
 ErrMax= 1.30D-01  0.00D+00 EMaxC= 1.00D-01 BMatC= 1.30D+01 BMatP= 1.30D+01
 IDIUse=3 WtCom= 0.00D+00 WtEn= 1.00D+00
 Coeff-Com:  0.100D+01
 Coeff-En:   0.100D+01
 Coeff:      0.100D+01
 Gap=     0.285 Goal=   None    Shift=    0.000
 GapD=    0.285 DampG=1.000 DampE=0.250 DampFc=0.2500 IDamp=-1.
 Damping current iteration by 2.50D-01
 RMSDP=2.16D-03 MaxDP=3.14D-01              OVMax= 2.89D-01

 Cycle   2  Pass 0  IDiag  1:
 RMSU=  5.40D-04    CP:  1.01D+00
 E= -613.331740691543     Delta-E=       -0.156516144712 Rises=F Damp=T
 DIIS: error= 9.86D-02 at cycle   2 NSaved=   2.
 NSaved= 2 IEnMin= 2 EnMin= -613.331740691543     IErMin= 2 ErrMin= 9.86D-02
 ErrMax= 9.86D-02  0.00D+00 EMaxC= 1.00D-01 BMatC= 7.66D+00 BMatP= 1.30D+01
 IDIUse=3 WtCom= 1.42D-02 WtEn= 9.86D-01
 Coeff-Com: -0.279D+01 0.379D+01
 Coeff-En:   0.000D+00 0.100D+01
 Coeff:     -0.396D-01 0.104D+01
 Gap=     0.217 Goal=   None    Shift=    0.000
 RMSDP=5.71D-04 MaxDP=5.42D-02 DE=-1.57D-01 OVMax= 1.40D-01

 Cycle   3  Pass 0  IDiag  1:
 RMSU=  4.48D-04    CP:  1.03D+00  1.65D+00
 E= -613.533988905116     Delta-E=       -0.202248213573 Rises=F Damp=F
 DIIS: error= 1.40D-02 at cycle   3 NSaved=   3.
 NSaved= 3 IEnMin= 3 EnMin= -613.533988905116     IErMin= 3 ErrMin= 1.40D-02
 ErrMax= 1.40D-02  0.00D+00 EMaxC= 1.00D-01 BMatC= 2.12D-01 BMatP= 7.66D+00
 IDIUse=3 WtCom= 8.60D-01 WtEn= 1.40D-01
 Coeff-Com:  0.104D+01-0.143D+01 0.139D+01
 Coeff-En:   0.104D+00 0.000D+00 0.896D+00
 Coeff:      0.910D+00-0.123D+01 0.132D+01
 Gap=     0.239 Goal=   None    Shift=    0.000
 RMSDP=4.04D-04 MaxDP=3.34D-02 DE=-2.02D-01 OVMax= 6.42D-02

 Cycle   4  Pass 0  IDiag  1:
 RMSU=  2.93D-04    CP:  1.03D+00  1.18D+00  7.36D-01
 E= -613.529799001110     Delta-E=        0.004189904006 Rises=F Damp=F
 DIIS: error= 7.90D-03 at cycle   4 NSaved=   4.
 NSaved= 4 IEnMin= 3 EnMin= -613.533988905116     IErMin= 4 ErrMin= 7.90D-03
 ErrMax= 7.90D-03  0.00D+00 EMaxC= 1.00D-01 BMatC= 1.11D-01 BMatP= 2.12D-01
 IDIUse=3 WtCom= 9.21D-01 WtEn= 7.90D-02
 Coeff-Com:  0.682D+00-0.942D+00 0.733D+00 0.527D+00
 Coeff-En:   0.000D+00 0.000D+00 0.515D+00 0.485D+00
 Coeff:      0.628D+00-0.867D+00 0.716D+00 0.523D+00
 Gap=     0.270 Goal=   None    Shift=    0.000
 RMSDP=2.86D-04 MaxDP=2.95D-02 DE= 4.19D-03 OVMax= 7.62D-02

 Cycle   5  Pass 0  IDiag  1:
 RMSU=  8.29D-05    CP:  1.02D+00  1.10D+00  8.49D-01  9.54D-02
 E= -613.609283315568     Delta-E=       -0.079484314458 Rises=F Damp=F
 DIIS: error= 2.63D-03 at cycle   5 NSaved=   5.
 NSaved= 5 IEnMin= 5 EnMin= -613.609283315568     IErMin= 5 ErrMin= 2.63D-03
 ErrMax= 2.63D-03  0.00D+00 EMaxC= 1.00D-01 BMatC= 1.27D-02 BMatP= 1.11D-01
 IDIUse=3 WtCom= 9.74D-01 WtEn= 2.63D-02
 Coeff-Com:  0.105D+00-0.152D+00 0.114D+00 0.255D+00 0.678D+00
 Coeff-En:   0.000D+00 0.000D+00 0.000D+00 0.555D-01 0.944D+00
 Coeff:      0.102D+00-0.148D+00 0.111D+00 0.249D+00 0.685D+00
 Gap=     0.262 Goal=   None    Shift=    0.000
 RMSDP=1.43D-04 MaxDP=2.05D-02 DE=-7.95D-02 OVMax= 2.56D-02

 Cycle   6  Pass 0  IDiag  1:
 RMSU=  7.05D-05    CP:  1.03D+00  1.15D+00  9.29D-01  4.54D-01  4.06D-01
 E= -613.616425132200     Delta-E=       -0.007141816632 Rises=F Damp=F
 DIIS: error= 6.94D-04 at cycle   6 NSaved=   6.
 NSaved= 6 IEnMin= 6 EnMin= -613.616425132200     IErMin= 6 ErrMin= 6.94D-04
 ErrMax= 6.94D-04  0.00D+00 EMaxC= 1.00D-01 BMatC= 9.66D-04 BMatP= 1.27D-02
 IDIUse=3 WtCom= 9.93D-01 WtEn= 6.94D-03
 Coeff-Com:  0.447D-01-0.610D-01 0.131D-01 0.486D-01 0.223D+00 0.732D+00
 Coeff-En:   0.000D+00 0.000D+00 0.000D+00 0.000D+00 0.921D-02 0.991D+00
 Coeff:      0.444D-01-0.606D-01 0.130D-01 0.483D-01 0.221D+00 0.734D+00
 Gap=     0.261 Goal=   None    Shift=    0.000
 RMSDP=2.99D-05 MaxDP=3.68D-03 DE=-7.14D-03 OVMax= 7.26D-03

 Cycle   7  Pass 0  IDiag  1:
 RMSU=  2.18D-05    CP:  1.03D+00  1.12D+00  9.25D-01  4.48D-01  5.52D-01
                    CP:  1.06D+00
 E= -613.616947532534     Delta-E=       -0.000522400334 Rises=F Damp=F
 DIIS: error= 4.98D-04 at cycle   7 NSaved=   7.
 NSaved= 7 IEnMin= 7 EnMin= -613.616947532534     IErMin= 7 ErrMin= 4.98D-04
 ErrMax= 4.98D-04  0.00D+00 EMaxC= 1.00D-01 BMatC= 2.39D-04 BMatP= 9.66D-04
 IDIUse=3 WtCom= 9.95D-01 WtEn= 4.98D-03
 Coeff-Com:  0.309D-01-0.414D-01 0.826D-02 0.109D-01 0.672D-01 0.413D+00
 Coeff-Com:  0.511D+00
 Coeff-En:   0.000D+00 0.000D+00 0.000D+00 0.000D+00 0.000D+00 0.150D+00
 Coeff-En:   0.850D+00
 Coeff:      0.308D-01-0.412D-01 0.822D-02 0.109D-01 0.669D-01 0.412D+00
 Coeff:      0.513D+00
 Gap=     0.262 Goal=   None    Shift=    0.000
 RMSDP=1.15D-05 MaxDP=1.39D-03 DE=-5.22D-04 OVMax= 2.61D-03

 Cycle   8  Pass 0  IDiag  1:
 RMSU=  6.84D-06    CP:  1.03D+00  1.12D+00  9.30D-01  4.61D-01  5.37D-01
                    CP:  1.12D+00  6.82D-01
 E= -613.617110544023     Delta-E=       -0.000163011490 Rises=F Damp=F
 DIIS: error= 1.24D-04 at cycle   8 NSaved=   8.
 NSaved= 8 IEnMin= 8 EnMin= -613.617110544023     IErMin= 8 ErrMin= 1.24D-04
 ErrMax= 1.24D-04  0.00D+00 EMaxC= 1.00D-01 BMatC= 2.33D-05 BMatP= 2.39D-04
 IDIUse=3 WtCom= 9.99D-01 WtEn= 1.24D-03
 Coeff-Com:  0.172D-01-0.230D-01 0.607D-02-0.350D-03 0.998D-02 0.170D+00
 Coeff-Com:  0.296D+00 0.524D+00
 Coeff-En:   0.000D+00 0.000D+00 0.000D+00 0.000D+00 0.000D+00 0.000D+00
 Coeff-En:   0.000D+00 0.100D+01
 Coeff:      0.172D-01-0.230D-01 0.606D-02-0.349D-03 0.996D-02 0.170D+00
 Coeff:      0.296D+00 0.525D+00
 Gap=     0.261 Goal=   None    Shift=    0.000
 RMSDP=5.03D-06 MaxDP=5.66D-04 DE=-1.63D-04 OVMax= 1.07D-03

 Initial convergence to 1.0D-05 achieved.  Increase integral accuracy.
 Cycle   9  Pass 1  IDiag  1:
 E= -613.617019066746     Delta-E=        0.000091477278 Rises=F Damp=F
 DIIS: error= 6.67D-05 at cycle   1 NSaved=   1.
 NSaved= 1 IEnMin= 1 EnMin= -613.617019066746     IErMin= 1 ErrMin= 6.67D-05
 ErrMax= 6.67D-05  0.00D+00 EMaxC= 1.00D-01 BMatC= 1.02D-05 BMatP= 1.02D-05
 IDIUse=1 WtCom= 1.00D+00 WtEn= 0.00D+00
 Coeff-Com:  0.100D+01
 Coeff:      0.100D+01
 Gap=     0.262 Goal=   None    Shift=    0.000
 RMSDP=5.03D-06 MaxDP=5.66D-04 DE= 9.15D-05 OVMax= 1.20D-03

 Cycle  10  Pass 1  IDiag  1:
 RMSU=  2.18D-05    CP:  1.00D+00
 E= -613.617016125370     Delta-E=        0.000002941375 Rises=F Damp=F
 DIIS: error= 1.28D-04 at cycle   2 NSaved=   2.
 NSaved= 2 IEnMin= 1 EnMin= -613.617019066746     IErMin= 1 ErrMin= 6.67D-05
 ErrMax= 1.28D-04  0.00D+00 EMaxC= 1.00D-01 BMatC= 1.18D-05 BMatP= 1.02D-05
 IDIUse=3 WtCom= 4.69D-01 WtEn= 5.31D-01
 Coeff-Com:  0.523D+00 0.477D+00
 Coeff-En:   0.616D+00 0.384D+00
 Coeff:      0.573D+00 0.427D+00
 Gap=     0.262 Goal=   None    Shift=    0.000
 RMSDP=3.40D-06 MaxDP=4.45D-04 DE= 2.94D-06 OVMax= 1.01D-03

 Cycle  11  Pass 1  IDiag  1:
 RMSU=  3.36D-06    CP:  1.00D+00  9.83D-01
 E= -613.617023761937     Delta-E=       -0.000007636567 Rises=F Damp=F
 DIIS: error= 4.56D-05 at cycle   3 NSaved=   3.
 NSaved= 3 IEnMin= 3 EnMin= -613.617023761937     IErMin= 3 ErrMin= 4.56D-05
 ErrMax= 4.56D-05  0.00D+00 EMaxC= 1.00D-01 BMatC= 1.24D-06 BMatP= 1.02D-05
 IDIUse=1 WtCom= 1.00D+00 WtEn= 0.00D+00
 Coeff-Com:  0.476D-01 0.243D+00 0.709D+00
 Coeff:      0.476D-01 0.243D+00 0.709D+00
 Gap=     0.262 Goal=   None    Shift=    0.000
 RMSDP=9.30D-07 MaxDP=9.31D-05 DE=-7.64D-06 OVMax= 2.58D-04

 Cycle  12  Pass 1  IDiag  1:
 RMSU=  4.64D-07    CP:  1.00D+00  1.00D+00  7.89D-01
 E= -613.617024558997     Delta-E=       -0.000000797060 Rises=F Damp=F
 DIIS: error= 8.28D-06 at cycle   4 NSaved=   4.
 NSaved= 4 IEnMin= 4 EnMin= -613.617024558997     IErMin= 4 ErrMin= 8.28D-06
 ErrMax= 8.28D-06  0.00D+00 EMaxC= 1.00D-01 BMatC= 9.64D-08 BMatP= 1.24D-06
 IDIUse=1 WtCom= 1.00D+00 WtEn= 0.00D+00
 Coeff-Com:  0.437D-02 0.107D+00 0.364D+00 0.525D+00
 Coeff:      0.437D-02 0.107D+00 0.364D+00 0.525D+00
 Gap=     0.262 Goal=   None    Shift=    0.000
 RMSDP=2.30D-07 MaxDP=2.20D-05 DE=-7.97D-07 OVMax= 5.02D-05

 Cycle  13  Pass 1  IDiag  1:
 RMSU=  1.82D-07    CP:  1.00D+00  1.00D+00  7.96D-01  7.05D-01
 E= -613.617024626634     Delta-E=       -0.000000067636 Rises=F Damp=F
 DIIS: error= 2.04D-06 at cycle   5 NSaved=   5.
 NSaved= 5 IEnMin= 5 EnMin= -613.617024626634     IErMin= 5 ErrMin= 2.04D-06
 ErrMax= 2.04D-06  0.00D+00 EMaxC= 1.00D-01 BMatC= 5.48D-09 BMatP= 9.64D-08
 IDIUse=1 WtCom= 1.00D+00 WtEn= 0.00D+00
 Coeff-Com: -0.216D-02 0.289D-01 0.109D+00 0.248D+00 0.616D+00
 Coeff:     -0.216D-02 0.289D-01 0.109D+00 0.248D+00 0.616D+00
 Gap=     0.262 Goal=   None    Shift=    0.000
 RMSDP=6.34D-08 MaxDP=7.86D-06 DE=-6.76D-08 OVMax= 1.06D-05

 Cycle  14  Pass 1  IDiag  1:
 RMSU=  3.62D-08    CP:  1.00D+00  1.00D+00  8.00D-01  8.07D-01  9.23D-01
 E= -613.617024630282     Delta-E=       -0.000000003648 Rises=F Damp=F
 DIIS: error= 3.91D-07 at cycle   6 NSaved=   6.
 NSaved= 6 IEnMin= 6 EnMin= -613.617024630282     IErMin= 6 ErrMin= 3.91D-07
 ErrMax= 3.91D-07  0.00D+00 EMaxC= 1.00D-01 BMatC= 2.12D-10 BMatP= 5.48D-09
 IDIUse=1 WtCom= 1.00D+00 WtEn= 0.00D+00
 Coeff-Com: -0.100D-02 0.662D-02 0.265D-01 0.751D-01 0.243D+00 0.650D+00
 Coeff:     -0.100D-02 0.662D-02 0.265D-01 0.751D-01 0.243D+00 0.650D+00
 Gap=     0.262 Goal=   None    Shift=    0.000
 RMSDP=1.86D-08 MaxDP=1.37D-06 DE=-3.65D-09 OVMax= 4.77D-06

 Cycle  15  Pass 1  IDiag  1:
 RMSU=  1.52D-08    CP:  1.00D+00  1.00D+00  8.00D-01  8.22D-01  9.52D-01
                    CP:  8.48D-01
 E= -613.617024630373     Delta-E=       -0.000000000091 Rises=F Damp=F
 DIIS: error= 2.61D-07 at cycle   7 NSaved=   7.
 NSaved= 7 IEnMin= 7 EnMin= -613.617024630373     IErMin= 7 ErrMin= 2.61D-07
 ErrMax= 2.61D-07  0.00D+00 EMaxC= 1.00D-01 BMatC= 9.11D-11 BMatP= 2.12D-10
 IDIUse=1 WtCom= 1.00D+00 WtEn= 0.00D+00
 Coeff-Com: -0.245D-03-0.111D-02-0.309D-02 0.142D-02 0.378D-01 0.413D+00
 Coeff-Com:  0.553D+00
 Coeff:     -0.245D-03-0.111D-02-0.309D-02 0.142D-02 0.378D-01 0.413D+00
 Coeff:      0.553D+00
 Gap=     0.262 Goal=   None    Shift=    0.000
 RMSDP=1.26D-08 MaxDP=2.00D-06 DE=-9.12D-11 OVMax= 2.37D-06

 Cycle  16  Pass 1  IDiag  1:
 RMSU=  5.90D-09    CP:  1.00D+00  1.00D+00  8.01D-01  8.33D-01  9.81D-01
                    CP:  1.02D+00  7.40D-01
 E= -613.617024630378     Delta-E=       -0.000000000005 Rises=F Damp=F
 DIIS: error= 1.06D-07 at cycle   8 NSaved=   8.
 NSaved= 8 IEnMin= 8 EnMin= -613.617024630378     IErMin= 8 ErrMin= 1.06D-07
 ErrMax= 1.06D-07  0.00D+00 EMaxC= 1.00D-01 BMatC= 1.11D-11 BMatP= 9.11D-11
 IDIUse=1 WtCom= 1.00D+00 WtEn= 0.00D+00
 Coeff-Com: -0.142D-04-0.159D-02-0.542D-02-0.900D-02-0.909D-02 0.167D+00
 Coeff-Com:  0.328D+00 0.529D+00
 Coeff:     -0.142D-04-0.159D-02-0.542D-02-0.900D-02-0.909D-02 0.167D+00
 Coeff:      0.328D+00 0.529D+00
 Gap=     0.262 Goal=   None    Shift=    0.000
 RMSDP=3.07D-09 MaxDP=2.62D-07 DE=-5.46D-12 OVMax= 8.01D-07

 SCF Done:  E(RM06) =  -613.617024630     A.U. after   16 cycles
            NFock= 16  Conv=0.31D-08     -V/T= 2.0046
 KE= 6.107962336637D+02 PE=-3.190495962137D+03 EE= 1.086519862088D+03
 Leave Link  502 at Wed Jun 18 01:42:26 2014, MaxMem=  4294967296 cpu:     27384.9
 (Enter /home/ztw1e12/g09/l801.exe)
 DoSCS=F DFT=T ScalE2(SS,OS)=  1.000000  1.000000
 Range of M.O.s used for correlation:     1   932
 NBasis=  1036 NAE=    51 NBE=    51 NFC=     0 NFV=     0
 NROrb=    932 NOA=    51 NOB=    51 NVA=   881 NVB=   881
 Leave Link  801 at Wed Jun 18 01:42:26 2014, MaxMem=  4294967296 cpu:         0.4
 (Enter /home/ztw1e12/g09/l1002.exe)
 Minotr:  Closed shell wavefunction.
          IDoAtm=1111111111111111111111111111111
          Direct CPHF calculation.
          Differentiating once with respect to Fermi-contact.
          Electric field/nuclear overlap derivatives assumed to be zero.
          Requested convergence is 1.0D-10 RMS, and 1.0D-09 maximum.
          Secondary convergence is 1.0D-12 RMS, and 1.0D-12 maximum.
          NewPWx=T KeepS1=F KeepF1=F KeepIn=T MapXYZ=F SortEE=F KeepMc=T.
          MDV=    4294966050 using IRadAn=  199590.
 Using stored XC quadrature information.
          Solving linear equations simultaneously, MaxMat=       0.
          There are    31 degrees of freedom in the 1st order CPHF.  IDoFFX=0 NUNeed=    31.
     31 vectors produced by pass  0 Test12= 1.45D-17 3.23D-11 XBig12= 4.16D+01 2.57D+00.
 AX will form    31 AO Fock derivatives at one time.
 FoFJK:  IHMeth= 1 ICntrl=       0 DoSepK=F KAlg= 0 I1Cent=   0 FoldK=F
 IRaf= 510000000 NMat=  31 IRICut=       1 DoRegI=T DoRafI=F ISym2E=-1.
 FoFCou: FMM=F IPFlag=           0 FMFlag=      100000 FMFlg1=           0
         NFxFlg=           0 DoJE=F BraDBF=F KetDBF=F FulRan=T
         wScrn=  0.000000 ICntrl=       0 IOpCl=  0 I1Cent=           0 NGrid=           0
         NMat0=   31 NMatS0=      0 NMatT0=   31 NMatD0=   31 NMtDS0=    0 NMtDT0=    0
 Petite list used in FoFCou.
     31 vectors produced by pass  1 Test12= 1.45D-17 3.23D-11 XBig12= 3.44D-01 1.76D-01.
     31 vectors produced by pass  2 Test12= 1.45D-17 3.23D-11 XBig12= 1.69D-02 5.01D-02.
     31 vectors produced by pass  3 Test12= 1.45D-17 3.23D-11 XBig12= 3.73D-04 6.40D-03.
     31 vectors produced by pass  4 Test12= 1.45D-17 3.23D-11 XBig12= 5.37D-06 9.00D-04.
     31 vectors produced by pass  5 Test12= 1.45D-17 3.23D-11 XBig12= 1.28D-07 1.60D-04.
     31 vectors produced by pass  6 Test12= 1.45D-17 3.23D-11 XBig12= 3.82D-09 1.85D-05.
     31 vectors produced by pass  7 Test12= 1.45D-17 3.23D-11 XBig12= 1.13D-10 4.31D-06.
     31 vectors produced by pass  8 Test12= 1.45D-17 3.23D-11 XBig12= 2.91D-12 3.90D-07.
     31 vectors produced by pass  9 Test12= 1.45D-17 3.23D-11 XBig12= 6.28D-14 7.74D-08.
     31 vectors produced by pass 10 Test12= 1.45D-17 3.23D-11 XBig12= 2.17D-15 8.04D-09.
     30 vectors produced by pass 11 Test12= 1.45D-17 3.23D-11 XBig12= 2.09D-17 6.01D-10.
      3 vectors produced by pass 12 Test12= 1.45D-17 3.23D-11 XBig12= 1.77D-19 4.52D-11.
 InvSVY:  IOpt=1 It=  1 EMax= 7.99D-15
 Solved reduced A of dimension   374 with    31 vectors.
 Max diff in FC couplings:  IJMax=    22    17 Diff= 2.56D-04 IJMaxR=    18    15 DiffR= 4.16D-01
 Fermi Contact (FC) contribution to K (Hz):
                1             2             3             4             5 
      1  0.123400D+11
      2  0.269579D+02  0.123400D+11
      3 -0.128348D+01  0.186569D+02  0.123400D+11
      4  0.448290D-01  0.164848D+00 -0.216782D-01  0.123400D+11
      5 -0.386682D-02  0.438466D-01  0.705226D-02  0.175339D+02  0.123400D+11
      6  0.613137D-02 -0.776061D-02 -0.599535D-03  0.176522D+02 -0.764530D+00
      7  0.117343D-02 -0.590460D-02  0.654467D-02  0.166908D+02 -0.757184D+00
      8 -0.962239D+01  0.283492D+01  0.355979D+00  0.478750D-01  0.892208D-03
      9  0.298511D+00  0.191768D+02 -0.875560D+00  0.217912D+00  0.109311D-01
     10 -0.367069D-01  0.262427D+00  0.251017D+00 -0.142198D-01  0.253062D-03
     11  0.283508D+02  0.133737D+02 -0.101971D-01  0.292608D-01  0.320733D-02
     12  0.475039D+00  0.641311D-01 -0.208528D-01 -0.513523D-02 -0.606780D-03
     13 -0.417848D+00  0.969311D+00 -0.622024D-01 -0.264176D-02  0.816399D-03
     14  0.212627D+00 -0.861013D-01  0.321680D-01  0.184354D-02 -0.556056D-05
     15  0.160713D+00 -0.807380D-01  0.263099D-01  0.948804D-03  0.302583D-03
     16  0.951610D+00 -0.145232D-01  0.689145D-03  0.107273D-02  0.253044D-04
     17  0.179632D-01 -0.532470D+00  0.395997D+00  0.324356D-01  0.434950D-02
     18 -0.151437D+00  0.886288D+00 -0.862997D-01 -0.561213D-02 -0.345846D-03
     19 -0.617469D-03  0.107329D+00 -0.253782D-02 -0.850229D-03 -0.367522D-04
     20  0.518082D-01  0.189182D-01  0.928830D-02 -0.451708D-03 -0.501276D-04
     21  0.889429D-01  0.437511D-01  0.180322D-01 -0.242839D-03 -0.283278D-04
     22  0.442351D+00  0.780574D+00  0.143920D+00  0.458100D-02  0.170111D-02
     23  0.533210D+00 -0.639301D+00  0.115331D+01  0.170472D+02 -0.541218D+00
     24 -0.189006D-01  0.491321D+00 -0.241925D-01 -0.840187D+00  0.130358D+00
     25  0.184961D+00  0.175338D+01  0.174111D-01 -0.921799D-01  0.289466D+00
     26  0.400452D-01  0.156927D-01  0.990956D-02  0.389837D+00 -0.378762D-02
     27 -0.186924D-02  0.670784D-01  0.743555D-02  0.153529D+01  0.367175D-02
     28  0.179981D-01  0.104595D+00  0.277122D-02  0.376947D+00 -0.887052D-02
     29 -0.147509D+00  0.170555D+02 -0.914511D+00  0.246876D+00  0.145657D+01
     30  0.106932D+01 -0.962402D+00  0.138603D+00  0.117072D+01  0.299898D-01
     31  0.956795D-01 -0.541861D+00  0.169980D+00  0.484236D+00  0.229103D-02
                6             7             8             9            10 
      6  0.123400D+11
      7 -0.754386D+00  0.123400D+11
      8  0.536367D-02 -0.615850D-03  0.123400D+11
      9  0.204226D-01  0.158180D+00  0.472970D+00  0.123400D+11
     10 -0.767697D-03 -0.180924D-01 -0.952540D-02  0.313752D+02  0.123400D+11
     11  0.422228D-03  0.205408D-02  0.636169D+01  0.820206D+00  0.784156D-01
     12 -0.166045D-03  0.229960D-03  0.470986D+00  0.348279D-01 -0.142718D-02
     13  0.954973D-03 -0.251792D-03  0.665586D+00  0.272086D+00 -0.393216D-03
     14  0.405090D-03 -0.480361D-04  0.257495D+00 -0.757252D-02  0.760634D-03
     15  0.270295D-03  0.143332D-03  0.239102D+00 -0.242535D-02  0.253020D-03
     16  0.102608D-04 -0.244609D-05  0.190930D+00  0.344103D-01 -0.508189D-03
     17  0.351459D-03  0.124469D-01  0.140580D+00  0.264534D+02  0.386801D+00
     18  0.431452D-03  0.339846D-03  0.743371D-01  0.129289D+02  0.107720D+00
     19  0.539873D-04  0.947440D-03 -0.923410D-04  0.344573D+00 -0.110676D-01
     20 -0.438945D-05  0.309512D-04  0.581965D-02  0.359293D+00 -0.555760D-02
     21 -0.261001D-05 -0.446741D-04  0.279229D-02  0.369577D+00 -0.163290D-01
     22  0.799926D-03  0.230625D-02  0.799282D+00  0.574401D+01  0.377645D+00
     23 -0.611918D+00 -0.726367D+00  0.488239D-01  0.317001D+00 -0.153715D-01
     24  0.159780D+00  0.431691D+00  0.753964D-02  0.380600D-01  0.183755D-02
     25  0.130989D+01  0.428136D+00  0.110659D+01  0.723412D+00  0.355029D-02
     26 -0.120257D-01 -0.210989D-01  0.129015D+00  0.329597D+00 -0.207623D-01
     27  0.854890D-01 -0.114348D-01  0.227108D+00  0.869410D-02 -0.105278D-02
     28  0.123377D-01 -0.652528D-02  0.178195D+00  0.852473D-01  0.315100D-03
     29  0.410999D+00  0.350361D+00  0.376999D+00  0.908534D+00  0.389091D+00
     30 -0.138231D-01 -0.140800D-01  0.883388D-01  0.584970D+00 -0.129378D-01
     31 -0.680084D-02 -0.979685D-02 -0.238288D-01  0.201411D+01 -0.225580D-01
               11            12            13            14            15 
     11  0.123400D+11
     12  0.311814D+02  0.123400D+11
     13  0.172412D+02  0.323974D+00  0.123400D+11
     14 -0.591029D+00  0.828373D-01  0.197031D+02  0.123400D+11
     15 -0.527758D+00  0.127487D+00  0.202749D+02 -0.733750D+00  0.123400D+11
     16 -0.368864D+00  0.289255D+00  0.182223D+02 -0.740427D+00 -0.750468D+00
     17 -0.664645D-01 -0.109363D-02 -0.148034D-01  0.146112D-02  0.169242D-02
     18  0.157315D-01  0.181290D-02  0.139945D-01 -0.181946D-03  0.658349D-04
     19  0.473736D-02 -0.282348D-04 -0.709841D-04 -0.130930D-04 -0.441962D-05
     20 -0.194074D-02 -0.427717D-04 -0.287010D-03  0.359400D-04  0.551477D-05
     21  0.243000D-01  0.740387D-04  0.374554D-02 -0.496574D-04 -0.122906D-03
     22  0.191844D+00 -0.159760D-02  0.134254D-01  0.444851D-03  0.105537D-02
     23 -0.100718D-01  0.474333D-02  0.839830D-03  0.123396D-03 -0.319330D-03
     24  0.141625D-01 -0.123425D-02 -0.179809D-02  0.957116D-03  0.606924D-03
     25  0.234575D+00 -0.752634D-02 -0.566970D-02  0.961953D-02  0.324756D-02
     26 -0.637202D-02  0.858900D-03  0.300923D-03 -0.133259D-03 -0.955113D-04
     27  0.510024D-01  0.599527D-03  0.188590D-01  0.648708D-02  0.923215D-03
     28  0.277647D-01 -0.696688D-03  0.486215D-03  0.101342D-02  0.103821D-02
     29  0.293988D-02 -0.406982D-01 -0.690108D-01  0.358469D-01  0.893589D-01
     30 -0.436649D-01 -0.102333D-01 -0.663000D-02  0.176452D-03  0.440747D-02
     31  0.240576D+00 -0.302679D-01  0.960145D-02 -0.103479D-02  0.247070D-02
               16            17            18            19            20 
     16  0.123400D+11
     17  0.711544D-04  0.123400D+11
     18  0.571934D-03  0.273912D+02  0.123400D+11
     19  0.143208D-04 -0.753553D+00  0.169609D+02  0.123400D+11
     20  0.785685D-04 -0.117250D+01  0.179000D+02 -0.720050D+00  0.123400D+11
     21  0.311308D-03 -0.121081D+01  0.180238D+02 -0.744467D+00 -0.921898D+00
     22  0.815349D-03 -0.958502D+01  0.380030D+01  0.826373D+00  0.428671D+00
     23 -0.909276D-03 -0.610758D-01  0.177541D-01 -0.107663D-02 -0.142802D-02
     24  0.278222D-03  0.579090D-02  0.588472D-03  0.698109D-03  0.587172D-03
     25  0.236228D-02  0.292501D-01 -0.651915D-02 -0.941834D-03  0.180839D-02
     26 -0.868786D-04  0.289019D-01  0.231946D-02  0.904350D-03  0.216508D-03
     27  0.570992D-03  0.144364D-03  0.141199D-03  0.782890D-04 -0.154799D-04
     28  0.157587D-03  0.682966D-02 -0.445167D-03 -0.457760D-04  0.161519D-03
     29  0.562901D-02  0.129412D+01 -0.346956D-01 -0.316393D-02  0.231968D-01
     30  0.120760D-02 -0.555685D-02  0.102891D-01  0.149554D-03 -0.152552D-03
     31  0.972101D-03  0.108576D+00  0.656003D-01 -0.102821D-03  0.349085D-02
               21            22            23            24            25 
     21  0.123400D+11
     22  0.444971D+00  0.123400D+11
     23 -0.564658D-03  0.124153D+00  0.123400D+11
     24 -0.687796D-04  0.449189D-02  0.170632D+02  0.123400D+11
     25  0.395988D-03  0.809843D-01  0.171407D+02 -0.863955D+00  0.123400D+11
     26  0.334196D-03  0.744234D-03 -0.713654D+00  0.433454D+00  0.171580D+02
     27  0.862588D-04 -0.170074D-03 -0.582269D+00  0.155885D+00  0.177164D+02
     28  0.194758D-03  0.253987D-02 -0.674568D+00  0.142445D+00  0.167776D+02
     29 -0.602589D-02  0.143502D+00  0.172067D+02 -0.825393D+00 -0.244917D+00
     30 -0.894879D-03 -0.198465D-02 -0.583512D+00  0.473650D-01  0.356291D+00
     31 -0.213643D-02  0.569636D-02 -0.626926D+00  0.398252D+00  0.167122D+00
               26            27            28            29            30 
     26  0.123400D+11
     27 -0.781082D+00  0.123400D+11
     28 -0.852751D+00 -0.857903D+00  0.123400D+11
     29  0.311513D+00  0.167619D+00  0.122396D+01  0.123400D+11
     30 -0.952109D-02 -0.105238D-01  0.531306D-02  0.177159D+02  0.123400D+11
     31 -0.886637D-02 -0.664630D-02 -0.198040D-01  0.166011D+02 -0.954357D+00
               31 
     31  0.123400D+11
 Fermi Contact (FC) contribution to J (Hz):
                1             2             3             4             5 
      1  0.243533D+11
      2  0.532020D+02  0.243533D+11
      3 -0.100713D+02  0.146399D+03  0.385007D+12
      4  0.884712D-01  0.325331D+00 -0.170107D+00  0.243533D+11
      5 -0.303426D-01  0.344060D+00  0.220030D+00  0.137587D+03  0.385007D+12
      6  0.481123D-01 -0.608968D-01 -0.187055D-01  0.138515D+03 -0.238533D+02
      7  0.920780D-02 -0.463328D-01  0.204193D+00  0.130971D+03 -0.236241D+02
      8  0.102400D+02 -0.301686D+01 -0.150624D+01 -0.509477D-01 -0.377518D-02
      9  0.169319D+00  0.108773D+02 -0.197464D+01  0.123602D+00  0.246528D-01
     10 -0.288036D+00  0.205924D+01  0.783173D+01 -0.111581D+00  0.789552D-02
     11  0.160809D+02  0.758575D+01 -0.229974D-01  0.165971D-01  0.723344D-02
     12  0.372759D+01  0.503231D+00 -0.650607D+00 -0.402956D-01 -0.189315D-01
     13 -0.824633D+00  0.191296D+01 -0.488096D+00 -0.521359D-02  0.640620D-02
     14  0.166846D+01 -0.675628D+00  0.100364D+01  0.144660D-01 -0.173489D-03
     15  0.126110D+01 -0.633543D+00  0.820868D+00  0.744517D-02  0.944057D-02
     16  0.746719D+01 -0.113962D+00  0.215013D-01  0.841764D-02  0.789496D-03
     17  0.354508D-01 -0.105084D+01  0.310735D+01  0.640124D-01  0.341301D-01
     18 -0.298865D+00  0.174911D+01 -0.677185D+00 -0.110757D-01 -0.271382D-02
     19 -0.484522D-02  0.842204D+00 -0.791798D-01 -0.667166D-02 -0.114667D-02
     20  0.406534D+00  0.148450D+00  0.289794D+00 -0.354451D-02 -0.156398D-02
     21  0.697926D+00  0.343311D+00  0.562603D+00 -0.190554D-02 -0.883825D-03
     22 -0.470741D+00 -0.830672D+00 -0.608966D+00 -0.487501D-02 -0.719788D-02
     23  0.105230D+01 -0.126168D+01  0.904990D+01  0.336431D+02 -0.424688D+01
     24 -0.148311D+00  0.385535D+01 -0.754804D+00 -0.659287D+01  0.406718D+01
     25  0.365025D+00  0.346034D+01  0.136623D+00 -0.181919D+00  0.227141D+01
     26  0.314231D+00  0.123139D+00  0.309178D+00  0.305902D+01 -0.118174D+00
     27 -0.146677D-01  0.526358D+00  0.231989D+00  0.120472D+02  0.114558D+00
     28  0.141229D+00  0.820747D+00  0.864619D-01  0.295787D+01 -0.276760D+00
     29 -0.291113D+00  0.336594D+02 -0.717608D+01  0.487215D+00  0.114296D+02
     30  0.839084D+01 -0.755188D+01  0.432441D+01  0.918650D+01  0.935680D+00
     31  0.750788D+00 -0.425193D+01  0.530337D+01  0.379975D+01  0.714802D-01
                6             7             8             9            10 
      6  0.385007D+12
      7 -0.235368D+02  0.385007D+12
      8 -0.226952D-01  0.260583D-02  0.708114D+10
      9  0.460587D-01  0.356741D+00 -0.144661D+00  0.201170D+10
     10 -0.239521D-01 -0.564483D+00  0.403046D-01  0.707600D+02  0.385007D+12
     11  0.952245D-03  0.463253D-02 -0.194577D+01  0.133712D+00  0.176849D+00
     12 -0.518059D-02  0.717475D-02 -0.199287D+01  0.785469D-01 -0.445279D-01
     13  0.749358D-02 -0.197578D-02 -0.708304D+00  0.154330D+00 -0.308552D-02
     14  0.126388D-01 -0.149872D-02 -0.108953D+01 -0.170782D-01  0.237318D-01
     15  0.843319D-02  0.447196D-02 -0.101171D+01 -0.546986D-02  0.789422D-02
     16  0.320136D-03 -0.763179D-04 -0.807879D+00  0.776049D-01 -0.158555D-01
     17  0.275787D-02  0.976696D-01 -0.149603D+00  0.150047D+02  0.303519D+01
     18  0.338556D-02  0.266674D-02 -0.791081D-01  0.733346D+01  0.845270D+00
     19  0.168440D-02  0.295601D-01  0.390720D-03  0.777110D+00 -0.345310D+00
     20 -0.136951D-03  0.965675D-03 -0.246245D-01  0.810309D+00 -0.173397D+00
     21 -0.814322D-04 -0.139383D-02 -0.118150D-01  0.833501D+00 -0.509463D+00
     22 -0.338471D-02 -0.975836D-02  0.458657D+00 -0.175685D+01 -0.159792D+01
     23 -0.480166D+01 -0.569973D+01 -0.519575D-01  0.179807D+00 -0.120619D+00
     24  0.498513D+01  0.134687D+02 -0.319023D-01  0.858361D-01  0.573314D-01
     25  0.102785D+02  0.335954D+01 -0.117761D+01  0.410328D+00  0.278588D-01
     26 -0.375201D+00 -0.658284D+00 -0.545899D+00  0.743336D+00 -0.647782D+00
     27  0.266725D+01 -0.356765D+00 -0.960955D+00  0.196077D-01 -0.328467D-01
     28  0.384935D+00 -0.203588D+00 -0.753992D+00  0.192257D+00  0.983110D-02
     29  0.322507D+01  0.274925D+01 -0.401195D+00  0.515332D+00  0.305316D+01
     30 -0.431279D+00 -0.439296D+00 -0.373786D+00  0.131927D+01 -0.403659D+00
     31 -0.212186D+00 -0.305661D+00  0.100826D+00  0.454238D+01 -0.703809D+00
               11            12            13            14            15 
     11  0.201170D+10
     12  0.703228D+02  0.385007D+12
     13  0.977940D+01  0.254220D+01  0.243533D+11
     14 -0.133294D+01  0.258452D+01  0.154609D+03  0.385007D+12
     15 -0.119024D+01  0.397760D+01  0.159095D+03 -0.228930D+02  0.385007D+12
     16 -0.831892D+00  0.902475D+01  0.142989D+03 -0.231013D+02 -0.234146D+02
     17 -0.376995D-01 -0.858164D-02 -0.292148D-01  0.114653D-01  0.132803D-01
     18  0.892310D-02  0.142256D-01  0.276184D-01 -0.142772D-02  0.516600D-03
     19  0.106841D-01 -0.880923D-03 -0.557005D-03 -0.408502D-03 -0.137892D-03
     20 -0.437691D-02 -0.133448D-02 -0.225214D-02  0.112133D-02  0.172061D-03
     21  0.548034D-01  0.231000D-02  0.293909D-01 -0.154931D-02 -0.383466D-02
     22 -0.586767D-01  0.675989D-02 -0.142871D-01 -0.188228D-02 -0.446555D-02
     23 -0.571286D-02  0.372204D-01  0.165743D-02  0.968277D-03 -0.250575D-02
     24  0.319405D-01 -0.385086D-01 -0.141094D-01  0.298620D-01  0.189360D-01
     25  0.133054D+00 -0.590585D-01 -0.111893D-01  0.754835D-01  0.254833D-01
     26 -0.143707D-01  0.267976D-01  0.236131D-02 -0.415768D-02 -0.297995D-02
     27  0.115025D+00  0.187052D-01  0.147985D+00  0.202397D+00  0.288043D-01
     28  0.626173D-01 -0.217366D-01  0.381528D-02  0.316188D-01  0.323920D-01
     29  0.166754D-02 -0.319355D+00 -0.136195D+00  0.281287D+00  0.701191D+00
     30 -0.984767D-01 -0.319278D+00 -0.520250D-01  0.550528D-02  0.137513D+00
     31  0.542568D+00 -0.944356D+00  0.753416D-01 -0.322853D-01  0.770858D-01
               16            17            18            19            20 
     16  0.385007D+12
     17  0.558341D-03  0.243533D+11
     18  0.448791D-02  0.540572D+02  0.243533D+11
     19  0.446808D-03 -0.591305D+01  0.133091D+03  0.385007D+12
     20  0.245133D-02 -0.920046D+01  0.140460D+03 -0.224655D+02  0.385007D+12
     21  0.971279D-02 -0.950107D+01  0.141431D+03 -0.232273D+02 -0.287632D+02
     22 -0.344996D-02  0.102002D+02 -0.404421D+01 -0.349661D+01 -0.181383D+01
     23 -0.713500D-02 -0.120535D+00  0.350382D-01 -0.844818D-02 -0.112056D-01
     24  0.868051D-02  0.454406D-01  0.461769D-02  0.217810D-01  0.183197D-01
     25  0.185366D-01  0.577258D-01 -0.128657D-01 -0.739048D-02  0.141903D-01
     26 -0.271061D-02  0.226791D+00  0.182006D-01  0.282157D-01  0.675505D-02
     27  0.178149D-01  0.113281D-02  0.110797D-02  0.244261D-02 -0.482973D-03
     28  0.491672D-02  0.535917D-01 -0.349318D-02 -0.142821D-02  0.503937D-02
     29  0.441703D-01  0.255397D+01 -0.684726D-01 -0.248270D-01  0.182023D+00
     30  0.376769D-01 -0.436041D-01  0.807379D-01  0.466607D-02 -0.475960D-02
     31  0.303295D-01  0.851989D+00  0.514759D+00 -0.320801D-02  0.108914D+00
               21            22            23            24            25 
     21  0.385007D+12
     22 -0.188279D+01  0.708114D+10
     23 -0.443081D-02 -0.132121D+00  0.243533D+11
     24 -0.214592D-02 -0.190064D-01  0.133894D+03  0.385007D+12
     25  0.310728D-02 -0.861819D-01  0.338275D+02 -0.677937D+01  0.243533D+11
     26  0.104269D-01 -0.314906D-02 -0.559997D+01  0.135237D+02  0.134637D+03
     27  0.269127D-02  0.719629D-03 -0.456901D+01  0.486360D+01  0.139019D+03
     28  0.607645D-02 -0.107469D-01 -0.529327D+01  0.444428D+01  0.131652D+03
     29 -0.472845D-01 -0.152712D+00  0.339578D+02 -0.647678D+01 -0.483349D+00
     30 -0.279202D-01  0.839759D-02 -0.457876D+01  0.147778D+01  0.279578D+01
     31 -0.666565D-01 -0.241029D-01 -0.491943D+01  0.124254D+02  0.131139D+01
               26            27            28            29            30 
     26  0.385007D+12
     27 -0.243697D+02  0.385007D+12
     28 -0.266058D+02 -0.267665D+02  0.385007D+12
     29  0.244441D+01  0.131529D+01  0.960432D+01  0.243533D+11
     30 -0.297057D+00 -0.328344D+00  0.165767D+00  0.139015D+03  0.385007D+12
     31 -0.276630D+00 -0.207364D+00 -0.617885D+00  0.130268D+03 -0.297759D+02
               31 
     31  0.385007D+12
 End of Minotr F.D. properties file   721 does not exist.
 End of Minotr F.D. properties file   722 does not exist.
 End of Minotr F.D. properties file   788 does not exist.
 Leave Link 1002 at Wed Jun 18 08:26:24 2014, MaxMem=  4294967296 cpu:    386852.1
 (Enter /home/ztw1e12/g09/l601.exe)
 Copying SCF densities to generalized density rwf, IOpCl= 0 IROHF=0.

 **********************************************************************

            Population analysis using the SCF density.

 **********************************************************************

 Orbital symmetries:
       Occupied  (A) (A) (A) (A) (A) (A) (A) (A) (A) (A) (A) (A)
                 (A) (A) (A) (A) (A) (A) (A) (A) (A) (A) (A) (A)
                 (A) (A) (A) (A) (A) (A) (A) (A) (A) (A) (A) (A)
                 (A) (A) (A) (A) (A) (A) (A) (A) (A) (A) (A) (A)
                 (A) (A) (A)
       Virtual   (A) (A) (A) (A) (A) (A) (A) (A) (A) (A) (A) (A)
                 (A) (A) (A) (A) (A) (A) (A) (A) (A) (A) (A) (A)
                 (A) (A) (A) (A) (A) (A) (A) (A) (A) (A) (A) (A)
                 (A) (A) (A) (A) (A) (A) (A) (A) (A) (A) (A) (A)
                 (A) (A) (A) (A) (A) (A) (A) (A) (A) (A) (A) (A)
                 (A) (A) (A) (A) (A) (A) (A) (A) (A) (A) (A) (A)
                 (A) (A) (A) (A) (A) (A) (A) (A) (A) (A) (A) (A)
                 (A) (A) (A) (A) (A) (A) (A) (A) (A) (A) (A) (A)
                 (A) (A) (A) (A) (A) (A) (A) (A) (A) (A) (A) (A)
                 (A) (A) (A) (A) (A) (A) (A) (A) (A) (A) (A) (A)
                 (A) (A) (A) (A) (A) (A) (A) (A) (A) (A) (A) (A)
                 (A) (A) (A) (A) (A) (A) (A) (A) (A) (A) (A) (A)
                 (A) (A) (A) (A) (A) (A) (A) (A) (A) (A) (A) (A)
                 (A) (A) (A) (A) (A) (A) (A) (A) (A) (A) (A) (A)
                 (A) (A) (A) (A) (A) (A) (A) (A) (A) (A) (A) (A)
                 (A) (A) (A) (A) (A) (A) (A) (A) (A) (A) (A) (A)
                 (A) (A) (A) (A) (A) (A) (A) (A) (A) (A) (A) (A)
                 (A) (A) (A) (A) (A) (A) (A) (A) (A) (A) (A) (A)
                 (A) (A) (A) (A) (A) (A) (A) (A) (A) (A) (A) (A)
                 (A) (A) (A) (A) (A) (A) (A) (A) (A) (A) (A) (A)
                 (A) (A) (A) (A) (A) (A) (A) (A) (A) (A) (A) (A)
                 (A) (A) (A) (A) (A) (A) (A) (A) (A) (A) (A) (A)
                 (A) (A) (A) (A) (A) (A) (A) (A) (A) (A) (A) (A)
                 (A) (A) (A) (A) (A) (A) (A) (A) (A) (A) (A) (A)
                 (A) (A) (A) (A) (A) (A) (A) (A) (A) (A) (A) (A)
                 (A) (A) (A) (A) (A) (A) (A) (A) (A) (A) (A) (A)
                 (A) (A) (A) (A) (A) (A) (A) (A) (A) (A) (A) (A)
                 (A) (A) (A) (A) (A) (A) (A) (A) (A) (A) (A) (A)
                 (A) (A) (A) (A) (A) (A) (A) (A) (A) (A) (A) (A)
                 (A) (A) (A) (A) (A) (A) (A) (A) (A) (A) (A) (A)
                 (A) (A) (A) (A) (A) (A) (A) (A) (A) (A) (A) (A)
                 (A) (A) (A) (A) (A) (A) (A) (A) (A) (A) (A) (A)
                 (A) (A) (A) (A) (A) (A) (A) (A) (A) (A) (A) (A)
                 (A) (A) (A) (A) (A) (A) (A) (A) (A) (A) (A) (A)
                 (A) (A) (A) (A) (A) (A) (A) (A) (A) (A) (A) (A)
                 (A) (A) (A) (A) (A) (A) (A) (A) (A) (A) (A) (A)
                 (A) (A) (A) (A) (A) (A) (A) (A) (A) (A) (A) (A)
                 (A) (A) (A) (A) (A) (A) (A) (A) (A) (A) (A) (A)
                 (A) (A) (A) (A) (A) (A) (A) (A) (A) (A) (A) (A)
                 (A) (A) (A) (A) (A) (A) (A) (A) (A) (A) (A) (A)
                 (A) (A) (A) (A) (A) (A) (A) (A) (A) (A) (A) (A)
                 (A) (A) (A) (A) (A) (A) (A) (A) (A) (A) (A) (A)
                 (A) (A) (A) (A) (A) (A) (A) (A) (A) (A) (A) (A)
                 (A) (A) (A) (A) (A) (A) (A) (A) (A) (A) (A) (A)
                 (A) (A) (A) (A) (A) (A) (A) (A) (A) (A) (A) (A)
                 (A) (A) (A) (A) (A) (A) (A) (A) (A) (A) (A) (A)
                 (A) (A) (A) (A) (A) (A) (A) (A) (A) (A) (A) (A)
                 (A) (A) (A) (A) (A) (A) (A) (A) (A) (A) (A) (A)
                 (A) (A) (A) (A) (A) (A) (A) (A) (A) (A) (A) (A)
                 (A) (A) (A) (A) (A) (A) (A) (A) (A) (A) (A) (A)
                 (A) (A) (A) (A) (A) (A) (A) (A) (A) (A) (A) (A)
                 (A) (A) (A) (A) (A) (A) (A) (A) (A) (A) (A) (A)
                 (A) (A) (A) (A) (A) (A) (A) (A) (A) (A) (A) (A)
                 (A) (A) (A) (A) (A) (A) (A) (A) (A) (A) (A) (A)
                 (A) (A) (A) (A) (A) (A) (A) (A) (A) (A) (A) (A)
                 (A) (A) (A) (A) (A) (A) (A) (A) (A) (A) (A) (A)
                 (A) (A) (A) (A) (A) (A) (A) (A) (A) (A) (A) (A)
                 (A) (A) (A) (A) (A) (A) (A) (A) (A) (A) (A) (A)
                 (A) (A) (A) (A) (A) (A) (A) (A) (A) (A) (A) (A)
                 (A) (A) (A) (A) (A) (A) (A) (A) (A) (A) (A) (A)
                 (A) (A) (A) (A) (A) (A) (A) (A) (A) (A) (A) (A)
                 (A) (A) (A) (A) (A) (A) (A) (A) (A) (A) (A) (A)
                 (A) (A) (A) (A) (A) (A) (A) (A) (A) (A) (A) (A)
                 (A) (A) (A) (A) (A) (A) (A) (A) (A) (A) (A) (A)
                 (A) (A) (A) (A) (A) (A) (A) (A) (A) (A) (A) (A)
                 (A) (A) (A) (A) (A) (A) (A) (A) (A) (A) (A) (A)
                 (A) (A) (A) (A) (A) (A) (A) (A) (A) (A) (A) (A)
                 (A) (A) (A) (A) (A) (A) (A) (A) (A) (A) (A) (A)
                 (A) (A) (A) (A) (A) (A) (A) (A) (A) (A) (A) (A)
                 (A) (A) (A) (A) (A) (A) (A) (A) (A) (A) (A) (A)
                 (A) (A) (A) (A) (A) (A) (A) (A) (A) (A) (A) (A)
                 (A) (A) (A) (A) (A) (A) (A) (A) (A) (A) (A) (A)
                 (A) (A) (A) (A) (A) (A) (A) (A) (A) (A) (A) (A)
                 (A) (A) (A) (A) (A)
 The electronic state is 1-A.
 Alpha  occ. eigenvalues --  -19.17101 -19.16024 -14.41921 -14.41239 -10.33472
 Alpha  occ. eigenvalues --  -10.33051 -10.29171 -10.27313 -10.25870 -10.25829
 Alpha  occ. eigenvalues --  -10.24009 -10.23526 -10.23363  -1.05320  -1.03768
 Alpha  occ. eigenvalues --   -0.94362  -0.94048  -0.83886  -0.78619  -0.74201
 Alpha  occ. eigenvalues --   -0.72111  -0.70633  -0.66680  -0.60803  -0.59834
 Alpha  occ. eigenvalues --   -0.58305  -0.54894  -0.50373  -0.49285  -0.48381
 Alpha  occ. eigenvalues --   -0.47415  -0.46805  -0.45358  -0.45086  -0.44443
 Alpha  occ. eigenvalues --   -0.42624  -0.42124  -0.40970  -0.40383  -0.40087
 Alpha  occ. eigenvalues --   -0.39718  -0.38835  -0.38318  -0.36519  -0.35487
 Alpha  occ. eigenvalues --   -0.34322  -0.33517  -0.28179  -0.27508  -0.26172
 Alpha  occ. eigenvalues --   -0.25536
 Alpha virt. eigenvalues --    0.00621   0.02088   0.02672   0.03769   0.04534
 Alpha virt. eigenvalues --    0.04796   0.06812   0.07016   0.07690   0.07989
 Alpha virt. eigenvalues --    0.09358   0.09757   0.11137   0.11774   0.12023
 Alpha virt. eigenvalues --    0.12184   0.12735   0.13567   0.15440   0.15872
 Alpha virt. eigenvalues --    0.16302   0.17173   0.18246   0.18803   0.19691
 Alpha virt. eigenvalues --    0.20604   0.22376   0.22920   0.24450   0.24934
 Alpha virt. eigenvalues --    0.25043   0.26466   0.26682   0.26950   0.27672
 Alpha virt. eigenvalues --    0.28235   0.28778   0.29328   0.31421   0.32172
 Alpha virt. eigenvalues --    0.32956   0.33606   0.34270   0.34885   0.35479
 Alpha virt. eigenvalues --    0.36700   0.37041   0.38246   0.38635   0.39210
 Alpha virt. eigenvalues --    0.39577   0.40247   0.40682   0.41087   0.41167
 Alpha virt. eigenvalues --    0.41863   0.42126   0.42590   0.43133   0.43511
 Alpha virt. eigenvalues --    0.43929   0.44289   0.45056   0.45121   0.45950
 Alpha virt. eigenvalues --    0.46785   0.47049   0.47370   0.47747   0.48936
 Alpha virt. eigenvalues --    0.49613   0.50349   0.50769   0.51931   0.52472
 Alpha virt. eigenvalues --    0.52750   0.54101   0.54865   0.55016   0.57472
 Alpha virt. eigenvalues --    0.57678   0.59114   0.60016   0.60742   0.61987
 Alpha virt. eigenvalues --    0.63138   0.63555   0.64295   0.65006   0.68191
 Alpha virt. eigenvalues --    0.68787   0.69579   0.71717   0.72639   0.73368
 Alpha virt. eigenvalues --    0.74949   0.75575   0.76256   0.77089   0.78551
 Alpha virt. eigenvalues --    0.79205   0.79544   0.81102   0.81834   0.83543
 Alpha virt. eigenvalues --    0.84280   0.84997   0.85958   0.86827   0.87550
 Alpha virt. eigenvalues --    0.88084   0.88985   0.89643   0.90274   0.91321
 Alpha virt. eigenvalues --    0.92712   0.93391   0.93926   0.94384   0.95253
 Alpha virt. eigenvalues --    0.96239   0.96836   0.97298   0.97836   0.98727
 Alpha virt. eigenvalues --    0.99385   0.99702   1.00971   1.01362   1.01715
 Alpha virt. eigenvalues --    1.03052   1.03775   1.05331   1.06327   1.06814
 Alpha virt. eigenvalues --    1.07349   1.07994   1.08882   1.09057   1.09413
 Alpha virt. eigenvalues --    1.10456   1.11701   1.12464   1.13915   1.14716
 Alpha virt. eigenvalues --    1.14987   1.16000   1.16534   1.16848   1.17614
 Alpha virt. eigenvalues --    1.17831   1.19461   1.19931   1.20848   1.20960
 Alpha virt. eigenvalues --    1.21478   1.22047   1.23069   1.23430   1.23710
 Alpha virt. eigenvalues --    1.24447   1.25124   1.25584   1.26295   1.26485
 Alpha virt. eigenvalues --    1.27165   1.27702   1.28676   1.29210   1.29628
 Alpha virt. eigenvalues --    1.30192   1.31087   1.32286   1.32704   1.33090
 Alpha virt. eigenvalues --    1.34367   1.35013   1.36105   1.37119   1.37484
 Alpha virt. eigenvalues --    1.37830   1.39121   1.39918   1.40696   1.41221
 Alpha virt. eigenvalues --    1.42369   1.43624   1.45324   1.46299   1.47621
 Alpha virt. eigenvalues --    1.49797   1.51418   1.52749   1.54949   1.55209
 Alpha virt. eigenvalues --    1.58010   1.59141   1.60767   1.62417   1.64332
 Alpha virt. eigenvalues --    1.65555   1.68494   1.68981   1.71259   1.71869
 Alpha virt. eigenvalues --    1.74103   1.76052   1.77550   1.80423   1.82982
 Alpha virt. eigenvalues --    1.84424   1.87725   1.89155   1.90957   1.92176
 Alpha virt. eigenvalues --    1.93530   1.94810   1.96541   1.97717   2.00656
 Alpha virt. eigenvalues --    2.01198   2.02515   2.04608   2.04951   2.06486
 Alpha virt. eigenvalues --    2.08822   2.10725   2.11625   2.12788   2.14989
 Alpha virt. eigenvalues --    2.18013   2.18894   2.19692   2.20981   2.22495
 Alpha virt. eigenvalues --    2.23852   2.24597   2.25915   2.27813   2.30619
 Alpha virt. eigenvalues --    2.31979   2.32960   2.36271   2.37414   2.38314
 Alpha virt. eigenvalues --    2.39223   2.39985   2.41997   2.42223   2.43196
 Alpha virt. eigenvalues --    2.44032   2.45777   2.45818   2.48320   2.49367
 Alpha virt. eigenvalues --    2.51212   2.52384   2.52797   2.54787   2.55063
 Alpha virt. eigenvalues --    2.56171   2.57110   2.57416   2.62269   2.64714
 Alpha virt. eigenvalues --    2.65553   2.67315   2.67825   2.69043   2.69884
 Alpha virt. eigenvalues --    2.70821   2.70849   2.71621   2.72666   2.73674
 Alpha virt. eigenvalues --    2.74192   2.74945   2.75860   2.76391   2.78624
 Alpha virt. eigenvalues --    2.79238   2.80595   2.81750   2.82172   2.83346
 Alpha virt. eigenvalues --    2.83577   2.84822   2.85669   2.86109   2.86400
 Alpha virt. eigenvalues --    2.87597   2.88476   2.89541   2.89796   2.91730
 Alpha virt. eigenvalues --    2.91945   2.92848   2.93432   2.93749   2.94800
 Alpha virt. eigenvalues --    2.95836   2.96207   2.97011   2.97722   2.98767
 Alpha virt. eigenvalues --    2.99074   2.99959   3.01115   3.01611   3.02219
 Alpha virt. eigenvalues --    3.03243   3.04571   3.05588   3.06364   3.06652
 Alpha virt. eigenvalues --    3.07485   3.07587   3.09368   3.10151   3.10809
 Alpha virt. eigenvalues --    3.11326   3.11962   3.12507   3.13642   3.14362
 Alpha virt. eigenvalues --    3.15610   3.17233   3.18142   3.19162   3.19746
 Alpha virt. eigenvalues --    3.20364   3.21792   3.22414   3.22836   3.23911
 Alpha virt. eigenvalues --    3.25121   3.26487   3.26643   3.27476   3.28221
 Alpha virt. eigenvalues --    3.28468   3.29241   3.30177   3.30982   3.31896
 Alpha virt. eigenvalues --    3.33328   3.33472   3.34297   3.34681   3.34951
 Alpha virt. eigenvalues --    3.36261   3.37346   3.38327   3.39055   3.40060
 Alpha virt. eigenvalues --    3.40473   3.41706   3.42276   3.42678   3.43218
 Alpha virt. eigenvalues --    3.44394   3.44803   3.46186   3.47186   3.47969
 Alpha virt. eigenvalues --    3.48803   3.50674   3.50876   3.52592   3.53492
 Alpha virt. eigenvalues --    3.55179   3.55849   3.57195   3.58238   3.59771
 Alpha virt. eigenvalues --    3.61029   3.62044   3.62467   3.64451   3.65137
 Alpha virt. eigenvalues --    3.66839   3.67920   3.68196   3.69612   3.70194
 Alpha virt. eigenvalues --    3.72122   3.73035   3.73686   3.74366   3.75177
 Alpha virt. eigenvalues --    3.75844   3.77225   3.78215   3.79478   3.80575
 Alpha virt. eigenvalues --    3.81872   3.83199   3.83472   3.84590   3.85419
 Alpha virt. eigenvalues --    3.86315   3.86545   3.87781   3.88541   3.89307
 Alpha virt. eigenvalues --    3.90349   3.91775   3.92607   3.93022   3.94361
 Alpha virt. eigenvalues --    3.94775   3.96185   3.96963   3.98629   3.99613
 Alpha virt. eigenvalues --    4.00659   4.02290   4.03345   4.04538   4.05435
 Alpha virt. eigenvalues --    4.06554   4.07056   4.07375   4.08443   4.10231
 Alpha virt. eigenvalues --    4.11349   4.13213   4.13866   4.14534   4.15655
 Alpha virt. eigenvalues --    4.16326   4.16841   4.17552   4.19338   4.19651
 Alpha virt. eigenvalues --    4.21499   4.22559   4.23140   4.23650   4.24361
 Alpha virt. eigenvalues --    4.25283   4.26525   4.27878   4.28657   4.29337
 Alpha virt. eigenvalues --    4.29542   4.31140   4.31839   4.33359   4.34865
 Alpha virt. eigenvalues --    4.37037   4.38469   4.39366   4.41706   4.42623
 Alpha virt. eigenvalues --    4.43513   4.44652   4.46005   4.47375   4.49804
 Alpha virt. eigenvalues --    4.52091   4.52249   4.52820   4.54976   4.55792
 Alpha virt. eigenvalues --    4.57366   4.58444   4.59195   4.60374   4.60817
 Alpha virt. eigenvalues --    4.61301   4.63015   4.63221   4.64011   4.65470
 Alpha virt. eigenvalues --    4.67702   4.68502   4.69909   4.70433   4.71954
 Alpha virt. eigenvalues --    4.73228   4.73289   4.74622   4.76071   4.77211
 Alpha virt. eigenvalues --    4.79362   4.79882   4.80291   4.81650   4.83008
 Alpha virt. eigenvalues --    4.85034   4.85992   4.88694   4.90214   4.92611
 Alpha virt. eigenvalues --    4.93183   4.93522   4.94470   4.95381   4.96597
 Alpha virt. eigenvalues --    4.97868   4.99082   5.00566   5.00983   5.01687
 Alpha virt. eigenvalues --    5.03502   5.05250   5.06611   5.07292   5.09517
 Alpha virt. eigenvalues --    5.11446   5.12105   5.12986   5.13734   5.14574
 Alpha virt. eigenvalues --    5.16417   5.18039   5.18711   5.19848   5.20750
 Alpha virt. eigenvalues --    5.21897   5.22714   5.23576   5.24557   5.24866
 Alpha virt. eigenvalues --    5.26019   5.27262   5.28164   5.30216   5.30746
 Alpha virt. eigenvalues --    5.32846   5.34110   5.36799   5.38055   5.40010
 Alpha virt. eigenvalues --    5.41684   5.42170   5.45190   5.46701   5.49850
 Alpha virt. eigenvalues --    5.52578   5.53508   5.56610   5.57913   5.58727
 Alpha virt. eigenvalues --    5.61159   5.62391   5.63488   5.65246   5.66460
 Alpha virt. eigenvalues --    5.67879   5.68650   5.69612   5.71020   5.73265
 Alpha virt. eigenvalues --    5.74156   5.74852   5.76010   5.78431   5.78890
 Alpha virt. eigenvalues --    5.79369   5.81713   5.82010   5.84037   5.88447
 Alpha virt. eigenvalues --    5.91606   5.95342   5.96833   6.02593   6.04289
 Alpha virt. eigenvalues --    6.12315   6.19214   6.20039   6.24192   6.28316
 Alpha virt. eigenvalues --    6.51260   6.52499   6.58288   6.61477   6.64799
 Alpha virt. eigenvalues --    6.66767   6.77997   6.83416   6.90596   6.92640
 Alpha virt. eigenvalues --    6.93462   6.95327   7.18771   7.19954   7.22997
 Alpha virt. eigenvalues --    7.29049   8.14033   8.29311   8.66727   8.73719
 Alpha virt. eigenvalues --    8.78116   8.78781   8.80226   8.82601   8.83721
 Alpha virt. eigenvalues --    8.84099   8.86557   8.88903   8.89432   8.90024
 Alpha virt. eigenvalues --    8.93158   8.94425   8.95680   8.97456   9.02692
 Alpha virt. eigenvalues --    9.03320   9.07750   9.13964   9.16624   9.20065
 Alpha virt. eigenvalues --    9.22810   9.60555   9.62863   9.77287   9.83473
 Alpha virt. eigenvalues --    9.90774   9.94496  10.07200  10.11846  10.15242
 Alpha virt. eigenvalues --   10.18252  10.20398  10.21004  10.22794  10.23894
 Alpha virt. eigenvalues --   10.25926  10.30401  10.30591  10.33897  10.34972
 Alpha virt. eigenvalues --   10.38347  11.75817  11.83019  12.04403  12.14854
 Alpha virt. eigenvalues --   12.17463  12.18665  12.24728  12.26702  12.30466
 Alpha virt. eigenvalues --   12.39085  12.49059  12.57191  12.59923  12.84184
 Alpha virt. eigenvalues --   12.93961  14.97316  15.01797  15.24421  15.28678
 Alpha virt. eigenvalues --   16.00044  16.05267  16.83843  16.92018  22.01430
 Alpha virt. eigenvalues --   22.09787  40.17725  40.26899  40.66492  40.67094
 Alpha virt. eigenvalues --   40.69621  40.70756  40.72300  40.74901  40.76645
 Alpha virt. eigenvalues --   40.77601  40.79377  40.80867  40.81343  40.82149
 Alpha virt. eigenvalues --   40.82275  40.83499  40.84462  40.85019  40.86388
 Alpha virt. eigenvalues --   40.86819  40.87461  40.88465  40.90258  40.90764
 Alpha virt. eigenvalues --   40.92050  40.93352  40.96744  46.34446  46.46459
 Alpha virt. eigenvalues --   46.49338  46.50646  46.57074  46.58051  46.63103
 Alpha virt. eigenvalues --   46.72783  46.81759  54.47248  54.51692  55.79847
 Alpha virt. eigenvalues --   55.84615  55.95515  55.98073  56.05819  56.14553
 Alpha virt. eigenvalues --   56.19100  56.22473  56.26757  56.29965  56.37567
 Alpha virt. eigenvalues --   56.39156  56.44335  56.49505  56.57111  56.65744
 Alpha virt. eigenvalues --   57.46623  57.51054  57.99623  58.02759  58.19720
 Alpha virt. eigenvalues --   58.26174  64.70833  64.78490  73.94510  73.96933
 Alpha virt. eigenvalues --   74.10118  74.12397  74.64304  74.66956  86.07261
 Alpha virt. eigenvalues --   86.14608 165.43706 165.54711 165.57602 165.59412
 Alpha virt. eigenvalues --  165.64736 165.65655 165.69558 165.78149 165.86561
 Alpha virt. eigenvalues --  226.64605 226.77792 230.58041 230.65032 235.60730
 Alpha virt. eigenvalues --  235.84241 236.19882 236.32438 236.33666 236.46674
 Alpha virt. eigenvalues --  237.23743 237.35454 237.45671 237.50858 237.60709
 Alpha virt. eigenvalues --  237.73159 237.89014 238.28177 238.46900 238.61724
 Alpha virt. eigenvalues --  308.80868 308.87385 624.55204 624.61209 624.64605
 Alpha virt. eigenvalues --  624.65828 624.70685 624.72545 624.74727 624.82202
 Alpha virt. eigenvalues --  624.88688 794.52432 794.73337 826.12879 827.19842
 Alpha virt. eigenvalues --  827.20620 827.29067 827.77820 827.82671 830.49817
 Alpha virt. eigenvalues --  830.66343 831.25869 831.38318 831.45106 831.85720
 Alpha virt. eigenvalues --  832.03821 834.03739 834.21170 834.41476 868.33822
 Alpha virt. eigenvalues --  868.409401165.936711165.997722485.911442486.92437
 Alpha virt. eigenvalues -- 2588.733042589.822442593.505792594.242122596.45742
 Alpha virt. eigenvalues -- 2597.312572602.714662603.130072604.562372605.14454
 Alpha virt. eigenvalues -- 2605.237302607.216162607.950942609.589712610.78596
 Alpha virt. eigenvalues -- 2615.289532740.327912740.341382740.380852740.40200
 Alpha virt. eigenvalues -- 2740.444832740.484852740.531282740.565312740.58757
 Alpha virt. eigenvalues -- 3787.313123787.386395073.318815073.374448293.79688
 Alpha virt. eigenvalues -- 8294.236728629.372908631.581208634.203618637.90991
 Alpha virt. eigenvalues -- 8638.774588643.471928660.621808663.846778668.96472
 Alpha virt. eigenvalues -- 8669.633558670.371048673.606138673.821468691.17298
 Alpha virt. eigenvalues -- 8691.359228695.52025******************************
 Alpha virt. eigenvalues -- **************************************************
 Alpha virt. eigenvalues -- **************************************************
 Alpha virt. eigenvalues -- **************************************************
 Alpha virt. eigenvalues -- **************************************************
 Alpha virt. eigenvalues -- **************************************************
 Alpha virt. eigenvalues -- **************************************************
 Alpha virt. eigenvalues -- **************************************************
 Alpha virt. eigenvalues -- **********
          Condensed to atoms (all electrons):
               1          2          3          4          5          6
     1  C    4.546913   0.174997  -0.046216   0.000128   0.000025  -0.000119
     2  C    0.174997   5.373986   0.375718   0.002607  -0.000355   0.000192
     3  H   -0.046216   0.375718   0.486357  -0.000289   0.000018   0.000034
     4  C    0.000128   0.002607  -0.000289   4.967568   0.406186   0.402988
     5  H    0.000025  -0.000355   0.000018   0.406186   0.536589  -0.012056
     6  H   -0.000119   0.000192   0.000034   0.402988  -0.012056   0.551346
     7  H    0.000573  -0.002043  -0.000268   0.403963  -0.019148  -0.023962
     8  O    0.740717  -0.116883   0.003836  -0.000091   0.000000   0.000001
     9  N   -0.056527   0.293391  -0.037291  -0.002315   0.000031  -0.000010
    10  H   -0.002628  -0.027142   0.004280   0.000205   0.000133  -0.000206
    11  N    0.359404  -0.131576   0.006728   0.000374   0.000006  -0.000005
    12  H   -0.027029   0.008187  -0.000464   0.000018  -0.000002   0.000002
    13  C   -0.040158   0.010507  -0.001103  -0.000004   0.000000   0.000000
    14  H    0.000843   0.002390   0.000028  -0.000021  -0.000001   0.000000
    15  H   -0.008522  -0.001211  -0.000133   0.000002   0.000000   0.000000
    16  H    0.007553   0.000721  -0.000083   0.000000   0.000000   0.000000
    17  C   -0.000615  -0.060776   0.002073  -0.000037  -0.000003   0.000004
    18  C   -0.004102   0.017853   0.002815  -0.000028  -0.000001   0.000004
    19  H    0.000433  -0.000641  -0.000445  -0.000036   0.000001  -0.000003
    20  H   -0.000078  -0.000479   0.000140   0.000005   0.000000   0.000000
    21  H    0.000624  -0.000868  -0.000195  -0.000001   0.000000   0.000000
    22  O   -0.011324   0.018152   0.025389  -0.000001   0.000000   0.000000
    23  C   -0.010362  -0.014027   0.004138   0.329012  -0.036423  -0.033484
[...]
 Alpha virt. eigenvalues --    4.38430   4.39527   4.40148   4.42620   4.44969
 Alpha virt. eigenvalues --    4.45258   4.47808   4.48407   4.49143   4.51621
 Alpha virt. eigenvalues --    4.53598   4.54576   4.55278   4.58635   4.59798
 Alpha virt. eigenvalues --    4.60434   4.63164   4.64940   4.66177   4.68397
 Alpha virt. eigenvalues --    4.69644   4.70129   4.70504   4.71984   4.72934
 Alpha virt. eigenvalues --    4.74645   4.75514   4.77040   4.78455   4.78871
 Alpha virt. eigenvalues --    4.79463   4.80556   4.81230   4.82867   4.83108
 Alpha virt. eigenvalues --    4.84687   4.85810   4.87877   4.89441   4.90735
 Alpha virt. eigenvalues --    4.91702   4.94035   4.94813   4.95625   4.96451
 Alpha virt. eigenvalues --    4.97170   4.98751   4.99154   4.99743   5.01054
 Alpha virt. eigenvalues --    5.02577   5.03081   5.04512   5.05164   5.06648
 Alpha virt. eigenvalues --    5.07794   5.09555   5.10636   5.12041   5.13018
 Alpha virt. eigenvalues --    5.14105   5.14524   5.15765   5.16450   5.17552
 Alpha virt. eigenvalues --    5.19436   5.19957   5.20962   5.22293   5.23662
 Alpha virt. eigenvalues --    5.24834   5.25682   5.26015   5.27442   5.28058
 Alpha virt. eigenvalues --    5.29197   5.29578   5.31139   5.32193   5.34977
 Alpha virt. eigenvalues --    5.36331   5.36899   5.37918   5.38701   5.40932
 Alpha virt. eigenvalues --    5.45091   5.47371   5.47582   5.51499   5.54684
 Alpha virt. eigenvalues --    5.58120   5.60252   5.61527   5.63196   5.68053
 Alpha virt. eigenvalues --    5.73090   5.75062   5.77928   5.78600   5.79653
 Alpha virt. eigenvalues --    5.79896   5.81732   5.84073   5.85789   5.87231
 Alpha virt. eigenvalues --    5.88423   5.89505   5.90896   5.95645   5.97765
 Alpha virt. eigenvalues --    5.99887   6.01258   6.04245   6.05825   6.08816
 Alpha virt. eigenvalues --    6.22535   6.26814   6.35538   6.39546   6.49438
 Alpha virt. eigenvalues --    6.51457   6.54449   6.56547   6.68377   6.70179
 Alpha virt. eigenvalues --    6.88013   6.89717   6.92672   6.96947   7.10063
 Alpha virt. eigenvalues --    7.13556   7.16197   7.18322   9.53159  10.02406
 Alpha virt. eigenvalues --   11.51479  12.13436  12.44210  12.48180  12.91101
 Alpha virt. eigenvalues --   13.40823  13.55717  13.60611  13.70411  13.76553
 Alpha virt. eigenvalues --   14.01756
          Condensed to atoms (all electrons):
               1          2          3          4          5          6
     1  C    4.702004   0.154532  -0.053741   0.000526   0.000032  -0.000121
     2  C    0.154532   5.503401   0.418394   0.003334  -0.000445   0.000654
     3  H   -0.053741   0.418394   0.450846  -0.000378   0.000014   0.000020
     4  C    0.000526   0.003334  -0.000378   5.117345   0.407244   0.403463
     5  H    0.000032  -0.000445   0.000014   0.407244   0.530308  -0.018005
     6  H   -0.000121   0.000654   0.000020   0.403463  -0.018005   0.543408
     7  H    0.000419  -0.000727  -0.000176   0.399550  -0.025434  -0.029670
     8  O    0.733248  -0.107928   0.001417  -0.000107   0.000000   0.000001
     9  N   -0.057918   0.227222  -0.039385  -0.002316   0.000029  -0.000022
    10  H   -0.001916  -0.023703   0.002312   0.000642   0.000146  -0.000258
    11  N    0.356749  -0.102117   0.001770   0.000295   0.000007  -0.000004
    12  H   -0.022748   0.002340  -0.000966   0.000000  -0.000001   0.000004
    13  C   -0.059734   0.010297  -0.000869  -0.000002   0.000000   0.000000
    14  H    0.000824   0.002206   0.000038  -0.000020  -0.000001   0.000000
    15  H   -0.008568  -0.001227  -0.000128   0.000002   0.000000   0.000000
    16  H    0.008056   0.000745  -0.000059   0.000000   0.000000   0.000000
    17  C   -0.000208  -0.072656   0.000018  -0.000040  -0.000004   0.000004
    18  C   -0.002991   0.014633   0.002588  -0.000030  -0.000001   0.000003
    19  H    0.000231   0.000172  -0.000420  -0.000029   0.000001  -0.000002
    20  H   -0.000103  -0.000480   0.000125   0.000004   0.000000   0.000000
    21  H    0.000590  -0.000839  -0.000175   0.000000   0.000000   0.000000
    22  O   -0.007701   0.015680   0.024738  -0.000001   0.000000   0.000000
    23  C   -0.008273  -0.005865   0.003567   0.264063  -0.035710  -0.032041
    24  H   -0.000441   0.005641  -0.000136  -0.031698  -0.006941  -0.006912
    25  C    0.003383  -0.008465   0.000377  -0.063295  -0.005813   0.007533
    26  H   -0.010912   0.002597   0.000642  -0.005518  -0.000601  -0.000021
    27  H    0.011269  -0.003100  -0.000194   0.008047  -0.000021  -0.000337
    28  H    0.000469  -0.001665   0.000066  -0.008921   0.004614   0.000044
    29  C   -0.020748   0.181073  -0.023260  -0.063400   0.009884  -0.005892
    30  H    0.006987  -0.034699  -0.007972  -0.005062   0.000659   0.002432
    31  H    0.003354  -0.049767  -0.009016   0.004679  -0.000407   0.000276
               7          8          9         10         11         12
     1  C    0.000419   0.733248  -0.057918  -0.001916   0.356749  -0.022748
     2  C   -0.000727  -0.107928   0.227222  -0.023703  -0.102117   0.002340
     3  H   -0.000176   0.001417  -0.039385   0.002312   0.001770  -0.000966
     4  C    0.399550  -0.000107  -0.002316   0.000642   0.000295   0.000000
     5  H   -0.025434   0.000000   0.000029   0.000146   0.000007  -0.000001
     6  H   -0.029670   0.000001  -0.000022  -0.000258  -0.000004   0.000004
     7  H    0.548387  -0.000039  -0.000530   0.004092  -0.000021  -0.000004
     8  O   -0.000039   7.833625   0.005457  -0.001354  -0.121614   0.005026
     9  N   -0.000530   0.005457   6.569319   0.382397   0.005307   0.000451
    10  H    0.004092  -0.001354   0.382397   0.484845  -0.000188   0.000002
    11  N   -0.000021  -0.121614   0.005307  -0.000188   6.458648   0.381712
    12  H   -0.000004   0.005026   0.000451   0.000002   0.381712   0.524616
    13  C    0.000002   0.005958  -0.000369   0.000021   0.295663  -0.032405
    14  H    0.000000   0.004423   0.000021  -0.000007  -0.058711   0.003652
    15  H    0.000000   0.005112  -0.000051   0.000005  -0.041755   0.002096
    16  H    0.000000   0.001548   0.000005   0.000000  -0.027679  -0.008084
    17  C    0.000143   0.016129   0.343536  -0.021199   0.000428  -0.000143
    18  C    0.000035  -0.000304  -0.061964  -0.001790  -0.000018   0.000001
    19  H    0.000071   0.000048   0.013046  -0.001585   0.000006   0.000000
    20  H   -0.000027   0.000043  -0.000446   0.000033   0.000002   0.000000
    21  H    0.000006   0.000329  -0.001152   0.000218   0.000000  -0.000001
    22  O    0.000006  -0.003444  -0.138145   0.004310  -0.000922  -0.000041
    23  C   -0.042686  -0.001583  -0.001306  -0.000646   0.002441  -0.000542
    24  H    0.008016  -0.000043  -0.000483   0.000260   0.000257   0.000006
    25  C   -0.004949   0.001620  -0.006677   0.001507  -0.005935   0.000279
    26  H    0.000499   0.005336   0.006361   0.001750   0.001706  -0.000065
    27  H   -0.000003  -0.005310  -0.000567  -0.000005  -0.002130   0.000445
    28  H   -0.000651   0.000473   0.000417   0.000063   0.000098  -0.000021
    29  C   -0.002729   0.004251  -0.044666  -0.001972   0.005896   0.004862
    30  H   -0.000155  -0.000324   0.000145   0.000836   0.000260  -0.000092
    31  H    0.000054  -0.000100   0.005541   0.000180  -0.007779   0.003858
              13         14         15         16         17         18
     1  C   -0.059734   0.000824  -0.008568   0.008056  -0.000208  -0.002991
     2  C    0.010297   0.002206  -0.001227   0.000745  -0.072656   0.014633
     3  H   -0.000869   0.000038  -0.000128  -0.000059   0.000018   0.002588
     4  C   -0.000002  -0.000020   0.000002   0.000000  -0.000040  -0.000030
     5  H    0.000000  -0.000001   0.000000   0.000000  -0.000004  -0.000001
     6  H    0.000000   0.000000   0.000000   0.000000   0.000004   0.000003
     7  H    0.000002   0.000000   0.000000   0.000000   0.000143   0.000035
     8  O    0.005958   0.004423   0.005112   0.001548   0.016129  -0.000304
     9  N   -0.000369   0.000021  -0.000051   0.000005   0.343536  -0.061964
    10  H    0.000021  -0.000007   0.000005   0.000000  -0.021199  -0.001790
    11  N    0.295663  -0.058711  -0.041755  -0.027679   0.000428  -0.000018
    12  H   -0.032405   0.003652   0.002096  -0.008084  -0.000143   0.000001
    13  C    4.776768   0.389681   0.405858   0.392910  -0.000143  -0.000005
    14  H    0.389681   0.629684  -0.058237  -0.026818  -0.000001   0.000000
    15  H    0.405858  -0.058237   0.599448  -0.026935   0.000013   0.000000
    16  H    0.392910  -0.026818  -0.026935   0.599561  -0.000003   0.000000
    17  C   -0.000143  -0.000001   0.000013  -0.000003   4.529802   0.278425
    18  C   -0.000005   0.000000   0.000000   0.000000   0.278425   4.997517
    19  H    0.000001   0.000000   0.000000   0.000000  -0.054084   0.391697
    20  H    0.000000   0.000000   0.000000   0.000000  -0.023494   0.383659
    21  H    0.000001   0.000000   0.000000   0.000000  -0.026160   0.390304
    22  O   -0.000072   0.000005   0.000006  -0.000001   0.716707  -0.069404
    23  C    0.000437  -0.000293   0.000051   0.000041  -0.000600  -0.000125
    24  H    0.000029  -0.000017   0.000003   0.000007   0.000020  -0.000001
    25  C   -0.001057   0.000941  -0.000091  -0.000044   0.000469  -0.000025
    26  H   -0.000174  -0.000033  -0.000021  -0.000003   0.000907   0.000130
    27  H    0.000237  -0.000106   0.000311  -0.000075  -0.000032   0.000010
    28  H   -0.000037   0.000031  -0.000003  -0.000004   0.000012   0.000001
    29  C   -0.001317  -0.000493   0.000144  -0.000171   0.007808   0.000341
    30  H    0.000060  -0.000016   0.000011   0.000002  -0.000308  -0.000074
    31  H    0.000317   0.000087  -0.000035   0.000053  -0.000212   0.000033
              19         20         21         22         23         24
     1  C    0.000231  -0.000103   0.000590  -0.007701  -0.008273  -0.000441
     2  C    0.000172  -0.000480  -0.000839   0.015680  -0.005865   0.005641
     3  H   -0.000420   0.000125  -0.000175   0.024738   0.003567  -0.000136
     4  C   -0.000029   0.000004   0.000000  -0.000001   0.264063  -0.031698
     5  H    0.000001   0.000000   0.000000   0.000000  -0.035710  -0.006941
     6  H   -0.000002   0.000000   0.000000   0.000000  -0.032041  -0.006912
     7  H    0.000071  -0.000027   0.000006   0.000006  -0.042686   0.008016
     8  O    0.000048   0.000043   0.000329  -0.003444  -0.001583  -0.000043
     9  N    0.013046  -0.000446  -0.001152  -0.138145  -0.001306  -0.000483
    10  H   -0.001585   0.000033   0.000218   0.004310  -0.000646   0.000260
    11  N    0.000006   0.000002   0.000000  -0.000922   0.002441   0.000257
    12  H    0.000000   0.000000  -0.000001  -0.000041  -0.000542   0.000006
    13  C    0.000001   0.000000   0.000001  -0.000072   0.000437   0.000029
    14  H    0.000000   0.000000   0.000000   0.000005  -0.000293  -0.000017
    15  H    0.000000   0.000000   0.000000   0.000006   0.000051   0.000003
    16  H    0.000000   0.000000   0.000000  -0.000001   0.000041   0.000007
    17  C   -0.054084  -0.023494  -0.026160   0.716707  -0.000600   0.000020
    18  C    0.391697   0.383659   0.390304  -0.069404  -0.000125  -0.000001
    19  H    0.606590  -0.027541  -0.024632   0.004772   0.000131  -0.000001
    20  H   -0.027541   0.576734  -0.025298   0.002319   0.000009   0.000000
    21  H   -0.024632  -0.025298   0.563790   0.000885  -0.000006   0.000000
    22  O    0.004772   0.002319   0.000885   7.855256  -0.000103   0.000001
    23  C    0.000131   0.000009  -0.000006  -0.000103   5.293071   0.428413
    24  H   -0.000001   0.000000   0.000000   0.000001   0.428413   0.551476
    25  C   -0.000047  -0.000008   0.000017   0.000035   0.252317  -0.041419
    26  H    0.000027   0.000048  -0.000099  -0.000122  -0.033366   0.007207
    27  H   -0.000002  -0.000001   0.000002   0.000007  -0.033386  -0.006100
    28  H   -0.000002   0.000000  -0.000001   0.000000  -0.031935  -0.007601
    29  C   -0.000306  -0.000008   0.000018   0.001846   0.207193  -0.050201
    30  H    0.000003  -0.000032   0.000016  -0.000150  -0.055403   0.002071
    31  H   -0.000003  -0.000006   0.000001   0.000058  -0.053042  -0.011313
              25         26         27         28         29         30
     1  C    0.003383  -0.010912   0.011269   0.000469  -0.020748   0.006987
     2  C   -0.008465   0.002597  -0.003100  -0.001665   0.181073  -0.034699
     3  H    0.000377   0.000642  -0.000194   0.000066  -0.023260  -0.007972
     4  C   -0.063295  -0.005518   0.008047  -0.008921  -0.063400  -0.005062
     5  H   -0.005813  -0.000601  -0.000021   0.004614   0.009884   0.000659
     6  H    0.007533  -0.000021  -0.000337   0.000044  -0.005892   0.002432
     7  H   -0.004949   0.000499  -0.000003  -0.000651  -0.002729  -0.000155
     8  O    0.001620   0.005336  -0.005310   0.000473   0.004251  -0.000324
     9  N   -0.006677   0.006361  -0.000567   0.000417  -0.044666   0.000145
    10  H    0.001507   0.001750  -0.000005   0.000063  -0.001972   0.000836
    11  N   -0.005935   0.001706  -0.002130   0.000098   0.005896   0.000260
    12  H    0.000279  -0.000065   0.000445  -0.000021   0.004862  -0.000092
    13  C   -0.001057  -0.000174   0.000237  -0.000037  -0.001317   0.000060
    14  H    0.000941  -0.000033  -0.000106   0.000031  -0.000493  -0.000016
    15  H   -0.000091  -0.000021   0.000311  -0.000003   0.000144   0.000011
    16  H   -0.000044  -0.000003  -0.000075  -0.000004  -0.000171   0.000002
    17  C    0.000469   0.000907  -0.000032   0.000012   0.007808  -0.000308
    18  C   -0.000025   0.000130   0.000010   0.000001   0.000341  -0.000074
    19  H   -0.000047   0.000027  -0.000002  -0.000002  -0.000306   0.000003
    20  H   -0.000008   0.000048  -0.000001   0.000000  -0.000008  -0.000032
    21  H    0.000017  -0.000099   0.000002  -0.000001   0.000018   0.000016
    22  O    0.000035  -0.000122   0.000007   0.000000   0.001846  -0.000150
    23  C    0.252317  -0.033366  -0.033386  -0.031935   0.207193  -0.055403
    24  H   -0.041419   0.007207  -0.006100  -0.007601  -0.050201   0.002071
    25  C    5.194247   0.388342   0.401816   0.401385  -0.045765   0.004727
    26  H    0.388342   0.524054  -0.022893  -0.021822  -0.008761  -0.000473
    27  H    0.401816  -0.022893   0.497259  -0.017130  -0.004441  -0.000037
    28  H    0.401385  -0.021822  -0.017130   0.523735   0.009565  -0.000367
    29  C   -0.045765  -0.008761  -0.004441   0.009565   5.441954   0.417499
    30  H    0.004727  -0.000473  -0.000037  -0.000367   0.417499   0.464772
    31  H    0.004778  -0.000985   0.001097  -0.000394   0.426452  -0.002503
              31
     1  C    0.003354
     2  C   -0.049767
     3  H   -0.009016
     4  C    0.004679
     5  H   -0.000407
     6  H    0.000276
     7  H    0.000054
     8  O   -0.000100
     9  N    0.005541
    10  H    0.000180
    11  N   -0.007779
    12  H    0.003858
    13  C    0.000317
    14  H    0.000087
    15  H   -0.000035
    16  H    0.000053
    17  C   -0.000212
    18  C    0.000033
    19  H   -0.000003
    20  H   -0.000006
    21  H    0.000001
    22  O    0.000058
    23  C   -0.053042
    24  H   -0.011313
    25  C    0.004778
    26  H   -0.000985
    27  H    0.001097
    28  H   -0.000394
    29  C    0.426452
    30  H   -0.002503
    31  H    0.497053
 Mulliken charges:
               1
     1  C    0.273447
     2  C   -0.129240
     3  H    0.229943
     4  C   -0.428378
     5  H    0.140448
     6  H    0.135445
     7  H    0.146522
     8  O   -0.381896
     9  N   -0.203257
    10  H    0.171004
    11  N   -0.142372
    12  H    0.135761
    13  C   -0.182058
    14  H    0.113159
    15  H    0.123991
    16  H    0.086949
    17  C    0.304868
    18  C   -0.322648
    19  H    0.091861
    20  H    0.114467
    21  H    0.122185
    22  O   -0.406528
    23  C   -0.114824
    24  H    0.159900
    25  C   -0.480185
    26  H    0.166263
    27  H    0.175368
    28  H    0.149582
    29  C   -0.444655
    30  H    0.207187
    31  H    0.187693
 Sum of Mulliken charges =   0.00000
 Mulliken charges with hydrogens summed into heavy atoms:
               1
     1  C    0.273447
     2  C    0.100702
     4  C   -0.005964
     8  O   -0.381896
     9  N   -0.032253
    11  N   -0.006611
    13  C    0.142041
    17  C    0.304868
    18  C    0.005865
    22  O   -0.406528
    23  C    0.045076
    25  C    0.011027
    29  C   -0.049775
 Electronic spatial extent (au):  <R**2>=           2828.8138
 Charge=              0.0000 electrons
 Dipole moment (field-independent basis, Debye):
    X=              3.8404    Y=              3.4774    Z=             -1.3288  Tot=              5.3486
 Quadrupole moment (field-independent basis, Debye-Ang):
   XX=            -76.5229   YY=            -80.3867   ZZ=            -81.1457
   XY=            -12.0246   XZ=             -6.6780   YZ=              2.8654
 Traceless Quadrupole moment (field-independent basis, Debye-Ang):
   XX=              2.8289   YY=             -1.0350   ZZ=             -1.7939
   XY=            -12.0246   XZ=             -6.6780   YZ=              2.8654
 Octapole moment (field-independent basis, Debye-Ang**2):
  XXX=              3.2069  YYY=            -17.4352  ZZZ=             -7.4124  XYY=             22.2255
  XXY=              4.9604  XXZ=             11.2785  XZZ=              3.7088  YZZ=              0.1053
  YYZ=             -1.0520  XYZ=              7.5451
 Hexadecapole moment (field-independent basis, Debye-Ang**3):
 XXXX=          -1742.3597 YYYY=          -1526.7596 ZZZZ=           -395.6964 XXXY=            -84.2099
 XXXZ=            -46.0182 YYYX=            -47.9552 YYYZ=              2.4554 ZZZX=             -7.8894
 ZZZY=              6.0196 XXYY=           -549.4088 XXZZ=           -354.4075 YYZZ=           -329.7970
 XXYZ=             -9.7065 YYXZ=             -8.2173 ZZXY=             -7.3351
 N-N= 8.795628417551D+02 E-N=-3.188774108349D+03  KE= 6.091139382616D+02
 Calculating spin-rotation constants.
 Leave Link  601 at Wed Jun 18 12:23:14 2014, MaxMem=  4294967296 cpu:        71.4
 (Enter /home/ztw1e12/g09/l9999.exe)

 Test job not archived.
 1\1\GINC-GREEN0548\SP\RM06\Gen\C9H18N2O2\ROOT\18-Jun-2014\0\\#P Geom=A
 llCheck Guess=TCheck SCRF=Check GenChk RM06/ChkBas NMR=ReadFC IOp(3/6=
 22)\\NMR spin-spin scan\\0,1\C,0,0.305624,1.248854,0.252258\C,0,0.1574
 96,0.115563,-0.762596\H,0,0.683361,0.468517,-1.655412\C,0,-2.7509,-2.0
 6515,-0.405432\H,0,-3.564113,-2.360175,0.261079\H,0,-3.087594,-2.20851
 ,-1.433744\H,0,-1.913694,-2.749811,-0.232034\O,0,0.922616,1.121343,1.3
 04825\N,0,0.84357,-1.077099,-0.323712\H,0,0.308321,-1.818501,0.101546\
 N,0,-0.246164,2.411947,-0.113798\H,0,-0.761391,2.464663,-0.977046\C,0,
 -0.227149,3.560404,0.762367\H,0,-0.713166,3.335132,1.713654\H,0,0.7939
 91,3.880906,0.969913\H,0,-0.758573,4.377792,0.284612\C,0,2.182565,-1.1
 91048,-0.361709\C,0,2.754037,-2.465437,0.167638\H,0,1.995874,-3.178011
 ,0.48535\H,0,3.375004,-2.919441,-0.604054\H,0,3.402302,-2.233225,1.012
 567\O,0,2.903678,-0.304458,-0.817169\C,0,-2.329033,-0.626305,-0.156244
 \H,0,-3.21015,-0.003843,-0.34155\C,0,-1.970542,-0.431236,1.306679\H,0,
 -1.109221,-1.031255,1.609928\H,0,-1.763155,0.610054,1.559107\H,0,-2.81
 2068,-0.746592,1.927042\C,0,-1.271987,-0.190198,-1.199233\H,0,-1.19655
 3,-0.958104,-1.973025\H,0,-1.63736,0.69652,-1.721469\\Version=EM64L-G0
 9RevD.01\State=1-A\HF=-613.5733506\RMSD=9.687e-09\Dipole=-2.0268552,-0
 .2157368,-0.5228057\Quadrupole=-6.9111959,9.5456768,-2.6344809,-5.2896
 951,2.2220891,-2.5842821\PG=C01 [X(C9H18N2O2)]\\@


 IF YOU GIVE EVERYONE A PIECE OF YOUR MIND,
 PRETTY SOON IT WILL BE ALL GONE.
 Job cpu time:       2 days 14 hours 50 minutes  7.8 seconds.
 File lengths (MBytes):  RWF=   2456 Int=      0 D2E=      0 Chk=     48 Scr=      8
 Normal termination of Gaussian 09 at Wed Jun 18 12:23:15 2014.
