 Entering Gaussian System, Link 0=g09
 Input=scan_input_7.gjf
 Output=scan_input_7.log
 Initial command:
 /home/ztw1e12/g09/l1.exe "/home/ztw1e12/leucine_scan/leucine_chi2_scan/Gau-9368.inp" -scrdir="/home/ztw1e12/leucine_scan/leucine_chi2_scan/"
 Default is to use a total of   8 processors:
                                8 via shared-memory
                                1 via Linda
 Entering Link 1 = /home/ztw1e12/g09/l1.exe PID=      9369.
  
 Copyright (c) 1988,1990,1992,1993,1995,1998,2003,2009,2013,
            Gaussian, Inc.  All Rights Reserved.
  
 This is part of the Gaussian(R) 09 program.  It is based on
 the Gaussian(R) 03 system (copyright 2003, Gaussian, Inc.),
 the Gaussian(R) 98 system (copyright 1998, Gaussian, Inc.),
 the Gaussian(R) 94 system (copyright 1995, Gaussian, Inc.),
 the Gaussian 92(TM) system (copyright 1992, Gaussian, Inc.),
 the Gaussian 90(TM) system (copyright 1990, Gaussian, Inc.),
 the Gaussian 88(TM) system (copyright 1988, Gaussian, Inc.),
 the Gaussian 86(TM) system (copyright 1986, Carnegie Mellon
 University), and the Gaussian 82(TM) system (copyright 1983,
 Carnegie Mellon University). Gaussian is a federally registered
 trademark of Gaussian, Inc.
  
 This software contains proprietary and confidential information,
 including trade secrets, belonging to Gaussian, Inc.
  
 This software is provided under written license and may be
 used, copied, transmitted, or stored only in accord with that
 written license.
  
 The following legend is applicable only to US Government
 contracts under FAR:
  
                    RESTRICTED RIGHTS LEGEND
  
 Use, reproduction and disclosure by the US Government is
 subject to restrictions as set forth in subparagraphs (a)
 and (c) of the Commercial Computer Software - Restricted
 Rights clause in FAR 52.227-19.
  
 Gaussian, Inc.
 340 Quinnipiac St., Bldg. 40, Wallingford CT 06492
  
  
 ---------------------------------------------------------------
 Warning -- This program may not be used in any manner that
 competes with the business of Gaussian, Inc. or will provide
 assistance to any competitor of Gaussian, Inc.  The licensee
 of this program is prohibited from giving any competitor of
 Gaussian, Inc. access to this program.  By using this program,
 the user acknowledges that Gaussian, Inc. is engaged in the
 business of creating and licensing software in the field of
 computational chemistry and represents and warrants to the
 licensee that it is not a competitor of Gaussian, Inc. and that
 it will not use this program in any manner prohibited above.
 ---------------------------------------------------------------
  

 Cite this work as:
 Gaussian 09, Revision D.01,
 M. J. Frisch, G. W. Trucks, H. B. Schlegel, G. E. Scuseria, 
 M. A. Robb, J. R. Cheeseman, G. Scalmani, V. Barone, B. Mennucci, 
 G. A. Petersson, H. Nakatsuji, M. Caricato, X. Li, H. P. Hratchian, 
 A. F. Izmaylov, J. Bloino, G. Zheng, J. L. Sonnenberg, M. Hada, 
 M. Ehara, K. Toyota, R. Fukuda, J. Hasegawa, M. Ishida, T. Nakajima, 
 Y. Honda, O. Kitao, H. Nakai, T. Vreven, J. A. Montgomery, Jr., 
 J. E. Peralta, F. Ogliaro, M. Bearpark, J. J. Heyd, E. Brothers, 
 K. N. Kudin, V. N. Staroverov, T. Keith, R. Kobayashi, J. Normand, 
 K. Raghavachari, A. Rendell, J. C. Burant, S. S. Iyengar, J. Tomasi, 
 M. Cossi, N. Rega, J. M. Millam, M. Klene, J. E. Knox, J. B. Cross, 
 V. Bakken, C. Adamo, J. Jaramillo, R. Gomperts, R. E. Stratmann, 
 O. Yazyev, A. J. Austin, R. Cammi, C. Pomelli, J. W. Ochterski, 
 R. L. Martin, K. Morokuma, V. G. Zakrzewski, G. A. Voth, 
 P. Salvador, J. J. Dannenberg, S. Dapprich, A. D. Daniels, 
 O. Farkas, J. B. Foresman, J. V. Ortiz, J. Cioslowski, 
 and D. J. Fox, Gaussian, Inc., Wallingford CT, 2013.
 
 ******************************************
 Gaussian 09:  EM64L-G09RevD.01 24-Apr-2013
                17-Jun-2014 
 ******************************************
 %Mem=32GB
 %NProcShared=16
 Will use up to   16 processors via shared memory.
 Default route:  MaxDisk=100GB
 ----------------------------------------------------------------------
 #p nmr=(giao,mixed,spinspin) m06/cc-pvtz scf=tight integral=(grid=ultr
 afine)
 ----------------------------------------------------------------------
 1/38=1/1;
 2/12=2,17=6,18=5,40=1/2;
 3/5=16,6=1,10=1100000,11=2,16=1,25=1,30=1,74=-54,75=-5/1,2,8,3;
 4//1;
 5/5=2,32=2,38=5/2;
 8/6=1,10=90,11=11/1;
 10/13=100,45=16,47=3/2;
 6/7=2,8=2,9=2,10=2,28=1/1;
 99/9=1/99;
 Leave Link    1 at Tue Jun 17 23:19:39 2014, MaxMem=  4294967296 cpu:         5.3
 (Enter /home/ztw1e12/g09/l101.exe)
 ------------------
 NMR spin-spin scan
 ------------------
 Symbolic Z-matrix:
 Charge =  0 Multiplicity = 1
 C                     0.31626   1.2527    0.24321 
 C                     0.1949    0.10447  -0.7563 
 H                     0.72116   0.4556   -1.64993 
 C                    -2.8973   -1.94899  -0.4378 
 H                    -3.73086  -2.17666   0.22986 
 H                    -3.25873  -2.01639  -1.46564 
 H                    -2.13745  -2.72595  -0.30175 
 O                     0.96726   1.16392   1.2793 
 N                     0.89687  -1.07057  -0.29774 
 H                     0.36607  -1.82026   0.11792 
 N                    -0.30279   2.38272  -0.11675 
 H                    -0.84487   2.4002   -0.96507 
 C                    -0.30435   3.54493   0.74144 
 H                    -0.75172   3.31484   1.71029 
 H                     0.70847   3.91025   0.91284 
 H                    -0.88334   4.33198   0.26804 
 C                     2.23497  -1.18375  -0.35375 
 C                     2.8141   -2.45151   0.18326 
 H                     2.06123  -3.17083   0.49837 
 H                     3.44755  -2.90022  -0.58117 
 H                     3.45168  -2.20869   1.03361 
 O                     2.95009  -0.30224  -0.82782 
 C                    -2.31007  -0.58011  -0.13952 
 H                    -3.11256   0.15317  -0.26868 
 C                    -1.90252  -0.50856   1.32323 
 H                    -1.10065  -1.20843   1.57187 
 H                    -1.58977   0.48996   1.63177 
 H                    -2.7591   -0.77736   1.9448 
 C                    -1.22685  -0.23687  -1.19284 
 H                    -1.12708  -1.07535  -1.88727 
 H                    -1.58497   0.59129  -1.80744 
 
 NAtoms=     31 NQM=       31 NQMF=       0 NMMI=      0 NMMIF=      0
                NMic=       0 NMicF=      0.
                    Isotopes and Nuclear Properties:
 (Nuclear quadrupole moments (NQMom) in fm**2, nuclear magnetic moments (NMagM)
  in nuclear magnetons)

  Atom         1           2           3           4           5           6           7           8           9          10
 IAtWgt=          12          12           1          12           1           1           1          16          14           1
 AtmWgt=  12.0000000  12.0000000   1.0078250  12.0000000   1.0078250   1.0078250   1.0078250  15.9949146  14.0030740   1.0078250
 NucSpn=           0           0           1           0           1           1           1           0           2           1
 AtZEff=   0.0000000   0.0000000   0.0000000   0.0000000   0.0000000   0.0000000   0.0000000   0.0000000   0.0000000   0.0000000
 NQMom=    0.0000000   0.0000000   0.0000000   0.0000000   0.0000000   0.0000000   0.0000000   0.0000000   2.0440000   0.0000000
 NMagM=    0.0000000   0.0000000   2.7928460   0.0000000   2.7928460   2.7928460   2.7928460   0.0000000   0.4037610   2.7928460
 AtZNuc=   6.0000000   6.0000000   1.0000000   6.0000000   1.0000000   1.0000000   1.0000000   8.0000000   7.0000000   1.0000000

  Atom        11          12          13          14          15          16          17          18          19          20
 IAtWgt=          14           1          12           1           1           1          12          12           1           1
 AtmWgt=  14.0030740   1.0078250  12.0000000   1.0078250   1.0078250   1.0078250  12.0000000  12.0000000   1.0078250   1.0078250
 NucSpn=           2           1           0           1           1           1           0           0           1           1
 AtZEff=   0.0000000   0.0000000   0.0000000   0.0000000   0.0000000   0.0000000   0.0000000   0.0000000   0.0000000   0.0000000
 NQMom=    2.0440000   0.0000000   0.0000000   0.0000000   0.0000000   0.0000000   0.0000000   0.0000000   0.0000000   0.0000000
 NMagM=    0.4037610   2.7928460   0.0000000   2.7928460   2.7928460   2.7928460   0.0000000   0.0000000   2.7928460   2.7928460
 AtZNuc=   7.0000000   1.0000000   6.0000000   1.0000000   1.0000000   1.0000000   6.0000000   6.0000000   1.0000000   1.0000000

  Atom        21          22          23          24          25          26          27          28          29          30
 IAtWgt=           1          16          12           1          12           1           1           1          12           1
 AtmWgt=   1.0078250  15.9949146  12.0000000   1.0078250  12.0000000   1.0078250   1.0078250   1.0078250  12.0000000   1.0078250
 NucSpn=           1           0           0           1           0           1           1           1           0           1
 AtZEff=   0.0000000   0.0000000   0.0000000   0.0000000   0.0000000   0.0000000   0.0000000   0.0000000   0.0000000   0.0000000
 NQMom=    0.0000000   0.0000000   0.0000000   0.0000000   0.0000000   0.0000000   0.0000000   0.0000000   0.0000000   0.0000000
 NMagM=    2.7928460   0.0000000   0.0000000   2.7928460   0.0000000   2.7928460   2.7928460   2.7928460   0.0000000   2.7928460
 AtZNuc=   1.0000000   8.0000000   6.0000000   1.0000000   6.0000000   1.0000000   1.0000000   1.0000000   6.0000000   1.0000000

  Atom        31
 IAtWgt=           1
 AtmWgt=   1.0078250
 NucSpn=           1
 AtZEff=   0.0000000
 NQMom=    0.0000000
 NMagM=    2.7928460
 AtZNuc=   1.0000000
 Leave Link  101 at Tue Jun 17 23:19:39 2014, MaxMem=  4294967296 cpu:         2.0
 (Enter /home/ztw1e12/g09/l202.exe)
                          Input orientation:                          
 ---------------------------------------------------------------------
 Center     Atomic      Atomic             Coordinates (Angstroms)
 Number     Number       Type             X           Y           Z
 ---------------------------------------------------------------------
      1          6           0        0.316256    1.252697    0.243206
      2          6           0        0.194902    0.104470   -0.756300
      3          1           0        0.721159    0.455603   -1.649930
      4          6           0       -2.897299   -1.948992   -0.437795
      5          1           0       -3.730862   -2.176657    0.229858
      6          1           0       -3.258726   -2.016388   -1.465643
      7          1           0       -2.137447   -2.725946   -0.301750
      8          8           0        0.967259    1.163917    1.279298
      9          7           0        0.896868   -1.070573   -0.297737
     10          1           0        0.366071   -1.820256    0.117917
     11          7           0       -0.302794    2.382719   -0.116748
     12          1           0       -0.844874    2.400204   -0.965072
     13          6           0       -0.304346    3.544934    0.741442
     14          1           0       -0.751719    3.314842    1.710292
     15          1           0        0.708471    3.910252    0.912836
     16          1           0       -0.883337    4.331979    0.268044
     17          6           0        2.234971   -1.183752   -0.353745
     18          6           0        2.814095   -2.451509    0.183261
     19          1           0        2.061227   -3.170825    0.498368
     20          1           0        3.447553   -2.900221   -0.581170
     21          1           0        3.451676   -2.208693    1.033610
     22          8           0        2.950088   -0.302243   -0.827817
     23          6           0       -2.310073   -0.580114   -0.139523
     24          1           0       -3.112561    0.153171   -0.268676
     25          6           0       -1.902519   -0.508559    1.323225
     26          1           0       -1.100652   -1.208426    1.571870
     27          1           0       -1.589766    0.489955    1.631770
     28          1           0       -2.759104   -0.777363    1.944801
     29          6           0       -1.226847   -0.236873   -1.192842
     30          1           0       -1.127078   -1.075347   -1.887268
     31          1           0       -1.584965    0.591289   -1.807444
 ---------------------------------------------------------------------
                    Distance matrix (angstroms):
                    1          2          3          4          5
     1  C    0.000000
     2  C    1.527143   0.000000
     3  H    2.093626   1.094904   0.000000
     4  C    4.587103   3.725568   4.510497   0.000000
     5  H    5.304697   4.646253   5.502989   1.091979   0.000000
     6  H    5.136884   4.114457   4.688730   1.091624   1.767292
     7  H    4.706085   3.695636   4.484582   1.095236   1.767285
     8  O    1.226855   2.421285   3.023682   5.251040   5.859445
     9  N    2.455059   1.443524   2.046586   3.897042   4.787240
    10  H    3.075909   2.120878   2.903602   3.312850   4.113929
    11  N    1.337811   2.418087   2.667003   5.059471   5.714866
    12  H    2.030993   2.528856   2.589008   4.837972   5.541159
    13  C    2.426466   3.785403   4.039095   6.188475   6.688747
    14  H    2.746881   4.157722   4.651420   6.076655   6.420556
    15  H    2.768544   4.187331   4.301457   7.011171   7.564694
    16  H    3.304787   4.481486   4.612952   6.633615   7.104379
    17  C    3.158180   2.446109   2.580544   5.189687   6.075987
    18  C    4.468102   3.778356   4.023962   5.766997   6.550891
    19  H    4.762098   3.973024   4.422889   5.191942   5.882921
    20  H    5.266056   4.431543   4.453878   6.417362   7.260231
    21  H    4.736752   4.377337   4.664288   6.522420   7.227440
    22  O    3.240679   2.785961   2.493657   6.087350   7.019060
    23  C    3.225412   2.669076   3.541526   1.519088   2.168878
    24  H    3.637000   3.343570   4.086164   2.119912   2.461490
    25  C    3.031737   3.016522   4.080802   2.483068   2.705705
    26  H    3.135299   2.970275   4.058076   2.795556   3.107486
    27  H    2.478468   3.006080   4.013865   3.455605   3.696007
    28  H    4.058868   4.098747   5.153108   2.658679   2.417306
    29  C    2.581128   1.525927   2.117352   2.508357   3.472309
    30  H    3.470147   2.102068   2.411663   2.449063   3.531968
    31  H    2.873546   2.123634   2.315476   3.170361   4.051790
                    6          7          8          9         10
     6  H    0.000000
     7  H    1.765046   0.000000
     8  O    5.958858   5.222063   0.000000
     9  N    4.418997   3.456493   2.735862   0.000000
    10  H    3.960465   2.695180   3.258147   1.008235   0.000000
    11  N    5.468930   5.431265   2.246655   3.660215   4.262329
    12  H    5.058017   5.328054   3.138380   3.940215   4.522337
    13  C    6.672922   6.616075   2.752364   4.881159   5.442748
    14  H    6.692807   6.516109   2.786955   5.097243   5.491297
    15  H    7.518037   7.322130   2.782736   5.129288   5.795503
    16  H    6.996421   7.191089   3.805779   5.716363   6.279614
    17  C    5.666596   4.636713   3.128174   1.344048   2.029874
    18  C    6.307723   4.982802   4.205164   2.411245   2.528947
    19  H    5.787224   4.297321   4.538348   2.529935   2.200530
    20  H    6.821850   5.594700   5.111792   3.151815   3.339248
    21  H    7.163291   5.769665   4.196092   3.097555   3.241965
    22  O    6.472595   5.659867   3.243635   2.255444   3.142598
    23  C    2.172883   2.158868   3.974368   3.248084   2.960739
    24  H    2.482152   3.039943   4.479147   4.192125   4.018053
    25  C    3.448279   2.759083   3.321857   3.283283   2.884409
    26  H    3.812686   2.624550   3.160675   2.739438   2.153971
    27  H    4.319855   3.792159   2.667740   3.513060   3.384394
    28  H    3.662777   3.038161   4.254086   4.298963   3.767207
    29  C    2.714706   2.796198   3.589957   2.450803   2.600496
    30  H    2.367963   2.501837   4.407685   2.573517   2.608668
    31  H    3.117416   3.684617   4.045952   3.346714   3.650905
                   11         12         13         14         15
    11  N    0.000000
    12  H    1.006881   0.000000
    13  C    1.444727   2.124798   0.000000
    14  H    2.099634   2.828924   1.091675   0.000000
    15  H    2.101442   2.866996   1.090244   1.767089   0.000000
    16  H    2.069954   2.292119   1.085715   1.769737   1.768463
    17  C    4.383621   4.764862   5.477959   5.780823   5.466563
    18  C    5.759754   6.184322   6.781856   6.949652   6.740767
    19  H    6.067027   6.451623   7.124355   7.172538   7.221038
    20  H    6.495402   6.831311   7.574039   7.842939   7.491139
    21  H    6.041559   6.610371   6.877302   6.973942   6.706806
    22  O    4.277369   4.660879   5.277754   5.764432   5.079354
    23  C    3.578836   3.422080   4.670660   4.584863   5.512028
    24  H    3.590092   3.267496   4.517794   4.414301   5.487432
    25  C    3.604460   3.849132   4.395843   4.011553   5.148940
    26  H    4.047756   4.418564   4.890618   4.538818   5.468831
    27  H    2.880307   3.308701   3.431892   2.947622   4.182964
    28  H    4.502173   4.714718   5.114309   4.564070   5.921382
    29  C    2.978945   2.674314   4.346784   4.611791   5.037656
    30  H    3.971449   3.606874   5.379033   5.688329   6.005499
    31  H    2.776983   2.128262   4.106193   4.526202   4.865726
                   16         17         18         19         20
    16  H    0.000000
    17  C    6.366613   0.000000
    18  C    7.726183   1.493642   0.000000
    19  H    8.063224   2.169042   1.087896   0.000000
    20  H    8.472455   2.113846   1.089480   1.777788   0.000000
    21  H    7.884086   2.110836   1.090212   1.773564   1.756628
    22  O    6.113270   1.230120   2.379100   3.282926   2.656651
    23  C    5.131310   4.589956   5.464742   5.121226   6.223199
    24  H    4.766544   5.512776   6.489519   6.197208   7.242648
    25  C    5.057959   4.515190   5.226951   4.845548   6.161983
    26  H    5.695900   3.851621   4.335751   3.873099   5.308853
    27  H    4.137625   4.623005   5.490390   5.292982   6.462583
    28  H    5.695208   5.512645   6.079995   5.572829   7.029200
    29  C    4.809012   3.685763   4.809104   4.720137   5.414571
    30  H    5.826144   3.696866   4.659802   4.499731   5.095420
    31  H    4.335054   4.455998   5.707298   5.724071   6.246649
                   21         22         23         24         25
    21  H    0.000000
    22  O    2.711282   0.000000
    23  C    6.101333   5.312274   0.000000
    24  H    7.096729   6.105387   1.094703   0.000000
    25  C    5.625099   5.312000   1.520149   2.106238   0.000000
    26  H    4.691902   4.794597   2.187771   3.047841   1.092991
    27  H    5.749490   5.223736   2.191203   2.458459   1.090892
    28  H    6.438382   6.364591   2.141248   2.426995   1.091948
    29  C    5.543802   4.193364   1.549411   2.135915   2.619339
    30  H    5.548062   4.282921   2.167797   2.840993   3.351093
    31  H    6.424892   4.724910   2.163314   2.212081   3.333406
                   26         27         28         29         30
    26  H    0.000000
    27  H    1.768423   0.000000
    28  H    1.753669   1.752551   0.000000
    29  C    2.933168   2.939119   3.533376   0.000000
    30  H    3.461798   3.879160   4.175770   1.093261   0.000000
    31  H    3.859183   3.440710   4.163070   1.091713   1.730233
                   31
    31  H    0.000000
 Stoichiometry    C9H18N2O2
 Framework group  C1[X(C9H18N2O2)]
 Deg. of freedom    87
 Full point group                 C1      NOp   1
 Largest Abelian subgroup         C1      NOp   1
 Largest concise Abelian subgroup C1      NOp   1
                         Standard orientation:                         
 ---------------------------------------------------------------------
 Center     Atomic      Atomic             Coordinates (Angstroms)
 Number     Number       Type             X           Y           Z
 ---------------------------------------------------------------------
      1          6           0       -0.363417    1.256649    0.045533
      2          6           0        0.147397    0.060911   -0.755369
      3          1           0        0.531067    0.491735   -1.685962
      4          6           0       -1.668166   -3.136415   -0.154788
      5          1           0       -2.359782   -3.634320    0.527984
      6          1           0       -1.864055   -3.505081   -1.163428
      7          1           0       -0.651773   -3.440037    0.117793
      8          8           0        0.159372    1.625772    1.092248
      9          7           0        1.266790   -0.573204   -0.100677
     10          1           0        1.105400   -1.419382    0.423227
     11          7           0       -1.397717    1.903791   -0.503256
     12          1           0       -1.808368    1.549134   -1.351428
     13          6           0       -2.010835    3.034843    0.154043
     14          1           0       -2.387260    2.756907    1.140355
     15          1           0       -1.299603    3.851588    0.279379
     16          1           0       -2.841784    3.385871   -0.450174
     17          6           0        2.505912   -0.052833   -0.116682
     18          6           0        3.552388   -0.814692    0.628586
     19          1           0        3.189898   -1.752138    1.044898
     20          1           0        4.387070   -1.014134   -0.042604
     21          1           0        3.927481   -0.187818    1.437843
     22          8           0        2.774732    0.986765   -0.716821
     23          6           0       -1.805922   -1.625726   -0.074363
     24          1           0       -2.840510   -1.379250   -0.333695
     25          6           0       -1.610286   -1.172360    1.363357
     26          1           0       -0.602359   -1.373620    1.735117
     27          1           0       -1.821058   -0.112112    1.509971
     28          1           0       -2.299174   -1.723257    2.007015
     29          6           0       -0.912267   -0.962719   -1.152545
     30          1           0       -0.376027   -1.742794   -1.699490
     31          1           0       -1.554329   -0.491643   -1.899325
 ---------------------------------------------------------------------
 Rotational constants (GHZ):      0.8061750      0.6580539      0.4293718
 Leave Link  202 at Tue Jun 17 23:19:39 2014, MaxMem=  4294967296 cpu:         1.9
 (Enter /home/ztw1e12/g09/l301.exe)
 Standard basis: CC-pVTZ (5D, 7F)
 Converting basis for Fermi contact spin-spin IFCMod=1.
 AO basis functions are being uncontracted.
 Ernie: Thresh=  0.10000D-02 Tol=  0.10000D-05 Strict=F.
 There are  1119 symmetry adapted cartesian basis functions of A   symmetry.
 There are  1036 symmetry adapted basis functions of A   symmetry.
  1036 basis functions,  1119 primitive gaussians,  1119 cartesian basis functions
    51 alpha electrons       51 beta electrons
       nuclear repulsion energy       878.3217001819 Hartrees.
 IExCor= 4235 DFT=T Ex+Corr=M06 ExCW=0 ScaHFX=  0.270000
 ScaDFX=  1.000000  1.000000  1.000000  1.000000 ScalE2=  1.000000  1.000000
 IRadAn= 199590 IRanWt=     -1 IRanGd=            0 ICorTp=0 IEmpDi=  4
 NAtoms=   31 NActive=   31 NUniq=   31 SFac= 1.00D+00 NAtFMM=   60 NAOKFM=F Big=F
 Integral buffers will be    131072 words long.
 Raffenetti 2 integral format.
 Two-electron integral symmetry is turned on.
 Leave Link  301 at Tue Jun 17 23:19:40 2014, MaxMem=  4294967296 cpu:         5.1
 (Enter /home/ztw1e12/g09/l302.exe)
 NPDir=0 NMtPBC=     1 NCelOv=     1 NCel=       1 NClECP=     1 NCelD=      1
         NCelK=      1 NCelE2=     1 NClLst=     1 CellRange=     0.0.
 One-electron integrals computed using PRISM.
 GSVD:  received Info=                   1 from GESDD.
 NBasis=  1036 RedAO= T EigKep=  1.15D-04  NBF=  1036
 NBsUse=   932 1.00D-06 EigRej=  5.80D-15 NBFU=   932
 Precomputing XC quadrature grid using
 IXCGrd= 4 IRadAn=      199590 IRanWt=          -1 IRanGd=           0 AccXCQ= 0.00D+00.
 Generated NRdTot=       0 NPtTot=           0 NUsed=           0 NTot=          32
 NSgBfM=   891   891   891   891   891 MxSgAt=    31 MxSgA2=    31.
 Leave Link  302 at Tue Jun 17 23:19:44 2014, MaxMem=  4294967296 cpu:        64.0
 (Enter /home/ztw1e12/g09/l308.exe)
 Leave Link  308 at Tue Jun 17 23:19:44 2014, MaxMem=  4294967296 cpu:         5.6
 (Enter /home/ztw1e12/g09/l303.exe)
 DipDrv:  MaxL=1.
 Leave Link  303 at Tue Jun 17 23:19:45 2014, MaxMem=  4294967296 cpu:         3.5
 (Enter /home/ztw1e12/g09/l401.exe)
 ExpMin= 1.03D-01 ExpMax= 1.38D+05 ExpMxC= 1.38D+05 IAcc=4 IRadAn=    199590 AccDes= 0.00D+00
 Harris functional with IExCor= 1009 and IRadAn=  199590 diagonalized for initial guess.
 HarFok:  IExCor= 1009 AccDes= 0.00D+00 IRadAn=    199590 IDoV= 1 UseB2=F ITyADJ=14
 ICtDFT=  3500011 ScaDFX=  1.000000  1.000000  1.000000  1.000000
 FoFCou: FMM=F IPFlag=           0 FMFlag=      100000 FMFlg1=           0
         NFxFlg=           0 DoJE=T BraDBF=F KetDBF=T FulRan=T
         wScrn=  0.000000 ICntrl=     500 IOpCl=  0 I1Cent=   200000004 NGrid=           0
         NMat0=    1 NMatS0=      1 NMatT0=    0 NMatD0=    1 NMtDS0=    0 NMtDT0=    0
 Petite list used in FoFCou.
 Harris En= -613.556287365117    
 JPrj=0 DoOrth=F DoCkMO=F.
 Leave Link  401 at Tue Jun 17 23:20:02 2014, MaxMem=  4294967296 cpu:       262.4
 (Enter /home/ztw1e12/g09/l502.exe)
 Closed shell SCF:
 Using DIIS extrapolation, IDIIS=  1040.
 Integral symmetry usage will be decided dynamically.
 IVT=     3801329 IEndB=     3801329 NGot=  4294967296 MDV=  4292435888
 LenX=  4292435888 LenY=  4291182608
 Requested convergence on RMS density matrix=1.00D-08 within 128 cycles.
 Requested convergence on MAX density matrix=1.00D-06.
 Requested convergence on             energy=1.00D-06.
 No special actions if energy rises.
 Fock matrices will be formed incrementally for  20 cycles.
 Integral accuracy reduced to 1.0D-05 until final iterations.

 Cycle   1  Pass 0  IDiag  1:
 FoFJK:  IHMeth= 1 ICntrl=       0 DoSepK=F KAlg= 0 I1Cent=   0 FoldK=F
 IRaf= 480000000 NMat=   1 IRICut=       1 DoRegI=T DoRafI=F ISym2E= 0.
 FoFCou: FMM=F IPFlag=           0 FMFlag=      100000 FMFlg1=           0
         NFxFlg=           0 DoJE=F BraDBF=F KetDBF=F FulRan=T
         wScrn=  0.000000 ICntrl=       0 IOpCl=  0 I1Cent=           0 NGrid=           0
         NMat0=    1 NMatS0=      1 NMatT0=    0 NMatD0=    1 NMtDS0=    0 NMtDT0=    0
 Symmetry not used in FoFCou.
 E= -613.173951626125    
 DIIS: error= 1.31D-01 at cycle   1 NSaved=   1.
 NSaved= 1 IEnMin= 1 EnMin= -613.173951626125     IErMin= 1 ErrMin= 1.31D-01
 ErrMax= 1.31D-01  0.00D+00 EMaxC= 1.00D-01 BMatC= 1.30D+01 BMatP= 1.30D+01
 IDIUse=3 WtCom= 0.00D+00 WtEn= 1.00D+00
 Coeff-Com:  0.100D+01
 Coeff-En:   0.100D+01
 Coeff:      0.100D+01
 Gap=     0.285 Goal=   None    Shift=    0.000
 GapD=    0.285 DampG=1.000 DampE=0.250 DampFc=0.2500 IDamp=-1.
 Damping current iteration by 2.50D-01
 RMSDP=2.19D-03 MaxDP=3.17D-01              OVMax= 2.89D-01

 Cycle   2  Pass 0  IDiag  1:
 RMSU=  5.47D-04    CP:  1.01D+00
 E= -613.330448831737     Delta-E=       -0.156497205612 Rises=F Damp=T
 DIIS: error= 9.93D-02 at cycle   2 NSaved=   2.
 NSaved= 2 IEnMin= 2 EnMin= -613.330448831737     IErMin= 2 ErrMin= 9.93D-02
 ErrMax= 9.93D-02  0.00D+00 EMaxC= 1.00D-01 BMatC= 7.66D+00 BMatP= 1.30D+01
 IDIUse=3 WtCom= 7.39D-03 WtEn= 9.93D-01
 Coeff-Com: -0.279D+01 0.379D+01
 Coeff-En:   0.000D+00 0.100D+01
 Coeff:     -0.206D-01 0.102D+01
 Gap=     0.214 Goal=   None    Shift=    0.000
 RMSDP=5.83D-04 MaxDP=5.67D-02 DE=-1.56D-01 OVMax= 1.39D-01

 Cycle   3  Pass 0  IDiag  1:
 RMSU=  4.55D-04    CP:  1.03D+00  1.66D+00
 E= -613.527927034760     Delta-E=       -0.197478203023 Rises=F Damp=F
 DIIS: error= 1.42D-02 at cycle   3 NSaved=   3.
 NSaved= 3 IEnMin= 3 EnMin= -613.527927034760     IErMin= 3 ErrMin= 1.42D-02
 ErrMax= 1.42D-02  0.00D+00 EMaxC= 1.00D-01 BMatC= 2.20D-01 BMatP= 7.66D+00
 IDIUse=3 WtCom= 8.58D-01 WtEn= 1.42D-01
 Coeff-Com:  0.110D+01-0.151D+01 0.141D+01
 Coeff-En:   0.118D+00 0.000D+00 0.882D+00
 Coeff:      0.962D+00-0.130D+01 0.134D+01
 Gap=     0.236 Goal=   None    Shift=    0.000
 RMSDP=4.13D-04 MaxDP=3.39D-02 DE=-1.97D-01 OVMax= 6.51D-02

 Cycle   4  Pass 0  IDiag  1:
 RMSU=  2.92D-04    CP:  1.03D+00  1.18D+00  7.31D-01
 E= -613.528554964500     Delta-E=       -0.000627929740 Rises=F Damp=F
 DIIS: error= 8.54D-03 at cycle   4 NSaved=   4.
 NSaved= 4 IEnMin= 4 EnMin= -613.528554964500     IErMin= 4 ErrMin= 8.54D-03
 ErrMax= 8.54D-03  0.00D+00 EMaxC= 1.00D-01 BMatC= 1.11D-01 BMatP= 2.20D-01
 IDIUse=3 WtCom= 9.15D-01 WtEn= 8.54D-02
 Coeff-Com:  0.714D+00-0.985D+00 0.742D+00 0.528D+00
 Coeff-En:   0.000D+00 0.000D+00 0.498D+00 0.502D+00
 Coeff:      0.653D+00-0.901D+00 0.721D+00 0.526D+00
 Gap=     0.269 Goal=   None    Shift=    0.000
 RMSDP=2.89D-04 MaxDP=3.11D-02 DE=-6.28D-04 OVMax= 7.61D-02

 Cycle   5  Pass 0  IDiag  1:
 RMSU=  8.58D-05    CP:  1.02D+00  1.09D+00  8.45D-01  8.60D-02
 E= -613.607908704777     Delta-E=       -0.079353740278 Rises=F Damp=F
 DIIS: error= 3.16D-03 at cycle   5 NSaved=   5.
 NSaved= 5 IEnMin= 5 EnMin= -613.607908704777     IErMin= 5 ErrMin= 3.16D-03
 ErrMax= 3.16D-03  0.00D+00 EMaxC= 1.00D-01 BMatC= 1.33D-02 BMatP= 1.11D-01
 IDIUse=3 WtCom= 9.68D-01 WtEn= 3.16D-02
 Coeff-Com:  0.113D+00-0.162D+00 0.120D+00 0.258D+00 0.671D+00
 Coeff-En:   0.000D+00 0.000D+00 0.000D+00 0.610D-01 0.939D+00
 Coeff:      0.109D+00-0.157D+00 0.116D+00 0.252D+00 0.680D+00
 Gap=     0.261 Goal=   None    Shift=    0.000
 RMSDP=1.50D-04 MaxDP=2.16D-02 DE=-7.94D-02 OVMax= 2.59D-02

 Cycle   6  Pass 0  IDiag  1:
 RMSU=  7.53D-05    CP:  1.03D+00  1.14D+00  9.27D-01  4.58D-01  4.11D-01
 E= -613.615345757826     Delta-E=       -0.007437053049 Rises=F Damp=F
 DIIS: error= 9.60D-04 at cycle   6 NSaved=   6.
 NSaved= 6 IEnMin= 6 EnMin= -613.615345757826     IErMin= 6 ErrMin= 9.60D-04
 ErrMax= 9.60D-04  0.00D+00 EMaxC= 1.00D-01 BMatC= 1.03D-03 BMatP= 1.33D-02
 IDIUse=3 WtCom= 9.90D-01 WtEn= 9.60D-03
 Coeff-Com:  0.484D-01-0.660D-01 0.146D-01 0.460D-01 0.217D+00 0.740D+00
 Coeff-En:   0.000D+00 0.000D+00 0.000D+00 0.000D+00 0.172D-01 0.983D+00
 Coeff:      0.480D-01-0.654D-01 0.145D-01 0.455D-01 0.215D+00 0.742D+00
 Gap=     0.260 Goal=   None    Shift=    0.000
 RMSDP=3.07D-05 MaxDP=3.90D-03 DE=-7.44D-03 OVMax= 7.41D-03

 Cycle   7  Pass 0  IDiag  1:
 RMSU=  2.17D-05    CP:  1.03D+00  1.11D+00  9.25D-01  4.51D-01  5.53D-01
                    CP:  1.07D+00
 E= -613.615906094097     Delta-E=       -0.000560336271 Rises=F Damp=F
 DIIS: error= 4.85D-04 at cycle   7 NSaved=   7.
 NSaved= 7 IEnMin= 7 EnMin= -613.615906094097     IErMin= 7 ErrMin= 4.85D-04
 ErrMax= 4.85D-04  0.00D+00 EMaxC= 1.00D-01 BMatC= 2.42D-04 BMatP= 1.03D-03
 IDIUse=3 WtCom= 9.95D-01 WtEn= 4.85D-03
 Coeff-Com:  0.334D-01-0.448D-01 0.940D-02 0.970D-02 0.658D-01 0.417D+00
 Coeff-Com:  0.510D+00
 Coeff-En:   0.000D+00 0.000D+00 0.000D+00 0.000D+00 0.000D+00 0.137D+00
 Coeff-En:   0.863D+00
 Coeff:      0.332D-01-0.445D-01 0.935D-02 0.965D-02 0.655D-01 0.415D+00
 Coeff:      0.511D+00
 Gap=     0.260 Goal=   None    Shift=    0.000
 RMSDP=1.16D-05 MaxDP=1.43D-03 DE=-5.60D-04 OVMax= 2.60D-03

 Cycle   8  Pass 0  IDiag  1:
 RMSU=  6.91D-06    CP:  1.03D+00  1.11D+00  9.29D-01  4.63D-01  5.38D-01
                    CP:  1.13D+00  6.77D-01
 E= -613.616070823347     Delta-E=       -0.000164729250 Rises=F Damp=F
 DIIS: error= 1.61D-04 at cycle   8 NSaved=   8.
 NSaved= 8 IEnMin= 8 EnMin= -613.616070823347     IErMin= 8 ErrMin= 1.61D-04
 ErrMax= 1.61D-04  0.00D+00 EMaxC= 1.00D-01 BMatC= 2.42D-05 BMatP= 2.42D-04
 IDIUse=3 WtCom= 9.98D-01 WtEn= 1.61D-03
 Coeff-Com:  0.185D-01-0.247D-01 0.673D-02-0.125D-02 0.813D-02 0.168D+00
 Coeff-Com:  0.294D+00 0.531D+00
 Coeff-En:   0.000D+00 0.000D+00 0.000D+00 0.000D+00 0.000D+00 0.000D+00
 Coeff-En:   0.000D+00 0.100D+01
 Coeff:      0.184D-01-0.247D-01 0.672D-02-0.124D-02 0.811D-02 0.168D+00
 Coeff:      0.294D+00 0.531D+00
 Gap=     0.260 Goal=   None    Shift=    0.000
 RMSDP=5.22D-06 MaxDP=5.80D-04 DE=-1.65D-04 OVMax= 1.10D-03

 Initial convergence to 1.0D-05 achieved.  Increase integral accuracy.
 Cycle   9  Pass 1  IDiag  1:
 E= -613.616181412118     Delta-E=       -0.000110588771 Rises=F Damp=F
 DIIS: error= 7.15D-05 at cycle   1 NSaved=   1.
 NSaved= 1 IEnMin= 1 EnMin= -613.616181412118     IErMin= 1 ErrMin= 7.15D-05
 ErrMax= 7.15D-05  0.00D+00 EMaxC= 1.00D-01 BMatC= 1.01D-05 BMatP= 1.01D-05
 IDIUse=1 WtCom= 1.00D+00 WtEn= 0.00D+00
 Coeff-Com:  0.100D+01
 Coeff:      0.100D+01
 Gap=     0.261 Goal=   None    Shift=    0.000
 RMSDP=5.22D-06 MaxDP=5.80D-04 DE=-1.11D-04 OVMax= 1.20D-03

 Cycle  10  Pass 1  IDiag  1:
 RMSU=  2.16D-05    CP:  1.00D+00
 E= -613.616177611129     Delta-E=        0.000003800989 Rises=F Damp=F
 DIIS: error= 1.33D-04 at cycle   2 NSaved=   2.
 NSaved= 2 IEnMin= 1 EnMin= -613.616181412118     IErMin= 1 ErrMin= 7.15D-05
 ErrMax= 1.33D-04  0.00D+00 EMaxC= 1.00D-01 BMatC= 1.29D-05 BMatP= 1.01D-05
 IDIUse=3 WtCom= 4.65D-01 WtEn= 5.35D-01
 Coeff-Com:  0.538D+00 0.462D+00
 Coeff-En:   0.638D+00 0.362D+00
 Coeff:      0.591D+00 0.409D+00
 Gap=     0.260 Goal=   None    Shift=    0.000
 RMSDP=3.42D-06 MaxDP=4.65D-04 DE= 3.80D-06 OVMax= 9.67D-04

 Cycle  11  Pass 1  IDiag  1:
 RMSU=  3.37D-06    CP:  1.00D+00  9.77D-01
 E= -613.616186229174     Delta-E=       -0.000008618045 Rises=F Damp=F
 DIIS: error= 4.05D-05 at cycle   3 NSaved=   3.
 NSaved= 3 IEnMin= 3 EnMin= -613.616186229174     IErMin= 3 ErrMin= 4.05D-05
 ErrMax= 4.05D-05  0.00D+00 EMaxC= 1.00D-01 BMatC= 9.48D-07 BMatP= 1.01D-05
 IDIUse=1 WtCom= 1.00D+00 WtEn= 0.00D+00
 Coeff-Com:  0.551D-01 0.213D+00 0.732D+00
 Coeff:      0.551D-01 0.213D+00 0.732D+00
 Gap=     0.260 Goal=   None    Shift=    0.000
 RMSDP=8.30D-07 MaxDP=8.13D-05 DE=-8.62D-06 OVMax= 2.14D-04

 Cycle  12  Pass 1  IDiag  1:
 RMSU=  4.74D-07    CP:  1.00D+00  9.95D-01  8.34D-01
 E= -613.616186812197     Delta-E=       -0.000000583024 Rises=F Damp=F
 DIIS: error= 7.42D-06 at cycle   4 NSaved=   4.
 NSaved= 4 IEnMin= 4 EnMin= -613.616186812197     IErMin= 4 ErrMin= 7.42D-06
 ErrMax= 7.42D-06  0.00D+00 EMaxC= 1.00D-01 BMatC= 9.23D-08 BMatP= 9.48D-07
 IDIUse=1 WtCom= 1.00D+00 WtEn= 0.00D+00
 Coeff-Com:  0.551D-02 0.885D-01 0.368D+00 0.538D+00
 Coeff:      0.551D-02 0.885D-01 0.368D+00 0.538D+00
 Gap=     0.260 Goal=   None    Shift=    0.000
 RMSDP=2.29D-07 MaxDP=2.08D-05 DE=-5.83D-07 OVMax= 4.93D-05

 Cycle  13  Pass 1  IDiag  1:
 RMSU=  1.90D-07    CP:  1.00D+00  9.96D-01  8.42D-01  7.44D-01
 E= -613.616186876312     Delta-E=       -0.000000064115 Rises=F Damp=F
 DIIS: error= 1.89D-06 at cycle   5 NSaved=   5.
 NSaved= 5 IEnMin= 5 EnMin= -613.616186876312     IErMin= 5 ErrMin= 1.89D-06
 ErrMax= 1.89D-06  0.00D+00 EMaxC= 1.00D-01 BMatC= 6.08D-09 BMatP= 9.23D-08
 IDIUse=1 WtCom= 1.00D+00 WtEn= 0.00D+00
 Coeff-Com: -0.219D-02 0.240D-01 0.112D+00 0.260D+00 0.606D+00
 Coeff:     -0.219D-02 0.240D-01 0.112D+00 0.260D+00 0.606D+00
 Gap=     0.260 Goal=   None    Shift=    0.000
 RMSDP=6.61D-08 MaxDP=7.32D-06 DE=-6.41D-08 OVMax= 1.09D-05

 Cycle  14  Pass 1  IDiag  1:
 RMSU=  3.64D-08    CP:  1.00D+00  9.97D-01  8.46D-01  8.47D-01  9.07D-01
 E= -613.616186880399     Delta-E=       -0.000000004087 Rises=F Damp=F
 DIIS: error= 4.09D-07 at cycle   6 NSaved=   6.
 NSaved= 6 IEnMin= 6 EnMin= -613.616186880399     IErMin= 6 ErrMin= 4.09D-07
 ErrMax= 4.09D-07  0.00D+00 EMaxC= 1.00D-01 BMatC= 1.96D-10 BMatP= 6.08D-09
 IDIUse=1 WtCom= 1.00D+00 WtEn= 0.00D+00
 Coeff-Com: -0.107D-02 0.580D-02 0.284D-01 0.813D-01 0.237D+00 0.648D+00
 Coeff:     -0.107D-02 0.580D-02 0.284D-01 0.813D-01 0.237D+00 0.648D+00
 Gap=     0.260 Goal=   None    Shift=    0.000
 RMSDP=1.84D-08 MaxDP=1.67D-06 DE=-4.09D-09 OVMax= 4.45D-06

 Cycle  15  Pass 1  IDiag  1:
 RMSU=  1.47D-08    CP:  1.00D+00  9.97D-01  8.47D-01  8.64D-01  9.33D-01
                    CP:  8.75D-01
 E= -613.616186880502     Delta-E=       -0.000000000103 Rises=F Damp=F
 DIIS: error= 2.82D-07 at cycle   7 NSaved=   7.
 NSaved= 7 IEnMin= 7 EnMin= -613.616186880502     IErMin= 7 ErrMin= 2.82D-07
 ErrMax= 2.82D-07  0.00D+00 EMaxC= 1.00D-01 BMatC= 7.86D-11 BMatP= 1.96D-10
 IDIUse=1 WtCom= 1.00D+00 WtEn= 0.00D+00
 Coeff-Com: -0.288D-03-0.480D-03-0.132D-02 0.530D-02 0.393D-01 0.401D+00
 Coeff-Com:  0.556D+00
 Coeff:     -0.288D-03-0.480D-03-0.132D-02 0.530D-02 0.393D-01 0.401D+00
 Coeff:      0.556D+00
 Gap=     0.260 Goal=   None    Shift=    0.000
 RMSDP=1.24D-08 MaxDP=2.01D-06 DE=-1.03D-10 OVMax= 2.26D-06

 Cycle  16  Pass 1  IDiag  1:
 RMSU=  5.56D-09    CP:  1.00D+00  9.97D-01  8.47D-01  8.76D-01  9.58D-01
                    CP:  1.04D+00  7.35D-01
 E= -613.616186880552     Delta-E=       -0.000000000050 Rises=F Damp=F
 DIIS: error= 1.26D-07 at cycle   8 NSaved=   8.
 NSaved= 8 IEnMin= 8 EnMin= -613.616186880552     IErMin= 8 ErrMin= 1.26D-07
 ErrMax= 1.26D-07  0.00D+00 EMaxC= 1.00D-01 BMatC= 1.10D-11 BMatP= 7.86D-11
 IDIUse=1 WtCom= 1.00D+00 WtEn= 0.00D+00
 Coeff-Com: -0.282D-04-0.115D-02-0.485D-02-0.801D-02-0.890D-02 0.159D+00
 Coeff-Com:  0.336D+00 0.527D+00
 Coeff:     -0.282D-04-0.115D-02-0.485D-02-0.801D-02-0.890D-02 0.159D+00
 Coeff:      0.336D+00 0.527D+00
 Gap=     0.260 Goal=   None    Shift=    0.000
 RMSDP=3.16D-09 MaxDP=2.61D-07 DE=-5.00D-11 OVMax= 7.91D-07

 SCF Done:  E(RM06) =  -613.616186881     A.U. after   16 cycles
            NFock= 16  Conv=0.32D-08     -V/T= 2.0046
 KE= 6.107996677277D+02 PE=-3.187992930346D+03 EE= 1.085255375556D+03
 Leave Link  502 at Tue Jun 17 23:49:08 2014, MaxMem=  4294967296 cpu:     27863.8
 (Enter /home/ztw1e12/g09/l801.exe)
 DoSCS=F DFT=T ScalE2(SS,OS)=  1.000000  1.000000
 Range of M.O.s used for correlation:     1   932
 NBasis=  1036 NAE=    51 NBE=    51 NFC=     0 NFV=     0
 NROrb=    932 NOA=    51 NOB=    51 NVA=   881 NVB=   881

 **** Warning!!: The largest alpha MO coefficient is  0.11425146D+02

 Leave Link  801 at Tue Jun 17 23:49:08 2014, MaxMem=  4294967296 cpu:         0.3
 (Enter /home/ztw1e12/g09/l1002.exe)
 Minotr:  Closed shell wavefunction.
          IDoAtm=1111111111111111111111111111111
          Direct CPHF calculation.
          Differentiating once with respect to Fermi-contact.
          Electric field/nuclear overlap derivatives assumed to be zero.
          Requested convergence is 1.0D-10 RMS, and 1.0D-09 maximum.
          Secondary convergence is 1.0D-12 RMS, and 1.0D-12 maximum.
          NewPWx=T KeepS1=F KeepF1=F KeepIn=T MapXYZ=F SortEE=F KeepMc=T.
          MDV=    4294966050 using IRadAn=  199590.
 Using stored XC quadrature information.
          Solving linear equations simultaneously, MaxMat=       0.
          There are    31 degrees of freedom in the 1st order CPHF.  IDoFFX=0 NUNeed=    31.
     31 vectors produced by pass  0 Test12= 1.45D-17 3.23D-11 XBig12= 4.16D+01 2.57D+00.
 AX will form    31 AO Fock derivatives at one time.
 FoFJK:  IHMeth= 1 ICntrl=       0 DoSepK=F KAlg= 0 I1Cent=   0 FoldK=F
 IRaf= 510000000 NMat=  31 IRICut=       1 DoRegI=T DoRafI=F ISym2E=-1.
 FoFCou: FMM=F IPFlag=           0 FMFlag=      100000 FMFlg1=           0
         NFxFlg=           0 DoJE=F BraDBF=F KetDBF=F FulRan=T
         wScrn=  0.000000 ICntrl=       0 IOpCl=  0 I1Cent=           0 NGrid=           0
         NMat0=   31 NMatS0=      0 NMatT0=   31 NMatD0=   31 NMtDS0=    0 NMtDT0=    0
 Petite list used in FoFCou.
     31 vectors produced by pass  1 Test12= 1.45D-17 3.23D-11 XBig12= 3.43D-01 1.76D-01.
     31 vectors produced by pass  2 Test12= 1.45D-17 3.23D-11 XBig12= 1.66D-02 4.78D-02.
     31 vectors produced by pass  3 Test12= 1.45D-17 3.23D-11 XBig12= 3.62D-04 6.31D-03.
     31 vectors produced by pass  4 Test12= 1.45D-17 3.23D-11 XBig12= 5.10D-06 8.97D-04.
     31 vectors produced by pass  5 Test12= 1.45D-17 3.23D-11 XBig12= 1.05D-07 1.53D-04.
     31 vectors produced by pass  6 Test12= 1.45D-17 3.23D-11 XBig12= 3.26D-09 1.73D-05.
     31 vectors produced by pass  7 Test12= 1.45D-17 3.23D-11 XBig12= 1.11D-10 4.44D-06.
     31 vectors produced by pass  8 Test12= 1.45D-17 3.23D-11 XBig12= 2.87D-12 4.04D-07.
     31 vectors produced by pass  9 Test12= 1.45D-17 3.23D-11 XBig12= 6.44D-14 8.73D-08.
     31 vectors produced by pass 10 Test12= 1.45D-17 3.23D-11 XBig12= 2.76D-15 1.00D-08.
     30 vectors produced by pass 11 Test12= 1.45D-17 3.23D-11 XBig12= 2.73D-17 7.31D-10.
      4 vectors produced by pass 12 Test12= 1.45D-17 3.23D-11 XBig12= 1.99D-19 4.60D-11.
 InvSVY:  IOpt=1 It=  1 EMax= 7.99D-15
 Solved reduced A of dimension   375 with    31 vectors.
 Max diff in FC couplings:  IJMax=    22    17 Diff= 3.05D-04 IJMaxR=    27    18 DiffR= 6.32D-01
 Fermi Contact (FC) contribution to K (Hz):
                1             2             3             4             5 
      1  0.123400D+11
      2  0.269176D+02  0.123400D+11
      3 -0.128919D+01  0.186812D+02  0.123400D+11
      4  0.200918D-01  0.467094D+00 -0.286195D-01  0.123400D+11
      5 -0.553886D-02  0.820446D-01  0.621638D-02  0.175310D+02  0.123400D+11
      6  0.438265D-02 -0.447790D-02 -0.835900D-03  0.175607D+02 -0.763719D+00
      7  0.108789D-02 -0.124195D-01  0.522111D-02  0.168988D+02 -0.753030D+00
      8 -0.965405D+01  0.282362D+01  0.348095D+00  0.783588D-01  0.143751D-02
      9  0.415713D+00  0.195315D+02 -0.882934D+00  0.120621D-01  0.721347D-03
     10 -0.325991D-01  0.264581D+00  0.246454D+00  0.132456D-01  0.201528D-02
     11  0.282364D+02  0.134751D+02 -0.297227D-01  0.873975D-02  0.210056D-02
     12  0.480331D+00  0.696866D-01 -0.203328D-01 -0.276935D-02 -0.444357D-03
     13 -0.425855D+00  0.983516D+00 -0.662897D-01 -0.237696D-02  0.748731D-03
     14  0.206069D+00 -0.857595D-01  0.332506D-01  0.173906D-02  0.000000D+00
     15  0.167718D+00 -0.811297D-01  0.275013D-01  0.611332D-03  0.246413D-03
     16  0.952932D+00 -0.152078D-01  0.705333D-03  0.711181D-03  0.785970D-05
     17  0.945071D-02 -0.521477D+00  0.414264D+00  0.160290D-01  0.268624D-02
     18 -0.147615D+00  0.906061D+00 -0.871847D-01 -0.423101D-02 -0.235245D-03
     19  0.111401D-03  0.107016D+00 -0.253358D-02 -0.470522D-03 -0.304733D-04
     20  0.471772D-01  0.289629D-01  0.852428D-02 -0.235847D-03 -0.395668D-04
     21  0.910450D-01  0.337907D-01  0.186880D-01 -0.406715D-04 -0.247076D-04
     22  0.438100D+00  0.738379D+00  0.134441D+00  0.277840D-02  0.269372D-02
     23  0.648704D+00 -0.591919D+00  0.113423D+01  0.171340D+02 -0.529351D+00
     24 -0.130345D-01  0.299831D+00 -0.218440D-01 -0.791812D+00  0.127398D+00
     25  0.148549D+00  0.173412D+01  0.781825D-02 -0.154707D+00  0.296049D+00
     26  0.270572D-01  0.480917D-02  0.860036D-02  0.370348D+00 -0.400461D-02
     27 -0.138191D-01  0.575180D-01  0.753952D-02  0.153508D+01  0.413971D-02
     28  0.961165D-02  0.967378D-01  0.187952D-02  0.416154D+00 -0.905327D-02
     29 -0.137553D+00  0.170006D+02 -0.899110D+00  0.330973D+00  0.149093D+01
     30  0.103727D+01 -0.100595D+01  0.109819D+00  0.124182D+01  0.312445D-01
     31  0.432821D-01 -0.521305D+00  0.200796D+00  0.270646D+00 -0.969377D-02
                6             7             8             9            10 
      6  0.123400D+11
      7 -0.757631D+00  0.123400D+11
      8  0.729083D-02 -0.810903D-03  0.123400D+11
      9  0.120507D-01  0.626783D-01  0.516183D+00  0.123400D+11
     10 -0.335000D-03 -0.351667D-02 -0.102878D-01  0.313347D+02  0.123400D+11
     11  0.104886D-02  0.500817D-02  0.631786D+01  0.900622D+00  0.718639D-01
     12 -0.109416D-03  0.209124D-03  0.467461D+00  0.379570D-01 -0.142207D-02
     13  0.872471D-03 -0.286431D-03  0.651419D+00  0.286160D+00 -0.900809D-03
     14  0.405027D-03 -0.454497D-04  0.256165D+00 -0.759034D-02  0.839813D-03
     15  0.204060D-03  0.191418D-03  0.235657D+00 -0.196440D-02  0.433255D-03
     16  0.647326D-05  0.146902D-04  0.189163D+00  0.350667D-01 -0.434253D-03
     17  0.258224D-04  0.517921D-02  0.138678D+00  0.266654D+02  0.393906D+00
     18  0.306408D-03 -0.606654D-04  0.682704D-01  0.129770D+02  0.109526D+00
     19  0.258365D-04  0.290967D-03 -0.232313D-03  0.339852D+00 -0.111256D-01
     20  0.000000D+00 -0.174334D-04  0.558577D-02  0.406540D+00 -0.612511D-02
     21 -0.753116D-05 -0.585948D-04  0.269518D-02  0.323294D+00 -0.158990D-01
     22  0.579413D-03  0.142754D-02  0.788403D+00  0.573892D+01  0.376105D+00
     23 -0.609994D+00 -0.728885D+00  0.548775D-01  0.100349D+00 -0.572997D-02
     24  0.155334D+00  0.416590D+00  0.356706D-02  0.393086D-01  0.160959D-02
     25  0.135195D+01  0.464666D+00  0.954601D+00  0.689014D+00 -0.442446D-02
     26 -0.119324D-01 -0.167519D-01  0.570386D-01  0.381387D+00 -0.219762D-01
     27  0.902112D-01 -0.889901D-02  0.193299D+00  0.346252D-02  0.643890D-03
     28  0.139208D-01 -0.673218D-02  0.137115D+00  0.110256D+00 -0.427651D-03
     29  0.404362D+00  0.391542D+00  0.411160D+00  0.912044D+00  0.406587D+00
     30 -0.105845D-01 -0.162119D-01  0.868976D-01  0.772155D+00 -0.141696D-01
     31 -0.668086D-02 -0.674906D-02 -0.251667D-01  0.195617D+01 -0.211289D-01
               11            12            13            14            15 
     11  0.123400D+11
     12  0.311931D+02  0.123400D+11
     13  0.172001D+02  0.327927D+00  0.123400D+11
     14 -0.584412D+00  0.833412D-01  0.197161D+02  0.123400D+11
     15 -0.533643D+00  0.127224D+00  0.202737D+02 -0.733701D+00  0.123400D+11
     16 -0.371498D+00  0.289473D+00  0.182296D+02 -0.740459D+00 -0.750298D+00
     17 -0.555885D-01 -0.136360D-02 -0.153884D-01  0.140150D-02  0.178326D-02
     18  0.210940D-01  0.194920D-02  0.143820D-01 -0.216922D-03  0.895713D-04
     19  0.514101D-02 -0.304403D-04 -0.220014D-04 -0.164501D-04 -0.998998D-05
     20 -0.292163D-02 -0.376315D-04 -0.356339D-03  0.359359D-04  0.512616D-05
     21  0.242822D-01  0.115616D-03  0.395763D-02 -0.731043D-04 -0.139650D-03
     22  0.192550D+00 -0.148596D-02  0.128496D-01  0.301432D-03  0.131786D-02
     23 -0.401329D-01  0.594118D-02 -0.550751D-03  0.487349D-03  0.585795D-03
     24  0.128713D-01 -0.179888D-03 -0.207372D-02  0.105722D-02  0.814205D-03
     25  0.214987D+00 -0.719084D-02 -0.903135D-02  0.910220D-02  0.365322D-02
     26 -0.137736D-02  0.670413D-03  0.398481D-03  0.109858D-03  0.134676D-05
     27  0.478288D-01  0.449251D-03  0.186878D-01  0.624378D-02  0.742750D-03
     28  0.262111D-01 -0.520876D-03  0.552638D-04  0.744721D-03  0.918465D-03
     29 -0.234718D-02 -0.470915D-01 -0.571195D-01  0.322869D-01  0.815001D-01
     30 -0.285075D-01 -0.129716D-01 -0.591934D-02  0.455559D-04  0.550225D-02
     31  0.268941D+00 -0.310477D-01  0.142292D-01 -0.118859D-02  0.318296D-02
               16            17            18            19            20 
     16  0.123400D+11
     17  0.933346D-04  0.123400D+11
     18  0.584850D-03  0.273800D+02  0.123400D+11
     19  0.166858D-04 -0.748986D+00  0.169699D+02  0.123400D+11
     20  0.711195D-04 -0.116418D+01  0.179687D+02 -0.713520D+00  0.123400D+11
     21  0.304104D-03 -0.122457D+01  0.179503D+02 -0.749967D+00 -0.920860D+00
     22  0.730251D-03 -0.958602D+01  0.381380D+01  0.824930D+00  0.426736D+00
     23 -0.688358D-03 -0.682994D-01  0.130282D-01 -0.524661D-03 -0.156445D-02
     24  0.308841D-03  0.252030D-02  0.873679D-03  0.557443D-03  0.581889D-03
     25  0.222090D-02  0.234310D-01 -0.635620D-02 -0.973476D-03  0.184769D-02
     26 -0.912507D-04  0.322691D-01  0.259856D-02  0.103113D-02  0.216245D-03
     27  0.504099D-03 -0.492601D-03  0.243694D-04  0.451288D-04 -0.303443D-05
     28  0.112448D-03  0.936027D-02 -0.423824D-03 -0.364086D-04  0.166489D-03
     29  0.525202D-02  0.126049D+01 -0.359057D-01 -0.364634D-02  0.240907D-01
     30  0.153220D-02  0.461409D-02  0.143338D-01  0.160378D-03  0.254971D-03
     31  0.100609D-02  0.105684D+00  0.637209D-01 -0.236947D-03  0.375334D-02
               21            22            23            24            25 
     21  0.123400D+11
     22  0.445073D+00  0.123400D+11
     23 -0.474588D-03  0.118016D+00  0.123400D+11
     24 -0.437792D-04  0.172825D-02  0.171700D+02  0.123400D+11
     25  0.184171D-03  0.760674D-01  0.171084D+02 -0.824348D+00  0.123400D+11
     26  0.313253D-03  0.158728D-02 -0.683090D+00  0.429379D+00  0.169946D+02
     27  0.824718D-04 -0.411172D-03 -0.590750D+00  0.163593D+00  0.179002D+02
     28  0.210194D-03  0.299752D-02 -0.670412D+00  0.132764D+00  0.168012D+02
     29 -0.534984D-02  0.145354D+00  0.172419D+02 -0.791615D+00 -0.305444D+00
     30 -0.111045D-02 -0.238839D-02 -0.601366D+00  0.949300D-01  0.176767D+00
     31 -0.195617D-02  0.907883D-02 -0.617705D+00  0.402813D+00  0.345439D+00
               26            27            28            29            30 
     26  0.123400D+11
     27 -0.776990D+00  0.123400D+11
     28 -0.850428D+00 -0.863897D+00  0.123400D+11
     29  0.328412D+00  0.153892D+00  0.121445D+01  0.123400D+11
     30 -0.839955D-02 -0.946253D-02 -0.436898D-02  0.175685D+02  0.123400D+11
     31 -0.109287D-01 -0.610350D-02 -0.131076D-01  0.167361D+02 -0.964224D+00
               31 
     31  0.123400D+11
 Fermi Contact (FC) contribution to J (Hz):
                1             2             3             4             5 
      1  0.243533D+11
      2  0.531226D+02  0.243533D+11
      3 -0.101162D+02  0.146589D+03  0.385007D+12
      4  0.396516D-01  0.921822D+00 -0.224575D+00  0.243533D+11
      5 -0.434629D-01  0.643796D+00  0.193951D+00  0.137564D+03  0.385007D+12
      6  0.343903D-01 -0.351377D-01 -0.260801D-01  0.137797D+03 -0.238280D+02
      7  0.853655D-02 -0.974544D-01  0.162898D+00  0.132603D+03 -0.234945D+02
      8  0.102737D+02 -0.300484D+01 -0.147288D+01 -0.833879D-01 -0.608251D-02
      9  0.235797D+00  0.110785D+02 -0.199127D+01  0.684177D-02  0.162684D-02
     10 -0.255802D+00  0.207615D+01  0.768935D+01  0.103937D+00  0.628766D-01
     11  0.160161D+02  0.764326D+01 -0.670332D-01  0.495730D-02  0.473735D-02
     12  0.376911D+01  0.546824D+00 -0.634382D+00 -0.217308D-01 -0.138639D-01
     13 -0.840435D+00  0.194099D+01 -0.520169D+00 -0.469100D-02  0.587522D-02
     14  0.161701D+01 -0.672946D+00  0.103742D+01  0.136462D-01  0.000000D+00
     15  0.131607D+01 -0.636617D+00  0.858039D+00  0.479706D-02  0.768808D-02
     16  0.747757D+01 -0.119334D+00  0.220063D-01  0.558057D-02  0.245222D-03
     17  0.186512D-01 -0.102915D+01  0.325069D+01  0.316337D-01  0.210787D-01
     18 -0.291322D+00  0.178813D+01 -0.684130D+00 -0.835001D-02 -0.184594D-02
     19  0.874155D-03  0.839742D+00 -0.790476D-01 -0.369214D-02 -0.950765D-03
     20  0.370195D+00  0.227269D+00  0.265957D+00 -0.185067D-02 -0.123448D-02
     21  0.714421D+00  0.265152D+00  0.583064D+00 -0.319146D-03 -0.770874D-03
     22 -0.466218D+00 -0.785769D+00 -0.568856D+00 -0.295672D-02 -0.113979D-01
     23  0.128023D+01 -0.116817D+01  0.890016D+01  0.338143D+02 -0.415376D+01
     24 -0.102281D+00  0.235274D+01 -0.681531D+00 -0.621327D+01  0.397482D+01
     25  0.293164D+00  0.342234D+01  0.613490D-01 -0.305317D+00  0.232306D+01
     26  0.212315D+00  0.377371D-01  0.268331D+00  0.290609D+01 -0.124944D+00
     27 -0.108437D+00  0.451338D+00  0.235233D+00  0.120456D+02  0.129159D+00
     28  0.754217D-01  0.759092D+00  0.586410D-01  0.326552D+01 -0.282462D+00
     29 -0.271464D+00  0.335510D+02 -0.705523D+01  0.653184D+00  0.116992D+02
     30  0.813935D+01 -0.789361D+01  0.342635D+01  0.974447D+01  0.974827D+00
     31  0.339631D+00 -0.409063D+01  0.626482D+01  0.212373D+01 -0.302445D+00
                6             7             8             9            10 
      6  0.385007D+12
      7 -0.236381D+02  0.385007D+12
      8 -0.308495D-01  0.343115D-02  0.708114D+10
      9  0.271777D-01  0.141357D+00 -0.157878D+00  0.201170D+10
     10 -0.104520D-01 -0.109720D+00  0.435307D-01  0.706687D+02  0.385007D+12
     11  0.236548D-02  0.112948D-01 -0.193236D+01  0.146822D+00  0.162073D+00
     12 -0.341377D-02  0.652467D-02 -0.197795D+01  0.856039D-01 -0.443686D-01
     13  0.684619D-02 -0.224760D-02 -0.693228D+00  0.162313D+00 -0.706856D-02
     14  0.126368D-01 -0.141803D-02 -0.108391D+01 -0.171184D-01  0.262021D-01
     15  0.636665D-02  0.597223D-02 -0.997130D+00 -0.443028D-02  0.135175D-01
     16  0.201965D-03  0.458334D-03 -0.800401D+00  0.790854D-01 -0.135487D-01
     17  0.202626D-03  0.406407D-01 -0.147578D+00  0.151249D+02  0.309094D+01
     18  0.240435D-02 -0.476035D-03 -0.726520D-01  0.736070D+01  0.859443D+00
     19  0.806097D-03  0.907815D-02  0.982981D-03  0.766462D+00 -0.347118D+00
     20 -0.742349D-05 -0.543921D-03 -0.236349D-01  0.916864D+00 -0.191103D+00
     21 -0.234972D-03 -0.182815D-02 -0.114040D-01  0.729120D+00 -0.496047D+00
     22 -0.245166D-02 -0.604030D-02  0.452414D+00 -0.175529D+01 -0.159140D+01
     23 -0.478657D+01 -0.571949D+01 -0.583995D-01  0.569191D-01 -0.449625D-01
     24  0.484642D+01  0.129976D+02 -0.150932D-01  0.886520D-01  0.502192D-01
     25  0.106086D+02  0.364619D+01 -0.101587D+01  0.390817D+00 -0.347183D-01
     26 -0.372292D+00 -0.522658D+00 -0.241346D+00  0.860136D+00 -0.685656D+00
     27  0.281459D+01 -0.277649D+00 -0.817901D+00  0.780898D-02  0.200893D-01
     28  0.434327D+00 -0.210044D+00 -0.580171D+00  0.248658D+00 -0.133427D-01
     29  0.317299D+01  0.307239D+01 -0.437548D+00  0.517322D+00  0.319045D+01
     30 -0.330235D+00 -0.505812D+00 -0.367687D+00  0.174143D+01 -0.442089D+00
     31 -0.208443D+00 -0.210570D+00  0.106487D+00  0.441173D+01 -0.659221D+00
               11            12            13            14            15 
     11  0.201170D+10
     12  0.703492D+02  0.385007D+12
     13  0.975610D+01  0.257321D+01  0.243533D+11
     14 -0.131802D+01  0.260024D+01  0.154711D+03  0.385007D+12
     15 -0.120352D+01  0.396938D+01  0.159086D+03 -0.228914D+02  0.385007D+12
     16 -0.837833D+00  0.903155D+01  0.143046D+03 -0.231023D+02 -0.234092D+02
     17 -0.315305D-01 -0.107000D-01 -0.303693D-01  0.109975D-01  0.139931D-01
     18  0.119648D-01  0.152952D-01  0.283832D-01 -0.170216D-02  0.702858D-03
     19  0.115945D-01 -0.949737D-03 -0.172642D-03 -0.513242D-03 -0.311687D-03
     20 -0.658911D-02 -0.117410D-02 -0.279616D-02  0.112120D-02  0.159936D-03
     21  0.547632D-01  0.360723D-02  0.310551D-01 -0.228085D-02 -0.435706D-02
     22 -0.588927D-01  0.628751D-02 -0.136743D-01 -0.127544D-02 -0.557621D-02
     23 -0.227639D-01  0.466198D-01 -0.108692D-02  0.382418D-02  0.459668D-02
     24  0.290283D-01 -0.561249D-02 -0.162723D-01  0.329853D-01  0.254032D-01
     25  0.121943D+00 -0.564258D-01 -0.178236D-01  0.714240D-01  0.286665D-01
     26 -0.310633D-02  0.209169D-01  0.312684D-02  0.342757D-02  0.420189D-04
     27  0.107867D+00  0.140166D-01  0.146641D+00  0.194806D+00  0.231738D-01
     28  0.591134D-01 -0.162513D-01  0.433650D-03  0.232352D-01  0.286561D-01
     29 -0.133135D-02 -0.369523D+00 -0.112727D+00  0.253352D+00  0.639523D+00
     30 -0.642925D-01 -0.404714D+00 -0.464485D-01  0.142134D-02  0.171670D+00
     31  0.606539D+00 -0.968687D+00  0.111655D+00 -0.370840D-01  0.993082D-01
               16            17            18            19            20 
     16  0.385007D+12
     17  0.732388D-03  0.243533D+11
     18  0.458926D-02  0.540350D+02  0.243533D+11
     19  0.520597D-03 -0.587722D+01  0.133161D+03  0.385007D+12
     20  0.221892D-02 -0.913524D+01  0.140999D+03 -0.222618D+02  0.385007D+12
     21  0.948804D-02 -0.960910D+01  0.140854D+03 -0.233990D+02 -0.287308D+02
     22 -0.308989D-02  0.102013D+02 -0.405858D+01 -0.349050D+01 -0.180564D+01
     23 -0.540148D-02 -0.134790D+00  0.257114D-01 -0.411696D-02 -0.122761D-01
     24  0.963584D-02  0.197766D-01  0.685567D-02  0.173922D-01  0.181549D-01
     25  0.174272D-01  0.462416D-01 -0.125441D-01 -0.763877D-02  0.144987D-01
     26 -0.284702D-02  0.253212D+00  0.203907D-01  0.321711D-01  0.674683D-02
     27  0.157279D-01 -0.386539D-02  0.191224D-03  0.140802D-02 -0.946741D-04
     28  0.350838D-02  0.734491D-01 -0.332571D-02 -0.113595D-02  0.519444D-02
     29  0.412121D-01  0.248761D+01 -0.708608D-01 -0.286125D-01  0.189037D+00
     30  0.478047D-01  0.362063D-01  0.112476D+00  0.500380D-02  0.795507D-02
     31  0.313899D-01  0.829295D+00  0.500011D+00 -0.739275D-02  0.117104D+00
               21            22            23            24            25 
     21  0.385007D+12
     22 -0.188322D+01  0.708114D+10
     23 -0.372405D-02 -0.125591D+00  0.243533D+11
     24 -0.136591D-02 -0.731270D-02  0.134731D+03  0.385007D+12
     25  0.144517D-02 -0.809495D-01  0.337638D+02 -0.646858D+01  0.243533D+11
     26  0.977348D-02 -0.671620D-02 -0.536014D+01  0.133966D+02  0.133355D+03
     27  0.257312D-02  0.173978D-02 -0.463556D+01  0.510410D+01  0.140461D+03
     28  0.655804D-02 -0.126833D-01 -0.526066D+01  0.414222D+01  0.131837D+03
     29 -0.419797D-01 -0.154683D+00  0.340273D+02 -0.621173D+01 -0.602802D+00
     30 -0.346459D-01  0.101059D-01 -0.471886D+01  0.296181D+01  0.138707D+01
     31 -0.610325D-01 -0.384150D-01 -0.484708D+01  0.125678D+02  0.271063D+01
               26            27            28            29            30 
     26  0.385007D+12
     27 -0.242420D+02  0.385007D+12
     28 -0.265333D+02 -0.269535D+02  0.385007D+12
     29  0.257701D+01  0.120757D+01  0.952967D+01  0.243533D+11
     30 -0.262066D+00 -0.295230D+00 -0.136312D+00  0.137859D+03  0.385007D+12
     31 -0.340974D+00 -0.190429D+00 -0.408956D+00  0.131327D+03 -0.300837D+02
               31 
     31  0.385007D+12
 End of Minotr F.D. properties file   721 does not exist.
 End of Minotr F.D. properties file   722 does not exist.
 End of Minotr F.D. properties file   788 does not exist.
 Leave Link 1002 at Wed Jun 18 06:29:50 2014, MaxMem=  4294967296 cpu:    383719.4
 (Enter /home/ztw1e12/g09/l601.exe)
 Copying SCF densities to generalized density rwf, IOpCl= 0 IROHF=0.

 **********************************************************************

            Population analysis using the SCF density.

 **********************************************************************

 Orbital symmetries:
       Occupied  (A) (A) (A) (A) (A) (A) (A) (A) (A) (A) (A) (A)
                 (A) (A) (A) (A) (A) (A) (A) (A) (A) (A) (A) (A)
                 (A) (A) (A) (A) (A) (A) (A) (A) (A) (A) (A) (A)
                 (A) (A) (A) (A) (A) (A) (A) (A) (A) (A) (A) (A)
                 (A) (A) (A)
       Virtual   (A) (A) (A) (A) (A) (A) (A) (A) (A) (A) (A) (A)
                 (A) (A) (A) (A) (A) (A) (A) (A) (A) (A) (A) (A)
                 (A) (A) (A) (A) (A) (A) (A) (A) (A) (A) (A) (A)
                 (A) (A) (A) (A) (A) (A) (A) (A) (A) (A) (A) (A)
                 (A) (A) (A) (A) (A) (A) (A) (A) (A) (A) (A) (A)
                 (A) (A) (A) (A) (A) (A) (A) (A) (A) (A) (A) (A)
                 (A) (A) (A) (A) (A) (A) (A) (A) (A) (A) (A) (A)
                 (A) (A) (A) (A) (A) (A) (A) (A) (A) (A) (A) (A)
                 (A) (A) (A) (A) (A) (A) (A) (A) (A) (A) (A) (A)
                 (A) (A) (A) (A) (A) (A) (A) (A) (A) (A) (A) (A)
                 (A) (A) (A) (A) (A) (A) (A) (A) (A) (A) (A) (A)
                 (A) (A) (A) (A) (A) (A) (A) (A) (A) (A) (A) (A)
                 (A) (A) (A) (A) (A) (A) (A) (A) (A) (A) (A) (A)
                 (A) (A) (A) (A) (A) (A) (A) (A) (A) (A) (A) (A)
                 (A) (A) (A) (A) (A) (A) (A) (A) (A) (A) (A) (A)
                 (A) (A) (A) (A) (A) (A) (A) (A) (A) (A) (A) (A)
                 (A) (A) (A) (A) (A) (A) (A) (A) (A) (A) (A) (A)
                 (A) (A) (A) (A) (A) (A) (A) (A) (A) (A) (A) (A)
                 (A) (A) (A) (A) (A) (A) (A) (A) (A) (A) (A) (A)
                 (A) (A) (A) (A) (A) (A) (A) (A) (A) (A) (A) (A)
                 (A) (A) (A) (A) (A) (A) (A) (A) (A) (A) (A) (A)
                 (A) (A) (A) (A) (A) (A) (A) (A) (A) (A) (A) (A)
                 (A) (A) (A) (A) (A) (A) (A) (A) (A) (A) (A) (A)
                 (A) (A) (A) (A) (A) (A) (A) (A) (A) (A) (A) (A)
                 (A) (A) (A) (A) (A) (A) (A) (A) (A) (A) (A) (A)
                 (A) (A) (A) (A) (A) (A) (A) (A) (A) (A) (A) (A)
                 (A) (A) (A) (A) (A) (A) (A) (A) (A) (A) (A) (A)
                 (A) (A) (A) (A) (A) (A) (A) (A) (A) (A) (A) (A)
                 (A) (A) (A) (A) (A) (A) (A) (A) (A) (A) (A) (A)
                 (A) (A) (A) (A) (A) (A) (A) (A) (A) (A) (A) (A)
                 (A) (A) (A) (A) (A) (A) (A) (A) (A) (A) (A) (A)
                 (A) (A) (A) (A) (A) (A) (A) (A) (A) (A) (A) (A)
                 (A) (A) (A) (A) (A) (A) (A) (A) (A) (A) (A) (A)
                 (A) (A) (A) (A) (A) (A) (A) (A) (A) (A) (A) (A)
                 (A) (A) (A) (A) (A) (A) (A) (A) (A) (A) (A) (A)
                 (A) (A) (A) (A) (A) (A) (A) (A) (A) (A) (A) (A)
                 (A) (A) (A) (A) (A) (A) (A) (A) (A) (A) (A) (A)
                 (A) (A) (A) (A) (A) (A) (A) (A) (A) (A) (A) (A)
                 (A) (A) (A) (A) (A) (A) (A) (A) (A) (A) (A) (A)
                 (A) (A) (A) (A) (A) (A) (A) (A) (A) (A) (A) (A)
                 (A) (A) (A) (A) (A) (A) (A) (A) (A) (A) (A) (A)
                 (A) (A) (A) (A) (A) (A) (A) (A) (A) (A) (A) (A)
                 (A) (A) (A) (A) (A) (A) (A) (A) (A) (A) (A) (A)
                 (A) (A) (A) (A) (A) (A) (A) (A) (A) (A) (A) (A)
                 (A) (A) (A) (A) (A) (A) (A) (A) (A) (A) (A) (A)
                 (A) (A) (A) (A) (A) (A) (A) (A) (A) (A) (A) (A)
                 (A) (A) (A) (A) (A) (A) (A) (A) (A) (A) (A) (A)
                 (A) (A) (A) (A) (A) (A) (A) (A) (A) (A) (A) (A)
                 (A) (A) (A) (A) (A) (A) (A) (A) (A) (A) (A) (A)
                 (A) (A) (A) (A) (A) (A) (A) (A) (A) (A) (A) (A)
                 (A) (A) (A) (A) (A) (A) (A) (A) (A) (A) (A) (A)
                 (A) (A) (A) (A) (A) (A) (A) (A) (A) (A) (A) (A)
                 (A) (A) (A) (A) (A) (A) (A) (A) (A) (A) (A) (A)
                 (A) (A) (A) (A) (A) (A) (A) (A) (A) (A) (A) (A)
                 (A) (A) (A) (A) (A) (A) (A) (A) (A) (A) (A) (A)
                 (A) (A) (A) (A) (A) (A) (A) (A) (A) (A) (A) (A)
                 (A) (A) (A) (A) (A) (A) (A) (A) (A) (A) (A) (A)
                 (A) (A) (A) (A) (A) (A) (A) (A) (A) (A) (A) (A)
                 (A) (A) (A) (A) (A) (A) (A) (A) (A) (A) (A) (A)
                 (A) (A) (A) (A) (A) (A) (A) (A) (A) (A) (A) (A)
                 (A) (A) (A) (A) (A) (A) (A) (A) (A) (A) (A) (A)
                 (A) (A) (A) (A) (A) (A) (A) (A) (A) (A) (A) (A)
                 (A) (A) (A) (A) (A) (A) (A) (A) (A) (A) (A) (A)
                 (A) (A) (A) (A) (A) (A) (A) (A) (A) (A) (A) (A)
                 (A) (A) (A) (A) (A) (A) (A) (A) (A) (A) (A) (A)
                 (A) (A) (A) (A) (A) (A) (A) (A) (A) (A) (A) (A)
                 (A) (A) (A) (A) (A) (A) (A) (A) (A) (A) (A) (A)
                 (A) (A) (A) (A) (A) (A) (A) (A) (A) (A) (A) (A)
                 (A) (A) (A) (A) (A) (A) (A) (A) (A) (A) (A) (A)
                 (A) (A) (A) (A) (A) (A) (A) (A) (A) (A) (A) (A)
                 (A) (A) (A) (A) (A) (A) (A) (A) (A) (A) (A) (A)
                 (A) (A) (A) (A) (A) (A) (A) (A) (A) (A) (A) (A)
                 (A) (A) (A) (A) (A) (A) (A) (A) (A) (A) (A) (A)
                 (A) (A) (A) (A) (A)
 The electronic state is 1-A.
 Alpha  occ. eigenvalues --  -19.17126 -19.15994 -14.41984 -14.41232 -10.33493
 Alpha  occ. eigenvalues --  -10.33036 -10.29179 -10.27358 -10.25919 -10.25892
 Alpha  occ. eigenvalues --  -10.23979 -10.23522 -10.23437  -1.05336  -1.03758
 Alpha  occ. eigenvalues --   -0.94424  -0.94077  -0.83918  -0.78659  -0.74204
 Alpha  occ. eigenvalues --   -0.72162  -0.70616  -0.66700  -0.60851  -0.59888
 Alpha  occ. eigenvalues --   -0.58390  -0.54858  -0.50492  -0.49246  -0.48606
 Alpha  occ. eigenvalues --   -0.47465  -0.46709  -0.45343  -0.45085  -0.44328
 Alpha  occ. eigenvalues --   -0.42818  -0.41985  -0.41054  -0.40479  -0.40042
 Alpha  occ. eigenvalues --   -0.39675  -0.38891  -0.38354  -0.36535  -0.35428
 Alpha  occ. eigenvalues --   -0.34352  -0.33635  -0.28179  -0.27540  -0.26159
 Alpha  occ. eigenvalues --   -0.25525
 Alpha virt. eigenvalues --    0.00487   0.02007   0.02663   0.03806   0.04574
 Alpha virt. eigenvalues --    0.04760   0.06734   0.07055   0.07582   0.07999
 Alpha virt. eigenvalues --    0.09342   0.09797   0.10679   0.11560   0.11917
 Alpha virt. eigenvalues --    0.12080   0.12670   0.13488   0.15328   0.15712
 Alpha virt. eigenvalues --    0.16114   0.17415   0.18219   0.18390   0.19572
 Alpha virt. eigenvalues --    0.20628   0.22183   0.23312   0.24568   0.24987
 Alpha virt. eigenvalues --    0.25267   0.25931   0.26483   0.26880   0.27888
 Alpha virt. eigenvalues --    0.28209   0.28586   0.29385   0.31425   0.32390
 Alpha virt. eigenvalues --    0.32702   0.33427   0.34135   0.34526   0.35497
 Alpha virt. eigenvalues --    0.36917   0.37112   0.38191   0.38969   0.39216
 Alpha virt. eigenvalues --    0.39826   0.40021   0.40454   0.40966   0.41018
 Alpha virt. eigenvalues --    0.41676   0.41951   0.42512   0.42962   0.43396
 Alpha virt. eigenvalues --    0.43797   0.44147   0.44633   0.45032   0.45829
 Alpha virt. eigenvalues --    0.46389   0.47051   0.47318   0.47765   0.48859
 Alpha virt. eigenvalues --    0.49167   0.50635   0.50768   0.51641   0.52006
 Alpha virt. eigenvalues --    0.53144   0.53878   0.54937   0.55430   0.56927
 Alpha virt. eigenvalues --    0.57945   0.58858   0.59447   0.60373   0.61710
 Alpha virt. eigenvalues --    0.63173   0.63241   0.64477   0.65353   0.67716
 Alpha virt. eigenvalues --    0.68341   0.69690   0.72061   0.72964   0.73671
 Alpha virt. eigenvalues --    0.75061   0.75206   0.76188   0.77119   0.78545
 Alpha virt. eigenvalues --    0.79447   0.79949   0.81352   0.81519   0.82767
 Alpha virt. eigenvalues --    0.84013   0.84723   0.85619   0.86317   0.87783
 Alpha virt. eigenvalues --    0.88071   0.89095   0.89727   0.90196   0.91513
 Alpha virt. eigenvalues --    0.93110   0.93576   0.93790   0.94746   0.94922
 Alpha virt. eigenvalues --    0.96204   0.97124   0.97336   0.97938   0.98538
 Alpha virt. eigenvalues --    0.99181   0.99748   1.00653   1.01070   1.01883
 Alpha virt. eigenvalues --    1.03595   1.03902   1.04743   1.05524   1.06599
 Alpha virt. eigenvalues --    1.07153   1.08123   1.08541   1.09054   1.09737
 Alpha virt. eigenvalues --    1.10785   1.11973   1.12415   1.14315   1.14458
 Alpha virt. eigenvalues --    1.15138   1.16180   1.16592   1.17072   1.17958
 Alpha virt. eigenvalues --    1.18159   1.19295   1.20055   1.20436   1.20657
 Alpha virt. eigenvalues --    1.21475   1.21684   1.22604   1.23115   1.23384
 Alpha virt. eigenvalues --    1.24233   1.24714   1.25805   1.26110   1.26725
 Alpha virt. eigenvalues --    1.26787   1.27066   1.28507   1.28668   1.29339
 Alpha virt. eigenvalues --    1.29811   1.31450   1.32405   1.32577   1.33215
 Alpha virt. eigenvalues --    1.33758   1.35211   1.36285   1.36983   1.37557
 Alpha virt. eigenvalues --    1.37967   1.38931   1.40020   1.41179   1.42085
 Alpha virt. eigenvalues --    1.42776   1.43673   1.45075   1.47359   1.47797
 Alpha virt. eigenvalues --    1.49490   1.51546   1.53593   1.53778   1.56294
 Alpha virt. eigenvalues --    1.58139   1.58867   1.61167   1.62532   1.64280
 Alpha virt. eigenvalues --    1.65577   1.68160   1.69015   1.70952   1.71922
 Alpha virt. eigenvalues --    1.74123   1.76242   1.77058   1.80560   1.83343
 Alpha virt. eigenvalues --    1.84835   1.87439   1.89131   1.90290   1.91625
 Alpha virt. eigenvalues --    1.93934   1.95365   1.97131   1.97480   2.00902
 Alpha virt. eigenvalues --    2.02076   2.02602   2.04032   2.04496   2.06817
 Alpha virt. eigenvalues --    2.08413   2.10525   2.13041   2.13452   2.15020
 Alpha virt. eigenvalues --    2.17457   2.18198   2.19856   2.21015   2.22554
 Alpha virt. eigenvalues --    2.24238   2.24695   2.25782   2.27642   2.30156
 Alpha virt. eigenvalues --    2.30839   2.33012   2.35252   2.37128   2.38750
 Alpha virt. eigenvalues --    2.39792   2.40307   2.41784   2.42031   2.43604
 Alpha virt. eigenvalues --    2.44085   2.45602   2.45903   2.48296   2.48790
 Alpha virt. eigenvalues --    2.51144   2.52450   2.53093   2.54923   2.55140
 Alpha virt. eigenvalues --    2.56460   2.57752   2.57995   2.61915   2.63433
 Alpha virt. eigenvalues --    2.65539   2.66822   2.67772   2.68761   2.69856
 Alpha virt. eigenvalues --    2.70720   2.70765   2.71435   2.72419   2.73388
 Alpha virt. eigenvalues --    2.73766   2.75123   2.76507   2.76619   2.78510
 Alpha virt. eigenvalues --    2.78962   2.80059   2.81923   2.82264   2.83013
 Alpha virt. eigenvalues --    2.84209   2.84520   2.84740   2.86042   2.86557
 Alpha virt. eigenvalues --    2.87092   2.88321   2.89525   2.89807   2.91499
 Alpha virt. eigenvalues --    2.91986   2.92527   2.93170   2.93976   2.94491
 Alpha virt. eigenvalues --    2.96325   2.96979   2.97697   2.97850   2.98846
 Alpha virt. eigenvalues --    2.99445   3.00192   3.01475   3.01913   3.02516
 Alpha virt. eigenvalues --    3.02797   3.04314   3.05351   3.06135   3.07165
 Alpha virt. eigenvalues --    3.07349   3.08604   3.09318   3.09996   3.10184
 Alpha virt. eigenvalues --    3.11409   3.11879   3.12804   3.13835   3.13963
 Alpha virt. eigenvalues --    3.15327   3.17231   3.17936   3.19345   3.19418
 Alpha virt. eigenvalues --    3.20534   3.21613   3.22298   3.22657   3.23799
 Alpha virt. eigenvalues --    3.25163   3.25300   3.26406   3.27509   3.28318
 Alpha virt. eigenvalues --    3.28889   3.29171   3.30388   3.30992   3.31879
 Alpha virt. eigenvalues --    3.32588   3.32714   3.33989   3.34288   3.34977
 Alpha virt. eigenvalues --    3.36531   3.37116   3.38126   3.38894   3.40133
 Alpha virt. eigenvalues --    3.41107   3.41183   3.42449   3.42939   3.43790
 Alpha virt. eigenvalues --    3.44744   3.44842   3.46257   3.46945   3.48098
 Alpha virt. eigenvalues --    3.48623   3.50376   3.51548   3.52831   3.54055
 Alpha virt. eigenvalues --    3.55656   3.56397   3.56537   3.57802   3.59972
 Alpha virt. eigenvalues --    3.60940   3.62334   3.63575   3.64705   3.65249
 Alpha virt. eigenvalues --    3.66855   3.67338   3.69285   3.69835   3.70542
 Alpha virt. eigenvalues --    3.72043   3.73086   3.73584   3.73901   3.75524
 Alpha virt. eigenvalues --    3.76135   3.78101   3.78364   3.79262   3.80149
 Alpha virt. eigenvalues --    3.81213   3.82543   3.83571   3.83878   3.84889
 Alpha virt. eigenvalues --    3.86338   3.86769   3.87888   3.88113   3.89564
 Alpha virt. eigenvalues --    3.90359   3.91830   3.92669   3.93212   3.94716
 Alpha virt. eigenvalues --    3.95327   3.96709   3.97012   3.98258   3.99999
 Alpha virt. eigenvalues --    4.00279   4.02019   4.03185   4.04684   4.05843
 Alpha virt. eigenvalues --    4.06542   4.06932   4.07640   4.08246   4.09762
 Alpha virt. eigenvalues --    4.10752   4.12944   4.13964   4.14407   4.15299
 Alpha virt. eigenvalues --    4.16251   4.16906   4.18018   4.18299   4.19998
 Alpha virt. eigenvalues --    4.21812   4.22462   4.23119   4.23588   4.24382
 Alpha virt. eigenvalues --    4.25180   4.27047   4.27955   4.28603   4.29009
 Alpha virt. eigenvalues --    4.30566   4.30792   4.32369   4.33668   4.34995
 Alpha virt. eigenvalues --    4.37509   4.38688   4.40062   4.41681   4.42805
 Alpha virt. eigenvalues --    4.43444   4.44702   4.46087   4.47944   4.50609
 Alpha virt. eigenvalues --    4.52023   4.52384   4.52885   4.55128   4.55953
 Alpha virt. eigenvalues --    4.57693   4.59055   4.59483   4.60092   4.61190
 Alpha virt. eigenvalues --    4.61396   4.62734   4.63613   4.64489   4.65454
 Alpha virt. eigenvalues --    4.67292   4.68090   4.69229   4.70242   4.71738
 Alpha virt. eigenvalues --    4.72457   4.73919   4.75085   4.76931   4.77713
 Alpha virt. eigenvalues --    4.79263   4.79654   4.80219   4.81093   4.83606
 Alpha virt. eigenvalues --    4.84381   4.86938   4.88915   4.90770   4.92134
 Alpha virt. eigenvalues --    4.92901   4.93556   4.94267   4.95101   4.96480
 Alpha virt. eigenvalues --    4.97773   4.98816   4.99603   5.00608   5.01790
 Alpha virt. eigenvalues --    5.03244   5.04918   5.07085   5.07714   5.09822
 Alpha virt. eigenvalues --    5.11643   5.11853   5.13186   5.14005   5.15090
 Alpha virt. eigenvalues --    5.16467   5.17567   5.18486   5.19906   5.20669
 Alpha virt. eigenvalues --    5.21679   5.22017   5.22993   5.24198   5.24772
 Alpha virt. eigenvalues --    5.26524   5.27127   5.28695   5.30343   5.30791
 Alpha virt. eigenvalues --    5.33100   5.33680   5.36939   5.37758   5.38952
 Alpha virt. eigenvalues --    5.41937   5.42334   5.44916   5.47012   5.49954
 Alpha virt. eigenvalues --    5.52726   5.54600   5.56900   5.57934   5.58527
 Alpha virt. eigenvalues --    5.61024   5.62278   5.63903   5.65363   5.66244
 Alpha virt. eigenvalues --    5.67946   5.68567   5.69844   5.71500   5.73033
 Alpha virt. eigenvalues --    5.73699   5.75118   5.75835   5.78511   5.79094
 Alpha virt. eigenvalues --    5.79757   5.81274   5.81907   5.83505   5.88258
 Alpha virt. eigenvalues --    5.91874   5.96097   5.96285   6.02353   6.04214
 Alpha virt. eigenvalues --    6.12256   6.19272   6.19862   6.24299   6.28654
 Alpha virt. eigenvalues --    6.51057   6.52387   6.58256   6.61315   6.64807
 Alpha virt. eigenvalues --    6.66828   6.78156   6.83704   6.90577   6.92649
 Alpha virt. eigenvalues --    6.93498   6.95339   7.18672   7.20048   7.23134
 Alpha virt. eigenvalues --    7.29059   8.13919   8.28707   8.66586   8.73598
 Alpha virt. eigenvalues --    8.77713   8.78897   8.81134   8.82457   8.83871
 Alpha virt. eigenvalues --    8.84149   8.86225   8.88558   8.89278   8.90038
 Alpha virt. eigenvalues --    8.93830   8.94532   8.95340   8.96799   9.02695
 Alpha virt. eigenvalues --    9.03349   9.07673   9.13917   9.17782   9.20428
 Alpha virt. eigenvalues --    9.22534   9.60637   9.62953   9.77248   9.83444
 Alpha virt. eigenvalues --    9.91048   9.94261  10.07185  10.11786  10.15258
 Alpha virt. eigenvalues --   10.18203  10.20279  10.21129  10.22615  10.23208
 Alpha virt. eigenvalues --   10.27148  10.29739  10.31961  10.33606  10.35900
 Alpha virt. eigenvalues --   10.37769  11.75976  11.83380  12.04319  12.14918
 Alpha virt. eigenvalues --   12.16745  12.18395  12.24724  12.26487  12.29585
 Alpha virt. eigenvalues --   12.40051  12.49178  12.57290  12.59948  12.84242
 Alpha virt. eigenvalues --   12.94304  14.97197  15.01400  15.24461  15.28530
 Alpha virt. eigenvalues --   15.99988  16.05334  16.83653  16.92496  22.01471
 Alpha virt. eigenvalues --   22.09103  40.17669  40.26515  40.65996  40.67229
 Alpha virt. eigenvalues --   40.69268  40.70820  40.72710  40.74848  40.76644
 Alpha virt. eigenvalues --   40.77558  40.79312  40.80895  40.81007  40.82130
 Alpha virt. eigenvalues --   40.82517  40.83162  40.84543  40.85187  40.86569
 Alpha virt. eigenvalues --   40.86949  40.87715  40.88534  40.90111  40.90770
 Alpha virt. eigenvalues --   40.92190  40.93497  40.96632  46.34349  46.46448
 Alpha virt. eigenvalues --   46.48693  46.50197  46.56909  46.57968  46.62437
 Alpha virt. eigenvalues --   46.73459  46.81900  54.47956  54.52076  55.79717
 Alpha virt. eigenvalues --   55.84472  55.95172  55.98340  56.05660  56.14356
 Alpha virt. eigenvalues --   56.19200  56.22486  56.27564  56.29064  56.37286
 Alpha virt. eigenvalues --   56.41005  56.44559  56.50404  56.57521  56.64751
 Alpha virt. eigenvalues --   57.46692  57.51253  57.99694  58.02793  58.19724
 Alpha virt. eigenvalues --   58.26281  64.70662  64.78927  73.94447  73.96660
 Alpha virt. eigenvalues --   74.10124  74.12332  74.64283  74.67004  86.07296
 Alpha virt. eigenvalues --   86.14021 165.43623 165.54552 165.57315 165.58923
 Alpha virt. eigenvalues --  165.64608 165.65573 165.68990 165.78689 165.86692
 Alpha virt. eigenvalues --  226.66449 226.78344 230.57904 230.65404 235.61034
 Alpha virt. eigenvalues --  235.83594 236.18199 236.32308 236.36019 236.43810
 Alpha virt. eigenvalues --  237.16757 237.24433 237.46749 237.54773 237.70143
 Alpha virt. eigenvalues --  237.72062 238.19487 238.22963 238.42590 238.47562
 Alpha virt. eigenvalues --  308.80897 308.86867 624.55135 624.61275 624.63932
 Alpha virt. eigenvalues --  624.65546 624.70635 624.72123 624.74582 624.82655
 Alpha virt. eigenvalues --  624.88859 794.56093 794.77785 826.13085 827.12014
 Alpha virt. eigenvalues --  827.17986 827.39572 827.68413 827.77925 829.85551
 Alpha virt. eigenvalues --  830.68255 831.30152 831.49245 831.67054 831.81250
 Alpha virt. eigenvalues --  833.04251 833.75900 833.95673 834.22748 868.33697
 Alpha virt. eigenvalues --  868.412621165.937041165.993572486.064212486.97017
 Alpha virt. eigenvalues -- 2588.792062589.769512593.547932594.081262596.87450
 Alpha virt. eigenvalues -- 2596.943652601.298622602.799972605.166272605.38515
 Alpha virt. eigenvalues -- 2605.640922607.119282609.712002609.887822610.76822
 Alpha virt. eigenvalues -- 2614.002862740.327572740.341682740.375092740.40034
 Alpha virt. eigenvalues -- 2740.443132740.480332740.533532740.567652740.58914
 Alpha virt. eigenvalues -- 3787.312143787.389015073.319165073.371298293.96075
 Alpha virt. eigenvalues -- 8294.828458629.367788630.698678634.992798637.75885
 Alpha virt. eigenvalues -- 8638.092278643.078438654.480338664.012148670.00154
 Alpha virt. eigenvalues -- 8670.560338671.298228673.149848682.709138688.42007
 Alpha virt. eigenvalues -- 8691.785828692.24079******************************
 Alpha virt. eigenvalues -- **************************************************
 Alpha virt. eigenvalues -- **************************************************
 Alpha virt. eigenvalues -- **************************************************
 Alpha virt. eigenvalues -- **************************************************
 Alpha virt. eigenvalues -- **************************************************
 Alpha virt. eigenvalues -- **************************************************
 Alpha virt. eigenvalues -- **************************************************
 Alpha virt. eigenvalues -- **********
          Condensed to atoms (all electrons):
               1          2          3          4          5          6
     1  C    4.556860   0.176736  -0.048498  -0.000139   0.000011  -0.000084
     2  C    0.176736   5.379054   0.374832   0.004883  -0.000355   0.000361
     3  H   -0.048498   0.374832   0.491289  -0.000209   0.000019   0.000022
     4  C   -0.000139   0.004883  -0.000209   4.975229   0.407645   0.403682
     5  H    0.000011  -0.000355   0.000019   0.407645   0.535923  -0.012481
     6  H   -0.000084   0.000361   0.000022   0.403682  -0.012481   0.551679
     7  H    0.000441  -0.002237  -0.000198   0.402146  -0.018996  -0.023888
     8  O    0.745042  -0.119007   0.003781  -0.000093   0.000000   0.000001
     9  N   -0.052661   0.286589  -0.039443  -0.002011   0.000006   0.000025
    10  H   -0.000749  -0.031122   0.003870  -0.000070   0.000090  -0.000158
    11  N    0.350190  -0.131799   0.007753   0.000641   0.000009  -0.000006
    12  H   -0.027565   0.007589  -0.000575   0.000035  -0.000002   0.000000
    13  C   -0.038218   0.010377  -0.001046  -0.000009   0.000000   0.000000
    14  H    0.000380   0.001817   0.000010  -0.000033  -0.000001   0.000000
    15  H   -0.008425  -0.000845  -0.000109   0.000003   0.000000   0.000000
    16  H    0.007684   0.000737  -0.000074   0.000000   0.000000   0.000000
    17  C   -0.000460  -0.061847   0.002348  -0.000073  -0.000003   0.000006
    18  C   -0.004014   0.018536   0.002985   0.000000   0.000000   0.000002
    19  H    0.000383  -0.000656  -0.000459  -0.000029   0.000001  -0.000001
    20  H   -0.000078  -0.000471   0.000141   0.000003   0.000000   0.000000
    21  H    0.000595  -0.000915  -0.000195  -0.000001   0.000000   0.000000
    22  O   -0.011489   0.017152   0.026384   0.000000   0.000000   0.000000
[...]
 Alpha virt. eigenvalues --    4.53042   4.54868   4.55548   4.58752   4.60250
 Alpha virt. eigenvalues --    4.61228   4.63626   4.65199   4.66442   4.68280
 Alpha virt. eigenvalues --    4.69517   4.70065   4.70231   4.71333   4.72873
 Alpha virt. eigenvalues --    4.74763   4.75185   4.76792   4.78086   4.78899
 Alpha virt. eigenvalues --    4.79530   4.80558   4.81493   4.82941   4.83692
 Alpha virt. eigenvalues --    4.84095   4.85289   4.87354   4.89509   4.90998
 Alpha virt. eigenvalues --    4.91442   4.94622   4.95087   4.95639   4.96750
 Alpha virt. eigenvalues --    4.97161   4.98809   4.99012   5.00285   5.01191
 Alpha virt. eigenvalues --    5.02440   5.02959   5.04375   5.04655   5.06023
 Alpha virt. eigenvalues --    5.08356   5.09769   5.10886   5.11658   5.12940
 Alpha virt. eigenvalues --    5.14079   5.14712   5.15706   5.16539   5.17758
 Alpha virt. eigenvalues --    5.19516   5.20057   5.20675   5.22177   5.23169
 Alpha virt. eigenvalues --    5.24442   5.24850   5.26044   5.27215   5.28286
 Alpha virt. eigenvalues --    5.29012   5.29983   5.31726   5.31970   5.35185
 Alpha virt. eigenvalues --    5.36018   5.37352   5.37890   5.38579   5.41187
 Alpha virt. eigenvalues --    5.44495   5.46903   5.47977   5.51225   5.54389
 Alpha virt. eigenvalues --    5.58433   5.60646   5.61521   5.63435   5.68270
 Alpha virt. eigenvalues --    5.73132   5.75288   5.77809   5.78628   5.79662
 Alpha virt. eigenvalues --    5.79877   5.81893   5.84315   5.84930   5.87631
 Alpha virt. eigenvalues --    5.88145   5.89137   5.91541   5.95295   5.97339
 Alpha virt. eigenvalues --    5.99929   6.00914   6.04419   6.05267   6.09519
 Alpha virt. eigenvalues --    6.22645   6.26721   6.35611   6.39236   6.49364
 Alpha virt. eigenvalues --    6.51380   6.54371   6.56206   6.68177   6.70501
 Alpha virt. eigenvalues --    6.88012   6.89928   6.92660   6.96890   7.10066
 Alpha virt. eigenvalues --    7.13605   7.16044   7.18360   9.56376  10.03423
 Alpha virt. eigenvalues --   11.49948  12.12516  12.45184  12.46778  12.91965
 Alpha virt. eigenvalues --   13.39175  13.55920  13.63120  13.71838  13.75934
 Alpha virt. eigenvalues --   14.01472
          Condensed to atoms (all electrons):
               1          2          3          4          5          6
     1  C    4.705746   0.155376  -0.055578   0.000216   0.000022  -0.000087
     2  C    0.155376   5.511173   0.418155   0.004840  -0.000398   0.000773
     3  H   -0.055578   0.418155   0.455516  -0.000268   0.000015   0.000013
     4  C    0.000216   0.004840  -0.000268   5.123516   0.408620   0.403704
     5  H    0.000022  -0.000398   0.000015   0.408620   0.529559  -0.018165
     6  H   -0.000087   0.000773   0.000013   0.403704  -0.018165   0.543580
     7  H    0.000304  -0.001392  -0.000136   0.399300  -0.025446  -0.030076
     8  O    0.738507  -0.110413   0.001297  -0.000097   0.000000   0.000001
     9  N   -0.053511   0.219076  -0.040955  -0.001984   0.000004   0.000021
    10  H   -0.000478  -0.027364   0.002013   0.000307   0.000081  -0.000189
    11  N    0.350902  -0.101584   0.002806   0.000534   0.000009  -0.000005
    12  H   -0.022007   0.001021  -0.001072   0.000007  -0.000001   0.000002
    13  C   -0.058737   0.010527  -0.000811  -0.000008   0.000000   0.000000
    14  H    0.000601   0.001643   0.000021  -0.000031  -0.000001   0.000000
    15  H   -0.008503  -0.000909  -0.000108   0.000003   0.000000   0.000000
    16  H    0.008107   0.000759  -0.000052   0.000000   0.000000   0.000000
    17  C    0.000385  -0.074596  -0.000055  -0.000058  -0.000004   0.000005
    18  C   -0.002955   0.015136   0.002721  -0.000005   0.000000   0.000002
    19  H    0.000196   0.000146  -0.000432  -0.000026   0.000001  -0.000001
    20  H   -0.000097  -0.000470   0.000128   0.000003   0.000000   0.000000
    21  H    0.000558  -0.000869  -0.000175  -0.000001   0.000000   0.000000
    22  O   -0.008244   0.015335   0.025580   0.000000   0.000000   0.000000
    23  C   -0.007425  -0.006610   0.003093   0.256982  -0.036133  -0.033336
    24  H   -0.000505   0.003588  -0.000161  -0.025279  -0.006302  -0.006965
    25  C    0.000621  -0.013600   0.000455  -0.067021  -0.006710   0.007743
    26  H   -0.008921   0.003060   0.000521  -0.005233  -0.000360  -0.000092
    27  H    0.012850  -0.000124  -0.000168   0.007283  -0.000035  -0.000312
    28  H    0.000400  -0.001807   0.000074  -0.009284   0.004665   0.000090
    29  C   -0.022723   0.183046  -0.021994  -0.064072   0.009972  -0.004488
    30  H    0.007329  -0.035846  -0.007981  -0.005870   0.000739   0.000885
    31  H    0.004550  -0.047121  -0.009611   0.002202  -0.000473   0.000481
               7          8          9         10         11         12
     1  C    0.000304   0.738507  -0.053511  -0.000478   0.350902  -0.022007
     2  C   -0.001392  -0.110413   0.219076  -0.027364  -0.101584   0.001021
     3  H   -0.000136   0.001297  -0.040955   0.002013   0.002806  -0.001072
     4  C    0.399300  -0.000097  -0.001984   0.000307   0.000534   0.000007
     5  H   -0.025446   0.000000   0.000004   0.000081   0.000009  -0.000001
     6  H   -0.030076   0.000001   0.000021  -0.000189  -0.000005   0.000002
     7  H    0.551554  -0.000020  -0.000176   0.003354  -0.000019  -0.000004
     8  O   -0.000020   7.828560   0.005747  -0.001328  -0.122800   0.005026
     9  N   -0.000176   0.005747   6.570397   0.380174   0.005329   0.000432
    10  H    0.003354  -0.001328   0.380174   0.491585  -0.000227  -0.000008
    11  N   -0.000019  -0.122800   0.005329  -0.000227   6.467443   0.380244
    12  H   -0.000004   0.005026   0.000432  -0.000008   0.380244   0.523902
    13  C    0.000002   0.006335  -0.000368   0.000027   0.294210  -0.032299
    14  H    0.000000   0.004025   0.000031  -0.000006  -0.057745   0.003676
    15  H    0.000000   0.005060  -0.000059   0.000005  -0.041794   0.002178
    16  H    0.000000   0.001555   0.000004   0.000000  -0.027666  -0.008101
    17  C    0.000064   0.016253   0.348133  -0.020021   0.000560  -0.000148
    18  C    0.000004  -0.000301  -0.061554  -0.001446  -0.000008   0.000001
    19  H    0.000011   0.000042   0.012787  -0.001417   0.000005   0.000000
    20  H   -0.000013   0.000040  -0.000187  -0.000307   0.000002   0.000000
    21  H    0.000003   0.000330  -0.001405   0.000397   0.000000  -0.000001
    22  O    0.000003  -0.003283  -0.137440   0.004553  -0.000720  -0.000027
    23  C   -0.043582  -0.002587  -0.001502  -0.001166   0.007473  -0.000971
    24  H    0.008097  -0.000091  -0.000500   0.000303   0.001420   0.000251
    25  C   -0.004742   0.002464  -0.004134   0.001698  -0.006136   0.000309
    26  H    0.000994   0.002879   0.004991   0.001169   0.001414  -0.000037
    27  H    0.000017  -0.003143  -0.001078   0.000010  -0.005544   0.000354
    28  H   -0.000832   0.000481   0.000534   0.000060   0.000072  -0.000025
    29  C   -0.004144   0.005237  -0.050004  -0.000553   0.000821   0.006252
    30  H    0.000428  -0.000329   0.001247   0.001274   0.000064   0.000014
    31  H    0.000245  -0.000125   0.005611   0.000339  -0.008862   0.002924
              13         14         15         16         17         18
     1  C   -0.058737   0.000601  -0.008503   0.008107   0.000385  -0.002955
     2  C    0.010527   0.001643  -0.000909   0.000759  -0.074596   0.015136
     3  H   -0.000811   0.000021  -0.000108  -0.000052  -0.000055   0.002721
     4  C   -0.000008  -0.000031   0.000003   0.000000  -0.000058  -0.000005
     5  H    0.000000  -0.000001   0.000000   0.000000  -0.000004   0.000000
     6  H    0.000000   0.000000   0.000000   0.000000   0.000005   0.000002
     7  H    0.000002   0.000000   0.000000   0.000000   0.000064   0.000004
     8  O    0.006335   0.004025   0.005060   0.001555   0.016253  -0.000301
     9  N   -0.000368   0.000031  -0.000059   0.000004   0.348133  -0.061554
    10  H    0.000027  -0.000006   0.000005   0.000000  -0.020021  -0.001446
    11  N    0.294210  -0.057745  -0.041794  -0.027666   0.000560  -0.000008
    12  H   -0.032299   0.003676   0.002178  -0.008101  -0.000148   0.000001
    13  C    4.774758   0.392009   0.404103   0.393007  -0.000136  -0.000004
    14  H    0.392009   0.625428  -0.057345  -0.026835   0.000000   0.000000
    15  H    0.404103  -0.057345   0.600964  -0.027125   0.000007   0.000000
    16  H    0.393007  -0.026835  -0.027125   0.599664  -0.000003   0.000000
    17  C   -0.000136   0.000000   0.000007  -0.000003   4.527218   0.277158
    18  C   -0.000004   0.000000   0.000000   0.000000   0.277158   4.997723
    19  H    0.000000   0.000000   0.000000   0.000000  -0.053657   0.390812
    20  H    0.000000   0.000000   0.000000   0.000000  -0.024752   0.384410
    21  H    0.000001   0.000000   0.000000   0.000000  -0.025549   0.389741
    22  O   -0.000060   0.000004   0.000003  -0.000001   0.714648  -0.069474
    23  C    0.000382  -0.000727   0.000128   0.000034  -0.000659  -0.000103
    24  H    0.000085  -0.000107   0.000016   0.000011   0.000005  -0.000001
    25  C   -0.001118   0.000820  -0.000093  -0.000051   0.000730  -0.000050
    26  H   -0.000111  -0.000058  -0.000009  -0.000002   0.000665   0.000160
    27  H    0.000220   0.000972   0.000162  -0.000058   0.000001   0.000013
    28  H   -0.000038   0.000049  -0.000005  -0.000005   0.000014   0.000002
    29  C   -0.001414  -0.000203   0.000060  -0.000176   0.008016   0.000291
    30  H    0.000061  -0.000010   0.000009   0.000002  -0.000345  -0.000127
    31  H    0.000265   0.000114  -0.000057   0.000058  -0.000169   0.000030
              19         20         21         22         23         24
     1  C    0.000196  -0.000097   0.000558  -0.008244  -0.007425  -0.000505
     2  C    0.000146  -0.000470  -0.000869   0.015335  -0.006610   0.003588
     3  H   -0.000432   0.000128  -0.000175   0.025580   0.003093  -0.000161
     4  C   -0.000026   0.000003  -0.000001   0.000000   0.256982  -0.025279
     5  H    0.000001   0.000000   0.000000   0.000000  -0.036133  -0.006302
     6  H   -0.000001   0.000000   0.000000   0.000000  -0.033336  -0.006965
     7  H    0.000011  -0.000013   0.000003   0.000003  -0.043582   0.008097
     8  O    0.000042   0.000040   0.000330  -0.003283  -0.002587  -0.000091
     9  N    0.012787  -0.000187  -0.001405  -0.137440  -0.001502  -0.000500
    10  H   -0.001417  -0.000307   0.000397   0.004553  -0.001166   0.000303
    11  N    0.000005   0.000002   0.000000  -0.000720   0.007473   0.001420
    12  H    0.000000   0.000000  -0.000001  -0.000027  -0.000971   0.000251
    13  C    0.000000   0.000000   0.000001  -0.000060   0.000382   0.000085
    14  H    0.000000   0.000000   0.000000   0.000004  -0.000727  -0.000107
    15  H    0.000000   0.000000   0.000000   0.000003   0.000128   0.000016
    16  H    0.000000   0.000000   0.000000  -0.000001   0.000034   0.000011
    17  C   -0.053657  -0.024752  -0.025549   0.714648  -0.000659   0.000005
    18  C    0.390812   0.384410   0.389741  -0.069474  -0.000103  -0.000001
    19  H    0.607815  -0.027477  -0.024723   0.004803   0.000117  -0.000001
    20  H   -0.027477   0.576698  -0.025204   0.002712   0.000005   0.000000
    21  H   -0.024723  -0.025204   0.563813   0.000688  -0.000002   0.000000
    22  O    0.004803   0.002712   0.000688   7.856059  -0.000099   0.000001
    23  C    0.000117   0.000005  -0.000002  -0.000099   5.313451   0.424078
    24  H   -0.000001   0.000000   0.000000   0.000001   0.424078   0.544101
    25  C   -0.000021  -0.000006   0.000012   0.000015   0.254877  -0.044134
    26  H    0.000026   0.000049  -0.000095  -0.000093  -0.033800   0.007442
    27  H   -0.000004  -0.000001   0.000003   0.000015  -0.032020  -0.006288
    28  H   -0.000002   0.000000  -0.000001   0.000000  -0.031329  -0.007461
    29  C   -0.000314   0.000004   0.000008   0.001993   0.198635  -0.047979
    30  H    0.000003  -0.000040   0.000020  -0.000191  -0.055518   0.003584
    31  H   -0.000003  -0.000006   0.000001   0.000059  -0.053968  -0.011615
              25         26         27         28         29         30
     1  C    0.000621  -0.008921   0.012850   0.000400  -0.022723   0.007329
     2  C   -0.013600   0.003060  -0.000124  -0.001807   0.183046  -0.035846
     3  H    0.000455   0.000521  -0.000168   0.000074  -0.021994  -0.007981
     4  C   -0.067021  -0.005233   0.007283  -0.009284  -0.064072  -0.005870
     5  H   -0.006710  -0.000360  -0.000035   0.004665   0.009972   0.000739
     6  H    0.007743  -0.000092  -0.000312   0.000090  -0.004488   0.000885
     7  H   -0.004742   0.000994   0.000017  -0.000832  -0.004144   0.000428
     8  O    0.002464   0.002879  -0.003143   0.000481   0.005237  -0.000329
     9  N   -0.004134   0.004991  -0.001078   0.000534  -0.050004   0.001247
    10  H    0.001698   0.001169   0.000010   0.000060  -0.000553   0.001274
    11  N   -0.006136   0.001414  -0.005544   0.000072   0.000821   0.000064
    12  H    0.000309  -0.000037   0.000354  -0.000025   0.006252   0.000014
    13  C   -0.001118  -0.000111   0.000220  -0.000038  -0.001414   0.000061
    14  H    0.000820  -0.000058   0.000972   0.000049  -0.000203  -0.000010
    15  H   -0.000093  -0.000009   0.000162  -0.000005   0.000060   0.000009
    16  H   -0.000051  -0.000002  -0.000058  -0.000005  -0.000176   0.000002
    17  C    0.000730   0.000665   0.000001   0.000014   0.008016  -0.000345
    18  C   -0.000050   0.000160   0.000013   0.000002   0.000291  -0.000127
    19  H   -0.000021   0.000026  -0.000004  -0.000002  -0.000314   0.000003
    20  H   -0.000006   0.000049  -0.000001   0.000000   0.000004  -0.000040
    21  H    0.000012  -0.000095   0.000003  -0.000001   0.000008   0.000020
    22  O    0.000015  -0.000093   0.000015   0.000000   0.001993  -0.000191
    23  C    0.254877  -0.033800  -0.032020  -0.031329   0.198635  -0.055518
    24  H   -0.044134   0.007442  -0.006288  -0.007461  -0.047979   0.003584
    25  C    5.199522   0.388901   0.402545   0.399022  -0.043463   0.003495
    26  H    0.388901   0.525987  -0.021814  -0.022093  -0.007659  -0.000332
    27  H    0.402545  -0.021814   0.488266  -0.018130  -0.004993  -0.000083
    28  H    0.399022  -0.022093  -0.018130   0.528179   0.009660  -0.000407
    29  C   -0.043463  -0.007659  -0.004993   0.009660   5.476384   0.415167
    30  H    0.003495  -0.000332  -0.000083  -0.000407   0.415167   0.459632
    31  H    0.006110  -0.000933   0.000898  -0.000411   0.424162  -0.001411
              31
     1  C    0.004550
     2  C   -0.047121
     3  H   -0.009611
     4  C    0.002202
     5  H   -0.000473
     6  H    0.000481
     7  H    0.000245
     8  O   -0.000125
     9  N    0.005611
    10  H    0.000339
    11  N   -0.008862
    12  H    0.002924
    13  C    0.000265
    14  H    0.000114
    15  H   -0.000057
    16  H    0.000058
    17  C   -0.000169
    18  C    0.000030
    19  H   -0.000003
    20  H   -0.000006
    21  H    0.000001
    22  O    0.000059
    23  C   -0.053968
    24  H   -0.011615
    25  C    0.006110
    26  H   -0.000933
    27  H    0.000898
    28  H   -0.000411
    29  C    0.424162
    30  H   -0.001411
    31  H    0.495435
 Mulliken charges:
               1
     1  C    0.263099
     2  C   -0.120552
     3  H    0.227150
     4  C   -0.428278
     5  H    0.140341
     6  H    0.136417
     7  H    0.146203
     8  O   -0.379319
     9  N   -0.199661
    10  H    0.167163
    11  N   -0.140197
    12  H    0.138103
    13  C   -0.180887
    14  H    0.113678
    15  H    0.123308
    16  H    0.086871
    17  C    0.306290
    18  C   -0.322176
    19  H    0.091316
    20  H    0.114509
    21  H    0.122452
    22  O   -0.406840
    23  C   -0.117718
    24  H    0.164407
    25  C   -0.478062
    26  H    0.163382
    27  H    0.180187
    28  H    0.148527
    29  C   -0.465530
    30  H    0.214537
    31  H    0.191283
 Sum of Mulliken charges =   0.00000
 Mulliken charges with hydrogens summed into heavy atoms:
               1
     1  C    0.263099
     2  C    0.106597
     4  C   -0.005317
     8  O   -0.379319
     9  N   -0.032498
    11  N   -0.002094
    13  C    0.142970
    17  C    0.306290
    18  C    0.006100
    22  O   -0.406840
    23  C    0.046689
    25  C    0.014033
    29  C   -0.059710
 Electronic spatial extent (au):  <R**2>=           2849.8449
 Charge=              0.0000 electrons
 Dipole moment (field-independent basis, Debye):
    X=             -4.2349    Y=             -3.2095    Z=             -1.2216  Tot=              5.4523
 Quadrupole moment (field-independent basis, Debye-Ang):
   XX=            -78.7701   YY=            -78.7147   ZZ=            -81.1613
   XY=            -12.4304   XZ=              6.4472   YZ=             -3.3662
 Traceless Quadrupole moment (field-independent basis, Debye-Ang):
   XX=              0.7786   YY=              0.8340   ZZ=             -1.6126
   XY=            -12.4304   XZ=              6.4472   YZ=             -3.3662
 Octapole moment (field-independent basis, Debye-Ang**2):
  XXX=             -6.2531  YYY=             22.3646  ZZZ=             -6.8124  XYY=            -18.1455
  XXY=             -8.5829  XXZ=             13.1328  XZZ=             -4.0708  YZZ=              0.1413
  YYZ=             -2.2349  XYZ=              6.1233
 Hexadecapole moment (field-independent basis, Debye-Ang**3):
 XXXX=          -1824.6261 YYYY=          -1490.7566 ZZZZ=           -396.4352 XXXY=            -88.1899
 XXXZ=             51.1083 YYYX=            -51.7542 YYYZ=             -5.3904 ZZZX=              7.0608
 ZZZY=             -5.6182 XXYY=           -547.9400 XXZZ=           -365.0343 YYZZ=           -326.0792
 XXYZ=              7.5888 YYXZ=              5.3226 ZZXY=             -9.0100
 N-N= 8.783217001819D+02 E-N=-3.186271613690D+03  KE= 6.091178929429D+02
 Calculating spin-rotation constants.
 Leave Link  601 at Wed Jun 18 10:25:56 2014, MaxMem=  4294967296 cpu:        70.3
 (Enter /home/ztw1e12/g09/l9999.exe)

 Test job not archived.
 1\1\GINC-GREEN0705\SP\RM06\Gen\C9H18N2O2\ROOT\18-Jun-2014\0\\#P Geom=A
 llCheck Guess=TCheck SCRF=Check GenChk RM06/ChkBas NMR=ReadFC IOp(3/6=
 22)\\NMR spin-spin scan\\0,1\C,0,0.316256,1.252697,0.243206\C,0,0.1949
 02,0.10447,-0.7563\H,0,0.721159,0.455603,-1.64993\C,0,-2.897299,-1.948
 992,-0.437795\H,0,-3.730862,-2.176657,0.229858\H,0,-3.258726,-2.016388
 ,-1.465643\H,0,-2.137447,-2.725946,-0.30175\O,0,0.967259,1.163917,1.27
 9298\N,0,0.896868,-1.070573,-0.297737\H,0,0.366071,-1.820256,0.117917\
 N,0,-0.302794,2.382719,-0.116748\H,0,-0.844874,2.400204,-0.965072\C,0,
 -0.304346,3.544934,0.741442\H,0,-0.751719,3.314842,1.710292\H,0,0.7084
 71,3.910252,0.912836\H,0,-0.883337,4.331979,0.268044\C,0,2.234971,-1.1
 83752,-0.353745\C,0,2.814095,-2.451509,0.183261\H,0,2.061227,-3.170825
 ,0.498368\H,0,3.447553,-2.900221,-0.58117\H,0,3.451676,-2.208693,1.033
 61\O,0,2.950088,-0.302243,-0.827817\C,0,-2.310073,-0.580114,-0.139523\
 H,0,-3.112561,0.153171,-0.268676\C,0,-1.902519,-0.508559,1.323225\H,0,
 -1.100652,-1.208426,1.57187\H,0,-1.589766,0.489955,1.63177\H,0,-2.7591
 04,-0.777363,1.944801\C,0,-1.226847,-0.236873,-1.192842\H,0,-1.127078,
 -1.075347,-1.887268\H,0,-1.584965,0.591289,-1.807444\\Version=EM64L-G0
 9RevD.01\State=1-A\HF=-613.5725214\RMSD=9.997e-09\Dipole=-2.0707726,-0
 .2574609,-0.4970466\Quadrupole=-6.9656646,9.4142446,-2.44858,-5.679964
 7,2.2568359,-2.6075065\PG=C01 [X(C9H18N2O2)]\\@


 Some scientists claim that hydrogen, because it is so
 plentiful, is the basic building block of the universe. 
 I dispute that. I say that stupidity is far more
 abundant than hydrogen, and THAT is the basic building 
 block of the universe.
                   --Frank Zappa
 Job cpu time:       2 days 14 hours 38 minutes 14.1 seconds.
 File lengths (MBytes):  RWF=   2456 Int=      0 D2E=      0 Chk=     48 Scr=      8
 Normal termination of Gaussian 09 at Wed Jun 18 10:25:56 2014.
