 Entering Gaussian System, Link 0=g09
 Input=scan_input_31.gjf
 Output=scan_input_31.log
 Initial command:
 /home/ztw1e12/g09/l1.exe "/home/ztw1e12/leucine_scan/leucine_chi2_scan/Gau-30760.inp" -scrdir="/home/ztw1e12/leucine_scan/leucine_chi2_scan/"
 Default is to use a total of   8 processors:
                                8 via shared-memory
                                1 via Linda
 Entering Link 1 = /home/ztw1e12/g09/l1.exe PID=     30761.
  
 Copyright (c) 1988,1990,1992,1993,1995,1998,2003,2009,2013,
            Gaussian, Inc.  All Rights Reserved.
  
 This is part of the Gaussian(R) 09 program.  It is based on
 the Gaussian(R) 03 system (copyright 2003, Gaussian, Inc.),
 the Gaussian(R) 98 system (copyright 1998, Gaussian, Inc.),
 the Gaussian(R) 94 system (copyright 1995, Gaussian, Inc.),
 the Gaussian 92(TM) system (copyright 1992, Gaussian, Inc.),
 the Gaussian 90(TM) system (copyright 1990, Gaussian, Inc.),
 the Gaussian 88(TM) system (copyright 1988, Gaussian, Inc.),
 the Gaussian 86(TM) system (copyright 1986, Carnegie Mellon
 University), and the Gaussian 82(TM) system (copyright 1983,
 Carnegie Mellon University). Gaussian is a federally registered
 trademark of Gaussian, Inc.
  
 This software contains proprietary and confidential information,
 including trade secrets, belonging to Gaussian, Inc.
  
 This software is provided under written license and may be
 used, copied, transmitted, or stored only in accord with that
 written license.
  
 The following legend is applicable only to US Government
 contracts under FAR:
  
                    RESTRICTED RIGHTS LEGEND
  
 Use, reproduction and disclosure by the US Government is
 subject to restrictions as set forth in subparagraphs (a)
 and (c) of the Commercial Computer Software - Restricted
 Rights clause in FAR 52.227-19.
  
 Gaussian, Inc.
 340 Quinnipiac St., Bldg. 40, Wallingford CT 06492
  
  
 ---------------------------------------------------------------
 Warning -- This program may not be used in any manner that
 competes with the business of Gaussian, Inc. or will provide
 assistance to any competitor of Gaussian, Inc.  The licensee
 of this program is prohibited from giving any competitor of
 Gaussian, Inc. access to this program.  By using this program,
 the user acknowledges that Gaussian, Inc. is engaged in the
 business of creating and licensing software in the field of
 computational chemistry and represents and warrants to the
 licensee that it is not a competitor of Gaussian, Inc. and that
 it will not use this program in any manner prohibited above.
 ---------------------------------------------------------------
  

 Cite this work as:
 Gaussian 09, Revision D.01,
 M. J. Frisch, G. W. Trucks, H. B. Schlegel, G. E. Scuseria, 
 M. A. Robb, J. R. Cheeseman, G. Scalmani, V. Barone, B. Mennucci, 
 G. A. Petersson, H. Nakatsuji, M. Caricato, X. Li, H. P. Hratchian, 
 A. F. Izmaylov, J. Bloino, G. Zheng, J. L. Sonnenberg, M. Hada, 
 M. Ehara, K. Toyota, R. Fukuda, J. Hasegawa, M. Ishida, T. Nakajima, 
 Y. Honda, O. Kitao, H. Nakai, T. Vreven, J. A. Montgomery, Jr., 
 J. E. Peralta, F. Ogliaro, M. Bearpark, J. J. Heyd, E. Brothers, 
 K. N. Kudin, V. N. Staroverov, T. Keith, R. Kobayashi, J. Normand, 
 K. Raghavachari, A. Rendell, J. C. Burant, S. S. Iyengar, J. Tomasi, 
 M. Cossi, N. Rega, J. M. Millam, M. Klene, J. E. Knox, J. B. Cross, 
 V. Bakken, C. Adamo, J. Jaramillo, R. Gomperts, R. E. Stratmann, 
 O. Yazyev, A. J. Austin, R. Cammi, C. Pomelli, J. W. Ochterski, 
 R. L. Martin, K. Morokuma, V. G. Zakrzewski, G. A. Voth, 
 P. Salvador, J. J. Dannenberg, S. Dapprich, A. D. Daniels, 
 O. Farkas, J. B. Foresman, J. V. Ortiz, J. Cioslowski, 
 and D. J. Fox, Gaussian, Inc., Wallingford CT, 2013.
 
 ******************************************
 Gaussian 09:  EM64L-G09RevD.01 24-Apr-2013
                18-Jun-2014 
 ******************************************
 %Mem=32GB
 %NProcShared=16
 Will use up to   16 processors via shared memory.
 Default route:  MaxDisk=100GB
 ----------------------------------------------------------------------
 #p nmr=(giao,mixed,spinspin) m06/cc-pvtz scf=tight integral=(grid=ultr
 afine)
 ----------------------------------------------------------------------
 1/38=1/1;
 2/12=2,17=6,18=5,40=1/2;
 3/5=16,6=1,10=1100000,11=2,16=1,25=1,30=1,74=-54,75=-5/1,2,8,3;
 4//1;
 5/5=2,32=2,38=5/2;
 8/6=1,10=90,11=11/1;
 10/13=100,45=16,47=3/2;
 6/7=2,8=2,9=2,10=2,28=1/1;
 99/9=1/99;
 Leave Link    1 at Wed Jun 18 15:10:09 2014, MaxMem=  4294967296 cpu:         6.0
 (Enter /home/ztw1e12/g09/l101.exe)
 ------------------
 NMR spin-spin scan
 ------------------
 Symbolic Z-matrix:
 Charge =  0 Multiplicity = 1
 C                     0.60901   0.76249   0.62591 
 C                     0.13724   0.26042  -0.73388 
 H                     0.53188   0.94143  -1.49326 
 C                    -2.93379   0.24888   1.1769 
 H                    -3.43635  -0.37041   1.92275 
 H                    -2.31642   0.97924   1.7073 
 H                    -3.70145   0.79935   0.62509 
 O                     0.83719   0.0115    1.57043 
 N                     0.629    -1.06833  -1.00458 
 H                    -0.02602  -1.83434  -1.03612 
 N                     0.71624   2.09198   0.72197 
 H                     0.46863   2.65569  -0.07596 
 C                     0.99648   2.73928   1.98329 
 H                     0.22702   2.51337   2.72363 
 H                     1.95781   2.41617   2.38218 
 H                     1.02942   3.81335   1.82899 
 C                     1.94307  -1.32735  -1.10762 
 C                     2.32621  -2.75189  -1.3376 
 H                     1.47086  -3.40843  -1.48195 
 H                     2.97698  -2.80649  -2.20935 
 H                     2.90156  -3.10071  -0.47966 
 O                     2.78632  -0.43528  -1.02068 
 C                    -2.10378  -0.59435   0.22662 
 H                    -1.35375  -1.12867   0.81876 
 C                    -2.98052  -1.62684  -0.45882 
 H                    -3.74701  -1.13452  -1.06493 
 H                    -2.40018  -2.27423  -1.12088 
 H                    -3.48995  -2.25968   0.27089 
 C                    -1.38456   0.29255  -0.80439 
 H                    -1.66669  -0.00435  -1.81865 
 H                    -1.6988    1.33345  -0.69606 
 
 NAtoms=     31 NQM=       31 NQMF=       0 NMMI=      0 NMMIF=      0
                NMic=       0 NMicF=      0.
                    Isotopes and Nuclear Properties:
 (Nuclear quadrupole moments (NQMom) in fm**2, nuclear magnetic moments (NMagM)
  in nuclear magnetons)

  Atom         1           2           3           4           5           6           7           8           9          10
 IAtWgt=          12          12           1          12           1           1           1          16          14           1
 AtmWgt=  12.0000000  12.0000000   1.0078250  12.0000000   1.0078250   1.0078250   1.0078250  15.9949146  14.0030740   1.0078250
 NucSpn=           0           0           1           0           1           1           1           0           2           1
 AtZEff=   0.0000000   0.0000000   0.0000000   0.0000000   0.0000000   0.0000000   0.0000000   0.0000000   0.0000000   0.0000000
 NQMom=    0.0000000   0.0000000   0.0000000   0.0000000   0.0000000   0.0000000   0.0000000   0.0000000   2.0440000   0.0000000
 NMagM=    0.0000000   0.0000000   2.7928460   0.0000000   2.7928460   2.7928460   2.7928460   0.0000000   0.4037610   2.7928460
 AtZNuc=   6.0000000   6.0000000   1.0000000   6.0000000   1.0000000   1.0000000   1.0000000   8.0000000   7.0000000   1.0000000

  Atom        11          12          13          14          15          16          17          18          19          20
 IAtWgt=          14           1          12           1           1           1          12          12           1           1
 AtmWgt=  14.0030740   1.0078250  12.0000000   1.0078250   1.0078250   1.0078250  12.0000000  12.0000000   1.0078250   1.0078250
 NucSpn=           2           1           0           1           1           1           0           0           1           1
 AtZEff=   0.0000000   0.0000000   0.0000000   0.0000000   0.0000000   0.0000000   0.0000000   0.0000000   0.0000000   0.0000000
 NQMom=    2.0440000   0.0000000   0.0000000   0.0000000   0.0000000   0.0000000   0.0000000   0.0000000   0.0000000   0.0000000
 NMagM=    0.4037610   2.7928460   0.0000000   2.7928460   2.7928460   2.7928460   0.0000000   0.0000000   2.7928460   2.7928460
 AtZNuc=   7.0000000   1.0000000   6.0000000   1.0000000   1.0000000   1.0000000   6.0000000   6.0000000   1.0000000   1.0000000

  Atom        21          22          23          24          25          26          27          28          29          30
 IAtWgt=           1          16          12           1          12           1           1           1          12           1
 AtmWgt=   1.0078250  15.9949146  12.0000000   1.0078250  12.0000000   1.0078250   1.0078250   1.0078250  12.0000000   1.0078250
 NucSpn=           1           0           0           1           0           1           1           1           0           1
 AtZEff=   0.0000000   0.0000000   0.0000000   0.0000000   0.0000000   0.0000000   0.0000000   0.0000000   0.0000000   0.0000000
 NQMom=    0.0000000   0.0000000   0.0000000   0.0000000   0.0000000   0.0000000   0.0000000   0.0000000   0.0000000   0.0000000
 NMagM=    2.7928460   0.0000000   0.0000000   2.7928460   0.0000000   2.7928460   2.7928460   2.7928460   0.0000000   2.7928460
 AtZNuc=   1.0000000   8.0000000   6.0000000   1.0000000   6.0000000   1.0000000   1.0000000   1.0000000   6.0000000   1.0000000

  Atom        31
 IAtWgt=           1
 AtmWgt=   1.0078250
 NucSpn=           1
 AtZEff=   0.0000000
 NQMom=    0.0000000
 NMagM=    2.7928460
 AtZNuc=   1.0000000
 Leave Link  101 at Wed Jun 18 15:10:09 2014, MaxMem=  4294967296 cpu:         2.0
 (Enter /home/ztw1e12/g09/l202.exe)
                          Input orientation:                          
 ---------------------------------------------------------------------
 Center     Atomic      Atomic             Coordinates (Angstroms)
 Number     Number       Type             X           Y           Z
 ---------------------------------------------------------------------
      1          6           0        0.609005    0.762488    0.625907
      2          6           0        0.137244    0.260419   -0.733877
      3          1           0        0.531875    0.941433   -1.493262
      4          6           0       -2.933789    0.248878    1.176901
      5          1           0       -3.436352   -0.370409    1.922754
      6          1           0       -2.316423    0.979241    1.707295
      7          1           0       -3.701451    0.799348    0.625091
      8          8           0        0.837188    0.011496    1.570428
      9          7           0        0.628995   -1.068328   -1.004578
     10          1           0       -0.026020   -1.834338   -1.036124
     11          7           0        0.716241    2.091977    0.721967
     12          1           0        0.468633    2.655691   -0.075957
     13          6           0        0.996477    2.739279    1.983286
     14          1           0        0.227022    2.513373    2.723630
     15          1           0        1.957811    2.416170    2.382183
     16          1           0        1.029422    3.813349    1.828993
     17          6           0        1.943067   -1.327352   -1.107619
     18          6           0        2.326205   -2.751891   -1.337598
     19          1           0        1.470857   -3.408427   -1.481948
     20          1           0        2.976979   -2.806491   -2.209348
     21          1           0        2.901556   -3.100706   -0.479659
     22          8           0        2.786323   -0.435275   -1.020678
     23          6           0       -2.103781   -0.594348    0.226623
     24          1           0       -1.353750   -1.128670    0.818761
     25          6           0       -2.980518   -1.626840   -0.458820
     26          1           0       -3.747010   -1.134516   -1.064932
     27          1           0       -2.400182   -2.274229   -1.120880
     28          1           0       -3.489952   -2.259680    0.270894
     29          6           0       -1.384564    0.292547   -0.804394
     30          1           0       -1.666688   -0.004345   -1.818645
     31          1           0       -1.698796    1.333451   -0.696056
 ---------------------------------------------------------------------
                    Distance matrix (angstroms):
                    1          2          3          4          5
     1  C    0.000000
     2  C    1.524350   0.000000
     3  H    2.128109   1.093700   0.000000
     4  C    3.621985   3.616967   4.429473   0.000000
     5  H    4.396610   4.497357   5.397863   1.091963   0.000000
     6  H    3.126421   3.535040   4.284600   1.093567   1.766980
     7  H    4.310614   4.107654   4.735890   1.093991   1.767071
     8  O    1.228078   2.421096   3.216239   3.798879   4.305012
     9  N    2.451687   1.442452   2.070600   4.380332   5.058005
    10  H    3.147874   2.122738   2.867948   4.206232   4.746410
    11  N    1.337261   2.410254   2.502995   4.114207   4.974863
    12  H    2.023990   2.505994   2.225182   4.351882   5.329262
    13  C    2.429056   3.777036   3.941382   4.722218   5.415145
    14  H    2.758976   4.127737   4.510666   4.184619   4.730530
    15  H    2.763774   4.203755   4.384885   5.484306   6.088768
    16  H    3.306345   4.470749   4.419596   5.370076   6.120111
    17  C    3.025271   2.433454   2.699550   5.611351   6.247964
    18  C    4.376641   3.772273   4.109075   6.557046   7.036222
    19  H    4.752091   3.974741   4.450067   6.312390   6.700914
    20  H    5.136495   4.432499   4.531914   7.465865   8.008719
    21  H    4.626266   4.359267   4.793920   6.929297   7.307201
    22  O    2.981039   2.753882   2.683504   6.165801   6.884017
    23  C    3.059353   2.583676   3.501901   1.517554   2.168584
    24  H    2.732413   2.561897   3.631303   2.126600   2.476084
    25  C    4.446369   3.654838   4.472471   2.489194   2.730989
    26  H    5.043057   4.140395   4.775132   2.756977   3.099457
    27  H    4.618238   3.607318   4.367620   3.454070   3.736561
    28  H    5.104996   4.529571   5.434562   2.724524   2.510151
    29  C    2.498184   1.523780   2.137365   2.515459   3.476590
    30  H    3.426754   2.121554   2.415378   3.262355   4.154971
    31  H    2.720208   2.126939   2.401064   2.491882   3.574969
                    6          7          8          9         10
     6  H    0.000000
     7  H    1.766870   0.000000
     8  O    3.301594   4.702512   0.000000
     9  N    4.496919   4.989669   2.800004   0.000000
    10  H    4.548464   4.817129   3.308526   1.008371   0.000000
    11  N    3.377292   4.603941   2.250092   3.602235   4.365522
    12  H    3.707696   4.618125   3.136588   3.841402   4.618112
    13  C    3.761544   5.261041   2.763444   4.853890   5.574972
    14  H    3.139365   4.772279   2.821625   5.185528   5.753466
    15  H    4.559530   6.142372   2.774383   5.037621   5.804070
    16  H    4.386531   5.737137   3.815481   5.658643   6.420220
    17  C    5.602443   6.275804   3.191773   1.343315   2.034564
    18  C    6.689298   7.266091   4.279030   2.413671   2.542784
    19  H    6.615617   6.992693   4.627571   2.532326   2.217466
    20  H    7.595523   8.101700   5.177496   3.160017   3.367423
    21  H    6.975388   7.747941   4.260314   3.093644   3.237907
    22  O    5.956569   6.806178   3.273005   2.248350   3.141160
    23  C    2.171126   2.157247   3.289705   3.034564   2.729322
    24  H    2.481838   3.044086   2.581703   2.694343   2.387767
    25  C    3.453221   2.753361   4.623513   3.693017   3.017515
    26  H    3.768261   2.568673   5.410484   4.376922   3.786337
    27  H    4.311688   3.766775   4.790432   3.262459   2.416057
    28  H    3.732429   3.086720   5.056794   4.473463   3.726666
    29  C    2.765591   2.769159   3.264192   2.438539   2.534360
    30  H    3.717775   3.279943   4.213723   2.657993   2.579342
    31  H    2.506596   2.457910   3.649072   3.358919   3.598432
                   11         12         13         14         15
    11  N    0.000000
    12  H    1.007852   0.000000
    13  C    1.445150   2.127460   0.000000
    14  H    2.103227   2.813595   1.091423   0.000000
    15  H    2.098312   2.884003   1.089808   1.766823   0.000000
    16  H    2.070437   2.298585   1.085596   1.770356   1.766362
    17  C    4.067468   4.370688   5.194922   5.689855   5.117899
    18  C    5.504257   5.855276   6.553579   6.973030   6.378192
    19  H    5.973368   6.305140   7.072989   7.368971   7.006751
    20  H    6.139913   6.377977   7.228840   7.758704   7.028303
    21  H    5.760509   6.262443   6.618221   6.995147   6.286232
    22  O    3.702574   3.977217   4.722832   5.409657   4.516263
    23  C    3.926096   4.155914   4.879604   4.617967   5.496016
    24  H    3.829726   4.294530   4.673405   4.403617   5.096726
    25  C    5.374931   5.512105   6.390881   6.128431   6.986009
    26  H    5.789981   5.754597   6.840949   6.591906   7.552149
    27  H    5.672031   5.798799   6.805028   6.678592   7.298178
    28  H    6.068974   6.320726   6.931805   6.527928   7.483264
    29  C    3.159289   3.090212   4.407609   4.469478   5.082865
    30  H    4.065418   3.830450   5.392087   5.527866   6.053333
    31  H    2.901475   2.613540   4.052126   4.098200   4.900879
                   16         17         18         19         20
    16  H    0.000000
    17  C    5.990429   0.000000
    18  C    7.403467   1.492982   0.000000
    19  H    7.956836   2.166559   1.087886   0.000000
    20  H    7.995215   2.114387   1.089236   1.777594   0.000000
    21  H    7.525883   2.111355   1.090303   1.773746   1.756154
    22  O    5.409079   1.230626   2.383035   3.283726   2.659314
    23  C    5.640243   4.323711   5.169773   4.859660   6.053235
    24  H    5.578856   3.823535   4.563639   4.297553   5.544343
    25  C    7.135080   4.975171   5.495389   4.902610   6.320419
    26  H    7.461265   5.693504   6.290802   5.707075   7.022622
    27  H    7.584362   4.445286   4.755403   4.049903   5.511980
    28  H    7.728784   5.682185   6.054519   5.385323   6.947791
    29  C    5.015785   3.713374   4.829360   4.723316   5.531816
    30  H    5.928664   3.909762   4.870689   4.641694   5.437675
    31  H    4.468662   4.529064   5.770808   5.757581   6.425889
                   21         22         23         24         25
    21  H    0.000000
    22  O    2.722224   0.000000
    23  C    5.642168   5.049176   0.000000
    24  H    4.866462   4.583071   1.094840   0.000000
    25  C    6.063952   5.915401   1.518071   2.127619   0.000000
    26  H    6.957864   6.570794   2.158726   3.045657   1.094196
    27  H    5.403948   5.503783   2.173849   2.483854   1.092806
    28  H    6.490149   6.662450   2.167201   2.478447   1.092013
    29  C    5.476353   4.239434   1.538458   2.157647   2.520027
    30  H    5.678837   4.544421   2.173080   2.884085   2.491538
    31  H    6.393107   4.832190   2.175261   2.911317   3.234566
                   26         27         28         29         30
    26  H    0.000000
    27  H    1.765226   0.000000
    28  H    1.765362   1.767723   0.000000
    29  C    2.772281   2.778486   3.478903   0.000000
    30  H    2.484574   2.485410   3.574493   1.093821   0.000000
    31  H    3.228329   3.699699   4.129627   1.092685   1.746693
                   31
    31  H    0.000000
 Stoichiometry    C9H18N2O2
 Framework group  C1[X(C9H18N2O2)]
 Deg. of freedom    87
 Full point group                 C1      NOp   1
 Largest Abelian subgroup         C1      NOp   1
 Largest concise Abelian subgroup C1      NOp   1
                         Standard orientation:                         
 ---------------------------------------------------------------------
 Center     Atomic      Atomic             Coordinates (Angstroms)
 Number     Number       Type             X           Y           Z
 ---------------------------------------------------------------------
      1          6           0       -0.020046    1.198162   -0.107891
      2          6           0       -0.195589   -0.007949    0.807601
      3          1           0       -0.580172    0.356094    1.764548
      4          6           0        3.160841   -0.500576   -0.447051
      5          1           0        3.656764   -0.869514   -1.347233
      6          1           0        3.009753    0.576179   -0.563927
      7          1           0        3.840373   -0.652206    0.396787
      8          8           0       -0.153690    1.133773   -1.326976
      9          7           0       -1.138381   -0.952365    0.259981
     10          1           0       -0.803579   -1.850165   -0.054144
     11          7           0        0.331643    2.326096    0.518487
     12          1           0        0.471367    2.301363    1.516300
     13          6           0        0.691870    3.518084   -0.214900
     14          1           0        1.547547    3.337547   -0.867913
     15          1           0       -0.138829    3.863260   -0.830104
     16          1           0        0.948971    4.302161    0.490537
     17          6           0       -2.426252   -0.627983    0.058338
     18          6           0       -3.288894   -1.676324   -0.562811
     19          1           0       -2.777377   -2.626425   -0.701211
     20          1           0       -4.168924   -1.825362    0.061504
     21          1           0       -3.634578   -1.314069   -1.531333
     22          8           0       -2.871758    0.475098    0.373264
     23          6           0        1.848376   -1.222474   -0.203595
     24          1           0        1.202682   -1.047875   -1.070352
     25          6           0        2.086328   -2.717591   -0.091588
     26          1           0        2.729050   -2.938414    0.765973
     27          1           0        1.151321   -3.266423    0.045416
     28          1           0        2.578925   -3.107329   -0.984865
     29          6           0        1.150618   -0.677718    1.054668
     30          1           0        0.981693   -1.486344    1.771629
     31          1           0        1.792252    0.046646    1.562175
 ---------------------------------------------------------------------
 Rotational constants (GHZ):      0.8204096      0.6535460      0.4140945
 Leave Link  202 at Wed Jun 18 15:10:09 2014, MaxMem=  4294967296 cpu:         1.5
 (Enter /home/ztw1e12/g09/l301.exe)
 Standard basis: CC-pVTZ (5D, 7F)
 Converting basis for Fermi contact spin-spin IFCMod=1.
 AO basis functions are being uncontracted.
 Ernie: Thresh=  0.10000D-02 Tol=  0.10000D-05 Strict=F.
 There are  1119 symmetry adapted cartesian basis functions of A   symmetry.
 There are  1036 symmetry adapted basis functions of A   symmetry.
  1036 basis functions,  1119 primitive gaussians,  1119 cartesian basis functions
    51 alpha electrons       51 beta electrons
       nuclear repulsion energy       875.3891537708 Hartrees.
 IExCor= 4235 DFT=T Ex+Corr=M06 ExCW=0 ScaHFX=  0.270000
 ScaDFX=  1.000000  1.000000  1.000000  1.000000 ScalE2=  1.000000  1.000000
 IRadAn= 199590 IRanWt=     -1 IRanGd=            0 ICorTp=0 IEmpDi=  4
 NAtoms=   31 NActive=   31 NUniq=   31 SFac= 1.00D+00 NAtFMM=   60 NAOKFM=F Big=F
 Integral buffers will be    131072 words long.
 Raffenetti 2 integral format.
 Two-electron integral symmetry is turned on.
 Leave Link  301 at Wed Jun 18 15:10:09 2014, MaxMem=  4294967296 cpu:         5.2
 (Enter /home/ztw1e12/g09/l302.exe)
 NPDir=0 NMtPBC=     1 NCelOv=     1 NCel=       1 NClECP=     1 NCelD=      1
         NCelK=      1 NCelE2=     1 NClLst=     1 CellRange=     0.0.
 One-electron integrals computed using PRISM.
 GSVD:  received Info=                   1 from GESDD.
 NBasis=  1036 RedAO= T EigKep=  1.28D-04  NBF=  1036
 NBsUse=   932 1.00D-06 EigRej=  5.65D-15 NBFU=   932
 Precomputing XC quadrature grid using
 IXCGrd= 4 IRadAn=      199590 IRanWt=          -1 IRanGd=           0 AccXCQ= 0.00D+00.
 Generated NRdTot=       0 NPtTot=           0 NUsed=           0 NTot=          32
 NSgBfM=   880   880   880   880   880 MxSgAt=    31 MxSgA2=    31.
 Leave Link  302 at Wed Jun 18 15:10:13 2014, MaxMem=  4294967296 cpu:        63.6
 (Enter /home/ztw1e12/g09/l308.exe)
 Leave Link  308 at Wed Jun 18 15:10:14 2014, MaxMem=  4294967296 cpu:         5.5
 (Enter /home/ztw1e12/g09/l303.exe)
 DipDrv:  MaxL=1.
 Leave Link  303 at Wed Jun 18 15:10:14 2014, MaxMem=  4294967296 cpu:         3.3
 (Enter /home/ztw1e12/g09/l401.exe)
 ExpMin= 1.03D-01 ExpMax= 1.38D+05 ExpMxC= 1.38D+05 IAcc=4 IRadAn=    199590 AccDes= 0.00D+00
 Harris functional with IExCor= 1009 and IRadAn=  199590 diagonalized for initial guess.
 HarFok:  IExCor= 1009 AccDes= 0.00D+00 IRadAn=    199590 IDoV= 1 UseB2=F ITyADJ=14
 ICtDFT=  3500011 ScaDFX=  1.000000  1.000000  1.000000  1.000000
 FoFCou: FMM=F IPFlag=           0 FMFlag=      100000 FMFlg1=           0
         NFxFlg=           0 DoJE=T BraDBF=F KetDBF=T FulRan=T
         wScrn=  0.000000 ICntrl=     500 IOpCl=  0 I1Cent=   200000004 NGrid=           0
         NMat0=    1 NMatS0=      1 NMatT0=    0 NMatD0=    1 NMtDS0=    0 NMtDT0=    0
 Petite list used in FoFCou.
 Harris En= -613.563924666527    
 JPrj=0 DoOrth=F DoCkMO=F.
 Leave Link  401 at Wed Jun 18 15:10:30 2014, MaxMem=  4294967296 cpu:       251.6
 (Enter /home/ztw1e12/g09/l502.exe)
 Closed shell SCF:
 Using DIIS extrapolation, IDIIS=  1040.
 Integral symmetry usage will be decided dynamically.
 IVT=     3801329 IEndB=     3801329 NGot=  4294967296 MDV=  4292435888
 LenX=  4292435888 LenY=  4291182608
 Requested convergence on RMS density matrix=1.00D-08 within 128 cycles.
 Requested convergence on MAX density matrix=1.00D-06.
 Requested convergence on             energy=1.00D-06.
 No special actions if energy rises.
 Fock matrices will be formed incrementally for  20 cycles.
 Integral accuracy reduced to 1.0D-05 until final iterations.

 Cycle   1  Pass 0  IDiag  1:
 FoFJK:  IHMeth= 1 ICntrl=       0 DoSepK=F KAlg= 0 I1Cent=   0 FoldK=F
 IRaf= 480000000 NMat=   1 IRICut=       1 DoRegI=T DoRafI=F ISym2E= 0.
 FoFCou: FMM=F IPFlag=           0 FMFlag=      100000 FMFlg1=           0
         NFxFlg=           0 DoJE=F BraDBF=F KetDBF=F FulRan=T
         wScrn=  0.000000 ICntrl=       0 IOpCl=  0 I1Cent=           0 NGrid=           0
         NMat0=    1 NMatS0=      1 NMatT0=    0 NMatD0=    1 NMtDS0=    0 NMtDT0=    0
 Symmetry not used in FoFCou.
 E= -613.182094117540    
 DIIS: error= 1.46D-01 at cycle   1 NSaved=   1.
 NSaved= 1 IEnMin= 1 EnMin= -613.182094117540     IErMin= 1 ErrMin= 1.46D-01
 ErrMax= 1.46D-01  0.00D+00 EMaxC= 1.00D-01 BMatC= 1.30D+01 BMatP= 1.30D+01
 IDIUse=3 WtCom= 0.00D+00 WtEn= 1.00D+00
 Coeff-Com:  0.100D+01
 Coeff-En:   0.100D+01
 Coeff:      0.100D+01
 Gap=     0.289 Goal=   None    Shift=    0.000
 GapD=    0.289 DampG=1.000 DampE=0.250 DampFc=0.2500 IDamp=-1.
 Damping current iteration by 2.50D-01
 RMSDP=2.13D-03 MaxDP=3.11D-01              OVMax= 2.86D-01

 Cycle   2  Pass 0  IDiag  1:
 RMSU=  5.33D-04    CP:  1.01D+00
 E= -613.339722620347     Delta-E=       -0.157628502808 Rises=F Damp=T
 DIIS: error= 1.10D-01 at cycle   2 NSaved=   2.
 NSaved= 2 IEnMin= 2 EnMin= -613.339722620347     IErMin= 2 ErrMin= 1.10D-01
 ErrMax= 1.10D-01  0.00D+00 EMaxC= 1.00D-01 BMatC= 7.66D+00 BMatP= 1.30D+01
 IDIUse=3 WtCom= 0.00D+00 WtEn= 1.00D+00
 Coeff-Com: -0.279D+01 0.379D+01
 Coeff-En:   0.000D+00 0.100D+01
 Coeff:      0.000D+00 0.100D+01
 Gap=     0.223 Goal=   None    Shift=    0.000
 RMSDP=5.82D-04 MaxDP=5.34D-02 DE=-1.58D-01 OVMax= 1.32D-01

 Cycle   3  Pass 0  IDiag  1:
 RMSU=  4.43D-04    CP:  1.03D+00  1.70D+00
 E= -613.529864715861     Delta-E=       -0.190142095514 Rises=F Damp=F
 DIIS: error= 1.37D-02 at cycle   3 NSaved=   3.
 NSaved= 3 IEnMin= 3 EnMin= -613.529864715861     IErMin= 3 ErrMin= 1.37D-02
 ErrMax= 1.37D-02  0.00D+00 EMaxC= 1.00D-01 BMatC= 2.31D-01 BMatP= 7.66D+00
 IDIUse=3 WtCom= 8.63D-01 WtEn= 1.37D-01
 Coeff-Com:  0.122D+01-0.167D+01 0.145D+01
 Coeff-En:   0.138D+00 0.000D+00 0.862D+00
 Coeff:      0.107D+01-0.144D+01 0.137D+01
 Gap=     0.255 Goal=   None    Shift=    0.000
 RMSDP=4.20D-04 MaxDP=3.71D-02 DE=-1.90D-01 OVMax= 6.60D-02

 Cycle   4  Pass 0  IDiag  1:
 RMSU=  2.66D-04    CP:  1.03D+00  1.14D+00  7.09D-01
 E= -613.546086568656     Delta-E=       -0.016221852795 Rises=F Damp=F
 DIIS: error= 8.77D-03 at cycle   4 NSaved=   4.
 NSaved= 4 IEnMin= 4 EnMin= -613.546086568656     IErMin= 4 ErrMin= 8.77D-03
 ErrMax= 8.77D-03  0.00D+00 EMaxC= 1.00D-01 BMatC= 1.03D-01 BMatP= 2.31D-01
 IDIUse=3 WtCom= 9.12D-01 WtEn= 8.77D-02
 Coeff-Com:  0.755D+00-0.104D+01 0.744D+00 0.539D+00
 Coeff-En:   0.000D+00 0.000D+00 0.440D+00 0.560D+00
 Coeff:      0.689D+00-0.948D+00 0.718D+00 0.541D+00
 Gap=     0.285 Goal=   None    Shift=    0.000
 RMSDP=2.70D-04 MaxDP=2.15D-02 DE=-1.62D-02 OVMax= 7.15D-02

 Cycle   5  Pass 0  IDiag  1:
 RMSU=  8.54D-05    CP:  1.02D+00  1.09D+00  8.48D-01  7.48D-02
 E= -613.616911660738     Delta-E=       -0.070825092082 Rises=F Damp=F
 DIIS: error= 2.92D-03 at cycle   5 NSaved=   5.
 NSaved= 5 IEnMin= 5 EnMin= -613.616911660738     IErMin= 5 ErrMin= 2.92D-03
 ErrMax= 2.92D-03  0.00D+00 EMaxC= 1.00D-01 BMatC= 1.42D-02 BMatP= 1.03D-01
 IDIUse=3 WtCom= 9.71D-01 WtEn= 2.92D-02
 Coeff-Com:  0.132D+00-0.189D+00 0.133D+00 0.273D+00 0.650D+00
 Coeff-En:   0.000D+00 0.000D+00 0.000D+00 0.816D-01 0.918D+00
 Coeff:      0.128D+00-0.184D+00 0.129D+00 0.268D+00 0.658D+00
 Gap=     0.273 Goal=   None    Shift=    0.000
 RMSDP=1.53D-04 MaxDP=1.62D-02 DE=-7.08D-02 OVMax= 3.02D-02

 Cycle   6  Pass 0  IDiag  1:
 RMSU=  8.03D-05    CP:  1.03D+00  1.13D+00  9.42D-01  4.77D-01  3.54D-01
 E= -613.624846080518     Delta-E=       -0.007934419779 Rises=F Damp=F
 DIIS: error= 9.77D-04 at cycle   6 NSaved=   6.
 NSaved= 6 IEnMin= 6 EnMin= -613.624846080518     IErMin= 6 ErrMin= 9.77D-04
 ErrMax= 9.77D-04  0.00D+00 EMaxC= 1.00D-01 BMatC= 1.07D-03 BMatP= 1.42D-02
 IDIUse=3 WtCom= 9.90D-01 WtEn= 9.77D-03
 Coeff-Com:  0.587D-01-0.797D-01 0.190D-01 0.429D-01 0.200D+00 0.759D+00
 Coeff-En:   0.000D+00 0.000D+00 0.000D+00 0.000D+00 0.119D-01 0.988D+00
 Coeff:      0.582D-01-0.789D-01 0.188D-01 0.424D-01 0.198D+00 0.762D+00
 Gap=     0.273 Goal=   None    Shift=    0.000
 RMSDP=3.11D-05 MaxDP=2.98D-03 DE=-7.93D-03 OVMax= 9.66D-03

 Cycle   7  Pass 0  IDiag  1:
 RMSU=  2.16D-05    CP:  1.03D+00  1.10D+00  9.42D-01  4.71D-01  4.87D-01
                    CP:  1.10D+00
 E= -613.625432082633     Delta-E=       -0.000586002115 Rises=F Damp=F
 DIIS: error= 4.13D-04 at cycle   7 NSaved=   7.
 NSaved= 7 IEnMin= 7 EnMin= -613.625432082633     IErMin= 7 ErrMin= 4.13D-04
 ErrMax= 4.13D-04  0.00D+00 EMaxC= 1.00D-01 BMatC= 2.30D-04 BMatP= 1.07D-03
 IDIUse=3 WtCom= 9.96D-01 WtEn= 4.13D-03
 Coeff-Com:  0.396D-01-0.532D-01 0.126D-01 0.772D-02 0.594D-01 0.424D+00
 Coeff-Com:  0.510D+00
 Coeff-En:   0.000D+00 0.000D+00 0.000D+00 0.000D+00 0.000D+00 0.108D+00
 Coeff-En:   0.892D+00
 Coeff:      0.395D-01-0.529D-01 0.125D-01 0.769D-02 0.591D-01 0.423D+00
 Coeff:      0.512D+00
 Gap=     0.272 Goal=   None    Shift=    0.000
 RMSDP=1.11D-05 MaxDP=9.31D-04 DE=-5.86D-04 OVMax= 3.28D-03

 Cycle   8  Pass 0  IDiag  1:
 RMSU=  6.63D-06    CP:  1.03D+00  1.10D+00  9.48D-01  4.82D-01  4.74D-01
                    CP:  1.15D+00  6.81D-01
 E= -613.625589356054     Delta-E=       -0.000157273421 Rises=F Damp=F
 DIIS: error= 1.42D-04 at cycle   8 NSaved=   8.
 NSaved= 8 IEnMin= 8 EnMin= -613.625589356054     IErMin= 8 ErrMin= 1.42D-04
 ErrMax= 1.42D-04  0.00D+00 EMaxC= 1.00D-01 BMatC= 2.65D-05 BMatP= 2.30D-04
 IDIUse=3 WtCom= 9.99D-01 WtEn= 1.42D-03
 Coeff-Com:  0.215D-01-0.288D-01 0.839D-02-0.324D-02 0.329D-02 0.167D+00
 Coeff-Com:  0.297D+00 0.534D+00
 Coeff-En:   0.000D+00 0.000D+00 0.000D+00 0.000D+00 0.000D+00 0.000D+00
 Coeff-En:   0.000D+00 0.100D+01
 Coeff:      0.215D-01-0.288D-01 0.838D-02-0.323D-02 0.328D-02 0.167D+00
 Coeff:      0.297D+00 0.535D+00
 Gap=     0.273 Goal=   None    Shift=    0.000
 RMSDP=5.56D-06 MaxDP=5.35D-04 DE=-1.57D-04 OVMax= 1.23D-03

 Initial convergence to 1.0D-05 achieved.  Increase integral accuracy.
 Cycle   9  Pass 1  IDiag  1:
 E= -613.625644636474     Delta-E=       -0.000055280421 Rises=F Damp=F
 DIIS: error= 7.83D-05 at cycle   1 NSaved=   1.
 NSaved= 1 IEnMin= 1 EnMin= -613.625644636474     IErMin= 1 ErrMin= 7.83D-05
 ErrMax= 7.83D-05  0.00D+00 EMaxC= 1.00D-01 BMatC= 1.10D-05 BMatP= 1.10D-05
 IDIUse=1 WtCom= 1.00D+00 WtEn= 0.00D+00
 Coeff-Com:  0.100D+01
 Coeff:      0.100D+01
 Gap=     0.273 Goal=   None    Shift=    0.000
 RMSDP=5.56D-06 MaxDP=5.35D-04 DE=-5.53D-05 OVMax= 1.49D-03

 Cycle  10  Pass 1  IDiag  1:
 RMSU=  2.38D-05    CP:  1.00D+00
 E= -613.625640737497     Delta-E=        0.000003898978 Rises=F Damp=F
 DIIS: error= 1.02D-04 at cycle   2 NSaved=   2.
 NSaved= 2 IEnMin= 1 EnMin= -613.625644636474     IErMin= 1 ErrMin= 7.83D-05
 ErrMax= 1.02D-04  0.00D+00 EMaxC= 1.00D-01 BMatC= 1.37D-05 BMatP= 1.10D-05
 IDIUse=3 WtCom= 4.97D-01 WtEn= 5.03D-01
 Coeff-Com:  0.534D+00 0.466D+00
 Coeff-En:   0.634D+00 0.366D+00
 Coeff:      0.584D+00 0.416D+00
 Gap=     0.273 Goal=   None    Shift=    0.000
 RMSDP=3.55D-06 MaxDP=4.13D-04 DE= 3.90D-06 OVMax= 1.25D-03

 Cycle  11  Pass 1  IDiag  1:
 RMSU=  3.51D-06    CP:  1.00D+00  9.85D-01
 E= -613.625649710860     Delta-E=       -0.000008973364 Rises=F Damp=F
 DIIS: error= 3.27D-05 at cycle   3 NSaved=   3.
 NSaved= 3 IEnMin= 3 EnMin= -613.625649710860     IErMin= 3 ErrMin= 3.27D-05
 ErrMax= 3.27D-05  0.00D+00 EMaxC= 1.00D-01 BMatC= 1.19D-06 BMatP= 1.10D-05
 IDIUse=1 WtCom= 1.00D+00 WtEn= 0.00D+00
 Coeff-Com:  0.606D-01 0.227D+00 0.712D+00
 Coeff:      0.606D-01 0.227D+00 0.712D+00
 Gap=     0.273 Goal=   None    Shift=    0.000
 RMSDP=9.14D-07 MaxDP=9.38D-05 DE=-8.97D-06 OVMax= 2.81D-04

 Cycle  12  Pass 1  IDiag  1:
 RMSU=  5.05D-07    CP:  1.00D+00  1.00D+00  8.15D-01
 E= -613.625650460001     Delta-E=       -0.000000749141 Rises=F Damp=F
 DIIS: error= 1.15D-05 at cycle   4 NSaved=   4.
 NSaved= 4 IEnMin= 4 EnMin= -613.625650460001     IErMin= 4 ErrMin= 1.15D-05
 ErrMax= 1.15D-05  0.00D+00 EMaxC= 1.00D-01 BMatC= 9.33D-08 BMatP= 1.19D-06
 IDIUse=1 WtCom= 1.00D+00 WtEn= 0.00D+00
 Coeff-Com:  0.674D-02 0.907D-01 0.346D+00 0.557D+00
 Coeff:      0.674D-02 0.907D-01 0.346D+00 0.557D+00
 Gap=     0.273 Goal=   None    Shift=    0.000
 RMSDP=2.35D-07 MaxDP=2.29D-05 DE=-7.49D-07 OVMax= 6.34D-05

 Cycle  13  Pass 1  IDiag  1:
 RMSU=  2.08D-07    CP:  1.00D+00  1.00D+00  8.21D-01  7.97D-01
 E= -613.625650523078     Delta-E=       -0.000000063077 Rises=F Damp=F
 DIIS: error= 2.79D-06 at cycle   5 NSaved=   5.
 NSaved= 5 IEnMin= 5 EnMin= -613.625650523078     IErMin= 5 ErrMin= 2.79D-06
 ErrMax= 2.79D-06  0.00D+00 EMaxC= 1.00D-01 BMatC= 8.09D-09 BMatP= 9.33D-08
 IDIUse=1 WtCom= 1.00D+00 WtEn= 0.00D+00
 Coeff-Com: -0.220D-02 0.254D-01 0.110D+00 0.280D+00 0.587D+00
 Coeff:     -0.220D-02 0.254D-01 0.110D+00 0.280D+00 0.587D+00
 Gap=     0.273 Goal=   None    Shift=    0.000
 RMSDP=8.08D-08 MaxDP=7.86D-06 DE=-6.31D-08 OVMax= 2.04D-05

 Cycle  14  Pass 1  IDiag  1:
 RMSU=  4.50D-08    CP:  1.00D+00  1.00D+00  8.26D-01  9.10D-01  8.82D-01
 E= -613.625650528520     Delta-E=       -0.000000005442 Rises=F Damp=F
 DIIS: error= 6.75D-07 at cycle   6 NSaved=   6.
 NSaved= 6 IEnMin= 6 EnMin= -613.625650528520     IErMin= 6 ErrMin= 6.75D-07
 ErrMax= 6.75D-07  0.00D+00 EMaxC= 1.00D-01 BMatC= 4.12D-10 BMatP= 8.09D-09
 IDIUse=1 WtCom= 1.00D+00 WtEn= 0.00D+00
 Coeff-Com: -0.128D-02 0.826D-02 0.373D-01 0.112D+00 0.281D+00 0.563D+00
 Coeff:     -0.128D-02 0.826D-02 0.373D-01 0.112D+00 0.281D+00 0.563D+00
 Gap=     0.273 Goal=   None    Shift=    0.000
 RMSDP=2.28D-08 MaxDP=2.43D-06 DE=-5.44D-09 OVMax= 8.92D-06

 Cycle  15  Pass 1  IDiag  1:
 RMSU=  2.13D-08    CP:  1.00D+00  1.00D+00  8.27D-01  9.19D-01  8.95D-01
                    CP:  8.85D-01
 E= -613.625650528667     Delta-E=       -0.000000000147 Rises=F Damp=F
 DIIS: error= 3.98D-07 at cycle   7 NSaved=   7.
 NSaved= 7 IEnMin= 7 EnMin= -613.625650528667     IErMin= 7 ErrMin= 3.98D-07
 ErrMax= 3.98D-07  0.00D+00 EMaxC= 1.00D-01 BMatC= 1.40D-10 BMatP= 4.12D-10
 IDIUse=1 WtCom= 1.00D+00 WtEn= 0.00D+00
 Coeff-Com: -0.342D-03-0.605D-03-0.169D-02 0.632D-02 0.423D-01 0.377D+00
 Coeff-Com:  0.577D+00
 Coeff:     -0.342D-03-0.605D-03-0.169D-02 0.632D-02 0.423D-01 0.377D+00
 Coeff:      0.577D+00
 Gap=     0.273 Goal=   None    Shift=    0.000
 RMSDP=1.58D-08 MaxDP=1.89D-06 DE=-1.47D-10 OVMax= 3.07D-06

 Cycle  16  Pass 1  IDiag  1:
 RMSU=  6.25D-09    CP:  1.00D+00  1.00D+00  8.27D-01  9.34D-01  9.19D-01
                    CP:  1.09D+00  8.10D-01
 E= -613.625650528835     Delta-E=       -0.000000000168 Rises=F Damp=F
 DIIS: error= 9.62D-08 at cycle   8 NSaved=   8.
 NSaved= 8 IEnMin= 8 EnMin= -613.625650528835     IErMin= 8 ErrMin= 9.62D-08
 ErrMax= 9.62D-08  0.00D+00 EMaxC= 1.00D-01 BMatC= 9.79D-12 BMatP= 1.40D-10
 IDIUse=1 WtCom= 1.00D+00 WtEn= 0.00D+00
 Coeff-Com: -0.361D-04-0.127D-02-0.507D-02-0.919D-02-0.977D-02 0.137D+00
 Coeff-Com:  0.296D+00 0.592D+00
 Coeff:     -0.361D-04-0.127D-02-0.507D-02-0.919D-02-0.977D-02 0.137D+00
 Coeff:      0.296D+00 0.592D+00
 Gap=     0.273 Goal=   None    Shift=    0.000
 RMSDP=3.45D-09 MaxDP=3.41D-07 DE=-1.68D-10 OVMax= 4.83D-07

 SCF Done:  E(RM06) =  -613.625650529     A.U. after   16 cycles
            NFock= 16  Conv=0.35D-08     -V/T= 2.0046
 KE= 6.108045504202D+02 PE=-3.182225101213D+03 EE= 1.082405746493D+03
 Leave Link  502 at Wed Jun 18 15:38:46 2014, MaxMem=  4294967296 cpu:     27058.6
 (Enter /home/ztw1e12/g09/l801.exe)
 DoSCS=F DFT=T ScalE2(SS,OS)=  1.000000  1.000000
 Range of M.O.s used for correlation:     1   932
 NBasis=  1036 NAE=    51 NBE=    51 NFC=     0 NFV=     0
 NROrb=    932 NOA=    51 NOB=    51 NVA=   881 NVB=   881

 **** Warning!!: The largest alpha MO coefficient is  0.10649829D+02

 Leave Link  801 at Wed Jun 18 15:38:46 2014, MaxMem=  4294967296 cpu:         0.4
 (Enter /home/ztw1e12/g09/l1002.exe)
 Minotr:  Closed shell wavefunction.
          IDoAtm=1111111111111111111111111111111
          Direct CPHF calculation.
          Differentiating once with respect to Fermi-contact.
          Electric field/nuclear overlap derivatives assumed to be zero.
          Requested convergence is 1.0D-10 RMS, and 1.0D-09 maximum.
          Secondary convergence is 1.0D-12 RMS, and 1.0D-12 maximum.
          NewPWx=T KeepS1=F KeepF1=F KeepIn=T MapXYZ=F SortEE=F KeepMc=T.
          MDV=    4294966050 using IRadAn=  199590.
 Using stored XC quadrature information.
          Solving linear equations simultaneously, MaxMat=       0.
          There are    31 degrees of freedom in the 1st order CPHF.  IDoFFX=0 NUNeed=    31.
     31 vectors produced by pass  0 Test12= 1.45D-17 3.23D-11 XBig12= 4.16D+01 2.57D+00.
 AX will form    31 AO Fock derivatives at one time.
 FoFJK:  IHMeth= 1 ICntrl=       0 DoSepK=F KAlg= 0 I1Cent=   0 FoldK=F
 IRaf= 500000000 NMat=  31 IRICut=       1 DoRegI=T DoRafI=F ISym2E=-1.
 FoFCou: FMM=F IPFlag=           0 FMFlag=      100000 FMFlg1=           0
         NFxFlg=           0 DoJE=F BraDBF=F KetDBF=F FulRan=T
         wScrn=  0.000000 ICntrl=       0 IOpCl=  0 I1Cent=           0 NGrid=           0
         NMat0=   31 NMatS0=      0 NMatT0=   31 NMatD0=   31 NMtDS0=    0 NMtDT0=    0
 Petite list used in FoFCou.
     31 vectors produced by pass  1 Test12= 1.45D-17 3.23D-11 XBig12= 3.46D-01 1.77D-01.
     31 vectors produced by pass  2 Test12= 1.45D-17 3.23D-11 XBig12= 1.69D-02 4.87D-02.
     31 vectors produced by pass  3 Test12= 1.45D-17 3.23D-11 XBig12= 3.76D-04 6.37D-03.
     31 vectors produced by pass  4 Test12= 1.45D-17 3.23D-11 XBig12= 5.50D-06 9.00D-04.
     31 vectors produced by pass  5 Test12= 1.45D-17 3.23D-11 XBig12= 1.14D-07 1.62D-04.
     31 vectors produced by pass  6 Test12= 1.45D-17 3.23D-11 XBig12= 3.44D-09 1.91D-05.
     31 vectors produced by pass  7 Test12= 1.45D-17 3.23D-11 XBig12= 1.03D-10 4.30D-06.
     31 vectors produced by pass  8 Test12= 1.45D-17 3.23D-11 XBig12= 2.41D-12 3.61D-07.
     31 vectors produced by pass  9 Test12= 1.45D-17 3.23D-11 XBig12= 5.92D-14 7.66D-08.
     31 vectors produced by pass 10 Test12= 1.45D-17 3.23D-11 XBig12= 2.20D-15 7.37D-09.
     30 vectors produced by pass 11 Test12= 1.45D-17 3.23D-11 XBig12= 2.06D-17 6.33D-10.
      4 vectors produced by pass 12 Test12= 1.45D-17 3.23D-11 XBig12= 1.78D-19 4.31D-11.
 InvSVY:  IOpt=1 It=  1 EMax= 7.11D-15
 Solved reduced A of dimension   375 with    31 vectors.
 Max diff in FC couplings:  IJMax=    17     9 Diff= 3.21D-04 IJMaxR=    18     6 DiffR= 1.11D+00
 Fermi Contact (FC) contribution to K (Hz):
                1             2             3             4             5 
      1  0.123400D+11
      2  0.273822D+02  0.123400D+11
      3 -0.904872D+00  0.191246D+02  0.123400D+11
      4  0.764508D-02  0.563572D+00 -0.333245D-01  0.123400D+11
      5  0.618389D-02  0.171730D-01  0.331140D-02  0.175230D+02  0.123400D+11
      6  0.104994D-01 -0.532095D-02  0.133197D-02  0.174326D+02 -0.775277D+00
      7  0.594234D-02 -0.946689D-02  0.120065D-02  0.170566D+02 -0.745414D+00
      8 -0.984571D+01  0.241243D+01  0.398817D+00  0.738480D-01  0.150849D-01
      9  0.939032D-01  0.194105D+02 -0.522384D+00  0.802948D-02 -0.389339D-02
     10  0.932670D-01  0.229028D+00  0.141567D+00 -0.320362D-02  0.109515D-02
     11  0.289345D+02  0.136532D+02  0.191074D+00  0.385895D-01  0.747950D-02
     12  0.445684D+00  0.133650D+00 -0.232607D-01 -0.547081D-02 -0.441999D-03
     13 -0.376976D+00  0.112902D+01  0.223644D-01  0.806814D-03 -0.821589D-04
     14  0.201503D+00 -0.919209D-01  0.118309D-01  0.565461D-02  0.411317D-03
     15  0.186876D+00 -0.733576D-01  0.499686D-02  0.240487D-02  0.347663D-03
     16  0.965179D+00 -0.270085D-01 -0.762633D-03  0.104810D-02  0.192002D-05
     17  0.182054D+00 -0.376195D+00  0.210723D+00 -0.552860D-02  0.155636D-02
     18 -0.159468D+00  0.897271D+00 -0.761854D-01 -0.112492D-02 -0.489442D-04
     19 -0.162567D-02  0.104069D+00 -0.143865D-02  0.156687D-03  0.968120D-05
     20  0.508475D-01  0.313041D-01  0.177560D-01  0.140546D-02  0.211043D-05
     21  0.717793D-01  0.254428D-01  0.265891D-01 -0.757052D-03 -0.249379D-04
     22  0.496903D+00  0.747937D+00  0.227537D+00  0.316362D-01  0.854820D-03
     23  0.537714D+00 -0.542040D+00  0.972316D+00  0.172398D+02 -0.544566D+00
     24  0.517862D-02  0.814413D+00 -0.118786D-01 -0.801127D+00  0.123702D+00
     25 -0.156070D-01  0.657664D+00  0.370388D-02  0.849459D-01  0.283505D+00
     26  0.949490D-02 -0.135303D-01 -0.171481D-03  0.441188D+00 -0.459782D-02
     27  0.667039D-03 -0.706284D-02  0.362620D-02  0.136061D+01  0.396676D-02
     28 -0.362367D-02  0.203390D-01  0.453422D-02  0.287565D+00 -0.638419D-02
     29 -0.551453D+00  0.160478D+02 -0.745278D+00  0.176611D+00  0.143252D+01
     30  0.110881D+01 -0.956696D+00  0.163431D+00  0.286278D+00  0.176115D-01
     31  0.210222D+00 -0.407344D+00  0.122448D+00  0.111751D+01  0.345046D-01
                6             7             8             9            10 
      6  0.123400D+11
      7 -0.751080D+00  0.123400D+11
      8  0.516189D-01  0.218016D-01  0.123400D+11
      9 -0.587901D-03  0.657667D-01  0.321855D+00  0.123400D+11
     10  0.153766D-03 -0.209961D-03  0.354970D-02  0.315946D+02  0.123400D+11
     11  0.213583D-01 -0.225270D-02  0.646951D+01  0.107246D+01  0.198435D+00
     12 -0.499543D-03  0.691836D-04  0.480608D+00  0.486137D-01  0.245423D-03
     13  0.880305D-02  0.224760D-03  0.655983D+00  0.300611D+00  0.189784D-01
     14  0.772126D-02  0.306941D-03  0.244949D+00 -0.506110D-02 -0.153338D-02
     15  0.170732D-02  0.342193D-05  0.244626D+00 -0.110119D-02 -0.116224D-02
     16  0.564532D-03  0.000000D+00  0.180439D+00  0.203529D-01 -0.973412D-03
     17 -0.574870D-03  0.755724D-02  0.297601D-01  0.265136D+02  0.406816D+00
     18 -0.544967D-05  0.568427D-03  0.784266D-01  0.126944D+02  0.907620D-01
     19  0.195165D-04  0.358997D-04 -0.866679D-03  0.344988D+00 -0.999741D-02
     20 -0.226886D-04 -0.356528D-04  0.388677D-02  0.416068D+00 -0.498973D-02
     21  0.145002D-04  0.156696D-03  0.363755D-02  0.322031D+00 -0.172414D-01
     22  0.995704D-03  0.303375D-03  0.579955D+00  0.591718D+01  0.444837D+00
     23 -0.608987D+00 -0.775850D+00  0.100104D+01  0.109337D+01 -0.321014D-01
     24  0.152412D+00  0.385745D+00  0.333261D-01  0.710472D-01 -0.149896D-01
     25  0.143446D+01  0.474368D+00  0.109241D+00  0.935380D-01 -0.138618D-01
     26 -0.884712D-02 -0.129667D-01  0.607419D-01  0.129720D-01 -0.743570D-03
     27  0.806993D-01 -0.999647D-02  0.639588D-02  0.907265D-01 -0.152927D-01
     28  0.466316D-02 -0.449671D-02  0.120533D-02  0.566467D-02 -0.127295D-03
     29  0.319585D+00  0.440425D+00  0.203605D+00  0.666080D+00  0.500826D+00
     30  0.281630D-02 -0.608254D-02  0.868233D-01  0.570511D+00 -0.184695D-01
     31 -0.829372D-02 -0.140888D-01 -0.103152D-01  0.189879D+01 -0.204617D-01
               11            12            13            14            15 
     11  0.123400D+11
     12  0.312595D+02  0.123400D+11
     13  0.169969D+02  0.322561D+00  0.123400D+11
     14 -0.605142D+00  0.666476D-01  0.196289D+02  0.123400D+11
     15 -0.516804D+00  0.153219D+00  0.203045D+02 -0.733928D+00  0.123400D+11
     16 -0.384715D+00  0.288068D+00  0.182614D+02 -0.731520D+00 -0.763432D+00
     17 -0.520827D-01  0.577445D-03 -0.471770D-02  0.253974D-04 -0.333020D-03
     18  0.121910D-01  0.688538D-03  0.878342D-02  0.213896D-02  0.158962D-02
     19  0.707175D-02  0.881645D-04  0.217463D-03 -0.864736D-04 -0.555822D-04
     20 -0.309895D-02 -0.169799D-03 -0.379697D-03  0.116780D-04 -0.500723D-04
     21  0.111329D-01 -0.991721D-04  0.174033D-02  0.140230D-03 -0.530714D-04
     22  0.185478D+00 -0.207687D-02  0.257151D-02  0.877844D-02  0.537832D-02
     23 -0.255115D-01  0.634367D-02 -0.269260D-02 -0.210688D-02 -0.207797D-02
     24  0.228238D-01 -0.109314D-02 -0.170440D-02  0.760673D-03  0.436291D-03
     25  0.111432D-01 -0.109439D-02 -0.398917D-02  0.152467D-02  0.128584D-02
     26  0.967125D-03  0.547490D-04  0.632840D-03 -0.731855D-04 -0.243833D-04
     27  0.278348D-02 -0.527751D-04 -0.221883D-04  0.521611D-03  0.223177D-03
     28  0.129135D-02 -0.215806D-03 -0.566970D-03  0.296487D-03  0.411906D-03
     29  0.171244D+00 -0.405364D-01 -0.127175D+00  0.817980D-01  0.978510D-01
     30 -0.189625D-01 -0.547493D-02 -0.246385D-02  0.386362D-02  0.449570D-02
     31  0.257739D-01 -0.582869D-02 -0.198731D-02  0.811879D-03  0.691508D-03
               16            17            18            19            20 
     16  0.123400D+11
     17 -0.126125D-03  0.123400D+11
     18  0.165519D-03  0.272156D+02  0.123400D+11
     19  0.119945D-04 -0.758986D+00  0.170377D+02  0.123400D+11
     20  0.992736D-04 -0.117247D+01  0.180047D+02 -0.715382D+00  0.123400D+11
     21  0.343538D-03 -0.121022D+01  0.179032D+02 -0.752985D+00 -0.923168D+00
     22  0.211856D-02 -0.951099D+01  0.373183D+01  0.828683D+00  0.428035D+00
     23  0.828004D-03 -0.344073D-01  0.257619D-01 -0.177902D-02 -0.143208D-02
     24 -0.280724D-05  0.680711D-02 -0.211347D-02  0.195579D-03  0.796485D-03
     25  0.257747D-03  0.473903D-01 -0.560655D-02 -0.431324D-03 -0.210655D-03
     26  0.506962D-04  0.126782D-02  0.100511D-03  0.791649D-04  0.765658D-04
     27  0.100739D-04  0.673729D-02  0.155460D-03  0.588629D-03  0.396994D-04
     28  0.129512D-04  0.218751D-02  0.837379D-04 -0.430912D-04  0.352323D-05
     29  0.150805D-02  0.149476D+01 -0.414511D-01 -0.192000D-02  0.675253D-02
     30  0.152426D-03 -0.150449D-01  0.122687D-01 -0.175208D-03 -0.419856D-03
     31  0.372600D-03  0.136953D+00  0.605923D-01 -0.143330D-03  0.151739D-02
               21            22            23            24            25 
     21  0.123400D+11
     22  0.448448D+00  0.123400D+11
     23 -0.108562D-02  0.101918D+00  0.123400D+11
     24 -0.151229D-03  0.158128D-01  0.178074D+02  0.123400D+11
     25 -0.312904D-03  0.247457D-02  0.169149D+02 -0.717762D+00  0.123400D+11
     26  0.111731D-04 -0.251612D-03 -0.811267D+00  0.418904D+00  0.172299D+02
     27 -0.453628D-04  0.117723D-02 -0.548041D+00  0.160440D+00  0.169154D+02
     28 -0.119250D-04  0.584488D-03 -0.529843D+00  0.121939D+00  0.175520D+02
     29 -0.269678D-02  0.145371D+00  0.170885D+02 -0.732257D+00  0.196816D+00
     30 -0.445527D-03  0.690389D-03 -0.555940D+00  0.681190D-01  0.113402D+01
     31 -0.197761D-02 -0.101552D-01 -0.626745D+00  0.102182D+00  0.199737D+00
               26            27            28            29            30 
     26  0.123400D+11
     27 -0.751002D+00  0.123400D+11
     28 -0.757846D+00 -0.757450D+00  0.123400D+11
     29  0.449167D+00  0.289538D+00  0.142960D+01  0.123400D+11
     30 -0.131500D-01 -0.125109D-01  0.306827D-01  0.173717D+02  0.123400D+11
     31 -0.533413D-02 -0.749838D-03  0.542938D-02  0.174629D+02 -0.897529D+00
               31 
     31  0.123400D+11
 Fermi Contact (FC) contribution to J (Hz):
                1             2             3             4             5 
      1  0.243533D+11
      2  0.540394D+02  0.243533D+11
      3 -0.710044D+01  0.150069D+03  0.385007D+12
      4  0.150878D-01  0.111222D+01 -0.261494D+00  0.243533D+11
      5  0.485244D-01  0.134755D+00  0.103315D+00  0.137501D+03  0.385007D+12
      6  0.823875D-01 -0.417530D-01  0.415575D-01  0.136792D+03 -0.241886D+02
      7  0.466289D-01 -0.742858D-01  0.374603D-01  0.133842D+03 -0.232569D+02
      8  0.104776D+02 -0.256726D+01 -0.168750D+01 -0.785877D-01 -0.638284D-01
      9  0.532630D-01  0.110099D+02 -0.117812D+01  0.455442D-02 -0.878070D-02
     10  0.731857D+00  0.179716D+01  0.441687D+01 -0.251385D-01  0.341687D-01
     11  0.164120D+02  0.774425D+01  0.430926D+00  0.218884D-01  0.168684D-01
     12  0.349724D+01  0.104874D+01 -0.725732D+00 -0.429289D-01 -0.137904D-01
     13 -0.743972D+00  0.222815D+01  0.175491D+00  0.159227D-02 -0.644693D-03
     14  0.158118D+01 -0.721294D+00  0.369125D+00  0.443712D-01  0.128331D-01
     15  0.146640D+01 -0.575630D+00  0.155902D+00  0.188708D-01  0.108471D-01
     16  0.757367D+01 -0.211933D+00 -0.237941D-01  0.822432D-02  0.599046D-04
     17  0.359288D+00 -0.742431D+00  0.165353D+01 -0.109108D-01  0.122126D-01
     18 -0.314715D+00  0.177079D+01 -0.597819D+00 -0.222005D-02 -0.384061D-03
     19 -0.127564D-01  0.816623D+00 -0.448858D-01  0.122951D-02  0.302053D-03
     20  0.398995D+00  0.245640D+00  0.553988D+00  0.110285D-01  0.658452D-04
     21  0.563245D+00  0.199647D+00  0.829577D+00 -0.594052D-02 -0.778061D-03
     22 -0.528794D+00 -0.795940D+00 -0.962770D+00 -0.336666D-01 -0.361698D-02
     23  0.106119D+01 -0.106973D+01  0.762967D+01  0.340232D+02 -0.427316D+01
     24  0.406362D-01  0.639062D+01 -0.370612D+00 -0.628637D+01  0.385950D+01
     25 -0.308008D-01  0.129792D+01  0.290640D-01  0.167643D+00  0.222464D+01
     26  0.745056D-01 -0.106171D+00 -0.535019D-02  0.346196D+01 -0.143452D+00
     27  0.523419D-02 -0.554214D-01  0.113137D+00  0.106766D+02  0.123763D+00
     28 -0.284346D-01  0.159598D+00  0.141467D+00  0.225650D+01 -0.199187D+00
     29 -0.108831D+01  0.316708D+02 -0.584813D+01  0.348546D+00  0.112408D+02
     30  0.870071D+01 -0.750710D+01  0.509905D+01  0.224640D+01  0.549479D+00
     31  0.164959D+01 -0.319639D+01  0.382036D+01  0.876897D+01  0.107654D+01
                6             7             8             9            10 
      6  0.385007D+12
      7 -0.234337D+02  0.385007D+12
      8 -0.218413D+00 -0.922486D-01  0.708114D+10
      9 -0.132588D-02  0.148323D+00 -0.984416D-01  0.201170D+10
     10  0.479749D-02 -0.655078D-02 -0.150198D-01  0.712548D+02  0.385007D+12
     11  0.481691D-01 -0.508048D-02 -0.197875D+01  0.174835D+00  0.447527D+00
     12 -0.155857D-01  0.215853D-02 -0.203358D+01  0.109638D+00  0.765718D-02
     13  0.690767D-01  0.176367D-02 -0.698085D+00  0.170510D+00  0.148922D+00
     14  0.240903D+00  0.957656D-02 -0.103644D+01 -0.114142D-01 -0.478414D-01
     15  0.532684D-01  0.106764D-03 -0.103508D+01 -0.248350D-02 -0.362620D-01
     16  0.176134D-01 -0.195965D-04 -0.763486D+00  0.459016D-01 -0.303704D-01
     17 -0.451095D-02  0.593009D-01 -0.316702D-01  0.150388D+02  0.319224D+01
     18 -0.427631D-04  0.446039D-02 -0.834601D-01  0.720042D+01  0.712200D+00
     19  0.608915D-03  0.112007D-02  0.366715D-02  0.778047D+00 -0.311919D+00
     20 -0.707882D-03 -0.111236D-02 -0.164460D-01  0.938351D+00 -0.155679D+00
     21  0.452405D-03  0.488892D-02 -0.153915D-01  0.726271D+00 -0.537931D+00
     22 -0.421310D-02 -0.128366D-02  0.332800D+00 -0.180981D+01 -0.188223D+01
     23 -0.477866D+01 -0.608802D+01 -0.106529D+01  0.620174D+00 -0.251897D+00
     24  0.475524D+01  0.120352D+02 -0.141012D+00  0.160232D+00 -0.467676D+00
     25  0.112561D+02  0.372232D+01 -0.116253D+00  0.530559D-01 -0.108772D+00
     26 -0.276030D+00 -0.404562D+00 -0.257016D+00  0.292556D-01 -0.231994D-01
     27  0.251781D+01 -0.311889D+00 -0.270627D-01  0.204614D+00 -0.477133D+00
     28  0.145490D+00 -0.140297D+00 -0.510007D-02  0.127755D-01 -0.397161D-02
     29  0.250775D+01  0.345597D+01 -0.216672D+00  0.377809D+00  0.392993D+01
     30  0.878683D-01 -0.189775D+00 -0.367373D+00  0.128667D+01 -0.576246D+00
     31 -0.258764D+00 -0.439571D+00  0.436466D-01  0.428231D+01 -0.638403D+00
               11            12            13            14            15 
     11  0.201170D+10
     12  0.704990D+02  0.385007D+12
     13  0.964086D+01  0.253110D+01  0.243533D+11
     14 -0.136477D+01  0.207940D+01  0.154026D+03  0.385007D+12
     15 -0.116554D+01  0.478044D+01  0.159327D+03 -0.228985D+02  0.385007D+12
     16 -0.867643D+00  0.898770D+01  0.143295D+03 -0.228234D+02 -0.238191D+02
     17 -0.295419D-01  0.453115D-02 -0.931050D-02  0.199291D-03 -0.261317D-02
     18  0.691489D-02  0.540289D-02  0.173343D-01  0.167842D-01  0.124736D-01
     19  0.159488D-01  0.275073D-02  0.170641D-02 -0.269797D-02 -0.173416D-02
     20 -0.698901D-02 -0.529773D-02 -0.297944D-02  0.364352D-03 -0.156225D-02
     21  0.251079D-01 -0.309417D-02  0.136562D-01  0.437516D-02 -0.165582D-02
     22 -0.567298D-01  0.878780D-02 -0.273655D-02 -0.371440D-01 -0.227571D-01
     23 -0.144705D-01  0.497781D-01 -0.531391D-02 -0.165325D-01 -0.163056D-01
     24  0.514743D-01 -0.341059D-01 -0.133743D-01  0.237330D-01  0.136123D-01
     25  0.632055D-02 -0.858761D-02 -0.787273D-02  0.119640D-01  0.100899D-01
     26  0.218114D-02  0.170817D-02  0.496583D-02 -0.228339D-02 -0.760757D-03
     27  0.627755D-02 -0.164658D-02 -0.174110D-03  0.162742D-01  0.696310D-02
     28  0.291236D-02 -0.673314D-02 -0.444896D-02  0.925037D-02  0.128515D-01
     29  0.971315D-01 -0.318085D+00 -0.250984D+00  0.641861D+00  0.767827D+00
     30 -0.427658D-01 -0.170818D+00 -0.193336D-01  0.120545D+00  0.140266D+00
     31  0.581275D-01 -0.181855D+00 -0.155942D-01  0.253306D-01  0.215750D-01
               16            17            18            19            20 
     16  0.385007D+12
     17 -0.989689D-03  0.243533D+11
     18  0.129881D-02  0.537107D+02  0.243533D+11
     19  0.374227D-03 -0.595569D+01  0.133693D+03  0.385007D+12
     20  0.309733D-02 -0.920029D+01  0.141281D+03 -0.223199D+02  0.385007D+12
     21  0.107184D-01 -0.949644D+01  0.140485D+03 -0.234931D+02 -0.288028D+02
     22 -0.896422D-02  0.101214D+02 -0.397135D+01 -0.350638D+01 -0.181113D+01
     23  0.649727D-02 -0.679036D-01  0.508418D-01 -0.139598D-01 -0.112374D-01
     24 -0.875856D-04  0.534147D-01 -0.165842D-01  0.610207D-02  0.248503D-01
     25  0.202252D-02  0.935260D-01 -0.110647D-01 -0.338455D-02 -0.165299D-02
     26  0.158172D-02  0.994848D-02  0.788699D-03  0.246994D-02  0.238885D-02
     27  0.314307D-03  0.528669D-01  0.121988D-02  0.183652D-01  0.123862D-02
     28  0.404077D-03  0.171652D-01  0.657083D-03 -0.134444D-02  0.109925D-03
     29  0.118335D-01  0.294994D+01 -0.818048D-01 -0.150661D-01  0.529865D-01
     30  0.475569D-02 -0.118056D+00  0.962712D-01 -0.546648D-02 -0.130995D-01
     31  0.116251D-01  0.107466D+01  0.475462D+00 -0.447189D-02  0.473424D-01
               21            22            23            24            25 
     21  0.385007D+12
     22 -0.189751D+01  0.708114D+10
     23 -0.851874D-02 -0.108459D+00  0.243533D+11
     24 -0.471834D-02 -0.669081D-01  0.139733D+03  0.385007D+12
     25 -0.245532D-02 -0.263339D-02  0.333819D+02 -0.563221D+01  0.243533D+11
     26  0.348601D-03  0.106464D-02 -0.636593D+01  0.130698D+02  0.135201D+03
     27 -0.141532D-02 -0.498120D-02 -0.430042D+01  0.500573D+01  0.132733D+03
     28 -0.372060D-03 -0.247313D-02 -0.415763D+01  0.380450D+01  0.137729D+03
     29 -0.211613D-01 -0.154701D+00  0.337245D+02 -0.574595D+01  0.388421D+00
     30 -0.139004D-01 -0.292122D-02 -0.436241D+01  0.212531D+01  0.889854D+01
     31 -0.617014D-01  0.429694D-01 -0.491801D+01  0.318809D+01  0.156732D+01
               26            27            28            29            30 
     26  0.385007D+12
     27 -0.234312D+02  0.385007D+12
     28 -0.236448D+02 -0.236324D+02  0.385007D+12
     29  0.352457D+01  0.227198D+01  0.112180D+02  0.243533D+11
     30 -0.410281D+00 -0.390340D+00  0.957298D+00  0.136314D+03  0.385007D+12
     31 -0.166425D+00 -0.233949D-01  0.169396D+00  0.137029D+03 -0.280029D+02
               31 
     31  0.385007D+12
 End of Minotr F.D. properties file   721 does not exist.
 End of Minotr F.D. properties file   722 does not exist.
 End of Minotr F.D. properties file   788 does not exist.
 Leave Link 1002 at Wed Jun 18 22:12:05 2014, MaxMem=  4294967296 cpu:    376642.8
 (Enter /home/ztw1e12/g09/l601.exe)
 Copying SCF densities to generalized density rwf, IOpCl= 0 IROHF=0.

 **********************************************************************

            Population analysis using the SCF density.

 **********************************************************************

 Orbital symmetries:
       Occupied  (A) (A) (A) (A) (A) (A) (A) (A) (A) (A) (A) (A)
                 (A) (A) (A) (A) (A) (A) (A) (A) (A) (A) (A) (A)
                 (A) (A) (A) (A) (A) (A) (A) (A) (A) (A) (A) (A)
                 (A) (A) (A) (A) (A) (A) (A) (A) (A) (A) (A) (A)
                 (A) (A) (A)
       Virtual   (A) (A) (A) (A) (A) (A) (A) (A) (A) (A) (A) (A)
                 (A) (A) (A) (A) (A) (A) (A) (A) (A) (A) (A) (A)
                 (A) (A) (A) (A) (A) (A) (A) (A) (A) (A) (A) (A)
                 (A) (A) (A) (A) (A) (A) (A) (A) (A) (A) (A) (A)
                 (A) (A) (A) (A) (A) (A) (A) (A) (A) (A) (A) (A)
                 (A) (A) (A) (A) (A) (A) (A) (A) (A) (A) (A) (A)
                 (A) (A) (A) (A) (A) (A) (A) (A) (A) (A) (A) (A)
                 (A) (A) (A) (A) (A) (A) (A) (A) (A) (A) (A) (A)
                 (A) (A) (A) (A) (A) (A) (A) (A) (A) (A) (A) (A)
                 (A) (A) (A) (A) (A) (A) (A) (A) (A) (A) (A) (A)
                 (A) (A) (A) (A) (A) (A) (A) (A) (A) (A) (A) (A)
                 (A) (A) (A) (A) (A) (A) (A) (A) (A) (A) (A) (A)
                 (A) (A) (A) (A) (A) (A) (A) (A) (A) (A) (A) (A)
                 (A) (A) (A) (A) (A) (A) (A) (A) (A) (A) (A) (A)
                 (A) (A) (A) (A) (A) (A) (A) (A) (A) (A) (A) (A)
                 (A) (A) (A) (A) (A) (A) (A) (A) (A) (A) (A) (A)
                 (A) (A) (A) (A) (A) (A) (A) (A) (A) (A) (A) (A)
                 (A) (A) (A) (A) (A) (A) (A) (A) (A) (A) (A) (A)
                 (A) (A) (A) (A) (A) (A) (A) (A) (A) (A) (A) (A)
                 (A) (A) (A) (A) (A) (A) (A) (A) (A) (A) (A) (A)
                 (A) (A) (A) (A) (A) (A) (A) (A) (A) (A) (A) (A)
                 (A) (A) (A) (A) (A) (A) (A) (A) (A) (A) (A) (A)
                 (A) (A) (A) (A) (A) (A) (A) (A) (A) (A) (A) (A)
                 (A) (A) (A) (A) (A) (A) (A) (A) (A) (A) (A) (A)
                 (A) (A) (A) (A) (A) (A) (A) (A) (A) (A) (A) (A)
                 (A) (A) (A) (A) (A) (A) (A) (A) (A) (A) (A) (A)
                 (A) (A) (A) (A) (A) (A) (A) (A) (A) (A) (A) (A)
                 (A) (A) (A) (A) (A) (A) (A) (A) (A) (A) (A) (A)
                 (A) (A) (A) (A) (A) (A) (A) (A) (A) (A) (A) (A)
                 (A) (A) (A) (A) (A) (A) (A) (A) (A) (A) (A) (A)
                 (A) (A) (A) (A) (A) (A) (A) (A) (A) (A) (A) (A)
                 (A) (A) (A) (A) (A) (A) (A) (A) (A) (A) (A) (A)
                 (A) (A) (A) (A) (A) (A) (A) (A) (A) (A) (A) (A)
                 (A) (A) (A) (A) (A) (A) (A) (A) (A) (A) (A) (A)
                 (A) (A) (A) (A) (A) (A) (A) (A) (A) (A) (A) (A)
                 (A) (A) (A) (A) (A) (A) (A) (A) (A) (A) (A) (A)
                 (A) (A) (A) (A) (A) (A) (A) (A) (A) (A) (A) (A)
                 (A) (A) (A) (A) (A) (A) (A) (A) (A) (A) (A) (A)
                 (A) (A) (A) (A) (A) (A) (A) (A) (A) (A) (A) (A)
                 (A) (A) (A) (A) (A) (A) (A) (A) (A) (A) (A) (A)
                 (A) (A) (A) (A) (A) (A) (A) (A) (A) (A) (A) (A)
                 (A) (A) (A) (A) (A) (A) (A) (A) (A) (A) (A) (A)
                 (A) (A) (A) (A) (A) (A) (A) (A) (A) (A) (A) (A)
                 (A) (A) (A) (A) (A) (A) (A) (A) (A) (A) (A) (A)
                 (A) (A) (A) (A) (A) (A) (A) (A) (A) (A) (A) (A)
                 (A) (A) (A) (A) (A) (A) (A) (A) (A) (A) (A) (A)
                 (A) (A) (A) (A) (A) (A) (A) (A) (A) (A) (A) (A)
                 (A) (A) (A) (A) (A) (A) (A) (A) (A) (A) (A) (A)
                 (A) (A) (A) (A) (A) (A) (A) (A) (A) (A) (A) (A)
                 (A) (A) (A) (A) (A) (A) (A) (A) (A) (A) (A) (A)
                 (A) (A) (A) (A) (A) (A) (A) (A) (A) (A) (A) (A)
                 (A) (A) (A) (A) (A) (A) (A) (A) (A) (A) (A) (A)
                 (A) (A) (A) (A) (A) (A) (A) (A) (A) (A) (A) (A)
                 (A) (A) (A) (A) (A) (A) (A) (A) (A) (A) (A) (A)
                 (A) (A) (A) (A) (A) (A) (A) (A) (A) (A) (A) (A)
                 (A) (A) (A) (A) (A) (A) (A) (A) (A) (A) (A) (A)
                 (A) (A) (A) (A) (A) (A) (A) (A) (A) (A) (A) (A)
                 (A) (A) (A) (A) (A) (A) (A) (A) (A) (A) (A) (A)
                 (A) (A) (A) (A) (A) (A) (A) (A) (A) (A) (A) (A)
                 (A) (A) (A) (A) (A) (A) (A) (A) (A) (A) (A) (A)
                 (A) (A) (A) (A) (A) (A) (A) (A) (A) (A) (A) (A)
                 (A) (A) (A) (A) (A) (A) (A) (A) (A) (A) (A) (A)
                 (A) (A) (A) (A) (A) (A) (A) (A) (A) (A) (A) (A)
                 (A) (A) (A) (A) (A) (A) (A) (A) (A) (A) (A) (A)
                 (A) (A) (A) (A) (A) (A) (A) (A) (A) (A) (A) (A)
                 (A) (A) (A) (A) (A) (A) (A) (A) (A) (A) (A) (A)
                 (A) (A) (A) (A) (A) (A) (A) (A) (A) (A) (A) (A)
                 (A) (A) (A) (A) (A) (A) (A) (A) (A) (A) (A) (A)
                 (A) (A) (A) (A) (A) (A) (A) (A) (A) (A) (A) (A)
                 (A) (A) (A) (A) (A) (A) (A) (A) (A) (A) (A) (A)
                 (A) (A) (A) (A) (A) (A) (A) (A) (A) (A) (A) (A)
                 (A) (A) (A) (A) (A) (A) (A) (A) (A) (A) (A) (A)
                 (A) (A) (A) (A) (A) (A) (A) (A) (A) (A) (A) (A)
                 (A) (A) (A) (A) (A)
 The electronic state is 1-A.
 Alpha  occ. eigenvalues --  -19.17128 -19.16485 -14.41785 -14.41515 -10.33378
 Alpha  occ. eigenvalues --  -10.33367 -10.29218 -10.27095 -10.25462 -10.24929
 Alpha  occ. eigenvalues --  -10.23804 -10.23671 -10.23164  -1.05367  -1.04084
 Alpha  occ. eigenvalues --   -0.94396  -0.94151  -0.83784  -0.78610  -0.74322
 Alpha  occ. eigenvalues --   -0.71980  -0.70326  -0.65866  -0.60701  -0.59744
 Alpha  occ. eigenvalues --   -0.58664  -0.54526  -0.50763  -0.49763  -0.48015
 Alpha  occ. eigenvalues --   -0.46812  -0.46412  -0.45474  -0.45116  -0.44434
 Alpha  occ. eigenvalues --   -0.42777  -0.41611  -0.40936  -0.40522  -0.40271
 Alpha  occ. eigenvalues --   -0.40102  -0.38171  -0.37599  -0.36540  -0.35105
 Alpha  occ. eigenvalues --   -0.34402  -0.34041  -0.28310  -0.27464  -0.26158
 Alpha  occ. eigenvalues --   -0.25963
 Alpha virt. eigenvalues --    0.01304   0.02075   0.02657   0.03717   0.04523
 Alpha virt. eigenvalues --    0.05193   0.06760   0.07068   0.07769   0.08455
 Alpha virt. eigenvalues --    0.09911   0.10416   0.10642   0.11163   0.11968
 Alpha virt. eigenvalues --    0.12410   0.12712   0.13244   0.14024   0.14833
 Alpha virt. eigenvalues --    0.16021   0.17324   0.18085   0.18800   0.19896
 Alpha virt. eigenvalues --    0.20156   0.22851   0.23208   0.23566   0.24599
 Alpha virt. eigenvalues --    0.25772   0.26322   0.27170   0.27380   0.27615
 Alpha virt. eigenvalues --    0.28662   0.30008   0.30703   0.30982   0.31843
 Alpha virt. eigenvalues --    0.32504   0.33580   0.34683   0.35117   0.35494
 Alpha virt. eigenvalues --    0.36877   0.37743   0.38479   0.38802   0.38859
 Alpha virt. eigenvalues --    0.39228   0.40153   0.40520   0.40713   0.41062
 Alpha virt. eigenvalues --    0.41574   0.41874   0.42149   0.42640   0.43253
 Alpha virt. eigenvalues --    0.43471   0.44135   0.44489   0.44902   0.45611
 Alpha virt. eigenvalues --    0.45961   0.46380   0.47496   0.48183   0.49142
 Alpha virt. eigenvalues --    0.49577   0.50394   0.51642   0.51905   0.52671
 Alpha virt. eigenvalues --    0.52947   0.53926   0.54149   0.55083   0.56561
 Alpha virt. eigenvalues --    0.57251   0.58968   0.59752   0.60449   0.61522
 Alpha virt. eigenvalues --    0.62267   0.63011   0.65202   0.65842   0.67745
 Alpha virt. eigenvalues --    0.68066   0.70553   0.71746   0.72743   0.73135
 Alpha virt. eigenvalues --    0.74098   0.75624   0.76993   0.77519   0.79061
 Alpha virt. eigenvalues --    0.79693   0.80253   0.82296   0.83267   0.84017
 Alpha virt. eigenvalues --    0.84579   0.85353   0.85923   0.86326   0.86689
 Alpha virt. eigenvalues --    0.88413   0.88901   0.89476   0.90521   0.91290
 Alpha virt. eigenvalues --    0.92062   0.93151   0.93689   0.94234   0.94721
 Alpha virt. eigenvalues --    0.95604   0.96063   0.96647   0.97129   0.97683
 Alpha virt. eigenvalues --    0.98188   0.98983   0.99634   1.00810   1.01318
 Alpha virt. eigenvalues --    1.02103   1.03055   1.03798   1.04137   1.04950
 Alpha virt. eigenvalues --    1.07414   1.08751   1.09315   1.09979   1.11135
 Alpha virt. eigenvalues --    1.12175   1.12839   1.13273   1.14106   1.14613
 Alpha virt. eigenvalues --    1.15279   1.16168   1.16658   1.18013   1.18950
 Alpha virt. eigenvalues --    1.19394   1.19680   1.20028   1.20685   1.21151
 Alpha virt. eigenvalues --    1.21652   1.22306   1.22899   1.23041   1.23650
 Alpha virt. eigenvalues --    1.24512   1.24663   1.25301   1.25490   1.26511
 Alpha virt. eigenvalues --    1.26770   1.27479   1.27799   1.28670   1.29308
 Alpha virt. eigenvalues --    1.30057   1.30511   1.30976   1.31906   1.32267
 Alpha virt. eigenvalues --    1.33607   1.34473   1.34618   1.36031   1.36275
 Alpha virt. eigenvalues --    1.37705   1.37899   1.39350   1.41144   1.41726
 Alpha virt. eigenvalues --    1.42487   1.44597   1.46384   1.46830   1.48133
 Alpha virt. eigenvalues --    1.50078   1.50454   1.50823   1.54194   1.54400
 Alpha virt. eigenvalues --    1.56704   1.56918   1.58115   1.62058   1.63280
 Alpha virt. eigenvalues --    1.64283   1.67201   1.68117   1.69172   1.72626
 Alpha virt. eigenvalues --    1.74103   1.75696   1.77544   1.79563   1.82701
 Alpha virt. eigenvalues --    1.84736   1.88191   1.88952   1.90698   1.93027
 Alpha virt. eigenvalues --    1.93463   1.94608   1.97264   1.97948   1.99416
 Alpha virt. eigenvalues --    2.00680   2.01557   2.03248   2.03926   2.05596
 Alpha virt. eigenvalues --    2.08073   2.08433   2.11925   2.13938   2.15730
 Alpha virt. eigenvalues --    2.17732   2.18526   2.19193   2.19554   2.21595
 Alpha virt. eigenvalues --    2.23493   2.25395   2.27204   2.27733   2.30649
 Alpha virt. eigenvalues --    2.31223   2.32579   2.36506   2.37271   2.39805
 Alpha virt. eigenvalues --    2.41298   2.41881   2.42752   2.43439   2.43745
 Alpha virt. eigenvalues --    2.44936   2.46201   2.46456   2.47607   2.50649
 Alpha virt. eigenvalues --    2.50967   2.52288   2.52778   2.54145   2.54765
 Alpha virt. eigenvalues --    2.55208   2.57852   2.58240   2.60453   2.61833
 Alpha virt. eigenvalues --    2.63277   2.65116   2.66352   2.68327   2.68872
 Alpha virt. eigenvalues --    2.70743   2.71041   2.72017   2.72489   2.73216
 Alpha virt. eigenvalues --    2.73784   2.75494   2.76228   2.76721   2.78626
 Alpha virt. eigenvalues --    2.79483   2.80449   2.81372   2.82283   2.82917
 Alpha virt. eigenvalues --    2.83761   2.84340   2.85039   2.86440   2.87794
 Alpha virt. eigenvalues --    2.88392   2.88469   2.88879   2.89370   2.90925
 Alpha virt. eigenvalues --    2.91985   2.92274   2.92453   2.93711   2.94130
 Alpha virt. eigenvalues --    2.95114   2.95596   2.96586   2.97013   2.98033
 Alpha virt. eigenvalues --    2.98912   2.99061   2.99568   3.01433   3.01967
 Alpha virt. eigenvalues --    3.03139   3.03684   3.04614   3.06145   3.07058
 Alpha virt. eigenvalues --    3.07607   3.08265   3.08900   3.10245   3.10798
 Alpha virt. eigenvalues --    3.11345   3.12368   3.13416   3.14164   3.14949
 Alpha virt. eigenvalues --    3.16040   3.16880   3.18651   3.18963   3.20955
 Alpha virt. eigenvalues --    3.21085   3.21440   3.23388   3.23822   3.24433
 Alpha virt. eigenvalues --    3.25193   3.26379   3.26613   3.27234   3.28297
 Alpha virt. eigenvalues --    3.28758   3.29275   3.30185   3.30839   3.32276
 Alpha virt. eigenvalues --    3.32533   3.32731   3.34276   3.34948   3.35554
 Alpha virt. eigenvalues --    3.36728   3.37433   3.37716   3.38713   3.39571
 Alpha virt. eigenvalues --    3.40990   3.41411   3.41813   3.42483   3.42896
 Alpha virt. eigenvalues --    3.43481   3.44925   3.45661   3.46207   3.47457
 Alpha virt. eigenvalues --    3.48590   3.50025   3.50363   3.51110   3.52044
 Alpha virt. eigenvalues --    3.54248   3.55672   3.56839   3.57709   3.58827
 Alpha virt. eigenvalues --    3.60185   3.62210   3.63596   3.64119   3.65194
 Alpha virt. eigenvalues --    3.65441   3.67455   3.69848   3.70105   3.71309
 Alpha virt. eigenvalues --    3.72166   3.73151   3.73375   3.74177   3.74759
 Alpha virt. eigenvalues --    3.76773   3.77682   3.78153   3.79415   3.80729
 Alpha virt. eigenvalues --    3.81434   3.82212   3.83010   3.83682   3.84353
 Alpha virt. eigenvalues --    3.85563   3.86243   3.86781   3.88061   3.88714
 Alpha virt. eigenvalues --    3.89750   3.92616   3.92967   3.93859   3.94779
 Alpha virt. eigenvalues --    3.96166   3.96636   3.98163   3.99525   4.00086
 Alpha virt. eigenvalues --    4.00307   4.01084   4.02934   4.04826   4.05542
 Alpha virt. eigenvalues --    4.06401   4.06797   4.07752   4.08532   4.09383
 Alpha virt. eigenvalues --    4.10156   4.11629   4.12369   4.13415   4.13499
 Alpha virt. eigenvalues --    4.14714   4.15485   4.16168   4.17201   4.19367
 Alpha virt. eigenvalues --    4.20484   4.21884   4.22631   4.23240   4.23792
 Alpha virt. eigenvalues --    4.25410   4.26124   4.27640   4.28573   4.28970
 Alpha virt. eigenvalues --    4.30342   4.30828   4.32057   4.32896   4.35537
 Alpha virt. eigenvalues --    4.35954   4.37293   4.39074   4.42396   4.43027
 Alpha virt. eigenvalues --    4.44032   4.44752   4.46746   4.47377   4.49763
 Alpha virt. eigenvalues --    4.50593   4.52032   4.54028   4.54895   4.55619
 Alpha virt. eigenvalues --    4.58187   4.58339   4.59284   4.60520   4.61440
 Alpha virt. eigenvalues --    4.61840   4.63261   4.64732   4.65080   4.65686
 Alpha virt. eigenvalues --    4.66963   4.69027   4.69384   4.70844   4.71606
 Alpha virt. eigenvalues --    4.72034   4.72833   4.74380   4.76523   4.77422
 Alpha virt. eigenvalues --    4.78392   4.79673   4.79853   4.81532   4.82168
 Alpha virt. eigenvalues --    4.84923   4.86291   4.88639   4.90205   4.91768
 Alpha virt. eigenvalues --    4.92484   4.93552   4.94499   4.95146   4.95710
 Alpha virt. eigenvalues --    4.96282   4.98424   5.00455   5.01584   5.01672
 Alpha virt. eigenvalues --    5.02895   5.04060   5.05584   5.06437   5.10326
 Alpha virt. eigenvalues --    5.11160   5.12399   5.13299   5.14514   5.15448
 Alpha virt. eigenvalues --    5.16228   5.16931   5.17473   5.19271   5.19988
 Alpha virt. eigenvalues --    5.21318   5.21915   5.23033   5.23414   5.24034
 Alpha virt. eigenvalues --    5.25234   5.25686   5.27033   5.29099   5.29332
 Alpha virt. eigenvalues --    5.30147   5.32552   5.35839   5.36234   5.39457
 Alpha virt. eigenvalues --    5.39799   5.43782   5.44005   5.45148   5.49752
 Alpha virt. eigenvalues --    5.52416   5.54028   5.55471   5.58192   5.59665
 Alpha virt. eigenvalues --    5.60415   5.62656   5.63238   5.65165   5.65518
 Alpha virt. eigenvalues --    5.67471   5.68643   5.69217   5.72013   5.72612
 Alpha virt. eigenvalues --    5.74411   5.75768   5.76644   5.77047   5.78086
 Alpha virt. eigenvalues --    5.79140   5.80959   5.81437   5.84366   5.88148
 Alpha virt. eigenvalues --    5.90388   5.93693   5.98368   6.00876   6.06090
 Alpha virt. eigenvalues --    6.11080   6.18650   6.21763   6.22624   6.26196
 Alpha virt. eigenvalues --    6.52773   6.54299   6.58097   6.61875   6.64477
 Alpha virt. eigenvalues --    6.67631   6.77966   6.81382   6.90253   6.91707
 Alpha virt. eigenvalues --    6.92413   6.93866   7.18103   7.20308   7.24433
 Alpha virt. eigenvalues --    7.26859   8.13007   8.28557   8.66847   8.73444
 Alpha virt. eigenvalues --    8.77836   8.78751   8.82594   8.82891   8.83868
 Alpha virt. eigenvalues --    8.85345   8.86295   8.88340   8.89897   8.92948
 Alpha virt. eigenvalues --    8.93846   8.96424   8.96825   8.98081   9.00532
 Alpha virt. eigenvalues --    9.03539   9.07502   9.12633   9.15186   9.19445
 Alpha virt. eigenvalues --    9.23484   9.59688   9.62161   9.77300   9.83286
 Alpha virt. eigenvalues --    9.88685   9.94434  10.11208  10.11834  10.15000
 Alpha virt. eigenvalues --   10.18213  10.19068  10.21040  10.21689  10.23622
 Alpha virt. eigenvalues --   10.26572  10.27749  10.29451  10.31528  10.33251
 Alpha virt. eigenvalues --   10.38053  11.75629  11.80565  12.03995  12.14409
 Alpha virt. eigenvalues --   12.17277  12.20361  12.21604  12.24529  12.33052
 Alpha virt. eigenvalues --   12.41551  12.44079  12.55530  12.58799  12.83307
 Alpha virt. eigenvalues --   12.92834  14.97119  15.02892  15.24026  15.26557
 Alpha virt. eigenvalues --   15.99607  16.04583  16.83693  16.89296  22.01232
 Alpha virt. eigenvalues --   22.10705  40.17046  40.26336  40.66537  40.68825
 Alpha virt. eigenvalues --   40.69854  40.72657  40.74176  40.75503  40.77349
 Alpha virt. eigenvalues --   40.78105  40.80056  40.80490  40.81502  40.82758
 Alpha virt. eigenvalues --   40.83528  40.83804  40.84402  40.84746  40.85583
 Alpha virt. eigenvalues --   40.86823  40.87881  40.89123  40.90330  40.90630
 Alpha virt. eigenvalues --   40.91067  40.94830  40.97453  46.34119  46.45153
 Alpha virt. eigenvalues --   46.49252  46.51928  46.53761  46.56988  46.65103
 Alpha virt. eigenvalues --   46.75776  46.77282  54.44787  54.47699  55.77919
 Alpha virt. eigenvalues --   55.83869  55.96234  55.97681  56.04997  56.17422
 Alpha virt. eigenvalues --   56.20443  56.23086  56.25910  56.30449  56.37831
 Alpha virt. eigenvalues --   56.42630  56.46148  56.47362  56.49869  56.56072
 Alpha virt. eigenvalues --   57.46571  57.49542  57.99316  58.01942  58.19327
 Alpha virt. eigenvalues --   58.25375  64.70975  64.76152  73.94230  73.97610
 Alpha virt. eigenvalues --   74.09846  74.10789  74.63783  74.66467  86.06992
 Alpha virt. eigenvalues --   86.15469 165.43418 165.53330 165.57858 165.60108
 Alpha virt. eigenvalues --  165.62421 165.64632 165.71308 165.80970 165.82753
 Alpha virt. eigenvalues --  226.54572 226.61329 230.58146 230.63028 235.49071
 Alpha virt. eigenvalues --  235.80294 236.25060 236.33326 236.41895 236.85745
 Alpha virt. eigenvalues --  237.15667 237.37887 237.45771 237.50681 237.71587
 Alpha virt. eigenvalues --  237.85971 237.97836 238.01369 238.17513 238.31280
 Alpha virt. eigenvalues --  308.80579 308.88142 624.54757 624.60832 624.64327
 Alpha virt. eigenvalues --  624.67427 624.68655 624.71287 624.76767 624.83963
 Alpha virt. eigenvalues --  624.85414 794.37952 794.50935 825.77368 827.08645
 Alpha virt. eigenvalues --  827.41802 827.51772 828.01613 829.53302 830.41044
 Alpha virt. eigenvalues --  830.52662 831.17426 831.33320 831.82391 832.26532
 Alpha virt. eigenvalues --  832.54538 832.62070 833.11541 833.77243 868.34169
 Alpha virt. eigenvalues --  868.391001165.933501166.002752485.227672485.40648
 Alpha virt. eigenvalues -- 2587.698262589.444782594.590022596.308792597.14870
 Alpha virt. eigenvalues -- 2597.336632601.800942602.062692604.898392605.34892
 Alpha virt. eigenvalues -- 2606.624662607.543452607.799502609.853872611.10743
 Alpha virt. eigenvalues -- 2612.213362740.320772740.341422740.381172740.40885
 Alpha virt. eigenvalues -- 2740.441282740.518792740.534142740.541732740.56570
 Alpha virt. eigenvalues -- 3787.319343787.370425073.315375073.377118292.07634
 Alpha virt. eigenvalues -- 8295.852738626.348038635.138538636.653218637.01894
 Alpha virt. eigenvalues -- 8645.048328654.175718658.272458661.761088668.88899
 Alpha virt. eigenvalues -- 8670.127028674.106328676.177018678.444948680.52015
 Alpha virt. eigenvalues -- 8684.546898690.40506******************************
 Alpha virt. eigenvalues -- **************************************************
 Alpha virt. eigenvalues -- **************************************************
 Alpha virt. eigenvalues -- **************************************************
 Alpha virt. eigenvalues -- **************************************************
 Alpha virt. eigenvalues -- **************************************************
 Alpha virt. eigenvalues -- **************************************************
 Alpha virt. eigenvalues -- **************************************************
 Alpha virt. eigenvalues -- **********
          Condensed to atoms (all electrons):
               1          2          3          4          5          6
     1  C    4.643554   0.178059  -0.055635   0.002328  -0.000125   0.002187
     2  C    0.178059   5.235537   0.403076  -0.004089  -0.000318  -0.003596
     3  H   -0.055635   0.403076   0.501051  -0.000281   0.000034  -0.000066
     4  C    0.002328  -0.004089  -0.000281   4.970278   0.404610   0.402970
     5  H   -0.000125  -0.000318   0.000034   0.404610   0.538565  -0.006726
     6  H    0.002187  -0.003596  -0.000066   0.402970  -0.006726   0.524051
     7  H   -0.000223   0.001603  -0.000042   0.405854  -0.023776  -0.026115
     8  O    0.696667  -0.091840   0.004915  -0.000389   0.000083  -0.000762
     9  N   -0.059997   0.321834  -0.030983   0.000639   0.000002   0.000174
    10  H    0.001382  -0.039284   0.002971   0.000285   0.000028  -0.000020
    11  N    0.342458  -0.108624   0.003877  -0.002440   0.000002   0.001616
    12  H   -0.022378   0.011065   0.000656   0.000072  -0.000002   0.000266
    13  C   -0.048878   0.010882  -0.001163  -0.000116  -0.000005   0.000073
    14  H    0.003074   0.001639   0.000097   0.000514  -0.000006   0.000052
    15  H   -0.009489  -0.000998  -0.000278  -0.000025  -0.000001   0.000101
    16  H    0.006243   0.000566  -0.000178   0.000023   0.000000  -0.000062
    17  C   -0.005870  -0.060034   0.002795  -0.000045   0.000000   0.000015
    18  C   -0.006117   0.017030   0.001663  -0.000004   0.000000   0.000000
    19  H    0.000611  -0.000274  -0.000300   0.000001   0.000000   0.000000
    20  H   -0.000131  -0.000519   0.000191   0.000000   0.000000   0.000000
    21  H    0.000845  -0.000771  -0.000152  -0.000001   0.000000   0.000000
    22  O   -0.002989   0.022117   0.012958   0.000000   0.000000   0.000000
[...]
 Alpha virt. eigenvalues --    4.85838   4.86394   4.87472   4.89024   4.90513
 Alpha virt. eigenvalues --    4.91149   4.92629   4.94081   4.94437   4.95835
 Alpha virt. eigenvalues --    4.96240   4.98619   5.00129   5.00369   5.01919
 Alpha virt. eigenvalues --    5.02966   5.03267   5.04443   5.05562   5.06790
 Alpha virt. eigenvalues --    5.08376   5.08816   5.10235   5.12322   5.13023
 Alpha virt. eigenvalues --    5.13690   5.14175   5.15741   5.16652   5.18488
 Alpha virt. eigenvalues --    5.19286   5.19771   5.20359   5.21372   5.22082
 Alpha virt. eigenvalues --    5.22997   5.24368   5.24580   5.25887   5.26220
 Alpha virt. eigenvalues --    5.27192   5.28486   5.30096   5.31017   5.31448
 Alpha virt. eigenvalues --    5.33862   5.35112   5.36575   5.38497   5.39902
 Alpha virt. eigenvalues --    5.42273   5.45340   5.48998   5.49407   5.53966
 Alpha virt. eigenvalues --    5.56888   5.58915   5.61285   5.63160   5.70231
 Alpha virt. eigenvalues --    5.72797   5.74789   5.75681   5.78115   5.78675
 Alpha virt. eigenvalues --    5.80829   5.81621   5.83365   5.83766   5.86773
 Alpha virt. eigenvalues --    5.87434   5.88766   5.90250   5.91269   5.95594
 Alpha virt. eigenvalues --    5.98199   6.00855   6.01702   6.05619   6.08799
 Alpha virt. eigenvalues --    6.21915   6.26727   6.35622   6.40337   6.49316
 Alpha virt. eigenvalues --    6.53383   6.54498   6.58371   6.66469   6.67803
 Alpha virt. eigenvalues --    6.88133   6.89462   6.92326   6.95034   7.09809
 Alpha virt. eigenvalues --    7.13802   7.16530   7.17944   9.42561   9.95924
 Alpha virt. eigenvalues --   11.74499  12.11740  12.30538  12.69561  13.03522
 Alpha virt. eigenvalues --   13.41174  13.55294  13.61468  13.71486  13.75916
 Alpha virt. eigenvalues --   13.95059
          Condensed to atoms (all electrons):
               1          2          3          4          5          6
     1  C    4.804575   0.150840  -0.058778   0.001942  -0.000002   0.002483
     2  C    0.150840   5.358635   0.438536  -0.000148  -0.000703  -0.003771
     3  H   -0.058778   0.438536   0.463420  -0.000230   0.000023  -0.000053
     4  C    0.001942  -0.000148  -0.000230   5.113248   0.408282   0.398952
     5  H   -0.000002  -0.000703   0.000023   0.408282   0.531378  -0.012079
     6  H    0.002483  -0.003771  -0.000053   0.398952  -0.012079   0.527647
     7  H   -0.000241   0.002246  -0.000033   0.406576  -0.030406  -0.032086
     8  O    0.693212  -0.088585   0.003068  -0.000373   0.000048  -0.000801
     9  N   -0.063439   0.272512  -0.034294   0.000355   0.000018   0.000188
    10  H    0.003177  -0.037036   0.001226   0.000438   0.000024  -0.000031
    11  N    0.342271  -0.086196  -0.000518  -0.002710   0.000015   0.001828
    12  H   -0.019557   0.009312  -0.000486   0.000049   0.000000   0.000283
    13  C   -0.065520   0.009866  -0.000949  -0.000024  -0.000003  -0.000073
    14  H    0.002046   0.001499   0.000115   0.000647  -0.000014  -0.000236
    15  H   -0.008951  -0.000876  -0.000280  -0.000028  -0.000001   0.000123
    16  H    0.006931   0.000548  -0.000122   0.000024   0.000000  -0.000069
    17  C   -0.005679  -0.070354   0.002014  -0.000032  -0.000002   0.000014
    18  C   -0.004582   0.013742   0.001456  -0.000002   0.000000   0.000000
    19  H    0.000446   0.000546  -0.000272   0.000000   0.000000   0.000000
    20  H   -0.000174  -0.000471   0.000173   0.000000   0.000000   0.000000
    21  H    0.000788  -0.000759  -0.000133  -0.000001   0.000000   0.000000
    22  O   -0.001092   0.021623   0.012310   0.000001   0.000000   0.000000
    23  C   -0.019917  -0.004521   0.010471   0.262214  -0.035511  -0.037651
    24  H   -0.014328   0.006610   0.001345  -0.027967  -0.004932  -0.006320
    25  C    0.000437   0.000885  -0.000297  -0.069800  -0.006593   0.008461
    26  H   -0.000219   0.001888   0.000009  -0.009197  -0.000372  -0.000158
    27  H    0.000319  -0.001901  -0.000070   0.009481  -0.000084  -0.000379
    28  H    0.000042  -0.000649   0.000021  -0.006591   0.003818   0.000019
    29  C   -0.026727   0.196002  -0.033510  -0.047837   0.009194   0.002466
    30  H    0.009743  -0.031021  -0.009576   0.003178  -0.000363   0.000301
    31  H   -0.001799  -0.035432  -0.007857  -0.008935   0.000570  -0.001497
               7          8          9         10         11         12
     1  C   -0.000241   0.693212  -0.063439   0.003177   0.342271  -0.019557
     2  C    0.002246  -0.088585   0.272512  -0.037036  -0.086196   0.009312
     3  H   -0.000033   0.003068  -0.034294   0.001226  -0.000518  -0.000486
     4  C    0.406576  -0.000373   0.000355   0.000438  -0.002710   0.000049
     5  H   -0.030406   0.000048   0.000018   0.000024   0.000015   0.000000
     6  H   -0.032086  -0.000801   0.000188  -0.000031   0.001828   0.000283
     7  H    0.561142   0.000046  -0.000101  -0.000008  -0.000187  -0.000005
     8  O    0.000046   7.850769   0.004098  -0.001302  -0.117327   0.005325
     9  N   -0.000101   0.004098   6.536178   0.390732   0.005663   0.000725
    10  H   -0.000008  -0.001302   0.390732   0.489123  -0.000240   0.000005
    11  N   -0.000187  -0.117327   0.005663  -0.000240   6.407489   0.378922
    12  H   -0.000005   0.005325   0.000725   0.000005   0.378922   0.539080
    13  C    0.000013   0.006856  -0.000302   0.000028   0.302328  -0.032357
    14  H    0.000045   0.005020  -0.000054  -0.000006  -0.059283   0.002053
    15  H   -0.000002   0.005088  -0.000020   0.000006  -0.039945   0.003195
    16  H    0.000002   0.001399   0.000007   0.000000  -0.026665  -0.007835
    17  C    0.000000   0.015018   0.327888  -0.020665  -0.000742  -0.000030
    18  C    0.000000  -0.000238  -0.067513  -0.001831  -0.000111   0.000001
    19  H    0.000000  -0.000009   0.012871  -0.000679   0.000011   0.000001
    20  H    0.000000   0.000031   0.000092   0.000055   0.000005   0.000001
    21  H    0.000000   0.000275  -0.001450   0.000152   0.000000  -0.000002
    22  O    0.000000  -0.003182  -0.136382   0.004262  -0.004255  -0.000255
    23  C   -0.040135  -0.002388  -0.008885   0.003815  -0.002813   0.000300
    24  H    0.006495   0.023397   0.005731  -0.001993   0.002541  -0.000269
    25  C   -0.008959   0.000356  -0.000386  -0.001271  -0.000080  -0.000003
    26  H    0.004713  -0.000017  -0.000103  -0.000077  -0.000005   0.000005
    27  H    0.000013  -0.000011  -0.000587   0.003782  -0.000012  -0.000003
    28  H   -0.000574  -0.000001   0.000032   0.000146   0.000003   0.000000
    29  C   -0.012283  -0.006030  -0.049283  -0.001852   0.008808  -0.003687
    30  H    0.000310  -0.000626   0.000118   0.001543   0.000419  -0.000176
    31  H    0.002541  -0.000440   0.004570   0.000378   0.004534   0.002210
              13         14         15         16         17         18
     1  C   -0.065520   0.002046  -0.008951   0.006931  -0.005679  -0.004582
     2  C    0.009866   0.001499  -0.000876   0.000548  -0.070354   0.013742
     3  H   -0.000949   0.000115  -0.000280  -0.000122   0.002014   0.001456
     4  C   -0.000024   0.000647  -0.000028   0.000024  -0.000032  -0.000002
     5  H   -0.000003  -0.000014  -0.000001   0.000000  -0.000002   0.000000
     6  H   -0.000073  -0.000236   0.000123  -0.000069   0.000014   0.000000
     7  H    0.000013   0.000045  -0.000002   0.000002   0.000000   0.000000
     8  O    0.006856   0.005020   0.005088   0.001399   0.015018  -0.000238
     9  N   -0.000302  -0.000054  -0.000020   0.000007   0.327888  -0.067513
    10  H    0.000028  -0.000006   0.000006   0.000000  -0.020665  -0.001831
    11  N    0.302328  -0.059283  -0.039945  -0.026665  -0.000742  -0.000111
    12  H   -0.032357   0.002053   0.003195  -0.007835  -0.000030   0.000001
    13  C    4.773183   0.388526   0.405346   0.394641  -0.000259  -0.000007
    14  H    0.388526   0.637358  -0.057462  -0.028351  -0.000042   0.000000
    15  H    0.405346  -0.057462   0.592803  -0.025436   0.000121   0.000002
    16  H    0.394641  -0.028351  -0.025436   0.597701  -0.000012   0.000000
    17  C   -0.000259  -0.000042   0.000121  -0.000012   4.534322   0.280975
    18  C   -0.000007   0.000000   0.000002   0.000000   0.280975   5.003527
    19  H    0.000001   0.000000   0.000000   0.000000  -0.054041   0.392715
    20  H    0.000000   0.000000   0.000000   0.000000  -0.024943   0.384534
    21  H    0.000002   0.000000   0.000002   0.000000  -0.024870   0.388013
    22  O   -0.000240   0.000010   0.000119  -0.000004   0.726643  -0.071325
    23  C   -0.000136   0.000306  -0.000055  -0.000025   0.000121   0.000017
    24  H   -0.000292   0.000095  -0.000066  -0.000009   0.001269   0.000216
    25  C   -0.000005   0.000013  -0.000001   0.000000   0.000065  -0.000011
    26  H    0.000000   0.000000   0.000000   0.000000   0.000003   0.000003
    27  H    0.000001   0.000000   0.000000   0.000000   0.000133   0.000036
    28  H    0.000000  -0.000001   0.000000   0.000000  -0.000008  -0.000001
    29  C   -0.000308  -0.000554   0.000085   0.000010   0.008524   0.000135
    30  H    0.000070  -0.000035   0.000013   0.000002  -0.000387  -0.000127
    31  H    0.000053  -0.000348   0.000100  -0.000016   0.000015   0.000037
              19         20         21         22         23         24
     1  C    0.000446  -0.000174   0.000788  -0.001092  -0.019917  -0.014328
     2  C    0.000546  -0.000471  -0.000759   0.021623  -0.004521   0.006610
     3  H   -0.000272   0.000173  -0.000133   0.012310   0.010471   0.001345
     4  C    0.000000   0.000000  -0.000001   0.000001   0.262214  -0.027967
     5  H    0.000000   0.000000   0.000000   0.000000  -0.035511  -0.004932
     6  H    0.000000   0.000000   0.000000   0.000000  -0.037651  -0.006320
     7  H    0.000000   0.000000   0.000000   0.000000  -0.040135   0.006495
     8  O   -0.000009   0.000031   0.000275  -0.003182  -0.002388   0.023397
     9  N    0.012871   0.000092  -0.001450  -0.136382  -0.008885   0.005731
    10  H   -0.000679   0.000055   0.000152   0.004262   0.003815  -0.001993
    11  N    0.000011   0.000005   0.000000  -0.004255  -0.002813   0.002541
    12  H    0.000001   0.000001  -0.000002  -0.000255   0.000300  -0.000269
    13  C    0.000001   0.000000   0.000002  -0.000240  -0.000136  -0.000292
    14  H    0.000000   0.000000   0.000000   0.000010   0.000306   0.000095
    15  H    0.000000   0.000000   0.000002   0.000119  -0.000055  -0.000066
    16  H    0.000000   0.000000   0.000000  -0.000004  -0.000025  -0.000009
    17  C   -0.054041  -0.024943  -0.024870   0.726643   0.000121   0.001269
    18  C    0.392715   0.384534   0.388013  -0.071325   0.000017   0.000216
    19  H    0.603396  -0.027487  -0.024763   0.004565   0.000113  -0.000039
    20  H   -0.027487   0.576263  -0.025084   0.002504   0.000014   0.000023
    21  H   -0.024763  -0.025084   0.564611   0.000918  -0.000030  -0.000043
    22  O    0.004565   0.002504   0.000918   7.847963   0.000024  -0.000137
    23  C    0.000113   0.000014  -0.000030   0.000024   5.438851   0.410969
    24  H   -0.000039   0.000023  -0.000043  -0.000137   0.410969   0.479280
    25  C   -0.000041   0.000001  -0.000002   0.000001   0.266581  -0.031018
    26  H   -0.000002   0.000000   0.000000   0.000000  -0.037326   0.006471
    27  H    0.000056  -0.000013  -0.000002   0.000009  -0.040229  -0.007996
    28  H    0.000002   0.000000   0.000000   0.000000  -0.038008  -0.004368
    29  C   -0.000267  -0.000015   0.000039   0.001896   0.163498  -0.069470
    30  H    0.000030  -0.000018   0.000016  -0.000137  -0.055950   0.001889
    31  H   -0.000004  -0.000003   0.000000   0.000075  -0.044851   0.002734
              25         26         27         28         29         30
     1  C    0.000437  -0.000219   0.000319   0.000042  -0.026727   0.009743
     2  C    0.000885   0.001888  -0.001901  -0.000649   0.196002  -0.031021
     3  H   -0.000297   0.000009  -0.000070   0.000021  -0.033510  -0.009576
     4  C   -0.069800  -0.009197   0.009481  -0.006591  -0.047837   0.003178
     5  H   -0.006593  -0.000372  -0.000084   0.003818   0.009194  -0.000363
     6  H    0.008461  -0.000158  -0.000379   0.000019   0.002466   0.000301
     7  H   -0.008959   0.004713   0.000013  -0.000574  -0.012283   0.000310
     8  O    0.000356  -0.000017  -0.000011  -0.000001  -0.006030  -0.000626
     9  N   -0.000386  -0.000103  -0.000587   0.000032  -0.049283   0.000118
    10  H   -0.001271  -0.000077   0.003782   0.000146  -0.001852   0.001543
    11  N   -0.000080  -0.000005  -0.000012   0.000003   0.008808   0.000419
    12  H   -0.000003   0.000005  -0.000003   0.000000  -0.003687  -0.000176
    13  C   -0.000005   0.000000   0.000001   0.000000  -0.000308   0.000070
    14  H    0.000013   0.000000   0.000000  -0.000001  -0.000554  -0.000035
    15  H   -0.000001   0.000000   0.000000   0.000000   0.000085   0.000013
    16  H    0.000000   0.000000   0.000000   0.000000   0.000010   0.000002
    17  C    0.000065   0.000003   0.000133  -0.000008   0.008524  -0.000387
    18  C   -0.000011   0.000003   0.000036  -0.000001   0.000135  -0.000127
    19  H   -0.000041  -0.000002   0.000056   0.000002  -0.000267   0.000030
    20  H    0.000001   0.000000  -0.000013   0.000000  -0.000015  -0.000018
    21  H   -0.000002   0.000000  -0.000002   0.000000   0.000039   0.000016
    22  O    0.000001   0.000000   0.000009   0.000000   0.001896  -0.000137
    23  C    0.266581  -0.037326  -0.040229  -0.038008   0.163498  -0.055950
    24  H   -0.031018   0.006471  -0.007996  -0.004368  -0.069470   0.001889
    25  C    5.118595   0.404454   0.397508   0.409763  -0.052113  -0.008852
    26  H    0.404454   0.551044  -0.029941  -0.028366  -0.011345   0.002526
    27  H    0.397508  -0.029941   0.546167  -0.015725   0.003302  -0.001902
    28  H    0.409763  -0.028366  -0.015725   0.530122   0.009567   0.000474
    29  C   -0.052113  -0.011345   0.003302   0.009567   5.530001   0.408361
    30  H   -0.008852   0.002526  -0.001902   0.000474   0.408361   0.471053
    31  H    0.002519   0.000124   0.000147  -0.000293   0.412113  -0.001244
              31
     1  C   -0.001799
     2  C   -0.035432
     3  H   -0.007857
     4  C   -0.008935
     5  H    0.000570
     6  H   -0.001497
     7  H    0.002541
     8  O   -0.000440
     9  N    0.004570
    10  H    0.000378
    11  N    0.004534
    12  H    0.002210
    13  C    0.000053
    14  H   -0.000348
    15  H    0.000100
    16  H   -0.000016
    17  C    0.000015
    18  C    0.000037
    19  H   -0.000004
    20  H   -0.000003
    21  H    0.000000
    22  O    0.000075
    23  C   -0.044851
    24  H    0.002734
    25  C    0.002519
    26  H    0.000124
    27  H    0.000147
    28  H   -0.000293
    29  C    0.412113
    30  H   -0.001244
    31  H    0.465343
 Mulliken charges:
               1
     1  C    0.271754
     2  C   -0.122867
     3  H    0.213270
     4  C   -0.431514
     5  H    0.137696
     6  H    0.152439
     7  H    0.140880
     8  O   -0.392678
     9  N   -0.198977
    10  H    0.168100
    11  N   -0.113747
    12  H    0.123198
    13  C   -0.180437
    14  H    0.108655
    15  H    0.126121
    16  H    0.087276
    17  C    0.304943
    18  C   -0.319662
    19  H    0.092852
    20  H    0.114512
    21  H    0.122323
    22  O   -0.405914
    23  C   -0.188862
    24  H    0.220180
    25  C   -0.430206
    26  H    0.145887
    27  H    0.137903
    28  H    0.140578
    29  C   -0.438721
    30  H    0.210366
    31  H    0.204654
 Sum of Mulliken charges =   0.00000
 Mulliken charges with hydrogens summed into heavy atoms:
               1
     1  C    0.271754
     2  C    0.090404
     4  C   -0.000499
     8  O   -0.392678
     9  N   -0.030877
    11  N    0.009451
    13  C    0.141615
    17  C    0.304943
    18  C    0.010025
    22  O   -0.405914
    23  C    0.031318
    25  C   -0.005839
    29  C   -0.023701
 Electronic spatial extent (au):  <R**2>=           2898.4041
 Charge=              0.0000 electrons
 Dipole moment (field-independent basis, Debye):
    X=              3.0943    Y=             -1.6688    Z=              2.3277  Tot=              4.2164
 Quadrupole moment (field-independent basis, Debye-Ang):
   XX=            -85.4986   YY=            -69.5566   ZZ=            -81.3471
   XY=              9.3479   XZ=              3.3140   YZ=              5.0919
 Traceless Quadrupole moment (field-independent basis, Debye-Ang):
   XX=             -6.6979   YY=              9.2442   ZZ=             -2.5463
   XY=              9.3479   XZ=              3.3140   YZ=              5.0919
 Octapole moment (field-independent basis, Debye-Ang**2):
  XXX=              1.2004  YYY=             38.2622  ZZZ=              8.5105  XYY=             -0.6481
  XXY=            -19.7301  XXZ=            -12.7175  XZZ=             -2.1151  YZZ=              3.9815
  YYZ=              3.3951  XYZ=              2.2220
 Hexadecapole moment (field-independent basis, Debye-Ang**3):
 XXXX=          -2017.3319 YYYY=          -1458.0521 ZZZZ=           -315.4669 XXXY=             75.1580
 XXXZ=             25.4202 YYYX=             41.4629 YYYZ=             13.8270 ZZZX=              1.4353
 ZZZY=             20.0197 XXYY=           -583.3503 XXZZ=           -368.7713 YYZZ=           -305.2744
 XXYZ=             -1.3819 YYXZ=              4.2170 ZZXY=              3.5700
 N-N= 8.753891537708D+02 E-N=-3.180505288359D+03  KE= 6.091240199930D+02
 Calculating spin-rotation constants.
 Leave Link  601 at Thu Jun 19 02:01:41 2014, MaxMem=  4294967296 cpu:        69.5
 (Enter /home/ztw1e12/g09/l9999.exe)

 Test job not archived.
 1\1\GINC-GREEN0257\SP\RM06\Gen\C9H18N2O2\ROOT\19-Jun-2014\0\\#P Geom=A
 llCheck Guess=TCheck SCRF=Check GenChk RM06/ChkBas NMR=ReadFC IOp(3/6=
 22)\\NMR spin-spin scan\\0,1\C,0,0.609005,0.762488,0.625907\C,0,0.1372
 44,0.260419,-0.733877\H,0,0.531875,0.941433,-1.493262\C,0,-2.933789,0.
 248878,1.176901\H,0,-3.436352,-0.370409,1.922754\H,0,-2.316423,0.97924
 1,1.707295\H,0,-3.701451,0.799348,0.625091\O,0,0.837188,0.011496,1.570
 428\N,0,0.628995,-1.068328,-1.004578\H,0,-0.02602,-1.834338,-1.036124\
 N,0,0.716241,2.091977,0.721967\H,0,0.468633,2.655691,-0.075957\C,0,0.9
 96477,2.739279,1.983286\H,0,0.227022,2.513373,2.72363\H,0,1.957811,2.4
 1617,2.382183\H,0,1.029422,3.813349,1.828993\C,0,1.943067,-1.327352,-1
 .107619\C,0,2.326205,-2.751891,-1.337598\H,0,1.470857,-3.408427,-1.481
 948\H,0,2.976979,-2.806491,-2.209348\H,0,2.901556,-3.100706,-0.479659\
 O,0,2.786323,-0.435275,-1.020678\C,0,-2.103781,-0.594348,0.226623\H,0,
 -1.35375,-1.12867,0.818761\C,0,-2.980518,-1.62684,-0.45882\H,0,-3.7470
 1,-1.134516,-1.064932\H,0,-2.400182,-2.274229,-1.12088\H,0,-3.489952,-
 2.25968,0.270894\C,0,-1.384564,0.292547,-0.804394\H,0,-1.666688,-0.004
 345,-1.818645\H,0,-1.698796,1.333451,-0.696056\\Version=EM64L-G09RevD.
 01\State=1-A\HF=-613.5819946\RMSD=7.599e-09\Dipole=-1.4761273,0.363504
 4,-0.663848\Quadrupole=-7.9755609,10.5789274,-2.6033665,-0.7666968,0.9
 819812,3.7160894\PG=C01 [X(C9H18N2O2)]\\@


 THE ENLIGHTENED ONE, BECAUSE HE SAW MANKIND DROWNING  
 IN THE GREAT SEA OF BIRTH, DEATH, AND SORROW, LONGED TO SAVE 
 THEM, FOR THIS HE WAS MOVED TO PITY.                         
 BECAUSE HE SAW MEN OF THE WORLD STRAYING IN FALSE PATHS, AND 
 NONE TO GUIDE THEM, FOR THIS HE WAS MOVED TO PITY.           
                     ..................                       
 BECAUSE HE SAW THE MEN OF THE WORLD PLOUGHING THEIR FIELDS,  
 SOWING THE SEED, TRAFFICKING, HUCKSTERING, BUYING, SELLING,  
 AND AT THE END WINNOWING NOTHING BUT BITTERNESS,             
 FOR THIS HE WAS MOVED TO PITY......                   
                   BUDAH'S PITY - UPSAKA SILA SUTRA           
 Job cpu time:       2 days 12 hours 55 minutes  1.9 seconds.
 File lengths (MBytes):  RWF=   2456 Int=      0 D2E=      0 Chk=     48 Scr=      8
 Normal termination of Gaussian 09 at Thu Jun 19 02:01:42 2014.
