 Entering Gaussian System, Link 0=g09
 Input=scan_input_32.gjf
 Output=scan_input_32.log
 Initial command:
 /home/ztw1e12/g09/l1.exe "/home/ztw1e12/leucine_scan/leucine_chi2_scan/Gau-15815.inp" -scrdir="/home/ztw1e12/leucine_scan/leucine_chi2_scan/"
 Default is to use a total of   8 processors:
                                8 via shared-memory
                                1 via Linda
 Entering Link 1 = /home/ztw1e12/g09/l1.exe PID=     15816.
  
 Copyright (c) 1988,1990,1992,1993,1995,1998,2003,2009,2013,
            Gaussian, Inc.  All Rights Reserved.
  
 This is part of the Gaussian(R) 09 program.  It is based on
 the Gaussian(R) 03 system (copyright 2003, Gaussian, Inc.),
 the Gaussian(R) 98 system (copyright 1998, Gaussian, Inc.),
 the Gaussian(R) 94 system (copyright 1995, Gaussian, Inc.),
 the Gaussian 92(TM) system (copyright 1992, Gaussian, Inc.),
 the Gaussian 90(TM) system (copyright 1990, Gaussian, Inc.),
 the Gaussian 88(TM) system (copyright 1988, Gaussian, Inc.),
 the Gaussian 86(TM) system (copyright 1986, Carnegie Mellon
 University), and the Gaussian 82(TM) system (copyright 1983,
 Carnegie Mellon University). Gaussian is a federally registered
 trademark of Gaussian, Inc.
  
 This software contains proprietary and confidential information,
 including trade secrets, belonging to Gaussian, Inc.
  
 This software is provided under written license and may be
 used, copied, transmitted, or stored only in accord with that
 written license.
  
 The following legend is applicable only to US Government
 contracts under FAR:
  
                    RESTRICTED RIGHTS LEGEND
  
 Use, reproduction and disclosure by the US Government is
 subject to restrictions as set forth in subparagraphs (a)
 and (c) of the Commercial Computer Software - Restricted
 Rights clause in FAR 52.227-19.
  
 Gaussian, Inc.
 340 Quinnipiac St., Bldg. 40, Wallingford CT 06492
  
  
 ---------------------------------------------------------------
 Warning -- This program may not be used in any manner that
 competes with the business of Gaussian, Inc. or will provide
 assistance to any competitor of Gaussian, Inc.  The licensee
 of this program is prohibited from giving any competitor of
 Gaussian, Inc. access to this program.  By using this program,
 the user acknowledges that Gaussian, Inc. is engaged in the
 business of creating and licensing software in the field of
 computational chemistry and represents and warrants to the
 licensee that it is not a competitor of Gaussian, Inc. and that
 it will not use this program in any manner prohibited above.
 ---------------------------------------------------------------
  

 Cite this work as:
 Gaussian 09, Revision D.01,
 M. J. Frisch, G. W. Trucks, H. B. Schlegel, G. E. Scuseria, 
 M. A. Robb, J. R. Cheeseman, G. Scalmani, V. Barone, B. Mennucci, 
 G. A. Petersson, H. Nakatsuji, M. Caricato, X. Li, H. P. Hratchian, 
 A. F. Izmaylov, J. Bloino, G. Zheng, J. L. Sonnenberg, M. Hada, 
 M. Ehara, K. Toyota, R. Fukuda, J. Hasegawa, M. Ishida, T. Nakajima, 
 Y. Honda, O. Kitao, H. Nakai, T. Vreven, J. A. Montgomery, Jr., 
 J. E. Peralta, F. Ogliaro, M. Bearpark, J. J. Heyd, E. Brothers, 
 K. N. Kudin, V. N. Staroverov, T. Keith, R. Kobayashi, J. Normand, 
 K. Raghavachari, A. Rendell, J. C. Burant, S. S. Iyengar, J. Tomasi, 
 M. Cossi, N. Rega, J. M. Millam, M. Klene, J. E. Knox, J. B. Cross, 
 V. Bakken, C. Adamo, J. Jaramillo, R. Gomperts, R. E. Stratmann, 
 O. Yazyev, A. J. Austin, R. Cammi, C. Pomelli, J. W. Ochterski, 
 R. L. Martin, K. Morokuma, V. G. Zakrzewski, G. A. Voth, 
 P. Salvador, J. J. Dannenberg, S. Dapprich, A. D. Daniels, 
 O. Farkas, J. B. Foresman, J. V. Ortiz, J. Cioslowski, 
 and D. J. Fox, Gaussian, Inc., Wallingford CT, 2013.
 
 ******************************************
 Gaussian 09:  EM64L-G09RevD.01 24-Apr-2013
                18-Jun-2014 
 ******************************************
 %Mem=32GB
 %NProcShared=16
 Will use up to   16 processors via shared memory.
 Default route:  MaxDisk=100GB
 ----------------------------------------------------------------------
 #p nmr=(giao,mixed,spinspin) m06/cc-pvtz scf=tight integral=(grid=ultr
 afine)
 ----------------------------------------------------------------------
 1/38=1/1;
 2/12=2,17=6,18=5,40=1/2;
 3/5=16,6=1,10=1100000,11=2,16=1,25=1,30=1,74=-54,75=-5/1,2,8,3;
 4//1;
 5/5=2,32=2,38=5/2;
 8/6=1,10=90,11=11/1;
 10/13=100,45=16,47=3/2;
 6/7=2,8=2,9=2,10=2,28=1/1;
 99/9=1/99;
 Leave Link    1 at Wed Jun 18 15:10:09 2014, MaxMem=  4294967296 cpu:         4.9
 (Enter /home/ztw1e12/g09/l101.exe)
 ------------------
 NMR spin-spin scan
 ------------------
 Symbolic Z-matrix:
 Charge =  0 Multiplicity = 1
 C                     0.64512   0.75143   0.64134 
 C                     0.13903   0.25991  -0.71174 
 H                     0.53903   0.93225  -1.47559 
 C                    -3.09992   0.29568   1.06751 
 H                    -3.64004  -0.3119    1.79652 
 H                    -2.58679   1.09635   1.60731 
 H                    -3.83699   0.75888   0.40471 
 O                     0.93375  -0.01083   1.56003 
 N                     0.61148  -1.07388  -0.99084 
 H                    -0.02612  -1.85074  -0.91083 
 N                     0.72026   2.08116   0.76102 
 H                     0.42565   2.65423  -0.01396 
 C                     1.05683   2.71167   2.01716 
 H                     0.3209    2.47906   2.78869 
 H                     2.03454   2.38123   2.36692 
 H                     1.08563   3.78751   1.8747 
 C                     1.91991  -1.331    -1.16358 
 C                     2.29534  -2.75895  -1.38293 
 H                     1.4432   -3.43491  -1.36532 
 H                     2.8026   -2.84457  -2.34364 
 H                     3.00641  -3.05754  -0.61291 
 O                     2.7622   -0.43418  -1.15887 
 C                    -2.12052  -0.54078   0.26516 
 H                    -1.38856  -0.96376   0.96161 
 C                    -2.85252  -1.68797  -0.40997 
 H                    -3.61901  -1.29866  -1.08694 
 H                    -2.18335  -2.3161   -1.00275 
 H                    -3.3486   -2.32621   0.32393 
 C                    -1.38216   0.33434  -0.76148 
 H                    -1.69519   0.06802  -1.77533 
 H                    -1.65646   1.38356  -0.62958 
 
 NAtoms=     31 NQM=       31 NQMF=       0 NMMI=      0 NMMIF=      0
                NMic=       0 NMicF=      0.
                    Isotopes and Nuclear Properties:
 (Nuclear quadrupole moments (NQMom) in fm**2, nuclear magnetic moments (NMagM)
  in nuclear magnetons)

  Atom         1           2           3           4           5           6           7           8           9          10
 IAtWgt=          12          12           1          12           1           1           1          16          14           1
 AtmWgt=  12.0000000  12.0000000   1.0078250  12.0000000   1.0078250   1.0078250   1.0078250  15.9949146  14.0030740   1.0078250
 NucSpn=           0           0           1           0           1           1           1           0           2           1
 AtZEff=   0.0000000   0.0000000   0.0000000   0.0000000   0.0000000   0.0000000   0.0000000   0.0000000   0.0000000   0.0000000
 NQMom=    0.0000000   0.0000000   0.0000000   0.0000000   0.0000000   0.0000000   0.0000000   0.0000000   2.0440000   0.0000000
 NMagM=    0.0000000   0.0000000   2.7928460   0.0000000   2.7928460   2.7928460   2.7928460   0.0000000   0.4037610   2.7928460
 AtZNuc=   6.0000000   6.0000000   1.0000000   6.0000000   1.0000000   1.0000000   1.0000000   8.0000000   7.0000000   1.0000000

  Atom        11          12          13          14          15          16          17          18          19          20
 IAtWgt=          14           1          12           1           1           1          12          12           1           1
 AtmWgt=  14.0030740   1.0078250  12.0000000   1.0078250   1.0078250   1.0078250  12.0000000  12.0000000   1.0078250   1.0078250
 NucSpn=           2           1           0           1           1           1           0           0           1           1
 AtZEff=   0.0000000   0.0000000   0.0000000   0.0000000   0.0000000   0.0000000   0.0000000   0.0000000   0.0000000   0.0000000
 NQMom=    2.0440000   0.0000000   0.0000000   0.0000000   0.0000000   0.0000000   0.0000000   0.0000000   0.0000000   0.0000000
 NMagM=    0.4037610   2.7928460   0.0000000   2.7928460   2.7928460   2.7928460   0.0000000   0.0000000   2.7928460   2.7928460
 AtZNuc=   7.0000000   1.0000000   6.0000000   1.0000000   1.0000000   1.0000000   6.0000000   6.0000000   1.0000000   1.0000000

  Atom        21          22          23          24          25          26          27          28          29          30
 IAtWgt=           1          16          12           1          12           1           1           1          12           1
 AtmWgt=   1.0078250  15.9949146  12.0000000   1.0078250  12.0000000   1.0078250   1.0078250   1.0078250  12.0000000   1.0078250
 NucSpn=           1           0           0           1           0           1           1           1           0           1
 AtZEff=   0.0000000   0.0000000   0.0000000   0.0000000   0.0000000   0.0000000   0.0000000   0.0000000   0.0000000   0.0000000
 NQMom=    0.0000000   0.0000000   0.0000000   0.0000000   0.0000000   0.0000000   0.0000000   0.0000000   0.0000000   0.0000000
 NMagM=    2.7928460   0.0000000   0.0000000   2.7928460   0.0000000   2.7928460   2.7928460   2.7928460   0.0000000   2.7928460
 AtZNuc=   1.0000000   8.0000000   6.0000000   1.0000000   6.0000000   1.0000000   1.0000000   1.0000000   6.0000000   1.0000000

  Atom        31
 IAtWgt=           1
 AtmWgt=   1.0078250
 NucSpn=           1
 AtZEff=   0.0000000
 NQMom=    0.0000000
 NMagM=    2.7928460
 AtZNuc=   1.0000000
 Leave Link  101 at Wed Jun 18 15:10:09 2014, MaxMem=  4294967296 cpu:         1.5
 (Enter /home/ztw1e12/g09/l202.exe)
                          Input orientation:                          
 ---------------------------------------------------------------------
 Center     Atomic      Atomic             Coordinates (Angstroms)
 Number     Number       Type             X           Y           Z
 ---------------------------------------------------------------------
      1          6           0        0.645120    0.751432    0.641342
      2          6           0        0.139028    0.259906   -0.711743
      3          1           0        0.539034    0.932249   -1.475586
      4          6           0       -3.099922    0.295683    1.067512
      5          1           0       -3.640037   -0.311903    1.796515
      6          1           0       -2.586794    1.096355    1.607309
      7          1           0       -3.836993    0.758882    0.404708
      8          8           0        0.933754   -0.010827    1.560028
      9          7           0        0.611475   -1.073881   -0.990843
     10          1           0       -0.026117   -1.850744   -0.910830
     11          7           0        0.720256    2.081157    0.761024
     12          1           0        0.425645    2.654226   -0.013963
     13          6           0        1.056833    2.711666    2.017159
     14          1           0        0.320896    2.479062    2.788687
     15          1           0        2.034536    2.381226    2.366915
     16          1           0        1.085630    3.787509    1.874696
     17          6           0        1.919907   -1.330996   -1.163579
     18          6           0        2.295336   -2.758951   -1.382926
     19          1           0        1.443199   -3.434910   -1.365316
     20          1           0        2.802598   -2.844570   -2.343639
     21          1           0        3.006414   -3.057539   -0.612907
     22          8           0        2.762195   -0.434184   -1.158866
     23          6           0       -2.120524   -0.540780    0.265156
     24          1           0       -1.388560   -0.963758    0.961608
     25          6           0       -2.852524   -1.687966   -0.409968
     26          1           0       -3.619014   -1.298656   -1.086939
     27          1           0       -2.183349   -2.316100   -1.002749
     28          1           0       -3.348597   -2.326214    0.323929
     29          6           0       -1.382155    0.334344   -0.761482
     30          1           0       -1.695185    0.068020   -1.775334
     31          1           0       -1.656462    1.383559   -0.629579
 ---------------------------------------------------------------------
                    Distance matrix (angstroms):
                    1          2          3          4          5
     1  C    0.000000
     2  C    1.525964   0.000000
     3  H    2.127283   1.093392   0.000000
     4  C    3.796665   3.695650   4.484926   0.000000
     5  H    4.563735   4.571614   5.451531   1.091939   0.000000
     6  H    3.390772   3.675290   4.393401   1.093507   1.768703
     7  H    4.488361   4.159830   4.766044   1.094137   1.767059
     8  O    1.228142   2.421947   3.203147   4.075176   4.589786
     9  N    2.448862   1.442252   2.065135   4.459484   5.140557
    10  H    3.103404   2.126441   2.895409   4.239017   4.770552
    11  N    1.337213   2.413260   2.520963   4.227956   5.080466
    12  H    2.024406   2.510342   2.261505   4.377435   5.348413
    13  C    2.429999   3.781587   3.953948   4.900757   5.590281
    14  H    2.775053   4.148583   4.541392   4.408127   4.945996
    15  H    2.750329   4.191788   4.370455   5.692152   6.307066
    16  H    3.306505   4.475456   4.435726   5.510285   6.256454
    17  C    3.036335   2.430361   2.669539   5.729095   6.380728
    18  C    4.375347   3.770099   4.088782   6.666652   7.164185
    19  H    4.710527   3.972365   4.461138   6.362069   6.752010
    20  H    5.147432   4.404028   4.487939   7.505790   8.066153
    21  H    4.653720   4.386013   4.769758   7.166257   7.584138
    22  O    3.021331   2.750034   2.628668   6.312993   7.052503
    23  C    3.075730   2.588630   3.503319   1.517454   2.169416
    24  H    2.679608   2.575069   3.640107   2.127479   2.488199
    25  C    4.391973   3.582549   4.416303   2.485763   2.717038
    26  H    5.037128   4.085678   4.734696   2.730024   3.047693
    27  H    4.484755   3.480507   4.264589   3.456515   3.738265
    28  H    5.051973   4.463649   5.382333   2.736622   2.512150
    29  C    2.500344   1.523815   2.135041   2.509470   3.472609
    30  H    3.432842   2.128939   2.414224   3.179134   4.084715
    31  H    2.704090   2.119701   2.395749   2.479348   3.563017
                    6          7          8          9         10
     6  H    0.000000
     7  H    1.767239   0.000000
     8  O    3.690846   4.968626   0.000000
     9  N    4.657171   5.009536   2.782246   0.000000
    10  H    4.645803   4.802454   3.226730   1.008187   0.000000
    11  N    3.552832   4.758560   2.249530   3.610420   4.337282
    12  H    3.759026   4.683770   3.136579   3.858446   4.615540
    13  C    4.006648   5.510254   2.763347   4.855593   5.528244
    14  H    3.429605   5.092192   2.843369   5.195449   5.705617
    15  H    4.856396   6.399774   2.754034   5.023684   5.735806
    16  H    4.560757   5.963695   3.814373   5.662972   6.386316
    17  C    5.820671   6.322105   3.183297   1.344597   2.030032
    18  C    6.902180   7.292204   4.250538   2.414245   2.537096
    19  H    6.753496   6.971464   4.532275   2.531097   2.207947
    20  H    7.757991   8.038809   5.173132   3.125127   3.322990
    21  H    7.312193   7.901445   4.277852   3.132645   3.277401
    22  O    6.213369   6.886033   3.303757   2.250120   3.137331
    23  C    2.167716   2.157513   3.359488   3.053776   2.735962
    24  H    2.469162   3.045070   2.580567   2.797201   2.479722
    25  C    3.448545   2.760424   4.585802   3.565642   2.875054
    26  H    3.749737   2.550684   5.421497   4.237546   3.639330
    27  H    4.315092   3.764437   4.647412   3.058479   2.208768
    28  H    3.733817   3.124560   5.022697   4.356505   3.576252
    29  C    2.764595   2.750720   3.297270   2.451584   2.575996
    30  H    3.646192   3.133244   4.247608   2.690733   2.686040
    31  H    2.439605   2.492927   3.667139   3.363489   3.632884
                   11         12         13         14         15
    11  N    0.000000
    12  H    1.007873   0.000000
    13  C    1.445234   2.127711   0.000000
    14  H    2.104575   2.810071   1.091313   0.000000
    15  H    2.096726   2.886458   1.089689   1.767491   0.000000
    16  H    2.070121   2.299335   1.085616   1.769811   1.766447
    17  C    4.097078   4.408677   5.215852   5.717848   5.124268
    18  C    5.523047   5.888318   6.559125   6.981228   6.367947
    19  H    5.955750   6.319743   7.026437   7.313711   6.935897
    20  H    6.183677   6.427601   7.275714   7.800043   7.077300
    21  H    5.789681   6.296297   6.633388   7.031131   6.277265
    22  O    3.765957   4.038384   4.784534   5.479974   4.570246
    23  C    3.897495   4.094991   4.872732   4.631219   5.497275
    24  H    3.709292   4.163278   4.539039   4.255992   4.988125
    25  C    5.323746   5.455075   6.366379   6.137272   6.939219
    26  H    5.802359   5.756372   6.897945   6.694365   7.578474
    27  H    5.556769   5.699885   6.700526   6.606043   7.156121
    28  H    6.014278   6.258103   6.903266   6.529233   7.437197
    29  C    3.128820   3.034597   4.395585   4.483737   5.064620
    30  H    4.039825   3.780054   5.380099   5.541479   6.034896
    31  H    2.840635   2.515700   4.016349   4.098123   4.857755
                   16         17         18         19         20
    16  H    0.000000
    17  C    6.010510   0.000000
    18  C    7.411587   1.492687   0.000000
    19  H    7.923943   2.166657   1.087827   0.000000
    20  H    8.045297   2.112485   1.089777   1.775833   0.000000
    21  H    7.532082   2.112981   1.089824   1.775435   1.755657
    22  O    5.462240   1.230343   2.381743   3.284316   2.686127
    23  C    5.621755   4.357844   5.209249   4.871812   6.029128
    24  H    5.434141   3.949334   4.721297   4.420410   5.659321
    25  C    7.121065   4.844735   5.347347   4.734738   6.087464
    26  H    7.534854   5.539546   6.099148   5.501552   6.723559
    27  H    7.497997   4.222914   4.516555   3.812485   5.190080
    28  H    7.710049   5.564196   5.912241   5.200391   6.724716
    29  C    4.996373   3.720034   4.845473   4.749160   5.488249
    30  H    5.906797   3.924332   4.906119   4.721026   5.388525
    31  H    4.423736   4.521546   5.774481   5.776405   6.379521
                   21         22         23         24         25
    21  H    0.000000
    22  O    2.690670   0.000000
    23  C    5.778457   5.087253   0.000000
    24  H    5.116524   4.691015   1.095321   0.000000
    25  C    6.020305   5.801542   1.519096   2.132812   0.000000
    26  H    6.871293   6.439900   2.155924   3.046904   1.094239
    27  H    5.256933   5.293806   2.182497   2.513805   1.092583
    28  H    6.465189   6.566600   2.167808   2.470762   1.091812
    29  C    5.548557   4.233697   1.537861   2.157348   2.524933
    30  H    5.764147   4.527745   2.171440   2.940992   2.507418
    31  H    6.439413   4.807168   2.172322   2.848428   3.303492
                   26         27         28         29         30
    26  H    0.000000
    27  H    1.761651   0.000000
    28  H    1.766225   1.765780   0.000000
    29  C    2.788575   2.779384   3.481893   0.000000
    30  H    2.458213   2.553276   3.587901   1.093989   0.000000
    31  H    3.354857   3.755575   4.187471   1.092472   1.744963
                   31
    31  H    0.000000
 Stoichiometry    C9H18N2O2
 Framework group  C1[X(C9H18N2O2)]
 Deg. of freedom    87
 Full point group                 C1      NOp   1
 Largest Abelian subgroup         C1      NOp   1
 Largest concise Abelian subgroup C1      NOp   1
                         Standard orientation:                         
 ---------------------------------------------------------------------
 Center     Atomic      Atomic             Coordinates (Angstroms)
 Number     Number       Type             X           Y           Z
 ---------------------------------------------------------------------
      1          6           0        0.022767    1.215523    0.133310
      2          6           0        0.187217    0.006090   -0.782547
      3          1           0        0.578341    0.368257   -1.737201
      4          6           0       -3.285096   -0.640047    0.305284
      5          1           0       -3.809544   -1.030851    1.179673
      6          1           0       -3.271633    0.450976    0.377705
      7          1           0       -3.865851   -0.908626   -0.582255
      8          8           0        0.218282    1.163580    1.344677
      9          7           0        1.131570   -0.936613   -0.235191
     10          1           0        0.792931   -1.790428    0.180461
     11          7           0       -0.382490    2.331734   -0.481487
     12          1           0       -0.569941    2.298309   -1.471211
     13          6           0       -0.709602    3.529135    0.258736
     14          1           0       -1.543258    3.358956    0.942124
     15          1           0        0.145660    3.870277    0.841465
     16          1           0       -0.985742    4.311601   -0.441304
     17          6           0        2.430402   -0.621135   -0.088744
     18          6           0        3.299506   -1.654039    0.548345
     19          1           0        2.759174   -2.554373    0.832615
     20          1           0        4.097448   -1.917406   -0.145588
     21          1           0        3.767960   -1.222229    1.432543
     22          8           0        2.882854    0.455587   -0.475657
     23          6           0       -1.878663   -1.200978    0.205447
     24          1           0       -1.326739   -0.888647    1.098507
     25          6           0       -1.927999   -2.719118    0.183765
     26          1           0       -2.506054   -3.064461   -0.678760
     27          1           0       -0.933761   -3.165973    0.109278
     28          1           0       -2.405166   -3.111585    1.083951
     29          6           0       -1.166112   -0.645603   -1.039080
     30          1           0       -1.017447   -1.442997   -1.773160
     31          1           0       -1.793544    0.101055   -1.531346
 ---------------------------------------------------------------------
 Rotational constants (GHZ):      0.8185244      0.6473532      0.4106296
 Leave Link  202 at Wed Jun 18 15:10:09 2014, MaxMem=  4294967296 cpu:         2.1
 (Enter /home/ztw1e12/g09/l301.exe)
 Standard basis: CC-pVTZ (5D, 7F)
 Converting basis for Fermi contact spin-spin IFCMod=1.
 AO basis functions are being uncontracted.
 Ernie: Thresh=  0.10000D-02 Tol=  0.10000D-05 Strict=F.
 There are  1119 symmetry adapted cartesian basis functions of A   symmetry.
 There are  1036 symmetry adapted basis functions of A   symmetry.
  1036 basis functions,  1119 primitive gaussians,  1119 cartesian basis functions
    51 alpha electrons       51 beta electrons
       nuclear repulsion energy       873.6437587369 Hartrees.
 IExCor= 4235 DFT=T Ex+Corr=M06 ExCW=0 ScaHFX=  0.270000
 ScaDFX=  1.000000  1.000000  1.000000  1.000000 ScalE2=  1.000000  1.000000
 IRadAn= 199590 IRanWt=     -1 IRanGd=            0 ICorTp=0 IEmpDi=  4
 NAtoms=   31 NActive=   31 NUniq=   31 SFac= 1.00D+00 NAtFMM=   60 NAOKFM=F Big=F
 Integral buffers will be    131072 words long.
 Raffenetti 2 integral format.
 Two-electron integral symmetry is turned on.
 Leave Link  301 at Wed Jun 18 15:10:09 2014, MaxMem=  4294967296 cpu:         5.3
 (Enter /home/ztw1e12/g09/l302.exe)
 NPDir=0 NMtPBC=     1 NCelOv=     1 NCel=       1 NClECP=     1 NCelD=      1
         NCelK=      1 NCelE2=     1 NClLst=     1 CellRange=     0.0.
 One-electron integrals computed using PRISM.
 GSVD:  received Info=                   1 from GESDD.
 NBasis=  1036 RedAO= T EigKep=  1.32D-04  NBF=  1036
 NBsUse=   932 1.00D-06 EigRej=  6.67D-15 NBFU=   932
 Precomputing XC quadrature grid using
 IXCGrd= 4 IRadAn=      199590 IRanWt=          -1 IRanGd=           0 AccXCQ= 0.00D+00.
 Generated NRdTot=       0 NPtTot=           0 NUsed=           0 NTot=          32
 NSgBfM=   876   876   878   880   880 MxSgAt=    31 MxSgA2=    31.
 Leave Link  302 at Wed Jun 18 15:10:14 2014, MaxMem=  4294967296 cpu:        64.4
 (Enter /home/ztw1e12/g09/l308.exe)
 Leave Link  308 at Wed Jun 18 15:10:14 2014, MaxMem=  4294967296 cpu:         5.6
 (Enter /home/ztw1e12/g09/l303.exe)
 DipDrv:  MaxL=1.
 Leave Link  303 at Wed Jun 18 15:10:14 2014, MaxMem=  4294967296 cpu:         3.3
 (Enter /home/ztw1e12/g09/l401.exe)
 ExpMin= 1.03D-01 ExpMax= 1.38D+05 ExpMxC= 1.38D+05 IAcc=4 IRadAn=    199590 AccDes= 0.00D+00
 Harris functional with IExCor= 1009 and IRadAn=  199590 diagonalized for initial guess.
 HarFok:  IExCor= 1009 AccDes= 0.00D+00 IRadAn=    199590 IDoV= 1 UseB2=F ITyADJ=14
 ICtDFT=  3500011 ScaDFX=  1.000000  1.000000  1.000000  1.000000
 FoFCou: FMM=F IPFlag=           0 FMFlag=      100000 FMFlg1=           0
         NFxFlg=           0 DoJE=T BraDBF=F KetDBF=T FulRan=T
         wScrn=  0.000000 ICntrl=     500 IOpCl=  0 I1Cent=   200000004 NGrid=           0
         NMat0=    1 NMatS0=      1 NMatT0=    0 NMatD0=    1 NMtDS0=    0 NMtDT0=    0
 Petite list used in FoFCou.
 Harris En= -613.563520426253    
 JPrj=0 DoOrth=F DoCkMO=F.
 Leave Link  401 at Wed Jun 18 15:10:31 2014, MaxMem=  4294967296 cpu:       256.4
 (Enter /home/ztw1e12/g09/l502.exe)
 Closed shell SCF:
 Using DIIS extrapolation, IDIIS=  1040.
 Integral symmetry usage will be decided dynamically.
 IVT=     3801329 IEndB=     3801329 NGot=  4294967296 MDV=  4292435888
 LenX=  4292435888 LenY=  4291182608
 Requested convergence on RMS density matrix=1.00D-08 within 128 cycles.
 Requested convergence on MAX density matrix=1.00D-06.
 Requested convergence on             energy=1.00D-06.
 No special actions if energy rises.
 Fock matrices will be formed incrementally for  20 cycles.
 Integral accuracy reduced to 1.0D-05 until final iterations.

 Cycle   1  Pass 0  IDiag  1:
 FoFJK:  IHMeth= 1 ICntrl=       0 DoSepK=F KAlg= 0 I1Cent=   0 FoldK=F
 IRaf= 480000000 NMat=   1 IRICut=       1 DoRegI=T DoRafI=F ISym2E= 0.
 FoFCou: FMM=F IPFlag=           0 FMFlag=      100000 FMFlg1=           0
         NFxFlg=           0 DoJE=F BraDBF=F KetDBF=F FulRan=T
         wScrn=  0.000000 ICntrl=       0 IOpCl=  0 I1Cent=           0 NGrid=           0
         NMat0=    1 NMatS0=      1 NMatT0=    0 NMatD0=    1 NMtDS0=    0 NMtDT0=    0
 Symmetry not used in FoFCou.
 E= -613.183001256059    
 DIIS: error= 1.52D-01 at cycle   1 NSaved=   1.
 NSaved= 1 IEnMin= 1 EnMin= -613.183001256059     IErMin= 1 ErrMin= 1.52D-01
 ErrMax= 1.52D-01  0.00D+00 EMaxC= 1.00D-01 BMatC= 1.30D+01 BMatP= 1.30D+01
 IDIUse=3 WtCom= 0.00D+00 WtEn= 1.00D+00
 Coeff-Com:  0.100D+01
 Coeff-En:   0.100D+01
 Coeff:      0.100D+01
 Gap=     0.288 Goal=   None    Shift=    0.000
 GapD=    0.288 DampG=1.000 DampE=0.250 DampFc=0.2500 IDamp=-1.
 Damping current iteration by 2.50D-01
 RMSDP=2.11D-03 MaxDP=2.99D-01              OVMax= 2.83D-01

 Cycle   2  Pass 0  IDiag  1:
 RMSU=  5.26D-04    CP:  1.01D+00
 E= -613.340327274899     Delta-E=       -0.157326018841 Rises=F Damp=T
 DIIS: error= 1.15D-01 at cycle   2 NSaved=   2.
 NSaved= 2 IEnMin= 2 EnMin= -613.340327274899     IErMin= 2 ErrMin= 1.15D-01
 ErrMax= 1.15D-01  0.00D+00 EMaxC= 1.00D-01 BMatC= 7.66D+00 BMatP= 1.30D+01
 IDIUse=3 WtCom= 0.00D+00 WtEn= 1.00D+00
 Coeff-Com: -0.279D+01 0.379D+01
 Coeff-En:   0.000D+00 0.100D+01
 Coeff:      0.000D+00 0.100D+01
 Gap=     0.222 Goal=   None    Shift=    0.000
 RMSDP=5.82D-04 MaxDP=5.19D-02 DE=-1.57D-01 OVMax= 1.31D-01

 Cycle   3  Pass 0  IDiag  1:
 RMSU=  4.36D-04    CP:  1.03D+00  1.73D+00
 E= -613.529507736794     Delta-E=       -0.189180461895 Rises=F Damp=F
 DIIS: error= 1.36D-02 at cycle   3 NSaved=   3.
 NSaved= 3 IEnMin= 3 EnMin= -613.529507736794     IErMin= 3 ErrMin= 1.36D-02
 ErrMax= 1.36D-02  0.00D+00 EMaxC= 1.00D-01 BMatC= 2.31D-01 BMatP= 7.66D+00
 IDIUse=3 WtCom= 8.64D-01 WtEn= 1.36D-01
 Coeff-Com:  0.123D+01-0.168D+01 0.145D+01
 Coeff-En:   0.139D+00 0.000D+00 0.861D+00
 Coeff:      0.108D+01-0.145D+01 0.137D+01
 Gap=     0.255 Goal=   None    Shift=    0.000
 RMSDP=4.19D-04 MaxDP=3.51D-02 DE=-1.89D-01 OVMax= 6.64D-02

 Cycle   4  Pass 0  IDiag  1:
 RMSU=  2.66D-04    CP:  1.03D+00  1.16D+00  7.16D-01
 E= -613.546541555026     Delta-E=       -0.017033818232 Rises=F Damp=F
 DIIS: error= 9.29D-03 at cycle   4 NSaved=   4.
 NSaved= 4 IEnMin= 4 EnMin= -613.546541555026     IErMin= 4 ErrMin= 9.29D-03
 ErrMax= 9.29D-03  0.00D+00 EMaxC= 1.00D-01 BMatC= 1.02D-01 BMatP= 2.31D-01
 IDIUse=3 WtCom= 9.07D-01 WtEn= 9.29D-02
 Coeff-Com:  0.759D+00-0.104D+01 0.745D+00 0.540D+00
 Coeff-En:   0.000D+00 0.000D+00 0.437D+00 0.563D+00
 Coeff:      0.689D+00-0.947D+00 0.716D+00 0.542D+00
 Gap=     0.285 Goal=   None    Shift=    0.000
 RMSDP=2.70D-04 MaxDP=2.14D-02 DE=-1.70D-02 OVMax= 7.26D-02

 Cycle   5  Pass 0  IDiag  1:
 RMSU=  8.62D-05    CP:  1.02D+00  1.10D+00  8.56D-01  7.68D-02
 E= -613.616311777286     Delta-E=       -0.069770222261 Rises=F Damp=F
 DIIS: error= 3.41D-03 at cycle   5 NSaved=   5.
 NSaved= 5 IEnMin= 5 EnMin= -613.616311777286     IErMin= 5 ErrMin= 3.41D-03
 ErrMax= 3.41D-03  0.00D+00 EMaxC= 1.00D-01 BMatC= 1.45D-02 BMatP= 1.02D-01
 IDIUse=3 WtCom= 9.66D-01 WtEn= 3.41D-02
 Coeff-Com:  0.130D+00-0.187D+00 0.133D+00 0.276D+00 0.647D+00
 Coeff-En:   0.000D+00 0.000D+00 0.000D+00 0.882D-01 0.912D+00
 Coeff:      0.126D+00-0.180D+00 0.129D+00 0.270D+00 0.656D+00
 Gap=     0.272 Goal=   None    Shift=    0.000
 RMSDP=1.53D-04 MaxDP=1.59D-02 DE=-6.98D-02 OVMax= 3.12D-02

 Cycle   6  Pass 0  IDiag  1:
 RMSU=  7.98D-05    CP:  1.03D+00  1.15D+00  9.50D-01  4.81D-01  3.68D-01
 E= -613.624504671068     Delta-E=       -0.008192893781 Rises=F Damp=F
 DIIS: error= 1.08D-03 at cycle   6 NSaved=   6.
 NSaved= 6 IEnMin= 6 EnMin= -613.624504671068     IErMin= 6 ErrMin= 1.08D-03
 ErrMax= 1.08D-03  0.00D+00 EMaxC= 1.00D-01 BMatC= 1.12D-03 BMatP= 1.45D-02
 IDIUse=3 WtCom= 9.89D-01 WtEn= 1.08D-02
 Coeff-Com:  0.580D-01-0.787D-01 0.185D-01 0.430D-01 0.202D+00 0.757D+00
 Coeff-En:   0.000D+00 0.000D+00 0.000D+00 0.000D+00 0.171D-01 0.983D+00
 Coeff:      0.573D-01-0.778D-01 0.183D-01 0.426D-01 0.200D+00 0.759D+00
 Gap=     0.272 Goal=   None    Shift=    0.000
 RMSDP=3.18D-05 MaxDP=2.96D-03 DE=-8.19D-03 OVMax= 1.01D-02

 Cycle   7  Pass 0  IDiag  1:
 RMSU=  2.16D-05    CP:  1.03D+00  1.11D+00  9.51D-01  4.74D-01  5.05D-01
                    CP:  1.10D+00
 E= -613.625118031429     Delta-E=       -0.000613360361 Rises=F Damp=F
 DIIS: error= 4.32D-04 at cycle   7 NSaved=   7.
 NSaved= 7 IEnMin= 7 EnMin= -613.625118031429     IErMin= 7 ErrMin= 4.32D-04
 ErrMax= 4.32D-04  0.00D+00 EMaxC= 1.00D-01 BMatC= 2.32D-04 BMatP= 1.12D-03
 IDIUse=3 WtCom= 9.96D-01 WtEn= 4.32D-03
 Coeff-Com:  0.395D-01-0.529D-01 0.124D-01 0.790D-02 0.617D-01 0.424D+00
 Coeff-Com:  0.508D+00
 Coeff-En:   0.000D+00 0.000D+00 0.000D+00 0.000D+00 0.000D+00 0.104D+00
 Coeff-En:   0.896D+00
 Coeff:      0.393D-01-0.527D-01 0.123D-01 0.787D-02 0.615D-01 0.422D+00
 Coeff:      0.509D+00
 Gap=     0.272 Goal=   None    Shift=    0.000
 RMSDP=1.12D-05 MaxDP=9.48D-04 DE=-6.13D-04 OVMax= 3.43D-03

 Cycle   8  Pass 0  IDiag  1:
 RMSU=  6.74D-06    CP:  1.03D+00  1.11D+00  9.56D-01  4.85D-01  4.94D-01
                    CP:  1.15D+00  6.70D-01
 E= -613.625276972742     Delta-E=       -0.000158941313 Rises=F Damp=F
 DIIS: error= 1.40D-04 at cycle   8 NSaved=   8.
 NSaved= 8 IEnMin= 8 EnMin= -613.625276972742     IErMin= 8 ErrMin= 1.40D-04
 ErrMax= 1.40D-04  0.00D+00 EMaxC= 1.00D-01 BMatC= 2.68D-05 BMatP= 2.32D-04
 IDIUse=3 WtCom= 9.99D-01 WtEn= 1.40D-03
 Coeff-Com:  0.214D-01-0.287D-01 0.831D-02-0.324D-02 0.412D-02 0.166D+00
 Coeff-Com:  0.297D+00 0.535D+00
 Coeff-En:   0.000D+00 0.000D+00 0.000D+00 0.000D+00 0.000D+00 0.000D+00
 Coeff-En:   0.000D+00 0.100D+01
 Coeff:      0.214D-01-0.286D-01 0.830D-02-0.323D-02 0.412D-02 0.166D+00
 Coeff:      0.296D+00 0.536D+00
 Gap=     0.272 Goal=   None    Shift=    0.000
 RMSDP=5.56D-06 MaxDP=5.46D-04 DE=-1.59D-04 OVMax= 1.23D-03

 Initial convergence to 1.0D-05 achieved.  Increase integral accuracy.
 Cycle   9  Pass 1  IDiag  1:
 E= -613.625284701208     Delta-E=       -0.000007728466 Rises=F Damp=F
 DIIS: error= 9.14D-05 at cycle   1 NSaved=   1.
 NSaved= 1 IEnMin= 1 EnMin= -613.625284701208     IErMin= 1 ErrMin= 9.14D-05
 ErrMax= 9.14D-05  0.00D+00 EMaxC= 1.00D-01 BMatC= 1.13D-05 BMatP= 1.13D-05
 IDIUse=1 WtCom= 1.00D+00 WtEn= 0.00D+00
 Coeff-Com:  0.100D+01
 Coeff:      0.100D+01
 Gap=     0.272 Goal=   None    Shift=    0.000
 RMSDP=5.56D-06 MaxDP=5.46D-04 DE=-7.73D-06 OVMax= 1.48D-03

 Cycle  10  Pass 1  IDiag  1:
 RMSU=  2.43D-05    CP:  1.00D+00
 E= -613.625281069643     Delta-E=        0.000003631566 Rises=F Damp=F
 DIIS: error= 1.04D-04 at cycle   2 NSaved=   2.
 NSaved= 2 IEnMin= 1 EnMin= -613.625284701208     IErMin= 1 ErrMin= 9.14D-05
 ErrMax= 1.04D-04  0.00D+00 EMaxC= 1.00D-01 BMatC= 1.35D-05 BMatP= 1.13D-05
 IDIUse=3 WtCom= 4.96D-01 WtEn= 5.04D-01
 Coeff-Com:  0.529D+00 0.471D+00
 Coeff-En:   0.626D+00 0.374D+00
 Coeff:      0.578D+00 0.422D+00
 Gap=     0.272 Goal=   None    Shift=    0.000
 RMSDP=3.57D-06 MaxDP=4.30D-04 DE= 3.63D-06 OVMax= 1.25D-03

 Cycle  11  Pass 1  IDiag  1:
 RMSU=  3.54D-06    CP:  1.00D+00  9.89D-01
 E= -613.625289822468     Delta-E=       -0.000008752825 Rises=F Damp=F
 DIIS: error= 3.48D-05 at cycle   3 NSaved=   3.
 NSaved= 3 IEnMin= 3 EnMin= -613.625289822468     IErMin= 3 ErrMin= 3.48D-05
 ErrMax= 3.48D-05  0.00D+00 EMaxC= 1.00D-01 BMatC= 1.31D-06 BMatP= 1.13D-05
 IDIUse=1 WtCom= 1.00D+00 WtEn= 0.00D+00
 Coeff-Com:  0.600D-01 0.237D+00 0.703D+00
 Coeff:      0.600D-01 0.237D+00 0.703D+00
 Gap=     0.272 Goal=   None    Shift=    0.000
 RMSDP=9.31D-07 MaxDP=9.86D-05 DE=-8.75D-06 OVMax= 3.00D-04

 Cycle  12  Pass 1  IDiag  1:
 RMSU=  4.89D-07    CP:  1.00D+00  1.01D+00  8.07D-01
 E= -613.625290654313     Delta-E=       -0.000000831845 Rises=F Damp=F
 DIIS: error= 1.26D-05 at cycle   4 NSaved=   4.
 NSaved= 4 IEnMin= 4 EnMin= -613.625290654313     IErMin= 4 ErrMin= 1.26D-05
 ErrMax= 1.26D-05  0.00D+00 EMaxC= 1.00D-01 BMatC= 1.02D-07 BMatP= 1.31D-06
 IDIUse=1 WtCom= 1.00D+00 WtEn= 0.00D+00
 Coeff-Com:  0.748D-02 0.978D-01 0.349D+00 0.545D+00
 Coeff:      0.748D-02 0.978D-01 0.349D+00 0.545D+00
 Gap=     0.272 Goal=   None    Shift=    0.000
 RMSDP=2.40D-07 MaxDP=2.29D-05 DE=-8.32D-07 OVMax= 6.60D-05

 Cycle  13  Pass 1  IDiag  1:
 RMSU=  2.04D-07    CP:  1.00D+00  1.01D+00  8.17D-01  7.66D-01
 E= -613.625290723927     Delta-E=       -0.000000069615 Rises=F Damp=F
 DIIS: error= 2.89D-06 at cycle   5 NSaved=   5.
 NSaved= 5 IEnMin= 5 EnMin= -613.625290723927     IErMin= 5 ErrMin= 2.89D-06
 ErrMax= 2.89D-06  0.00D+00 EMaxC= 1.00D-01 BMatC= 7.70D-09 BMatP= 1.02D-07
 IDIUse=1 WtCom= 1.00D+00 WtEn= 0.00D+00
 Coeff-Com: -0.191D-02 0.266D-01 0.108D+00 0.269D+00 0.598D+00
 Coeff:     -0.191D-02 0.266D-01 0.108D+00 0.269D+00 0.598D+00
 Gap=     0.272 Goal=   None    Shift=    0.000
 RMSDP=7.83D-08 MaxDP=7.57D-06 DE=-6.96D-08 OVMax= 2.06D-05

 Cycle  14  Pass 1  IDiag  1:
 RMSU=  4.34D-08    CP:  1.00D+00  1.01D+00  8.22D-01  8.80D-01  8.94D-01
 E= -613.625290728992     Delta-E=       -0.000000005065 Rises=F Damp=F
 DIIS: error= 6.23D-07 at cycle   6 NSaved=   6.
 NSaved= 6 IEnMin= 6 EnMin= -613.625290728992     IErMin= 6 ErrMin= 6.23D-07
 ErrMax= 6.23D-07  0.00D+00 EMaxC= 1.00D-01 BMatC= 4.29D-10 BMatP= 7.70D-09
 IDIUse=1 WtCom= 1.00D+00 WtEn= 0.00D+00
 Coeff-Com: -0.120D-02 0.853D-02 0.363D-01 0.107D+00 0.288D+00 0.562D+00
 Coeff:     -0.120D-02 0.853D-02 0.363D-01 0.107D+00 0.288D+00 0.562D+00
 Gap=     0.272 Goal=   None    Shift=    0.000
 RMSDP=2.33D-08 MaxDP=2.42D-06 DE=-5.06D-09 OVMax= 8.83D-06

 Cycle  15  Pass 1  IDiag  1:
 RMSU=  2.14D-08    CP:  1.00D+00  1.01D+00  8.23D-01  8.89D-01  9.15D-01
                    CP:  8.70D-01
 E= -613.625290729318     Delta-E=       -0.000000000327 Rises=F Damp=F
 DIIS: error= 4.93D-07 at cycle   7 NSaved=   7.
 NSaved= 7 IEnMin= 7 EnMin= -613.625290729318     IErMin= 7 ErrMin= 4.93D-07
 ErrMax= 4.93D-07  0.00D+00 EMaxC= 1.00D-01 BMatC= 1.41D-10 BMatP= 4.29D-10
 IDIUse=1 WtCom= 1.00D+00 WtEn= 0.00D+00
 Coeff-Com: -0.370D-03-0.499D-03-0.959D-03 0.764D-02 0.475D-01 0.373D+00
 Coeff-Com:  0.574D+00
 Coeff:     -0.370D-03-0.499D-03-0.959D-03 0.764D-02 0.475D-01 0.373D+00
 Coeff:      0.574D+00
 Gap=     0.272 Goal=   None    Shift=    0.000
 RMSDP=1.53D-08 MaxDP=1.81D-06 DE=-3.27D-10 OVMax= 3.18D-06

 Cycle  16  Pass 1  IDiag  1:
 RMSU=  6.36D-09    CP:  1.00D+00  1.01D+00  8.24D-01  9.04D-01  9.39D-01
                    CP:  1.07D+00  7.96D-01
 E= -613.625290729390     Delta-E=       -0.000000000072 Rises=F Damp=F
 DIIS: error= 1.15D-07 at cycle   8 NSaved=   8.
 NSaved= 8 IEnMin= 8 EnMin= -613.625290729390     IErMin= 8 ErrMin= 1.15D-07
 ErrMax= 1.15D-07  0.00D+00 EMaxC= 1.00D-01 BMatC= 1.05D-11 BMatP= 1.41D-10
 IDIUse=1 WtCom= 1.00D+00 WtEn= 0.00D+00
 Coeff-Com: -0.438D-04-0.131D-02-0.490D-02-0.910D-02-0.111D-01 0.129D+00
 Coeff-Com:  0.295D+00 0.602D+00
 Coeff:     -0.438D-04-0.131D-02-0.490D-02-0.910D-02-0.111D-01 0.129D+00
 Coeff:      0.295D+00 0.602D+00
 Gap=     0.272 Goal=   None    Shift=    0.000
 RMSDP=3.58D-09 MaxDP=4.29D-07 DE=-7.19D-11 OVMax= 5.57D-07

 SCF Done:  E(RM06) =  -613.625290729     A.U. after   16 cycles
            NFock= 16  Conv=0.36D-08     -V/T= 2.0046
 KE= 6.108029065931D+02 PE=-3.178696508969D+03 EE= 1.080624552909D+03
 Leave Link  502 at Wed Jun 18 15:38:31 2014, MaxMem=  4294967296 cpu:     26805.8
 (Enter /home/ztw1e12/g09/l801.exe)
 DoSCS=F DFT=T ScalE2(SS,OS)=  1.000000  1.000000
 Range of M.O.s used for correlation:     1   932
 NBasis=  1036 NAE=    51 NBE=    51 NFC=     0 NFV=     0
 NROrb=    932 NOA=    51 NOB=    51 NVA=   881 NVB=   881

 **** Warning!!: The largest alpha MO coefficient is  0.11201964D+02

 Leave Link  801 at Wed Jun 18 15:38:31 2014, MaxMem=  4294967296 cpu:         0.4
 (Enter /home/ztw1e12/g09/l1002.exe)
 Minotr:  Closed shell wavefunction.
          IDoAtm=1111111111111111111111111111111
          Direct CPHF calculation.
          Differentiating once with respect to Fermi-contact.
          Electric field/nuclear overlap derivatives assumed to be zero.
          Requested convergence is 1.0D-10 RMS, and 1.0D-09 maximum.
          Secondary convergence is 1.0D-12 RMS, and 1.0D-12 maximum.
          NewPWx=T KeepS1=F KeepF1=F KeepIn=T MapXYZ=F SortEE=F KeepMc=T.
          MDV=    4294966050 using IRadAn=  199590.
 Using stored XC quadrature information.
          Solving linear equations simultaneously, MaxMat=       0.
          There are    31 degrees of freedom in the 1st order CPHF.  IDoFFX=0 NUNeed=    31.
     31 vectors produced by pass  0 Test12= 1.45D-17 3.23D-11 XBig12= 4.16D+01 2.56D+00.
 AX will form    31 AO Fock derivatives at one time.
 FoFJK:  IHMeth= 1 ICntrl=       0 DoSepK=F KAlg= 0 I1Cent=   0 FoldK=F
 IRaf= 500000000 NMat=  31 IRICut=       1 DoRegI=T DoRafI=F ISym2E=-1.
 FoFCou: FMM=F IPFlag=           0 FMFlag=      100000 FMFlg1=           0
         NFxFlg=           0 DoJE=F BraDBF=F KetDBF=F FulRan=T
         wScrn=  0.000000 ICntrl=       0 IOpCl=  0 I1Cent=           0 NGrid=           0
         NMat0=   31 NMatS0=      0 NMatT0=   31 NMatD0=   31 NMtDS0=    0 NMtDT0=    0
 Petite list used in FoFCou.
     31 vectors produced by pass  1 Test12= 1.45D-17 3.23D-11 XBig12= 3.45D-01 1.76D-01.
     31 vectors produced by pass  2 Test12= 1.45D-17 3.23D-11 XBig12= 1.67D-02 4.72D-02.
     31 vectors produced by pass  3 Test12= 1.45D-17 3.23D-11 XBig12= 3.67D-04 6.27D-03.
     31 vectors produced by pass  4 Test12= 1.45D-17 3.23D-11 XBig12= 5.18D-06 8.94D-04.
     31 vectors produced by pass  5 Test12= 1.45D-17 3.23D-11 XBig12= 1.16D-07 1.54D-04.
     31 vectors produced by pass  6 Test12= 1.45D-17 3.23D-11 XBig12= 3.41D-09 1.71D-05.
     31 vectors produced by pass  7 Test12= 1.45D-17 3.23D-11 XBig12= 9.59D-11 4.02D-06.
     31 vectors produced by pass  8 Test12= 1.45D-17 3.23D-11 XBig12= 2.22D-12 3.37D-07.
     31 vectors produced by pass  9 Test12= 1.45D-17 3.23D-11 XBig12= 5.42D-14 6.75D-08.
     31 vectors produced by pass 10 Test12= 1.45D-17 3.23D-11 XBig12= 2.16D-15 6.41D-09.
     30 vectors produced by pass 11 Test12= 1.45D-17 3.23D-11 XBig12= 2.25D-17 6.11D-10.
      3 vectors produced by pass 12 Test12= 1.45D-17 3.23D-11 XBig12= 1.64D-19 3.88D-11.
 InvSVY:  IOpt=1 It=  1 EMax= 7.11D-15
 Solved reduced A of dimension   374 with    31 vectors.
 Max diff in FC couplings:  IJMax=    23     9 Diff= 2.58D-04 IJMaxR=    25    22 DiffR= 8.88D-01
 Fermi Contact (FC) contribution to K (Hz):
                1             2             3             4             5 
      1  0.123400D+11
      2  0.271665D+02  0.123400D+11
      3 -0.942836D+00  0.191527D+02  0.123400D+11
      4 -0.376645D-01  0.964667D+00 -0.287696D-01  0.123400D+11
      5  0.411209D-02  0.562862D-01  0.245808D-02  0.175272D+02  0.123400D+11
      6  0.568643D-02 -0.116789D-01  0.104580D-02  0.174629D+02 -0.766575D+00
      7  0.528575D-02 -0.116279D-01  0.830423D-03  0.171068D+02 -0.746992D+00
      8 -0.978563D+01  0.242616D+01  0.382344D+00 -0.445003D-01  0.101729D-01
      9 -0.798846D-02  0.192439D+02 -0.548095D+00  0.312658D-01 -0.577993D-02
     10  0.245085D-01  0.219251D+00  0.186063D+00 -0.398260D-02  0.110091D-02
     11  0.287498D+02  0.134655D+02  0.154662D+00  0.239723D-01  0.368950D-02
     12  0.452142D+00  0.121103D+00 -0.228642D-01 -0.329203D-02 -0.296344D-03
     13 -0.393856D+00  0.109895D+01  0.969619D-02 -0.135850D-01  0.144267D-03
     14  0.185525D+00 -0.888519D-01  0.148942D-01 -0.156277D-02  0.314504D-03
     15  0.204039D+00 -0.750107D-01  0.695971D-02  0.689832D-03  0.234386D-03
     16  0.961972D+00 -0.246099D-01 -0.620780D-03  0.545196D-03  0.120882D-04
     17  0.175832D+00 -0.418734D+00  0.235759D+00  0.756693D-02  0.220484D-02
     18 -0.166026D+00  0.886005D+00 -0.745555D-01 -0.136442D-02 -0.117516D-03
     19 -0.231794D-02  0.105630D+00 -0.193215D-02  0.675222D-03  0.152652D-04
     20  0.635456D-01  0.162135D-02  0.174834D-01  0.170713D-02  0.113203D-04
     21  0.717454D-01  0.585818D-01  0.212426D-01 -0.853923D-03 -0.239515D-04
     22  0.476236D+00  0.832183D+00  0.233444D+00  0.318840D-01  0.213947D-02
     23  0.559818D+00 -0.520674D+00  0.101903D+01  0.171304D+02 -0.542382D+00
     24 -0.490758D-02  0.824087D+00 -0.108648D-01 -0.800898D+00  0.118722D+00
     25 -0.120497D-01  0.370807D+00  0.483187D-02  0.767104D-01  0.304844D+00
     26  0.113450D-01 -0.110210D-01  0.315617D-03  0.498052D+00 -0.413207D-02
     27  0.433382D-03 -0.368364D-02  0.553594D-02  0.138934D+01  0.433215D-02
     28 -0.150209D-02 -0.527270D-02  0.516380D-02  0.261436D+00 -0.648452D-02
     29 -0.447228D+00  0.162399D+02 -0.779861D+00  0.156153D+00  0.145218D+01
     30  0.110633D+01 -0.931419D+00  0.166119D+00  0.129537D+00  0.206824D-02
     31  0.227233D+00 -0.439573D+00  0.122473D+00  0.111437D+01  0.376033D-01
                6             7             8             9            10 
      6  0.123400D+11
      7 -0.750522D+00  0.123400D+11
      8  0.176346D-01  0.266628D-01  0.123400D+11
      9 -0.240652D-02  0.478116D-01  0.373823D+00  0.123400D+11
     10  0.164024D-03 -0.396911D-03  0.353534D-02  0.315882D+02  0.123400D+11
     11  0.111179D-01 -0.246387D-02  0.644937D+01  0.910656D+00  0.171496D+00
     12  0.188339D-03  0.124365D-03  0.481543D+00  0.474792D-01 -0.433665D-03
     13 -0.109797D-02  0.105066D-03  0.655875D+00  0.283051D+00  0.133301D-01
     14  0.390856D-02  0.333158D-03  0.239240D+00 -0.751681D-02 -0.106232D-02
     15  0.104199D-02  0.184624D-04  0.245608D+00 -0.337199D-02 -0.999395D-03
     16  0.281807D-03  0.344227D-05  0.178516D+00  0.213653D-01 -0.100627D-02
     17 -0.470563D-03  0.635849D-02  0.384092D-01  0.261153D+02  0.360089D+00
     18  0.119709D-04  0.517800D-03  0.740107D-01  0.127101D+02  0.948508D-01
     19  0.358827D-04  0.673370D-05 -0.290616D-03  0.350883D+00 -0.101045D-01
     20 -0.187084D-04 -0.396057D-04  0.449242D-02  0.285382D+00 -0.583667D-02
     21 -0.807030D-05  0.128168D-03  0.270029D-02  0.462329D+00 -0.170047D-01
     22  0.659670D-03 -0.408401D-03  0.485103D+00  0.587765D+01  0.434851D+00
     23 -0.591664D+00 -0.787554D+00  0.855778D+00  0.957535D+00 -0.416736D-01
     24  0.164391D+00  0.397566D+00  0.285886D-01  0.597382D-01 -0.131217D-01
     25  0.141093D+01  0.446126D+00  0.605921D-01  0.303323D+00 -0.535773D-01
     26 -0.630468D-02 -0.136013D-01  0.535365D-01  0.316760D-01 -0.241777D-02
     27  0.815936D-01 -0.108414D-01  0.501559D-02  0.176672D+00 -0.298472D-01
     28  0.369864D-02 -0.505808D-02  0.248269D-02  0.608784D-02 -0.121688D-02
     29  0.327640D+00  0.453635D+00  0.177205D+00  0.650709D+00  0.463943D+00
     30  0.186625D-02 -0.417055D-02  0.934713D-01  0.476651D+00 -0.166549D-01
     31 -0.883656D-02 -0.116660D-01 -0.137306D-01  0.190535D+01 -0.219607D-01
               11            12            13            14            15 
     11  0.123400D+11
     12  0.312474D+02  0.123400D+11
     13  0.169968D+02  0.323148D+00  0.123400D+11
     14 -0.593296D+00  0.619934D-01  0.196705D+02  0.123400D+11
     15 -0.541796D+00  0.158795D+00  0.203091D+02 -0.730814D+00  0.123400D+11
     16 -0.387855D+00  0.286622D+00  0.182519D+02 -0.730795D+00 -0.764528D+00
     17 -0.560705D-01  0.375830D-03 -0.630492D-02  0.601335D-03  0.117049D-03
     18  0.971022D-02  0.903610D-03  0.984073D-02  0.148477D-02  0.974175D-03
     19  0.548507D-02  0.597291D-04  0.514917D-04 -0.446841D-04 -0.271032D-04
     20 -0.199656D-02 -0.179701D-03 -0.285319D-03  0.300323D-04 -0.395110D-04
     21  0.149692D-01 -0.706272D-04  0.219232D-02  0.102560D-03 -0.533041D-04
     22  0.187159D+00 -0.166009D-02  0.606128D-02  0.642189D-02  0.343562D-02
     23 -0.331971D-01  0.672601D-02  0.399334D-02 -0.180437D-02 -0.199026D-02
     24  0.225440D-01 -0.915154D-03 -0.150693D-02  0.721229D-03  0.424482D-03
     25  0.657655D-02 -0.454416D-03 -0.476579D-02  0.205333D-03  0.966898D-03
     26  0.899337D-03 -0.648606D-05  0.573001D-03 -0.409110D-04  0.416686D-05
     27  0.165102D-02  0.000000D+00 -0.185054D-03  0.304636D-03  0.145846D-03
     28  0.217187D-02 -0.256297D-03 -0.491210D-03  0.191918D-03  0.370263D-03
     29  0.152327D+00 -0.378250D-01 -0.135723D+00  0.827808D-01  0.102537D+00
     30 -0.206329D-01 -0.594578D-02 -0.498337D-02  0.456343D-02  0.497016D-02
     31  0.436985D-01 -0.853756D-02 -0.334460D-02  0.115772D-02  0.105784D-02
               16            17            18            19            20 
     16  0.123400D+11
     17 -0.150248D-03  0.123400D+11
     18  0.174603D-03  0.273031D+02  0.123400D+11
     19  0.239889D-05 -0.758645D+00  0.170583D+02  0.123400D+11
     20  0.141761D-03 -0.118941D+01  0.177968D+02 -0.729999D+00  0.123400D+11
     21  0.361009D-03 -0.119252D+01  0.180708D+02 -0.736748D+00 -0.925431D+00
     22  0.203628D-02 -0.948498D+01  0.374532D+01  0.832613D+00  0.435648D+00
     23  0.784516D-03 -0.365922D-01  0.272417D-01 -0.166737D-02 -0.160769D-02
     24  0.117281D-04  0.805243D-02 -0.221422D-02  0.169451D-03  0.645507D-03
     25  0.150283D-03  0.654562D-01 -0.634364D-02 -0.603370D-03 -0.338514D-03
     26  0.464564D-04  0.205409D-02  0.342521D-03  0.161357D-03  0.283982D-04
     27  0.405782D-05  0.111007D-01  0.578730D-03  0.130751D-02  0.429308D-04
     28  0.219233D-04  0.261173D-02  0.104476D-03 -0.752481D-04 -0.138363D-04
     29  0.163743D-02  0.147264D+01 -0.399619D-01 -0.146595D-02  0.103764D-01
     30  0.607107D-04 -0.214389D-01  0.103521D-01 -0.133783D-03 -0.611193D-03
     31  0.428113D-03  0.123443D+00  0.629444D-01  0.170513D-04  0.121028D-02
               21            22            23            24            25 
     21  0.123400D+11
     22  0.445302D+00  0.123400D+11
     23 -0.125236D-02  0.105514D+00  0.123400D+11
     24 -0.184512D-03  0.135684D-01  0.178195D+02  0.123400D+11
     25 -0.478200D-03 -0.475360D-04  0.169555D+02 -0.687684D+00  0.123400D+11
     26 -0.870752D-05 -0.172777D-03 -0.807187D+00  0.406728D+00  0.172504D+02
     27 -0.378308D-04  0.210959D-02 -0.540088D+00  0.140357D+00  0.167986D+02
     28 -0.260538D-04 -0.145018D-03 -0.533488D+00  0.129105D+00  0.175945D+02
     29 -0.455974D-02  0.164338D+00  0.171147D+02 -0.715240D+00  0.109221D+00
     30 -0.214890D-03 -0.184321D-02 -0.567184D+00  0.126369D+00  0.112005D+01
     31 -0.179902D-02 -0.856457D-02 -0.629794D+00  0.529607D-01  0.378744D+00
               26            27            28            29            30 
     26  0.123400D+11
     27 -0.758768D+00  0.123400D+11
     28 -0.756978D+00 -0.760516D+00  0.123400D+11
     29  0.428721D+00  0.269433D+00  0.138089D+01  0.123400D+11
     30 -0.152457D-01 -0.108057D-01  0.267907D-01  0.174457D+02  0.123400D+11
     31 -0.725209D-02 -0.139934D-02  0.185316D-01  0.173196D+02 -0.899536D+00
               31 
     31  0.123400D+11
 Fermi Contact (FC) contribution to J (Hz):
                1             2             3             4             5 
      1  0.243533D+11
      2  0.536137D+02  0.243533D+11
      3 -0.739835D+01  0.150290D+03  0.385007D+12
      4 -0.743318D-01  0.190380D+01 -0.225752D+00  0.243533D+11
      5  0.322672D-01  0.441673D+00  0.766920D-01  0.137534D+03  0.385007D+12
      6  0.446209D-01 -0.916430D-01  0.326289D-01  0.137030D+03 -0.239171D+02
      7  0.414768D-01 -0.912432D-01  0.259092D-01  0.134235D+03 -0.233061D+02
      8  0.104137D+02 -0.258187D+01 -0.161780D+01  0.473564D-01 -0.430445D-01
      9 -0.453115D-02  0.109154D+02 -0.123611D+01  0.177344D-01 -0.130354D-01
     10  0.192316D+00  0.172044D+01  0.580514D+01 -0.312511D-01  0.343483D-01
     11  0.163072D+02  0.763782D+01  0.348808D+00  0.135974D-01  0.832087D-02
     12  0.354791D+01  0.950284D+00 -0.713361D+00 -0.258322D-01 -0.924593D-02
     13 -0.777285D+00  0.216881D+01  0.760850D-01 -0.268103D-01  0.113205D-02
     14  0.145580D+01 -0.697213D+00  0.464697D+00 -0.122629D-01  0.981250D-02
     15  0.160107D+01 -0.588602D+00  0.217143D+00  0.541304D-02  0.731285D-02
     16  0.754850D+01 -0.193111D+00 -0.193683D-01  0.427810D-02  0.377152D-03
     17  0.347009D+00 -0.826382D+00  0.184998D+01  0.149335D-01  0.173012D-01
     18 -0.327657D+00  0.174855D+01 -0.585030D+00 -0.269272D-02 -0.922137D-03
     19 -0.181887D-01  0.828871D+00 -0.602831D-01  0.529840D-02  0.476272D-03
     20  0.498636D+00  0.127226D-01  0.545481D+00  0.133957D-01  0.353192D-03
     21  0.562979D+00  0.459686D+00  0.662769D+00 -0.670065D-02 -0.747285D-03
     22 -0.506801D+00 -0.885594D+00 -0.987766D+00 -0.339303D-01 -0.905269D-02
     23  0.110481D+01 -0.102756D+01  0.799625D+01  0.338074D+02 -0.425602D+01
     24 -0.385093D-01  0.646653D+01 -0.338980D+00 -0.628457D+01  0.370411D+01
     25 -0.237804D-01  0.731797D+00  0.379152D-01  0.151390D+00  0.239208D+01
     26  0.890231D-01 -0.864806D-01  0.984723D-02  0.390816D+01 -0.128921D+00
     27  0.340071D-02 -0.289052D-01  0.172721D+00  0.109020D+02  0.135163D+00
     28 -0.117867D-01 -0.413744D-01  0.161110D+00  0.205146D+01 -0.202317D+00
     29 -0.882616D+00  0.320497D+02 -0.611949D+01  0.308171D+00  0.113951D+02
     30  0.868125D+01 -0.730875D+01  0.518290D+01  0.101646D+01  0.645290D-01
     31  0.178308D+01 -0.344928D+01  0.382116D+01  0.874433D+01  0.117322D+01
                6             7             8             9            10 
      6  0.385007D+12
      7 -0.234163D+02  0.385007D+12
      8 -0.746166D-01 -0.112818D+00  0.708114D+10
      9 -0.542739D-02  0.107829D+00 -0.114336D+00  0.201170D+10
     10  0.511755D-02 -0.123836D-01 -0.149590D-01  0.712404D+02  0.385007D+12
     11  0.250740D-01 -0.555672D-02 -0.197259D+01  0.148458D+00  0.386773D+00
     12  0.587618D-02  0.388017D-02 -0.203754D+01  0.107079D+00 -0.135303D-01
     13 -0.861566D-02  0.824445D-03 -0.697969D+00  0.160550D+00  0.104600D+00
     14  0.121947D+00  0.103945D-01 -0.101229D+01 -0.169526D-01 -0.331445D-01
     15  0.325099D-01  0.576025D-03 -0.103923D+01 -0.760481D-02 -0.311811D-01
     16  0.879236D-02  0.107399D-03 -0.755351D+00  0.481848D-01 -0.313955D-01
     17 -0.369246D-02  0.498945D-01 -0.408744D-01  0.148129D+02  0.282558D+01
     18  0.939347D-04  0.406312D-02 -0.787608D-01  0.720934D+01  0.744285D+00
     19  0.111954D-02  0.210091D-03  0.122967D-02  0.791342D+00 -0.315260D+00
     20 -0.583701D-03 -0.123569D-02 -0.190087D-01  0.643618D+00 -0.182104D+00
     21 -0.251793D-03  0.399882D-02 -0.114257D-01  0.104268D+01 -0.530547D+00
     22 -0.279124D-02  0.172806D-02  0.278370D+00 -0.179772D+01 -0.183997D+01
     23 -0.464273D+01 -0.617986D+01 -0.910703D+00  0.543126D+00 -0.327009D+00
     24  0.512899D+01  0.124040D+02 -0.120966D+00  0.134727D+00 -0.409396D+00
     25  0.110714D+02  0.350071D+01 -0.644810D-01  0.172048D+00 -0.420416D+00
     26 -0.196706D+00 -0.424361D+00 -0.226527D+00  0.714383D-01 -0.754344D-01
     27  0.254572D+01 -0.338251D+00 -0.212223D-01  0.398446D+00 -0.931231D+00
     28  0.115397D+00 -0.157812D+00 -0.105050D-01  0.137298D-01 -0.379665D-01
     29  0.257096D+01  0.355963D+01 -0.188578D+00  0.369090D+00  0.364052D+01
     30  0.582269D-01 -0.130121D+00 -0.395503D+00  0.107498D+01 -0.519632D+00
     31 -0.275700D+00 -0.363978D+00  0.580979D-01  0.429710D+01 -0.685173D+00
               11            12            13            14            15 
     11  0.201170D+10
     12  0.704719D+02  0.385007D+12
     13  0.964079D+01  0.253571D+01  0.243533D+11
     14 -0.133805D+01  0.193419D+01  0.154352D+03  0.385007D+12
     15 -0.122190D+01  0.495439D+01  0.159363D+03 -0.228014D+02  0.385007D+12
     16 -0.874723D+00  0.894260D+01  0.143221D+03 -0.228008D+02 -0.238533D+02
     17 -0.318039D-01  0.294910D-02 -0.124429D-01  0.471862D-02  0.918469D-03
     18  0.550776D-02  0.709054D-02  0.194209D-01  0.116509D-01  0.764425D-02
     19  0.123704D-01  0.186354D-02  0.404050D-03 -0.139414D-02 -0.845618D-03
     20 -0.450280D-02 -0.560665D-02 -0.223887D-02  0.937005D-03 -0.123274D-02
     21  0.337599D-01 -0.220357D-02  0.172030D-01  0.319988D-02 -0.166308D-02
     22 -0.572438D-01  0.702431D-02 -0.645030D-02 -0.271728D-01 -0.145371D-01
     23 -0.188298D-01  0.527783D-01  0.788096D-02 -0.141587D-01 -0.156174D-01
     24  0.508432D-01 -0.285528D-01 -0.118247D-01  0.225023D-01  0.132438D-01
     25  0.373030D-02 -0.356576D-02 -0.940541D-02  0.161123D-02  0.758715D-02
     26  0.202826D-02 -0.202365D-03  0.449628D-02 -0.127642D-02  0.130006D-03
     27  0.372351D-02  0.354802D-05 -0.145210D-02  0.950464D-02  0.455039D-02
     28  0.489820D-02 -0.799647D-02 -0.385448D-02  0.598783D-02  0.115522D-01
     29  0.864020D-01 -0.296809D+00 -0.267853D+00  0.649573D+00  0.804596D+00
     30 -0.465330D-01 -0.185508D+00 -0.391040D-01  0.142379D+00  0.155069D+00
     31  0.985525D-01 -0.266371D+00 -0.262447D-01  0.361207D-01  0.330046D-01
               16            17            18            19            20 
     16  0.385007D+12
     17 -0.117898D-02  0.243533D+11
     18  0.137009D-02  0.538833D+02  0.243533D+11
     19  0.748453D-04 -0.595302D+01  0.133855D+03  0.385007D+12
     20  0.442295D-02 -0.933321D+01  0.139650D+03 -0.227759D+02  0.385007D+12
     21  0.112635D-01 -0.935755D+01  0.141800D+03 -0.229865D+02 -0.288734D+02
     22 -0.861604D-02  0.100937D+02 -0.398570D+01 -0.352301D+01 -0.184335D+01
     23  0.615602D-02 -0.722156D-01  0.537622D-01 -0.130837D-01 -0.126154D-01
     24  0.365917D-03  0.631867D-01 -0.173748D-01  0.528687D-02  0.201398D-01
     25  0.117925D-02  0.129179D+00 -0.125193D-01 -0.473458D-02 -0.265629D-02
     26  0.144944D-02  0.161182D-01  0.268773D-02  0.503433D-02  0.886022D-03
     27  0.126604D-03  0.871062D-01  0.454124D-02  0.407942D-01  0.133944D-02
     28  0.684006D-03  0.204940D-01  0.819813D-03 -0.234774D-02 -0.431692D-03
     29  0.128488D-01  0.290630D+01 -0.788657D-01 -0.115032D-01  0.814226D-01
     30  0.189417D-02 -0.168229D+00  0.812321D-01 -0.417403D-02 -0.190692D-01
     31  0.133571D-01  0.968643D+00  0.493919D+00  0.532001D-03  0.377605D-01
               21            22            23            24            25 
     21  0.385007D+12
     22 -0.188420D+01  0.708114D+10
     23 -0.982712D-02 -0.112286D+00  0.243533D+11
     24 -0.575676D-02 -0.574118D-01  0.139828D+03  0.385007D+12
     25 -0.375239D-02  0.505869D-04  0.334621D+02 -0.539619D+01  0.243533D+11
     26 -0.271674D-03  0.731066D-03 -0.633392D+01  0.126899D+02  0.135362D+03
     27 -0.118032D-02 -0.892627D-02 -0.423802D+01  0.437914D+01  0.131817D+03
     28 -0.812876D-03  0.613611D-03 -0.418623D+01  0.402806D+01  0.138062D+03
     29 -0.357798D-01 -0.174886D+00  0.337764D+02 -0.561242D+01  0.215551D+00
     30 -0.670456D-02  0.779914D-02 -0.445064D+01  0.394271D+01  0.878892D+01
     31 -0.561293D-01  0.362390D-01 -0.494193D+01  0.165237D+01  0.297197D+01
               26            27            28            29            30 
     26  0.385007D+12
     27 -0.236735D+02  0.385007D+12
     28 -0.236177D+02 -0.237281D+02  0.385007D+12
     29  0.336413D+01  0.211421D+01  0.108357D+02  0.243533D+11
     30 -0.475664D+00 -0.337137D+00  0.835869D+00  0.136895D+03  0.385007D+12
     31 -0.226265D+00 -0.436592D-01  0.578184D+00  0.135905D+03 -0.280655D+02
               31 
     31  0.385007D+12
 End of Minotr F.D. properties file   721 does not exist.
 End of Minotr F.D. properties file   722 does not exist.
 End of Minotr F.D. properties file   788 does not exist.
 Leave Link 1002 at Wed Jun 18 22:06:33 2014, MaxMem=  4294967296 cpu:    371582.1
 (Enter /home/ztw1e12/g09/l601.exe)
 Copying SCF densities to generalized density rwf, IOpCl= 0 IROHF=0.

 **********************************************************************

            Population analysis using the SCF density.

 **********************************************************************

 Orbital symmetries:
       Occupied  (A) (A) (A) (A) (A) (A) (A) (A) (A) (A) (A) (A)
                 (A) (A) (A) (A) (A) (A) (A) (A) (A) (A) (A) (A)
                 (A) (A) (A) (A) (A) (A) (A) (A) (A) (A) (A) (A)
                 (A) (A) (A) (A) (A) (A) (A) (A) (A) (A) (A) (A)
                 (A) (A) (A)
       Virtual   (A) (A) (A) (A) (A) (A) (A) (A) (A) (A) (A) (A)
                 (A) (A) (A) (A) (A) (A) (A) (A) (A) (A) (A) (A)
                 (A) (A) (A) (A) (A) (A) (A) (A) (A) (A) (A) (A)
                 (A) (A) (A) (A) (A) (A) (A) (A) (A) (A) (A) (A)
                 (A) (A) (A) (A) (A) (A) (A) (A) (A) (A) (A) (A)
                 (A) (A) (A) (A) (A) (A) (A) (A) (A) (A) (A) (A)
                 (A) (A) (A) (A) (A) (A) (A) (A) (A) (A) (A) (A)
                 (A) (A) (A) (A) (A) (A) (A) (A) (A) (A) (A) (A)
                 (A) (A) (A) (A) (A) (A) (A) (A) (A) (A) (A) (A)
                 (A) (A) (A) (A) (A) (A) (A) (A) (A) (A) (A) (A)
                 (A) (A) (A) (A) (A) (A) (A) (A) (A) (A) (A) (A)
                 (A) (A) (A) (A) (A) (A) (A) (A) (A) (A) (A) (A)
                 (A) (A) (A) (A) (A) (A) (A) (A) (A) (A) (A) (A)
                 (A) (A) (A) (A) (A) (A) (A) (A) (A) (A) (A) (A)
                 (A) (A) (A) (A) (A) (A) (A) (A) (A) (A) (A) (A)
                 (A) (A) (A) (A) (A) (A) (A) (A) (A) (A) (A) (A)
                 (A) (A) (A) (A) (A) (A) (A) (A) (A) (A) (A) (A)
                 (A) (A) (A) (A) (A) (A) (A) (A) (A) (A) (A) (A)
                 (A) (A) (A) (A) (A) (A) (A) (A) (A) (A) (A) (A)
                 (A) (A) (A) (A) (A) (A) (A) (A) (A) (A) (A) (A)
                 (A) (A) (A) (A) (A) (A) (A) (A) (A) (A) (A) (A)
                 (A) (A) (A) (A) (A) (A) (A) (A) (A) (A) (A) (A)
                 (A) (A) (A) (A) (A) (A) (A) (A) (A) (A) (A) (A)
                 (A) (A) (A) (A) (A) (A) (A) (A) (A) (A) (A) (A)
                 (A) (A) (A) (A) (A) (A) (A) (A) (A) (A) (A) (A)
                 (A) (A) (A) (A) (A) (A) (A) (A) (A) (A) (A) (A)
                 (A) (A) (A) (A) (A) (A) (A) (A) (A) (A) (A) (A)
                 (A) (A) (A) (A) (A) (A) (A) (A) (A) (A) (A) (A)
                 (A) (A) (A) (A) (A) (A) (A) (A) (A) (A) (A) (A)
                 (A) (A) (A) (A) (A) (A) (A) (A) (A) (A) (A) (A)
                 (A) (A) (A) (A) (A) (A) (A) (A) (A) (A) (A) (A)
                 (A) (A) (A) (A) (A) (A) (A) (A) (A) (A) (A) (A)
                 (A) (A) (A) (A) (A) (A) (A) (A) (A) (A) (A) (A)
                 (A) (A) (A) (A) (A) (A) (A) (A) (A) (A) (A) (A)
                 (A) (A) (A) (A) (A) (A) (A) (A) (A) (A) (A) (A)
                 (A) (A) (A) (A) (A) (A) (A) (A) (A) (A) (A) (A)
                 (A) (A) (A) (A) (A) (A) (A) (A) (A) (A) (A) (A)
                 (A) (A) (A) (A) (A) (A) (A) (A) (A) (A) (A) (A)
                 (A) (A) (A) (A) (A) (A) (A) (A) (A) (A) (A) (A)
                 (A) (A) (A) (A) (A) (A) (A) (A) (A) (A) (A) (A)
                 (A) (A) (A) (A) (A) (A) (A) (A) (A) (A) (A) (A)
                 (A) (A) (A) (A) (A) (A) (A) (A) (A) (A) (A) (A)
                 (A) (A) (A) (A) (A) (A) (A) (A) (A) (A) (A) (A)
                 (A) (A) (A) (A) (A) (A) (A) (A) (A) (A) (A) (A)
                 (A) (A) (A) (A) (A) (A) (A) (A) (A) (A) (A) (A)
                 (A) (A) (A) (A) (A) (A) (A) (A) (A) (A) (A) (A)
                 (A) (A) (A) (A) (A) (A) (A) (A) (A) (A) (A) (A)
                 (A) (A) (A) (A) (A) (A) (A) (A) (A) (A) (A) (A)
                 (A) (A) (A) (A) (A) (A) (A) (A) (A) (A) (A) (A)
                 (A) (A) (A) (A) (A) (A) (A) (A) (A) (A) (A) (A)
                 (A) (A) (A) (A) (A) (A) (A) (A) (A) (A) (A) (A)
                 (A) (A) (A) (A) (A) (A) (A) (A) (A) (A) (A) (A)
                 (A) (A) (A) (A) (A) (A) (A) (A) (A) (A) (A) (A)
                 (A) (A) (A) (A) (A) (A) (A) (A) (A) (A) (A) (A)
                 (A) (A) (A) (A) (A) (A) (A) (A) (A) (A) (A) (A)
                 (A) (A) (A) (A) (A) (A) (A) (A) (A) (A) (A) (A)
                 (A) (A) (A) (A) (A) (A) (A) (A) (A) (A) (A) (A)
                 (A) (A) (A) (A) (A) (A) (A) (A) (A) (A) (A) (A)
                 (A) (A) (A) (A) (A) (A) (A) (A) (A) (A) (A) (A)
                 (A) (A) (A) (A) (A) (A) (A) (A) (A) (A) (A) (A)
                 (A) (A) (A) (A) (A) (A) (A) (A) (A) (A) (A) (A)
                 (A) (A) (A) (A) (A) (A) (A) (A) (A) (A) (A) (A)
                 (A) (A) (A) (A) (A) (A) (A) (A) (A) (A) (A) (A)
                 (A) (A) (A) (A) (A) (A) (A) (A) (A) (A) (A) (A)
                 (A) (A) (A) (A) (A) (A) (A) (A) (A) (A) (A) (A)
                 (A) (A) (A) (A) (A) (A) (A) (A) (A) (A) (A) (A)
                 (A) (A) (A) (A) (A) (A) (A) (A) (A) (A) (A) (A)
                 (A) (A) (A) (A) (A) (A) (A) (A) (A) (A) (A) (A)
                 (A) (A) (A) (A) (A) (A) (A) (A) (A) (A) (A) (A)
                 (A) (A) (A) (A) (A) (A) (A) (A) (A) (A) (A) (A)
                 (A) (A) (A) (A) (A) (A) (A) (A) (A) (A) (A) (A)
                 (A) (A) (A) (A) (A) (A) (A) (A) (A) (A) (A) (A)
                 (A) (A) (A) (A) (A) (A) (A) (A) (A) (A) (A) (A)
                 (A) (A) (A) (A) (A)
 The electronic state is 1-A.
 Alpha  occ. eigenvalues --  -19.17199 -19.16453 -14.41836 -14.41421 -10.33395
 Alpha  occ. eigenvalues --  -10.33333 -10.29169 -10.27133 -10.25469 -10.25064
 Alpha  occ. eigenvalues --  -10.23841 -10.23753 -10.23364  -1.05393  -1.04084
 Alpha  occ. eigenvalues --   -0.94330  -0.94176  -0.83866  -0.78641  -0.74323
 Alpha  occ. eigenvalues --   -0.71977  -0.70496  -0.65889  -0.60569  -0.59806
 Alpha  occ. eigenvalues --   -0.58724  -0.54720  -0.50689  -0.49652  -0.48153
 Alpha  occ. eigenvalues --   -0.46890  -0.46256  -0.45463  -0.45247  -0.44535
 Alpha  occ. eigenvalues --   -0.42968  -0.41621  -0.41045  -0.40570  -0.40276
 Alpha  occ. eigenvalues --   -0.40164  -0.38158  -0.37672  -0.36479  -0.35265
 Alpha  occ. eigenvalues --   -0.34540  -0.34101  -0.28303  -0.27500  -0.26185
 Alpha  occ. eigenvalues --   -0.25960
 Alpha virt. eigenvalues --    0.01254   0.02210   0.02563   0.03677   0.04331
 Alpha virt. eigenvalues --    0.05065   0.06721   0.07163   0.07516   0.08453
 Alpha virt. eigenvalues --    0.09885   0.10461   0.10739   0.11139   0.12009
 Alpha virt. eigenvalues --    0.12409   0.12729   0.13483   0.13804   0.14551
 Alpha virt. eigenvalues --    0.16049   0.16799   0.17920   0.18809   0.19683
 Alpha virt. eigenvalues --    0.20390   0.22928   0.23273   0.23655   0.24617
 Alpha virt. eigenvalues --    0.25556   0.26207   0.26917   0.27244   0.27543
 Alpha virt. eigenvalues --    0.28538   0.29771   0.30700   0.31060   0.31654
 Alpha virt. eigenvalues --    0.32403   0.33562   0.34547   0.35051   0.36077
 Alpha virt. eigenvalues --    0.36596   0.37796   0.38469   0.38753   0.38943
 Alpha virt. eigenvalues --    0.39500   0.40135   0.40555   0.40810   0.41180
 Alpha virt. eigenvalues --    0.41465   0.41607   0.41887   0.42241   0.42842
 Alpha virt. eigenvalues --    0.43594   0.43764   0.44382   0.44887   0.45480
 Alpha virt. eigenvalues --    0.45940   0.46457   0.47338   0.48307   0.48991
 Alpha virt. eigenvalues --    0.49690   0.50222   0.51679   0.52156   0.52572
 Alpha virt. eigenvalues --    0.53117   0.53861   0.54338   0.55000   0.56124
 Alpha virt. eigenvalues --    0.57240   0.58453   0.59601   0.60599   0.61539
 Alpha virt. eigenvalues --    0.62241   0.62845   0.64941   0.66208   0.66746
 Alpha virt. eigenvalues --    0.68717   0.70617   0.71612   0.72690   0.73426
 Alpha virt. eigenvalues --    0.74225   0.75791   0.76580   0.77268   0.78649
 Alpha virt. eigenvalues --    0.79894   0.79931   0.82102   0.82312   0.83220
 Alpha virt. eigenvalues --    0.84464   0.85276   0.85571   0.86379   0.86684
 Alpha virt. eigenvalues --    0.88249   0.88648   0.89641   0.90427   0.91426
 Alpha virt. eigenvalues --    0.91848   0.92491   0.93555   0.94149   0.95007
 Alpha virt. eigenvalues --    0.95160   0.95855   0.96030   0.97025   0.97801
 Alpha virt. eigenvalues --    0.98347   0.99143   0.99978   1.00567   1.00974
 Alpha virt. eigenvalues --    1.01968   1.02936   1.03601   1.04001   1.04916
 Alpha virt. eigenvalues --    1.06842   1.07920   1.08580   1.09775   1.10448
 Alpha virt. eigenvalues --    1.11924   1.12891   1.12980   1.13904   1.14469
 Alpha virt. eigenvalues --    1.15418   1.15907   1.16372   1.18047   1.18679
 Alpha virt. eigenvalues --    1.19408   1.19533   1.20227   1.20590   1.20802
 Alpha virt. eigenvalues --    1.21923   1.22158   1.22417   1.22849   1.23360
 Alpha virt. eigenvalues --    1.24049   1.24468   1.25339   1.25777   1.26260
 Alpha virt. eigenvalues --    1.26581   1.26607   1.27717   1.28389   1.29538
 Alpha virt. eigenvalues --    1.29811   1.30540   1.31064   1.31783   1.32601
 Alpha virt. eigenvalues --    1.32932   1.34208   1.34358   1.35381   1.37057
 Alpha virt. eigenvalues --    1.37347   1.37669   1.39196   1.41755   1.42850
 Alpha virt. eigenvalues --    1.43530   1.44293   1.46252   1.47461   1.48230
 Alpha virt. eigenvalues --    1.48863   1.50275   1.51682   1.52912   1.55020
 Alpha virt. eigenvalues --    1.56164   1.57175   1.58236   1.61661   1.63812
 Alpha virt. eigenvalues --    1.64635   1.67417   1.67971   1.68950   1.72820
 Alpha virt. eigenvalues --    1.73501   1.75428   1.77295   1.79402   1.81812
 Alpha virt. eigenvalues --    1.84298   1.88193   1.88492   1.90493   1.93035
 Alpha virt. eigenvalues --    1.93113   1.94386   1.97347   1.97934   1.99434
 Alpha virt. eigenvalues --    1.99861   2.01552   2.03169   2.04530   2.05748
 Alpha virt. eigenvalues --    2.08073   2.08457   2.10771   2.13649   2.16491
 Alpha virt. eigenvalues --    2.17319   2.17831   2.19029   2.19518   2.21442
 Alpha virt. eigenvalues --    2.23057   2.24975   2.26538   2.28149   2.30220
 Alpha virt. eigenvalues --    2.31287   2.32751   2.35413   2.37805   2.39432
 Alpha virt. eigenvalues --    2.40436   2.41893   2.42152   2.43328   2.43951
 Alpha virt. eigenvalues --    2.44582   2.45563   2.46798   2.47183   2.50114
 Alpha virt. eigenvalues --    2.51734   2.52792   2.52896   2.54370   2.54985
 Alpha virt. eigenvalues --    2.55166   2.57042   2.57386   2.60423   2.62190
 Alpha virt. eigenvalues --    2.63165   2.65135   2.67084   2.68503   2.68799
 Alpha virt. eigenvalues --    2.70784   2.71104   2.71482   2.72471   2.72566
 Alpha virt. eigenvalues --    2.74113   2.74916   2.75789   2.76339   2.78469
 Alpha virt. eigenvalues --    2.78952   2.80553   2.80584   2.81916   2.83154
 Alpha virt. eigenvalues --    2.84010   2.84674   2.85083   2.86636   2.87319
 Alpha virt. eigenvalues --    2.87690   2.88657   2.88676   2.88863   2.91388
 Alpha virt. eigenvalues --    2.91766   2.92222   2.92812   2.93731   2.94200
 Alpha virt. eigenvalues --    2.94642   2.95801   2.96472   2.96762   2.98464
 Alpha virt. eigenvalues --    2.98751   2.99004   3.00105   3.00834   3.01612
 Alpha virt. eigenvalues --    3.02583   3.04370   3.04426   3.05484   3.06601
 Alpha virt. eigenvalues --    3.07223   3.08372   3.08784   3.09435   3.10244
 Alpha virt. eigenvalues --    3.11547   3.13150   3.13340   3.13990   3.14840
 Alpha virt. eigenvalues --    3.16303   3.16626   3.18527   3.19421   3.20045
 Alpha virt. eigenvalues --    3.21130   3.22178   3.22999   3.23591   3.24570
 Alpha virt. eigenvalues --    3.25135   3.26135   3.26620   3.26834   3.27736
 Alpha virt. eigenvalues --    3.28297   3.29047   3.29742   3.30546   3.32224
 Alpha virt. eigenvalues --    3.32695   3.33450   3.34005   3.34900   3.35375
 Alpha virt. eigenvalues --    3.36824   3.37073   3.37647   3.38842   3.39481
 Alpha virt. eigenvalues --    3.40645   3.41352   3.41983   3.42506   3.42986
 Alpha virt. eigenvalues --    3.43612   3.44962   3.45032   3.46370   3.46576
 Alpha virt. eigenvalues --    3.48259   3.49361   3.49773   3.50523   3.53097
 Alpha virt. eigenvalues --    3.54563   3.55401   3.56125   3.57644   3.59063
 Alpha virt. eigenvalues --    3.60010   3.61635   3.62938   3.64159   3.65091
 Alpha virt. eigenvalues --    3.66248   3.67251   3.69624   3.70289   3.70539
 Alpha virt. eigenvalues --    3.71933   3.73385   3.73608   3.74360   3.74504
 Alpha virt. eigenvalues --    3.76592   3.77245   3.77788   3.79351   3.80147
 Alpha virt. eigenvalues --    3.80789   3.82720   3.83214   3.83557   3.84595
 Alpha virt. eigenvalues --    3.85344   3.86051   3.86722   3.87773   3.88371
 Alpha virt. eigenvalues --    3.89959   3.92841   3.93202   3.93523   3.94278
 Alpha virt. eigenvalues --    3.96684   3.96949   3.98625   3.99070   3.99589
 Alpha virt. eigenvalues --    3.99974   4.01352   4.02495   4.04221   4.05501
 Alpha virt. eigenvalues --    4.06292   4.06699   4.07050   4.08742   4.08804
 Alpha virt. eigenvalues --    4.09361   4.11709   4.12484   4.12822   4.14170
 Alpha virt. eigenvalues --    4.15104   4.15617   4.16255   4.17311   4.19858
 Alpha virt. eigenvalues --    4.20712   4.22020   4.22050   4.23356   4.24372
 Alpha virt. eigenvalues --    4.25103   4.26123   4.26856   4.27720   4.29433
 Alpha virt. eigenvalues --    4.29582   4.30459   4.31666   4.32644   4.35261
 Alpha virt. eigenvalues --    4.36377   4.37654   4.39392   4.42261   4.43157
 Alpha virt. eigenvalues --    4.44533   4.44611   4.47201   4.47492   4.49351
 Alpha virt. eigenvalues --    4.50360   4.51781   4.54170   4.54932   4.55278
 Alpha virt. eigenvalues --    4.56697   4.58237   4.59094   4.60296   4.61223
 Alpha virt. eigenvalues --    4.62301   4.62732   4.64394   4.65425   4.65838
 Alpha virt. eigenvalues --    4.66488   4.68725   4.69720   4.70644   4.71532
 Alpha virt. eigenvalues --    4.72264   4.72611   4.74407   4.76786   4.77054
 Alpha virt. eigenvalues --    4.78138   4.78861   4.80089   4.80817   4.82501
 Alpha virt. eigenvalues --    4.84997   4.85740   4.88253   4.90463   4.91888
 Alpha virt. eigenvalues --    4.92872   4.94042   4.94493   4.95488   4.95806
 Alpha virt. eigenvalues --    4.97147   4.98668   5.00784   5.01191   5.01568
 Alpha virt. eigenvalues --    5.02979   5.03908   5.05331   5.06737   5.09988
 Alpha virt. eigenvalues --    5.11193   5.12037   5.13406   5.14328   5.15545
 Alpha virt. eigenvalues --    5.15961   5.16952   5.17372   5.18645   5.20413
 Alpha virt. eigenvalues --    5.20499   5.22594   5.23011   5.23909   5.24293
 Alpha virt. eigenvalues --    5.24790   5.25240   5.27002   5.29030   5.29660
 Alpha virt. eigenvalues --    5.30315   5.32765   5.35936   5.37317   5.38908
 Alpha virt. eigenvalues --    5.39649   5.43657   5.44496   5.44654   5.49594
 Alpha virt. eigenvalues --    5.52099   5.53189   5.55294   5.57734   5.58968
 Alpha virt. eigenvalues --    5.60582   5.62953   5.63771   5.65109   5.65620
 Alpha virt. eigenvalues --    5.67858   5.68675   5.69009   5.71781   5.72569
 Alpha virt. eigenvalues --    5.74390   5.74860   5.76373   5.76851   5.77454
 Alpha virt. eigenvalues --    5.78996   5.80700   5.82348   5.84448   5.87062
 Alpha virt. eigenvalues --    5.90211   5.94400   5.97536   6.01596   6.05684
 Alpha virt. eigenvalues --    6.11668   6.18765   6.21516   6.22803   6.26297
 Alpha virt. eigenvalues --    6.52282   6.53559   6.57992   6.61285   6.64484
 Alpha virt. eigenvalues --    6.66627   6.77501   6.81638   6.90098   6.91542
 Alpha virt. eigenvalues --    6.92853   6.93943   7.17990   7.20141   7.24321
 Alpha virt. eigenvalues --    7.26893   8.13405   8.27111   8.66635   8.73423
 Alpha virt. eigenvalues --    8.77837   8.78509   8.81995   8.82831   8.83966
 Alpha virt. eigenvalues --    8.85111   8.85999   8.88396   8.89813   8.92870
 Alpha virt. eigenvalues --    8.93637   8.95840   8.97119   8.98328   9.00504
 Alpha virt. eigenvalues --    9.03357   9.07014   9.12296   9.14698   9.19542
 Alpha virt. eigenvalues --    9.23555   9.59752   9.61981   9.77206   9.83469
 Alpha virt. eigenvalues --    9.88388   9.94312  10.10705  10.11726  10.14978
 Alpha virt. eigenvalues --   10.18138  10.18552  10.20813  10.21742  10.22996
 Alpha virt. eigenvalues --   10.26240  10.27934  10.29834  10.30571  10.34606
 Alpha virt. eigenvalues --   10.37452  11.75291  11.80751  12.03878  12.14207
 Alpha virt. eigenvalues --   12.17290  12.19516  12.21201  12.24703  12.32457
 Alpha virt. eigenvalues --   12.39878  12.44381  12.55393  12.59527  12.83302
 Alpha virt. eigenvalues --   12.92870  14.97214  15.02023  15.24039  15.26521
 Alpha virt. eigenvalues --   15.99679  16.04151  16.83904  16.89324  22.01113
 Alpha virt. eigenvalues --   22.10297  40.17269  40.25446  40.66498  40.68882
 Alpha virt. eigenvalues --   40.70066  40.72379  40.74152  40.75631  40.76752
 Alpha virt. eigenvalues --   40.77979  40.80055  40.80100  40.81904  40.82304
 Alpha virt. eigenvalues --   40.83582  40.84039  40.84174  40.84695  40.85257
 Alpha virt. eigenvalues --   40.86638  40.87872  40.88960  40.90280  40.90495
 Alpha virt. eigenvalues --   40.91009  40.94579  40.97381  46.34013  46.45066
 Alpha virt. eigenvalues --   46.49437  46.50694  46.53622  46.57113  46.64665
 Alpha virt. eigenvalues --   46.74674  46.77125  54.45152  54.47814  55.76749
 Alpha virt. eigenvalues --   55.83814  55.95917  55.97346  56.06122  56.17179
 Alpha virt. eigenvalues --   56.17622  56.22378  56.25235  56.30885  56.37565
 Alpha virt. eigenvalues --   56.42196  56.45625  56.46676  56.50989  56.55399
 Alpha virt. eigenvalues --   57.46285  57.49729  57.99170  58.02565  58.19237
 Alpha virt. eigenvalues --   58.25478  64.71119  64.76194  73.94286  73.97062
 Alpha virt. eigenvalues --   74.09847  74.10759  74.63847  74.66166  86.06904
 Alpha virt. eigenvalues --   86.15082 165.43316 165.53200 165.57820 165.59210
 Alpha virt. eigenvalues --  165.62286 165.64761 165.70919 165.80131 165.82494
 Alpha virt. eigenvalues --  226.55820 226.63218 230.58268 230.63050 235.44853
 Alpha virt. eigenvalues --  235.80415 236.23954 236.27765 236.51110 236.65221
 Alpha virt. eigenvalues --  237.14131 237.36542 237.43025 237.50358 237.76462
 Alpha virt. eigenvalues --  237.88970 237.97381 237.97973 238.14555 238.40741
 Alpha virt. eigenvalues --  308.80507 308.87788 624.54740 624.60708 624.64268
 Alpha virt. eigenvalues --  624.67227 624.68040 624.71248 624.76445 624.83658
 Alpha virt. eigenvalues --  624.84752 794.31997 794.53473 825.64879 827.09175
 Alpha virt. eigenvalues --  827.17675 827.86585 827.99891 828.84036 830.37142
 Alpha virt. eigenvalues --  830.52748 831.02295 831.32000 832.04304 832.38345
 Alpha virt. eigenvalues --  832.51079 832.52435 833.00122 834.05202 868.34222
 Alpha virt. eigenvalues --  868.391851165.932491165.999642485.347442485.49092
 Alpha virt. eigenvalues -- 2587.351642589.458592594.465402595.553562595.93720
 Alpha virt. eigenvalues -- 2597.856822601.880122602.098632604.385852605.31888
 Alpha virt. eigenvalues -- 2606.993522607.638832608.030902609.627712610.85891
 Alpha virt. eigenvalues -- 2613.067992740.321272740.340072740.379422740.40784
 Alpha virt. eigenvalues -- 2740.437892740.515152740.530012740.543742740.55875
 Alpha virt. eigenvalues -- 3787.319053787.371575073.314085073.374478290.57715
 Alpha virt. eigenvalues -- 8296.041008625.275078633.429218637.070708639.27210
 Alpha virt. eigenvalues -- 8644.951888648.125438658.226028661.440168667.57911
 Alpha virt. eigenvalues -- 8670.030548676.251148677.340488677.963368679.63302
 Alpha virt. eigenvalues -- 8683.624038692.39674******************************
 Alpha virt. eigenvalues -- **************************************************
 Alpha virt. eigenvalues -- **************************************************
 Alpha virt. eigenvalues -- **************************************************
 Alpha virt. eigenvalues -- **************************************************
 Alpha virt. eigenvalues -- **************************************************
 Alpha virt. eigenvalues -- **************************************************
 Alpha virt. eigenvalues -- **************************************************
 Alpha virt. eigenvalues -- **********
          Condensed to atoms (all electrons):
               1          2          3          4          5          6
     1  C    4.646744   0.185982  -0.056539   0.001380  -0.000068   0.000250
     2  C    0.185982   5.240353   0.396998  -0.001463  -0.000395  -0.002460
     3  H   -0.056539   0.396998   0.500839  -0.000206   0.000031  -0.000062
     4  C    0.001380  -0.001463  -0.000206   4.966352   0.405288   0.398481
     5  H   -0.000068  -0.000395   0.000031   0.405288   0.539541  -0.007470
     6  H    0.000250  -0.002460  -0.000062   0.398481  -0.007470   0.540610
     7  H   -0.000089   0.001559  -0.000033   0.406948  -0.023732  -0.025843
     8  O    0.700705  -0.093168   0.004695   0.000249   0.000074  -0.000545
     9  N   -0.064381   0.321830  -0.031191   0.000549   0.000001   0.000101
    10  H   -0.002325  -0.035595   0.004808   0.000261   0.000033  -0.000006
    11  N    0.335455  -0.116636   0.005712  -0.002164  -0.000023   0.002263
    12  H   -0.022211   0.011401   0.000368   0.000008  -0.000002   0.000203
    13  C   -0.049916   0.010569  -0.001190  -0.000068  -0.000003   0.000107
    14  H    0.002088   0.001657   0.000092   0.000490   0.000009  -0.000149
    15  H   -0.008638  -0.000894  -0.000286  -0.000025  -0.000001   0.000070
    16  H    0.006383   0.000561  -0.000165   0.000012   0.000000  -0.000047
    17  C   -0.003510  -0.055736   0.001982  -0.000008  -0.000001   0.000007
    18  C   -0.005684   0.017213   0.001672  -0.000003   0.000000   0.000000
    19  H    0.000609  -0.000478  -0.000322   0.000002   0.000000   0.000000
    20  H   -0.000112  -0.000511   0.000180   0.000000   0.000000   0.000000
    21  H    0.000810  -0.000747  -0.000177   0.000000   0.000000   0.000000
    22  O   -0.004252   0.020711   0.015415   0.000000   0.000000   0.000000
[...]
 Alpha virt. eigenvalues --    4.37780   4.39581   4.40621   4.41261   4.44163
 Alpha virt. eigenvalues --    4.46453   4.47824   4.50746   4.51963   4.52178
 Alpha virt. eigenvalues --    4.52669   4.55427   4.56155   4.57809   4.60325
 Alpha virt. eigenvalues --    4.61466   4.63713   4.64924   4.65255   4.68627
 Alpha virt. eigenvalues --    4.69606   4.70452   4.71302   4.72745   4.73051
 Alpha virt. eigenvalues --    4.73547   4.75348   4.76389   4.77874   4.78384
 Alpha virt. eigenvalues --    4.79352   4.80741   4.81613   4.83446   4.84227
 Alpha virt. eigenvalues --    4.84623   4.86108   4.86884   4.88936   4.90344
 Alpha virt. eigenvalues --    4.92577   4.92699   4.93571   4.95544   4.95734
 Alpha virt. eigenvalues --    4.96792   4.98970   4.99744   5.00378   5.02181
 Alpha virt. eigenvalues --    5.02808   5.03182   5.04156   5.05211   5.06648
 Alpha virt. eigenvalues --    5.07938   5.08362   5.10195   5.11642   5.12865
 Alpha virt. eigenvalues --    5.14010   5.14812   5.15512   5.15620   5.18278
 Alpha virt. eigenvalues --    5.18726   5.19844   5.19952   5.21451   5.21954
 Alpha virt. eigenvalues --    5.23159   5.23970   5.24503   5.26323   5.26877
 Alpha virt. eigenvalues --    5.27612   5.28257   5.29605   5.31638   5.31830
 Alpha virt. eigenvalues --    5.33750   5.34957   5.36736   5.38492   5.40091
 Alpha virt. eigenvalues --    5.42421   5.45648   5.48433   5.50001   5.53719
 Alpha virt. eigenvalues --    5.56554   5.58462   5.61890   5.62714   5.69901
 Alpha virt. eigenvalues --    5.72603   5.74812   5.75909   5.78272   5.78714
 Alpha virt. eigenvalues --    5.80481   5.81138   5.82935   5.83707   5.85977
 Alpha virt. eigenvalues --    5.87391   5.88421   5.89655   5.91150   5.97067
 Alpha virt. eigenvalues --    5.97839   6.00851   6.02138   6.05967   6.08130
 Alpha virt. eigenvalues --    6.22021   6.26677   6.35488   6.39848   6.49149
 Alpha virt. eigenvalues --    6.52585   6.53772   6.57747   6.66250   6.67986
 Alpha virt. eigenvalues --    6.88039   6.89295   6.92252   6.95030   7.09509
 Alpha virt. eigenvalues --    7.13776   7.16388   7.17901   9.41806   9.93800
 Alpha virt. eigenvalues --   11.74621  12.12779  12.32247  12.69698  13.00183
 Alpha virt. eigenvalues --   13.43427  13.53634  13.61359  13.68964  13.76754
 Alpha virt. eigenvalues --   13.93647
          Condensed to atoms (all electrons):
               1          2          3          4          5          6
     1  C    4.803916   0.158410  -0.060447   0.000726   0.000021   0.000458
     2  C    0.158410   5.358951   0.436563   0.000840  -0.000705  -0.002525
     3  H   -0.060447   0.436563   0.459615  -0.000124   0.000021  -0.000059
     4  C    0.000726   0.000840  -0.000124   5.105905   0.410006   0.396179
     5  H    0.000021  -0.000705   0.000021   0.410006   0.531432  -0.013138
     6  H    0.000458  -0.002525  -0.000059   0.396179  -0.013138   0.541501
     7  H   -0.000093   0.002091  -0.000025   0.406935  -0.030062  -0.031953
     8  O    0.695566  -0.088039   0.002841   0.000263   0.000056  -0.000563
     9  N   -0.066761   0.271863  -0.034862   0.000329   0.000016   0.000103
    10  H   -0.000342  -0.033932   0.002609   0.000387   0.000028  -0.000016
    11  N    0.338212  -0.091843   0.001043  -0.002266  -0.000016   0.002422
    12  H   -0.019853   0.009394  -0.000680   0.000007  -0.000001   0.000207
    13  C   -0.065661   0.009728  -0.000980  -0.000029  -0.000002   0.000015
    14  H    0.001233   0.001511   0.000111   0.000563   0.000005  -0.000294
    15  H   -0.008341  -0.000806  -0.000285  -0.000026  -0.000001   0.000077
    16  H    0.007019   0.000538  -0.000114   0.000012   0.000000  -0.000050
    17  C   -0.004068  -0.065633   0.001514   0.000001  -0.000002   0.000007
    18  C   -0.004215   0.013938   0.001531  -0.000001   0.000000   0.000000
    19  H    0.000432   0.000364  -0.000292   0.000001   0.000000   0.000000
    20  H   -0.000152  -0.000477   0.000159   0.000000   0.000000   0.000000
    21  H    0.000759  -0.000737  -0.000154   0.000000   0.000000   0.000000
    22  O   -0.001727   0.019477   0.014755   0.000001   0.000000   0.000000
    23  C   -0.019553  -0.005845   0.010066   0.269140  -0.036974  -0.037265
    24  H   -0.009647   0.005280   0.001297  -0.028883  -0.004681  -0.007250
    25  C    0.000517   0.000578  -0.000492  -0.070207  -0.006475   0.008936
    26  H   -0.000216   0.002042   0.000028  -0.009132  -0.000529  -0.000076
    27  H    0.000647  -0.002472  -0.000201   0.008804  -0.000037  -0.000410
    28  H    0.000048  -0.000660   0.000021  -0.006688   0.003713  -0.000011
    29  C   -0.035120   0.196950  -0.033110  -0.047052   0.009385   0.001072
    30  H    0.009212  -0.027412  -0.008804   0.000946  -0.000353   0.000540
    31  H    0.000587  -0.039418  -0.008167  -0.009772   0.000568  -0.001099
               7          8          9         10         11         12
     1  C   -0.000093   0.695566  -0.066761  -0.000342   0.338212  -0.019853
     2  C    0.002091  -0.088039   0.271863  -0.033932  -0.091843   0.009394
     3  H   -0.000025   0.002841  -0.034862   0.002609   0.001043  -0.000680
     4  C    0.406935   0.000263   0.000329   0.000387  -0.002266   0.000007
     5  H   -0.030062   0.000056   0.000016   0.000028  -0.000016  -0.000001
     6  H   -0.031953  -0.000563   0.000103  -0.000016   0.002422   0.000207
     7  H    0.557019  -0.000009  -0.000076  -0.000016  -0.000084   0.000007
     8  O   -0.000009   7.852087   0.004017   0.000374  -0.118834   0.005243
     9  N   -0.000076   0.004017   6.544588   0.393640   0.006383   0.000692
    10  H   -0.000016   0.000374   0.393640   0.478319   0.000061  -0.000008
    11  N   -0.000084  -0.118834   0.006383   0.000061   6.419205   0.380375
    12  H    0.000007   0.005243   0.000692  -0.000008   0.380375   0.536843
    13  C    0.000007   0.005956  -0.000311   0.000010   0.301787  -0.032589
    14  H    0.000003   0.005013  -0.000047  -0.000010  -0.057699   0.002396
    15  H    0.000000   0.005642  -0.000036   0.000005  -0.040861   0.003003
    16  H    0.000001   0.001378   0.000008  -0.000001  -0.026690  -0.007860
    17  C    0.000002   0.013459   0.323766  -0.020179  -0.001011  -0.000027
    18  C    0.000000  -0.000319  -0.066062  -0.002952  -0.000114   0.000000
    19  H    0.000000  -0.000040   0.012839  -0.000956   0.000010   0.000001
    20  H    0.000000   0.000034  -0.000993   0.000681   0.000005   0.000001
    21  H    0.000000   0.000204  -0.000459  -0.000134  -0.000003  -0.000002
    22  O    0.000000  -0.002785  -0.137785   0.003635  -0.003756  -0.000250
    23  C   -0.038650  -0.005208  -0.007741   0.005765  -0.003229   0.000491
    24  H    0.006497   0.022700   0.002572  -0.000418   0.001904  -0.000308
    25  C   -0.009137   0.000045  -0.001460  -0.001356  -0.000090   0.000007
    26  H    0.004713  -0.000018  -0.000150  -0.000062  -0.000004   0.000005
    27  H    0.000000  -0.000073  -0.000125   0.003666  -0.000029  -0.000003
    28  H   -0.000388  -0.000002   0.000050   0.000245   0.000004   0.000000
    29  C   -0.011265  -0.004411  -0.044112  -0.004513   0.012919  -0.003971
    30  H    0.000375  -0.000535   0.000474   0.000659   0.000511  -0.000230
    31  H    0.001675  -0.000467   0.004667   0.000192   0.002847   0.002748
              13         14         15         16         17         18
     1  C   -0.065661   0.001233  -0.008341   0.007019  -0.004068  -0.004215
     2  C    0.009728   0.001511  -0.000806   0.000538  -0.065633   0.013938
     3  H   -0.000980   0.000111  -0.000285  -0.000114   0.001514   0.001531
     4  C   -0.000029   0.000563  -0.000026   0.000012   0.000001  -0.000001
     5  H   -0.000002   0.000005  -0.000001   0.000000  -0.000002   0.000000
     6  H    0.000015  -0.000294   0.000077  -0.000050   0.000007   0.000000
     7  H    0.000007   0.000003   0.000000   0.000001   0.000002   0.000000
     8  O    0.005956   0.005013   0.005642   0.001378   0.013459  -0.000319
     9  N   -0.000311  -0.000047  -0.000036   0.000008   0.323766  -0.066062
    10  H    0.000010  -0.000010   0.000005  -0.000001  -0.020179  -0.002952
    11  N    0.301787  -0.057699  -0.040861  -0.026690  -0.001011  -0.000114
    12  H   -0.032589   0.002396   0.003003  -0.007860  -0.000027   0.000000
    13  C    4.769634   0.389962   0.404437   0.394930  -0.000212  -0.000006
    14  H    0.389962   0.637980  -0.056778  -0.029817  -0.000033   0.000000
    15  H    0.404437  -0.056778   0.592732  -0.024571   0.000112   0.000002
    16  H    0.394930  -0.029817  -0.024571   0.598125  -0.000010   0.000000
    17  C   -0.000212  -0.000033   0.000112  -0.000010   4.534098   0.280491
    18  C   -0.000006   0.000000   0.000002   0.000000   0.280491   5.000951
    19  H    0.000001   0.000000   0.000000   0.000000  -0.054375   0.394413
    20  H    0.000000   0.000000   0.000000   0.000000  -0.021481   0.381848
    21  H    0.000002   0.000000   0.000002   0.000000  -0.027150   0.390358
    22  O   -0.000213   0.000009   0.000099  -0.000004   0.728026  -0.070852
    23  C    0.000025   0.000164  -0.000024  -0.000014  -0.000133  -0.000037
    24  H   -0.000300   0.000249  -0.000098  -0.000011   0.000933   0.000126
    25  C    0.000000   0.000010   0.000000   0.000000  -0.000028  -0.000066
    26  H    0.000000   0.000000   0.000000   0.000000   0.000001   0.000005
    27  H    0.000001   0.000001   0.000000   0.000000   0.000216   0.000138
    28  H    0.000000  -0.000001   0.000000   0.000000  -0.000009  -0.000003
    29  C   -0.000404  -0.000575   0.000059  -0.000010   0.008282   0.000183
    30  H    0.000066  -0.000034   0.000014   0.000002  -0.000200  -0.000061
    31  H    0.000071  -0.000312   0.000104  -0.000005  -0.000072   0.000039
              19         20         21         22         23         24
     1  C    0.000432  -0.000152   0.000759  -0.001727  -0.019553  -0.009647
     2  C    0.000364  -0.000477  -0.000737   0.019477  -0.005845   0.005280
     3  H   -0.000292   0.000159  -0.000154   0.014755   0.010066   0.001297
     4  C    0.000001   0.000000   0.000000   0.000001   0.269140  -0.028883
     5  H    0.000000   0.000000   0.000000   0.000000  -0.036974  -0.004681
     6  H    0.000000   0.000000   0.000000   0.000000  -0.037265  -0.007250
     7  H    0.000000   0.000000   0.000000   0.000000  -0.038650   0.006497
     8  O   -0.000040   0.000034   0.000204  -0.002785  -0.005208   0.022700
     9  N    0.012839  -0.000993  -0.000459  -0.137785  -0.007741   0.002572
    10  H   -0.000956   0.000681  -0.000134   0.003635   0.005765  -0.000418
    11  N    0.000010   0.000005  -0.000003  -0.003756  -0.003229   0.001904
    12  H    0.000001   0.000001  -0.000002  -0.000250   0.000491  -0.000308
    13  C    0.000001   0.000000   0.000002  -0.000213   0.000025  -0.000300
    14  H    0.000000   0.000000   0.000000   0.000009   0.000164   0.000249
    15  H    0.000000   0.000000   0.000002   0.000099  -0.000024  -0.000098
    16  H    0.000000   0.000000   0.000000  -0.000004  -0.000014  -0.000011
    17  C   -0.054375  -0.021481  -0.027150   0.728026  -0.000133   0.000933
    18  C    0.394413   0.381848   0.390358  -0.070852  -0.000037   0.000126
    19  H    0.601834  -0.027639  -0.024558   0.004567   0.000129  -0.000057
    20  H   -0.027639   0.577656  -0.025794   0.001588   0.000017   0.000012
    21  H   -0.024558  -0.025794   0.565083   0.001567  -0.000029  -0.000031
    22  O    0.004567   0.001588   0.001567   7.847631  -0.000016  -0.000048
    23  C    0.000129   0.000017  -0.000029  -0.000016   5.421228   0.408844
    24  H   -0.000057   0.000012  -0.000031  -0.000048   0.408844   0.478625
    25  C   -0.000004   0.000005  -0.000002  -0.000002   0.268047  -0.031153
    26  H   -0.000003   0.000000   0.000000   0.000000  -0.037322   0.006593
    27  H    0.000157  -0.000040   0.000007   0.000019  -0.042454  -0.007605
    28  H    0.000003   0.000000   0.000000   0.000000  -0.036425  -0.004759
    29  C   -0.000241  -0.000020   0.000037   0.001919   0.168189  -0.065339
    30  H    0.000015  -0.000017   0.000013  -0.000119  -0.052948   0.002409
    31  H   -0.000003  -0.000003   0.000000   0.000072  -0.048994   0.002206
              25         26         27         28         29         30
     1  C    0.000517  -0.000216   0.000647   0.000048  -0.035120   0.009212
     2  C    0.000578   0.002042  -0.002472  -0.000660   0.196950  -0.027412
     3  H   -0.000492   0.000028  -0.000201   0.000021  -0.033110  -0.008804
     4  C   -0.070207  -0.009132   0.008804  -0.006688  -0.047052   0.000946
     5  H   -0.006475  -0.000529  -0.000037   0.003713   0.009385  -0.000353
     6  H    0.008936  -0.000076  -0.000410  -0.000011   0.001072   0.000540
     7  H   -0.009137   0.004713   0.000000  -0.000388  -0.011265   0.000375
     8  O    0.000045  -0.000018  -0.000073  -0.000002  -0.004411  -0.000535
     9  N   -0.001460  -0.000150  -0.000125   0.000050  -0.044112   0.000474
    10  H   -0.001356  -0.000062   0.003666   0.000245  -0.004513   0.000659
    11  N   -0.000090  -0.000004  -0.000029   0.000004   0.012919   0.000511
    12  H    0.000007   0.000005  -0.000003   0.000000  -0.003971  -0.000230
    13  C    0.000000   0.000000   0.000001   0.000000  -0.000404   0.000066
    14  H    0.000010   0.000000   0.000001  -0.000001  -0.000575  -0.000034
    15  H    0.000000   0.000000   0.000000   0.000000   0.000059   0.000014
    16  H    0.000000   0.000000   0.000000   0.000000  -0.000010   0.000002
    17  C   -0.000028   0.000001   0.000216  -0.000009   0.008282  -0.000200
    18  C   -0.000066   0.000005   0.000138  -0.000003   0.000183  -0.000061
    19  H   -0.000004  -0.000003   0.000157   0.000003  -0.000241   0.000015
    20  H    0.000005   0.000000  -0.000040   0.000000  -0.000020  -0.000017
    21  H   -0.000002   0.000000   0.000007   0.000000   0.000037   0.000013
    22  O   -0.000002   0.000000   0.000019   0.000000   0.001919  -0.000119
    23  C    0.268047  -0.037322  -0.042454  -0.036425   0.168189  -0.052948
    24  H   -0.031153   0.006593  -0.007605  -0.004759  -0.065339   0.002409
    25  C    5.120775   0.403939   0.398884   0.408421  -0.052639  -0.006128
    26  H    0.403939   0.550441  -0.030169  -0.027881  -0.012327   0.003432
    27  H    0.398884  -0.030169   0.546682  -0.015902   0.005689  -0.001931
    28  H    0.408421  -0.027881  -0.015902   0.529095   0.009264   0.000502
    29  C   -0.052639  -0.012327   0.005689   0.009264   5.520809   0.403342
    30  H   -0.006128   0.003432  -0.001931   0.000502   0.403342   0.470761
    31  H    0.004143  -0.000016   0.000130  -0.000301   0.416574  -0.002056
              31
     1  C    0.000587
     2  C   -0.039418
     3  H   -0.008167
     4  C   -0.009772
     5  H    0.000568
     6  H   -0.001099
     7  H    0.001675
     8  O   -0.000467
     9  N    0.004667
    10  H    0.000192
    11  N    0.002847
    12  H    0.002748
    13  C    0.000071
    14  H   -0.000312
    15  H    0.000104
    16  H   -0.000005
    17  C   -0.000072
    18  C    0.000039
    19  H   -0.000003
    20  H   -0.000003
    21  H    0.000000
    22  O    0.000072
    23  C   -0.048994
    24  H    0.002206
    25  C    0.004143
    26  H   -0.000016
    27  H    0.000130
    28  H   -0.000301
    29  C    0.416574
    30  H   -0.002056
    31  H    0.466369
 Mulliken charges:
               1
     1  C    0.278435
     2  C   -0.128015
     3  H    0.216619
     4  C   -0.426863
     5  H    0.137724
     6  H    0.143192
     7  H    0.142431
     8  O   -0.393578
     9  N   -0.205028
    10  H    0.174618
    11  N   -0.121161
    12  H    0.124365
    13  C   -0.175922
    14  H    0.106390
    15  H    0.125542
    16  H    0.087141
    17  C    0.303717
    18  C   -0.319333
    19  H    0.093405
    20  H    0.114611
    21  H    0.121023
    22  O   -0.405808
    23  C   -0.179244
    24  H    0.220341
    25  C   -0.435068
    26  H    0.146705
    27  H    0.136409
    28  H    0.141664
    29  C   -0.439564
    30  H    0.207557
    31  H    0.207693
 Sum of Mulliken charges =   0.00000
 Mulliken charges with hydrogens summed into heavy atoms:
               1
     1  C    0.278435
     2  C    0.088604
     4  C   -0.003516
     8  O   -0.393578
     9  N   -0.030410
    11  N    0.003205
    13  C    0.143151
    17  C    0.303717
    18  C    0.009705
    22  O   -0.405808
    23  C    0.041098
    25  C   -0.010289
    29  C   -0.024313
 Electronic spatial extent (au):  <R**2>=           2917.3486
 Charge=              0.0000 electrons
 Dipole moment (field-independent basis, Debye):
    X=             -3.3341    Y=             -1.6034    Z=             -2.0627  Tot=              4.2357
 Quadrupole moment (field-independent basis, Debye-Ang):
   XX=            -85.3960   YY=            -69.6899   ZZ=            -81.6955
   XY=             -9.3048   XZ=              3.7634   YZ=             -5.0587
 Traceless Quadrupole moment (field-independent basis, Debye-Ang):
   XX=             -6.4689   YY=              9.2372   ZZ=             -2.7683
   XY=             -9.3048   XZ=              3.7634   YZ=             -5.0587
 Octapole moment (field-independent basis, Debye-Ang**2):
  XXX=             -1.5253  YYY=             39.0461  ZZZ=             -8.8439  XYY=             -0.6278
  XXY=            -19.4204  XXZ=             14.3464  XZZ=              0.9010  YZZ=              3.1778
  YYZ=             -2.8512  XYZ=              2.6334
 Hexadecapole moment (field-independent basis, Debye-Ang**3):
 XXXX=          -2043.1372 YYYY=          -1463.9830 ZZZZ=           -314.0012 XXXY=            -74.2588
 XXXZ=             29.8852 YYYX=            -40.6267 YYYZ=            -12.5920 ZZZX=              0.1223
 ZZZY=            -18.3011 XXYY=           -583.7246 XXZZ=           -373.5524 YYZZ=           -305.3954
 XXYZ=              3.8162 YYXZ=              4.7151 ZZXY=             -4.5192
 N-N= 8.736437587369D+02 E-N=-3.176976335738D+03  KE= 6.091220689536D+02
 Calculating spin-rotation constants.
 Leave Link  601 at Thu Jun 19 01:54:52 2014, MaxMem=  4294967296 cpu:        69.1
 (Enter /home/ztw1e12/g09/l9999.exe)

 Test job not archived.
 1\1\GINC-GREEN0727\SP\RM06\Gen\C9H18N2O2\ROOT\19-Jun-2014\0\\#P Geom=A
 llCheck Guess=TCheck SCRF=Check GenChk RM06/ChkBas NMR=ReadFC IOp(3/6=
 22)\\NMR spin-spin scan\\0,1\C,0,0.64512,0.751432,0.641342\C,0,0.13902
 8,0.259906,-0.711743\H,0,0.539034,0.932249,-1.475586\C,0,-3.099922,0.2
 95683,1.067512\H,0,-3.640037,-0.311903,1.796515\H,0,-2.586794,1.096355
 ,1.607309\H,0,-3.836993,0.758882,0.404708\O,0,0.933754,-0.010827,1.560
 028\N,0,0.611475,-1.073881,-0.990843\H,0,-0.026117,-1.850744,-0.91083\
 N,0,0.720256,2.081157,0.761024\H,0,0.425645,2.654226,-0.013963\C,0,1.0
 56833,2.711666,2.017159\H,0,0.320896,2.479062,2.788687\H,0,2.034536,2.
 381226,2.366915\H,0,1.08563,3.787509,1.874696\C,0,1.919907,-1.330996,-
 1.163579\C,0,2.295336,-2.758951,-1.382926\H,0,1.443199,-3.43491,-1.365
 316\H,0,2.802598,-2.84457,-2.343639\H,0,3.006414,-3.057539,-0.612907\O
 ,0,2.762195,-0.434184,-1.158866\C,0,-2.120524,-0.54078,0.265156\H,0,-1
 .38856,-0.963758,0.961608\C,0,-2.852524,-1.687966,-0.409968\H,0,-3.619
 014,-1.298656,-1.086939\H,0,-2.183349,-2.3161,-1.002749\H,0,-3.348597,
 -2.326214,0.323929\C,0,-1.382155,0.334344,-0.761482\H,0,-1.695185,0.06
 802,-1.775334\H,0,-1.656462,1.383559,-0.629579\\Version=EM64L-G09RevD.
 01\State=1-A\HF=-613.5816248\RMSD=9.062e-09\Dipole=-1.5386882,0.378814
 3,-0.515816\Quadrupole=-7.7416012,10.6280019,-2.8864007,-0.6717044,1.2
 795125,3.7947467\PG=C01 [X(C9H18N2O2)]\\@


 In the race for quality, there is no finish line.
                               -- David T. Kearns
 Job cpu time:       2 days 12 hours 34 minutes 17.8 seconds.
 File lengths (MBytes):  RWF=   2456 Int=      0 D2E=      0 Chk=     48 Scr=      8
 Normal termination of Gaussian 09 at Thu Jun 19 01:54:53 2014.
