 Entering Gaussian System, Link 0=g09
 Input=scan_input_11.gjf
 Output=scan_input_11.log
 Initial command:
 /home/ztw1e12/g09/l1.exe "/home/ztw1e12/leucine_scan/leucine_chi2_scan/Gau-15622.inp" -scrdir="/home/ztw1e12/leucine_scan/leucine_chi2_scan/"
 Default is to use a total of   8 processors:
                                8 via shared-memory
                                1 via Linda
 Entering Link 1 = /home/ztw1e12/g09/l1.exe PID=     15623.
  
 Copyright (c) 1988,1990,1992,1993,1995,1998,2003,2009,2013,
            Gaussian, Inc.  All Rights Reserved.
  
 This is part of the Gaussian(R) 09 program.  It is based on
 the Gaussian(R) 03 system (copyright 2003, Gaussian, Inc.),
 the Gaussian(R) 98 system (copyright 1998, Gaussian, Inc.),
 the Gaussian(R) 94 system (copyright 1995, Gaussian, Inc.),
 the Gaussian 92(TM) system (copyright 1992, Gaussian, Inc.),
 the Gaussian 90(TM) system (copyright 1990, Gaussian, Inc.),
 the Gaussian 88(TM) system (copyright 1988, Gaussian, Inc.),
 the Gaussian 86(TM) system (copyright 1986, Carnegie Mellon
 University), and the Gaussian 82(TM) system (copyright 1983,
 Carnegie Mellon University). Gaussian is a federally registered
 trademark of Gaussian, Inc.
  
 This software contains proprietary and confidential information,
 including trade secrets, belonging to Gaussian, Inc.
  
 This software is provided under written license and may be
 used, copied, transmitted, or stored only in accord with that
 written license.
  
 The following legend is applicable only to US Government
 contracts under FAR:
  
                    RESTRICTED RIGHTS LEGEND
  
 Use, reproduction and disclosure by the US Government is
 subject to restrictions as set forth in subparagraphs (a)
 and (c) of the Commercial Computer Software - Restricted
 Rights clause in FAR 52.227-19.
  
 Gaussian, Inc.
 340 Quinnipiac St., Bldg. 40, Wallingford CT 06492
  
  
 ---------------------------------------------------------------
 Warning -- This program may not be used in any manner that
 competes with the business of Gaussian, Inc. or will provide
 assistance to any competitor of Gaussian, Inc.  The licensee
 of this program is prohibited from giving any competitor of
 Gaussian, Inc. access to this program.  By using this program,
 the user acknowledges that Gaussian, Inc. is engaged in the
 business of creating and licensing software in the field of
 computational chemistry and represents and warrants to the
 licensee that it is not a competitor of Gaussian, Inc. and that
 it will not use this program in any manner prohibited above.
 ---------------------------------------------------------------
  

 Cite this work as:
 Gaussian 09, Revision D.01,
 M. J. Frisch, G. W. Trucks, H. B. Schlegel, G. E. Scuseria, 
 M. A. Robb, J. R. Cheeseman, G. Scalmani, V. Barone, B. Mennucci, 
 G. A. Petersson, H. Nakatsuji, M. Caricato, X. Li, H. P. Hratchian, 
 A. F. Izmaylov, J. Bloino, G. Zheng, J. L. Sonnenberg, M. Hada, 
 M. Ehara, K. Toyota, R. Fukuda, J. Hasegawa, M. Ishida, T. Nakajima, 
 Y. Honda, O. Kitao, H. Nakai, T. Vreven, J. A. Montgomery, Jr., 
 J. E. Peralta, F. Ogliaro, M. Bearpark, J. J. Heyd, E. Brothers, 
 K. N. Kudin, V. N. Staroverov, T. Keith, R. Kobayashi, J. Normand, 
 K. Raghavachari, A. Rendell, J. C. Burant, S. S. Iyengar, J. Tomasi, 
 M. Cossi, N. Rega, J. M. Millam, M. Klene, J. E. Knox, J. B. Cross, 
 V. Bakken, C. Adamo, J. Jaramillo, R. Gomperts, R. E. Stratmann, 
 O. Yazyev, A. J. Austin, R. Cammi, C. Pomelli, J. W. Ochterski, 
 R. L. Martin, K. Morokuma, V. G. Zakrzewski, G. A. Voth, 
 P. Salvador, J. J. Dannenberg, S. Dapprich, A. D. Daniels, 
 O. Farkas, J. B. Foresman, J. V. Ortiz, J. Cioslowski, 
 and D. J. Fox, Gaussian, Inc., Wallingford CT, 2013.
 
 ******************************************
 Gaussian 09:  EM64L-G09RevD.01 24-Apr-2013
                18-Jun-2014 
 ******************************************
 %Mem=32GB
 %NProcShared=16
 Will use up to   16 processors via shared memory.
 Default route:  MaxDisk=100GB
 ----------------------------------------------------------------------
 #p nmr=(giao,mixed,spinspin) m06/cc-pvtz scf=tight integral=(grid=ultr
 afine)
 ----------------------------------------------------------------------
 1/38=1/1;
 2/12=2,17=6,18=5,40=1/2;
 3/5=16,6=1,10=1100000,11=2,16=1,25=1,30=1,74=-54,75=-5/1,2,8,3;
 4//1;
 5/5=2,32=2,38=5/2;
 8/6=1,10=90,11=11/1;
 10/13=100,45=16,47=3/2;
 6/7=2,8=2,9=2,10=2,28=1/1;
 99/9=1/99;
 Leave Link    1 at Wed Jun 18 02:04:45 2014, MaxMem=  4294967296 cpu:         6.1
 (Enter /home/ztw1e12/g09/l101.exe)
 ------------------
 NMR spin-spin scan
 ------------------
 Symbolic Z-matrix:
 Charge =  0 Multiplicity = 1
 C                     0.25843   1.18456   0.29775 
 C                     0.06578   0.12443  -0.78794 
 H                     0.5621    0.53134  -1.67468 
 C                    -2.31813  -2.2674   -0.14717 
 H                    -3.20396  -2.66411   0.35322 
 H                    -2.26945  -2.70747  -1.14494 
 H                    -1.45931  -2.63058   0.42655 
 O                     0.7056    0.92846   1.41126 
 N                     0.75054  -1.09805  -0.44471 
 H                     0.2205   -1.86462  -0.06237 
 N                    -0.06582   2.4288   -0.07111 
 H                    -0.42815   2.58814  -0.99764 
 C                    -0.0183    3.52941   0.86314 
 H                    -0.7071    3.37115   1.69539 
 H                     0.98511   3.65303   1.27063 
 H                    -0.29813   4.44286   0.34707 
 C                     2.09288  -1.18113  -0.44309 
 C                     2.67671  -2.4843   -0.00683 
 H                     1.92579  -3.21723   0.28001 
 H                     3.27969  -2.88671  -0.82073 
 H                     3.34488  -2.30493   0.83513 
 O                     2.80441  -0.24466  -0.8033 
 C                    -2.37902  -0.7481   -0.20248 
 H                    -3.36072  -0.50236  -0.62304 
 C                    -2.33401  -0.16326   1.19575 
 H                    -1.41921  -0.45267   1.71739 
 H                    -2.39098   0.92834   1.19047 
 H                    -3.17554  -0.53429   1.78424 
 C                    -1.387    -0.12521  -1.19345 
 H                    -1.36512  -0.74217  -2.0959 
 H                    -1.78685   0.84204  -1.50828 
 
 NAtoms=     31 NQM=       31 NQMF=       0 NMMI=      0 NMMIF=      0
                NMic=       0 NMicF=      0.
                    Isotopes and Nuclear Properties:
 (Nuclear quadrupole moments (NQMom) in fm**2, nuclear magnetic moments (NMagM)
  in nuclear magnetons)

  Atom         1           2           3           4           5           6           7           8           9          10
 IAtWgt=          12          12           1          12           1           1           1          16          14           1
 AtmWgt=  12.0000000  12.0000000   1.0078250  12.0000000   1.0078250   1.0078250   1.0078250  15.9949146  14.0030740   1.0078250
 NucSpn=           0           0           1           0           1           1           1           0           2           1
 AtZEff=   0.0000000   0.0000000   0.0000000   0.0000000   0.0000000   0.0000000   0.0000000   0.0000000   0.0000000   0.0000000
 NQMom=    0.0000000   0.0000000   0.0000000   0.0000000   0.0000000   0.0000000   0.0000000   0.0000000   2.0440000   0.0000000
 NMagM=    0.0000000   0.0000000   2.7928460   0.0000000   2.7928460   2.7928460   2.7928460   0.0000000   0.4037610   2.7928460
 AtZNuc=   6.0000000   6.0000000   1.0000000   6.0000000   1.0000000   1.0000000   1.0000000   8.0000000   7.0000000   1.0000000

  Atom        11          12          13          14          15          16          17          18          19          20
 IAtWgt=          14           1          12           1           1           1          12          12           1           1
 AtmWgt=  14.0030740   1.0078250  12.0000000   1.0078250   1.0078250   1.0078250  12.0000000  12.0000000   1.0078250   1.0078250
 NucSpn=           2           1           0           1           1           1           0           0           1           1
 AtZEff=   0.0000000   0.0000000   0.0000000   0.0000000   0.0000000   0.0000000   0.0000000   0.0000000   0.0000000   0.0000000
 NQMom=    2.0440000   0.0000000   0.0000000   0.0000000   0.0000000   0.0000000   0.0000000   0.0000000   0.0000000   0.0000000
 NMagM=    0.4037610   2.7928460   0.0000000   2.7928460   2.7928460   2.7928460   0.0000000   0.0000000   2.7928460   2.7928460
 AtZNuc=   7.0000000   1.0000000   6.0000000   1.0000000   1.0000000   1.0000000   6.0000000   6.0000000   1.0000000   1.0000000

  Atom        21          22          23          24          25          26          27          28          29          30
 IAtWgt=           1          16          12           1          12           1           1           1          12           1
 AtmWgt=   1.0078250  15.9949146  12.0000000   1.0078250  12.0000000   1.0078250   1.0078250   1.0078250  12.0000000   1.0078250
 NucSpn=           1           0           0           1           0           1           1           1           0           1
 AtZEff=   0.0000000   0.0000000   0.0000000   0.0000000   0.0000000   0.0000000   0.0000000   0.0000000   0.0000000   0.0000000
 NQMom=    0.0000000   0.0000000   0.0000000   0.0000000   0.0000000   0.0000000   0.0000000   0.0000000   0.0000000   0.0000000
 NMagM=    2.7928460   0.0000000   0.0000000   2.7928460   0.0000000   2.7928460   2.7928460   2.7928460   0.0000000   2.7928460
 AtZNuc=   1.0000000   8.0000000   6.0000000   1.0000000   6.0000000   1.0000000   1.0000000   1.0000000   6.0000000   1.0000000

  Atom        31
 IAtWgt=           1
 AtmWgt=   1.0078250
 NucSpn=           1
 AtZEff=   0.0000000
 NQMom=    0.0000000
 NMagM=    2.7928460
 AtZNuc=   1.0000000
 Leave Link  101 at Wed Jun 18 02:04:46 2014, MaxMem=  4294967296 cpu:         1.7
 (Enter /home/ztw1e12/g09/l202.exe)
                          Input orientation:                          
 ---------------------------------------------------------------------
 Center     Atomic      Atomic             Coordinates (Angstroms)
 Number     Number       Type             X           Y           Z
 ---------------------------------------------------------------------
      1          6           0        0.258429    1.184559    0.297752
      2          6           0        0.065779    0.124432   -0.787935
      3          1           0        0.562095    0.531342   -1.674682
      4          6           0       -2.318134   -2.267402   -0.147171
      5          1           0       -3.203960   -2.664113    0.353224
      6          1           0       -2.269452   -2.707474   -1.144942
      7          1           0       -1.459312   -2.630575    0.426553
      8          8           0        0.705597    0.928462    1.411258
      9          7           0        0.750537   -1.098046   -0.444710
     10          1           0        0.220496   -1.864620   -0.062372
     11          7           0       -0.065821    2.428803   -0.071111
     12          1           0       -0.428148    2.588135   -0.997642
     13          6           0       -0.018301    3.529405    0.863140
     14          1           0       -0.707102    3.371147    1.695391
     15          1           0        0.985114    3.653028    1.270625
     16          1           0       -0.298134    4.442856    0.347070
     17          6           0        2.092878   -1.181133   -0.443093
     18          6           0        2.676712   -2.484299   -0.006832
     19          1           0        1.925790   -3.217231    0.280009
     20          1           0        3.279694   -2.886712   -0.820734
     21          1           0        3.344883   -2.304928    0.835132
     22          8           0        2.804410   -0.244660   -0.803301
     23          6           0       -2.379018   -0.748103   -0.202478
     24          1           0       -3.360715   -0.502358   -0.623037
     25          6           0       -2.334006   -0.163264    1.195752
     26          1           0       -1.419206   -0.452665    1.717393
     27          1           0       -2.390982    0.928341    1.190465
     28          1           0       -3.175539   -0.534290    1.784239
     29          6           0       -1.387001   -0.125213   -1.193445
     30          1           0       -1.365116   -0.742170   -2.095899
     31          1           0       -1.786846    0.842044   -1.508278
 ---------------------------------------------------------------------
                    Distance matrix (angstroms):
                    1          2          3          4          5
     1  C    0.000000
     2  C    1.529608   0.000000
     3  H    2.099857   1.094635   0.000000
     4  C    4.330435   3.437221   4.296740   0.000000
     5  H    5.177209   4.446282   5.339148   1.091999   0.000000
     6  H    4.859987   3.687879   4.334537   1.091595   1.766263
     7  H    4.185985   3.375048   4.301046   1.094819   1.746510
     8  O    1.226964   2.427402   3.114695   4.667461   5.413933
     9  N    2.450246   1.442619   2.050182   3.297372   4.327506
    10  H    3.070606   2.122901   2.908069   2.571783   3.541018
    11  N    1.337663   2.416874   2.562436   5.208939   5.997147
    12  H    2.029645   2.521463   2.381042   5.279355   6.092297
    13  C    2.427869   3.785097   3.970615   6.317668   6.983416
    14  H    2.768901   4.159977   4.586147   6.146844   6.667839
    15  H    2.750980   4.187342   4.312621   6.926260   7.635197
    16  H    3.305858   4.479895   4.486359   7.025115   7.678077
    17  C    3.083918   2.435682   2.606277   4.552425   5.557863
    18  C    4.404700   3.772608   4.043194   5.001522   5.894428
    19  H    4.707033   3.970750   4.442103   4.369845   5.160003
    20  H    5.191753   4.404238   4.449457   5.672117   6.592837
    21  H    4.689509   4.391886   4.699734   5.747703   6.576366
    22  O    3.120417   2.763434   2.527738   5.546391   6.579651
    23  C    3.307800   2.661035   3.529095   1.521524   2.158803
    24  H    4.097773   3.487251   4.190815   2.104472   2.377150
    25  C    3.056755   3.126780   4.136335   2.496215   2.778654
    26  H    2.740500   2.968988   4.049691   2.752806   3.152270
    27  H    2.807483   3.255151   4.133684   3.465162   3.777252
    28  H    4.117793   4.190004   5.202847   2.732977   2.566078
    29  C    2.578102   1.528833   2.112257   2.559428   3.484184
    30  H    3.475305   2.123495   2.348063   2.651814   3.615718
    31  H    2.749947   2.113310   2.375237   3.435627   4.215037
                    6          7          8          9         10
     6  H    0.000000
     7  H    1.769700   0.000000
     8  O    5.348374   4.280563   0.000000
     9  N    3.492981   2.826867   2.748340   0.000000
    10  H    2.842921   1.909840   3.195030   1.007354   0.000000
    11  N    5.691260   5.271318   2.245780   3.639324   4.302968
    12  H    5.608527   5.506956   3.137306   3.909343   4.595922
    13  C    6.928112   6.341331   2.754880   4.869793   5.478056
    14  H    6.888981   6.180327   2.836047   5.165117   5.600306
    15  H    7.542092   6.794950   2.742475   5.056689   5.727649
    16  H    7.565673   7.168548   3.806696   5.694578   6.341993
    17  C    4.674637   3.933856   3.132660   1.344911   2.029265
    18  C    5.080319   4.161239   4.188462   2.413210   2.533788
    19  H    4.459865   3.438685   4.467143   2.529305   2.203363
    20  H    5.561498   4.907088   5.115009   3.120474   3.313379
    21  H    5.966866   4.832522   4.213379   3.134516   3.280424
    22  O    5.650332   5.038299   3.268869   2.252831   3.138448
    23  C    2.177011   2.187519   3.863918   3.158362   2.832616
    24  H    2.515110   3.040770   4.766602   4.158009   3.872360
    25  C    3.457748   2.728439   3.236896   3.616537   3.317072
    26  H    3.741663   2.532029   2.552649   3.130334   2.801750
    27  H    4.322967   3.757320   3.104441   4.080341   4.023686
    28  H    3.758168   3.030372   4.164370   4.549737   4.088130
    29  C    2.729312   2.984369   3.503381   2.464970   2.624673
    30  H    2.363168   3.152413   4.402160   2.707224   2.812346
    31  H    3.600555   3.988726   3.839718   3.366517   3.666892
                   11         12         13         14         15
    11  N    0.000000
    12  H    1.007535   0.000000
    13  C    1.444440   2.125200   0.000000
    14  H    2.102328   2.818395   1.091849   0.000000
    15  H    2.098439   2.876863   1.090031   1.767336   0.000000
    16  H    2.070086   2.294590   1.085830   1.770250   1.767345
    17  C    4.222557   4.568422   5.324706   5.756410   5.247198
    18  C    5.627094   6.029216   6.647148   6.973809   6.493087
    19  H    5.997291   6.393410   7.045327   7.234788   7.004759
    20  H    6.325275   6.614631   7.408020   7.834936   7.239273
    21  H    5.904438   6.444912   6.734332   7.026838   6.423037
    22  O    3.990205   4.302549   4.998829   5.625677   4.775246
    23  C    3.932031   3.945715   5.000560   4.833780   5.732135
    24  H    4.444396   4.276848   5.443856   5.236488   6.303921
    25  C    3.669934   4.001683   4.371376   3.922820   5.058285
    26  H    3.651473   4.195244   4.306874   3.889616   4.778815
    27  H    3.041272   3.375714   3.535858   3.009602   4.339167
    28  H    4.678952   5.003654   5.227829   4.620986   5.925240
    29  C    3.086770   2.884440   4.411249   4.586084   5.096438
    30  H    3.980327   3.629740   5.368070   5.632605   6.014552
    31  H    2.746849   2.270604   3.996659   4.222050   4.827804
                   16         17         18         19         20
    16  H    0.000000
    17  C    6.162025   0.000000
    18  C    7.547214   1.493127   0.000000
    19  H    7.976670   2.167139   1.087819   0.000000
    20  H    8.239368   2.111905   1.089936   1.775932   0.000000
    21  H    7.683903   2.112887   1.089738   1.776030   1.756307
    22  O    5.737764   1.230044   2.380473   3.283552   2.684518
    23  C    5.619443   4.499252   5.349118   4.986056   6.080864
    24  H    5.897088   5.498617   6.384225   6.011087   7.058276
    25  C    5.106993   4.828993   5.651611   5.320823   6.557211
    26  H    5.205835   4.187254   4.886413   4.571422   5.869100
    27  H    4.176499   5.217604   6.225846   6.053860   7.124333
    28  H    5.925951   5.756356   6.423341   5.956882   7.347776
    29  C    4.942274   3.713159   4.846349   4.765105   5.435332
    30  H    5.830184   3.857743   4.871918   4.754043   5.272510
    31  H    4.315603   4.503346   5.765609   5.784406   6.328204
                   21         22         23         24         25
    21  H    0.000000
    22  O    2.687244   0.000000
    23  C    6.021908   5.242363   0.000000
    24  H    7.095108   6.173141   1.095897   0.000000
    25  C    6.080012   5.514178   1.516282   2.115918   0.000000
    26  H    5.187081   4.923017   2.166663   3.041306   1.092118
    27  H    6.593970   5.687102   2.179655   2.505209   1.093104
    28  H    6.822893   6.522196   2.151094   2.414599   1.091859
    29  C    5.590797   4.211224   1.534309   2.088816   2.570317
    30  H    5.763440   4.393549   2.147807   2.491836   3.479777
    31  H    6.459849   4.770487   2.141109   2.251251   2.936291
                   26         27         28         29         30
    26  H    0.000000
    27  H    1.768949   0.000000
    28  H    1.759499   1.762778   0.000000
    29  C    2.929375   2.793024   3.497544   0.000000
    30  H    3.824648   3.826643   4.286761   1.093407   0.000000
    31  H    3.495194   2.766883   3.829286   1.092969   1.741519
                   31
    31  H    0.000000
 Stoichiometry    C9H18N2O2
 Framework group  C1[X(C9H18N2O2)]
 Deg. of freedom    87
 Full point group                 C1      NOp   1
 Largest Abelian subgroup         C1      NOp   1
 Largest concise Abelian subgroup C1      NOp   1
                         Standard orientation:                         
 ---------------------------------------------------------------------
 Center     Atomic      Atomic             Coordinates (Angstroms)
 Number     Number       Type             X           Y           Z
 ---------------------------------------------------------------------
      1          6           0        0.717549   -1.039704    0.093564
      2          6           0       -0.075374   -0.077581   -0.792603
      3          1           0       -0.296941   -0.644986   -1.702100
      4          6           0        0.044515    3.238094    0.105406
      5          1           0        0.476741    4.106330    0.607210
      6          1           0       -0.471415    3.588970   -0.790296
      7          1           0       -0.705480    2.834304    0.793222
      8          8           0        0.424936   -1.267469    1.263154
      9          7           0       -1.340505    0.260039   -0.187124
     10          1           0       -1.434150    1.142052    0.290415
     11          7           0        1.741452   -1.647300   -0.516183
     12          1           0        1.940838   -1.427238   -1.478963
     13          6           0        2.636971   -2.522320    0.204090
     14          1           0        3.155739   -1.986891    1.001794
     15          1           0        2.094099   -3.355473    0.650535
     16          1           0        3.374391   -2.919273   -0.487045
     17          6           0       -2.335330   -0.638409   -0.078029
     18          6           0       -3.569444   -0.179961    0.626396
     19          1           0       -3.502415    0.843474    0.988941
     20          1           0       -4.413810   -0.264717   -0.057579
     21          1           0       -3.762549   -0.847426    1.465878
     22          8           0       -2.246705   -1.769937   -0.552158
     23          6           0        1.130764    2.226348   -0.228461
     24          1           0        1.912283    2.787482   -0.753195
     25          6           0        1.752591    1.676196    1.040308
     26          1           0        1.005430    1.185191    1.667511
     27          1           0        2.548398    0.955974    0.833312
     28          1           0        2.187301    2.488022    1.626926
     29          6           0        0.694300    1.163418   -1.245213
     30          1           0        0.091315    1.649219   -2.017188
     31          1           0        1.588499    0.798570   -1.756950
 ---------------------------------------------------------------------
 Rotational constants (GHZ):      0.7957957      0.7000891      0.4409779
 Leave Link  202 at Wed Jun 18 02:04:46 2014, MaxMem=  4294967296 cpu:         2.0
 (Enter /home/ztw1e12/g09/l301.exe)
 Standard basis: CC-pVTZ (5D, 7F)
 Converting basis for Fermi contact spin-spin IFCMod=1.
 AO basis functions are being uncontracted.
 Ernie: Thresh=  0.10000D-02 Tol=  0.10000D-05 Strict=F.
 There are  1119 symmetry adapted cartesian basis functions of A   symmetry.
 There are  1036 symmetry adapted basis functions of A   symmetry.
  1036 basis functions,  1119 primitive gaussians,  1119 cartesian basis functions
    51 alpha electrons       51 beta electrons
       nuclear repulsion energy       882.4170170558 Hartrees.
 IExCor= 4235 DFT=T Ex+Corr=M06 ExCW=0 ScaHFX=  0.270000
 ScaDFX=  1.000000  1.000000  1.000000  1.000000 ScalE2=  1.000000  1.000000
 IRadAn= 199590 IRanWt=     -1 IRanGd=            0 ICorTp=0 IEmpDi=  4
 NAtoms=   31 NActive=   31 NUniq=   31 SFac= 1.00D+00 NAtFMM=   60 NAOKFM=F Big=F
 Integral buffers will be    131072 words long.
 Raffenetti 2 integral format.
 Two-electron integral symmetry is turned on.
 Leave Link  301 at Wed Jun 18 02:04:46 2014, MaxMem=  4294967296 cpu:         5.1
 (Enter /home/ztw1e12/g09/l302.exe)
 NPDir=0 NMtPBC=     1 NCelOv=     1 NCel=       1 NClECP=     1 NCelD=      1
         NCelK=      1 NCelE2=     1 NClLst=     1 CellRange=     0.0.
 One-electron integrals computed using PRISM.
 GSVD:  received Info=                   1 from GESDD.
 NBasis=  1036 RedAO= T EigKep=  1.25D-04  NBF=  1036
 NBsUse=   932 1.00D-06 EigRej=  5.65D-15 NBFU=   932
 Precomputing XC quadrature grid using
 IXCGrd= 4 IRadAn=      199590 IRanWt=          -1 IRanGd=           0 AccXCQ= 0.00D+00.
 Generated NRdTot=       0 NPtTot=           0 NUsed=           0 NTot=          32
 NSgBfM=   892   892   892   892   892 MxSgAt=    31 MxSgA2=    31.
 Leave Link  302 at Wed Jun 18 02:04:50 2014, MaxMem=  4294967296 cpu:        64.1
 (Enter /home/ztw1e12/g09/l308.exe)
 Leave Link  308 at Wed Jun 18 02:04:51 2014, MaxMem=  4294967296 cpu:         5.3
 (Enter /home/ztw1e12/g09/l303.exe)
 DipDrv:  MaxL=1.
 Leave Link  303 at Wed Jun 18 02:04:51 2014, MaxMem=  4294967296 cpu:         3.3
 (Enter /home/ztw1e12/g09/l401.exe)
 ExpMin= 1.03D-01 ExpMax= 1.38D+05 ExpMxC= 1.38D+05 IAcc=4 IRadAn=    199590 AccDes= 0.00D+00
 Harris functional with IExCor= 1009 and IRadAn=  199590 diagonalized for initial guess.
 HarFok:  IExCor= 1009 AccDes= 0.00D+00 IRadAn=    199590 IDoV= 1 UseB2=F ITyADJ=14
 ICtDFT=  3500011 ScaDFX=  1.000000  1.000000  1.000000  1.000000
 FoFCou: FMM=F IPFlag=           0 FMFlag=      100000 FMFlg1=           0
         NFxFlg=           0 DoJE=T BraDBF=F KetDBF=T FulRan=T
         wScrn=  0.000000 ICntrl=     500 IOpCl=  0 I1Cent=   200000004 NGrid=           0
         NMat0=    1 NMatS0=      1 NMatT0=    0 NMatD0=    1 NMtDS0=    0 NMtDT0=    0
 Petite list used in FoFCou.
 Harris En= -613.559804629703    
 JPrj=0 DoOrth=F DoCkMO=F.
 Leave Link  401 at Wed Jun 18 02:05:08 2014, MaxMem=  4294967296 cpu:       261.0
 (Enter /home/ztw1e12/g09/l502.exe)
 Closed shell SCF:
 Using DIIS extrapolation, IDIIS=  1040.
 Integral symmetry usage will be decided dynamically.
 IVT=     3801329 IEndB=     3801329 NGot=  4294967296 MDV=  4292435888
 LenX=  4292435888 LenY=  4291182608
 Requested convergence on RMS density matrix=1.00D-08 within 128 cycles.
 Requested convergence on MAX density matrix=1.00D-06.
 Requested convergence on             energy=1.00D-06.
 No special actions if energy rises.
 Fock matrices will be formed incrementally for  20 cycles.
 Integral accuracy reduced to 1.0D-05 until final iterations.

 Cycle   1  Pass 0  IDiag  1:
 FoFJK:  IHMeth= 1 ICntrl=       0 DoSepK=F KAlg= 0 I1Cent=   0 FoldK=F
 IRaf= 490000000 NMat=   1 IRICut=       1 DoRegI=T DoRafI=F ISym2E= 0.
 FoFCou: FMM=F IPFlag=           0 FMFlag=      100000 FMFlg1=           0
         NFxFlg=           0 DoJE=F BraDBF=F KetDBF=F FulRan=T
         wScrn=  0.000000 ICntrl=       0 IOpCl=  0 I1Cent=           0 NGrid=           0
         NMat0=    1 NMatS0=      1 NMatT0=    0 NMatD0=    1 NMtDS0=    0 NMtDT0=    0
 Symmetry not used in FoFCou.
 E= -613.181427402308    
 DIIS: error= 1.22D-01 at cycle   1 NSaved=   1.
 NSaved= 1 IEnMin= 1 EnMin= -613.181427402308     IErMin= 1 ErrMin= 1.22D-01
 ErrMax= 1.22D-01  0.00D+00 EMaxC= 1.00D-01 BMatC= 1.30D+01 BMatP= 1.30D+01
 IDIUse=3 WtCom= 0.00D+00 WtEn= 1.00D+00
 Coeff-Com:  0.100D+01
 Coeff-En:   0.100D+01
 Coeff:      0.100D+01
 Gap=     0.286 Goal=   None    Shift=    0.000
 GapD=    0.286 DampG=1.000 DampE=0.250 DampFc=0.2500 IDamp=-1.
 Damping current iteration by 2.50D-01
 RMSDP=2.14D-03 MaxDP=3.09D-01              OVMax= 2.85D-01

 Cycle   2  Pass 0  IDiag  1:
 RMSU=  5.35D-04    CP:  1.01D+00
 E= -613.337865160693     Delta-E=       -0.156437758385 Rises=F Damp=T
 DIIS: error= 9.25D-02 at cycle   2 NSaved=   2.
 NSaved= 2 IEnMin= 2 EnMin= -613.337865160693     IErMin= 2 ErrMin= 9.25D-02
 ErrMax= 9.25D-02  0.00D+00 EMaxC= 1.00D-01 BMatC= 7.66D+00 BMatP= 1.30D+01
 IDIUse=3 WtCom= 7.55D-02 WtEn= 9.25D-01
 Coeff-Com: -0.279D+01 0.379D+01
 Coeff-En:   0.000D+00 0.100D+01
 Coeff:     -0.211D+00 0.121D+01
 Gap=     0.243 Goal=   None    Shift=    0.000
 RMSDP=5.21D-04 MaxDP=4.57D-02 DE=-1.56D-01 OVMax= 1.47D-01

 Cycle   3  Pass 0  IDiag  1:
 RMSU=  4.54D-04    CP:  1.03D+00  1.47D+00
 E= -613.573427556006     Delta-E=       -0.235562395313 Rises=F Damp=F
 DIIS: error= 1.31D-02 at cycle   3 NSaved=   3.
 NSaved= 3 IEnMin= 3 EnMin= -613.573427556006     IErMin= 3 ErrMin= 1.31D-02
 ErrMax= 1.31D-02  0.00D+00 EMaxC= 1.00D-01 BMatC= 1.55D-01 BMatP= 7.66D+00
 IDIUse=3 WtCom= 8.69D-01 WtEn= 1.31D-01
 Coeff-Com:  0.546D+00-0.777D+00 0.123D+01
 Coeff-En:   0.000D+00 0.000D+00 0.100D+01
 Coeff:      0.474D+00-0.675D+00 0.120D+01
 Gap=     0.250 Goal=   None    Shift=    0.000
 RMSDP=3.61D-04 MaxDP=3.07D-02 DE=-2.36D-01 OVMax= 8.39D-02

 Cycle   4  Pass 0  IDiag  1:
 RMSU=  3.19D-04    CP:  1.03D+00  1.22D+00  7.65D-01
 E= -613.532682916304     Delta-E=        0.040744639703 Rises=F Damp=F
 DIIS: error= 1.04D-02 at cycle   4 NSaved=   4.
 NSaved= 4 IEnMin= 3 EnMin= -613.573427556006     IErMin= 4 ErrMin= 1.04D-02
 ErrMax= 1.04D-02  0.00D+00 EMaxC= 1.00D-01 BMatC= 1.13D-01 BMatP= 1.55D-01
 IDIUse=3 WtCom= 8.96D-01 WtEn= 1.04D-01
 Coeff-Com:  0.426D+00-0.600D+00 0.666D+00 0.508D+00
 Coeff-En:   0.000D+00 0.000D+00 0.659D+00 0.341D+00
 Coeff:      0.381D+00-0.538D+00 0.665D+00 0.491D+00
 Gap=     0.280 Goal=   None    Shift=    0.000
 RMSDP=2.88D-04 MaxDP=2.65D-02 DE= 4.07D-02 OVMax= 7.89D-02

 Cycle   5  Pass 0  IDiag  1:
 RMSU=  7.04D-05    CP:  1.02D+00  1.12D+00  8.57D-01  1.51D-01
 E= -613.615851583021     Delta-E=       -0.083168666717 Rises=F Damp=F
 DIIS: error= 3.29D-03 at cycle   5 NSaved=   5.
 NSaved= 5 IEnMin= 5 EnMin= -613.615851583021     IErMin= 5 ErrMin= 3.29D-03
 ErrMax= 3.29D-03  0.00D+00 EMaxC= 1.00D-01 BMatC= 9.55D-03 BMatP= 1.13D-01
 IDIUse=3 WtCom= 9.67D-01 WtEn= 3.29D-02
 Coeff-Com:  0.219D-01-0.369D-01 0.546D-01 0.219D+00 0.741D+00
 Coeff-En:   0.000D+00 0.000D+00 0.000D+00 0.230D-01 0.977D+00
 Coeff:      0.212D-01-0.357D-01 0.528D-01 0.213D+00 0.749D+00
 Gap=     0.267 Goal=   None    Shift=    0.000
 RMSDP=1.15D-04 MaxDP=1.65D-02 DE=-8.32D-02 OVMax= 2.40D-02

 Cycle   6  Pass 0  IDiag  1:
 RMSU=  4.34D-05    CP:  1.03D+00  1.18D+00  9.29D-01  4.16D-01  3.42D-01
 E= -613.621386310753     Delta-E=       -0.005534727733 Rises=F Damp=F
 DIIS: error= 7.56D-04 at cycle   6 NSaved=   6.
 NSaved= 6 IEnMin= 6 EnMin= -613.621386310753     IErMin= 6 ErrMin= 7.56D-04
 ErrMax= 7.56D-04  0.00D+00 EMaxC= 1.00D-01 BMatC= 8.40D-04 BMatP= 9.55D-03
 IDIUse=3 WtCom= 9.92D-01 WtEn= 7.56D-03
 Coeff-Com:  0.809D-02-0.116D-01-0.650D-02 0.586D-01 0.297D+00 0.654D+00
 Coeff-En:   0.000D+00 0.000D+00 0.000D+00 0.000D+00 0.182D-01 0.982D+00
 Coeff:      0.803D-02-0.115D-01-0.645D-02 0.582D-01 0.295D+00 0.656D+00
 Gap=     0.266 Goal=   None    Shift=    0.000
 RMSDP=2.72D-05 MaxDP=3.15D-03 DE=-5.53D-03 OVMax= 6.58D-03

 Cycle   7  Pass 0  IDiag  1:
 RMSU=  1.87D-05    CP:  1.03D+00  1.15D+00  9.19D-01  4.08D-01  5.38D-01
                    CP:  8.70D-01
 E= -613.621876557485     Delta-E=       -0.000490246731 Rises=F Damp=F
 DIIS: error= 4.09D-04 at cycle   7 NSaved=   7.
 NSaved= 7 IEnMin= 7 EnMin= -613.621876557485     IErMin= 7 ErrMin= 4.09D-04
 ErrMax= 4.09D-04  0.00D+00 EMaxC= 1.00D-01 BMatC= 1.72D-04 BMatP= 8.40D-04
 IDIUse=3 WtCom= 9.96D-01 WtEn= 4.09D-03
 Coeff-Com:  0.863D-02-0.114D-01-0.379D-02 0.175D-01 0.101D+00 0.368D+00
 Coeff-Com:  0.520D+00
 Coeff-En:   0.000D+00 0.000D+00 0.000D+00 0.000D+00 0.000D+00 0.137D+00
 Coeff-En:   0.863D+00
 Coeff:      0.860D-02-0.114D-01-0.377D-02 0.174D-01 0.101D+00 0.367D+00
 Coeff:      0.522D+00
 Gap=     0.266 Goal=   None    Shift=    0.000
 RMSDP=9.65D-06 MaxDP=9.67D-04 DE=-4.90D-04 OVMax= 2.46D-03

 Initial convergence to 1.0D-05 achieved.  Increase integral accuracy.
 Cycle   8  Pass 1  IDiag  1:
 E= -613.622016424377     Delta-E=       -0.000139866892 Rises=F Damp=F
 DIIS: error= 1.27D-04 at cycle   1 NSaved=   1.
 NSaved= 1 IEnMin= 1 EnMin= -613.622016424377     IErMin= 1 ErrMin= 1.27D-04
 ErrMax= 1.27D-04  0.00D+00 EMaxC= 1.00D-01 BMatC= 2.33D-05 BMatP= 2.33D-05
 IDIUse=3 WtCom= 9.99D-01 WtEn= 1.27D-03
 Coeff-Com:  0.100D+01
 Coeff-En:   0.100D+01
 Coeff:      0.100D+01
 Gap=     0.266 Goal=   None    Shift=    0.000
 RMSDP=9.65D-06 MaxDP=9.67D-04 DE=-1.40D-04 OVMax= 2.35D-03

 Cycle   9  Pass 1  IDiag  1:
 RMSU=  2.53D-05    CP:  1.00D+00
 E= -613.621982585836     Delta-E=        0.000033838541 Rises=F Damp=F
 DIIS: error= 2.67D-04 at cycle   2 NSaved=   2.
 NSaved= 2 IEnMin= 1 EnMin= -613.622016424377     IErMin= 1 ErrMin= 1.27D-04
 ErrMax= 2.67D-04  0.00D+00 EMaxC= 1.00D-01 BMatC= 6.90D-05 BMatP= 2.33D-05
 IDIUse=3 WtCom= 3.80D-01 WtEn= 6.20D-01
 Coeff-Com:  0.644D+00 0.356D+00
 Coeff-En:   0.731D+00 0.269D+00
 Coeff:      0.698D+00 0.302D+00
 Gap=     0.266 Goal=   None    Shift=    0.000
 RMSDP=5.75D-06 MaxDP=6.33D-04 DE= 3.38D-05 OVMax= 1.54D-03

 Cycle  10  Pass 1  IDiag  1:
 RMSU=  5.36D-06    CP:  1.00D+00  9.19D-01
 E= -613.622031686043     Delta-E=       -0.000049100207 Rises=F Damp=F
 DIIS: error= 2.16D-05 at cycle   3 NSaved=   3.
 NSaved= 3 IEnMin= 3 EnMin= -613.622031686043     IErMin= 3 ErrMin= 2.16D-05
 ErrMax= 2.16D-05  0.00D+00 EMaxC= 1.00D-01 BMatC= 4.68D-07 BMatP= 2.33D-05
 IDIUse=1 WtCom= 1.00D+00 WtEn= 0.00D+00
 Coeff-Com:  0.749D-01-0.199D-01 0.945D+00
 Coeff:      0.749D-01-0.199D-01 0.945D+00
 Gap=     0.266 Goal=   None    Shift=    0.000
 RMSDP=9.82D-07 MaxDP=7.27D-05 DE=-4.91D-05 OVMax= 1.51D-04

 Cycle  11  Pass 1  IDiag  1:
 RMSU=  7.73D-07    CP:  1.00D+00  9.23D-01  1.11D+00
 E= -613.622031892073     Delta-E=       -0.000000206030 Rises=F Damp=F
 DIIS: error= 1.99D-05 at cycle   4 NSaved=   4.
 NSaved= 4 IEnMin= 4 EnMin= -613.622031892073     IErMin= 4 ErrMin= 1.99D-05
 ErrMax= 1.99D-05  0.00D+00 EMaxC= 1.00D-01 BMatC= 1.72D-07 BMatP= 4.68D-07
 IDIUse=1 WtCom= 1.00D+00 WtEn= 0.00D+00
 Coeff-Com:  0.293D-02-0.294D-01 0.492D+00 0.535D+00
 Coeff:      0.293D-02-0.294D-01 0.492D+00 0.535D+00
 Gap=     0.266 Goal=   None    Shift=    0.000
 RMSDP=3.66D-07 MaxDP=3.63D-05 DE=-2.06D-07 OVMax= 6.61D-05

 Cycle  12  Pass 1  IDiag  1:
 RMSU=  1.99D-07    CP:  1.00D+00  9.25D-01  1.10D+00  6.15D-01
 E= -613.622032026694     Delta-E=       -0.000000134621 Rises=F Damp=F
 DIIS: error= 2.84D-06 at cycle   5 NSaved=   5.
 NSaved= 5 IEnMin= 5 EnMin= -613.622032026694     IErMin= 5 ErrMin= 2.84D-06
 ErrMax= 2.84D-06  0.00D+00 EMaxC= 1.00D-01 BMatC= 5.62D-09 BMatP= 1.72D-07
 IDIUse=1 WtCom= 1.00D+00 WtEn= 0.00D+00
 Coeff-Com: -0.148D-02-0.128D-01 0.194D+00 0.254D+00 0.566D+00
 Coeff:     -0.148D-02-0.128D-01 0.194D+00 0.254D+00 0.566D+00
 Gap=     0.266 Goal=   None    Shift=    0.000
 RMSDP=6.19D-08 MaxDP=5.04D-06 DE=-1.35D-07 OVMax= 1.62D-05

 Cycle  13  Pass 1  IDiag  1:
 RMSU=  5.11D-08    CP:  1.00D+00  9.25D-01  1.10D+00  6.26D-01  8.30D-01
 E= -613.622032030834     Delta-E=       -0.000000004140 Rises=F Damp=F
 DIIS: error= 4.62D-07 at cycle   6 NSaved=   6.
 NSaved= 6 IEnMin= 6 EnMin= -613.622032030834     IErMin= 6 ErrMin= 4.62D-07
 ErrMax= 4.62D-07  0.00D+00 EMaxC= 1.00D-01 BMatC= 3.43D-10 BMatP= 5.62D-09
 IDIUse=1 WtCom= 1.00D+00 WtEn= 0.00D+00
 Coeff-Com: -0.899D-03-0.443D-02 0.626D-01 0.862D-01 0.258D+00 0.598D+00
 Coeff:     -0.899D-03-0.443D-02 0.626D-01 0.862D-01 0.258D+00 0.598D+00
 Gap=     0.266 Goal=   None    Shift=    0.000
 RMSDP=2.08D-08 MaxDP=1.51D-06 DE=-4.14D-09 OVMax= 5.27D-06

 Cycle  14  Pass 1  IDiag  1:
 RMSU=  1.25D-08    CP:  1.00D+00  9.26D-01  1.10D+00  6.34D-01  8.99D-01
                    CP:  9.00D-01
 E= -613.622032031020     Delta-E=       -0.000000000186 Rises=F Damp=F
 DIIS: error= 2.47D-07 at cycle   7 NSaved=   7.
 NSaved= 7 IEnMin= 7 EnMin= -613.622032031020     IErMin= 7 ErrMin= 2.47D-07
 ErrMax= 2.47D-07  0.00D+00 EMaxC= 1.00D-01 BMatC= 6.10D-11 BMatP= 3.43D-10
 IDIUse=1 WtCom= 1.00D+00 WtEn= 0.00D+00
 Coeff-Com: -0.307D-03-0.902D-03 0.111D-01 0.168D-01 0.743D-01 0.322D+00
 Coeff-Com:  0.577D+00
 Coeff:     -0.307D-03-0.902D-03 0.111D-01 0.168D-01 0.743D-01 0.322D+00
 Coeff:      0.577D+00
 Gap=     0.266 Goal=   None    Shift=    0.000
 RMSDP=8.88D-09 MaxDP=9.22D-07 DE=-1.86D-10 OVMax= 2.38D-06

 SCF Done:  E(RM06) =  -613.622032031     A.U. after   14 cycles
            NFock= 14  Conv=0.89D-08     -V/T= 2.0046
 KE= 6.107988545097D+02 PE=-3.196262511232D+03 EE= 1.089424607636D+03
 Leave Link  502 at Wed Jun 18 02:30:53 2014, MaxMem=  4294967296 cpu:     24668.4
 (Enter /home/ztw1e12/g09/l801.exe)
 DoSCS=F DFT=T ScalE2(SS,OS)=  1.000000  1.000000
 Range of M.O.s used for correlation:     1   932
 NBasis=  1036 NAE=    51 NBE=    51 NFC=     0 NFV=     0
 NROrb=    932 NOA=    51 NOB=    51 NVA=   881 NVB=   881
 Leave Link  801 at Wed Jun 18 02:30:53 2014, MaxMem=  4294967296 cpu:         0.4
 (Enter /home/ztw1e12/g09/l1002.exe)
 Minotr:  Closed shell wavefunction.
          IDoAtm=1111111111111111111111111111111
          Direct CPHF calculation.
          Differentiating once with respect to Fermi-contact.
          Electric field/nuclear overlap derivatives assumed to be zero.
          Requested convergence is 1.0D-10 RMS, and 1.0D-09 maximum.
          Secondary convergence is 1.0D-12 RMS, and 1.0D-12 maximum.
          NewPWx=T KeepS1=F KeepF1=F KeepIn=T MapXYZ=F SortEE=F KeepMc=T.
          MDV=    4294966050 using IRadAn=  199590.
 Using stored XC quadrature information.
          Solving linear equations simultaneously, MaxMat=       0.
          There are    31 degrees of freedom in the 1st order CPHF.  IDoFFX=0 NUNeed=    31.
     31 vectors produced by pass  0 Test12= 1.45D-17 3.23D-11 XBig12= 4.16D+01 2.57D+00.
 AX will form    31 AO Fock derivatives at one time.
 FoFJK:  IHMeth= 1 ICntrl=       0 DoSepK=F KAlg= 0 I1Cent=   0 FoldK=F
 IRaf= 510000000 NMat=  31 IRICut=       1 DoRegI=T DoRafI=F ISym2E=-1.
 FoFCou: FMM=F IPFlag=           0 FMFlag=      100000 FMFlg1=           0
         NFxFlg=           0 DoJE=F BraDBF=F KetDBF=F FulRan=T
         wScrn=  0.000000 ICntrl=       0 IOpCl=  0 I1Cent=           0 NGrid=           0
         NMat0=   31 NMatS0=      0 NMatT0=   31 NMatD0=   31 NMtDS0=    0 NMtDT0=    0
 Petite list used in FoFCou.
     31 vectors produced by pass  1 Test12= 1.45D-17 3.23D-11 XBig12= 3.45D-01 1.76D-01.
     31 vectors produced by pass  2 Test12= 1.45D-17 3.23D-11 XBig12= 1.70D-02 4.13D-02.
     31 vectors produced by pass  3 Test12= 1.45D-17 3.23D-11 XBig12= 3.77D-04 6.38D-03.
     31 vectors produced by pass  4 Test12= 1.45D-17 3.23D-11 XBig12= 5.27D-06 8.89D-04.
     31 vectors produced by pass  5 Test12= 1.45D-17 3.23D-11 XBig12= 1.07D-07 1.51D-04.
     31 vectors produced by pass  6 Test12= 1.45D-17 3.23D-11 XBig12= 3.40D-09 1.70D-05.
     31 vectors produced by pass  7 Test12= 1.45D-17 3.23D-11 XBig12= 1.06D-10 4.09D-06.
     31 vectors produced by pass  8 Test12= 1.45D-17 3.23D-11 XBig12= 2.87D-12 3.97D-07.
     31 vectors produced by pass  9 Test12= 1.45D-17 3.23D-11 XBig12= 6.61D-14 7.79D-08.
     31 vectors produced by pass 10 Test12= 1.45D-17 3.23D-11 XBig12= 2.32D-15 7.65D-09.
     30 vectors produced by pass 11 Test12= 1.45D-17 3.23D-11 XBig12= 2.37D-17 5.66D-10.
      5 vectors produced by pass 12 Test12= 1.45D-17 3.23D-11 XBig12= 1.94D-19 4.17D-11.
 InvSVY:  IOpt=1 It=  1 EMax= 7.11D-15
 Solved reduced A of dimension   376 with    31 vectors.
 Max diff in FC couplings:  IJMax=    11     2 Diff= 4.97D-04 IJMaxR=    19     8 DiffR= 1.11D+00
 Fermi Contact (FC) contribution to K (Hz):
                1             2             3             4             5 
      1  0.123400D+11
      2  0.269654D+02  0.123400D+11
      3 -0.122029D+01  0.186295D+02  0.123400D+11
      4  0.243478D-01 -0.351620D-01 -0.779908D-02  0.123400D+11
      5 -0.769009D-03 -0.157099D-01  0.140985D-01  0.175020D+02  0.123400D+11
      6  0.341735D-02 -0.855456D-02  0.358947D-03  0.175354D+02 -0.781019D+00
      7  0.345760D-02  0.495523D-02  0.711242D-02  0.163419D+02 -0.825814D+00
      8 -0.948662D+01  0.281227D+01  0.385399D+00  0.487087D-02 -0.379267D-03
      9  0.146097D+00  0.186346D+02 -0.810886D+00  0.588908D+00  0.152111D+00
     10 -0.296266D-01  0.227495D+00  0.243844D+00 -0.159191D+00 -0.249553D-01
     11  0.287716D+02  0.135173D+02  0.963305D-01  0.518481D-01  0.278527D-02
     12  0.474554D+00  0.783854D-01 -0.225481D-01 -0.268497D-02 -0.269147D-03
     13 -0.400634D+00  0.100694D+01 -0.285278D-01 -0.200876D-02  0.761334D-04
     14  0.183785D+00 -0.869610D-01  0.260533D-01  0.876390D-03  0.506491D-05
     15  0.191722D+00 -0.800295D-01  0.164627D-01  0.130550D-02  0.231090D-03
     16  0.953158D+00 -0.196434D-01  0.000000D+00  0.909744D-03  0.202066D-04
     17  0.719489D-01 -0.552263D+00  0.343284D+00  0.207905D-01  0.177160D-01
     18 -0.162418D+00  0.857981D+00 -0.827738D-01 -0.403617D-02 -0.931526D-03
     19 -0.190824D-02  0.106012D+00 -0.238275D-02 -0.429520D-03  0.364641D-03
     20  0.636699D-01  0.101187D-03  0.126035D-01 -0.721169D-03 -0.102742D-03
     21  0.820529D-01  0.612675D-01  0.180842D-01 -0.109989D-02 -0.831571D-04
     22  0.453484D+00  0.898864D+00  0.189525D+00  0.157987D-01 -0.353524D-03
     23  0.354692D+00 -0.767301D+00  0.113564D+01  0.171999D+02 -0.635081D+00
     24 -0.384399D-01  0.107219D+01 -0.271501D-01 -0.909378D+00  0.222190D+00
     25  0.193375D+00  0.108058D+01  0.349869D-02  0.257873D+00  0.138201D+00
     26  0.518306D-01  0.291327D-01  0.796327D-02  0.505219D+00 -0.523122D-02
     27  0.100163D-01  0.545907D-01  0.298459D-02  0.140770D+01 -0.448155D-02
     28  0.199826D-01  0.584224D-01 -0.132000D-03  0.224307D+00 -0.786774D-02
     29 -0.137119D+00  0.169580D+02 -0.931395D+00 -0.133354D+00  0.118328D+01
     30  0.108320D+01 -0.868892D+00  0.194409D+00  0.635883D+00  0.672449D-02
     31  0.186270D+00 -0.488552D+00  0.124189D+00  0.104260D+01  0.210389D-01
                6             7             8             9            10 
      6  0.123400D+11
      7 -0.720019D+00  0.123400D+11
      8 -0.985958D-05  0.257750D-02  0.123400D+11
      9 -0.286920D-01  0.524338D+00  0.442892D+00  0.123400D+11
     10  0.772250D-02 -0.502317D-01 -0.474875D-02  0.315644D+02  0.123400D+11
     11  0.310256D-04 -0.305332D-03  0.650973D+01  0.798497D+00  0.115725D+00
     12 -0.878373D-04  0.100029D-05  0.480138D+00  0.434175D-01 -0.110860D-02
     13  0.501637D-03  0.285186D-03  0.670720D+00  0.277888D+00  0.502600D-02
     14  0.457762D-03 -0.272033D-04  0.244231D+00 -0.884502D-02  0.209609D-04
     15  0.339622D-03 -0.132133D-04  0.247700D+00 -0.522891D-02 -0.548005D-03
     16  0.184293D-04 -0.267676D-05  0.186420D+00  0.270689D-01 -0.786097D-03
     17 -0.202507D-02  0.311243D-01  0.977996D-01  0.261566D+02  0.367987D+00
     18 -0.209843D-03  0.399382D-02  0.756192D-01  0.127595D+02  0.105288D+00
     19 -0.190157D-03  0.392883D-02 -0.247030D-05  0.343756D+00 -0.975608D-02
     20 -0.304945D-04  0.790829D-04  0.557660D-02  0.272531D+00 -0.585662D-02
     21  0.254687D-05  0.638990D-04  0.270276D-02  0.466723D+00 -0.163661D-01
     22  0.119858D-02  0.583080D-02  0.608636D+00  0.576342D+01  0.402458D+00
     23 -0.569467D+00 -0.655896D+00 -0.205014D-01  0.462028D+00 -0.108510D-01
     24  0.842065D-01  0.427624D+00  0.432663D-01  0.117845D-03 -0.214040D-04
     25  0.119073D+01  0.528064D+00  0.178138D+01  0.105297D+00  0.150142D-01
     26 -0.595067D-02 -0.218778D-01  0.203462D+00  0.672791D-01 -0.226788D-02
     27  0.877289D-01 -0.259866D-02  0.916186D-01  0.654107D-02 -0.696175D-04
     28  0.746364D-02 -0.221531D-02  0.203782D+00  0.137439D-01  0.590857D-03
     29  0.476886D+00  0.929681D-01  0.258493D+00  0.804106D+00  0.414054D+00
     30 -0.161140D-01 -0.875443D-02  0.790887D-01  0.295659D+00 -0.114018D-01
     31  0.230932D-02 -0.190525D-01 -0.146930D-01  0.194227D+01 -0.221674D-01
               11            12            13            14            15 
     11  0.123400D+11
     12  0.311806D+02  0.123400D+11
     13  0.172512D+02  0.319703D+00  0.123400D+11
     14 -0.577084D+00  0.692100D-01  0.196665D+02  0.123400D+11
     15 -0.557536D+00  0.146570D+00  0.203066D+02 -0.733059D+00  0.123400D+11
     16 -0.383251D+00  0.287653D+00  0.182286D+02 -0.733066D+00 -0.759617D+00
     17 -0.755711D-01 -0.255791D-03 -0.123647D-01  0.147951D-02  0.120575D-02
     18  0.109317D-01  0.143056D-02  0.132887D-01  0.255098D-03  0.133438D-03
     19  0.437532D-02  0.329093D-05 -0.107813D-03 -0.955038D-05  0.423578D-05
     20 -0.714460D-03 -0.114096D-03 -0.272360D-03  0.544528D-04 -0.477129D-05
     21  0.210805D-01 -0.332617D-04  0.296495D-02  0.404673D-04 -0.745019D-04
     22  0.178931D+00 -0.165283D-02  0.130980D-01  0.225510D-02  0.590931D-03
     23  0.161442D-01  0.226601D-02 -0.134056D-02 -0.102213D-03  0.306560D-03
     24  0.412497D-02  0.375674D-04  0.211875D-03  0.269198D-03 -0.220135D-03
     25  0.241012D+00 -0.602335D-02  0.821634D-03  0.137230D-01  0.359841D-02
     26 -0.895248D-02  0.374670D-03  0.128801D-02  0.616856D-03  0.183566D-03
     27  0.537401D-01  0.000000D+00  0.159650D-01  0.911787D-02  0.148033D-02
     28  0.352859D-01 -0.126568D-02  0.252660D-02  0.216520D-02  0.109542D-02
     29  0.891977D-01 -0.240775D-01 -0.121339D+00  0.651730D-01  0.105305D+00
     30 -0.466050D-01 -0.493574D-02 -0.425337D-02  0.102990D-02  0.227883D-02
     31  0.104434D+00 -0.178420D-01  0.730569D-03 -0.349146D-03  0.209476D-03
               16            17            18            19            20 
     16  0.123400D+11
     17  0.408726D-04  0.123400D+11
     18  0.277647D-03  0.273370D+02  0.123400D+11
     19  0.571727D-05 -0.757513D+00  0.170488D+02  0.123400D+11
     20  0.133259D-03 -0.118870D+01  0.177704D+02 -0.729155D+00  0.123400D+11
     21  0.359285D-03 -0.120033D+01  0.180924D+02 -0.733904D+00 -0.922838D+00
     22  0.137021D-02 -0.946231D+01  0.378489D+01  0.831875D+00  0.434920D+00
     23 -0.410708D-03 -0.610667D-01  0.221351D-01 -0.117842D-02 -0.119014D-02
     24  0.217333D-04  0.126724D-01 -0.271904D-03  0.132026D-02  0.605848D-03
     25  0.219891D-02  0.111741D-01 -0.241307D-02 -0.168354D-03  0.539935D-03
     26  0.166872D-03  0.630192D-02  0.247085D-03  0.482071D-04 -0.126350D-04
     27  0.992153D-03  0.169828D-03  0.144780D-03  0.115042D-04 -0.349257D-04
     28  0.325595D-03  0.600988D-03 -0.142572D-03 -0.143189D-04  0.316601D-04
     29  0.296056D-02  0.139257D+01 -0.325523D-01 -0.181819D-02  0.182893D-01
     30  0.327743D-03 -0.248038D-01  0.485968D-02  0.771696D-04 -0.667234D-03
     31  0.644537D-03  0.107594D+00  0.660308D-01  0.279988D-03  0.249778D-02
               21            22            23            24            25 
     21  0.123400D+11
     22  0.442869D+00  0.123400D+11
     23 -0.640075D-03  0.110923D+00  0.123400D+11
     24 -0.480843D-04  0.105020D-01  0.167845D+02  0.123400D+11
     25  0.620212D-03  0.292519D-01  0.169627D+02 -0.924213D+00  0.123400D+11
     26  0.124256D-03 -0.116437D-02 -0.772551D+00  0.427625D+00  0.178392D+02
     27  0.100466D-03  0.111301D-02 -0.551081D+00  0.104976D+00  0.171329D+02
     28  0.873008D-04 -0.260058D-03 -0.662275D+00  0.184999D+00  0.168560D+02
     29 -0.646040D-02  0.147779D+00  0.171714D+02 -0.924346D+00 -0.134621D+00
     30 -0.483576D-03 -0.908142D-03 -0.611962D+00  0.514023D-01  0.918383D+00
     31 -0.208280D-02 -0.194412D-02 -0.674966D+00  0.270263D+00  0.446200D-01
               26            27            28            29            30 
     26  0.123400D+11
     27 -0.779541D+00  0.123400D+11
     28 -0.838351D+00 -0.829192D+00  0.123400D+11
     29  0.243180D+00  0.270726D+00  0.123925D+01  0.123400D+11
     30 -0.139187D-01 -0.124373D-02  0.305521D-01  0.176262D+02  0.123400D+11
     31 -0.443408D-02 -0.122331D-01 -0.176830D-01  0.167138D+02 -0.910222D+00
               31 
     31  0.123400D+11
 Fermi Contact (FC) contribution to J (Hz):
                1             2             3             4             5 
      1  0.243533D+11
      2  0.532170D+02  0.243533D+11
      3 -0.957553D+01  0.146184D+03  0.385007D+12
      4  0.480509D-01 -0.693931D-01 -0.611986D-01  0.243533D+11
      5 -0.603434D-02 -0.123274D+00  0.439871D+00  0.137337D+03  0.385007D+12
      6  0.268156D-01 -0.671268D-01  0.111991D-01  0.137598D+03 -0.243678D+02
      7  0.271315D-01  0.388832D-01  0.221907D+00  0.128233D+03 -0.257654D+02
      8  0.100955D+02 -0.299277D+01 -0.163073D+01 -0.518349D-02  0.160478D-02
      9  0.828681D-01  0.105698D+02 -0.182878D+01  0.334036D+00  0.343053D+00
     10 -0.232477D+00  0.178513D+01  0.760791D+01 -0.124916D+01 -0.778606D+00
     11  0.163196D+02  0.766716D+01  0.217253D+00  0.294089D-01  0.628158D-02
     12  0.372378D+01  0.615083D+00 -0.703500D+00 -0.210687D-01 -0.839739D-02
     13 -0.790661D+00  0.198723D+01 -0.223855D+00 -0.396434D-02  0.597412D-03
     14  0.144214D+01 -0.682375D+00  0.812861D+00  0.687695D-02  0.158025D-03
     15  0.150442D+01 -0.627984D+00  0.513635D+00  0.102442D-01  0.721000D-02
     16  0.747934D+01 -0.154140D+00  0.297334D-04  0.713867D-02  0.630446D-03
     17  0.141993D+00 -0.108990D+01  0.269372D+01  0.410305D-01  0.139015D+00
     18 -0.320537D+00  0.169325D+01 -0.649518D+00 -0.796549D-02 -0.730959D-02
     19 -0.149738D-01  0.831865D+00 -0.743418D-01 -0.337040D-02  0.113768D-01
     20  0.499611D+00  0.794004D-03  0.393228D+00 -0.565895D-02 -0.320554D-02
     21  0.643861D+00  0.480760D+00  0.564225D+00 -0.863075D-02 -0.259450D-02
     22 -0.482589D+00 -0.956554D+00 -0.801933D+00 -0.168127D-01  0.149586D-02
     23  0.699994D+00 -0.151429D+01  0.891129D+01  0.339445D+02 -0.498342D+01
     24 -0.301634D+00  0.841335D+01 -0.847083D+00 -0.713580D+01  0.693232D+01
     25  0.381630D+00  0.213255D+01  0.274539D-01  0.508918D+00  0.108445D+01
     26  0.406710D+00  0.228602D+00  0.248454D+00  0.396441D+01 -0.163214D+00
     27  0.785968D-01  0.428368D+00  0.931191D-01  0.110461D+02 -0.139824D+00
     28  0.156801D+00  0.458435D+00 -0.411841D-02  0.176012D+01 -0.245473D+00
     29 -0.270608D+00  0.334670D+02 -0.730857D+01 -0.263178D+00  0.928510D+01
     30  0.849975D+01 -0.681811D+01  0.606555D+01  0.498971D+01  0.209804D+00
     31  0.146164D+01 -0.383362D+01  0.387469D+01  0.818119D+01  0.656413D+00
                6             7             8             9            10 
      6  0.385007D+12
      7 -0.224646D+02  0.385007D+12
      8  0.417186D-04 -0.109061D-01  0.708114D+10
      9 -0.647087D-01  0.118253D+01 -0.135462D+00  0.201170D+10
     10  0.240942D+00 -0.156723D+01  0.200932D-01  0.711868D+02  0.385007D+12
     11  0.699714D-04 -0.688609D-03 -0.199105D+01  0.130173D+00  0.260993D+00
     12 -0.274052D-02  0.312089D-04 -0.203159D+01  0.979187D-01 -0.345883D-01
     13  0.393630D-02  0.223783D-02 -0.713768D+00  0.157622D+00  0.394385D-01
     14  0.142821D-01 -0.848741D-03 -0.103341D+01 -0.199480D-01  0.653981D-03
     15  0.105962D-01 -0.412254D-03 -0.104809D+01 -0.117927D-01 -0.170977D-01
     16  0.574995D-03 -0.835148D-04 -0.788792D+00  0.610481D-01 -0.245262D-01
     17 -0.158905D-01  0.244229D+00 -0.104076D+00  0.148364D+02  0.288756D+01
     18 -0.164661D-02  0.313391D-01 -0.804725D-01  0.723733D+01  0.826186D+00
     19 -0.593288D-02  0.122579D+00  0.104525D-04  0.775267D+00 -0.304389D+00
     20 -0.951426D-03  0.246738D-02 -0.235961D-01  0.614634D+00 -0.182726D+00
     21  0.794624D-04  0.199365D-02 -0.114361D-01  0.105259D+01 -0.510621D+00
     22 -0.507151D-02 -0.246717D-01  0.349258D+00 -0.176278D+01 -0.170291D+01
     23 -0.446855D+01 -0.514675D+01  0.218172D-01  0.262068D+00 -0.851469D-01
     24  0.262724D+01  0.133418D+02 -0.183072D+00  0.265775D-03 -0.667804D-03
     25  0.934353D+01  0.414367D+01 -0.189571D+01  0.597258D-01  0.117815D+00
     26 -0.185660D+00 -0.682587D+00 -0.860902D+00  0.151734D+00 -0.707578D-01
     27  0.273714D+01 -0.810780D-01 -0.387663D+00  0.147520D-01 -0.217206D-02
     28  0.232865D+00 -0.691176D-01 -0.862259D+00  0.309964D-01  0.184347D-01
     29  0.374208D+01  0.729512D+00 -0.275083D+00  0.456099D+00  0.324904D+01
     30 -0.502758D+00 -0.273138D+00 -0.334646D+00  0.666795D+00 -0.355735D+00
     31  0.720507D-01 -0.594436D+00  0.621701D-01  0.438038D+01 -0.691621D+00
               11            12            13            14            15 
     11  0.201170D+10
     12  0.703212D+02  0.385007D+12
     13  0.978509D+01  0.250868D+01  0.243533D+11
     14 -0.130149D+01  0.215935D+01  0.154321D+03  0.385007D+12
     15 -0.125740D+01  0.457296D+01  0.159344D+03 -0.228714D+02  0.385007D+12
     16 -0.864340D+00  0.897477D+01  0.143038D+03 -0.228716D+02 -0.237000D+02
     17 -0.428649D-01 -0.200716D-02 -0.244021D-01  0.116096D-01  0.946143D-02
     18  0.620058D-02  0.112255D-01  0.262256D-01  0.200173D-02  0.104708D-02
     19  0.986758D-02  0.102677D-03 -0.845997D-03 -0.297971D-03  0.132156D-03
     20 -0.161131D-02 -0.355979D-02 -0.213718D-02  0.169892D-02 -0.148864D-03
     21  0.475424D-01 -0.103776D-02  0.232657D-01  0.126258D-02 -0.232445D-02
     22 -0.547273D-01  0.699359D-02 -0.139386D-01 -0.954196D-02 -0.250039D-02
     23  0.915720D-02  0.177812D-01 -0.264563D-02 -0.802053D-03  0.240555D-02
     24  0.930298D-02  0.117210D-02  0.166256D-02  0.839898D-02 -0.686820D-02
     25  0.136705D+00 -0.472647D-01  0.162152D-02  0.107683D+00  0.282364D-01
     26 -0.201904D-01  0.116897D-01  0.101069D-01  0.192459D-01  0.572726D-02
     27  0.121199D+00 -0.176388D-05  0.125276D+00  0.284477D+00  0.461862D-01
     28  0.795797D-01 -0.394891D-01  0.198260D-01  0.675540D-01  0.341771D-01
     29  0.505941D-01 -0.188934D+00 -0.239466D+00  0.511406D+00  0.826319D+00
     30 -0.105108D+00 -0.153995D+00 -0.333758D-01  0.321329D-01  0.710994D-01
     31  0.235529D+00 -0.556671D+00  0.573270D-02 -0.108933D-01  0.653564D-02
               16            17            18            19            20 
     16  0.385007D+12
     17  0.320723D-03  0.243533D+11
     18  0.217867D-02  0.539502D+02  0.243533D+11
     19  0.178379D-03 -0.594413D+01  0.133780D+03  0.385007D+12
     20  0.415769D-02 -0.932760D+01  0.139442D+03 -0.227496D+02  0.385007D+12
     21  0.112097D-01 -0.941885D+01  0.141969D+03 -0.228978D+02 -0.287925D+02
     22 -0.579775D-02  0.100696D+02 -0.402780D+01 -0.351989D+01 -0.184027D+01
     23 -0.322279D-02 -0.120517D+00  0.436841D-01 -0.924691D-02 -0.933889D-02
     24  0.678079D-03  0.994390D-01 -0.213361D-02  0.411921D-01  0.189024D-01
     25  0.172546D-01  0.220524D-01 -0.476225D-02 -0.132106D-02  0.423682D-02
     26  0.520639D-02  0.494506D-01  0.193885D-02  0.150406D-02 -0.394211D-03
     27  0.309551D-01  0.133263D-02  0.113608D-02  0.358930D-03 -0.108968D-02
     28  0.101585D-01  0.471589D-02 -0.111875D-02 -0.446749D-03  0.987792D-03
     29  0.232312D-01  0.274827D+01 -0.642427D-01 -0.142672D-01  0.143514D+00
     30  0.102256D-01 -0.194633D+00  0.381334D-01  0.240769D-02 -0.208177D-01
     31  0.201095D-01  0.844281D+00  0.518137D+00  0.873563D-02  0.779305D-01
               21            22            23            24            25 
     21  0.385007D+12
     22 -0.187390D+01  0.708114D+10
     23 -0.502261D-02 -0.118042D+00  0.243533D+11
     24 -0.150023D-02 -0.444369D-01  0.131706D+03  0.385007D+12
     25  0.486674D-02 -0.311293D-01  0.334764D+02 -0.725221D+01  0.243533D+11
     26  0.387679D-02  0.492678D-02 -0.606213D+01  0.133419D+02  0.139982D+03
     27  0.313452D-02 -0.470946D-02 -0.432428D+01  0.327525D+01  0.134440D+03
     28  0.272378D-02  0.110038D-02 -0.519681D+01  0.577197D+01  0.132268D+03
     29 -0.506942D-01 -0.157263D+00  0.338881D+02 -0.725325D+01 -0.265678D+00
     30 -0.150876D-01  0.384260D-02 -0.480201D+01  0.160375D+01  0.720647D+01
     31 -0.649832D-01  0.822610D-02 -0.529639D+01  0.843220D+01  0.350129D+00
               26            27            28            29            30 
     26  0.385007D+12
     27 -0.243216D+02  0.385007D+12
     28 -0.261565D+02 -0.258707D+02  0.385007D+12
     29  0.190821D+01  0.212436D+01  0.972426D+01  0.243533D+11
     30 -0.434264D+00 -0.388042D-01  0.953223D+00  0.138311D+03  0.385007D+12
     31 -0.138343D+00 -0.381672D+00 -0.551708D+00  0.131152D+03 -0.283989D+02
               31 
     31  0.385007D+12
 End of Minotr F.D. properties file   721 does not exist.
 End of Minotr F.D. properties file   722 does not exist.
 End of Minotr F.D. properties file   788 does not exist.
 Leave Link 1002 at Wed Jun 18 09:14:29 2014, MaxMem=  4294967296 cpu:    386499.9
 (Enter /home/ztw1e12/g09/l601.exe)
 Copying SCF densities to generalized density rwf, IOpCl= 0 IROHF=0.

 **********************************************************************

            Population analysis using the SCF density.

 **********************************************************************

 Orbital symmetries:
       Occupied  (A) (A) (A) (A) (A) (A) (A) (A) (A) (A) (A) (A)
                 (A) (A) (A) (A) (A) (A) (A) (A) (A) (A) (A) (A)
                 (A) (A) (A) (A) (A) (A) (A) (A) (A) (A) (A) (A)
                 (A) (A) (A) (A) (A) (A) (A) (A) (A) (A) (A) (A)
                 (A) (A) (A)
       Virtual   (A) (A) (A) (A) (A) (A) (A) (A) (A) (A) (A) (A)
                 (A) (A) (A) (A) (A) (A) (A) (A) (A) (A) (A) (A)
                 (A) (A) (A) (A) (A) (A) (A) (A) (A) (A) (A) (A)
                 (A) (A) (A) (A) (A) (A) (A) (A) (A) (A) (A) (A)
                 (A) (A) (A) (A) (A) (A) (A) (A) (A) (A) (A) (A)
                 (A) (A) (A) (A) (A) (A) (A) (A) (A) (A) (A) (A)
                 (A) (A) (A) (A) (A) (A) (A) (A) (A) (A) (A) (A)
                 (A) (A) (A) (A) (A) (A) (A) (A) (A) (A) (A) (A)
                 (A) (A) (A) (A) (A) (A) (A) (A) (A) (A) (A) (A)
                 (A) (A) (A) (A) (A) (A) (A) (A) (A) (A) (A) (A)
                 (A) (A) (A) (A) (A) (A) (A) (A) (A) (A) (A) (A)
                 (A) (A) (A) (A) (A) (A) (A) (A) (A) (A) (A) (A)
                 (A) (A) (A) (A) (A) (A) (A) (A) (A) (A) (A) (A)
                 (A) (A) (A) (A) (A) (A) (A) (A) (A) (A) (A) (A)
                 (A) (A) (A) (A) (A) (A) (A) (A) (A) (A) (A) (A)
                 (A) (A) (A) (A) (A) (A) (A) (A) (A) (A) (A) (A)
                 (A) (A) (A) (A) (A) (A) (A) (A) (A) (A) (A) (A)
                 (A) (A) (A) (A) (A) (A) (A) (A) (A) (A) (A) (A)
                 (A) (A) (A) (A) (A) (A) (A) (A) (A) (A) (A) (A)
                 (A) (A) (A) (A) (A) (A) (A) (A) (A) (A) (A) (A)
                 (A) (A) (A) (A) (A) (A) (A) (A) (A) (A) (A) (A)
                 (A) (A) (A) (A) (A) (A) (A) (A) (A) (A) (A) (A)
                 (A) (A) (A) (A) (A) (A) (A) (A) (A) (A) (A) (A)
                 (A) (A) (A) (A) (A) (A) (A) (A) (A) (A) (A) (A)
                 (A) (A) (A) (A) (A) (A) (A) (A) (A) (A) (A) (A)
                 (A) (A) (A) (A) (A) (A) (A) (A) (A) (A) (A) (A)
                 (A) (A) (A) (A) (A) (A) (A) (A) (A) (A) (A) (A)
                 (A) (A) (A) (A) (A) (A) (A) (A) (A) (A) (A) (A)
                 (A) (A) (A) (A) (A) (A) (A) (A) (A) (A) (A) (A)
                 (A) (A) (A) (A) (A) (A) (A) (A) (A) (A) (A) (A)
                 (A) (A) (A) (A) (A) (A) (A) (A) (A) (A) (A) (A)
                 (A) (A) (A) (A) (A) (A) (A) (A) (A) (A) (A) (A)
                 (A) (A) (A) (A) (A) (A) (A) (A) (A) (A) (A) (A)
                 (A) (A) (A) (A) (A) (A) (A) (A) (A) (A) (A) (A)
                 (A) (A) (A) (A) (A) (A) (A) (A) (A) (A) (A) (A)
                 (A) (A) (A) (A) (A) (A) (A) (A) (A) (A) (A) (A)
                 (A) (A) (A) (A) (A) (A) (A) (A) (A) (A) (A) (A)
                 (A) (A) (A) (A) (A) (A) (A) (A) (A) (A) (A) (A)
                 (A) (A) (A) (A) (A) (A) (A) (A) (A) (A) (A) (A)
                 (A) (A) (A) (A) (A) (A) (A) (A) (A) (A) (A) (A)
                 (A) (A) (A) (A) (A) (A) (A) (A) (A) (A) (A) (A)
                 (A) (A) (A) (A) (A) (A) (A) (A) (A) (A) (A) (A)
                 (A) (A) (A) (A) (A) (A) (A) (A) (A) (A) (A) (A)
                 (A) (A) (A) (A) (A) (A) (A) (A) (A) (A) (A) (A)
                 (A) (A) (A) (A) (A) (A) (A) (A) (A) (A) (A) (A)
                 (A) (A) (A) (A) (A) (A) (A) (A) (A) (A) (A) (A)
                 (A) (A) (A) (A) (A) (A) (A) (A) (A) (A) (A) (A)
                 (A) (A) (A) (A) (A) (A) (A) (A) (A) (A) (A) (A)
                 (A) (A) (A) (A) (A) (A) (A) (A) (A) (A) (A) (A)
                 (A) (A) (A) (A) (A) (A) (A) (A) (A) (A) (A) (A)
                 (A) (A) (A) (A) (A) (A) (A) (A) (A) (A) (A) (A)
                 (A) (A) (A) (A) (A) (A) (A) (A) (A) (A) (A) (A)
                 (A) (A) (A) (A) (A) (A) (A) (A) (A) (A) (A) (A)
                 (A) (A) (A) (A) (A) (A) (A) (A) (A) (A) (A) (A)
                 (A) (A) (A) (A) (A) (A) (A) (A) (A) (A) (A) (A)
                 (A) (A) (A) (A) (A) (A) (A) (A) (A) (A) (A) (A)
                 (A) (A) (A) (A) (A) (A) (A) (A) (A) (A) (A) (A)
                 (A) (A) (A) (A) (A) (A) (A) (A) (A) (A) (A) (A)
                 (A) (A) (A) (A) (A) (A) (A) (A) (A) (A) (A) (A)
                 (A) (A) (A) (A) (A) (A) (A) (A) (A) (A) (A) (A)
                 (A) (A) (A) (A) (A) (A) (A) (A) (A) (A) (A) (A)
                 (A) (A) (A) (A) (A) (A) (A) (A) (A) (A) (A) (A)
                 (A) (A) (A) (A) (A) (A) (A) (A) (A) (A) (A) (A)
                 (A) (A) (A) (A) (A) (A) (A) (A) (A) (A) (A) (A)
                 (A) (A) (A) (A) (A) (A) (A) (A) (A) (A) (A) (A)
                 (A) (A) (A) (A) (A) (A) (A) (A) (A) (A) (A) (A)
                 (A) (A) (A) (A) (A) (A) (A) (A) (A) (A) (A) (A)
                 (A) (A) (A) (A) (A) (A) (A) (A) (A) (A) (A) (A)
                 (A) (A) (A) (A) (A) (A) (A) (A) (A) (A) (A) (A)
                 (A) (A) (A) (A) (A) (A) (A) (A) (A) (A) (A) (A)
                 (A) (A) (A) (A) (A) (A) (A) (A) (A) (A) (A) (A)
                 (A) (A) (A) (A) (A) (A) (A) (A) (A) (A) (A) (A)
                 (A) (A) (A) (A) (A) (A) (A) (A) (A) (A) (A) (A)
                 (A) (A) (A) (A) (A)
 The electronic state is 1-A.
 Alpha  occ. eigenvalues --  -19.17103 -19.16160 -14.41848 -14.41104 -10.33418
 Alpha  occ. eigenvalues --  -10.33082 -10.29111 -10.27201 -10.25760 -10.25680
 Alpha  occ. eigenvalues --  -10.24201 -10.23549 -10.22913  -1.05319  -1.03865
 Alpha  occ. eigenvalues --   -0.94281  -0.94011  -0.83835  -0.78552  -0.74211
 Alpha  occ. eigenvalues --   -0.72085  -0.70540  -0.66667  -0.60748  -0.59658
 Alpha  occ. eigenvalues --   -0.58123  -0.54872  -0.50149  -0.49341  -0.47755
 Alpha  occ. eigenvalues --   -0.47310  -0.47069  -0.45411  -0.45247  -0.44544
 Alpha  occ. eigenvalues --   -0.42676  -0.42071  -0.40821  -0.40472  -0.40106
 Alpha  occ. eigenvalues --   -0.39492  -0.38634  -0.38248  -0.36414  -0.35480
 Alpha  occ. eigenvalues --   -0.34820  -0.33074  -0.28144  -0.27448  -0.26193
 Alpha  occ. eigenvalues --   -0.25680
 Alpha virt. eigenvalues --    0.00917   0.02391   0.02725   0.03657   0.04259
 Alpha virt. eigenvalues --    0.04994   0.06732   0.07029   0.07973   0.08357
 Alpha virt. eigenvalues --    0.09260   0.09948   0.11585   0.11862   0.12056
 Alpha virt. eigenvalues --    0.12490   0.13167   0.14050   0.14308   0.15138
 Alpha virt. eigenvalues --    0.15995   0.17590   0.18564   0.19685   0.20146
 Alpha virt. eigenvalues --    0.21248   0.22251   0.22940   0.24473   0.24817
 Alpha virt. eigenvalues --    0.25492   0.26184   0.26992   0.27155   0.27739
 Alpha virt. eigenvalues --    0.28440   0.28931   0.29649   0.30367   0.31442
 Alpha virt. eigenvalues --    0.32356   0.34250   0.34652   0.34922   0.35347
 Alpha virt. eigenvalues --    0.36856   0.37249   0.38337   0.38515   0.38605
 Alpha virt. eigenvalues --    0.39608   0.40350   0.40700   0.41133   0.41329
 Alpha virt. eigenvalues --    0.41881   0.42405   0.42841   0.43248   0.43490
 Alpha virt. eigenvalues --    0.43655   0.44579   0.45074   0.45308   0.45992
 Alpha virt. eigenvalues --    0.46096   0.46536   0.47510   0.48497   0.49179
 Alpha virt. eigenvalues --    0.49546   0.50870   0.51309   0.52055   0.52462
 Alpha virt. eigenvalues --    0.52854   0.54094   0.55044   0.55990   0.57144
 Alpha virt. eigenvalues --    0.57670   0.59703   0.60270   0.61979   0.62206
 Alpha virt. eigenvalues --    0.63239   0.63546   0.64609   0.65594   0.69098
 Alpha virt. eigenvalues --    0.69185   0.70251   0.71356   0.73196   0.74048
 Alpha virt. eigenvalues --    0.74794   0.75631   0.76739   0.77639   0.78035
 Alpha virt. eigenvalues --    0.79956   0.80287   0.81439   0.82843   0.83168
 Alpha virt. eigenvalues --    0.84111   0.85007   0.85342   0.86649   0.87412
 Alpha virt. eigenvalues --    0.87948   0.88672   0.89715   0.91023   0.91890
 Alpha virt. eigenvalues --    0.93330   0.93828   0.94018   0.94293   0.95824
 Alpha virt. eigenvalues --    0.96735   0.96816   0.97451   0.97697   0.97923
 Alpha virt. eigenvalues --    0.99074   0.99826   1.00582   1.01870   1.02815
 Alpha virt. eigenvalues --    1.03310   1.03860   1.04708   1.05442   1.06107
 Alpha virt. eigenvalues --    1.07137   1.08588   1.08793   1.09431   1.09987
 Alpha virt. eigenvalues --    1.10995   1.11645   1.12374   1.12906   1.14009
 Alpha virt. eigenvalues --    1.15773   1.16107   1.16346   1.17116   1.17920
 Alpha virt. eigenvalues --    1.18343   1.19715   1.19971   1.21172   1.21644
 Alpha virt. eigenvalues --    1.22333   1.22912   1.23442   1.23669   1.24568
 Alpha virt. eigenvalues --    1.24613   1.24664   1.25420   1.25981   1.26397
 Alpha virt. eigenvalues --    1.27263   1.27652   1.28246   1.29329   1.29788
 Alpha virt. eigenvalues --    1.30651   1.31141   1.31480   1.32732   1.33474
 Alpha virt. eigenvalues --    1.33776   1.34213   1.35313   1.36190   1.36934
 Alpha virt. eigenvalues --    1.38028   1.38515   1.40053   1.41057   1.41923
 Alpha virt. eigenvalues --    1.43691   1.44376   1.45416   1.46419   1.47946
 Alpha virt. eigenvalues --    1.50384   1.51223   1.53369   1.55162   1.56871
 Alpha virt. eigenvalues --    1.58059   1.59725   1.61400   1.62223   1.64427
 Alpha virt. eigenvalues --    1.67060   1.67660   1.70226   1.72277   1.72850
 Alpha virt. eigenvalues --    1.73932   1.77134   1.78032   1.78209   1.81710
 Alpha virt. eigenvalues --    1.83812   1.87520   1.89867   1.91608   1.93317
 Alpha virt. eigenvalues --    1.94187   1.95341   1.96664   1.98640   1.99393
 Alpha virt. eigenvalues --    2.01112   2.03070   2.05182   2.06786   2.08332
 Alpha virt. eigenvalues --    2.09382   2.10660   2.11977   2.13772   2.16457
 Alpha virt. eigenvalues --    2.17020   2.19170   2.20052   2.22169   2.22795
 Alpha virt. eigenvalues --    2.24152   2.26028   2.26493   2.28492   2.30489
 Alpha virt. eigenvalues --    2.31793   2.35437   2.36423   2.37754   2.38315
 Alpha virt. eigenvalues --    2.39700   2.40830   2.41471   2.43190   2.43764
 Alpha virt. eigenvalues --    2.45043   2.45969   2.46411   2.48844   2.50194
 Alpha virt. eigenvalues --    2.50506   2.51961   2.53911   2.54935   2.55726
 Alpha virt. eigenvalues --    2.57211   2.57523   2.57623   2.60381   2.63102
 Alpha virt. eigenvalues --    2.65258   2.66068   2.68112   2.68374   2.69145
 Alpha virt. eigenvalues --    2.69657   2.71018   2.72073   2.73002   2.73435
 Alpha virt. eigenvalues --    2.74650   2.74916   2.76338   2.76719   2.78353
 Alpha virt. eigenvalues --    2.79021   2.79703   2.80902   2.82281   2.83449
 Alpha virt. eigenvalues --    2.84164   2.85139   2.85921   2.86458   2.87948
 Alpha virt. eigenvalues --    2.88277   2.88864   2.89257   2.90330   2.91555
 Alpha virt. eigenvalues --    2.92686   2.93025   2.93592   2.94200   2.95036
 Alpha virt. eigenvalues --    2.96433   2.96736   2.97757   2.98476   2.98631
 Alpha virt. eigenvalues --    2.99373   2.99685   3.01210   3.01969   3.03592
 Alpha virt. eigenvalues --    3.04198   3.04314   3.04471   3.05385   3.06316
 Alpha virt. eigenvalues --    3.06867   3.07908   3.08325   3.09316   3.10207
 Alpha virt. eigenvalues --    3.11118   3.11888   3.13006   3.13267   3.14285
 Alpha virt. eigenvalues --    3.16808   3.17450   3.19130   3.19669   3.21055
 Alpha virt. eigenvalues --    3.21164   3.22097   3.22947   3.23585   3.24931
 Alpha virt. eigenvalues --    3.26085   3.26449   3.27590   3.28326   3.28988
 Alpha virt. eigenvalues --    3.29227   3.29688   3.30136   3.31676   3.31855
 Alpha virt. eigenvalues --    3.33350   3.33852   3.34571   3.35713   3.36264
 Alpha virt. eigenvalues --    3.36761   3.38005   3.39029   3.39586   3.39949
 Alpha virt. eigenvalues --    3.40432   3.41983   3.42732   3.43414   3.43786
 Alpha virt. eigenvalues --    3.44588   3.45004   3.45531   3.46836   3.47853
 Alpha virt. eigenvalues --    3.48809   3.50057   3.50412   3.52235   3.53374
 Alpha virt. eigenvalues --    3.55148   3.56227   3.56576   3.58662   3.58982
 Alpha virt. eigenvalues --    3.59958   3.61066   3.62600   3.63320   3.64472
 Alpha virt. eigenvalues --    3.66127   3.67542   3.68279   3.68828   3.70781
 Alpha virt. eigenvalues --    3.71924   3.73010   3.73809   3.74166   3.75807
 Alpha virt. eigenvalues --    3.77067   3.77317   3.78148   3.80104   3.80779
 Alpha virt. eigenvalues --    3.81184   3.81753   3.83226   3.83890   3.86289
 Alpha virt. eigenvalues --    3.86807   3.87398   3.87879   3.87968   3.90046
 Alpha virt. eigenvalues --    3.91448   3.92948   3.93440   3.94243   3.94848
 Alpha virt. eigenvalues --    3.95457   3.96036   3.96910   3.98285   3.99091
 Alpha virt. eigenvalues --    4.00934   4.02496   4.03454   4.03592   4.05471
 Alpha virt. eigenvalues --    4.06617   4.06935   4.07327   4.08854   4.10913
 Alpha virt. eigenvalues --    4.11980   4.12136   4.12763   4.14032   4.15060
 Alpha virt. eigenvalues --    4.15202   4.16126   4.17556   4.18210   4.19467
 Alpha virt. eigenvalues --    4.20611   4.21403   4.21929   4.23537   4.24944
 Alpha virt. eigenvalues --    4.25901   4.26142   4.27163   4.28566   4.29319
 Alpha virt. eigenvalues --    4.30089   4.31823   4.33148   4.34680   4.36913
 Alpha virt. eigenvalues --    4.37469   4.38057   4.39709   4.40822   4.42869
 Alpha virt. eigenvalues --    4.43879   4.45818   4.46864   4.47628   4.49727
 Alpha virt. eigenvalues --    4.50047   4.51035   4.52983   4.55604   4.56426
 Alpha virt. eigenvalues --    4.57477   4.57938   4.59301   4.60755   4.61300
 Alpha virt. eigenvalues --    4.61523   4.62301   4.63484   4.64564   4.65627
 Alpha virt. eigenvalues --    4.66462   4.67585   4.69395   4.71484   4.72746
 Alpha virt. eigenvalues --    4.73939   4.75034   4.75455   4.76892   4.78004
 Alpha virt. eigenvalues --    4.78406   4.79062   4.79872   4.81081   4.82738
 Alpha virt. eigenvalues --    4.84792   4.87302   4.88394   4.91350   4.92037
 Alpha virt. eigenvalues --    4.93130   4.93498   4.95193   4.95544   4.97333
 Alpha virt. eigenvalues --    4.98127   4.99578   5.00029   5.02110   5.03384
 Alpha virt. eigenvalues --    5.04064   5.04704   5.06231   5.07251   5.08600
 Alpha virt. eigenvalues --    5.11463   5.12916   5.13793   5.14172   5.14948
 Alpha virt. eigenvalues --    5.16428   5.18085   5.19010   5.19562   5.20752
 Alpha virt. eigenvalues --    5.21851   5.22652   5.23153   5.24283   5.25127
 Alpha virt. eigenvalues --    5.25847   5.27154   5.29727   5.30879   5.31140
 Alpha virt. eigenvalues --    5.31967   5.33051   5.37206   5.37684   5.38967
 Alpha virt. eigenvalues --    5.42669   5.44359   5.45118   5.47038   5.49938
 Alpha virt. eigenvalues --    5.51315   5.52894   5.56746   5.59341   5.59895
 Alpha virt. eigenvalues --    5.60951   5.62591   5.63311   5.65186   5.65790
 Alpha virt. eigenvalues --    5.66924   5.68642   5.69445   5.71232   5.73214
 Alpha virt. eigenvalues --    5.74339   5.75971   5.76325   5.78759   5.80559
 Alpha virt. eigenvalues --    5.81957   5.83736   5.84094   5.86201   5.88036
 Alpha virt. eigenvalues --    5.89893   5.92709   5.97542   6.03635   6.06358
 Alpha virt. eigenvalues --    6.13082   6.19203   6.20789   6.23867   6.28118
 Alpha virt. eigenvalues --    6.51497   6.52948   6.58304   6.62412   6.64901
 Alpha virt. eigenvalues --    6.65963   6.77921   6.83298   6.90599   6.92385
 Alpha virt. eigenvalues --    6.94594   6.95773   7.19269   7.19801   7.23911
 Alpha virt. eigenvalues --    7.28583   8.14124   8.31290   8.66870   8.73949
 Alpha virt. eigenvalues --    8.78248   8.78819   8.80309   8.83068   8.83586
 Alpha virt. eigenvalues --    8.85505   8.87489   8.88788   8.90379   8.91446
 Alpha virt. eigenvalues --    8.92397   8.95445   8.96680   8.98704   9.02814
 Alpha virt. eigenvalues --    9.04182   9.09741   9.11095   9.14642   9.16938
 Alpha virt. eigenvalues --    9.23845   9.60384   9.62476   9.77422   9.83717
 Alpha virt. eigenvalues --    9.90131   9.95064  10.09665  10.11644  10.15223
 Alpha virt. eigenvalues --   10.18103  10.19440  10.20273  10.21876  10.22987
 Alpha virt. eigenvalues --   10.27347  10.30119  10.31605  10.33402  10.38927
 Alpha virt. eigenvalues --   10.42724  11.75558  11.81997  12.04157  12.14198
 Alpha virt. eigenvalues --   12.18524  12.18851  12.24595  12.25995  12.29619
 Alpha virt. eigenvalues --   12.37068  12.48027  12.56050  12.63084  12.83833
 Alpha virt. eigenvalues --   12.93883  14.97457  15.03823  15.24376  15.27859
 Alpha virt. eigenvalues --   16.00276  16.05017  16.84805  16.93113  22.01335
 Alpha virt. eigenvalues --   22.10975  40.17755  40.28098  40.66624  40.68361
 Alpha virt. eigenvalues --   40.70394  40.70949  40.71414  40.74816  40.76492
 Alpha virt. eigenvalues --   40.77721  40.80273  40.80933  40.81908  40.82545
 Alpha virt. eigenvalues --   40.82763  40.84347  40.85099  40.85377  40.86302
 Alpha virt. eigenvalues --   40.87050  40.87465  40.89047  40.90506  40.90861
 Alpha virt. eigenvalues --   40.91389  40.91848  40.94472  46.34192  46.45376
 Alpha virt. eigenvalues --   46.49409  46.51965  46.56807  46.58058  46.61781
 Alpha virt. eigenvalues --   46.71744  46.80851  54.46646  54.56203  55.78083
 Alpha virt. eigenvalues --   55.84602  55.97094  55.97640  56.07145  56.17871
 Alpha virt. eigenvalues --   56.18256  56.19933  56.25696  56.31563  56.36535
 Alpha virt. eigenvalues --   56.40466  56.45012  56.55502  56.59107  56.65547
 Alpha virt. eigenvalues --   57.46528  57.50676  57.99487  58.04523  58.19525
 Alpha virt. eigenvalues --   58.26346  64.71882  64.79417  73.94539  73.98148
 Alpha virt. eigenvalues --   74.10077  74.11750  74.64368  74.66767  86.07153
 Alpha virt. eigenvalues --   86.15710 165.43472 165.53514 165.57659 165.60525
 Alpha virt. eigenvalues --  165.64406 165.65868 165.68428 165.77468 165.85584
 Alpha virt. eigenvalues --  226.62411 226.86496 230.58942 230.65850 235.50542
 Alpha virt. eigenvalues --  235.84622 236.27388 236.29051 236.54817 236.55952
 Alpha virt. eigenvalues --  236.85623 237.17050 237.43983 237.54269 237.76134
 Alpha virt. eigenvalues --  237.76963 237.91459 238.29613 238.51073 238.99737
 Alpha virt. eigenvalues --  308.80754 308.88359 624.54948 624.60798 624.65379
 Alpha virt. eigenvalues --  624.66060 624.70222 624.71679 624.74168 624.81661
 Alpha virt. eigenvalues --  624.87690 794.55525 794.62803 825.79581 827.17330
 Alpha virt. eigenvalues --  827.20339 827.99371 828.07996 828.12797 828.72923
 Alpha virt. eigenvalues --  830.45865 831.06273 831.39262 832.01172 832.01736
 Alpha virt. eigenvalues --  832.28352 833.72232 834.50164 835.60886 868.34624
 Alpha virt. eigenvalues --  868.419011165.934711166.004792485.917662487.17673
 Alpha virt. eigenvalues -- 2587.874192589.884492595.012882595.076152595.85372
 Alpha virt. eigenvalues -- 2598.292572598.876102602.101402604.749222605.39315
 Alpha virt. eigenvalues -- 2606.044802607.627482608.619002610.079782611.33967
 Alpha virt. eigenvalues -- 2618.342082740.324942740.340182740.383782740.40535
 Alpha virt. eigenvalues -- 2740.432812740.492502740.519502740.554512740.58246
 Alpha virt. eigenvalues -- 3787.320063787.395795073.316055073.378898288.85620
 Alpha virt. eigenvalues -- 8296.123798626.435338633.439758637.950308639.84976
 Alpha virt. eigenvalues -- 8640.323218644.339098646.097808662.131718667.59330
 Alpha virt. eigenvalues -- 8670.297738674.357488675.128848677.347218688.34998
 Alpha virt. eigenvalues -- 8694.257928704.74491******************************
 Alpha virt. eigenvalues -- **************************************************
 Alpha virt. eigenvalues -- **************************************************
 Alpha virt. eigenvalues -- **************************************************
 Alpha virt. eigenvalues -- **************************************************
 Alpha virt. eigenvalues -- **************************************************
 Alpha virt. eigenvalues -- **************************************************
 Alpha virt. eigenvalues -- **************************************************
 Alpha virt. eigenvalues -- **********
          Condensed to atoms (all electrons):
               1          2          3          4          5          6
     1  C    4.571187   0.184136  -0.050152   0.000165   0.000055   0.000046
     2  C    0.184136   5.383949   0.380753  -0.006016  -0.000289  -0.000782
     3  H   -0.050152   0.380753   0.495331  -0.000903   0.000014  -0.000035
     4  C    0.000165  -0.006016  -0.000903   5.005622   0.400544   0.406394
     5  H    0.000055  -0.000289   0.000014   0.400544   0.532136  -0.005401
     6  H    0.000046  -0.000782  -0.000035   0.406394  -0.005401   0.526978
     7  H   -0.000624   0.003151  -0.000099   0.395069  -0.021020  -0.026868
     8  O    0.725051  -0.108468   0.004264  -0.000126  -0.000007  -0.000002
     9  N   -0.059001   0.290622  -0.034176  -0.002353   0.000254   0.000534
    10  H   -0.002614  -0.032571   0.005903   0.000042   0.000469  -0.000696
    11  N    0.361165  -0.142322   0.006743  -0.000195   0.000000  -0.000005
    12  H   -0.026016   0.011527   0.000192   0.000018  -0.000001  -0.000001
    13  C   -0.045972   0.010702  -0.001176   0.000003   0.000000   0.000000
    14  H    0.003507   0.002210   0.000091   0.000011   0.000000   0.000000
    15  H   -0.009775  -0.000821  -0.000278  -0.000001   0.000000   0.000000
    16  H    0.006943   0.000612  -0.000130   0.000000   0.000000   0.000000
    17  C   -0.004382  -0.048252   0.002242   0.000602   0.000006  -0.000024
    18  C   -0.005202   0.018000   0.002329  -0.000173  -0.000001   0.000026
    19  H    0.000593  -0.000676  -0.000452   0.000106  -0.000003   0.000009
    20  H   -0.000066  -0.000600   0.000153  -0.000029  -0.000001  -0.000004
    21  H    0.000697  -0.000721  -0.000209   0.000028   0.000001   0.000001
    22  O   -0.010120   0.021280   0.022594   0.000008   0.000000  -0.000001
    23  C   -0.015066   0.006999   0.007120   0.344065  -0.035177  -0.042560
    24  H   -0.000300   0.009353  -0.000239  -0.042930  -0.009298  -0.003854
    25  C    0.011529   0.003629   0.000151  -0.057345  -0.002327   0.007600
    26  H   -0.005127   0.000327   0.000949  -0.008662  -0.001131   0.000081
    27  H    0.002813  -0.009086  -0.000154   0.007220  -0.000188  -0.000498
    28  H    0.000227  -0.000679   0.000040  -0.003183   0.003782  -0.000161
    29  C   -0.011976   0.255216  -0.030618  -0.038023   0.008444  -0.003466
    30  H    0.006176  -0.045810  -0.009590  -0.005774   0.000385   0.004826
    31  H    0.001251  -0.053491  -0.006434   0.007603  -0.000359   0.000541
               7          8          9         10         11         12
     1  C   -0.000624   0.725051  -0.059001  -0.002614   0.361165  -0.026016
     2  C    0.003151  -0.108468   0.290622  -0.032571  -0.142322   0.011527
     3  H   -0.000099   0.004264  -0.034176   0.005903   0.006743   0.000192
     4  C    0.395069  -0.000126  -0.002353   0.000042  -0.000195   0.000018
     5  H   -0.021020  -0.000007   0.000254   0.000469   0.000000  -0.000001
     6  H   -0.026868  -0.000002   0.000534  -0.000696  -0.000005  -0.000001
     7  H    0.555386  -0.000387  -0.004846   0.002597  -0.000022   0.000007
     8  O   -0.000387   7.885839   0.005946   0.003199  -0.111206   0.006212
     9  N   -0.004846   0.005946   6.687480   0.373848   0.007993   0.000459
    10  H    0.002597   0.003199   0.373848   0.452890   0.000290  -0.000037
    11  N   -0.000022  -0.111206   0.007993   0.000290   6.511453   0.371848
    12  H    0.000007   0.006212   0.000459  -0.000037   0.371848   0.530603
    13  C    0.000000   0.003607  -0.000285  -0.000011   0.338210  -0.036111
[...]
 Alpha virt. eigenvalues --    4.44594   4.48983   4.49576   4.51692   4.53407
 Alpha virt. eigenvalues --    4.53965   4.55065   4.55502   4.56796   4.58582
 Alpha virt. eigenvalues --    4.62593   4.64838   4.65531   4.66100   4.67173
 Alpha virt. eigenvalues --    4.69069   4.70113   4.71012   4.71562   4.72740
 Alpha virt. eigenvalues --    4.74130   4.75189   4.77121   4.78504   4.79296
 Alpha virt. eigenvalues --    4.80087   4.81472   4.82234   4.82894   4.83604
 Alpha virt. eigenvalues --    4.85017   4.86250   4.87986   4.89040   4.90012
 Alpha virt. eigenvalues --    4.91089   4.92466   4.94614   4.95573   4.96375
 Alpha virt. eigenvalues --    4.97104   4.97973   5.00421   5.01627   5.02598
 Alpha virt. eigenvalues --    5.03451   5.03831   5.04776   5.05367   5.07595
 Alpha virt. eigenvalues --    5.08579   5.08863   5.10897   5.11216   5.13468
 Alpha virt. eigenvalues --    5.13986   5.14959   5.15516   5.16737   5.17989
 Alpha virt. eigenvalues --    5.19307   5.19520   5.20551   5.22393   5.24373
 Alpha virt. eigenvalues --    5.24603   5.25070   5.26699   5.27554   5.28886
 Alpha virt. eigenvalues --    5.29421   5.29962   5.31860   5.32898   5.34596
 Alpha virt. eigenvalues --    5.35839   5.36567   5.37944   5.38126   5.41091
 Alpha virt. eigenvalues --    5.42889   5.47124   5.49780   5.51493   5.54963
 Alpha virt. eigenvalues --    5.56949   5.59389   5.62574   5.63328   5.71786
 Alpha virt. eigenvalues --    5.73432   5.75172   5.76929   5.78524   5.78950
 Alpha virt. eigenvalues --    5.80122   5.82226   5.84577   5.85110   5.87786
 Alpha virt. eigenvalues --    5.89082   5.90936   5.92064   5.97281   5.98732
 Alpha virt. eigenvalues --    5.99327   6.02322   6.03724   6.07761   6.09358
 Alpha virt. eigenvalues --    6.22496   6.27283   6.36157   6.40818   6.49689
 Alpha virt. eigenvalues --    6.51767   6.53942   6.58281   6.68008   6.69025
 Alpha virt. eigenvalues --    6.88360   6.90303   6.92647   6.97385   7.09848
 Alpha virt. eigenvalues --    7.14422   7.17570   7.17669   9.47585  10.00022
 Alpha virt. eigenvalues --   11.52870  12.15260  12.41828  12.63524  12.88767
 Alpha virt. eigenvalues --   13.46411  13.52230  13.63898  13.68360  13.79736
 Alpha virt. eigenvalues --   13.98849
          Condensed to atoms (all electrons):
               1          2          3          4          5          6
     1  C    4.729136   0.160030  -0.058021   0.000897   0.000059   0.000033
     2  C    0.160030   5.480728   0.426211  -0.002533  -0.000500  -0.000571
     3  H   -0.058021   0.426211   0.452977  -0.000958   0.000014  -0.000061
     4  C    0.000897  -0.002533  -0.000958   5.144973   0.406294   0.407127
     5  H    0.000059  -0.000500   0.000014   0.406294   0.518115  -0.011206
     6  H    0.000033  -0.000571  -0.000061   0.407127  -0.011206   0.521062
     7  H   -0.000888   0.005430  -0.000031   0.391065  -0.028760  -0.031214
     8  O    0.714602  -0.096610   0.002262  -0.000212  -0.000007  -0.000003
     9  N   -0.061917   0.242805  -0.037263  -0.001708   0.000202   0.000506
    10  H   -0.001624  -0.031341   0.003657  -0.002677   0.000780  -0.001086
    11  N    0.355723  -0.111646   0.002323  -0.000214   0.000001  -0.000004
    12  H   -0.023779   0.008023  -0.000601   0.000018  -0.000001   0.000000
    13  C   -0.063223   0.009860  -0.000985   0.000007   0.000000   0.000000
    14  H    0.003158   0.002027   0.000102   0.000010   0.000000   0.000000
    15  H   -0.009897  -0.000765  -0.000267   0.000000   0.000000   0.000000
    16  H    0.007726   0.000611  -0.000099   0.000000   0.000000   0.000000
    17  C   -0.003658  -0.060103   0.000630   0.000438   0.000005  -0.000016
    18  C   -0.003746   0.014684   0.002160  -0.000088   0.000000   0.000022
    19  H    0.000388   0.000186  -0.000421   0.000153  -0.000008   0.000022
    20  H   -0.000109  -0.000548   0.000140  -0.000030  -0.000001  -0.000004
    21  H    0.000668  -0.000766  -0.000185   0.000025   0.000000   0.000001
    22  O   -0.006216   0.018616   0.021744   0.000011   0.000000  -0.000001
    23  C   -0.011470  -0.001331   0.005853   0.276411  -0.034227  -0.042397
    24  H   -0.000899   0.010508  -0.000058  -0.039739  -0.010081  -0.004356
    25  C    0.003418  -0.001934   0.000285  -0.066447  -0.003874   0.007408
    26  H   -0.009455   0.003260   0.000802  -0.008035  -0.000969   0.000028
    27  H    0.002901  -0.008697  -0.000265   0.007446  -0.000173  -0.000381
    28  H    0.000482  -0.000984   0.000044  -0.005334   0.003708  -0.000152
    29  C   -0.022292   0.186517  -0.032670  -0.051032   0.009299  -0.002451
    30  H    0.007119  -0.043041  -0.009031  -0.003752   0.000245   0.003846
    31  H    0.003108  -0.056930  -0.007775   0.007154  -0.000230   0.000447
               7          8          9         10         11         12
     1  C   -0.000888   0.714602  -0.061917  -0.001624   0.355723  -0.023779
     2  C    0.005430  -0.096610   0.242805  -0.031341  -0.111646   0.008023
     3  H   -0.000031   0.002262  -0.037263   0.003657   0.002323  -0.000601
     4  C    0.391065  -0.000212  -0.001708  -0.002677  -0.000214   0.000018
     5  H   -0.028760  -0.000007   0.000202   0.000780   0.000001  -0.000001
     6  H   -0.031214  -0.000003   0.000506  -0.001086  -0.000004   0.000000
     7  H    0.564535  -0.000378  -0.005132   0.001087  -0.000018   0.000007
     8  O   -0.000378   7.843188   0.004550   0.002843  -0.118709   0.005064
     9  N   -0.005132   0.004550   6.578329   0.398495   0.006768   0.000474
    10  H    0.001087   0.002843   0.398495   0.467862   0.000307  -0.000030
    11  N   -0.000018  -0.118709   0.006768   0.000307   6.439719   0.383061
    12  H    0.000007   0.005064   0.000474  -0.000030   0.383061   0.529338
    13  C    0.000000   0.004345  -0.000313  -0.000007   0.300328  -0.032579
    14  H   -0.000001   0.004553  -0.000024  -0.000007  -0.061199   0.003583
    15  H    0.000000   0.006290  -0.000043   0.000000  -0.039896   0.002112
    16  H    0.000000   0.001431   0.000008  -0.000001  -0.027043  -0.008038
    17  C    0.000226   0.012483   0.321464  -0.022137  -0.000514  -0.000098
    18  C    0.000303  -0.000517  -0.064886  -0.005003  -0.000075   0.000000
    19  H    0.000528  -0.000064   0.013241  -0.002151   0.000007   0.000001
    20  H    0.000004   0.000041  -0.001164   0.000902   0.000004   0.000000
    21  H   -0.000050   0.000232  -0.000442   0.000015  -0.000002  -0.000001
    22  O    0.000016  -0.003046  -0.142190   0.003195  -0.002193  -0.000149
    23  C   -0.033560   0.001794   0.000554   0.003355  -0.004626   0.000513
    24  H    0.008434  -0.000014  -0.000453  -0.000079  -0.000212  -0.000003
    25  C   -0.004914  -0.007347  -0.005065  -0.000244  -0.003882   0.000173
    26  H    0.003429   0.015495   0.003655   0.001263   0.001477  -0.000176
    27  H   -0.000025  -0.004797   0.000266   0.000008   0.005625   0.000325
    28  H   -0.000728   0.000459   0.000099   0.000075   0.000066  -0.000010
    29  C   -0.006983  -0.000525  -0.036969  -0.007195   0.008960  -0.000852
    30  H    0.000006  -0.000421  -0.000076   0.000093   0.000377  -0.000270
    31  H   -0.000613  -0.000162   0.004947  -0.000026   0.000505   0.003637
              13         14         15         16         17         18
     1  C   -0.063223   0.003158  -0.009897   0.007726  -0.003658  -0.003746
     2  C    0.009860   0.002027  -0.000765   0.000611  -0.060103   0.014684
     3  H   -0.000985   0.000102  -0.000267  -0.000099   0.000630   0.002160
     4  C    0.000007   0.000010   0.000000   0.000000   0.000438  -0.000088
     5  H    0.000000   0.000000   0.000000   0.000000   0.000005   0.000000
     6  H    0.000000   0.000000   0.000000   0.000000  -0.000016   0.000022
     7  H    0.000000  -0.000001   0.000000   0.000000   0.000226   0.000303
     8  O    0.004345   0.004553   0.006290   0.001431   0.012483  -0.000517
     9  N   -0.000313  -0.000024  -0.000043   0.000008   0.321464  -0.064886
    10  H   -0.000007  -0.000007   0.000000  -0.000001  -0.022137  -0.005003
    11  N    0.300328  -0.061199  -0.039896  -0.027043  -0.000514  -0.000075
    12  H   -0.032579   0.003583   0.002112  -0.008038  -0.000098   0.000000
    13  C    4.777026   0.389260   0.405910   0.393475  -0.000160  -0.000005
    14  H    0.389260   0.635059  -0.057571  -0.028307  -0.000014   0.000000
    15  H    0.405910  -0.057571   0.592274  -0.025260   0.000054   0.000001
    16  H    0.393475  -0.028307  -0.025260   0.598031  -0.000004   0.000000
    17  C   -0.000160  -0.000014   0.000054  -0.000004   4.532288   0.280682
    18  C   -0.000005   0.000000   0.000001   0.000000   0.280682   5.005223
    19  H    0.000001   0.000000   0.000000   0.000000  -0.054035   0.393588
    20  H    0.000000   0.000000   0.000000   0.000000  -0.020777   0.381523
    21  H    0.000002   0.000000   0.000001   0.000000  -0.027611   0.390471
    22  O   -0.000135   0.000007   0.000034  -0.000002   0.728574  -0.070459
    23  C    0.000229   0.000466  -0.000064   0.000015  -0.000933  -0.000176
    24  H   -0.000006   0.000017  -0.000002   0.000001   0.000039  -0.000001
    25  C   -0.000371   0.000653   0.000006  -0.000004  -0.000011   0.000020
    26  H   -0.000271   0.000475  -0.000154  -0.000008   0.000599   0.000047
    27  H    0.000200  -0.001836   0.000360  -0.000092  -0.000006   0.000000
    28  H   -0.000039   0.000012  -0.000002  -0.000003   0.000004   0.000000
    29  C   -0.000574  -0.000628   0.000141  -0.000066   0.008324   0.000361
    30  H    0.000071  -0.000026   0.000013   0.000004  -0.000311  -0.000032
    31  H    0.000118  -0.000220   0.000081   0.000009  -0.000200   0.000042
              19         20         21         22         23         24
     1  C    0.000388  -0.000109   0.000668  -0.006216  -0.011470  -0.000899
     2  C    0.000186  -0.000548  -0.000766   0.018616  -0.001331   0.010508
     3  H   -0.000421   0.000140  -0.000185   0.021744   0.005853  -0.000058
     4  C    0.000153  -0.000030   0.000025   0.000011   0.276411  -0.039739
     5  H   -0.000008  -0.000001   0.000000   0.000000  -0.034227  -0.010081
     6  H    0.000022  -0.000004   0.000001  -0.000001  -0.042397  -0.004356
     7  H    0.000528   0.000004  -0.000050   0.000016  -0.033560   0.008434
     8  O   -0.000064   0.000041   0.000232  -0.003046   0.001794  -0.000014
     9  N    0.013241  -0.001164  -0.000442  -0.142190   0.000554  -0.000453
    10  H   -0.002151   0.000902   0.000015   0.003195   0.003355  -0.000079
    11  N    0.000007   0.000004  -0.000002  -0.002193  -0.004626  -0.000212
    12  H    0.000001   0.000000  -0.000001  -0.000149   0.000513  -0.000003
    13  C    0.000001   0.000000   0.000002  -0.000135   0.000229  -0.000006
    14  H    0.000000   0.000000   0.000000   0.000007   0.000466   0.000017
    15  H    0.000000   0.000000   0.000001   0.000034  -0.000064  -0.000002
    16  H    0.000000   0.000000   0.000000  -0.000002   0.000015   0.000001
    17  C   -0.054035  -0.020777  -0.027611   0.728574  -0.000933   0.000039
    18  C    0.393588   0.381523   0.390471  -0.070459  -0.000176  -0.000001
    19  H    0.601501  -0.028125  -0.023760   0.004585   0.000093   0.000001
    20  H   -0.028125   0.578141  -0.026047   0.001646   0.000024   0.000000
    21  H   -0.023760  -0.026047   0.565178   0.001366  -0.000020   0.000000
    22  O    0.004585   0.001646   0.001366   7.849252  -0.000123   0.000001
    23  C    0.000093   0.000024  -0.000020  -0.000123   5.245307   0.440137
    24  H    0.000001   0.000000   0.000000   0.000001   0.440137   0.560261
    25  C   -0.000026  -0.000001   0.000007   0.000023   0.241682  -0.036065
    26  H   -0.000046   0.000012  -0.000036  -0.000051  -0.028828   0.006969
    27  H    0.000000   0.000000   0.000000  -0.000003  -0.046070  -0.005855
    28  H   -0.000001   0.000000   0.000000   0.000000  -0.034345  -0.008754
    29  C   -0.000227  -0.000026   0.000041   0.001516   0.234901  -0.060206
    30  H    0.000018  -0.000023   0.000012  -0.000103  -0.050542  -0.004305
    31  H   -0.000004  -0.000004   0.000001   0.000074  -0.047707  -0.011927
              25         26         27         28         29         30
     1  C    0.003418  -0.009455   0.002901   0.000482  -0.022292   0.007119
     2  C   -0.001934   0.003260  -0.008697  -0.000984   0.186517  -0.043041
     3  H    0.000285   0.000802  -0.000265   0.000044  -0.032670  -0.009031
     4  C   -0.066447  -0.008035   0.007446  -0.005334  -0.051032  -0.003752
     5  H   -0.003874  -0.000969  -0.000173   0.003708   0.009299   0.000245
     6  H    0.007408   0.000028  -0.000381  -0.000152  -0.002451   0.003846
     7  H   -0.004914   0.003429  -0.000025  -0.000728  -0.006983   0.000006
     8  O   -0.007347   0.015495  -0.004797   0.000459  -0.000525  -0.000421
     9  N   -0.005065   0.003655   0.000266   0.000099  -0.036969  -0.000076
    10  H   -0.000244   0.001263   0.000008   0.000075  -0.007195   0.000093
    11  N   -0.003882   0.001477   0.005625   0.000066   0.008960   0.000377
    12  H    0.000173  -0.000176   0.000325  -0.000010  -0.000852  -0.000270
    13  C   -0.000371  -0.000271   0.000200  -0.000039  -0.000574   0.000071
    14  H    0.000653   0.000475  -0.001836   0.000012  -0.000628  -0.000026
    15  H    0.000006  -0.000154   0.000360  -0.000002   0.000141   0.000013
    16  H   -0.000004  -0.000008  -0.000092  -0.000003  -0.000066   0.000004
    17  C   -0.000011   0.000599  -0.000006   0.000004   0.008324  -0.000311
    18  C    0.000020   0.000047   0.000000   0.000000   0.000361  -0.000032
    19  H   -0.000026  -0.000046   0.000000  -0.000001  -0.000227   0.000018
    20  H   -0.000001   0.000012   0.000000   0.000000  -0.000026  -0.000023
    21  H    0.000007  -0.000036   0.000000   0.000000   0.000041   0.000012
    22  O    0.000023  -0.000051  -0.000003   0.000000   0.001516  -0.000103
    23  C    0.241682  -0.028828  -0.046070  -0.034345   0.234901  -0.050542
    24  H   -0.036065   0.006969  -0.005855  -0.008754  -0.060206  -0.004305
    25  C    5.196775   0.388646   0.401506   0.405767  -0.045557   0.006481
    26  H    0.388646   0.509608  -0.030067  -0.020736  -0.011684  -0.000792
    27  H    0.401506  -0.030067   0.534905  -0.013293   0.002262   0.000354
    28  H    0.405767  -0.020736  -0.013293   0.515562   0.009159  -0.000344
    29  C   -0.045557  -0.011684   0.002262   0.009159   5.367619   0.425049
    30  H    0.006481  -0.000792   0.000354  -0.000344   0.425049   0.469095
    31  H   -0.000567  -0.000668   0.002111  -0.000284   0.431265  -0.000102
              31
     1  C    0.003108
     2  C   -0.056930
     3  H   -0.007775
     4  C    0.007154
     5  H   -0.000230
     6  H    0.000447
     7  H   -0.000613
     8  O   -0.000162
     9  N    0.004947
    10  H   -0.000026
    11  N    0.000505
    12  H    0.003637
    13  C    0.000118
    14  H   -0.000220
    15  H    0.000081
    16  H    0.000009
    17  C   -0.000200
    18  C    0.000042
    19  H   -0.000004
    20  H   -0.000004
    21  H    0.000001
    22  O    0.000074
    23  C   -0.047707
    24  H   -0.011927
    25  C   -0.000567
    26  H   -0.000668
    27  H    0.002111
    28  H   -0.000284
    29  C    0.431265
    30  H   -0.000102
    31  H    0.489240
 Mulliken charges:
               1
     1  C    0.287746
     2  C   -0.151194
     3  H    0.229489
     4  C   -0.459272
     5  H    0.151313
     6  H    0.153400
     7  H    0.138224
     8  O   -0.386822
     9  N   -0.218718
    10  H    0.189672
    11  N   -0.135017
    12  H    0.130257
    13  C   -0.182163
    14  H    0.110453
    15  H    0.126645
    16  H    0.087615
    17  C    0.304776
    18  C   -0.324139
    19  H    0.094555
    20  H    0.114422
    21  H    0.120898
    22  O   -0.405990
    23  C   -0.114914
    24  H    0.156647
    25  C   -0.476542
    26  H    0.176210
    27  H    0.153289
    28  H    0.149570
    29  C   -0.405480
    30  H    0.200388
    31  H    0.184681
 Sum of Mulliken charges =   0.00000
 Mulliken charges with hydrogens summed into heavy atoms:
               1
     1  C    0.287746
     2  C    0.078294
     4  C   -0.016335
     8  O   -0.386822
     9  N   -0.029046
    11  N   -0.004760
    13  C    0.142551
    17  C    0.304776
    18  C    0.005736
    22  O   -0.405990
    23  C    0.041733
    25  C    0.002527
    29  C   -0.020411
 Electronic spatial extent (au):  <R**2>=           2781.6515
 Charge=              0.0000 electrons
 Dipole moment (field-independent basis, Debye):
    X=              2.6451    Y=              3.6463    Z=             -1.9081  Tot=              4.8921
 Quadrupole moment (field-independent basis, Debye-Ang):
   XX=            -72.8387   YY=            -82.1179   ZZ=            -81.3066
   XY=            -10.7248   XZ=             -6.7296   YZ=              1.9626
 Traceless Quadrupole moment (field-independent basis, Debye-Ang):
   XX=              5.9157   YY=             -3.3635   ZZ=             -2.5522
   XY=            -10.7248   XZ=             -6.7296   YZ=              1.9626
 Octapole moment (field-independent basis, Debye-Ang**2):
  XXX=             -2.9195  YYY=             -2.9307  ZZZ=             -9.6254  XYY=             26.9102
  XXY=             -4.8609  XXZ=              6.3910  XZZ=              1.5770  YZZ=             -1.8564
  YYZ=              2.5698  XYZ=              9.4408
 Hexadecapole moment (field-independent basis, Debye-Ang**3):
 XXXX=          -1655.9217 YYYY=          -1532.8035 ZZZZ=           -382.2530 XXXY=            -60.2531
 XXXZ=            -29.0914 YYYX=            -53.2426 YYYZ=             -5.3404 ZZZX=            -11.9045
 ZZZY=              8.9685 XXYY=           -549.8968 XXZZ=           -342.6336 YYZZ=           -323.2059
 XXYZ=             -8.1145 YYXZ=            -12.6796 ZZXY=             -5.4323
 N-N= 8.824170170558D+02 E-N=-3.194540764360D+03  KE= 6.091169321127D+02
 Calculating spin-rotation constants.
 Leave Link  601 at Wed Jun 18 13:11:17 2014, MaxMem=  4294967296 cpu:        69.8
 (Enter /home/ztw1e12/g09/l9999.exe)

 Test job not archived.
 1\1\GINC-GREEN0542\SP\RM06\Gen\C9H18N2O2\ROOT\18-Jun-2014\0\\#P Geom=A
 llCheck Guess=TCheck SCRF=Check GenChk RM06/ChkBas NMR=ReadFC IOp(3/6=
 22)\\NMR spin-spin scan\\0,1\C,0,0.258429,1.184559,0.297752\C,0,0.0657
 79,0.124432,-0.787935\H,0,0.562095,0.531342,-1.674682\C,0,-2.318134,-2
 .267402,-0.147171\H,0,-3.20396,-2.664113,0.353224\H,0,-2.269452,-2.707
 474,-1.144942\H,0,-1.459312,-2.630575,0.426553\O,0,0.705597,0.928462,1
 .411258\N,0,0.750537,-1.098046,-0.44471\H,0,0.220496,-1.86462,-0.06237
 2\N,0,-0.065821,2.428803,-0.071111\H,0,-0.428148,2.588135,-0.997642\C,
 0,-0.018301,3.529405,0.86314\H,0,-0.707102,3.371147,1.695391\H,0,0.985
 114,3.653028,1.270625\H,0,-0.298134,4.442856,0.34707\C,0,2.092878,-1.1
 81133,-0.443093\C,0,2.676712,-2.484299,-0.006832\H,0,1.92579,-3.217231
 ,0.280009\H,0,3.279694,-2.886712,-0.820734\H,0,3.344883,-2.304928,0.83
 5132\O,0,2.80441,-0.24466,-0.803301\C,0,-2.379018,-0.748103,-0.202478\
 H,0,-3.360715,-0.502358,-0.623037\C,0,-2.334006,-0.163264,1.195752\H,0
 ,-1.419206,-0.452665,1.717393\H,0,-2.390982,0.928341,1.190465\H,0,-3.1
 75539,-0.53429,1.784239\C,0,-1.387001,-0.125213,-1.193445\H,0,-1.36511
 6,-0.74217,-2.095899\H,0,-1.786846,0.842044,-1.508278\\Version=EM64L-G
 09RevD.01\State=1-A\HF=-613.5783703\RMSD=9.320e-09\Dipole=-1.8004662,-
 0.1426973,-0.6651932\Quadrupole=-6.7288715,10.1746653,-3.4457938,-4.04
 71647,2.0936559,-2.0588586\PG=C01 [X(C9H18N2O2)]\\@


 AS FAR AS THE LAWS OF MATHEMATICS REFER TO REALITY,
 THEY ARE NOT CERTAIN; AND AS FAR AS THEY ARE CERTAIN,
 THEY DO NOT REFER TO REALITY.

                                         -- ALBERT EINSTEIN
 Job cpu time:       2 days 14 hours 49 minutes 39.2 seconds.
 File lengths (MBytes):  RWF=   2456 Int=      0 D2E=      0 Chk=     48 Scr=      8
 Normal termination of Gaussian 09 at Wed Jun 18 13:11:17 2014.
