 Entering Gaussian System, Link 0=g09
 Input=scan_input_10.gjf
 Output=scan_input_10.log
 Initial command:
 /home/ztw1e12/g09/l1.exe "/home/ztw1e12/leucine_scan/leucine_chi2_scan/Gau-4953.inp" -scrdir="/home/ztw1e12/leucine_scan/leucine_chi2_scan/"
 Default is to use a total of   8 processors:
                                8 via shared-memory
                                1 via Linda
 Entering Link 1 = /home/ztw1e12/g09/l1.exe PID=      4954.
  
 Copyright (c) 1988,1990,1992,1993,1995,1998,2003,2009,2013,
            Gaussian, Inc.  All Rights Reserved.
  
 This is part of the Gaussian(R) 09 program.  It is based on
 the Gaussian(R) 03 system (copyright 2003, Gaussian, Inc.),
 the Gaussian(R) 98 system (copyright 1998, Gaussian, Inc.),
 the Gaussian(R) 94 system (copyright 1995, Gaussian, Inc.),
 the Gaussian 92(TM) system (copyright 1992, Gaussian, Inc.),
 the Gaussian 90(TM) system (copyright 1990, Gaussian, Inc.),
 the Gaussian 88(TM) system (copyright 1988, Gaussian, Inc.),
 the Gaussian 86(TM) system (copyright 1986, Carnegie Mellon
 University), and the Gaussian 82(TM) system (copyright 1983,
 Carnegie Mellon University). Gaussian is a federally registered
 trademark of Gaussian, Inc.
  
 This software contains proprietary and confidential information,
 including trade secrets, belonging to Gaussian, Inc.
  
 This software is provided under written license and may be
 used, copied, transmitted, or stored only in accord with that
 written license.
  
 The following legend is applicable only to US Government
 contracts under FAR:
  
                    RESTRICTED RIGHTS LEGEND
  
 Use, reproduction and disclosure by the US Government is
 subject to restrictions as set forth in subparagraphs (a)
 and (c) of the Commercial Computer Software - Restricted
 Rights clause in FAR 52.227-19.
  
 Gaussian, Inc.
 340 Quinnipiac St., Bldg. 40, Wallingford CT 06492
  
  
 ---------------------------------------------------------------
 Warning -- This program may not be used in any manner that
 competes with the business of Gaussian, Inc. or will provide
 assistance to any competitor of Gaussian, Inc.  The licensee
 of this program is prohibited from giving any competitor of
 Gaussian, Inc. access to this program.  By using this program,
 the user acknowledges that Gaussian, Inc. is engaged in the
 business of creating and licensing software in the field of
 computational chemistry and represents and warrants to the
 licensee that it is not a competitor of Gaussian, Inc. and that
 it will not use this program in any manner prohibited above.
 ---------------------------------------------------------------
  

 Cite this work as:
 Gaussian 09, Revision D.01,
 M. J. Frisch, G. W. Trucks, H. B. Schlegel, G. E. Scuseria, 
 M. A. Robb, J. R. Cheeseman, G. Scalmani, V. Barone, B. Mennucci, 
 G. A. Petersson, H. Nakatsuji, M. Caricato, X. Li, H. P. Hratchian, 
 A. F. Izmaylov, J. Bloino, G. Zheng, J. L. Sonnenberg, M. Hada, 
 M. Ehara, K. Toyota, R. Fukuda, J. Hasegawa, M. Ishida, T. Nakajima, 
 Y. Honda, O. Kitao, H. Nakai, T. Vreven, J. A. Montgomery, Jr., 
 J. E. Peralta, F. Ogliaro, M. Bearpark, J. J. Heyd, E. Brothers, 
 K. N. Kudin, V. N. Staroverov, T. Keith, R. Kobayashi, J. Normand, 
 K. Raghavachari, A. Rendell, J. C. Burant, S. S. Iyengar, J. Tomasi, 
 M. Cossi, N. Rega, J. M. Millam, M. Klene, J. E. Knox, J. B. Cross, 
 V. Bakken, C. Adamo, J. Jaramillo, R. Gomperts, R. E. Stratmann, 
 O. Yazyev, A. J. Austin, R. Cammi, C. Pomelli, J. W. Ochterski, 
 R. L. Martin, K. Morokuma, V. G. Zakrzewski, G. A. Voth, 
 P. Salvador, J. J. Dannenberg, S. Dapprich, A. D. Daniels, 
 O. Farkas, J. B. Foresman, J. V. Ortiz, J. Cioslowski, 
 and D. J. Fox, Gaussian, Inc., Wallingford CT, 2013.
 
 ******************************************
 Gaussian 09:  EM64L-G09RevD.01 24-Apr-2013
                18-Jun-2014 
 ******************************************
 %Mem=32GB
 %NProcShared=16
 Will use up to   16 processors via shared memory.
 Default route:  MaxDisk=100GB
 ----------------------------------------------------------------------
 #p nmr=(giao,mixed,spinspin) m06/cc-pvtz scf=tight integral=(grid=ultr
 afine)
 ----------------------------------------------------------------------
 1/38=1/1;
 2/12=2,17=6,18=5,40=1/2;
 3/5=16,6=1,10=1100000,11=2,16=1,25=1,30=1,74=-54,75=-5/1,2,8,3;
 4//1;
 5/5=2,32=2,38=5/2;
 8/6=1,10=90,11=11/1;
 10/13=100,45=16,47=3/2;
 6/7=2,8=2,9=2,10=2,28=1/1;
 99/9=1/99;
 Leave Link    1 at Wed Jun 18 01:32:12 2014, MaxMem=  4294967296 cpu:         5.6
 (Enter /home/ztw1e12/g09/l101.exe)
 ------------------
 NMR spin-spin scan
 ------------------
 Symbolic Z-matrix:
 Charge =  0 Multiplicity = 1
 C                     0.26696   1.22061   0.27562 
 C                     0.06676   0.13163  -0.78088 
 H                     0.56834   0.51175  -1.67625 
 C                    -2.47201  -2.25294  -0.31401 
 H                    -3.29515  -2.63722   0.2923 
 H                    -2.64748  -2.55334  -1.3485 
 H                    -1.56554  -2.7614    0.02799 
 O                     0.75707   0.99814   1.37815 
 N                     0.7487   -1.08317  -0.40471 
 H                     0.23168  -1.8008    0.07837 
 N                    -0.09945   2.44907  -0.10593 
 H                    -0.46585   2.59028  -1.0335 
 C                    -0.01428   3.57541   0.79496 
 H                    -0.585     3.38791   1.7057 
 H                     1.01869   3.78214   1.07742 
 H                    -0.42292   4.4521    0.30167 
 C                     2.09206  -1.17195  -0.41105 
 C                     2.67338  -2.44088   0.11965 
 H                     1.92031  -3.16869   0.41405 
 H                     3.32144  -2.87716  -0.63972 
 H                     3.29694  -2.2027    0.98159 
 O                     2.80499  -0.26931  -0.8455 
 C                    -2.37846  -0.74018  -0.18515 
 H                    -3.35639  -0.35499  -0.49356 
 C                    -2.18562  -0.33321   1.26352 
 H                    -1.26092  -0.73862   1.68112 
 H                    -2.16802   0.75142   1.39342 
 H                    -3.00853  -0.71967   1.86823 
 C                    -1.38661  -0.11899  -1.18413 
 H                    -1.366    -0.73849  -2.08454 
 H                    -1.78349   0.84652  -1.50602 
 
 NAtoms=     31 NQM=       31 NQMF=       0 NMMI=      0 NMMIF=      0
                NMic=       0 NMicF=      0.
                    Isotopes and Nuclear Properties:
 (Nuclear quadrupole moments (NQMom) in fm**2, nuclear magnetic moments (NMagM)
  in nuclear magnetons)

  Atom         1           2           3           4           5           6           7           8           9          10
 IAtWgt=          12          12           1          12           1           1           1          16          14           1
 AtmWgt=  12.0000000  12.0000000   1.0078250  12.0000000   1.0078250   1.0078250   1.0078250  15.9949146  14.0030740   1.0078250
 NucSpn=           0           0           1           0           1           1           1           0           2           1
 AtZEff=   0.0000000   0.0000000   0.0000000   0.0000000   0.0000000   0.0000000   0.0000000   0.0000000   0.0000000   0.0000000
 NQMom=    0.0000000   0.0000000   0.0000000   0.0000000   0.0000000   0.0000000   0.0000000   0.0000000   2.0440000   0.0000000
 NMagM=    0.0000000   0.0000000   2.7928460   0.0000000   2.7928460   2.7928460   2.7928460   0.0000000   0.4037610   2.7928460
 AtZNuc=   6.0000000   6.0000000   1.0000000   6.0000000   1.0000000   1.0000000   1.0000000   8.0000000   7.0000000   1.0000000

  Atom        11          12          13          14          15          16          17          18          19          20
 IAtWgt=          14           1          12           1           1           1          12          12           1           1
 AtmWgt=  14.0030740   1.0078250  12.0000000   1.0078250   1.0078250   1.0078250  12.0000000  12.0000000   1.0078250   1.0078250
 NucSpn=           2           1           0           1           1           1           0           0           1           1
 AtZEff=   0.0000000   0.0000000   0.0000000   0.0000000   0.0000000   0.0000000   0.0000000   0.0000000   0.0000000   0.0000000
 NQMom=    2.0440000   0.0000000   0.0000000   0.0000000   0.0000000   0.0000000   0.0000000   0.0000000   0.0000000   0.0000000
 NMagM=    0.4037610   2.7928460   0.0000000   2.7928460   2.7928460   2.7928460   0.0000000   0.0000000   2.7928460   2.7928460
 AtZNuc=   7.0000000   1.0000000   6.0000000   1.0000000   1.0000000   1.0000000   6.0000000   6.0000000   1.0000000   1.0000000

  Atom        21          22          23          24          25          26          27          28          29          30
 IAtWgt=           1          16          12           1          12           1           1           1          12           1
 AtmWgt=   1.0078250  15.9949146  12.0000000   1.0078250  12.0000000   1.0078250   1.0078250   1.0078250  12.0000000   1.0078250
 NucSpn=           1           0           0           1           0           1           1           1           0           1
 AtZEff=   0.0000000   0.0000000   0.0000000   0.0000000   0.0000000   0.0000000   0.0000000   0.0000000   0.0000000   0.0000000
 NQMom=    0.0000000   0.0000000   0.0000000   0.0000000   0.0000000   0.0000000   0.0000000   0.0000000   0.0000000   0.0000000
 NMagM=    2.7928460   0.0000000   0.0000000   2.7928460   0.0000000   2.7928460   2.7928460   2.7928460   0.0000000   2.7928460
 AtZNuc=   1.0000000   8.0000000   6.0000000   1.0000000   6.0000000   1.0000000   1.0000000   1.0000000   6.0000000   1.0000000

  Atom        31
 IAtWgt=           1
 AtmWgt=   1.0078250
 NucSpn=           1
 AtZEff=   0.0000000
 NQMom=    0.0000000
 NMagM=    2.7928460
 AtZNuc=   1.0000000
 Leave Link  101 at Wed Jun 18 01:32:13 2014, MaxMem=  4294967296 cpu:         1.6
 (Enter /home/ztw1e12/g09/l202.exe)
                          Input orientation:                          
 ---------------------------------------------------------------------
 Center     Atomic      Atomic             Coordinates (Angstroms)
 Number     Number       Type             X           Y           Z
 ---------------------------------------------------------------------
      1          6           0        0.266959    1.220612    0.275623
      2          6           0        0.066762    0.131629   -0.780875
      3          1           0        0.568343    0.511750   -1.676245
      4          6           0       -2.472006   -2.252941   -0.314005
      5          1           0       -3.295154   -2.637220    0.292303
      6          1           0       -2.647480   -2.553336   -1.348496
      7          1           0       -1.565541   -2.761398    0.027993
      8          8           0        0.757070    0.998137    1.378146
      9          7           0        0.748698   -1.083170   -0.404708
     10          1           0        0.231679   -1.800799    0.078372
     11          7           0       -0.099452    2.449065   -0.105931
     12          1           0       -0.465847    2.590282   -1.033495
     13          6           0       -0.014282    3.575410    0.794957
     14          1           0       -0.584995    3.387912    1.705697
     15          1           0        1.018686    3.782144    1.077416
     16          1           0       -0.422915    4.452096    0.301674
     17          6           0        2.092064   -1.171948   -0.411053
     18          6           0        2.673375   -2.440878    0.119646
     19          1           0        1.920313   -3.168687    0.414049
     20          1           0        3.321444   -2.877163   -0.639719
     21          1           0        3.296938   -2.202696    0.981592
     22          8           0        2.804987   -0.269308   -0.845501
     23          6           0       -2.378458   -0.740181   -0.185148
     24          1           0       -3.356392   -0.354991   -0.493557
     25          6           0       -2.185617   -0.333205    1.263519
     26          1           0       -1.260921   -0.738617    1.681116
     27          1           0       -2.168020    0.751422    1.393424
     28          1           0       -3.008525   -0.719672    1.868229
     29          6           0       -1.386606   -0.118985   -1.184131
     30          1           0       -1.365997   -0.738485   -2.084536
     31          1           0       -1.783488    0.846516   -1.506015
 ---------------------------------------------------------------------
                    Distance matrix (angstroms):
                    1          2          3          4          5
     1  C    0.000000
     2  C    1.530409   0.000000
     3  H    2.098358   1.094424   0.000000
     4  C    4.462641   3.514183   4.329311   0.000000
     5  H    5.250885   4.485612   5.358899   1.092178   0.000000
     6  H    5.037301   3.859837   4.454626   1.091421   1.765995
     7  H    4.390419   3.418814   4.262791   1.094153   1.754093
     8  O    1.226891   2.426671   3.098628   4.884651   5.551162
     9  N    2.449966   1.443009   2.047707   3.427758   4.387896
    10  H    3.028048   2.121269   2.922312   2.769170   3.630966
    11  N    1.337512   2.419439   2.581671   5.270784   6.020083
    12  H    2.031450   2.528332   2.408936   5.291422   6.090115
    13  C    2.427731   3.788066   3.978983   6.421828   7.043689
    14  H    2.732787   4.148639   4.586941   6.281658   6.756098
    15  H    2.787366   4.205433   4.298946   7.109376   7.773921
    16  H    3.304405   4.480863   4.518969   7.038136   7.649068
    17  C    3.086564   2.436787   2.599476   4.691343   5.627064
    18  C    4.384253   3.771361   4.046529   5.167042   5.974253
    19  H    4.692407   3.969330   4.443284   4.545450   5.243889
    20  H    5.192253   4.434604   4.487614   5.836078   6.686225
    21  H    4.625819   4.357683   4.677344   5.912851   6.642259
    22  O    3.149344   2.768177   2.510531   5.662503   6.641786
    23  C    3.324944   2.663465   3.531903   1.521117   2.160335
    24  H    4.025275   3.469486   4.189694   2.101569   2.414518
    25  C    3.066825   3.077146   4.115879   2.501197   2.735474
    26  H    2.854541   2.929415   4.022623   2.782160   3.109919
    27  H    2.720063   3.178989   4.119222   3.468994   3.737084
    28  H    4.126729   4.147271   5.183983   2.720462   2.498537
    29  C    2.580635   1.528954   2.112304   2.547348   3.487681
    30  H    3.474904   2.123542   2.339115   2.579072   3.602250
    31  H    2.741991   2.111946   2.381629   3.391398   4.201845
                    6          7          8          9         10
     6  H    0.000000
     7  H    1.763123   0.000000
     8  O    5.624811   4.620772   0.000000
     9  N    3.819182   2.891260   2.740525   0.000000
    10  H    3.300276   2.038452   3.130414   1.007803   0.000000
    11  N    5.749820   5.414451   2.245285   3.644902   4.266727
    12  H    5.596030   5.565659   3.137908   3.919789   4.583054
    13  C    7.006401   6.568849   2.752713   4.870698   5.429329
    14  H    6.991450   6.449044   2.760336   5.120852   5.498897
    15  H    7.711299   7.113189   2.812397   5.093218   5.725969
    16  H    7.533115   7.308556   3.805390   5.701826   6.291030
    17  C    5.024969   4.012130   3.113312   1.346311   2.023863
    18  C    5.520832   4.252004   4.133143   2.413027   2.524536
    19  H    4.934567   3.530737   4.432273   2.528325   2.198927
    20  H    6.019575   4.933747   5.066137   3.145260   3.349755
    21  H    6.394401   4.986502   4.105303   3.109452   3.220736
    22  O    5.932890   5.106370   3.277955   2.254993   3.133835
    23  C    2.171010   2.188968   3.911160   3.153562   2.829694
    24  H    2.462965   3.044660   4.717499   4.170120   3.910463
    25  C    3.459035   2.794126   3.231875   3.457692   3.066223
    26  H    3.793982   2.630067   2.679626   2.916839   2.434106
    27  H    4.320814   3.816712   2.935516   3.886676   3.741891
    28  H    3.720215   3.104403   4.167824   4.406257   3.856338
    29  C    2.746431   2.912664   3.522580   2.469145   2.653537
    30  H    2.340435   2.931684   4.417402   2.722603   2.891237
    31  H    3.511451   3.926541   3.846532   3.368758   3.685031
                   11         12         13         14         15
    11  N    0.000000
    12  H    1.007255   0.000000
    13  C    1.444820   2.125470   0.000000
    14  H    2.097423   2.855448   1.091016   0.000000
    15  H    2.104196   2.842590   1.090663   1.766904   0.000000
    16  H    2.069518   2.291478   1.085766   1.769191   1.768848
    17  C    4.243534   4.591810   5.331844   5.695577   5.283059
    18  C    5.625922   6.041276   6.623841   6.863478   6.510094
    19  H    5.992409   6.399599   7.026421   7.136800   7.040386
    20  H    6.352650   6.662701   7.404125   7.746767   7.252421
    21  H    5.861489   6.418081   6.662246   6.844606   6.404524
    22  O    4.046268   4.348672   5.041948   5.601415   4.827292
    23  C    3.920642   3.933161   5.017396   4.881901   5.795350
    24  H    4.315164   4.161901   5.317708   5.150406   6.222953
    25  C    3.737446   4.096420   4.495722   4.074828   5.219031
    26  H    3.834562   4.368389   4.577141   4.181593   5.098857
    27  H    3.067414   3.488371   3.601619   3.091045   4.409108
    28  H    4.732960   5.083405   5.344636   4.772019   6.091811
    29  C    3.068251   2.865417   4.410059   4.614327   5.110659
    30  H    3.959733   3.604948   5.359879   5.657118   6.010053
    31  H    2.713738   2.236107   3.983896   4.267338   4.810843
                   16         17         18         19         20
    16  H    0.000000
    17  C    6.201852   0.000000
    18  C    7.558653   1.493234   0.000000
    19  H    7.973687   2.167316   1.087879   0.000000
    20  H    8.283990   2.114574   1.089483   1.777240   0.000000
    21  H    7.654139   2.110361   1.090189   1.774920   1.756176
    22  O    5.833268   1.229538   2.380031   3.282608   2.666455
    23  C    5.569640   4.497002   5.339128   4.973541   6.104278
    24  H    5.687334   5.509982   6.409761   6.048492   7.139763
    25  C    5.189544   4.669715   5.418536   5.061642   6.357811
    26  H    5.435864   3.975859   4.562298   4.198922   5.563966
    27  H    4.234654   5.010370   5.937373   5.748121   6.887272
    28  H    5.990547   5.604970   6.189029   5.692606   7.142344
    29  C    4.902152   3.715848   4.855354   4.773948   5.483581
    30  H    5.790124   3.866086   4.906433   4.790474   5.351032
    31  H    4.256654   4.504780   5.771773   5.790220   6.377820
                   21         22         23         24         25
    21  H    0.000000
    22  O    2.705231   0.000000
    23  C    5.975814   5.246512   0.000000
    24  H    7.060940   6.172017   1.095373   0.000000
    25  C    5.799387   5.418319   1.517054   2.111517   0.000000
    26  H    4.838072   4.809953   2.175278   3.044236   1.092616
    27  H    6.225928   5.548466   2.181984   2.489393   1.092520
    28  H    6.537916   6.431491   2.147967   2.414961   1.091883
    29  C    5.564871   4.207935   1.538708   2.100630   2.583660
    30  H    5.769577   4.376350   2.152384   2.576811   3.470663
    31  H    6.426244   4.768170   2.148554   2.223222   3.037066
                   26         27         28         29         30
    26  H    0.000000
    27  H    1.767996   0.000000
    28  H    1.757694   1.759547   0.000000
    29  C    2.934175   2.830549   3.508325   0.000000
    30  H    3.767118   3.867721   4.280491   1.093130   0.000000
    31  H    3.597711   2.926372   3.916527   1.092390   1.738164
                   31
    31  H    0.000000
 Stoichiometry    C9H18N2O2
 Framework group  C1[X(C9H18N2O2)]
 Deg. of freedom    87
 Full point group                 C1      NOp   1
 Largest Abelian subgroup         C1      NOp   1
 Largest concise Abelian subgroup C1      NOp   1
                         Standard orientation:                         
 ---------------------------------------------------------------------
 Center     Atomic      Atomic             Coordinates (Angstroms)
 Number     Number       Type             X           Y           Z
 ---------------------------------------------------------------------
      1          6           0        0.746521   -1.053019    0.084178
      2          6           0       -0.050441   -0.076139   -0.783410
      3          1           0       -0.263715   -0.626717   -1.704899
      4          6           0        0.077279    3.357257   -0.045197
      5          1           0        0.464418    4.167067    0.577044
      6          1           0       -0.174093    3.774334   -1.021957
      7          1           0       -0.854425    3.021303    0.419812
      8          8           0        0.421069   -1.345338    1.230429
      9          7           0       -1.323287    0.231474   -0.177182
     10          1           0       -1.402135    1.057980    0.394077
     11          7           0        1.811110   -1.598005   -0.514636
     12          1           0        2.020718   -1.353864   -1.469111
     13          6           0        2.689785   -2.504510    0.187991
     14          1           0        3.089588   -2.037058    1.089081
     15          1           0        2.169049   -3.417048    0.480655
     16          1           0        3.516793   -2.768894   -0.463965
     17          6           0       -2.311579   -0.679885   -0.104681
     18          6           0       -3.529807   -0.274928    0.657998
     19          1           0       -3.482471    0.744832    1.033938
     20          1           0       -4.401907   -0.383490    0.014081
     21          1           0       -3.657415   -0.959781    1.496571
     22          8           0       -2.228854   -1.778915   -0.649707
     23          6           0        1.105481    2.242926   -0.167111
     24          1           0        2.004114    2.712318   -0.581806
     25          6           0        1.484179    1.706533    1.200487
     26          1           0        0.624630    1.280644    1.723558
     27          1           0        2.261198    0.940341    1.147668
     28          1           0        1.869355    2.517798    1.821533
     29          6           0        0.709876    1.180690   -1.207675
     30          1           0        0.117912    1.663423   -1.989648
     31          1           0        1.618139    0.833003   -1.705157
 ---------------------------------------------------------------------
 Rotational constants (GHZ):      0.7711813      0.7074967      0.4396760
 Leave Link  202 at Wed Jun 18 01:32:13 2014, MaxMem=  4294967296 cpu:         1.4
 (Enter /home/ztw1e12/g09/l301.exe)
 Standard basis: CC-pVTZ (5D, 7F)
 Converting basis for Fermi contact spin-spin IFCMod=1.
 AO basis functions are being uncontracted.
 Ernie: Thresh=  0.10000D-02 Tol=  0.10000D-05 Strict=F.
 There are  1119 symmetry adapted cartesian basis functions of A   symmetry.
 There are  1036 symmetry adapted basis functions of A   symmetry.
  1036 basis functions,  1119 primitive gaussians,  1119 cartesian basis functions
    51 alpha electrons       51 beta electrons
       nuclear repulsion energy       881.0369463661 Hartrees.
 IExCor= 4235 DFT=T Ex+Corr=M06 ExCW=0 ScaHFX=  0.270000
 ScaDFX=  1.000000  1.000000  1.000000  1.000000 ScalE2=  1.000000  1.000000
 IRadAn= 199590 IRanWt=     -1 IRanGd=            0 ICorTp=0 IEmpDi=  4
 NAtoms=   31 NActive=   31 NUniq=   31 SFac= 1.00D+00 NAtFMM=   60 NAOKFM=F Big=F
 Integral buffers will be    131072 words long.
 Raffenetti 2 integral format.
 Two-electron integral symmetry is turned on.
 Leave Link  301 at Wed Jun 18 01:32:13 2014, MaxMem=  4294967296 cpu:         6.1
 (Enter /home/ztw1e12/g09/l302.exe)
 NPDir=0 NMtPBC=     1 NCelOv=     1 NCel=       1 NClECP=     1 NCelD=      1
         NCelK=      1 NCelE2=     1 NClLst=     1 CellRange=     0.0.
 One-electron integrals computed using PRISM.
 GSVD:  received Info=                   1 from GESDD.
 NBasis=  1036 RedAO= T EigKep=  1.32D-04  NBF=  1036
 NBsUse=   932 1.00D-06 EigRej=  5.22D-15 NBFU=   932
 Precomputing XC quadrature grid using
 IXCGrd= 4 IRadAn=      199590 IRanWt=          -1 IRanGd=           0 AccXCQ= 0.00D+00.
 Generated NRdTot=       0 NPtTot=           0 NUsed=           0 NTot=          32
 NSgBfM=   896   896   896   896   896 MxSgAt=    31 MxSgA2=    31.
 Leave Link  302 at Wed Jun 18 01:32:18 2014, MaxMem=  4294967296 cpu:        65.1
 (Enter /home/ztw1e12/g09/l308.exe)
 Leave Link  308 at Wed Jun 18 01:32:19 2014, MaxMem=  4294967296 cpu:         5.7
 (Enter /home/ztw1e12/g09/l303.exe)
 DipDrv:  MaxL=1.
 Leave Link  303 at Wed Jun 18 01:32:19 2014, MaxMem=  4294967296 cpu:         3.4
 (Enter /home/ztw1e12/g09/l401.exe)
 ExpMin= 1.03D-01 ExpMax= 1.38D+05 ExpMxC= 1.38D+05 IAcc=4 IRadAn=    199590 AccDes= 0.00D+00
 Harris functional with IExCor= 1009 and IRadAn=  199590 diagonalized for initial guess.
 HarFok:  IExCor= 1009 AccDes= 0.00D+00 IRadAn=    199590 IDoV= 1 UseB2=F ITyADJ=14
 ICtDFT=  3500011 ScaDFX=  1.000000  1.000000  1.000000  1.000000
 FoFCou: FMM=F IPFlag=           0 FMFlag=      100000 FMFlg1=           0
         NFxFlg=           0 DoJE=T BraDBF=F KetDBF=T FulRan=T
         wScrn=  0.000000 ICntrl=     500 IOpCl=  0 I1Cent=   200000004 NGrid=           0
         NMat0=    1 NMatS0=      1 NMatT0=    0 NMatD0=    1 NMtDS0=    0 NMtDT0=    0
 Petite list used in FoFCou.
 Harris En= -613.559472306133    
 JPrj=0 DoOrth=F DoCkMO=F.
 Leave Link  401 at Wed Jun 18 01:32:37 2014, MaxMem=  4294967296 cpu:       265.6
 (Enter /home/ztw1e12/g09/l502.exe)
 Closed shell SCF:
 Using DIIS extrapolation, IDIIS=  1040.
 Integral symmetry usage will be decided dynamically.
 IVT=     3801329 IEndB=     3801329 NGot=  4294967296 MDV=  4292435888
 LenX=  4292435888 LenY=  4291182608
 Requested convergence on RMS density matrix=1.00D-08 within 128 cycles.
 Requested convergence on MAX density matrix=1.00D-06.
 Requested convergence on             energy=1.00D-06.
 No special actions if energy rises.
 Fock matrices will be formed incrementally for  20 cycles.
 Integral accuracy reduced to 1.0D-05 until final iterations.

 Cycle   1  Pass 0  IDiag  1:
 FoFJK:  IHMeth= 1 ICntrl=       0 DoSepK=F KAlg= 0 I1Cent=   0 FoldK=F
 IRaf= 490000000 NMat=   1 IRICut=       1 DoRegI=T DoRafI=F ISym2E= 0.
 FoFCou: FMM=F IPFlag=           0 FMFlag=      100000 FMFlg1=           0
         NFxFlg=           0 DoJE=F BraDBF=F KetDBF=F FulRan=T
         wScrn=  0.000000 ICntrl=       0 IOpCl=  0 I1Cent=           0 NGrid=           0
         NMat0=    1 NMatS0=      1 NMatT0=    0 NMatD0=    1 NMtDS0=    0 NMtDT0=    0
 Symmetry not used in FoFCou.
 E= -613.180579666220    
 DIIS: error= 1.24D-01 at cycle   1 NSaved=   1.
 NSaved= 1 IEnMin= 1 EnMin= -613.180579666220     IErMin= 1 ErrMin= 1.24D-01
 ErrMax= 1.24D-01  0.00D+00 EMaxC= 1.00D-01 BMatC= 1.30D+01 BMatP= 1.30D+01
 IDIUse=3 WtCom= 0.00D+00 WtEn= 1.00D+00
 Coeff-Com:  0.100D+01
 Coeff-En:   0.100D+01
 Coeff:      0.100D+01
 Gap=     0.288 Goal=   None    Shift=    0.000
 GapD=    0.288 DampG=1.000 DampE=0.250 DampFc=0.2500 IDamp=-1.
 Damping current iteration by 2.50D-01
 RMSDP=2.09D-03 MaxDP=3.02D-01              OVMax= 2.85D-01

 Cycle   2  Pass 0  IDiag  1:
 RMSU=  5.23D-04    CP:  1.01D+00
 E= -613.337001927034     Delta-E=       -0.156422260813 Rises=F Damp=T
 DIIS: error= 9.46D-02 at cycle   2 NSaved=   2.
 NSaved= 2 IEnMin= 2 EnMin= -613.337001927034     IErMin= 2 ErrMin= 9.46D-02
 ErrMax= 9.46D-02  0.00D+00 EMaxC= 1.00D-01 BMatC= 7.66D+00 BMatP= 1.30D+01
 IDIUse=3 WtCom= 5.42D-02 WtEn= 9.46D-01
 Coeff-Com: -0.279D+01 0.379D+01
 Coeff-En:   0.000D+00 0.100D+01
 Coeff:     -0.151D+00 0.115D+01
 Gap=     0.235 Goal=   None    Shift=    0.000
 RMSDP=5.27D-04 MaxDP=4.47D-02 DE=-1.56D-01 OVMax= 1.43D-01

 Cycle   3  Pass 0  IDiag  1:
 RMSU=  4.40D-04    CP:  1.03D+00  1.55D+00
 E= -613.562495089504     Delta-E=       -0.225493162470 Rises=F Damp=F
 DIIS: error= 1.33D-02 at cycle   3 NSaved=   3.
 NSaved= 3 IEnMin= 3 EnMin= -613.562495089504     IErMin= 3 ErrMin= 1.33D-02
 ErrMax= 1.33D-02  0.00D+00 EMaxC= 1.00D-01 BMatC= 1.72D-01 BMatP= 7.66D+00
 IDIUse=3 WtCom= 8.67D-01 WtEn= 1.33D-01
 Coeff-Com:  0.716D+00-0.100D+01 0.129D+01
 Coeff-En:   0.194D-01 0.000D+00 0.981D+00
 Coeff:      0.623D+00-0.869D+00 0.125D+01
 Gap=     0.250 Goal=   None    Shift=    0.000
 RMSDP=3.70D-04 MaxDP=3.14D-02 DE=-2.25D-01 OVMax= 7.57D-02

 Cycle   4  Pass 0  IDiag  1:
 RMSU=  3.07D-04    CP:  1.03D+00  1.21D+00  7.64D-01
 E= -613.533633202784     Delta-E=        0.028861886720 Rises=F Damp=F
 DIIS: error= 8.74D-03 at cycle   4 NSaved=   4.
 NSaved= 4 IEnMin= 3 EnMin= -613.562495089504     IErMin= 4 ErrMin= 8.74D-03
 ErrMax= 8.74D-03  0.00D+00 EMaxC= 1.00D-01 BMatC= 1.10D-01 BMatP= 1.72D-01
 IDIUse=3 WtCom= 9.13D-01 WtEn= 8.74D-02
 Coeff-Com:  0.507D+00-0.709D+00 0.687D+00 0.515D+00
 Coeff-En:   0.000D+00 0.000D+00 0.612D+00 0.388D+00
 Coeff:      0.463D+00-0.647D+00 0.680D+00 0.504D+00
 Gap=     0.279 Goal=   None    Shift=    0.000
 RMSDP=2.84D-04 MaxDP=2.60D-02 DE= 2.89D-02 OVMax= 7.92D-02

 Cycle   5  Pass 0  IDiag  1:
 RMSU=  7.28D-05    CP:  1.02D+00  1.12D+00  8.64D-01  1.31D-01
 E= -613.614138463201     Delta-E=       -0.080505260417 Rises=F Damp=F
 DIIS: error= 2.89D-03 at cycle   5 NSaved=   5.
 NSaved= 5 IEnMin= 5 EnMin= -613.614138463201     IErMin= 5 ErrMin= 2.89D-03
 ErrMax= 2.89D-03  0.00D+00 EMaxC= 1.00D-01 BMatC= 1.08D-02 BMatP= 1.10D-01
 IDIUse=3 WtCom= 9.71D-01 WtEn= 2.89D-02
 Coeff-Com:  0.455D-01-0.697D-01 0.742D-01 0.235D+00 0.715D+00
 Coeff-En:   0.000D+00 0.000D+00 0.000D+00 0.389D-01 0.961D+00
 Coeff:      0.442D-01-0.677D-01 0.720D-01 0.230D+00 0.722D+00
 Gap=     0.266 Goal=   None    Shift=    0.000
 RMSDP=1.23D-04 MaxDP=1.71D-02 DE=-8.05D-02 OVMax= 2.55D-02

 Cycle   6  Pass 0  IDiag  1:
 RMSU=  5.10D-05    CP:  1.03D+00  1.18D+00  9.39D-01  4.33D-01  3.81D-01
 E= -613.620389350806     Delta-E=       -0.006250887605 Rises=F Damp=F
 DIIS: error= 7.39D-04 at cycle   6 NSaved=   6.
 NSaved= 6 IEnMin= 6 EnMin= -613.620389350806     IErMin= 6 ErrMin= 7.39D-04
 ErrMax= 7.39D-04  0.00D+00 EMaxC= 1.00D-01 BMatC= 8.65D-04 BMatP= 1.08D-02
 IDIUse=3 WtCom= 9.93D-01 WtEn= 7.39D-03
 Coeff-Com:  0.183D-01-0.255D-01-0.102D-03 0.582D-01 0.271D+00 0.678D+00
 Coeff-En:   0.000D+00 0.000D+00 0.000D+00 0.000D+00 0.664D-02 0.993D+00
 Coeff:      0.182D-01-0.253D-01-0.101D-03 0.578D-01 0.269D+00 0.680D+00
 Gap=     0.266 Goal=   None    Shift=    0.000
 RMSDP=2.76D-05 MaxDP=3.19D-03 DE=-6.25D-03 OVMax= 7.12D-03

 Cycle   7  Pass 0  IDiag  1:
 RMSU=  2.01D-05    CP:  1.03D+00  1.15D+00  9.32D-01  4.26D-01  5.63D-01
                    CP:  9.49D-01
 E= -613.620873155915     Delta-E=       -0.000483805109 Rises=F Damp=F
 DIIS: error= 4.21D-04 at cycle   7 NSaved=   7.
 NSaved= 7 IEnMin= 7 EnMin= -613.620873155915     IErMin= 7 ErrMin= 4.21D-04
 ErrMax= 4.21D-04  0.00D+00 EMaxC= 1.00D-01 BMatC= 2.01D-04 BMatP= 8.65D-04
 IDIUse=3 WtCom= 9.96D-01 WtEn= 4.21D-03
 Coeff-Com:  0.148D-01-0.197D-01-0.174D-03 0.167D-01 0.905D-01 0.385D+00
 Coeff-Com:  0.513D+00
 Coeff-En:   0.000D+00 0.000D+00 0.000D+00 0.000D+00 0.000D+00 0.158D+00
 Coeff-En:   0.842D+00
 Coeff:      0.147D-01-0.196D-01-0.173D-03 0.166D-01 0.901D-01 0.384D+00
 Coeff:      0.514D+00
 Gap=     0.266 Goal=   None    Shift=    0.000
 RMSDP=1.04D-05 MaxDP=1.05D-03 DE=-4.84D-04 OVMax= 2.65D-03

 Cycle   8  Pass 0  IDiag  1:
 RMSU=  6.43D-06    CP:  1.03D+00  1.15D+00  9.36D-01  4.36D-01  5.47D-01
                    CP:  1.01D+00  6.68D-01
 E= -613.621009260978     Delta-E=       -0.000136105064 Rises=F Damp=F
 DIIS: error= 1.31D-04 at cycle   8 NSaved=   8.
 NSaved= 8 IEnMin= 8 EnMin= -613.621009260978     IErMin= 8 ErrMin= 1.31D-04
 ErrMax= 1.31D-04  0.00D+00 EMaxC= 1.00D-01 BMatC= 1.88D-05 BMatP= 2.01D-04
 IDIUse=3 WtCom= 9.99D-01 WtEn= 1.31D-03
 Coeff-Com:  0.864D-02-0.115D-01 0.115D-02 0.428D-02 0.275D-01 0.172D+00
 Coeff-Com:  0.305D+00 0.493D+00
 Coeff-En:   0.000D+00 0.000D+00 0.000D+00 0.000D+00 0.000D+00 0.000D+00
 Coeff-En:   0.000D+00 0.100D+01
 Coeff:      0.863D-02-0.115D-01 0.115D-02 0.428D-02 0.275D-01 0.172D+00
 Coeff:      0.305D+00 0.493D+00
 Gap=     0.265 Goal=   None    Shift=    0.000
 RMSDP=4.35D-06 MaxDP=5.31D-04 DE=-1.36D-04 OVMax= 1.06D-03

 Initial convergence to 1.0D-05 achieved.  Increase integral accuracy.
 Cycle   9  Pass 1  IDiag  1:
 E= -613.621025614377     Delta-E=       -0.000016353398 Rises=F Damp=F
 DIIS: error= 8.08D-05 at cycle   1 NSaved=   1.
 NSaved= 1 IEnMin= 1 EnMin= -613.621025614377     IErMin= 1 ErrMin= 8.08D-05
 ErrMax= 8.08D-05  0.00D+00 EMaxC= 1.00D-01 BMatC= 8.15D-06 BMatP= 8.15D-06
 IDIUse=1 WtCom= 1.00D+00 WtEn= 0.00D+00
 Coeff-Com:  0.100D+01
 Coeff:      0.100D+01
 Gap=     0.266 Goal=   None    Shift=    0.000
 RMSDP=4.35D-06 MaxDP=5.31D-04 DE=-1.64D-05 OVMax= 9.75D-04

 Cycle  10  Pass 1  IDiag  1:
 RMSU=  2.25D-05    CP:  1.00D+00
 E= -613.621025145348     Delta-E=        0.000000469029 Rises=F Damp=F
 DIIS: error= 7.85D-05 at cycle   2 NSaved=   2.
 NSaved= 2 IEnMin= 1 EnMin= -613.621025614377     IErMin= 2 ErrMin= 7.85D-05
 ErrMax= 7.85D-05  0.00D+00 EMaxC= 1.00D-01 BMatC= 7.12D-06 BMatP= 8.15D-06
 IDIUse=1 WtCom= 1.00D+00 WtEn= 0.00D+00
 Coeff-Com:  0.477D+00 0.523D+00
 Coeff:      0.477D+00 0.523D+00
 Gap=     0.265 Goal=   None    Shift=    0.000
 RMSDP=3.19D-06 MaxDP=3.97D-04 DE= 4.69D-07 OVMax= 1.01D-03

 Cycle  11  Pass 1  IDiag  1:
 RMSU=  3.18D-06    CP:  1.00D+00  9.93D-01
 E= -613.621028517635     Delta-E=       -0.000003372287 Rises=F Damp=F
 DIIS: error= 5.26D-05 at cycle   3 NSaved=   3.
 NSaved= 3 IEnMin= 3 EnMin= -613.621028517635     IErMin= 3 ErrMin= 5.26D-05
 ErrMax= 5.26D-05  0.00D+00 EMaxC= 1.00D-01 BMatC= 2.54D-06 BMatP= 7.12D-06
 IDIUse=1 WtCom= 1.00D+00 WtEn= 0.00D+00
 Coeff-Com:  0.301D-01 0.370D+00 0.600D+00
 Coeff:      0.301D-01 0.370D+00 0.600D+00
 Gap=     0.266 Goal=   None    Shift=    0.000
 RMSDP=1.26D-06 MaxDP=1.48D-04 DE=-3.37D-06 OVMax= 3.87D-04

 Cycle  12  Pass 1  IDiag  1:
 RMSU=  4.37D-07    CP:  1.00D+00  1.01D+00  6.46D-01
 E= -613.621030276629     Delta-E=       -0.000001758995 Rises=F Damp=F
 DIIS: error= 1.10D-05 at cycle   4 NSaved=   4.
 NSaved= 4 IEnMin= 4 EnMin= -613.621030276629     IErMin= 4 ErrMin= 1.10D-05
 ErrMax= 1.10D-05  0.00D+00 EMaxC= 1.00D-01 BMatC= 9.40D-08 BMatP= 2.54D-06
 IDIUse=1 WtCom= 1.00D+00 WtEn= 0.00D+00
 Coeff-Com:  0.273D-03 0.188D+00 0.334D+00 0.478D+00
 Coeff:      0.273D-03 0.188D+00 0.334D+00 0.478D+00
 Gap=     0.266 Goal=   None    Shift=    0.000
 RMSDP=2.14D-07 MaxDP=2.05D-05 DE=-1.76D-06 OVMax= 5.11D-05

 Cycle  13  Pass 1  IDiag  1:
 RMSU=  1.33D-07    CP:  1.00D+00  1.01D+00  6.49D-01  6.22D-01
 E= -613.621030347091     Delta-E=       -0.000000070461 Rises=F Damp=F
 DIIS: error= 1.33D-06 at cycle   5 NSaved=   5.
 NSaved= 5 IEnMin= 5 EnMin= -613.621030347091     IErMin= 5 ErrMin= 1.33D-06
 ErrMax= 1.33D-06  0.00D+00 EMaxC= 1.00D-01 BMatC= 2.69D-09 BMatP= 9.40D-08
 IDIUse=1 WtCom= 1.00D+00 WtEn= 0.00D+00
 Coeff-Com: -0.176D-02 0.609D-01 0.112D+00 0.214D+00 0.615D+00
 Coeff:     -0.176D-02 0.609D-01 0.112D+00 0.214D+00 0.615D+00
 Gap=     0.266 Goal=   None    Shift=    0.000
 RMSDP=3.92D-08 MaxDP=4.80D-06 DE=-7.05D-08 OVMax= 7.64D-06

 Cycle  14  Pass 1  IDiag  1:
 RMSU=  2.71D-08    CP:  1.00D+00  1.01D+00  6.50D-01  6.84D-01  9.55D-01
 E= -613.621030348637     Delta-E=       -0.000000001547 Rises=F Damp=F
 DIIS: error= 4.29D-07 at cycle   6 NSaved=   6.
 NSaved= 6 IEnMin= 6 EnMin= -613.621030348637     IErMin= 6 ErrMin= 4.29D-07
 ErrMax= 4.29D-07  0.00D+00 EMaxC= 1.00D-01 BMatC= 1.53D-10 BMatP= 2.69D-09
 IDIUse=1 WtCom= 1.00D+00 WtEn= 0.00D+00
 Coeff-Com: -0.783D-03 0.191D-01 0.352D-01 0.760D-01 0.275D+00 0.595D+00
 Coeff:     -0.783D-03 0.191D-01 0.352D-01 0.760D-01 0.275D+00 0.595D+00
 Gap=     0.266 Goal=   None    Shift=    0.000
 RMSDP=1.37D-08 MaxDP=1.26D-06 DE=-1.55D-09 OVMax= 3.64D-06

 Cycle  15  Pass 1  IDiag  1:
 RMSU=  9.67D-09    CP:  1.00D+00  1.01D+00  6.50D-01  6.92D-01  9.83D-01
                    CP:  7.02D-01
 E= -613.621030348729     Delta-E=       -0.000000000092 Rises=F Damp=F
 DIIS: error= 1.98D-07 at cycle   7 NSaved=   7.
 NSaved= 7 IEnMin= 7 EnMin= -613.621030348729     IErMin= 7 ErrMin= 1.98D-07
 ErrMax= 1.98D-07  0.00D+00 EMaxC= 1.00D-01 BMatC= 4.63D-11 BMatP= 1.53D-10
 IDIUse=1 WtCom= 1.00D+00 WtEn= 0.00D+00
 Coeff-Com: -0.135D-03-0.390D-03-0.526D-03 0.388D-02 0.435D-01 0.366D+00
 Coeff-Com:  0.587D+00
 Coeff:     -0.135D-03-0.390D-03-0.526D-03 0.388D-02 0.435D-01 0.366D+00
 Coeff:      0.587D+00
 Gap=     0.266 Goal=   None    Shift=    0.000
 RMSDP=8.46D-09 MaxDP=1.25D-06 DE=-9.21D-11 OVMax= 1.72D-06

 Cycle  16  Pass 1  IDiag  1:
 RMSU=  4.98D-09    CP:  1.00D+00  1.01D+00  6.50D-01  7.00D-01  1.01D+00
                    CP:  8.37D-01  6.68D-01
 E= -613.621030348777     Delta-E=       -0.000000000048 Rises=F Damp=F
 DIIS: error= 8.11D-08 at cycle   8 NSaved=   8.
 NSaved= 8 IEnMin= 8 EnMin= -613.621030348777     IErMin= 8 ErrMin= 8.11D-08
 ErrMax= 8.11D-08  0.00D+00 EMaxC= 1.00D-01 BMatC= 7.10D-12 BMatP= 4.63D-11
 IDIUse=1 WtCom= 1.00D+00 WtEn= 0.00D+00
 Coeff-Com:  0.133D-04-0.263D-02-0.469D-02-0.684D-02-0.663D-02 0.156D+00
 Coeff-Com:  0.359D+00 0.505D+00
 Coeff:      0.133D-04-0.263D-02-0.469D-02-0.684D-02-0.663D-02 0.156D+00
 Coeff:      0.359D+00 0.505D+00
 Gap=     0.266 Goal=   None    Shift=    0.000
 RMSDP=2.45D-09 MaxDP=2.27D-07 DE=-4.82D-11 OVMax= 6.35D-07

 SCF Done:  E(RM06) =  -613.621030349     A.U. after   16 cycles
            NFock= 16  Conv=0.24D-08     -V/T= 2.0046
 KE= 6.107919051287D+02 PE=-3.193486207313D+03 EE= 1.088036325470D+03
 Leave Link  502 at Wed Jun 18 02:00:49 2014, MaxMem=  4294967296 cpu:     26999.3
 (Enter /home/ztw1e12/g09/l801.exe)
 DoSCS=F DFT=T ScalE2(SS,OS)=  1.000000  1.000000
 Range of M.O.s used for correlation:     1   932
 NBasis=  1036 NAE=    51 NBE=    51 NFC=     0 NFV=     0
 NROrb=    932 NOA=    51 NOB=    51 NVA=   881 NVB=   881

 **** Warning!!: The largest alpha MO coefficient is  0.10034559D+02

 Leave Link  801 at Wed Jun 18 02:00:49 2014, MaxMem=  4294967296 cpu:         0.4
 (Enter /home/ztw1e12/g09/l1002.exe)
 Minotr:  Closed shell wavefunction.
          IDoAtm=1111111111111111111111111111111
          Direct CPHF calculation.
          Differentiating once with respect to Fermi-contact.
          Electric field/nuclear overlap derivatives assumed to be zero.
          Requested convergence is 1.0D-10 RMS, and 1.0D-09 maximum.
          Secondary convergence is 1.0D-12 RMS, and 1.0D-12 maximum.
          NewPWx=T KeepS1=F KeepF1=F KeepIn=T MapXYZ=F SortEE=F KeepMc=T.
          MDV=    4294966050 using IRadAn=  199590.
 Using stored XC quadrature information.
          Solving linear equations simultaneously, MaxMat=       0.
          There are    31 degrees of freedom in the 1st order CPHF.  IDoFFX=0 NUNeed=    31.
     31 vectors produced by pass  0 Test12= 1.45D-17 3.23D-11 XBig12= 4.16D+01 2.57D+00.
 AX will form    31 AO Fock derivatives at one time.
 FoFJK:  IHMeth= 1 ICntrl=       0 DoSepK=F KAlg= 0 I1Cent=   0 FoldK=F
 IRaf= 510000000 NMat=  31 IRICut=       1 DoRegI=T DoRafI=F ISym2E=-1.
 FoFCou: FMM=F IPFlag=           0 FMFlag=      100000 FMFlg1=           0
         NFxFlg=           0 DoJE=F BraDBF=F KetDBF=F FulRan=T
         wScrn=  0.000000 ICntrl=       0 IOpCl=  0 I1Cent=           0 NGrid=           0
         NMat0=   31 NMatS0=      0 NMatT0=   31 NMatD0=   31 NMtDS0=    0 NMtDT0=    0
 Petite list used in FoFCou.
     31 vectors produced by pass  1 Test12= 1.45D-17 3.23D-11 XBig12= 3.45D-01 1.76D-01.
     31 vectors produced by pass  2 Test12= 1.45D-17 3.23D-11 XBig12= 1.72D-02 4.74D-02.
     31 vectors produced by pass  3 Test12= 1.45D-17 3.23D-11 XBig12= 3.87D-04 6.49D-03.
     31 vectors produced by pass  4 Test12= 1.45D-17 3.23D-11 XBig12= 5.59D-06 9.11D-04.
     31 vectors produced by pass  5 Test12= 1.45D-17 3.23D-11 XBig12= 1.34D-07 1.63D-04.
     31 vectors produced by pass  6 Test12= 1.45D-17 3.23D-11 XBig12= 3.88D-09 1.87D-05.
     31 vectors produced by pass  7 Test12= 1.45D-17 3.23D-11 XBig12= 1.12D-10 4.21D-06.
     31 vectors produced by pass  8 Test12= 1.45D-17 3.23D-11 XBig12= 2.70D-12 3.64D-07.
     31 vectors produced by pass  9 Test12= 1.45D-17 3.23D-11 XBig12= 5.87D-14 7.25D-08.
     31 vectors produced by pass 10 Test12= 1.45D-17 3.23D-11 XBig12= 2.07D-15 7.08D-09.
     30 vectors produced by pass 11 Test12= 1.45D-17 3.23D-11 XBig12= 2.23D-17 6.27D-10.
      4 vectors produced by pass 12 Test12= 1.45D-17 3.23D-11 XBig12= 1.84D-19 4.46D-11.
 InvSVY:  IOpt=1 It=  1 EMax= 1.33D-14
 Solved reduced A of dimension   375 with    31 vectors.
 Max diff in FC couplings:  IJMax=    11     2 Diff= 5.22D-04 IJMaxR=     8     7 DiffR= 1.54D+00
 Fermi Contact (FC) contribution to K (Hz):
                1             2             3             4             5 
      1  0.123400D+11
      2  0.266894D+02  0.123400D+11
      3 -0.125272D+01  0.186249D+02  0.123400D+11
      4  0.584869D-01 -0.738355D-01 -0.122309D-01  0.123400D+11
      5 -0.138251D-02 -0.465957D-02  0.102265D-01  0.174522D+02  0.123400D+11
      6  0.565551D-02 -0.957529D-02 -0.328664D-03  0.176308D+02 -0.770605D+00
      7  0.289482D-02  0.363177D-02  0.804006D-02  0.164615D+02 -0.787671D+00
      8 -0.952176D+01  0.283083D+01  0.382074D+00  0.100702D-01 -0.233720D-03
      9 -0.162900D-01  0.183078D+02 -0.814334D+00  0.500264D+00  0.515552D-01
     10 -0.496704D-01  0.187092D+00  0.277180D+00 -0.870180D-01 -0.706460D-02
     11  0.288006D+02  0.133519D+02  0.605146D-01  0.453384D-01  0.369277D-02
     12  0.487614D+00  0.689690D-01 -0.218963D-01 -0.350814D-02 -0.387223D-03
     13 -0.408999D+00  0.979083D+00 -0.392319D-01 -0.289158D-02  0.167735D-03
     14  0.218562D+00 -0.829979D-01  0.250447D-01  0.110833D-02  0.264223D-04
     15  0.157902D+00 -0.808989D-01  0.214325D-01  0.149296D-02  0.351183D-03
     16  0.945553D+00 -0.187569D-01  0.713510D-03  0.114441D-02  0.436115D-04
     17  0.737803D-01 -0.592300D+00  0.350476D+00  0.346874D-01  0.910241D-02
     18 -0.165831D+00  0.858848D+00 -0.820688D-01 -0.504692D-02 -0.793348D-03
     19 -0.132911D-02  0.109404D+00 -0.253641D-02 -0.651132D-03  0.684025D-04
     20  0.597878D-01  0.103383D-01  0.971597D-02 -0.643978D-03 -0.669282D-04
     21  0.899983D-01  0.508131D-01  0.168823D-01 -0.723135D-03 -0.254227D-04
     22  0.435083D+00  0.919148D+00  0.166482D+00  0.113120D-01  0.556644D-03
     23  0.331972D+00 -0.747181D+00  0.113040D+01  0.172149D+02 -0.603149D+00
     24 -0.313802D-01  0.920095D+00 -0.273158D-01 -0.912716D+00  0.169643D+00
     25  0.214564D+00  0.138043D+01  0.211040D-01  0.109756D+00  0.229181D+00
     26  0.629247D-01  0.292843D-01  0.109428D-01  0.445607D+00 -0.430141D-02
     27  0.131723D-01  0.646210D-01  0.493218D-02  0.146082D+01  0.121360D-02
     28  0.293456D-01  0.787719D-01  0.237197D-02  0.274893D+00 -0.869952D-02
     29 -0.971549D-01  0.171650D+02 -0.933819D+00 -0.416522D-01  0.129956D+01
     30  0.108662D+01 -0.889217D+00  0.201294D+00  0.830532D+00  0.177667D-01
     31  0.205645D+00 -0.514189D+00  0.117154D+00  0.891842D+00  0.196053D-01
                6             7             8             9            10 
      6  0.123400D+11
      7 -0.739985D+00  0.123400D+11
      8  0.125909D-02  0.000000D+00  0.123400D+11
      9  0.611639D-02  0.362820D+00  0.394047D+00  0.123400D+11
     10  0.321730D-02 -0.397489D-01 -0.512209D-02  0.312490D+02  0.123400D+11
     11 -0.538882D-03 -0.677710D-03  0.647854D+01  0.677882D+00  0.851134D-01
     12 -0.110126D-03  0.993609D-05  0.476449D+00  0.381881D-01 -0.147002D-02
     13  0.438829D-03  0.462460D-04  0.669837D+00  0.245352D+00 -0.265459D-03
     14  0.386595D-03 -0.307264D-04  0.256402D+00 -0.744353D-02  0.479239D-03
     15  0.323643D-03  0.211242D-04  0.240658D+00 -0.516618D-02 -0.284969D-03
     16  0.179060D-04 -0.266033D-05  0.189837D+00  0.264822D-01 -0.671453D-03
     17 -0.926970D-03  0.222157D-01  0.120640D+00  0.255588D+02  0.308266D+00
     18  0.260787D-03  0.289247D-02  0.837647D-01  0.127588D+02  0.110209D+00
     19 -0.455790D-04  0.325125D-02  0.178115D-03  0.355637D+00 -0.110215D-01
     20 -0.241334D-04  0.189113D-03  0.691019D-02  0.297481D+00 -0.541223D-03
     21  0.285306D-04  0.566653D-04  0.502993D-02  0.437761D+00 -0.196653D-01
     22  0.154104D-02  0.436119D-02  0.569185D+00  0.572611D+01  0.398231D+00
     23 -0.598741D+00 -0.670251D+00  0.223887D-02  0.629102D+00 -0.209202D-01
     24  0.129726D+00  0.443346D+00  0.300485D-01  0.294284D-01  0.571160D-03
     25  0.124000D+01  0.417219D+00  0.172705D+01  0.501388D+00  0.679610D-02
     26 -0.937258D-02 -0.235648D-01  0.238545D+00  0.202701D+00 -0.166590D-01
     27  0.844506D-01 -0.100898D-01  0.196554D+00  0.108110D-01 -0.125822D-02
     28  0.929672D-02 -0.424721D-02  0.239404D+00  0.453624D-01 -0.289509D-03
     29  0.420966D+00  0.190161D+00  0.258905D+00  0.922842D+00  0.364274D+00
     30 -0.148464D-01 -0.885173D-02  0.828502D-01  0.280950D+00 -0.980297D-02
     31 -0.939722D-03 -0.171650D-01 -0.152852D-01  0.198459D+01 -0.228098D-01
               11            12            13            14            15 
     11  0.123400D+11
     12  0.312684D+02  0.123400D+11
     13  0.172425D+02  0.326023D+00  0.123400D+11
     14 -0.594588D+00  0.114889D+00  0.197772D+02  0.123400D+11
     15 -0.536413D+00  0.944509D-01  0.202421D+02 -0.733892D+00  0.123400D+11
     16 -0.391862D+00  0.289335D+00  0.182114D+02 -0.746870D+00 -0.744149D+00
     17 -0.770143D-01  0.121191D-03 -0.126795D-01  0.131082D-02  0.147633D-02
     18  0.740772D-02  0.154400D-02  0.132132D-01  0.683346D-04  0.661396D-04
     19  0.473705D-02  0.904349D-05 -0.642974D-04 -0.160981D-04  0.000000D+00
     20  0.124436D-03 -0.979308D-04 -0.329324D-03  0.485100D-04  0.168189D-04
     21  0.251003D-01 -0.752304D-04  0.324583D-02  0.373535D-04 -0.468197D-04
     22  0.189284D+00 -0.163954D-02  0.135999D-01  0.147004D-02  0.647486D-03
     23  0.229435D-01  0.216714D-02  0.942900D-03 -0.615842D-03  0.964567D-04
     24  0.754912D-02 -0.303835D-03  0.218282D-04  0.433082D-03 -0.135039D-03
     25  0.172434D+00 -0.266490D-02 -0.413611D-02  0.845290D-02  0.237647D-02
     26 -0.105642D-01  0.710995D-03  0.117838D-02 -0.319377D-03 -0.573135D-04
     27  0.392564D-01  0.437055D-03  0.132412D-01  0.727042D-02  0.103889D-02
     28  0.233994D-01 -0.521834D-03  0.196370D-02  0.108733D-02  0.883860D-03
     29  0.111888D+00 -0.242625D-01 -0.115619D+00  0.498188D-01  0.111362D+00
     30 -0.482532D-01 -0.505415D-02 -0.497288D-02  0.663221D-03  0.246614D-02
     31  0.124600D+00 -0.198524D-01  0.135587D-02 -0.384399D-03  0.612602D-03
               16            17            18            19            20 
     16  0.123400D+11
     17  0.824972D-04  0.123400D+11
     18  0.278433D-03  0.273743D+02  0.123400D+11
     19  0.133116D-04 -0.758344D+00  0.170476D+02  0.123400D+11
     20  0.861147D-04 -0.117942D+01  0.179348D+02 -0.719761D+00  0.123400D+11
     21  0.293782D-03 -0.120727D+01  0.179416D+02 -0.743864D+00 -0.923525D+00
     22  0.107347D-02 -0.943797D+01  0.379461D+01  0.834086D+00  0.434853D+00
     23 -0.555963D-03 -0.520559D-01  0.255318D-01 -0.163078D-02 -0.120104D-02
     24  0.420303D-04  0.126725D-01  0.144374D-04  0.122601D-02  0.681572D-03
     25  0.131625D-02  0.302661D-01 -0.553767D-02 -0.739986D-03  0.124582D-02
     26  0.216150D-04  0.181756D-01  0.102806D-02  0.454721D-03  0.115182D-03
     27  0.503697D-03  0.776900D-03  0.166773D-03  0.539392D-04 -0.355608D-04
     28  0.198210D-03  0.303743D-02 -0.354391D-03 -0.376238D-04  0.902954D-04
     29  0.700413D-02  0.139803D+01 -0.311958D-01 -0.253644D-02  0.223916D-01
     30  0.655112D-03 -0.253436D-01  0.407022D-02  0.116276D-03 -0.682086D-03
     31  0.863208D-03  0.106287D+00  0.661312D-01  0.182347D-03  0.276994D-02
               21            22            23            24            25 
     21  0.123400D+11
     22  0.447548D+00  0.123400D+11
     23 -0.791791D-03  0.123613D+00  0.123400D+11
     24 -0.611743D-04  0.945759D-02  0.168317D+02  0.123400D+11
     25  0.668650D-03  0.600564D-01  0.169569D+02 -0.928280D+00  0.123400D+11
     26  0.195205D-03 -0.300827D-03 -0.748221D+00  0.433425D+00  0.174848D+02
     27  0.974957D-04  0.904080D-03 -0.562133D+00  0.123027D+00  0.173664D+02
     28  0.125756D-03  0.999647D-03 -0.671989D+00  0.169506D+00  0.167981D+02
     29 -0.598657D-02  0.137724D+00  0.171795D+02 -0.902122D+00 -0.129360D+00
     30 -0.491346D-03  0.204348D-04 -0.611412D+00  0.260426D-01  0.778905D+00
     31 -0.217860D-02 -0.874430D-03 -0.671594D+00  0.325596D+00  0.958844D-02
               26            27            28            29            30 
     26  0.123400D+11
     27 -0.782717D+00  0.123400D+11
     28 -0.846783D+00 -0.839344D+00  0.123400D+11
     29  0.269552D+00  0.232508D+00  0.123117D+01  0.123400D+11
     30 -0.121822D-01 -0.443731D-02  0.257267D-01  0.176873D+02  0.123400D+11
     31 -0.520620D-02 -0.783400D-02 -0.211436D-01  0.166853D+02 -0.917058D+00
               31 
     31  0.123400D+11
 Fermi Contact (FC) contribution to J (Hz):
                1             2             3             4             5 
      1  0.243533D+11
      2  0.526722D+02  0.243533D+11
      3 -0.983001D+01  0.146148D+03  0.385007D+12
      4  0.115425D+00 -0.145716D+00 -0.959744D-01  0.243533D+11
      5 -0.108484D-01 -0.365632D-01  0.319067D+00  0.136946D+03  0.385007D+12
      6  0.443782D-01 -0.751363D-01 -0.102543D-01  0.138347D+03 -0.240428D+02
      7  0.227154D-01  0.284982D-01  0.250850D+00  0.129171D+03 -0.245753D+02
      8  0.101329D+02 -0.301251D+01 -0.161666D+01 -0.107165D-01  0.988932D-03
      9 -0.923992D-02  0.103844D+02 -0.183655D+01  0.283756D+00  0.116272D+00
     10 -0.389759D+00  0.146810D+01  0.864799D+01 -0.682822D+00 -0.220415D+00
     11  0.163360D+02  0.757337D+01  0.136478D+00  0.257165D-01  0.832825D-02
     12  0.382626D+01  0.541193D+00 -0.683162D+00 -0.275280D-01 -0.120813D-01
     13 -0.807169D+00  0.193224D+01 -0.307849D+00 -0.570660D-02  0.131620D-02
     14  0.171504D+01 -0.651277D+00  0.781393D+00  0.869696D-02  0.824373D-03
     15  0.123904D+01 -0.634806D+00  0.668692D+00  0.117151D-01  0.109569D-01
     16  0.741966D+01 -0.147183D+00  0.222615D-01  0.898007D-02  0.136068D-02
     17  0.145607D+00 -0.116892D+01  0.275015D+01  0.684565D-01  0.714257D-01
     18 -0.327273D+00  0.169496D+01 -0.643986D+00 -0.996023D-02 -0.622532D-02
     19 -0.104294D-01  0.858486D+00 -0.791358D-01 -0.510937D-02  0.213415D-02
     20  0.469149D+00  0.811240D-01  0.303138D+00 -0.505323D-02 -0.208816D-02
     21  0.706208D+00  0.398726D+00  0.526728D+00 -0.567437D-02 -0.793186D-03
     22 -0.463007D+00 -0.978140D+00 -0.704430D+00 -0.120380D-01 -0.235531D-02
     23  0.655155D+00 -0.147458D+01  0.887015D+01  0.339741D+02 -0.473285D+01
     24 -0.246238D+00  0.721990D+01 -0.852250D+00 -0.716200D+01  0.529287D+01
     25  0.423447D+00  0.272431D+01  0.165601D+00  0.216606D+00  0.179836D+01
     26  0.493764D+00  0.229791D+00  0.341416D+00  0.349664D+01 -0.134204D+00
     27  0.103362D+00  0.507075D+00  0.153884D+00  0.114629D+02  0.378643D-01
     28  0.230272D+00  0.618115D+00  0.740054D-01  0.215706D+01 -0.271425D+00
     29 -0.191738D+00  0.338756D+02 -0.732759D+01 -0.822017D-01  0.101976D+02
     30  0.852663D+01 -0.697760D+01  0.628035D+01  0.651710D+01  0.554322D+00
     31  0.161368D+01 -0.403479D+01  0.365520D+01  0.699819D+01  0.611685D+00
                6             7             8             9            10 
      6  0.385007D+12
      7 -0.230875D+02  0.385007D+12
      8 -0.532754D-02 -0.406881D-05  0.708114D+10
      9  0.137942D-01  0.818263D+00 -0.120522D+00  0.201170D+10
     10  0.100380D+00 -0.124016D+01  0.216729D-01  0.704753D+02  0.385007D+12
     11 -0.121533D-02 -0.152843D-02 -0.198151D+01  0.110510D+00  0.191955D+00
     12 -0.343594D-02  0.310006D-03 -0.201598D+01  0.861251D-01 -0.458646D-01
     13  0.344345D-02  0.362888D-03 -0.712828D+00  0.139167D+00 -0.208303D-02
     14  0.120617D-01 -0.958661D-03 -0.108491D+01 -0.167873D-01  0.149522D-01
     15  0.100977D-01  0.659073D-03 -0.101829D+01 -0.116512D-01 -0.889102D-02
     16  0.558665D-03 -0.830022D-04 -0.803254D+00  0.597249D-01 -0.209493D-01
     17 -0.727385D-02  0.174324D+00 -0.128383D+00  0.144972D+02  0.241893D+01
     18  0.204637D-02  0.226970D-01 -0.891408D-01  0.723695D+01  0.864802D+00
     19 -0.142206D-02  0.101439D+00 -0.753654D-03  0.802063D+00 -0.343870D+00
     20 -0.752962D-03  0.590033D-02 -0.292389D-01  0.670904D+00 -0.168861D-01
     21  0.890154D-03  0.176795D-02 -0.212830D-01  0.987275D+00 -0.613557D+00
     22 -0.652056D-02 -0.184534D-01  0.326619D+00 -0.175137D+01 -0.168503D+01
     23 -0.469826D+01 -0.525939D+01 -0.238256D-02  0.356834D+00 -0.164159D+00
     24  0.404744D+01  0.138324D+02 -0.127143D+00  0.663694D-01  0.178202D-01
     25  0.973017D+01  0.327388D+01 -0.183790D+01  0.284394D+00  0.533283D-01
     26 -0.292424D+00 -0.735222D+00 -0.100935D+01  0.457149D+00 -0.519759D+00
     27  0.263485D+01 -0.314800D+00 -0.831673D+00  0.243819D-01 -0.392564D-01
     28  0.290057D+00 -0.132513D+00 -0.101298D+01  0.102305D+00 -0.903266D-02
     29  0.330328D+01  0.149217D+01 -0.275521D+00  0.523448D+00  0.285842D+01
     30 -0.463205D+00 -0.276174D+00 -0.350562D+00  0.633622D+00 -0.305852D+00
     31 -0.293193D-01 -0.535546D+00  0.646758D-01  0.447581D+01 -0.711663D+00
               11            12            13            14            15 
     11  0.201170D+10
     12  0.705191D+02  0.385007D+12
     13  0.978018D+01  0.255827D+01  0.243533D+11
     14 -0.134097D+01  0.358453D+01  0.155190D+03  0.385007D+12
     15 -0.120976D+01  0.294686D+01  0.158838D+03 -0.228974D+02  0.385007D+12
     16 -0.883760D+00  0.902725D+01  0.142903D+03 -0.233023D+02 -0.232174D+02
     17 -0.436835D-01  0.950974D-03 -0.250233D-01  0.102859D-01  0.115846D-01
     18  0.420175D-02  0.121156D-01  0.260766D-01  0.536215D-03  0.518991D-03
     19  0.106834D-01  0.282156D-03 -0.504535D-03 -0.502261D-03 -0.101458D-04
     20  0.280638D-03 -0.305544D-02 -0.258418D-02  0.151351D-02  0.524748D-03
     21  0.566084D-01 -0.234718D-02  0.254697D-01  0.116543D-02 -0.146077D-02
     22 -0.578938D-01  0.693736D-02 -0.144728D-01 -0.622013D-02 -0.273969D-02
     23  0.130138D-01  0.170053D-01  0.186084D-02 -0.483245D-02  0.756887D-03
     24  0.170254D-01 -0.947964D-02  0.171284D-03  0.135121D-01 -0.421322D-02
     25  0.978067D-01 -0.209112D-01 -0.816272D-02  0.663291D-01  0.186479D-01
     26 -0.238253D-01  0.221830D-01  0.924662D-02 -0.996454D-02 -0.178818D-02
     27  0.885344D-01  0.136361D-01  0.103902D+00  0.226837D+00  0.324134D-01
     28  0.527723D-01 -0.162812D-01  0.154090D-01  0.339246D-01  0.275764D-01
     29  0.634645D-01 -0.190385D+00 -0.228176D+00  0.390924D+00  0.873850D+00
     30 -0.108825D+00 -0.157689D+00 -0.390217D-01  0.206925D-01  0.769436D-01
     31  0.281009D+00 -0.619395D+00  0.106394D-01 -0.119932D-01  0.191132D-01
               16            17            18            19            20 
     16  0.385007D+12
     17  0.647348D-03  0.243533D+11
     18  0.218483D-02  0.540239D+02  0.243533D+11
     19  0.415320D-03 -0.595065D+01  0.133771D+03  0.385007D+12
     20  0.268677D-02 -0.925478D+01  0.140733D+03 -0.224565D+02  0.385007D+12
     21  0.916597D-02 -0.947333D+01  0.140786D+03 -0.232085D+02 -0.288139D+02
     22 -0.454213D-02  0.100437D+02 -0.403815D+01 -0.352925D+01 -0.183998D+01
     23 -0.436259D-02 -0.102734D+00  0.503877D-01 -0.127966D-01 -0.942441D-02
     24  0.131134D-02  0.994398D-01  0.113289D-03  0.382516D-01  0.212650D-01
     25  0.103285D-01  0.597309D-01 -0.109287D-01 -0.580660D-02  0.977580D-02
     26  0.674388D-03  0.142622D+00  0.806709D-02  0.141873D-01  0.359367D-02
     27  0.157153D-01  0.609626D-02  0.130865D-02  0.168290D-02 -0.110950D-02
     28  0.618415D-02  0.238344D-01 -0.278087D-02 -0.117386D-02  0.281721D-02
     29  0.549607D-01  0.275905D+01 -0.615657D-01 -0.199032D-01  0.175705D+00
     30  0.204395D-01 -0.198868D+00  0.319387D-01  0.362781D-02 -0.212811D-01
     31  0.269321D-01  0.834023D+00  0.518925D+00  0.568923D-02  0.864220D-01
               21            22            23            24            25 
     21  0.385007D+12
     22 -0.189370D+01  0.708114D+10
     23 -0.621311D-02 -0.131546D+00  0.243533D+11
     24 -0.190863D-02 -0.400177D-01  0.132076D+03  0.385007D+12
     25  0.524683D-02 -0.639108D-01  0.334649D+02 -0.728412D+01  0.243533D+11
     26  0.609040D-02  0.127288D-02 -0.587122D+01  0.135228D+02  0.137202D+03
     27  0.304186D-02 -0.382541D-02 -0.441100D+01  0.383843D+01  0.136273D+03
     28  0.392358D-02 -0.422978D-02 -0.527303D+01  0.528859D+01  0.131813D+03
     29 -0.469760D-01 -0.146563D+00  0.339041D+02 -0.707886D+01 -0.255296D+00
     30 -0.153300D-01 -0.864653D-04 -0.479769D+01  0.812529D+00  0.611199D+01
     31 -0.679723D-01  0.369995D-02 -0.526993D+01  0.101586D+02  0.752396D-01
               26            27            28            29            30 
     26  0.385007D+12
     27 -0.244208D+02  0.385007D+12
     28 -0.264196D+02 -0.261875D+02  0.385007D+12
     29  0.211515D+01  0.182447D+01  0.966091D+01  0.243533D+11
     30 -0.380083D+00 -0.138444D+00  0.802671D+00  0.138791D+03  0.385007D+12
     31 -0.162433D+00 -0.244420D+00 -0.659680D+00  0.130928D+03 -0.286122D+02
               31 
     31  0.385007D+12
 End of Minotr F.D. properties file   721 does not exist.
 End of Minotr F.D. properties file   722 does not exist.
 End of Minotr F.D. properties file   788 does not exist.
 Leave Link 1002 at Wed Jun 18 08:44:26 2014, MaxMem=  4294967296 cpu:    386526.5
 (Enter /home/ztw1e12/g09/l601.exe)
 Copying SCF densities to generalized density rwf, IOpCl= 0 IROHF=0.

 **********************************************************************

            Population analysis using the SCF density.

 **********************************************************************

 Orbital symmetries:
       Occupied  (A) (A) (A) (A) (A) (A) (A) (A) (A) (A) (A) (A)
                 (A) (A) (A) (A) (A) (A) (A) (A) (A) (A) (A) (A)
                 (A) (A) (A) (A) (A) (A) (A) (A) (A) (A) (A) (A)
                 (A) (A) (A) (A) (A) (A) (A) (A) (A) (A) (A) (A)
                 (A) (A) (A)
       Virtual   (A) (A) (A) (A) (A) (A) (A) (A) (A) (A) (A) (A)
                 (A) (A) (A) (A) (A) (A) (A) (A) (A) (A) (A) (A)
                 (A) (A) (A) (A) (A) (A) (A) (A) (A) (A) (A) (A)
                 (A) (A) (A) (A) (A) (A) (A) (A) (A) (A) (A) (A)
                 (A) (A) (A) (A) (A) (A) (A) (A) (A) (A) (A) (A)
                 (A) (A) (A) (A) (A) (A) (A) (A) (A) (A) (A) (A)
                 (A) (A) (A) (A) (A) (A) (A) (A) (A) (A) (A) (A)
                 (A) (A) (A) (A) (A) (A) (A) (A) (A) (A) (A) (A)
                 (A) (A) (A) (A) (A) (A) (A) (A) (A) (A) (A) (A)
                 (A) (A) (A) (A) (A) (A) (A) (A) (A) (A) (A) (A)
                 (A) (A) (A) (A) (A) (A) (A) (A) (A) (A) (A) (A)
                 (A) (A) (A) (A) (A) (A) (A) (A) (A) (A) (A) (A)
                 (A) (A) (A) (A) (A) (A) (A) (A) (A) (A) (A) (A)
                 (A) (A) (A) (A) (A) (A) (A) (A) (A) (A) (A) (A)
                 (A) (A) (A) (A) (A) (A) (A) (A) (A) (A) (A) (A)
                 (A) (A) (A) (A) (A) (A) (A) (A) (A) (A) (A) (A)
                 (A) (A) (A) (A) (A) (A) (A) (A) (A) (A) (A) (A)
                 (A) (A) (A) (A) (A) (A) (A) (A) (A) (A) (A) (A)
                 (A) (A) (A) (A) (A) (A) (A) (A) (A) (A) (A) (A)
                 (A) (A) (A) (A) (A) (A) (A) (A) (A) (A) (A) (A)
                 (A) (A) (A) (A) (A) (A) (A) (A) (A) (A) (A) (A)
                 (A) (A) (A) (A) (A) (A) (A) (A) (A) (A) (A) (A)
                 (A) (A) (A) (A) (A) (A) (A) (A) (A) (A) (A) (A)
                 (A) (A) (A) (A) (A) (A) (A) (A) (A) (A) (A) (A)
                 (A) (A) (A) (A) (A) (A) (A) (A) (A) (A) (A) (A)
                 (A) (A) (A) (A) (A) (A) (A) (A) (A) (A) (A) (A)
                 (A) (A) (A) (A) (A) (A) (A) (A) (A) (A) (A) (A)
                 (A) (A) (A) (A) (A) (A) (A) (A) (A) (A) (A) (A)
                 (A) (A) (A) (A) (A) (A) (A) (A) (A) (A) (A) (A)
                 (A) (A) (A) (A) (A) (A) (A) (A) (A) (A) (A) (A)
                 (A) (A) (A) (A) (A) (A) (A) (A) (A) (A) (A) (A)
                 (A) (A) (A) (A) (A) (A) (A) (A) (A) (A) (A) (A)
                 (A) (A) (A) (A) (A) (A) (A) (A) (A) (A) (A) (A)
                 (A) (A) (A) (A) (A) (A) (A) (A) (A) (A) (A) (A)
                 (A) (A) (A) (A) (A) (A) (A) (A) (A) (A) (A) (A)
                 (A) (A) (A) (A) (A) (A) (A) (A) (A) (A) (A) (A)
                 (A) (A) (A) (A) (A) (A) (A) (A) (A) (A) (A) (A)
                 (A) (A) (A) (A) (A) (A) (A) (A) (A) (A) (A) (A)
                 (A) (A) (A) (A) (A) (A) (A) (A) (A) (A) (A) (A)
                 (A) (A) (A) (A) (A) (A) (A) (A) (A) (A) (A) (A)
                 (A) (A) (A) (A) (A) (A) (A) (A) (A) (A) (A) (A)
                 (A) (A) (A) (A) (A) (A) (A) (A) (A) (A) (A) (A)
                 (A) (A) (A) (A) (A) (A) (A) (A) (A) (A) (A) (A)
                 (A) (A) (A) (A) (A) (A) (A) (A) (A) (A) (A) (A)
                 (A) (A) (A) (A) (A) (A) (A) (A) (A) (A) (A) (A)
                 (A) (A) (A) (A) (A) (A) (A) (A) (A) (A) (A) (A)
                 (A) (A) (A) (A) (A) (A) (A) (A) (A) (A) (A) (A)
                 (A) (A) (A) (A) (A) (A) (A) (A) (A) (A) (A) (A)
                 (A) (A) (A) (A) (A) (A) (A) (A) (A) (A) (A) (A)
                 (A) (A) (A) (A) (A) (A) (A) (A) (A) (A) (A) (A)
                 (A) (A) (A) (A) (A) (A) (A) (A) (A) (A) (A) (A)
                 (A) (A) (A) (A) (A) (A) (A) (A) (A) (A) (A) (A)
                 (A) (A) (A) (A) (A) (A) (A) (A) (A) (A) (A) (A)
                 (A) (A) (A) (A) (A) (A) (A) (A) (A) (A) (A) (A)
                 (A) (A) (A) (A) (A) (A) (A) (A) (A) (A) (A) (A)
                 (A) (A) (A) (A) (A) (A) (A) (A) (A) (A) (A) (A)
                 (A) (A) (A) (A) (A) (A) (A) (A) (A) (A) (A) (A)
                 (A) (A) (A) (A) (A) (A) (A) (A) (A) (A) (A) (A)
                 (A) (A) (A) (A) (A) (A) (A) (A) (A) (A) (A) (A)
                 (A) (A) (A) (A) (A) (A) (A) (A) (A) (A) (A) (A)
                 (A) (A) (A) (A) (A) (A) (A) (A) (A) (A) (A) (A)
                 (A) (A) (A) (A) (A) (A) (A) (A) (A) (A) (A) (A)
                 (A) (A) (A) (A) (A) (A) (A) (A) (A) (A) (A) (A)
                 (A) (A) (A) (A) (A) (A) (A) (A) (A) (A) (A) (A)
                 (A) (A) (A) (A) (A) (A) (A) (A) (A) (A) (A) (A)
                 (A) (A) (A) (A) (A) (A) (A) (A) (A) (A) (A) (A)
                 (A) (A) (A) (A) (A) (A) (A) (A) (A) (A) (A) (A)
                 (A) (A) (A) (A) (A) (A) (A) (A) (A) (A) (A) (A)
                 (A) (A) (A) (A) (A) (A) (A) (A) (A) (A) (A) (A)
                 (A) (A) (A) (A) (A) (A) (A) (A) (A) (A) (A) (A)
                 (A) (A) (A) (A) (A) (A) (A) (A) (A) (A) (A) (A)
                 (A) (A) (A) (A) (A) (A) (A) (A) (A) (A) (A) (A)
                 (A) (A) (A) (A) (A) (A) (A) (A) (A) (A) (A) (A)
                 (A) (A) (A) (A) (A)
 The electronic state is 1-A.
 Alpha  occ. eigenvalues --  -19.17169 -19.16214 -14.41908 -14.41156 -10.33467
 Alpha  occ. eigenvalues --  -10.33128 -10.29129 -10.27260 -10.25697 -10.25650
 Alpha  occ. eigenvalues --  -10.24016 -10.23540 -10.23060  -1.05387  -1.03916
 Alpha  occ. eigenvalues --   -0.94328  -0.94042  -0.83758  -0.78534  -0.74207
 Alpha  occ. eigenvalues --   -0.72058  -0.70520  -0.66622  -0.60718  -0.59697
 Alpha  occ. eigenvalues --   -0.58112  -0.54957  -0.50052  -0.49293  -0.47947
 Alpha  occ. eigenvalues --   -0.47321  -0.46992  -0.45353  -0.45224  -0.44508
 Alpha  occ. eigenvalues --   -0.42462  -0.42257  -0.40859  -0.40409  -0.40047
 Alpha  occ. eigenvalues --   -0.39663  -0.38697  -0.38261  -0.36412  -0.35402
 Alpha  occ. eigenvalues --   -0.34605  -0.33204  -0.28261  -0.27478  -0.26292
 Alpha  occ. eigenvalues --   -0.25683
 Alpha virt. eigenvalues --    0.00876   0.02202   0.02705   0.03634   0.04288
 Alpha virt. eigenvalues --    0.04906   0.06877   0.07034   0.07932   0.08157
 Alpha virt. eigenvalues --    0.09286   0.09710   0.11445   0.11822   0.12138
 Alpha virt. eigenvalues --    0.12572   0.13314   0.14143   0.14831   0.15622
 Alpha virt. eigenvalues --    0.16328   0.17625   0.17881   0.19197   0.20228
 Alpha virt. eigenvalues --    0.20944   0.22186   0.22720   0.24115   0.24539
 Alpha virt. eigenvalues --    0.25308   0.26166   0.26908   0.27312   0.27789
 Alpha virt. eigenvalues --    0.28534   0.29211   0.29516   0.30589   0.31407
 Alpha virt. eigenvalues --    0.32563   0.33995   0.34951   0.35133   0.35640
 Alpha virt. eigenvalues --    0.36514   0.37073   0.37819   0.38498   0.38883
 Alpha virt. eigenvalues --    0.39740   0.40283   0.41038   0.41144   0.41271
 Alpha virt. eigenvalues --    0.42142   0.42427   0.42649   0.43385   0.43521
 Alpha virt. eigenvalues --    0.44042   0.44664   0.44926   0.45213   0.45868
 Alpha virt. eigenvalues --    0.46455   0.47060   0.47734   0.48162   0.49169
 Alpha virt. eigenvalues --    0.49746   0.50156   0.51221   0.51792   0.52052
 Alpha virt. eigenvalues --    0.52983   0.54194   0.54791   0.55622   0.56741
 Alpha virt. eigenvalues --    0.57658   0.59394   0.60450   0.61635   0.62623
 Alpha virt. eigenvalues --    0.62917   0.63230   0.63742   0.65203   0.68187
 Alpha virt. eigenvalues --    0.69314   0.69587   0.71754   0.72917   0.73795
 Alpha virt. eigenvalues --    0.74464   0.75921   0.76249   0.77681   0.78060
 Alpha virt. eigenvalues --    0.79357   0.80259   0.81743   0.82590   0.83429
 Alpha virt. eigenvalues --    0.84349   0.84512   0.85960   0.86521   0.87460
 Alpha virt. eigenvalues --    0.88144   0.88460   0.89674   0.90713   0.91754
 Alpha virt. eigenvalues --    0.92032   0.93898   0.94083   0.94731   0.95747
 Alpha virt. eigenvalues --    0.96004   0.96752   0.96843   0.98170   0.98186
 Alpha virt. eigenvalues --    0.98676   0.99505   1.00522   1.01269   1.02787
 Alpha virt. eigenvalues --    1.03569   1.03973   1.05005   1.05973   1.06572
 Alpha virt. eigenvalues --    1.06704   1.07747   1.08673   1.09085   1.10314
 Alpha virt. eigenvalues --    1.10632   1.11407   1.12611   1.13263   1.14648
 Alpha virt. eigenvalues --    1.15557   1.15747   1.15980   1.16995   1.17726
 Alpha virt. eigenvalues --    1.17988   1.19467   1.20524   1.21156   1.21665
 Alpha virt. eigenvalues --    1.22342   1.22736   1.23120   1.23563   1.23648
 Alpha virt. eigenvalues --    1.24871   1.25083   1.25755   1.26296   1.26691
 Alpha virt. eigenvalues --    1.27040   1.27557   1.28346   1.29960   1.30260
 Alpha virt. eigenvalues --    1.30406   1.31347   1.31933   1.32426   1.32900
 Alpha virt. eigenvalues --    1.33310   1.35008   1.36060   1.36626   1.36743
 Alpha virt. eigenvalues --    1.37821   1.38319   1.39876   1.41162   1.41727
 Alpha virt. eigenvalues --    1.42829   1.44251   1.45392   1.46437   1.48413
 Alpha virt. eigenvalues --    1.49304   1.50245   1.52865   1.53571   1.56512
 Alpha virt. eigenvalues --    1.58312   1.59289   1.60864   1.61884   1.62774
 Alpha virt. eigenvalues --    1.65651   1.67665   1.70058   1.71462   1.73567
 Alpha virt. eigenvalues --    1.74028   1.75756   1.77504   1.78562   1.81416
 Alpha virt. eigenvalues --    1.84801   1.88220   1.89234   1.91144   1.93342
 Alpha virt. eigenvalues --    1.93429   1.94604   1.95791   1.98041   2.00085
 Alpha virt. eigenvalues --    2.00635   2.02392   2.04198   2.05655   2.07692
 Alpha virt. eigenvalues --    2.08293   2.09838   2.12051   2.13390   2.14137
 Alpha virt. eigenvalues --    2.17576   2.19159   2.19886   2.20864   2.22964
 Alpha virt. eigenvalues --    2.23545   2.24831   2.26299   2.28408   2.31037
 Alpha virt. eigenvalues --    2.31591   2.34933   2.36340   2.37256   2.38399
 Alpha virt. eigenvalues --    2.39393   2.40950   2.42186   2.43057   2.43778
 Alpha virt. eigenvalues --    2.44371   2.45614   2.46031   2.49198   2.49712
 Alpha virt. eigenvalues --    2.50003   2.52083   2.53748   2.54376   2.55071
 Alpha virt. eigenvalues --    2.55797   2.56692   2.58051   2.61283   2.63979
 Alpha virt. eigenvalues --    2.65019   2.67312   2.68150   2.68509   2.69154
 Alpha virt. eigenvalues --    2.70421   2.70939   2.71894   2.73090   2.73619
 Alpha virt. eigenvalues --    2.74530   2.75459   2.76256   2.76264   2.78364
 Alpha virt. eigenvalues --    2.79555   2.80036   2.81453   2.81973   2.83849
 Alpha virt. eigenvalues --    2.83935   2.84549   2.85716   2.86620   2.87940
 Alpha virt. eigenvalues --    2.88290   2.88494   2.89540   2.90912   2.91584
 Alpha virt. eigenvalues --    2.92564   2.92889   2.93638   2.94015   2.95076
 Alpha virt. eigenvalues --    2.95478   2.96579   2.97049   2.98074   2.98352
 Alpha virt. eigenvalues --    2.99477   2.99931   3.01027   3.02182   3.02454
 Alpha virt. eigenvalues --    3.03411   3.04102   3.05106   3.05637   3.06249
 Alpha virt. eigenvalues --    3.06486   3.07570   3.08430   3.09372   3.09814
 Alpha virt. eigenvalues --    3.11383   3.12075   3.13235   3.13934   3.14375
 Alpha virt. eigenvalues --    3.15694   3.17134   3.18822   3.19167   3.20373
 Alpha virt. eigenvalues --    3.21394   3.21801   3.21995   3.23389   3.24880
 Alpha virt. eigenvalues --    3.25744   3.26219   3.26988   3.27338   3.27811
 Alpha virt. eigenvalues --    3.29089   3.29394   3.30090   3.30901   3.31707
 Alpha virt. eigenvalues --    3.32864   3.33899   3.34264   3.35802   3.36037
 Alpha virt. eigenvalues --    3.37340   3.37977   3.38861   3.39372   3.39694
 Alpha virt. eigenvalues --    3.40571   3.41312   3.42231   3.42831   3.44092
 Alpha virt. eigenvalues --    3.44693   3.44752   3.45299   3.47306   3.47907
 Alpha virt. eigenvalues --    3.48980   3.49542   3.50319   3.51288   3.53243
 Alpha virt. eigenvalues --    3.54724   3.55935   3.56882   3.57409   3.58756
 Alpha virt. eigenvalues --    3.59283   3.60645   3.63548   3.64142   3.65093
 Alpha virt. eigenvalues --    3.65819   3.67278   3.68539   3.69309   3.69962
 Alpha virt. eigenvalues --    3.71894   3.72824   3.74073   3.74375   3.75710
 Alpha virt. eigenvalues --    3.76315   3.77057   3.77795   3.79896   3.80223
 Alpha virt. eigenvalues --    3.81620   3.82553   3.83067   3.84137   3.84752
 Alpha virt. eigenvalues --    3.87064   3.87505   3.87829   3.88548   3.89026
 Alpha virt. eigenvalues --    3.90462   3.92623   3.93276   3.93868   3.94317
 Alpha virt. eigenvalues --    3.94783   3.95263   3.97220   3.98234   3.99563
 Alpha virt. eigenvalues --    4.00384   4.02239   4.02638   4.03269   4.05159
 Alpha virt. eigenvalues --    4.05484   4.07060   4.07175   4.08260   4.09938
 Alpha virt. eigenvalues --    4.11698   4.13404   4.13457   4.13772   4.14988
 Alpha virt. eigenvalues --    4.15499   4.17856   4.18201   4.18944   4.19884
 Alpha virt. eigenvalues --    4.20232   4.21130   4.22314   4.23372   4.24245
 Alpha virt. eigenvalues --    4.25728   4.26484   4.27247   4.28230   4.29038
 Alpha virt. eigenvalues --    4.30421   4.31189   4.33427   4.35237   4.35727
 Alpha virt. eigenvalues --    4.37390   4.37818   4.39046   4.39832   4.41520
 Alpha virt. eigenvalues --    4.43582   4.45009   4.45401   4.47741   4.48768
 Alpha virt. eigenvalues --    4.50709   4.50930   4.53165   4.55402   4.56041
 Alpha virt. eigenvalues --    4.56702   4.58369   4.59458   4.60296   4.60937
 Alpha virt. eigenvalues --    4.61654   4.62447   4.62779   4.64218   4.64742
 Alpha virt. eigenvalues --    4.66592   4.68415   4.70733   4.71314   4.72628
 Alpha virt. eigenvalues --    4.73332   4.74245   4.75279   4.75884   4.77242
 Alpha virt. eigenvalues --    4.78201   4.78758   4.79429   4.81212   4.82928
 Alpha virt. eigenvalues --    4.84566   4.87108   4.88385   4.90228   4.92112
 Alpha virt. eigenvalues --    4.93209   4.93315   4.94355   4.95551   4.97585
 Alpha virt. eigenvalues --    4.97926   4.99849   5.00768   5.02006   5.02921
 Alpha virt. eigenvalues --    5.04490   5.04868   5.05921   5.07989   5.08765
 Alpha virt. eigenvalues --    5.10898   5.13297   5.13427   5.13899   5.14441
 Alpha virt. eigenvalues --    5.16784   5.18098   5.18374   5.19826   5.20686
 Alpha virt. eigenvalues --    5.21485   5.23008   5.23740   5.24487   5.25998
 Alpha virt. eigenvalues --    5.26398   5.27386   5.29217   5.30460   5.30834
 Alpha virt. eigenvalues --    5.31903   5.33849   5.36512   5.38396   5.39183
 Alpha virt. eigenvalues --    5.42575   5.43813   5.45448   5.46708   5.49052
 Alpha virt. eigenvalues --    5.50758   5.52216   5.56542   5.57887   5.59986
 Alpha virt. eigenvalues --    5.60604   5.62967   5.63424   5.65130   5.65594
 Alpha virt. eigenvalues --    5.66669   5.68223   5.69343   5.70424   5.73293
 Alpha virt. eigenvalues --    5.74198   5.75299   5.75998   5.78155   5.78331
 Alpha virt. eigenvalues --    5.80937   5.81682   5.84500   5.86394   5.87999
 Alpha virt. eigenvalues --    5.89489   5.94169   5.96656   6.03095   6.04962
 Alpha virt. eigenvalues --    6.12258   6.19387   6.20977   6.23569   6.28018
 Alpha virt. eigenvalues --    6.51366   6.52740   6.57674   6.62449   6.64881
 Alpha virt. eigenvalues --    6.65813   6.78200   6.82493   6.90456   6.92433
 Alpha virt. eigenvalues --    6.94894   6.94958   7.19110   7.19400   7.23306
 Alpha virt. eigenvalues --    7.28532   8.14721   8.30705   8.66400   8.73908
 Alpha virt. eigenvalues --    8.78539   8.79221   8.79558   8.82666   8.83317
 Alpha virt. eigenvalues --    8.84592   8.87303   8.88841   8.90274   8.91591
 Alpha virt. eigenvalues --    8.92463   8.94647   8.96113   8.98212   9.02980
 Alpha virt. eigenvalues --    9.04177   9.08368   9.11931   9.14306   9.17684
 Alpha virt. eigenvalues --    9.23314   9.60524   9.62496   9.77410   9.83607
 Alpha virt. eigenvalues --    9.89546   9.94762  10.09087  10.11678  10.15299
 Alpha virt. eigenvalues --   10.18086  10.19551  10.20335  10.21802  10.22897
 Alpha virt. eigenvalues --   10.27221  10.29916  10.30905  10.33137  10.37033
 Alpha virt. eigenvalues --   10.38779  11.75219  11.82687  12.04593  12.14440
 Alpha virt. eigenvalues --   12.18778  12.19034  12.24792  12.25225  12.30462
 Alpha virt. eigenvalues --   12.37195  12.47648  12.56225  12.61226  12.83937
 Alpha virt. eigenvalues --   12.93267  14.97583  15.03009  15.24202  15.28054
 Alpha virt. eigenvalues --   15.99951  16.04828  16.84592  16.90760  22.01161
 Alpha virt. eigenvalues --   22.10595  40.18058  40.27662  40.66564  40.67841
 Alpha virt. eigenvalues --   40.70152  40.70804  40.71589  40.74797  40.76474
 Alpha virt. eigenvalues --   40.77653  40.80054  40.80856  40.81748  40.82202
 Alpha virt. eigenvalues --   40.82585  40.84351  40.84570  40.85492  40.86346
 Alpha virt. eigenvalues --   40.87010  40.87356  40.88631  40.90533  40.90815
 Alpha virt. eigenvalues --   40.91520  40.92317  40.95300  46.34499  46.45586
 Alpha virt. eigenvalues --   46.49661  46.52330  46.56826  46.57446  46.62460
 Alpha virt. eigenvalues --   46.71589  46.80615  54.45714  54.53221  55.80824
 Alpha virt. eigenvalues --   55.84580  55.93330  55.98507  56.05953  56.15878
 Alpha virt. eigenvalues --   56.18007  56.23694  56.25022  56.29720  56.35439
 Alpha virt. eigenvalues --   56.40719  56.42637  56.52796  56.58437  56.63164
 Alpha virt. eigenvalues --   57.46303  57.51053  57.99523  58.03172  58.19606
 Alpha virt. eigenvalues --   58.25973  64.71592  64.77370  73.94598  73.97634
 Alpha virt. eigenvalues --   74.09939  74.11882  74.64157  74.66637  86.07013
 Alpha virt. eigenvalues --   86.15350 165.43753 165.53724 165.57895 165.60893
 Alpha virt. eigenvalues --  165.64584 165.65218 165.68963 165.77293 165.85458
 Alpha virt. eigenvalues --  226.58469 226.78336 230.58688 230.64046 235.72196
 Alpha virt. eigenvalues --  235.84630 236.03372 236.35636 236.44007 236.45543
 Alpha virt. eigenvalues --  237.17712 237.29817 237.45948 237.50643 237.66515
 Alpha virt. eigenvalues --  237.68390 237.76958 238.26096 238.45588 238.85307
 Alpha virt. eigenvalues --  308.80634 308.88038 624.55276 624.60960 624.65744
 Alpha virt. eigenvalues --  624.66392 624.70472 624.71419 624.74242 624.81455
 Alpha virt. eigenvalues --  624.87599 794.50115 794.54135 826.47005 827.21063
 Alpha virt. eigenvalues --  827.35185 827.36699 827.69532 827.71691 830.22322
 Alpha virt. eigenvalues --  830.47575 831.22198 831.28152 831.58925 831.73926
 Alpha virt. eigenvalues --  831.95561 833.68091 834.34071 835.22489 868.34384
 Alpha virt. eigenvalues --  868.403211165.933531166.001832485.492972486.59751
 Alpha virt. eigenvalues -- 2589.861492589.878682592.655322594.209362596.79663
 Alpha virt. eigenvalues -- 2597.141102602.182552603.047242604.980152605.19184
 Alpha virt. eigenvalues -- 2605.345002606.472312607.341592609.741842610.60458
 Alpha virt. eigenvalues -- 2617.158852740.327512740.341232740.390722740.40410
 Alpha virt. eigenvalues -- 2740.438672740.490372740.519702740.555172740.57920
 Alpha virt. eigenvalues -- 3787.317463787.383705073.314875073.376228290.83550
 Alpha virt. eigenvalues -- 8294.908078632.241798634.753508636.317698638.01834
 Alpha virt. eigenvalues -- 8638.213298639.530338658.012308662.264518669.10331
 Alpha virt. eigenvalues -- 8669.451108671.325768671.839008674.594488687.85797
 Alpha virt. eigenvalues -- 8692.823378701.97201******************************
 Alpha virt. eigenvalues -- **************************************************
 Alpha virt. eigenvalues -- **************************************************
 Alpha virt. eigenvalues -- **************************************************
 Alpha virt. eigenvalues -- **************************************************
 Alpha virt. eigenvalues -- **************************************************
 Alpha virt. eigenvalues -- **************************************************
 Alpha virt. eigenvalues -- **************************************************
 Alpha virt. eigenvalues -- **********
          Condensed to atoms (all electrons):
               1          2          3          4          5          6
     1  C    4.547832   0.194971  -0.045029   0.000593   0.000062  -0.000149
     2  C    0.194971   5.361543   0.374588  -0.004594  -0.000295  -0.000240
     3  H   -0.045029   0.374588   0.485641  -0.000705   0.000012   0.000062
     4  C    0.000593  -0.004594  -0.000705   4.972166   0.400834   0.401387
     5  H    0.000062  -0.000295   0.000012   0.400834   0.540967  -0.009955
     6  H   -0.000149  -0.000240   0.000062   0.401387  -0.009955   0.542914
     7  H    0.000488   0.000230  -0.000384   0.405088  -0.020230  -0.024990
     8  O    0.728022  -0.111819   0.003907  -0.000028  -0.000001   0.000000
     9  N   -0.062332   0.297643  -0.031272   0.000086   0.000234  -0.000235
    10  H   -0.007128  -0.025535   0.006315  -0.000576   0.000147  -0.000160
    11  N    0.367995  -0.134618   0.005147  -0.000070   0.000001  -0.000002
    12  H   -0.025912   0.011409  -0.000053   0.000003  -0.000001   0.000002
    13  C   -0.046985   0.010761  -0.001224   0.000002   0.000000   0.000000
    14  H    0.000901   0.002613   0.000068   0.000004   0.000000   0.000000
    15  H   -0.007451  -0.001304  -0.000199   0.000000   0.000000   0.000000
    16  H    0.007172   0.000648  -0.000117   0.000000   0.000000   0.000000
    17  C   -0.000456  -0.051268   0.001054   0.000294   0.000002  -0.000007
    18  C   -0.004760   0.017273   0.002509  -0.000158  -0.000004   0.000012
    19  H    0.000639  -0.000748  -0.000485   0.000008   0.000003  -0.000012
    20  H   -0.000056  -0.000644   0.000126  -0.000001   0.000000   0.000000
    21  H    0.000741  -0.000693  -0.000194   0.000008   0.000001  -0.000001
    22  O   -0.009790   0.018146   0.024019  -0.000006   0.000000   0.000001
    23  C   -0.012082  -0.000287   0.005460   0.347485  -0.035294  -0.034882
[...]
 Alpha virt. eigenvalues --    4.32708   4.34286   4.35481   4.36404   4.36993
 Alpha virt. eigenvalues --    4.38352   4.38951   4.40407   4.41634   4.42914
 Alpha virt. eigenvalues --    4.44888   4.47638   4.50093   4.50929   4.51848
 Alpha virt. eigenvalues --    4.53325   4.55152   4.55509   4.56228   4.57931
 Alpha virt. eigenvalues --    4.62122   4.64512   4.65870   4.66514   4.66685
 Alpha virt. eigenvalues --    4.68869   4.69326   4.70703   4.71819   4.72946
 Alpha virt. eigenvalues --    4.73860   4.75294   4.75339   4.78353   4.79316
 Alpha virt. eigenvalues --    4.80507   4.81435   4.82430   4.82756   4.84252
 Alpha virt. eigenvalues --    4.84652   4.86569   4.87901   4.88205   4.90524
 Alpha virt. eigenvalues --    4.91197   4.91628   4.95049   4.95347   4.96459
 Alpha virt. eigenvalues --    4.96950   4.97943   5.00262   5.00963   5.02470
 Alpha virt. eigenvalues --    5.03063   5.03767   5.04655   5.04907   5.06718
 Alpha virt. eigenvalues --    5.07814   5.08668   5.10923   5.11847   5.13154
 Alpha virt. eigenvalues --    5.14169   5.15081   5.15869   5.16205   5.18401
 Alpha virt. eigenvalues --    5.18892   5.19501   5.20689   5.22497   5.23993
 Alpha virt. eigenvalues --    5.25020   5.26090   5.26971   5.27795   5.27878
 Alpha virt. eigenvalues --    5.29416   5.30274   5.31731   5.32716   5.33605
 Alpha virt. eigenvalues --    5.35827   5.36918   5.37639   5.38629   5.40032
 Alpha virt. eigenvalues --    5.44099   5.47036   5.48642   5.51331   5.56214
 Alpha virt. eigenvalues --    5.57047   5.59960   5.62055   5.63249   5.69087
 Alpha virt. eigenvalues --    5.72829   5.74530   5.77587   5.78771   5.79397
 Alpha virt. eigenvalues --    5.80195   5.81803   5.83696   5.84725   5.87116
 Alpha virt. eigenvalues --    5.88049   5.88882   5.90355   5.97267   5.97935
 Alpha virt. eigenvalues --    5.99460   6.02620   6.04067   6.06628   6.08060
 Alpha virt. eigenvalues --    6.22653   6.26738   6.35116   6.40444   6.49862
 Alpha virt. eigenvalues --    6.51483   6.53755   6.57802   6.68305   6.69103
 Alpha virt. eigenvalues --    6.88310   6.89546   6.92629   6.96661   7.09728
 Alpha virt. eigenvalues --    7.13987   7.16860   7.18135   9.47641   9.98997
 Alpha virt. eigenvalues --   11.59249  12.14761  12.41255  12.63492  12.84910
 Alpha virt. eigenvalues --   13.42380  13.51033  13.58533  13.69694  13.78538
 Alpha virt. eigenvalues --   13.97965
          Condensed to atoms (all electrons):
               1          2          3          4          5          6
     1  C    4.711395   0.168576  -0.052780   0.001053   0.000067  -0.000155
     2  C    0.168576   5.471980   0.418571  -0.001548  -0.000526   0.000179
     3  H   -0.052780   0.418571   0.446903  -0.000780   0.000011   0.000036
     4  C    0.001053  -0.001548  -0.000780   5.113737   0.403871   0.403067
     5  H    0.000067  -0.000526   0.000011   0.403871   0.532250  -0.016348
     6  H   -0.000155   0.000179   0.000036   0.403067  -0.016348   0.536518
     7  H    0.000364   0.002213  -0.000267   0.398916  -0.027077  -0.029497
     8  O    0.718614  -0.100422   0.001855  -0.000086  -0.000001   0.000000
     9  N   -0.064082   0.244039  -0.034779   0.000050   0.000216  -0.000267
    10  H   -0.005836  -0.023396   0.003939  -0.000910   0.000308  -0.000302
    11  N    0.363568  -0.105471   0.000615  -0.000095   0.000002  -0.000001
    12  H   -0.023087   0.007555  -0.000783   0.000003  -0.000001   0.000002
    13  C   -0.063984   0.009894  -0.001007   0.000005   0.000000   0.000000
    14  H    0.000968   0.002455   0.000077   0.000003   0.000000   0.000000
    15  H   -0.007824  -0.001260  -0.000194   0.000000   0.000000   0.000000
    16  H    0.007659   0.000659  -0.000087   0.000000   0.000000   0.000000
    17  C   -0.000866  -0.062435  -0.000187   0.000195   0.000002  -0.000003
    18  C   -0.003379   0.014151   0.002315  -0.000125  -0.000003   0.000009
    19  H    0.000425   0.000117  -0.000449   0.000037   0.000000  -0.000007
    20  H   -0.000103  -0.000597   0.000117  -0.000003  -0.000001   0.000001
    21  H    0.000718  -0.000745  -0.000173   0.000007   0.000001  -0.000001
    22  O   -0.005898   0.015827   0.023128  -0.000004   0.000000   0.000001
    23  C   -0.009221  -0.001105   0.004627   0.282693  -0.034725  -0.034049
    24  H   -0.000671   0.009358  -0.000118  -0.039067  -0.009162  -0.005472
    25  C    0.003363  -0.002141   0.000392  -0.065401  -0.005045   0.007592
    26  H   -0.010896   0.003090   0.000716  -0.005676  -0.001241   0.000127
    27  H    0.005905  -0.007696  -0.000246   0.007806  -0.000037  -0.000392
    28  H    0.000501  -0.001243   0.000051  -0.007245   0.004295  -0.000071
    29  C   -0.029733   0.183006  -0.028042  -0.058672   0.009654  -0.005551
    30  H    0.006704  -0.038571  -0.008401  -0.004303   0.000394   0.004049
    31  H    0.002669  -0.056127  -0.007106   0.007155  -0.000260   0.000145
               7          8          9         10         11         12
     1  C    0.000364   0.718614  -0.064082  -0.005836   0.363568  -0.023087
     2  C    0.002213  -0.100422   0.244039  -0.023396  -0.105471   0.007555
     3  H   -0.000267   0.001855  -0.034779   0.003939   0.000615  -0.000783
     4  C    0.398916  -0.000086   0.000050  -0.000910  -0.000095   0.000003
     5  H   -0.027077  -0.000001   0.000216   0.000308   0.000002  -0.000001
     6  H   -0.029497   0.000000  -0.000267  -0.000302  -0.000001   0.000002
     7  H    0.552517  -0.000218  -0.002262   0.002411  -0.000037   0.000001
     8  O   -0.000218   7.845054   0.004869   0.001144  -0.120422   0.004980
     9  N   -0.002262   0.004869   6.573938   0.390858   0.006339   0.000501
    10  H    0.002411   0.001144   0.390858   0.476834   0.000208   0.000001
    11  N   -0.000037  -0.120422   0.006339   0.000208   6.432926   0.381463
    12  H    0.000001   0.004980   0.000501   0.000001   0.381463   0.529660
    13  C    0.000002   0.005347  -0.000343  -0.000011   0.299295  -0.032237
    14  H    0.000000   0.005445  -0.000025  -0.000012  -0.057534   0.004689
    15  H    0.000000   0.004669  -0.000035   0.000003  -0.042061   0.000970
    16  H    0.000000   0.001480   0.000008  -0.000001  -0.027571  -0.007992
    17  C    0.000281   0.013888   0.324332  -0.022321  -0.000385  -0.000128
    18  C    0.000217  -0.000439  -0.066131  -0.004013  -0.000060  -0.000002
    19  H    0.000489  -0.000019   0.013728  -0.002547   0.000007   0.000001
    20  H   -0.000067   0.000050  -0.000267   0.001175   0.000003   0.000000
    21  H    0.000014   0.000394  -0.001018  -0.000521   0.000000  -0.000001
    22  O    0.000022  -0.003009  -0.140047   0.003356  -0.001771  -0.000130
    23  C   -0.038147   0.000291  -0.002839   0.002598  -0.003635   0.000491
    24  H    0.007838  -0.000023  -0.000502   0.000183  -0.000298  -0.000018
    25  C   -0.005535  -0.002783  -0.006946   0.000876  -0.003446   0.000106
    26  H    0.000635   0.011457   0.003275   0.003933   0.001833  -0.000122
    27  H   -0.000003  -0.005741   0.000216  -0.000097   0.002449   0.000269
    28  H   -0.000660   0.000508   0.000210   0.000080   0.000049  -0.000010
    29  C   -0.003240   0.001762  -0.034921  -0.007637   0.010150  -0.000367
    30  H    0.000260  -0.000366  -0.000272  -0.000076   0.000497  -0.000351
    31  H   -0.000314  -0.000127   0.004897  -0.000129   0.000946   0.003754
              13         14         15         16         17         18
     1  C   -0.063984   0.000968  -0.007824   0.007659  -0.000866  -0.003379
     2  C    0.009894   0.002455  -0.001260   0.000659  -0.062435   0.014151
     3  H   -0.001007   0.000077  -0.000194  -0.000087  -0.000187   0.002315
     4  C    0.000005   0.000003   0.000000   0.000000   0.000195  -0.000125
     5  H    0.000000   0.000000   0.000000   0.000000   0.000002  -0.000003
     6  H    0.000000   0.000000   0.000000   0.000000  -0.000003   0.000009
     7  H    0.000002   0.000000   0.000000   0.000000   0.000281   0.000217
     8  O    0.005347   0.005445   0.004669   0.001480   0.013888  -0.000439
     9  N   -0.000343  -0.000025  -0.000035   0.000008   0.324332  -0.066131
    10  H   -0.000011  -0.000012   0.000003  -0.000001  -0.022321  -0.004013
    11  N    0.299295  -0.057534  -0.042061  -0.027571  -0.000385  -0.000060
    12  H   -0.032237   0.004689   0.000970  -0.007992  -0.000128  -0.000002
    13  C    4.773720   0.388788   0.406685   0.393429  -0.000155  -0.000005
    14  H    0.388788   0.626432  -0.057581  -0.026219  -0.000011   0.000000
    15  H    0.406685  -0.057581   0.601790  -0.027922   0.000053   0.000001
    16  H    0.393429  -0.026219  -0.027922   0.600349  -0.000005   0.000000
    17  C   -0.000155  -0.000011   0.000053  -0.000005   4.532524   0.282007
    18  C   -0.000005   0.000000   0.000001   0.000000   0.282007   5.004503
    19  H    0.000001   0.000000   0.000000   0.000000  -0.054306   0.393397
    20  H    0.000000   0.000000   0.000000   0.000000  -0.020748   0.381995
    21  H    0.000002   0.000000   0.000001   0.000000  -0.028025   0.390071
    22  O   -0.000119   0.000008   0.000030  -0.000002   0.725469  -0.070391
    23  C    0.000239   0.000316  -0.000039   0.000021  -0.000881  -0.000136
    24  H   -0.000001   0.000021  -0.000002   0.000003   0.000031  -0.000001
    25  C   -0.000480   0.000684  -0.000039  -0.000015  -0.000009  -0.000004
    26  H   -0.000222   0.000081  -0.000053  -0.000005   0.000788   0.000111
    27  H    0.000425  -0.001051   0.000296  -0.000061  -0.000025   0.000002
    28  H   -0.000032   0.000011  -0.000001  -0.000003   0.000010   0.000000
    29  C   -0.000678  -0.000612   0.000148  -0.000107   0.007962   0.000341
    30  H    0.000067  -0.000023   0.000013   0.000003  -0.000187  -0.000036
    31  H    0.000144  -0.000223   0.000091   0.000003  -0.000175   0.000042
              19         20         21         22         23         24
     1  C    0.000425  -0.000103   0.000718  -0.005898  -0.009221  -0.000671
     2  C    0.000117  -0.000597  -0.000745   0.015827  -0.001105   0.009358
     3  H   -0.000449   0.000117  -0.000173   0.023128   0.004627  -0.000118
     4  C    0.000037  -0.000003   0.000007  -0.000004   0.282693  -0.039067
     5  H    0.000000  -0.000001   0.000001   0.000000  -0.034725  -0.009162
     6  H   -0.000007   0.000001  -0.000001   0.000001  -0.034049  -0.005472
     7  H    0.000489  -0.000067   0.000014   0.000022  -0.038147   0.007838
     8  O   -0.000019   0.000050   0.000394  -0.003009   0.000291  -0.000023
     9  N    0.013728  -0.000267  -0.001018  -0.140047  -0.002839  -0.000502
    10  H   -0.002547   0.001175  -0.000521   0.003356   0.002598   0.000183
    11  N    0.000007   0.000003   0.000000  -0.001771  -0.003635  -0.000298
    12  H    0.000001   0.000000  -0.000001  -0.000130   0.000491  -0.000018
    13  C    0.000001   0.000000   0.000002  -0.000119   0.000239  -0.000001
    14  H    0.000000   0.000000   0.000000   0.000008   0.000316   0.000021
    15  H    0.000000   0.000000   0.000001   0.000030  -0.000039  -0.000002
    16  H    0.000000   0.000000   0.000000  -0.000002   0.000021   0.000003
    17  C   -0.054306  -0.020748  -0.028025   0.725469  -0.000881   0.000031
    18  C    0.393397   0.381995   0.390071  -0.070391  -0.000136  -0.000001
    19  H    0.601696  -0.027822  -0.023995   0.004639   0.000113   0.000000
    20  H   -0.027822   0.574729  -0.025209   0.001898   0.000015   0.000000
    21  H   -0.023995  -0.025209   0.565061   0.001017  -0.000016   0.000000
    22  O    0.004639   0.001898   0.001017   7.849926  -0.000096   0.000001
    23  C    0.000113   0.000015  -0.000016  -0.000096   5.247259   0.438972
    24  H    0.000000   0.000000   0.000000   0.000001   0.438972   0.561211
    25  C   -0.000043  -0.000004   0.000013   0.000034   0.243150  -0.037707
    26  H   -0.000082   0.000024  -0.000063  -0.000083  -0.033729   0.006987
    27  H    0.000000   0.000000   0.000001  -0.000003  -0.041646  -0.006140
    28  H   -0.000002   0.000000  -0.000001   0.000000  -0.032415  -0.008473
    29  C   -0.000246  -0.000002   0.000026   0.001410   0.228858  -0.057591
    30  H    0.000020  -0.000019   0.000011  -0.000099  -0.051239  -0.002205
    31  H   -0.000003  -0.000004   0.000001   0.000072  -0.049925  -0.011637
              25         26         27         28         29         30
     1  C    0.003363  -0.010896   0.005905   0.000501  -0.029733   0.006704
     2  C   -0.002141   0.003090  -0.007696  -0.001243   0.183006  -0.038571
     3  H    0.000392   0.000716  -0.000246   0.000051  -0.028042  -0.008401
     4  C   -0.065401  -0.005676   0.007806  -0.007245  -0.058672  -0.004303
     5  H   -0.005045  -0.001241  -0.000037   0.004295   0.009654   0.000394
     6  H    0.007592   0.000127  -0.000392  -0.000071  -0.005551   0.004049
     7  H   -0.005535   0.000635  -0.000003  -0.000660  -0.003240   0.000260
     8  O   -0.002783   0.011457  -0.005741   0.000508   0.001762  -0.000366
     9  N   -0.006946   0.003275   0.000216   0.000210  -0.034921  -0.000272
    10  H    0.000876   0.003933  -0.000097   0.000080  -0.007637  -0.000076
    11  N   -0.003446   0.001833   0.002449   0.000049   0.010150   0.000497
    12  H    0.000106  -0.000122   0.000269  -0.000010  -0.000367  -0.000351
    13  C   -0.000480  -0.000222   0.000425  -0.000032  -0.000678   0.000067
    14  H    0.000684   0.000081  -0.001051   0.000011  -0.000612  -0.000023
    15  H   -0.000039  -0.000053   0.000296  -0.000001   0.000148   0.000013
    16  H   -0.000015  -0.000005  -0.000061  -0.000003  -0.000107   0.000003
    17  C   -0.000009   0.000788  -0.000025   0.000010   0.007962  -0.000187
    18  C   -0.000004   0.000111   0.000002   0.000000   0.000341  -0.000036
    19  H   -0.000043  -0.000082   0.000000  -0.000002  -0.000246   0.000020
    20  H   -0.000004   0.000024   0.000000   0.000000  -0.000002  -0.000019
    21  H    0.000013  -0.000063   0.000001  -0.000001   0.000026   0.000011
    22  O    0.000034  -0.000083  -0.000003   0.000000   0.001410  -0.000099
    23  C    0.243150  -0.033729  -0.041646  -0.032415   0.228858  -0.051239
    24  H   -0.037707   0.006987  -0.006140  -0.008473  -0.057591  -0.002205
    25  C    5.192825   0.391480   0.401744   0.403909  -0.046547   0.006381
    26  H    0.391480   0.516173  -0.027489  -0.021525  -0.010002  -0.000660
    27  H    0.401744  -0.027489   0.523922  -0.014925  -0.000190   0.000224
    28  H    0.403909  -0.021525  -0.014925   0.518339   0.009409  -0.000349
    29  C   -0.046547  -0.010002  -0.000190   0.009409   5.385645   0.420169
    30  H    0.006381  -0.000660   0.000224  -0.000349   0.420169   0.472024
    31  H    0.001698  -0.000766   0.001969  -0.000340   0.431741  -0.001485
              31
     1  C    0.002669
     2  C   -0.056127
     3  H   -0.007106
     4  C    0.007155
     5  H   -0.000260
     6  H    0.000145
     7  H   -0.000314
     8  O   -0.000127
     9  N    0.004897
    10  H   -0.000129
    11  N    0.000946
    12  H    0.003754
    13  C    0.000144
    14  H   -0.000223
    15  H    0.000091
    16  H    0.000003
    17  C   -0.000175
    18  C    0.000042
    19  H   -0.000003
    20  H   -0.000004
    21  H    0.000001
    22  O    0.000072
    23  C   -0.049925
    24  H   -0.011637
    25  C    0.001698
    26  H   -0.000766
    27  H    0.001969
    28  H   -0.000340
    29  C    0.431741
    30  H   -0.001485
    31  H    0.488923
 Mulliken charges:
               1
     1  C    0.285964
     2  C   -0.148387
     3  H    0.232045
     4  C   -0.434685
     5  H    0.143355
     6  H    0.140388
     7  H    0.141143
     8  O   -0.388153
     9  N   -0.212743
    10  H    0.179900
    11  N   -0.137563
    12  H    0.130781
    13  C   -0.178767
    14  H    0.113314
    15  H    0.122264
    16  H    0.086373
    17  C    0.303309
    18  C   -0.324439
    19  H    0.094852
    20  H    0.114838
    21  H    0.122432
    22  O   -0.405190
    23  C   -0.115800
    24  H    0.154484
    25  C   -0.478104
    26  H    0.171905
    27  H    0.160514
    28  H    0.149919
    29  C   -0.406145
    30  H    0.197825
    31  H    0.184371
 Sum of Mulliken charges =   0.00000
 Mulliken charges with hydrogens summed into heavy atoms:
               1
     1  C    0.285964
     2  C    0.083657
     4  C   -0.009799
     8  O   -0.388153
     9  N   -0.032843
    11  N   -0.006782
    13  C    0.143184
    17  C    0.303309
    18  C    0.007683
    22  O   -0.405190
    23  C    0.038684
    25  C    0.004234
    29  C   -0.023949
 Electronic spatial extent (au):  <R**2>=           2797.9086
 Charge=              0.0000 electrons
 Dipole moment (field-independent basis, Debye):
    X=              2.7774    Y=              3.6142    Z=             -1.5865  Tot=              4.8263
 Quadrupole moment (field-independent basis, Debye-Ang):
   XX=            -72.5183   YY=            -82.9493   ZZ=            -81.2717
   XY=            -10.2776   XZ=             -7.2865   YZ=              1.7612
 Traceless Quadrupole moment (field-independent basis, Debye-Ang):
   XX=              6.3948   YY=             -4.0362   ZZ=             -2.3586
   XY=            -10.2776   XZ=             -7.2865   YZ=              1.7612
 Octapole moment (field-independent basis, Debye-Ang**2):
  XXX=             -0.2643  YYY=             -3.7595  ZZZ=             -9.3055  XYY=             26.5381
  XXY=             -6.7140  XXZ=              7.2433  XZZ=              2.8517  YZZ=             -0.7104
  YYZ=              2.7265  XYZ=              9.9396
 Hexadecapole moment (field-independent basis, Debye-Ang**3):
 XXXX=          -1610.2262 YYYY=          -1587.8709 ZZZZ=           -395.4878 XXXY=            -59.4708
 XXXZ=            -32.0691 YYYX=            -50.6851 YYYZ=             -5.6707 ZZZX=            -11.0912
 ZZZY=              7.6623 XXYY=           -551.0531 XXZZ=           -339.2108 YYZZ=           -334.6941
 XXYZ=             -9.6219 YYXZ=            -14.4586 ZZXY=             -5.6019
 N-N= 8.810369463661D+02 E-N=-3.191764608989D+03  KE= 6.091096186625D+02
 Calculating spin-rotation constants.
 Leave Link  601 at Wed Jun 18 12:40:59 2014, MaxMem=  4294967296 cpu:        70.6
 (Enter /home/ztw1e12/g09/l9999.exe)

 Test job not archived.
 1\1\GINC-GREEN0684\SP\RM06\Gen\C9H18N2O2\ROOT\18-Jun-2014\0\\#P Geom=A
 llCheck Guess=TCheck SCRF=Check GenChk RM06/ChkBas NMR=ReadFC IOp(3/6=
 22)\\NMR spin-spin scan\\0,1\C,0,0.266959,1.220612,0.275623\C,0,0.0667
 62,0.131629,-0.780875\H,0,0.568343,0.51175,-1.676245\C,0,-2.472006,-2.
 252941,-0.314005\H,0,-3.295154,-2.63722,0.292303\H,0,-2.64748,-2.55333
 6,-1.348496\H,0,-1.565541,-2.761398,0.027993\O,0,0.75707,0.998137,1.37
 8146\N,0,0.748698,-1.08317,-0.404708\H,0,0.231679,-1.800799,0.078372\N
 ,0,-0.099452,2.449065,-0.105931\H,0,-0.465847,2.590282,-1.033495\C,0,-
 0.014282,3.57541,0.794957\H,0,-0.584995,3.387912,1.705697\H,0,1.018686
 ,3.782144,1.077416\H,0,-0.422915,4.452096,0.301674\C,0,2.092064,-1.171
 948,-0.411053\C,0,2.673375,-2.440878,0.119646\H,0,1.920313,-3.168687,0
 .414049\H,0,3.321444,-2.877163,-0.639719\H,0,3.296938,-2.202696,0.9815
 92\O,0,2.804987,-0.269308,-0.845501\C,0,-2.378458,-0.740181,-0.185148\
 H,0,-3.356392,-0.354991,-0.493557\C,0,-2.185617,-0.333205,1.263519\H,0
 ,-1.260921,-0.738617,1.681116\H,0,-2.16802,0.751422,1.393424\H,0,-3.00
 8525,-0.719672,1.868229\C,0,-1.386606,-0.118985,-1.184131\H,0,-1.36599
 7,-0.738485,-2.084536\H,0,-1.783488,0.846516,-1.506015\\Version=EM64L-
 G09RevD.01\State=1-A\HF=-613.5773766\RMSD=9.399e-09\Dipole=-1.8111383,
 -0.0945113,-0.5624329\Quadrupole=-6.6757285,9.9431104,-3.267382,-4.162
 4585,2.3526525,-2.6223586\PG=C01 [X(C9H18N2O2)]\\@


 When cryptography is outlawed, bayl bhgynjf jvyy unir cevinpl.
 Job cpu time:       2 days 14 hours 45 minutes 35.1 seconds.
 File lengths (MBytes):  RWF=   2456 Int=      0 D2E=      0 Chk=     48 Scr=      8
 Normal termination of Gaussian 09 at Wed Jun 18 12:41:00 2014.
