 Entering Gaussian System, Link 0=g09
 Input=scan_input_9.gjf
 Output=scan_input_9.log
 Initial command:
 /home/ztw1e12/g09/l1.exe "/home/ztw1e12/leucine_scan/leucine_chi2_scan/Gau-4887.inp" -scrdir="/home/ztw1e12/leucine_scan/leucine_chi2_scan/"
 Default is to use a total of   8 processors:
                                8 via shared-memory
                                1 via Linda
 Entering Link 1 = /home/ztw1e12/g09/l1.exe PID=      4888.
  
 Copyright (c) 1988,1990,1992,1993,1995,1998,2003,2009,2013,
            Gaussian, Inc.  All Rights Reserved.
  
 This is part of the Gaussian(R) 09 program.  It is based on
 the Gaussian(R) 03 system (copyright 2003, Gaussian, Inc.),
 the Gaussian(R) 98 system (copyright 1998, Gaussian, Inc.),
 the Gaussian(R) 94 system (copyright 1995, Gaussian, Inc.),
 the Gaussian 92(TM) system (copyright 1992, Gaussian, Inc.),
 the Gaussian 90(TM) system (copyright 1990, Gaussian, Inc.),
 the Gaussian 88(TM) system (copyright 1988, Gaussian, Inc.),
 the Gaussian 86(TM) system (copyright 1986, Carnegie Mellon
 University), and the Gaussian 82(TM) system (copyright 1983,
 Carnegie Mellon University). Gaussian is a federally registered
 trademark of Gaussian, Inc.
  
 This software contains proprietary and confidential information,
 including trade secrets, belonging to Gaussian, Inc.
  
 This software is provided under written license and may be
 used, copied, transmitted, or stored only in accord with that
 written license.
  
 The following legend is applicable only to US Government
 contracts under FAR:
  
                    RESTRICTED RIGHTS LEGEND
  
 Use, reproduction and disclosure by the US Government is
 subject to restrictions as set forth in subparagraphs (a)
 and (c) of the Commercial Computer Software - Restricted
 Rights clause in FAR 52.227-19.
  
 Gaussian, Inc.
 340 Quinnipiac St., Bldg. 40, Wallingford CT 06492
  
  
 ---------------------------------------------------------------
 Warning -- This program may not be used in any manner that
 competes with the business of Gaussian, Inc. or will provide
 assistance to any competitor of Gaussian, Inc.  The licensee
 of this program is prohibited from giving any competitor of
 Gaussian, Inc. access to this program.  By using this program,
 the user acknowledges that Gaussian, Inc. is engaged in the
 business of creating and licensing software in the field of
 computational chemistry and represents and warrants to the
 licensee that it is not a competitor of Gaussian, Inc. and that
 it will not use this program in any manner prohibited above.
 ---------------------------------------------------------------
  

 Cite this work as:
 Gaussian 09, Revision D.01,
 M. J. Frisch, G. W. Trucks, H. B. Schlegel, G. E. Scuseria, 
 M. A. Robb, J. R. Cheeseman, G. Scalmani, V. Barone, B. Mennucci, 
 G. A. Petersson, H. Nakatsuji, M. Caricato, X. Li, H. P. Hratchian, 
 A. F. Izmaylov, J. Bloino, G. Zheng, J. L. Sonnenberg, M. Hada, 
 M. Ehara, K. Toyota, R. Fukuda, J. Hasegawa, M. Ishida, T. Nakajima, 
 Y. Honda, O. Kitao, H. Nakai, T. Vreven, J. A. Montgomery, Jr., 
 J. E. Peralta, F. Ogliaro, M. Bearpark, J. J. Heyd, E. Brothers, 
 K. N. Kudin, V. N. Staroverov, T. Keith, R. Kobayashi, J. Normand, 
 K. Raghavachari, A. Rendell, J. C. Burant, S. S. Iyengar, J. Tomasi, 
 M. Cossi, N. Rega, J. M. Millam, M. Klene, J. E. Knox, J. B. Cross, 
 V. Bakken, C. Adamo, J. Jaramillo, R. Gomperts, R. E. Stratmann, 
 O. Yazyev, A. J. Austin, R. Cammi, C. Pomelli, J. W. Ochterski, 
 R. L. Martin, K. Morokuma, V. G. Zakrzewski, G. A. Voth, 
 P. Salvador, J. J. Dannenberg, S. Dapprich, A. D. Daniels, 
 O. Farkas, J. B. Foresman, J. V. Ortiz, J. Cioslowski, 
 and D. J. Fox, Gaussian, Inc., Wallingford CT, 2013.
 
 ******************************************
 Gaussian 09:  EM64L-G09RevD.01 24-Apr-2013
                18-Jun-2014 
 ******************************************
 %Mem=32GB
 %NProcShared=16
 Will use up to   16 processors via shared memory.
 Default route:  MaxDisk=100GB
 ----------------------------------------------------------------------
 #p nmr=(giao,mixed,spinspin) m06/cc-pvtz scf=tight integral=(grid=ultr
 afine)
 ----------------------------------------------------------------------
 1/38=1/1;
 2/12=2,17=6,18=5,40=1/2;
 3/5=16,6=1,10=1100000,11=2,16=1,25=1,30=1,74=-54,75=-5/1,2,8,3;
 4//1;
 5/5=2,32=2,38=5/2;
 8/6=1,10=90,11=11/1;
 10/13=100,45=16,47=3/2;
 6/7=2,8=2,9=2,10=2,28=1/1;
 99/9=1/99;
 Leave Link    1 at Wed Jun 18 01:24:04 2014, MaxMem=  4294967296 cpu:         5.1
 (Enter /home/ztw1e12/g09/l101.exe)
 ------------------
 NMR spin-spin scan
 ------------------
 Symbolic Z-matrix:
 Charge =  0 Multiplicity = 1
 C                     0.29821   1.23934   0.26273 
 C                     0.12811   0.12126  -0.76811 
 H                     0.65193   0.48173  -1.65922 
 C                    -2.61115  -2.15285  -0.36195 
 H                    -3.41747  -2.48826   0.29385 
 H                    -2.89635  -2.37928  -1.39082 
 H                    -1.72824  -2.75497  -0.12423 
 O                     0.87495   1.07542   1.33279 
 N                     0.80565  -1.08361  -0.35137 
 H                     0.27922  -1.80608   0.11444 
 N                    -0.18639   2.42989  -0.11013 
 H                    -0.68088   2.50895  -0.98368 
 C                    -0.16581   3.5622    0.78694 
 H                    -0.71466   3.34567   1.70559 
 H                     0.85513   3.83234   1.05705 
 H                    -0.63147   4.4105    0.29457 
 C                     2.14516  -1.20254  -0.39035 
 C                     2.71078  -2.47817   0.14224 
 H                     1.95008  -3.17675   0.484 
 H                     3.31009  -2.94954  -0.63623 
 H                     3.37887  -2.24417   0.97097 
 O                     2.87013  -0.32312  -0.8527 
 C                    -2.34443  -0.66741  -0.17653 
 H                    -3.28095  -0.15704  -0.42382 
 C                    -2.05464  -0.35668   1.28097 
 H                    -1.15441  -0.86167   1.63985 
 H                    -1.94048   0.71262   1.47092 
 H                    -2.88436  -0.70532   1.89911 
 C                    -1.31231  -0.14638  -1.19958 
 H                    -1.26591  -0.84139  -2.04168 
 H                    -1.68276   0.78862  -1.6253 
 
 NAtoms=     31 NQM=       31 NQMF=       0 NMMI=      0 NMMIF=      0
                NMic=       0 NMicF=      0.
                    Isotopes and Nuclear Properties:
 (Nuclear quadrupole moments (NQMom) in fm**2, nuclear magnetic moments (NMagM)
  in nuclear magnetons)

  Atom         1           2           3           4           5           6           7           8           9          10
 IAtWgt=          12          12           1          12           1           1           1          16          14           1
 AtmWgt=  12.0000000  12.0000000   1.0078250  12.0000000   1.0078250   1.0078250   1.0078250  15.9949146  14.0030740   1.0078250
 NucSpn=           0           0           1           0           1           1           1           0           2           1
 AtZEff=   0.0000000   0.0000000   0.0000000   0.0000000   0.0000000   0.0000000   0.0000000   0.0000000   0.0000000   0.0000000
 NQMom=    0.0000000   0.0000000   0.0000000   0.0000000   0.0000000   0.0000000   0.0000000   0.0000000   2.0440000   0.0000000
 NMagM=    0.0000000   0.0000000   2.7928460   0.0000000   2.7928460   2.7928460   2.7928460   0.0000000   0.4037610   2.7928460
 AtZNuc=   6.0000000   6.0000000   1.0000000   6.0000000   1.0000000   1.0000000   1.0000000   8.0000000   7.0000000   1.0000000

  Atom        11          12          13          14          15          16          17          18          19          20
 IAtWgt=          14           1          12           1           1           1          12          12           1           1
 AtmWgt=  14.0030740   1.0078250  12.0000000   1.0078250   1.0078250   1.0078250  12.0000000  12.0000000   1.0078250   1.0078250
 NucSpn=           2           1           0           1           1           1           0           0           1           1
 AtZEff=   0.0000000   0.0000000   0.0000000   0.0000000   0.0000000   0.0000000   0.0000000   0.0000000   0.0000000   0.0000000
 NQMom=    2.0440000   0.0000000   0.0000000   0.0000000   0.0000000   0.0000000   0.0000000   0.0000000   0.0000000   0.0000000
 NMagM=    0.4037610   2.7928460   0.0000000   2.7928460   2.7928460   2.7928460   0.0000000   0.0000000   2.7928460   2.7928460
 AtZNuc=   7.0000000   1.0000000   6.0000000   1.0000000   1.0000000   1.0000000   6.0000000   6.0000000   1.0000000   1.0000000

  Atom        21          22          23          24          25          26          27          28          29          30
 IAtWgt=           1          16          12           1          12           1           1           1          12           1
 AtmWgt=   1.0078250  15.9949146  12.0000000   1.0078250  12.0000000   1.0078250   1.0078250   1.0078250  12.0000000   1.0078250
 NucSpn=           1           0           0           1           0           1           1           1           0           1
 AtZEff=   0.0000000   0.0000000   0.0000000   0.0000000   0.0000000   0.0000000   0.0000000   0.0000000   0.0000000   0.0000000
 NQMom=    0.0000000   0.0000000   0.0000000   0.0000000   0.0000000   0.0000000   0.0000000   0.0000000   0.0000000   0.0000000
 NMagM=    2.7928460   0.0000000   0.0000000   2.7928460   0.0000000   2.7928460   2.7928460   2.7928460   0.0000000   2.7928460
 AtZNuc=   1.0000000   8.0000000   6.0000000   1.0000000   6.0000000   1.0000000   1.0000000   1.0000000   6.0000000   1.0000000

  Atom        31
 IAtWgt=           1
 AtmWgt=   1.0078250
 NucSpn=           1
 AtZEff=   0.0000000
 NQMom=    0.0000000
 NMagM=    2.7928460
 AtZNuc=   1.0000000
 Leave Link  101 at Wed Jun 18 01:24:04 2014, MaxMem=  4294967296 cpu:         1.9
 (Enter /home/ztw1e12/g09/l202.exe)
                          Input orientation:                          
 ---------------------------------------------------------------------
 Center     Atomic      Atomic             Coordinates (Angstroms)
 Number     Number       Type             X           Y           Z
 ---------------------------------------------------------------------
      1          6           0        0.298211    1.239339    0.262734
      2          6           0        0.128111    0.121264   -0.768113
      3          1           0        0.651934    0.481730   -1.659220
      4          6           0       -2.611148   -2.152848   -0.361954
      5          1           0       -3.417471   -2.488255    0.293847
      6          1           0       -2.896353   -2.379282   -1.390821
      7          1           0       -1.728236   -2.754971   -0.124230
      8          8           0        0.874954    1.075415    1.332794
      9          7           0        0.805648   -1.083613   -0.351367
     10          1           0        0.279218   -1.806080    0.114443
     11          7           0       -0.186391    2.429889   -0.110127
     12          1           0       -0.680875    2.508948   -0.983680
     13          6           0       -0.165809    3.562197    0.786940
     14          1           0       -0.714663    3.345665    1.705586
     15          1           0        0.855134    3.832340    1.057048
     16          1           0       -0.631474    4.410495    0.294573
     17          6           0        2.145157   -1.202544   -0.390349
     18          6           0        2.710780   -2.478168    0.142236
     19          1           0        1.950077   -3.176755    0.484002
     20          1           0        3.310086   -2.949539   -0.636225
     21          1           0        3.378866   -2.244170    0.970970
     22          8           0        2.870125   -0.323117   -0.852698
     23          6           0       -2.344432   -0.667407   -0.176530
     24          1           0       -3.280946   -0.157035   -0.423824
     25          6           0       -2.054643   -0.356677    1.280968
     26          1           0       -1.154407   -0.861668    1.639854
     27          1           0       -1.940484    0.712617    1.470923
     28          1           0       -2.884363   -0.705323    1.899111
     29          6           0       -1.312313   -0.146375   -1.199577
     30          1           0       -1.265910   -0.841392   -2.041675
     31          1           0       -1.682758    0.788616   -1.625298
 ---------------------------------------------------------------------
                    Distance matrix (angstroms):
                    1          2          3          4          5
     1  C    0.000000
     2  C    1.530252   0.000000
     3  H    2.095948   1.094714   0.000000
     4  C    4.512376   3.583307   4.389944   0.000000
     5  H    5.263290   4.528631   5.403271   1.092122   0.000000
     6  H    5.102343   3.973396   4.565936   1.091413   1.766790
     7  H    4.495636   3.483294   4.300888   1.094805   1.760523
     8  O    1.226594   2.425281   3.058488   5.044478   5.674863
     9  N    2.455752   1.443767   2.045582   3.580205   4.497116
    10  H    3.049086   2.125181   2.918711   2.949817   3.763384
    11  N    1.338385   2.421075   2.626367   5.190794   5.898408
    12  H    2.030779   2.530210   2.518402   5.083782   5.838927
    13  C    2.426062   3.787426   4.017671   6.321501   6.886539
    14  H    2.746697   4.150448   4.625109   6.172927   6.582765
    15  H    2.768529   4.199031   4.318100   7.060535   7.667304
    16  H    3.304778   4.483723   4.571612   6.886771   7.440063
    17  C    3.130578   2.442058   2.583898   4.850394   5.750131
    18  C    4.433381   3.775707   4.030519   5.355647   6.130134
    19  H    4.720117   3.970426   4.434308   4.750663   5.414865
    20  H    5.237005   4.424047   4.459361   5.980882   6.807190
    21  H    4.703921   4.380308   4.667396   6.137206   6.834345
    22  O    3.209392   2.779077   2.493718   5.799405   6.748055
    23  C    3.288190   2.661849   3.535123   1.520544   2.165215
    24  H    3.902767   3.437682   4.171543   2.106117   2.443006
    25  C    3.019932   3.031761   4.083282   2.497022   2.715756
    26  H    2.901860   2.899882   3.993930   2.792217   3.094993
    27  H    2.597867   3.105168   4.070840   3.467004   3.716528
    28  H    4.072864   4.107594   5.155212   2.698590   2.457626
    29  C    2.579214   1.527289   2.112831   2.532690   3.485170
    30  H    3.476524   2.119425   2.361154   2.520128   3.577155
    31  H    2.773455   2.111722   2.355019   3.333190   4.174953
                    6          7          8          9         10
     6  H    0.000000
     7  H    1.763489   0.000000
     8  O    5.794460   4.855036   0.000000
     9  N    4.057590   3.043944   2.739088   0.000000
    10  H    3.560707   2.233211   3.184697   1.008001   0.000000
    11  N    5.666762   5.409275   2.245679   3.658830   4.267395
    12  H    5.382276   5.435482   3.137144   3.939044   4.554901
    13  C    6.892002   6.570998   2.750496   4.880883   5.428508
    14  H    6.864585   6.449288   2.796407   5.114773   5.482701
    15  H    7.658327   7.173694   2.770752   5.113969   5.745604
    16  H    7.353319   7.261004   3.803944   5.715574   6.285508
    17  C    5.272806   4.181390   3.125977   1.345343   2.025043
    18  C    5.813775   4.455613   4.173205   2.412044   2.522889
    19  H    5.257262   3.752044   4.467358   2.527608   2.192509
    20  H    6.278096   5.068006   5.099721   3.136086   3.325231
    21  H    6.706317   5.248130   4.173744   3.117197   3.245517
    22  O    6.145703   5.252571   3.273068   2.256491   3.138047
    23  C    2.170169   2.177236   3.959790   3.182263   2.874853
    24  H    2.453849   3.041371   4.677194   4.190948   3.960284
    25  C    3.455121   2.798738   3.261305   3.372568   2.984704
    26  H    3.810842   2.650635   2.822212   2.802862   2.296535
    27  H    4.320081   3.822791   2.842075   3.753455   3.620905
    28  H    3.691332   3.103481   4.198119   4.338656   3.795385
    29  C    2.744382   2.852041   3.562276   2.466502   2.648441
    30  H    2.333894   2.748113   4.432210   2.684616   2.822568
    31  H    3.400496   3.848673   3.921027   3.364566   3.688969
                   11         12         13         14         15
    11  N    0.000000
    12  H    1.006906   0.000000
    13  C    1.444740   2.123611   0.000000
    14  H    2.101078   2.816627   1.091805   0.000000
    15  H    2.100938   2.876675   1.090073   1.766838   0.000000
    16  H    2.069947   2.291779   1.085762   1.769673   1.767946
    17  C    4.325414   4.702518   5.424881   5.766951   5.395292
    18  C    5.704937   6.135335   6.721340   6.935038   6.640995
    19  H    6.029257   6.434533   7.069810   7.150879   7.117211
    20  H    6.437420   6.770788   7.517310   7.830216   7.408633
    21  H    5.977178   6.549373   6.805328   6.967273   6.580320
    22  O    4.180041   4.543935   5.196246   5.731970   4.997514
    23  C    3.775552   3.675343   4.854299   4.722632   5.657443
    24  H    4.045597   3.765803   5.000271   4.836228   5.934244
    25  C    3.631867   3.902265   4.378279   3.960200   5.105370
    26  H    3.851472   4.297466   4.612523   4.230762   5.139225
    27  H    2.919860   3.292187   3.425990   2.913871   4.209447
    28  H    4.598439   4.847410   5.180655   4.599517   5.939974
    29  C    3.015251   2.737894   4.360531   4.581648   5.061655
    30  H    3.949369   3.561797   5.348166   5.645997   5.995388
    31  H    2.688612   2.091647   3.976528   4.309350   4.785408
                   16         17         18         19         20
    16  H    0.000000
    17  C    6.299604   0.000000
    18  C    7.658169   1.493584   0.000000
    19  H    8.016648   2.167961   1.087886   0.000000
    20  H    8.400737   2.114121   1.089660   1.776559   0.000000
    21  H    7.799032   2.111921   1.089906   1.774342   1.756517
    22  O    5.998709   1.229934   2.378977   3.282759   2.671801
    23  C    5.379707   4.526422   5.379185   5.017563   6.114983
    24  H    5.328989   5.526012   6.450493   6.107901   7.161347
    25  C    5.071914   4.598599   5.339166   4.962437   6.259303
    26  H    5.466163   3.889093   4.449225   4.041465   5.428760
    27  H    4.095315   4.881049   5.794892   5.589069   6.739432
    28  H    5.815638   5.548417   6.126599   5.610911   7.059436
    29  C    4.843665   3.704651   4.839731   4.760339   5.435225
    30  H    5.782982   3.806926   4.823128   4.709091   5.230613
    31  H    4.231916   4.488068   5.753193   5.776747   6.315106
                   21         22         23         24         25
    21  H    0.000000
    22  O    2.697226   0.000000
    23  C    6.046410   5.269473   0.000000
    24  H    7.117210   6.168240   1.094848   0.000000
    25  C    5.760360   5.367215   1.518167   2.109500   0.000000
    26  H    4.786364   4.764421   2.180171   3.045889   1.092813
    27  H    6.106392   5.441867   2.186719   2.478548   1.092019
    28  H    6.515945   6.390044   2.145052   2.419489   1.091829
    29  C    5.578457   4.200518   1.543816   2.115992   2.597765
    30  H    5.711196   4.334635   2.161538   2.673230   3.449204
    31  H    6.446583   4.749906   2.157949   2.211787   3.145851
                   26         27         28         29         30
    26  H    0.000000
    27  H    1.767718   0.000000
    28  H    1.756248   1.756362   0.000000
    29  C    2.932396   2.874724   3.519323   0.000000
    30  H    3.683273   3.899787   4.262358   1.092854   0.000000
    31  H    3.696459   3.107858   4.012128   1.092097   1.733222
                   31
    31  H    0.000000
 Stoichiometry    C9H18N2O2
 Framework group  C1[X(C9H18N2O2)]
 Deg. of freedom    87
 Full point group                 C1      NOp   1
 Largest Abelian subgroup         C1      NOp   1
 Largest concise Abelian subgroup C1      NOp   1
                         Standard orientation:                         
 ---------------------------------------------------------------------
 Center     Atomic      Atomic             Coordinates (Angstroms)
 Number     Number       Type             X           Y           Z
 ---------------------------------------------------------------------
      1          6           0        0.624595   -1.148459    0.064744
      2          6           0       -0.090364   -0.081841   -0.767622
      3          1           0       -0.381269   -0.596162   -1.689168
      4          6           0        0.616281    3.361798   -0.073294
      5          1           0        1.107154    4.064952    0.602981
      6          1           0        0.553221    3.828323   -1.057956
      7          1           0       -0.406420    3.221482    0.291387
      8          8           0        0.223861   -1.512461    1.165401
      9          7           0       -1.313547    0.346795   -0.131575
     10          1           0       -1.306397    1.182488    0.432015
     11          7           0        1.697357   -1.695539   -0.519345
     12          1           0        2.007923   -1.341708   -1.409407
     13          6           0        2.517530   -2.661947    0.173941
     14          1           0        2.922229   -2.243276    1.097505
     15          1           0        1.945373   -3.554382    0.427825
     16          1           0        3.343457   -2.949553   -0.469493
     17          6           0       -2.416130   -0.423665   -0.106096
     18          6           0       -3.583163    0.118177    0.652346
     19          1           0       -3.398721    1.100437    1.082046
     20          1           0       -4.442596    0.171913   -0.015373
     21          1           0       -3.834244   -0.579565    1.451099
     22          8           0       -2.475072   -1.506558   -0.686274
     23          6           0        1.376802    2.046449   -0.132605
     24          1           0        2.381112    2.291770   -0.492982
     25          6           0        1.546958    1.466890    1.260230
     26          1           0        0.588650    1.228852    1.728442
     27          1           0        2.161364    0.564171    1.270625
     28          1           0        2.042281    2.199227    1.900876
     29          6           0        0.781912    1.096902   -1.194602
     30          1           0        0.194476    1.683494   -1.905348
     31          1           0        1.598902    0.675082   -1.783899
 ---------------------------------------------------------------------
 Rotational constants (GHZ):      0.7887499      0.6855814      0.4359578
 Leave Link  202 at Wed Jun 18 01:24:04 2014, MaxMem=  4294967296 cpu:         2.3
 (Enter /home/ztw1e12/g09/l301.exe)
 Standard basis: CC-pVTZ (5D, 7F)
 Converting basis for Fermi contact spin-spin IFCMod=1.
 AO basis functions are being uncontracted.
 Ernie: Thresh=  0.10000D-02 Tol=  0.10000D-05 Strict=F.
 There are  1119 symmetry adapted cartesian basis functions of A   symmetry.
 There are  1036 symmetry adapted basis functions of A   symmetry.
  1036 basis functions,  1119 primitive gaussians,  1119 cartesian basis functions
    51 alpha electrons       51 beta electrons
       nuclear repulsion energy       880.2026451350 Hartrees.
 IExCor= 4235 DFT=T Ex+Corr=M06 ExCW=0 ScaHFX=  0.270000
 ScaDFX=  1.000000  1.000000  1.000000  1.000000 ScalE2=  1.000000  1.000000
 IRadAn= 199590 IRanWt=     -1 IRanGd=            0 ICorTp=0 IEmpDi=  4
 NAtoms=   31 NActive=   31 NUniq=   31 SFac= 1.00D+00 NAtFMM=   60 NAOKFM=F Big=F
 Integral buffers will be    131072 words long.
 Raffenetti 2 integral format.
 Two-electron integral symmetry is turned on.
 Leave Link  301 at Wed Jun 18 01:24:05 2014, MaxMem=  4294967296 cpu:        10.4
 (Enter /home/ztw1e12/g09/l302.exe)
 NPDir=0 NMtPBC=     1 NCelOv=     1 NCel=       1 NClECP=     1 NCelD=      1
         NCelK=      1 NCelE2=     1 NClLst=     1 CellRange=     0.0.
 One-electron integrals computed using PRISM.
 GSVD:  received Info=                   1 from GESDD.
 NBasis=  1036 RedAO= T EigKep=  1.25D-04  NBF=  1036
 NBsUse=   932 1.00D-06 EigRej=  5.66D-15 NBFU=   932
 Precomputing XC quadrature grid using
 IXCGrd= 4 IRadAn=      199590 IRanWt=          -1 IRanGd=           0 AccXCQ= 0.00D+00.
 Generated NRdTot=       0 NPtTot=           0 NUsed=           0 NTot=          32
 NSgBfM=   895   895   895   895   895 MxSgAt=    31 MxSgA2=    31.
 Leave Link  302 at Wed Jun 18 01:24:09 2014, MaxMem=  4294967296 cpu:        64.0
 (Enter /home/ztw1e12/g09/l308.exe)
 Leave Link  308 at Wed Jun 18 01:24:10 2014, MaxMem=  4294967296 cpu:         5.5
 (Enter /home/ztw1e12/g09/l303.exe)
 DipDrv:  MaxL=1.
 Leave Link  303 at Wed Jun 18 01:24:10 2014, MaxMem=  4294967296 cpu:         4.2
 (Enter /home/ztw1e12/g09/l401.exe)
 ExpMin= 1.03D-01 ExpMax= 1.38D+05 ExpMxC= 1.38D+05 IAcc=4 IRadAn=    199590 AccDes= 0.00D+00
 Harris functional with IExCor= 1009 and IRadAn=  199590 diagonalized for initial guess.
 HarFok:  IExCor= 1009 AccDes= 0.00D+00 IRadAn=    199590 IDoV= 1 UseB2=F ITyADJ=14
 ICtDFT=  3500011 ScaDFX=  1.000000  1.000000  1.000000  1.000000
 FoFCou: FMM=F IPFlag=           0 FMFlag=      100000 FMFlg1=           0
         NFxFlg=           0 DoJE=T BraDBF=F KetDBF=T FulRan=T
         wScrn=  0.000000 ICntrl=     500 IOpCl=  0 I1Cent=   200000004 NGrid=           0
         NMat0=    1 NMatS0=      1 NMatT0=    0 NMatD0=    1 NMtDS0=    0 NMtDT0=    0
 Petite list used in FoFCou.
 Harris En= -613.557921785960    
 JPrj=0 DoOrth=F DoCkMO=F.
 Leave Link  401 at Wed Jun 18 01:24:27 2014, MaxMem=  4294967296 cpu:       258.6
 (Enter /home/ztw1e12/g09/l502.exe)
 Closed shell SCF:
 Using DIIS extrapolation, IDIIS=  1040.
 Integral symmetry usage will be decided dynamically.
 IVT=     3801329 IEndB=     3801329 NGot=  4294967296 MDV=  4292435888
 LenX=  4292435888 LenY=  4291182608
 Requested convergence on RMS density matrix=1.00D-08 within 128 cycles.
 Requested convergence on MAX density matrix=1.00D-06.
 Requested convergence on             energy=1.00D-06.
 No special actions if energy rises.
 Fock matrices will be formed incrementally for  20 cycles.
 Integral accuracy reduced to 1.0D-05 until final iterations.

 Cycle   1  Pass 0  IDiag  1:
 FoFJK:  IHMeth= 1 ICntrl=       0 DoSepK=F KAlg= 0 I1Cent=   0 FoldK=F
 IRaf= 490000000 NMat=   1 IRICut=       1 DoRegI=T DoRafI=F ISym2E= 0.
 FoFCou: FMM=F IPFlag=           0 FMFlag=      100000 FMFlg1=           0
         NFxFlg=           0 DoJE=F BraDBF=F KetDBF=F FulRan=T
         wScrn=  0.000000 ICntrl=       0 IOpCl=  0 I1Cent=           0 NGrid=           0
         NMat0=    1 NMatS0=      1 NMatT0=    0 NMatD0=    1 NMtDS0=    0 NMtDT0=    0
 Symmetry not used in FoFCou.
 E= -613.177729564343    
 DIIS: error= 1.28D-01 at cycle   1 NSaved=   1.
 NSaved= 1 IEnMin= 1 EnMin= -613.177729564343     IErMin= 1 ErrMin= 1.28D-01
 ErrMax= 1.28D-01  0.00D+00 EMaxC= 1.00D-01 BMatC= 1.30D+01 BMatP= 1.30D+01
 IDIUse=3 WtCom= 0.00D+00 WtEn= 1.00D+00
 Coeff-Com:  0.100D+01
 Coeff-En:   0.100D+01
 Coeff:      0.100D+01
 Gap=     0.285 Goal=   None    Shift=    0.000
 GapD=    0.285 DampG=1.000 DampE=0.250 DampFc=0.2500 IDamp=-1.
 Damping current iteration by 2.50D-01
 RMSDP=2.13D-03 MaxDP=3.07D-01              OVMax= 2.88D-01

 Cycle   2  Pass 0  IDiag  1:
 RMSU=  5.31D-04    CP:  1.01D+00
 E= -613.334176984462     Delta-E=       -0.156447420119 Rises=F Damp=T
 DIIS: error= 1.01D-01 at cycle   2 NSaved=   2.
 NSaved= 2 IEnMin= 2 EnMin= -613.334176984462     IErMin= 2 ErrMin= 1.01D-01
 ErrMax= 1.01D-01  0.00D+00 EMaxC= 1.00D-01 BMatC= 7.66D+00 BMatP= 1.30D+01
 IDIUse=3 WtCom= 0.00D+00 WtEn= 1.00D+00
 Coeff-Com: -0.279D+01 0.379D+01
 Coeff-En:   0.000D+00 0.100D+01
 Coeff:      0.000D+00 0.100D+01
 Gap=     0.214 Goal=   None    Shift=    0.000
 RMSDP=5.85D-04 MaxDP=5.72D-02 DE=-1.56D-01 OVMax= 1.35D-01

 Cycle   3  Pass 0  IDiag  1:
 RMSU=  4.35D-04    CP:  1.03D+00  1.73D+00
 E= -613.524505246392     Delta-E=       -0.190328261931 Rises=F Damp=F
 DIIS: error= 1.41D-02 at cycle   3 NSaved=   3.
 NSaved= 3 IEnMin= 3 EnMin= -613.524505246392     IErMin= 3 ErrMin= 1.41D-02
 ErrMax= 1.41D-02  0.00D+00 EMaxC= 1.00D-01 BMatC= 2.30D-01 BMatP= 7.66D+00
 IDIUse=3 WtCom= 8.59D-01 WtEn= 1.41D-01
 Coeff-Com:  0.120D+01-0.164D+01 0.144D+01
 Coeff-En:   0.134D+00 0.000D+00 0.866D+00
 Coeff:      0.105D+01-0.141D+01 0.136D+01
 Gap=     0.242 Goal=   None    Shift=    0.000
 RMSDP=4.15D-04 MaxDP=3.44D-02 DE=-1.90D-01 OVMax= 6.56D-02

 Cycle   4  Pass 0  IDiag  1:
 RMSU=  2.77D-04    CP:  1.03D+00  1.19D+00  7.28D-01
 E= -613.535575826857     Delta-E=       -0.011070580465 Rises=F Damp=F
 DIIS: error= 8.16D-03 at cycle   4 NSaved=   4.
 NSaved= 4 IEnMin= 4 EnMin= -613.535575826857     IErMin= 4 ErrMin= 8.16D-03
 ErrMax= 8.16D-03  0.00D+00 EMaxC= 1.00D-01 BMatC= 1.07D-01 BMatP= 2.30D-01
 IDIUse=3 WtCom= 9.18D-01 WtEn= 8.16D-02
 Coeff-Com:  0.756D+00-0.104D+01 0.750D+00 0.535D+00
 Coeff-En:   0.000D+00 0.000D+00 0.460D+00 0.540D+00
 Coeff:      0.694D+00-0.955D+00 0.726D+00 0.535D+00
 Gap=     0.273 Goal=   None    Shift=    0.000
 RMSDP=2.78D-04 MaxDP=2.65D-02 DE=-1.11D-02 OVMax= 7.64D-02

 Cycle   5  Pass 0  IDiag  1:
 RMSU=  8.59D-05    CP:  1.02D+00  1.12D+00  8.52D-01  7.60D-02
 E= -613.610152717252     Delta-E=       -0.074576890395 Rises=F Damp=F
 DIIS: error= 2.84D-03 at cycle   5 NSaved=   5.
 NSaved= 5 IEnMin= 5 EnMin= -613.610152717252     IErMin= 5 ErrMin= 2.84D-03
 ErrMax= 2.84D-03  0.00D+00 EMaxC= 1.00D-01 BMatC= 1.41D-02 BMatP= 1.07D-01
 IDIUse=3 WtCom= 9.72D-01 WtEn= 2.84D-02
 Coeff-Com:  0.136D+00-0.193D+00 0.134D+00 0.269D+00 0.654D+00
 Coeff-En:   0.000D+00 0.000D+00 0.000D+00 0.761D-01 0.924D+00
 Coeff:      0.132D+00-0.188D+00 0.130D+00 0.264D+00 0.662D+00
 Gap=     0.264 Goal=   None    Shift=    0.000
 RMSDP=1.50D-04 MaxDP=2.06D-02 DE=-7.46D-02 OVMax= 2.75D-02

 Cycle   6  Pass 0  IDiag  1:
 RMSU=  7.57D-05    CP:  1.03D+00  1.17D+00  9.34D-01  4.67D-01  3.84D-01
 E= -613.618049892986     Delta-E=       -0.007897175735 Rises=F Damp=F
 DIIS: error= 9.80D-04 at cycle   6 NSaved=   6.
 NSaved= 6 IEnMin= 6 EnMin= -613.618049892986     IErMin= 6 ErrMin= 9.80D-04
 ErrMax= 9.80D-04  0.00D+00 EMaxC= 1.00D-01 BMatC= 1.09D-03 BMatP= 1.41D-02
 IDIUse=3 WtCom= 9.90D-01 WtEn= 9.80D-03
 Coeff-Com:  0.583D-01-0.793D-01 0.193D-01 0.444D-01 0.205D+00 0.752D+00
 Coeff-En:   0.000D+00 0.000D+00 0.000D+00 0.000D+00 0.165D-01 0.984D+00
 Coeff:      0.578D-01-0.785D-01 0.191D-01 0.440D-01 0.203D+00 0.754D+00
 Gap=     0.263 Goal=   None    Shift=    0.000
 RMSDP=3.17D-05 MaxDP=3.43D-03 DE=-7.90D-03 OVMax= 8.01D-03

 Cycle   7  Pass 0  IDiag  1:
 RMSU=  2.22D-05    CP:  1.03D+00  1.14D+00  9.33D-01  4.61D-01  5.25D-01
                    CP:  1.09D+00
 E= -613.618642890065     Delta-E=       -0.000592997079 Rises=F Damp=F
 DIIS: error= 5.05D-04 at cycle   7 NSaved=   7.
 NSaved= 7 IEnMin= 7 EnMin= -613.618642890065     IErMin= 7 ErrMin= 5.05D-04
 ErrMax= 5.05D-04  0.00D+00 EMaxC= 1.00D-01 BMatC= 2.54D-04 BMatP= 1.09D-03
 IDIUse=3 WtCom= 9.95D-01 WtEn= 5.05D-03
 Coeff-Com:  0.395D-01-0.529D-01 0.124D-01 0.798D-02 0.593D-01 0.423D+00
 Coeff-Com:  0.511D+00
 Coeff-En:   0.000D+00 0.000D+00 0.000D+00 0.000D+00 0.000D+00 0.126D+00
 Coeff-En:   0.874D+00
 Coeff:      0.393D-01-0.527D-01 0.123D-01 0.794D-02 0.590D-01 0.421D+00
 Coeff:      0.513D+00
 Gap=     0.263 Goal=   None    Shift=    0.000
 RMSDP=1.18D-05 MaxDP=1.40D-03 DE=-5.93D-04 OVMax= 2.77D-03

 Cycle   8  Pass 0  IDiag  1:
 RMSU=  7.09D-06    CP:  1.03D+00  1.14D+00  9.39D-01  4.75D-01  5.08D-01
                    CP:  1.15D+00  6.94D-01
 E= -613.618814485399     Delta-E=       -0.000171595334 Rises=F Damp=F
 DIIS: error= 1.44D-04 at cycle   8 NSaved=   8.
 NSaved= 8 IEnMin= 8 EnMin= -613.618814485399     IErMin= 8 ErrMin= 1.44D-04
 ErrMax= 1.44D-04  0.00D+00 EMaxC= 1.00D-01 BMatC= 2.70D-05 BMatP= 2.54D-04
 IDIUse=3 WtCom= 9.99D-01 WtEn= 1.44D-03
 Coeff-Com:  0.214D-01-0.287D-01 0.835D-02-0.291D-02 0.307D-02 0.166D+00
 Coeff-Com:  0.294D+00 0.539D+00
 Coeff-En:   0.000D+00 0.000D+00 0.000D+00 0.000D+00 0.000D+00 0.000D+00
 Coeff-En:   0.000D+00 0.100D+01
 Coeff:      0.214D-01-0.287D-01 0.834D-02-0.290D-02 0.306D-02 0.165D+00
 Coeff:      0.294D+00 0.539D+00
 Gap=     0.263 Goal=   None    Shift=    0.000
 RMSDP=5.41D-06 MaxDP=6.11D-04 DE=-1.72D-04 OVMax= 1.12D-03

 Initial convergence to 1.0D-05 achieved.  Increase integral accuracy.
 Cycle   9  Pass 1  IDiag  1:
 E= -613.618800457897     Delta-E=        0.000014027502 Rises=F Damp=F
 DIIS: error= 6.32D-05 at cycle   1 NSaved=   1.
 NSaved= 1 IEnMin= 1 EnMin= -613.618800457897     IErMin= 1 ErrMin= 6.32D-05
 ErrMax= 6.32D-05  0.00D+00 EMaxC= 1.00D-01 BMatC= 1.16D-05 BMatP= 1.16D-05
 IDIUse=1 WtCom= 1.00D+00 WtEn= 0.00D+00
 Coeff-Com:  0.100D+01
 Coeff:      0.100D+01
 Gap=     0.264 Goal=   None    Shift=    0.000
 RMSDP=5.41D-06 MaxDP=6.11D-04 DE= 1.40D-05 OVMax= 1.38D-03

 Cycle  10  Pass 1  IDiag  1:
 RMSU=  2.26D-05    CP:  1.00D+00
 E= -613.618796311930     Delta-E=        0.000004145968 Rises=F Damp=F
 DIIS: error= 1.38D-04 at cycle   2 NSaved=   2.
 NSaved= 2 IEnMin= 1 EnMin= -613.618800457897     IErMin= 1 ErrMin= 6.32D-05
 ErrMax= 1.38D-04  0.00D+00 EMaxC= 1.00D-01 BMatC= 1.43D-05 BMatP= 1.16D-05
 IDIUse=3 WtCom= 4.60D-01 WtEn= 5.40D-01
 Coeff-Com:  0.534D+00 0.466D+00
 Coeff-En:   0.635D+00 0.365D+00
 Coeff:      0.589D+00 0.411D+00
 Gap=     0.263 Goal=   None    Shift=    0.000
 RMSDP=3.66D-06 MaxDP=4.85D-04 DE= 4.15D-06 OVMax= 1.14D-03

 Cycle  11  Pass 1  IDiag  1:
 RMSU=  3.61D-06    CP:  1.00D+00  9.83D-01
 E= -613.618805846388     Delta-E=       -0.000009534458 Rises=F Damp=F
 DIIS: error= 4.17D-05 at cycle   3 NSaved=   3.
 NSaved= 3 IEnMin= 3 EnMin= -613.618805846388     IErMin= 3 ErrMin= 4.17D-05
 ErrMax= 4.17D-05  0.00D+00 EMaxC= 1.00D-01 BMatC= 1.14D-06 BMatP= 1.16D-05
 IDIUse=1 WtCom= 1.00D+00 WtEn= 0.00D+00
 Coeff-Com:  0.554D-01 0.220D+00 0.725D+00
 Coeff:      0.554D-01 0.220D+00 0.725D+00
 Gap=     0.263 Goal=   None    Shift=    0.000
 RMSDP=8.52D-07 MaxDP=9.28D-05 DE=-9.53D-06 OVMax= 2.47D-04

 Cycle  12  Pass 1  IDiag  1:
 RMSU=  4.86D-07    CP:  1.00D+00  1.00D+00  8.38D-01
 E= -613.618806558525     Delta-E=       -0.000000712137 Rises=F Damp=F
 DIIS: error= 9.99D-06 at cycle   4 NSaved=   4.
 NSaved= 4 IEnMin= 4 EnMin= -613.618806558525     IErMin= 4 ErrMin= 9.99D-06
 ErrMax= 9.99D-06  0.00D+00 EMaxC= 1.00D-01 BMatC= 9.26D-08 BMatP= 1.14D-06
 IDIUse=1 WtCom= 1.00D+00 WtEn= 0.00D+00
 Coeff-Com:  0.586D-02 0.894D-01 0.353D+00 0.552D+00
 Coeff:      0.586D-02 0.894D-01 0.353D+00 0.552D+00
 Gap=     0.263 Goal=   None    Shift=    0.000
 RMSDP=2.33D-07 MaxDP=2.31D-05 DE=-7.12D-07 OVMax= 5.18D-05

 Cycle  13  Pass 1  IDiag  1:
 RMSU=  1.90D-07    CP:  1.00D+00  1.00D+00  8.46D-01  7.38D-01
 E= -613.618806621506     Delta-E=       -0.000000062981 Rises=F Damp=F
 DIIS: error= 2.41D-06 at cycle   5 NSaved=   5.
 NSaved= 5 IEnMin= 5 EnMin= -613.618806621506     IErMin= 5 ErrMin= 2.41D-06
 ErrMax= 2.41D-06  0.00D+00 EMaxC= 1.00D-01 BMatC= 7.77D-09 BMatP= 9.26D-08
 IDIUse=1 WtCom= 1.00D+00 WtEn= 0.00D+00
 Coeff-Com: -0.225D-02 0.248D-01 0.109D+00 0.276D+00 0.593D+00
 Coeff:     -0.225D-02 0.248D-01 0.109D+00 0.276D+00 0.593D+00
 Gap=     0.263 Goal=   None    Shift=    0.000
 RMSDP=7.35D-08 MaxDP=9.23D-06 DE=-6.30D-08 OVMax= 1.25D-05

 Cycle  14  Pass 1  IDiag  1:
 RMSU=  4.13D-08    CP:  1.00D+00  1.00D+00  8.50D-01  8.46D-01  8.89D-01
 E= -613.618806626827     Delta-E=       -0.000000005321 Rises=F Damp=F
 DIIS: error= 4.63D-07 at cycle   6 NSaved=   6.
 NSaved= 6 IEnMin= 6 EnMin= -613.618806626827     IErMin= 6 ErrMin= 4.63D-07
 ErrMax= 4.63D-07  0.00D+00 EMaxC= 1.00D-01 BMatC= 2.85D-10 BMatP= 7.77D-09
 IDIUse=1 WtCom= 1.00D+00 WtEn= 0.00D+00
 Coeff-Com: -0.114D-02 0.670D-02 0.304D-01 0.944D-01 0.249D+00 0.621D+00
 Coeff:     -0.114D-02 0.670D-02 0.304D-01 0.944D-01 0.249D+00 0.621D+00
 Gap=     0.263 Goal=   None    Shift=    0.000
 RMSDP=2.00D-08 MaxDP=1.61D-06 DE=-5.32D-09 OVMax= 5.86D-06

 Cycle  15  Pass 1  IDiag  1:
 RMSU=  1.68D-08    CP:  1.00D+00  1.00D+00  8.51D-01  8.58D-01  9.13D-01
                    CP:  8.33D-01
 E= -613.618806626922     Delta-E=       -0.000000000094 Rises=F Damp=F
 DIIS: error= 3.55D-07 at cycle   7 NSaved=   7.
 NSaved= 7 IEnMin= 7 EnMin= -613.618806626922     IErMin= 7 ErrMin= 3.55D-07
 ErrMax= 3.55D-07  0.00D+00 EMaxC= 1.00D-01 BMatC= 1.17D-10 BMatP= 2.85D-10
 IDIUse=1 WtCom= 1.00D+00 WtEn= 0.00D+00
 Coeff-Com: -0.346D-03-0.232D-03-0.361D-03 0.944D-02 0.481D-01 0.403D+00
 Coeff-Com:  0.540D+00
 Coeff:     -0.346D-03-0.232D-03-0.361D-03 0.944D-02 0.481D-01 0.403D+00
 Coeff:      0.540D+00
 Gap=     0.263 Goal=   None    Shift=    0.000
 RMSDP=1.35D-08 MaxDP=2.12D-06 DE=-9.44D-11 OVMax= 2.78D-06

 Cycle  16  Pass 1  IDiag  1:
 RMSU=  6.23D-09    CP:  1.00D+00  1.00D+00  8.52D-01  8.70D-01  9.37D-01
                    CP:  9.93D-01  7.28D-01
 E= -613.618806627022     Delta-E=       -0.000000000100 Rises=F Damp=F
 DIIS: error= 1.14D-07 at cycle   8 NSaved=   8.
 NSaved= 8 IEnMin= 8 EnMin= -613.618806627022     IErMin= 8 ErrMin= 1.14D-07
 ErrMax= 1.14D-07  0.00D+00 EMaxC= 1.00D-01 BMatC= 1.17D-11 BMatP= 1.17D-10
 IDIUse=1 WtCom= 1.00D+00 WtEn= 0.00D+00
 Coeff-Com: -0.391D-04-0.110D-02-0.450D-02-0.765D-02-0.680D-02 0.153D+00
 Coeff-Com:  0.307D+00 0.560D+00
 Coeff:     -0.391D-04-0.110D-02-0.450D-02-0.765D-02-0.680D-02 0.153D+00
 Coeff:      0.307D+00 0.560D+00
 Gap=     0.263 Goal=   None    Shift=    0.000
 RMSDP=3.52D-09 MaxDP=2.63D-07 DE=-1.00D-10 OVMax= 8.30D-07

 SCF Done:  E(RM06) =  -613.618806627     A.U. after   16 cycles
            NFock= 16  Conv=0.35D-08     -V/T= 2.0046
 KE= 6.107908716203D+02 PE=-3.191766658334D+03 EE= 1.087154334951D+03
 Leave Link  502 at Wed Jun 18 01:53:28 2014, MaxMem=  4294967296 cpu:     27788.3
 (Enter /home/ztw1e12/g09/l801.exe)
 DoSCS=F DFT=T ScalE2(SS,OS)=  1.000000  1.000000
 Range of M.O.s used for correlation:     1   932
 NBasis=  1036 NAE=    51 NBE=    51 NFC=     0 NFV=     0
 NROrb=    932 NOA=    51 NOB=    51 NVA=   881 NVB=   881

 **** Warning!!: The largest alpha MO coefficient is  0.10608199D+02

 Leave Link  801 at Wed Jun 18 01:53:28 2014, MaxMem=  4294967296 cpu:         0.4
 (Enter /home/ztw1e12/g09/l1002.exe)
 Minotr:  Closed shell wavefunction.
          IDoAtm=1111111111111111111111111111111
          Direct CPHF calculation.
          Differentiating once with respect to Fermi-contact.
          Electric field/nuclear overlap derivatives assumed to be zero.
          Requested convergence is 1.0D-10 RMS, and 1.0D-09 maximum.
          Secondary convergence is 1.0D-12 RMS, and 1.0D-12 maximum.
          NewPWx=T KeepS1=F KeepF1=F KeepIn=T MapXYZ=F SortEE=F KeepMc=T.
          MDV=    4294966050 using IRadAn=  199590.
 Using stored XC quadrature information.
          Solving linear equations simultaneously, MaxMat=       0.
          There are    31 degrees of freedom in the 1st order CPHF.  IDoFFX=0 NUNeed=    31.
     31 vectors produced by pass  0 Test12= 1.45D-17 3.23D-11 XBig12= 4.16D+01 2.57D+00.
 AX will form    31 AO Fock derivatives at one time.
 FoFJK:  IHMeth= 1 ICntrl=       0 DoSepK=F KAlg= 0 I1Cent=   0 FoldK=F
 IRaf= 510000000 NMat=  31 IRICut=       1 DoRegI=T DoRafI=F ISym2E=-1.
 FoFCou: FMM=F IPFlag=           0 FMFlag=      100000 FMFlg1=           0
         NFxFlg=           0 DoJE=F BraDBF=F KetDBF=F FulRan=T
         wScrn=  0.000000 ICntrl=       0 IOpCl=  0 I1Cent=           0 NGrid=           0
         NMat0=   31 NMatS0=      0 NMatT0=   31 NMatD0=   31 NMtDS0=    0 NMtDT0=    0
 Petite list used in FoFCou.
     31 vectors produced by pass  1 Test12= 1.45D-17 3.23D-11 XBig12= 3.44D-01 1.76D-01.
     31 vectors produced by pass  2 Test12= 1.45D-17 3.23D-11 XBig12= 1.70D-02 5.16D-02.
     31 vectors produced by pass  3 Test12= 1.45D-17 3.23D-11 XBig12= 3.79D-04 6.45D-03.
     31 vectors produced by pass  4 Test12= 1.45D-17 3.23D-11 XBig12= 5.46D-06 9.17D-04.
     31 vectors produced by pass  5 Test12= 1.45D-17 3.23D-11 XBig12= 1.31D-07 1.60D-04.
     31 vectors produced by pass  6 Test12= 1.45D-17 3.23D-11 XBig12= 3.89D-09 1.80D-05.
     31 vectors produced by pass  7 Test12= 1.45D-17 3.23D-11 XBig12= 1.14D-10 4.28D-06.
     31 vectors produced by pass  8 Test12= 1.45D-17 3.23D-11 XBig12= 2.90D-12 3.85D-07.
     31 vectors produced by pass  9 Test12= 1.45D-17 3.23D-11 XBig12= 6.29D-14 7.46D-08.
     31 vectors produced by pass 10 Test12= 1.45D-17 3.23D-11 XBig12= 2.19D-15 7.55D-09.
     30 vectors produced by pass 11 Test12= 1.45D-17 3.23D-11 XBig12= 2.19D-17 6.11D-10.
      6 vectors produced by pass 12 Test12= 1.45D-17 3.23D-11 XBig12= 1.77D-19 4.63D-11.
 InvSVY:  IOpt=1 It=  1 EMax= 8.88D-15
 Solved reduced A of dimension   377 with    31 vectors.
 Max diff in FC couplings:  IJMax=    11     2 Diff= 4.44D-04 IJMaxR=    26    13 DiffR= 9.37D-01
 Fermi Contact (FC) contribution to K (Hz):
                1             2             3             4             5 
      1  0.123400D+11
      2  0.267298D+02  0.123400D+11
      3 -0.129578D+01  0.186483D+02  0.123400D+11
      4  0.567673D-01 -0.145987D-01 -0.159909D-01  0.123400D+11
      5 -0.262836D-02  0.141176D-01  0.836127D-02  0.175023D+02  0.123400D+11
      6  0.626981D-02 -0.968687D-02 -0.316354D-03  0.176667D+02 -0.767177D+00
      7  0.226011D-02  0.516158D-03  0.772794D-02  0.165528D+02 -0.770355D+00
      8 -0.956812D+01  0.284164D+01  0.365023D+00  0.232812D-01  0.234583D-03
      9  0.158648D+00  0.189345D+02 -0.862567D+00  0.380664D+00  0.224782D-01
     10 -0.474176D-01  0.237189D+00  0.271549D+00 -0.429866D-01 -0.196880D-02
     11  0.283821D+02  0.132050D+02  0.206440D-01  0.498457D-01  0.413488D-02
     12  0.461422D+00  0.616590D-01 -0.213701D-01 -0.640515D-02 -0.675037D-03
     13 -0.422467D+00  0.956540D+00 -0.550994D-01 -0.267700D-02  0.696142D-03
     14  0.213826D+00 -0.860801D-01  0.312804D-01  0.172344D-02  0.232028D-05
     15  0.158276D+00 -0.791080D-01  0.234820D-01  0.136164D-02  0.352496D-03
     16  0.952144D+00 -0.145631D-01  0.543714D-03  0.133923D-02  0.340255D-04
     17  0.322079D-01 -0.557203D+00  0.389914D+00  0.395190D-01  0.606163D-02
     18 -0.157375D+00  0.883104D+00 -0.844545D-01 -0.585012D-02 -0.534531D-03
     19 -0.115903D-02  0.108427D+00 -0.268872D-02 -0.914370D-03 -0.139643D-04
     20  0.566349D-01  0.985788D-02  0.922217D-02 -0.582947D-03 -0.576856D-04
     21  0.890157D-01  0.538429D-01  0.163209D-01 -0.407475D-03 -0.244132D-04
     22  0.435969D+00  0.837205D+00  0.142370D+00  0.789603D-02  0.102911D-02
     23  0.427184D+00 -0.689665D+00  0.115303D+01  0.171302D+02 -0.569007D+00
     24 -0.251721D-01  0.703194D+00 -0.258856D-01 -0.883035D+00  0.142271D+00
     25  0.212049D+00  0.165121D+01  0.238374D-01 -0.966931D-02  0.276950D+00
     26  0.522321D-01  0.240169D-01  0.111332D-01  0.408938D+00 -0.401043D-02
     27  0.428795D-02  0.679320D-01  0.587675D-02  0.150524D+01  0.331497D-02
     28  0.235148D-01  0.100263D+00  0.259407D-02  0.331856D+00 -0.892261D-02
     29 -0.107269D+00  0.171671D+02 -0.928696D+00  0.972698D-01  0.138832D+01
     30  0.108147D+01 -0.919227D+00  0.168679D+00  0.101516D+01  0.247462D-01
     31  0.149040D+00 -0.545875D+00  0.141592D+00  0.703503D+00  0.131403D-01
                6             7             8             9            10 
      6  0.123400D+11
      7 -0.749972D+00  0.123400D+11
      8  0.321798D-02 -0.463305D-03  0.123400D+11
      9  0.213007D-01  0.246575D+00  0.429986D+00  0.123400D+11
     10 -0.158146D-03 -0.304568D-01 -0.877438D-02  0.313262D+02  0.123400D+11
     11 -0.169249D-03 -0.191854D-03  0.641583D+01  0.730732D+00  0.798476D-01
     12 -0.170064D-03  0.176248D-03  0.480144D+00  0.331109D-01 -0.159826D-02
     13  0.982276D-03 -0.979841D-04  0.680704D+00  0.256669D+00 -0.762767D-03
     14  0.418029D-03 -0.435448D-04  0.254124D+00 -0.772557D-02  0.794276D-03
     15  0.317099D-03  0.729771D-04  0.242536D+00 -0.287323D-02  0.732846D-04
     16  0.150438D-04 -0.102793D-04  0.192049D+00  0.321396D-01 -0.606726D-03
     17  0.303795D-03  0.172222D-01  0.129726D+00  0.260965D+02  0.342431D+00
     18  0.445504D-03  0.135103D-02  0.731544D-01  0.129239D+02  0.112462D+00
     19  0.520102D-04  0.195358D-02  0.619352D-04  0.353496D+00 -0.114116D-01
     20 -0.120094D-04  0.932896D-04  0.587199D-02  0.311964D+00 -0.414438D-02
     21  0.100007D-04  0.294812D-04  0.300019D-02  0.423230D+00 -0.174658D-01
     22  0.101516D-02  0.308895D-02  0.631034D+00  0.567340D+01  0.376554D+00
     23 -0.607274D+00 -0.704696D+00  0.332007D-01  0.496148D+00 -0.194308D-01
     24  0.153024D+00  0.441365D+00  0.167739D-01  0.395243D-01  0.155392D-02
     25  0.127684D+01  0.400966D+00  0.130854D+01  0.694803D+00  0.466997D-02
     26 -0.113614D-01 -0.237421D-01  0.192435D+00  0.276891D+00 -0.206659D-01
     27  0.839340D-01 -0.121219D-01  0.220673D+00  0.114760D-01 -0.158291D-02
     28  0.110132D-01 -0.569759D-02  0.205998D+00  0.654462D-01 -0.359051D-04
     29  0.401738D+00  0.281925D+00  0.331896D+00  0.903229D+00  0.362728D+00
     30 -0.151468D-01 -0.105505D-01  0.880948D-01  0.402029D+00 -0.108557D-01
     31 -0.470900D-02 -0.133623D-01 -0.203775D-01  0.199597D+01 -0.229260D-01
               11            12            13            14            15 
     11  0.123400D+11
     12  0.311504D+02  0.123400D+11
     13  0.171800D+02  0.317329D+00  0.123400D+11
     14 -0.596270D+00  0.705250D-01  0.196584D+02  0.123400D+11
     15 -0.516410D+00  0.142922D+00  0.203136D+02 -0.733595D+00  0.123400D+11
     16 -0.371210D+00  0.288149D+00  0.182192D+02 -0.737096D+00 -0.754292D+00
     17 -0.700670D-01 -0.101016D-02 -0.140817D-01  0.157714D-02  0.155867D-02
     18  0.114135D-01  0.164859D-02  0.132956D-01 -0.125791D-03  0.460062D-04
     19  0.430404D-02 -0.180832D-04 -0.858955D-04 -0.106953D-04  0.000000D+00
     20 -0.683977D-03 -0.616870D-04 -0.252656D-03  0.375570D-04  0.694023D-05
     21  0.247103D-01  0.338965D-04  0.355929D-02 -0.289072D-04 -0.107473D-03
     22  0.184824D+00 -0.176039D-02  0.134204D-01  0.768516D-03  0.755043D-03
     23  0.966950D-02  0.388875D-02  0.124679D-02 -0.205004D-03 -0.653196D-03
     24  0.139621D-01 -0.156571D-02 -0.799216D-03  0.739773D-03  0.183689D-03
     25  0.236246D+00 -0.698834D-02 -0.222578D-03  0.105741D-01  0.258697D-02
     26 -0.103327D-01  0.945994D-03  0.691242D-04 -0.222589D-03 -0.100978D-03
     27  0.523919D-01  0.540158D-03  0.191475D-01  0.701187D-02  0.105601D-02
     28  0.281974D-01 -0.871348D-03  0.114758D-02  0.127311D-02  0.100945D-02
     29  0.249705D-01 -0.358243D-01 -0.865770D-01  0.429193D-01  0.982052D-01
     30 -0.496563D-01 -0.777471D-02 -0.639711D-02  0.422060D-03  0.341877D-02
     31  0.212005D+00 -0.296438D-01  0.571997D-02 -0.892147D-03  0.156313D-02
               16            17            18            19            20 
     16  0.123400D+11
     17  0.708411D-04  0.123400D+11
     18  0.490802D-03  0.274082D+02  0.123400D+11
     19  0.122111D-04 -0.755374D+00  0.169840D+02  0.123400D+11
     20  0.910263D-04 -0.117502D+01  0.178886D+02 -0.722422D+00  0.123400D+11
     21  0.330057D-03 -0.120678D+01  0.180255D+02 -0.742025D+00 -0.922262D+00
     22  0.884871D-03 -0.956059D+01  0.381336D+01  0.830700D+00  0.432135D+00
     23 -0.917772D-03 -0.553337D-01  0.222227D-01 -0.144423D-02 -0.129625D-02
     24  0.217262D-03  0.101137D-01  0.252970D-03  0.898782D-03  0.602874D-03
     25  0.246936D-02  0.368684D-01 -0.597800D-02 -0.881691D-03  0.155673D-02
     26 -0.758165D-04  0.251700D-01  0.181167D-02  0.678951D-03  0.160183D-03
     27  0.712981D-03  0.717187D-03  0.181724D-03  0.771140D-04 -0.264449D-04
     28  0.205156D-03  0.503982D-02 -0.369201D-03 -0.449637D-04  0.123532D-03
     29  0.532871D-02  0.131771D+01 -0.319598D-01 -0.283081D-02  0.240842D-01
     30  0.794138D-03 -0.167826D-01  0.646411D-02  0.148943D-03 -0.518488D-03
     31  0.861156D-03  0.103252D+00  0.656236D-01  0.647138D-04  0.316137D-02
               21            22            23            24            25 
     21  0.123400D+11
     22  0.445209D+00  0.123400D+11
     23 -0.646066D-03  0.127861D+00  0.123400D+11
     24 -0.617107D-04  0.690506D-02  0.169506D+02  0.123400D+11
     25  0.506063D-03  0.741419D-01  0.170488D+02 -0.897267D+00  0.123400D+11
     26  0.266158D-03  0.125667D-03 -0.733121D+00  0.433501D+00  0.172932D+02
     27  0.926601D-04  0.349960D-03 -0.569363D+00  0.141483D+00  0.175223D+02
     28  0.149963D-03  0.184017D-02 -0.671534D+00  0.152926D+00  0.168029D+02
     29 -0.630118D-02  0.139710D+00  0.171971D+02 -0.862222D+00 -0.189651D+00
     30 -0.655872D-03 -0.911124D-03 -0.588575D+00  0.233079D-01  0.569219D+00
     31 -0.218150D-02  0.328009D-02 -0.642722D+00  0.369385D+00  0.492453D-01
               26            27            28            29            30 
     26  0.123400D+11
     27 -0.780145D+00  0.123400D+11
     28 -0.852135D+00 -0.847999D+00  0.123400D+11
     29  0.295721D+00  0.189087D+00  0.122394D+01  0.123400D+11
     30 -0.109134D-01 -0.896383D-02  0.156695D-01  0.177575D+02  0.123400D+11
     31 -0.691229D-02 -0.696987D-02 -0.224557D-01  0.165534D+02 -0.937046D+00
               31 
     31  0.123400D+11
 Fermi Contact (FC) contribution to J (Hz):
                1             2             3             4             5 
      1  0.243533D+11
      2  0.527519D+02  0.243533D+11
      3 -0.101679D+02  0.146332D+03  0.385007D+12
      4  0.112032D+00 -0.288110D-01 -0.125479D+00  0.243533D+11
      5 -0.206245D-01  0.110779D+00  0.260871D+00  0.137339D+03  0.385007D+12
      6  0.491986D-01 -0.760119D-01 -0.987023D-02  0.138629D+03 -0.239359D+02
      7  0.177349D-01  0.405024D-02  0.241111D+00  0.129889D+03 -0.240350D+02
      8  0.101822D+02 -0.302402D+01 -0.154451D+01 -0.247755D-01 -0.992585D-03
      9  0.899873D-01  0.107399D+02 -0.194533D+01  0.215917D+00  0.506947D-01
     10 -0.372081D+00  0.186120D+01  0.847232D+01 -0.337312D+00 -0.614265D-01
     11  0.160987D+02  0.749006D+01  0.465581D-01  0.282731D-01  0.932532D-02
     12  0.362074D+01  0.483832D+00 -0.666745D+00 -0.502606D-01 -0.210611D-01
     13 -0.833750D+00  0.188775D+01 -0.432359D+00 -0.528312D-02  0.546256D-02
     14  0.167787D+01 -0.675462D+00  0.975947D+00  0.135237D-01  0.723926D-04
     15  0.124198D+01 -0.620753D+00  0.732636D+00  0.106846D-01  0.109979D-01
     16  0.747138D+01 -0.114276D+00  0.169639D-01  0.105088D-01  0.106159D-02
     17  0.635631D-01 -0.109965D+01  0.305962D+01  0.779917D-01  0.475651D-01
     18 -0.310583D+00  0.174283D+01 -0.662706D+00 -0.115454D-01 -0.419441D-02
     19 -0.909481D-02  0.850815D+00 -0.838879D-01 -0.717497D-02 -0.435684D-03
     20  0.444409D+00  0.773538D-01  0.287731D+00 -0.457433D-02 -0.179979D-02
     21  0.698498D+00  0.422500D+00  0.509213D+00 -0.319741D-02 -0.761691D-03
     22 -0.463950D+00 -0.890938D+00 -0.602407D+00 -0.840280D-02 -0.435444D-02
     23  0.843059D+00 -0.136107D+01  0.904773D+01  0.338070D+02 -0.446494D+01
     24 -0.197523D+00  0.551789D+01 -0.807631D+00 -0.692909D+01  0.443886D+01
     25  0.418484D+00  0.325871D+01  0.187050D+00 -0.190826D-01  0.217320D+01
     26  0.409860D+00  0.188459D+00  0.347354D+00  0.320890D+01 -0.125125D+00
     27  0.336471D-01  0.533056D+00  0.183354D+00  0.118115D+02  0.103427D+00
     28  0.184518D+00  0.786752D+00  0.809347D-01  0.260404D+01 -0.278385D+00
     29 -0.211699D+00  0.338797D+02 -0.728738D+01  0.191964D+00  0.108940D+02
     30  0.848616D+01 -0.721308D+01  0.526277D+01  0.796589D+01  0.772080D+00
     31  0.116951D+01 -0.428343D+01  0.441767D+01  0.552032D+01  0.409977D+00
                6             7             8             9            10 
      6  0.385007D+12
      7 -0.233991D+02  0.385007D+12
      8 -0.136161D-01  0.196037D-02  0.708114D+10
      9  0.480392D-01  0.556097D+00 -0.131514D+00  0.201170D+10
     10 -0.493415D-02 -0.950252D+00  0.371268D-01  0.706494D+02  0.385007D+12
     11 -0.381704D-03 -0.432686D-03 -0.196233D+01  0.119126D+00  0.180079D+00
     12 -0.530599D-02  0.549892D-02 -0.203162D+01  0.746744D-01 -0.498655D-01
     13  0.770782D-02 -0.768871D-03 -0.724392D+00  0.145586D+00 -0.598536D-02
     14  0.130425D-01 -0.135859D-02 -0.107527D+01 -0.174234D-01  0.247814D-01
     15  0.989348D-02  0.227688D-02 -0.102624D+01 -0.647995D-02  0.228647D-02
     16  0.469367D-03 -0.320713D-03 -0.812613D+00  0.724839D-01 -0.189298D-01
     17  0.238385D-02  0.135141D+00 -0.138052D+00  0.148022D+02  0.268702D+01
     18  0.349583D-02  0.106014D-01 -0.778496D-01  0.733058D+01  0.882481D+00
     19  0.162271D-02  0.609517D-01 -0.262065D-03  0.797234D+00 -0.356043D+00
     20 -0.374693D-03  0.291063D-02 -0.248460D-01  0.703567D+00 -0.129305D+00
     21  0.312020D-03  0.919811D-03 -0.126946D-01  0.954503D+00 -0.544932D+00
     22 -0.429541D-02 -0.130702D-01  0.362110D+00 -0.173525D+01 -0.159330D+01
     23 -0.476522D+01 -0.552968D+01 -0.353316D-01  0.281421D+00 -0.152472D+00
     24  0.477434D+01  0.137706D+02 -0.709751D-01  0.891386D-01  0.484821D-01
     25  0.100192D+02  0.314634D+01 -0.139253D+01  0.394101D+00  0.366448D-01
     26 -0.354475D+00 -0.740751D+00 -0.814247D+00  0.624469D+00 -0.644774D+00
     27  0.261874D+01 -0.378202D+00 -0.933729D+00  0.258816D-01 -0.493867D-01
     28  0.343610D+00 -0.177765D+00 -0.871633D+00  0.147600D+00 -0.112024D-02
     29  0.315240D+01  0.221224D+01 -0.353197D+00  0.512322D+00  0.284629D+01
     30 -0.472579D+00 -0.329176D+00 -0.372753D+00  0.906689D+00 -0.338699D+00
     31 -0.146921D+00 -0.416904D+00  0.862230D-01  0.450148D+01 -0.715290D+00
               11            12            13            14            15 
     11  0.201170D+10
     12  0.702530D+02  0.385007D+12
     13  0.974469D+01  0.249005D+01  0.243533D+11
     14 -0.134476D+01  0.220038D+01  0.154258D+03  0.385007D+12
     15 -0.116465D+01  0.445917D+01  0.159399D+03 -0.228881D+02  0.385007D+12
     16 -0.837185D+00  0.899025D+01  0.142965D+03 -0.229974D+02 -0.235339D+02
     17 -0.397429D-01 -0.792665D-02 -0.277905D-01  0.123757D-01  0.122307D-01
     18  0.647389D-02  0.129363D-01  0.262392D-01 -0.987069D-03  0.361006D-03
     19  0.970684D-02 -0.564196D-03 -0.674014D-03 -0.333693D-03  0.689475D-05
     20 -0.154256D-02 -0.192463D-02 -0.198257D-02  0.117178D-02  0.216535D-03
     21  0.557287D-01  0.105757D-02  0.279294D-01 -0.901903D-03 -0.335315D-02
     22 -0.565297D-01  0.744868D-02 -0.142818D-01 -0.325180D-02 -0.319479D-02
     23  0.548466D-02  0.305147D-01  0.246057D-02 -0.160864D-02 -0.512557D-02
     24  0.314886D-01 -0.488500D-01 -0.627137D-02  0.230809D-01  0.573109D-02
     25  0.134002D+00 -0.548368D-01 -0.439262D-03  0.829743D-01  0.202997D-01
     26 -0.233032D-01  0.295150D-01  0.542411D-03 -0.694476D-02 -0.315051D-02
     27  0.118159D+00  0.168529D-01  0.150248D+00  0.218770D+00  0.329475D-01
     28  0.635932D-01 -0.271860D-01  0.900495D-02  0.397210D-01  0.314948D-01
     29  0.141635D-01 -0.281110D+00 -0.170862D+00  0.336783D+00  0.770607D+00
     30 -0.111989D+00 -0.242571D+00 -0.501975D-01  0.131683D-01  0.106666D+00
     31  0.478131D+00 -0.924884D+00  0.448840D-01 -0.278349D-01  0.487696D-01
               16            17            18            19            20 
     16  0.385007D+12
     17  0.555883D-03  0.243533D+11
     18  0.385127D-02  0.540909D+02  0.243533D+11
     19  0.380987D-03 -0.592735D+01  0.133272D+03  0.385007D+12
     20  0.284002D-02 -0.922024D+01  0.140370D+03 -0.225395D+02  0.385007D+12
     21  0.102978D-01 -0.946949D+01  0.141444D+03 -0.231512D+02 -0.287745D+02
     22 -0.374413D-02  0.101742D+02 -0.405810D+01 -0.351492D+01 -0.182848D+01
     23 -0.720167D-02 -0.109202D+00  0.438570D-01 -0.113328D-01 -0.101715D-01
     24  0.677857D-02  0.793611D-01  0.198503D-02  0.280419D-01  0.188096D-01
     25  0.193769D-01  0.727607D-01 -0.117977D-01 -0.691854D-02  0.122155D-01
     26 -0.236547D-02  0.197507D+00  0.142160D-01  0.211832D-01  0.499769D-02
     27  0.222450D-01  0.562770D-02  0.142597D-02  0.240595D-02 -0.825078D-03
     28  0.640085D-02  0.395470D-01 -0.289709D-02 -0.140286D-02  0.385418D-02
     29  0.418138D-01  0.260053D+01 -0.630735D-01 -0.222131D-01  0.188986D+00
     30  0.247771D-01 -0.131692D+00  0.507232D-01  0.464703D-02 -0.161768D-01
     31  0.268680D-01  0.810210D+00  0.514942D+00  0.201907D-02  0.986346D-01
               21            22            23            24            25 
     21  0.385007D+12
     22 -0.188380D+01  0.708114D+10
     23 -0.506962D-02 -0.136067D+00  0.243533D+11
     24 -0.192537D-02 -0.292172D-01  0.133010D+03  0.385007D+12
     25  0.397103D-02 -0.789004D-01  0.336461D+02 -0.704077D+01  0.243533D+11
     26  0.830413D-02 -0.531734D-03 -0.575273D+01  0.135252D+02  0.135698D+03
     27  0.289099D-02 -0.148077D-02 -0.446774D+01  0.441426D+01  0.137496D+03
     28  0.467883D-02 -0.778626D-02 -0.526946D+01  0.477128D+01  0.131850D+03
     29 -0.494447D-01 -0.148676D+00  0.339389D+02 -0.676577D+01 -0.374281D+00
     30 -0.204632D-01  0.385522D-02 -0.461849D+01  0.727207D+00  0.446661D+01
     31 -0.680628D-01 -0.138790D-01 -0.504338D+01  0.115248D+02  0.386423D+00
               26            27            28            29            30 
     26  0.385007D+12
     27 -0.243405D+02  0.385007D+12
     28 -0.265866D+02 -0.264575D+02  0.385007D+12
     29  0.232049D+01  0.148375D+01  0.960414D+01  0.243533D+11
     30 -0.340498D+00 -0.279671D+00  0.488889D+00  0.139341D+03  0.385007D+12
     31 -0.215663D+00 -0.217460D+00 -0.700616D+00  0.129893D+03 -0.292358D+02
               31 
     31  0.385007D+12
 End of Minotr F.D. properties file   721 does not exist.
 End of Minotr F.D. properties file   722 does not exist.
 End of Minotr F.D. properties file   788 does not exist.
 Leave Link 1002 at Wed Jun 18 08:38:52 2014, MaxMem=  4294967296 cpu:    388234.4
 (Enter /home/ztw1e12/g09/l601.exe)
 Copying SCF densities to generalized density rwf, IOpCl= 0 IROHF=0.

 **********************************************************************

            Population analysis using the SCF density.

 **********************************************************************

 Orbital symmetries:
       Occupied  (A) (A) (A) (A) (A) (A) (A) (A) (A) (A) (A) (A)
                 (A) (A) (A) (A) (A) (A) (A) (A) (A) (A) (A) (A)
                 (A) (A) (A) (A) (A) (A) (A) (A) (A) (A) (A) (A)
                 (A) (A) (A) (A) (A) (A) (A) (A) (A) (A) (A) (A)
                 (A) (A) (A)
       Virtual   (A) (A) (A) (A) (A) (A) (A) (A) (A) (A) (A) (A)
                 (A) (A) (A) (A) (A) (A) (A) (A) (A) (A) (A) (A)
                 (A) (A) (A) (A) (A) (A) (A) (A) (A) (A) (A) (A)
                 (A) (A) (A) (A) (A) (A) (A) (A) (A) (A) (A) (A)
                 (A) (A) (A) (A) (A) (A) (A) (A) (A) (A) (A) (A)
                 (A) (A) (A) (A) (A) (A) (A) (A) (A) (A) (A) (A)
                 (A) (A) (A) (A) (A) (A) (A) (A) (A) (A) (A) (A)
                 (A) (A) (A) (A) (A) (A) (A) (A) (A) (A) (A) (A)
                 (A) (A) (A) (A) (A) (A) (A) (A) (A) (A) (A) (A)
                 (A) (A) (A) (A) (A) (A) (A) (A) (A) (A) (A) (A)
                 (A) (A) (A) (A) (A) (A) (A) (A) (A) (A) (A) (A)
                 (A) (A) (A) (A) (A) (A) (A) (A) (A) (A) (A) (A)
                 (A) (A) (A) (A) (A) (A) (A) (A) (A) (A) (A) (A)
                 (A) (A) (A) (A) (A) (A) (A) (A) (A) (A) (A) (A)
                 (A) (A) (A) (A) (A) (A) (A) (A) (A) (A) (A) (A)
                 (A) (A) (A) (A) (A) (A) (A) (A) (A) (A) (A) (A)
                 (A) (A) (A) (A) (A) (A) (A) (A) (A) (A) (A) (A)
                 (A) (A) (A) (A) (A) (A) (A) (A) (A) (A) (A) (A)
                 (A) (A) (A) (A) (A) (A) (A) (A) (A) (A) (A) (A)
                 (A) (A) (A) (A) (A) (A) (A) (A) (A) (A) (A) (A)
                 (A) (A) (A) (A) (A) (A) (A) (A) (A) (A) (A) (A)
                 (A) (A) (A) (A) (A) (A) (A) (A) (A) (A) (A) (A)
                 (A) (A) (A) (A) (A) (A) (A) (A) (A) (A) (A) (A)
                 (A) (A) (A) (A) (A) (A) (A) (A) (A) (A) (A) (A)
                 (A) (A) (A) (A) (A) (A) (A) (A) (A) (A) (A) (A)
                 (A) (A) (A) (A) (A) (A) (A) (A) (A) (A) (A) (A)
                 (A) (A) (A) (A) (A) (A) (A) (A) (A) (A) (A) (A)
                 (A) (A) (A) (A) (A) (A) (A) (A) (A) (A) (A) (A)
                 (A) (A) (A) (A) (A) (A) (A) (A) (A) (A) (A) (A)
                 (A) (A) (A) (A) (A) (A) (A) (A) (A) (A) (A) (A)
                 (A) (A) (A) (A) (A) (A) (A) (A) (A) (A) (A) (A)
                 (A) (A) (A) (A) (A) (A) (A) (A) (A) (A) (A) (A)
                 (A) (A) (A) (A) (A) (A) (A) (A) (A) (A) (A) (A)
                 (A) (A) (A) (A) (A) (A) (A) (A) (A) (A) (A) (A)
                 (A) (A) (A) (A) (A) (A) (A) (A) (A) (A) (A) (A)
                 (A) (A) (A) (A) (A) (A) (A) (A) (A) (A) (A) (A)
                 (A) (A) (A) (A) (A) (A) (A) (A) (A) (A) (A) (A)
                 (A) (A) (A) (A) (A) (A) (A) (A) (A) (A) (A) (A)
                 (A) (A) (A) (A) (A) (A) (A) (A) (A) (A) (A) (A)
                 (A) (A) (A) (A) (A) (A) (A) (A) (A) (A) (A) (A)
                 (A) (A) (A) (A) (A) (A) (A) (A) (A) (A) (A) (A)
                 (A) (A) (A) (A) (A) (A) (A) (A) (A) (A) (A) (A)
                 (A) (A) (A) (A) (A) (A) (A) (A) (A) (A) (A) (A)
                 (A) (A) (A) (A) (A) (A) (A) (A) (A) (A) (A) (A)
                 (A) (A) (A) (A) (A) (A) (A) (A) (A) (A) (A) (A)
                 (A) (A) (A) (A) (A) (A) (A) (A) (A) (A) (A) (A)
                 (A) (A) (A) (A) (A) (A) (A) (A) (A) (A) (A) (A)
                 (A) (A) (A) (A) (A) (A) (A) (A) (A) (A) (A) (A)
                 (A) (A) (A) (A) (A) (A) (A) (A) (A) (A) (A) (A)
                 (A) (A) (A) (A) (A) (A) (A) (A) (A) (A) (A) (A)
                 (A) (A) (A) (A) (A) (A) (A) (A) (A) (A) (A) (A)
                 (A) (A) (A) (A) (A) (A) (A) (A) (A) (A) (A) (A)
                 (A) (A) (A) (A) (A) (A) (A) (A) (A) (A) (A) (A)
                 (A) (A) (A) (A) (A) (A) (A) (A) (A) (A) (A) (A)
                 (A) (A) (A) (A) (A) (A) (A) (A) (A) (A) (A) (A)
                 (A) (A) (A) (A) (A) (A) (A) (A) (A) (A) (A) (A)
                 (A) (A) (A) (A) (A) (A) (A) (A) (A) (A) (A) (A)
                 (A) (A) (A) (A) (A) (A) (A) (A) (A) (A) (A) (A)
                 (A) (A) (A) (A) (A) (A) (A) (A) (A) (A) (A) (A)
                 (A) (A) (A) (A) (A) (A) (A) (A) (A) (A) (A) (A)
                 (A) (A) (A) (A) (A) (A) (A) (A) (A) (A) (A) (A)
                 (A) (A) (A) (A) (A) (A) (A) (A) (A) (A) (A) (A)
                 (A) (A) (A) (A) (A) (A) (A) (A) (A) (A) (A) (A)
                 (A) (A) (A) (A) (A) (A) (A) (A) (A) (A) (A) (A)
                 (A) (A) (A) (A) (A) (A) (A) (A) (A) (A) (A) (A)
                 (A) (A) (A) (A) (A) (A) (A) (A) (A) (A) (A) (A)
                 (A) (A) (A) (A) (A) (A) (A) (A) (A) (A) (A) (A)
                 (A) (A) (A) (A) (A) (A) (A) (A) (A) (A) (A) (A)
                 (A) (A) (A) (A) (A) (A) (A) (A) (A) (A) (A) (A)
                 (A) (A) (A) (A) (A) (A) (A) (A) (A) (A) (A) (A)
                 (A) (A) (A) (A) (A) (A) (A) (A) (A) (A) (A) (A)
                 (A) (A) (A) (A) (A) (A) (A) (A) (A) (A) (A) (A)
                 (A) (A) (A) (A) (A) (A) (A) (A) (A) (A) (A) (A)
                 (A) (A) (A) (A) (A)
 The electronic state is 1-A.
 Alpha  occ. eigenvalues --  -19.17152 -19.16106 -14.41909 -14.41235 -10.33486
 Alpha  occ. eigenvalues --  -10.33095 -10.29174 -10.27307 -10.25849 -10.25798
 Alpha  occ. eigenvalues --  -10.24041 -10.23535 -10.23317  -1.05357  -1.03835
 Alpha  occ. eigenvalues --   -0.94366  -0.94054  -0.83878  -0.78600  -0.74217
 Alpha  occ. eigenvalues --   -0.72079  -0.70643  -0.66712  -0.60741  -0.59770
 Alpha  occ. eigenvalues --   -0.58257  -0.55001  -0.50216  -0.49315  -0.48152
 Alpha  occ. eigenvalues --   -0.47437  -0.46928  -0.45372  -0.45174  -0.44540
 Alpha  occ. eigenvalues --   -0.42465  -0.42298  -0.40913  -0.40361  -0.40094
 Alpha  occ. eigenvalues --   -0.39777  -0.38834  -0.38312  -0.36500  -0.35506
 Alpha  occ. eigenvalues --   -0.34492  -0.33420  -0.28188  -0.27559  -0.26228
 Alpha  occ. eigenvalues --   -0.25596
 Alpha virt. eigenvalues --    0.00731   0.02165   0.02635   0.03709   0.04445
 Alpha virt. eigenvalues --    0.04831   0.06906   0.06970   0.07817   0.08026
 Alpha virt. eigenvalues --    0.09365   0.09700   0.11413   0.11835   0.12073
 Alpha virt. eigenvalues --    0.12463   0.12908   0.13753   0.15434   0.15881
 Alpha virt. eigenvalues --    0.16535   0.17003   0.18081   0.19181   0.20104
 Alpha virt. eigenvalues --    0.20621   0.22407   0.22602   0.24320   0.24744
 Alpha virt. eigenvalues --    0.25055   0.26344   0.26949   0.27258   0.27390
 Alpha virt. eigenvalues --    0.28196   0.28954   0.29226   0.30922   0.31859
 Alpha virt. eigenvalues --    0.32850   0.33894   0.34316   0.35149   0.35537
 Alpha virt. eigenvalues --    0.36612   0.36987   0.38168   0.38445   0.39220
 Alpha virt. eigenvalues --    0.39533   0.40296   0.40864   0.41173   0.41351
 Alpha virt. eigenvalues --    0.41820   0.42351   0.42708   0.43314   0.43487
 Alpha virt. eigenvalues --    0.44158   0.44428   0.45135   0.45290   0.45883
 Alpha virt. eigenvalues --    0.46898   0.47287   0.47501   0.47861   0.49098
 Alpha virt. eigenvalues --    0.49594   0.50318   0.51078   0.51953   0.52187
 Alpha virt. eigenvalues --    0.52729   0.54138   0.54714   0.55113   0.57286
 Alpha virt. eigenvalues --    0.57928   0.59336   0.60273   0.61392   0.62280
 Alpha virt. eigenvalues --    0.63089   0.63318   0.64080   0.65049   0.68454
 Alpha virt. eigenvalues --    0.68996   0.69286   0.71798   0.72567   0.73371
 Alpha virt. eigenvalues --    0.74883   0.75716   0.76489   0.76758   0.78192
 Alpha virt. eigenvalues --    0.78961   0.79502   0.81050   0.82190   0.83888
 Alpha virt. eigenvalues --    0.84532   0.84944   0.85921   0.86692   0.87228
 Alpha virt. eigenvalues --    0.88070   0.88611   0.89894   0.90723   0.91374
 Alpha virt. eigenvalues --    0.91627   0.93600   0.93729   0.95043   0.95233
 Alpha virt. eigenvalues --    0.96271   0.96508   0.97059   0.97643   0.98406
 Alpha virt. eigenvalues --    0.99314   0.99591   1.00854   1.01227   1.01938
 Alpha virt. eigenvalues --    1.03454   1.03673   1.05947   1.06195   1.06411
 Alpha virt. eigenvalues --    1.07263   1.07890   1.08629   1.08938   1.09676
 Alpha virt. eigenvalues --    1.10587   1.11257   1.12101   1.13495   1.14714
 Alpha virt. eigenvalues --    1.15380   1.15880   1.16014   1.17063   1.17577
 Alpha virt. eigenvalues --    1.17641   1.19449   1.20321   1.20648   1.21221
 Alpha virt. eigenvalues --    1.22010   1.22285   1.22923   1.23507   1.24071
 Alpha virt. eigenvalues --    1.24366   1.25085   1.26040   1.26302   1.26647
 Alpha virt. eigenvalues --    1.27380   1.28080   1.28798   1.29312   1.29697
 Alpha virt. eigenvalues --    1.30320   1.31654   1.32195   1.32681   1.32965
 Alpha virt. eigenvalues --    1.34414   1.35355   1.35763   1.36518   1.37247
 Alpha virt. eigenvalues --    1.38000   1.38393   1.39797   1.40433   1.41749
 Alpha virt. eigenvalues --    1.43133   1.44033   1.44911   1.45989   1.47720
 Alpha virt. eigenvalues --    1.49412   1.50843   1.52883   1.53871   1.56574
 Alpha virt. eigenvalues --    1.58431   1.58994   1.60242   1.62254   1.63564
 Alpha virt. eigenvalues --    1.65530   1.68645   1.69807   1.71295   1.71889
 Alpha virt. eigenvalues --    1.73948   1.75651   1.77721   1.79415   1.82413
 Alpha virt. eigenvalues --    1.83750   1.87805   1.89110   1.91626   1.93377
 Alpha virt. eigenvalues --    1.93622   1.94035   1.95940   1.97778   2.00229
 Alpha virt. eigenvalues --    2.00916   2.02682   2.04645   2.05186   2.06599
 Alpha virt. eigenvalues --    2.08702   2.09247   2.11754   2.13029   2.14533
 Alpha virt. eigenvalues --    2.18282   2.19018   2.19578   2.20228   2.22948
 Alpha virt. eigenvalues --    2.23200   2.24639   2.26290   2.27827   2.30843
 Alpha virt. eigenvalues --    2.31650   2.33831   2.37021   2.37435   2.38224
 Alpha virt. eigenvalues --    2.38949   2.39431   2.41548   2.42343   2.43231
 Alpha virt. eigenvalues --    2.43984   2.45908   2.45945   2.48454   2.49869
 Alpha virt. eigenvalues --    2.50720   2.51944   2.53213   2.54328   2.55016
 Alpha virt. eigenvalues --    2.55771   2.56167   2.57530   2.62223   2.64862
 Alpha virt. eigenvalues --    2.65205   2.67700   2.68024   2.69128   2.69575
 Alpha virt. eigenvalues --    2.70858   2.71015   2.71512   2.72950   2.74066
 Alpha virt. eigenvalues --    2.74516   2.75002   2.75568   2.76221   2.78690
 Alpha virt. eigenvalues --    2.79488   2.80784   2.81369   2.82072   2.83375
 Alpha virt. eigenvalues --    2.83599   2.84632   2.85612   2.86244   2.87489
 Alpha virt. eigenvalues --    2.88133   2.88570   2.89477   2.90403   2.91866
 Alpha virt. eigenvalues --    2.92025   2.92861   2.93344   2.94067   2.94356
 Alpha virt. eigenvalues --    2.94768   2.96264   2.96986   2.97904   2.98412
 Alpha virt. eigenvalues --    2.99010   2.99609   3.01002   3.01745   3.02508
 Alpha virt. eigenvalues --    3.03590   3.04337   3.05308   3.05748   3.06215
 Alpha virt. eigenvalues --    3.07287   3.07679   3.08921   3.09833   3.10113
 Alpha virt. eigenvalues --    3.11228   3.12196   3.13288   3.13887   3.14582
 Alpha virt. eigenvalues --    3.15353   3.16961   3.18314   3.18961   3.20225
 Alpha virt. eigenvalues --    3.21150   3.21833   3.22126   3.22737   3.24073
 Alpha virt. eigenvalues --    3.25778   3.26427   3.26909   3.27234   3.27680
 Alpha virt. eigenvalues --    3.28543   3.29276   3.29873   3.30693   3.31800
 Alpha virt. eigenvalues --    3.33073   3.33915   3.34451   3.35285   3.35913
 Alpha virt. eigenvalues --    3.36294   3.37468   3.38686   3.39101   3.39629
 Alpha virt. eigenvalues --    3.40880   3.41512   3.42020   3.42894   3.43068
 Alpha virt. eigenvalues --    3.44310   3.45068   3.45827   3.47157   3.47944
 Alpha virt. eigenvalues --    3.49174   3.49924   3.50467   3.52272   3.53272
 Alpha virt. eigenvalues --    3.54684   3.55766   3.57281   3.58348   3.58931
 Alpha virt. eigenvalues --    3.60194   3.61652   3.62774   3.64444   3.64818
 Alpha virt. eigenvalues --    3.65951   3.67448   3.68417   3.69082   3.69876
 Alpha virt. eigenvalues --    3.72187   3.73152   3.73641   3.74124   3.75361
 Alpha virt. eigenvalues --    3.75599   3.76987   3.77626   3.79619   3.80757
 Alpha virt. eigenvalues --    3.81955   3.82768   3.83970   3.84930   3.85368
 Alpha virt. eigenvalues --    3.86563   3.87027   3.87552   3.88810   3.89713
 Alpha virt. eigenvalues --    3.90316   3.92341   3.92609   3.93419   3.94317
 Alpha virt. eigenvalues --    3.94973   3.95509   3.96991   3.98304   3.99267
 Alpha virt. eigenvalues --    4.00672   4.02563   4.03007   4.04373   4.05293
 Alpha virt. eigenvalues --    4.06313   4.07018   4.07081   4.07681   4.09775
 Alpha virt. eigenvalues --    4.12000   4.12985   4.13744   4.14439   4.15586
 Alpha virt. eigenvalues --    4.16013   4.17175   4.17669   4.19253   4.19763
 Alpha virt. eigenvalues --    4.21169   4.22491   4.22617   4.23742   4.24109
 Alpha virt. eigenvalues --    4.25037   4.26532   4.28211   4.28613   4.29514
 Alpha virt. eigenvalues --    4.29703   4.31371   4.32154   4.34635   4.35713
 Alpha virt. eigenvalues --    4.36962   4.37333   4.38786   4.40337   4.40998
 Alpha virt. eigenvalues --    4.42845   4.44976   4.45190   4.48106   4.49093
 Alpha virt. eigenvalues --    4.51407   4.51595   4.53097   4.54881   4.56059
 Alpha virt. eigenvalues --    4.57345   4.58080   4.59137   4.60302   4.60904
 Alpha virt. eigenvalues --    4.61089   4.62572   4.62819   4.64333   4.65415
 Alpha virt. eigenvalues --    4.67287   4.68862   4.70363   4.70970   4.72410
 Alpha virt. eigenvalues --    4.72907   4.73989   4.74561   4.75391   4.77865
 Alpha virt. eigenvalues --    4.78917   4.79495   4.80234   4.81231   4.82280
 Alpha virt. eigenvalues --    4.84384   4.86489   4.88148   4.90227   4.92387
 Alpha virt. eigenvalues --    4.93118   4.93485   4.94491   4.95334   4.96899
 Alpha virt. eigenvalues --    4.98366   4.99302   5.01344   5.01736   5.02790
 Alpha virt. eigenvalues --    5.03101   5.05126   5.06456   5.07563   5.09164
 Alpha virt. eigenvalues --    5.11678   5.12402   5.13075   5.13547   5.14616
 Alpha virt. eigenvalues --    5.16403   5.18153   5.18735   5.19798   5.20706
 Alpha virt. eigenvalues --    5.21655   5.23429   5.23832   5.25201   5.25924
 Alpha virt. eigenvalues --    5.26179   5.27170   5.27743   5.30363   5.30666
 Alpha virt. eigenvalues --    5.32529   5.34629   5.36556   5.38178   5.39149
 Alpha virt. eigenvalues --    5.41646   5.42751   5.45324   5.46768   5.49534
 Alpha virt. eigenvalues --    5.51811   5.52528   5.56728   5.57241   5.58921
 Alpha virt. eigenvalues --    5.61009   5.63038   5.63240   5.65157   5.66549
 Alpha virt. eigenvalues --    5.66917   5.68536   5.69368   5.70528   5.73379
 Alpha virt. eigenvalues --    5.73809   5.74909   5.75825   5.77595   5.78950
 Alpha virt. eigenvalues --    5.80401   5.81713   5.82942   5.84796   5.88557
 Alpha virt. eigenvalues --    5.90528   5.94527   5.96671   6.02768   6.04556
 Alpha virt. eigenvalues --    6.12304   6.19311   6.20463   6.24019   6.27896
 Alpha virt. eigenvalues --    6.51227   6.52344   6.58033   6.61862   6.64664
 Alpha virt. eigenvalues --    6.66240   6.77736   6.82812   6.90530   6.92515
 Alpha virt. eigenvalues --    6.93995   6.95304   7.18811   7.19683   7.22936
 Alpha virt. eigenvalues --    7.28932   8.14257   8.29822   8.66894   8.73765
 Alpha virt. eigenvalues --    8.78702   8.78749   8.79684   8.82611   8.83436
 Alpha virt. eigenvalues --    8.84190   8.86869   8.88862   8.89721   8.90923
 Alpha virt. eigenvalues --    8.93299   8.93834   8.96108   8.97744   9.02982
 Alpha virt. eigenvalues --    9.03757   9.07551   9.13593   9.14871   9.18729
 Alpha virt. eigenvalues --    9.22933   9.60563   9.62680   9.77227   9.83568
 Alpha virt. eigenvalues --    9.90068   9.94576  10.08070  10.11818  10.15260
 Alpha virt. eigenvalues --   10.18201  10.20132  10.20671  10.22700  10.23106
 Alpha virt. eigenvalues --   10.26214  10.29259  10.30769  10.34155  10.34814
 Alpha virt. eigenvalues --   10.38266  11.76072  11.82671  12.04412  12.14663
 Alpha virt. eigenvalues --   12.18153  12.18852  12.24730  12.26379  12.30790
 Alpha virt. eigenvalues --   12.37962  12.48317  12.57051  12.60264  12.83986
 Alpha virt. eigenvalues --   12.93638  14.97385  15.02422  15.24315  15.28427
 Alpha virt. eigenvalues --   15.99984  16.04939  16.84039  16.91392  22.01299
 Alpha virt. eigenvalues --   22.10172  40.17813  40.27261  40.66527  40.67290
 Alpha virt. eigenvalues --   40.69929  40.70770  40.71817  40.74961  40.76585
 Alpha virt. eigenvalues --   40.77614  40.79532  40.80676  40.81541  40.82046
 Alpha virt. eigenvalues --   40.82210  40.83921  40.84437  40.85209  40.86210
 Alpha virt. eigenvalues --   40.86923  40.87129  40.88408  40.90340  40.90740
 Alpha virt. eigenvalues --   40.91662  40.92885  40.96188  46.34402  46.46274
 Alpha virt. eigenvalues --   46.49623  46.51261  46.57069  46.57891  46.63038
 Alpha virt. eigenvalues --   46.72075  46.81169  54.47220  54.51122  55.79228
 Alpha virt. eigenvalues --   55.84609  55.96382  55.97952  56.06015  56.14296
 Alpha virt. eigenvalues --   56.18813  56.22926  56.26111  56.30025  56.35893
 Alpha virt. eigenvalues --   56.39670  56.43815  56.51489  56.56556  56.65142
 Alpha virt. eigenvalues --   57.46826  57.50898  57.99642  58.02800  58.19605
 Alpha virt. eigenvalues --   58.26112  64.71042  64.77908  73.94514  73.97287
 Alpha virt. eigenvalues --   74.10004  74.12217  74.64231  74.66729  86.07142
 Alpha virt. eigenvalues --   86.14926 165.43660 165.54587 165.57696 165.59946
 Alpha virt. eigenvalues --  165.64727 165.65587 165.69473 165.77597 165.86002
 Alpha virt. eigenvalues --  226.65860 226.73997 230.58214 230.64518 235.56008
 Alpha virt. eigenvalues --  235.84432 236.25450 236.30930 236.32974 236.48282
 Alpha virt. eigenvalues --  237.22054 237.44993 237.47571 237.53475 237.59631
 Alpha virt. eigenvalues --  237.66755 237.72662 238.33773 238.49981 238.69649
 Alpha virt. eigenvalues --  308.80755 308.87651 624.55209 624.61050 624.65093
 Alpha virt. eigenvalues --  624.66212 624.70590 624.72283 624.74572 624.81743
 Alpha virt. eigenvalues --  624.88136 794.53953 794.58865 825.98743 827.20278
 Alpha virt. eigenvalues --  827.21410 827.25179 827.81080 827.99999 830.61195
 Alpha virt. eigenvalues --  831.13573 831.20722 831.26067 831.32023 831.44481
 Alpha virt. eigenvalues --  831.83337 834.14904 834.33375 834.68386 868.34015
 Alpha virt. eigenvalues --  868.405501165.935351165.999372486.096722486.39339
 Alpha virt. eigenvalues -- 2588.299042589.846502593.421552594.722412596.24987
 Alpha virt. eigenvalues -- 2597.510352602.548942604.584982604.985092605.14102
 Alpha virt. eigenvalues -- 2605.170002605.885472607.032282609.892702611.27823
 Alpha virt. eigenvalues -- 2615.948212740.328082740.340322740.385112740.40386
 Alpha virt. eigenvalues -- 2740.442642740.486072740.526462740.562402740.58310
 Alpha virt. eigenvalues -- 3787.315153787.383545073.317255073.375128291.95794
 Alpha virt. eigenvalues -- 8294.540758628.185348631.741308633.931838637.94615
 Alpha virt. eigenvalues -- 8638.968728644.915898663.401628666.778048666.89420
 Alpha virt. eigenvalues -- 8669.164808669.283178669.674118673.466008691.49626
 Alpha virt. eigenvalues -- 8692.848248697.54549******************************
 Alpha virt. eigenvalues -- **************************************************
 Alpha virt. eigenvalues -- **************************************************
 Alpha virt. eigenvalues -- **************************************************
 Alpha virt. eigenvalues -- **************************************************
 Alpha virt. eigenvalues -- **************************************************
 Alpha virt. eigenvalues -- **************************************************
 Alpha virt. eigenvalues -- **************************************************
 Alpha virt. eigenvalues -- **********
          Condensed to atoms (all electrons):
               1          2          3          4          5          6
     1  C    4.538559   0.184270  -0.044554   0.000339   0.000043  -0.000142
     2  C    0.184270   5.370745   0.374778  -0.000947  -0.000349   0.000023
     3  H   -0.044554   0.374778   0.483198  -0.000438   0.000015   0.000049
     4  C    0.000339  -0.000947  -0.000438   4.963721   0.403554   0.402019
     5  H    0.000043  -0.000349   0.000015   0.403554   0.538990  -0.011320
     6  H   -0.000142   0.000023   0.000049   0.402019  -0.011320   0.548378
     7  H    0.000656  -0.001359  -0.000345   0.405580  -0.019698  -0.024129
     8  O    0.736448  -0.115139   0.003745  -0.000071   0.000000   0.000001
     9  N   -0.059158   0.294856  -0.035115  -0.001698   0.000101  -0.000116
    10  H   -0.005262  -0.023538   0.005232   0.000180   0.000163  -0.000184
    11  N    0.362675  -0.133844   0.006222   0.000138   0.000004  -0.000004
    12  H   -0.026381   0.008840  -0.000406   0.000008  -0.000002   0.000002
    13  C   -0.041580   0.010638  -0.001110  -0.000001   0.000000   0.000000
    14  H    0.002032   0.002708   0.000057  -0.000009  -0.000001   0.000000
    15  H   -0.009322  -0.001245  -0.000179   0.000001   0.000000   0.000000
    16  H    0.007347   0.000685  -0.000091   0.000000   0.000000   0.000000
    17  C   -0.000086  -0.057914   0.001782   0.000066  -0.000002   0.000000
    18  C   -0.004122   0.017289   0.002743  -0.000079  -0.000002   0.000006
    19  H    0.000487  -0.000729  -0.000460  -0.000029   0.000002  -0.000006
    20  H   -0.000065  -0.000542   0.000127   0.000005   0.000000   0.000000
    21  H    0.000637  -0.000765  -0.000198   0.000001   0.000000   0.000000
    22  O   -0.010590   0.017331   0.025458  -0.000004   0.000000   0.000001
[...]
 Alpha virt. eigenvalues --    4.33083   4.34953   4.34986   4.36802   4.37248
 Alpha virt. eigenvalues --    4.37818   4.39687   4.40264   4.41485   4.42972
 Alpha virt. eigenvalues --    4.45829   4.46563   4.48431   4.49958   4.51441
 Alpha virt. eigenvalues --    4.53479   4.54049   4.55864   4.57675   4.58456
 Alpha virt. eigenvalues --    4.60779   4.63772   4.65053   4.66012   4.67592
 Alpha virt. eigenvalues --    4.69330   4.69843   4.70469   4.72543   4.73036
 Alpha virt. eigenvalues --    4.74124   4.75709   4.76435   4.78371   4.78406
 Alpha virt. eigenvalues --    4.80374   4.81129   4.81996   4.82796   4.83693
 Alpha virt. eigenvalues --    4.84586   4.85932   4.87937   4.88612   4.90412
 Alpha virt. eigenvalues --    4.91445   4.92891   4.94772   4.95432   4.96372
 Alpha virt. eigenvalues --    4.97271   4.98516   4.99410   4.99984   5.01331
 Alpha virt. eigenvalues --    5.02741   5.03426   5.04600   5.05170   5.06888
 Alpha virt. eigenvalues --    5.07954   5.09274   5.10472   5.12224   5.13174
 Alpha virt. eigenvalues --    5.14054   5.15098   5.15546   5.16420   5.17712
 Alpha virt. eigenvalues --    5.19348   5.19689   5.21232   5.22279   5.24010
 Alpha virt. eigenvalues --    5.25091   5.25844   5.26790   5.27592   5.28267
 Alpha virt. eigenvalues --    5.29136   5.29824   5.31035   5.32483   5.34520
 Alpha virt. eigenvalues --    5.35713   5.36464   5.38131   5.38674   5.40678
 Alpha virt. eigenvalues --    5.44866   5.47012   5.47858   5.51332   5.55232
 Alpha virt. eigenvalues --    5.57496   5.59488   5.61845   5.63197   5.68061
 Alpha virt. eigenvalues --    5.73108   5.74792   5.77874   5.78379   5.79169
 Alpha virt. eigenvalues --    5.79897   5.81652   5.83792   5.85456   5.87247
 Alpha virt. eigenvalues --    5.87884   5.89659   5.90593   5.96623   5.97705
 Alpha virt. eigenvalues --    6.00095   6.01948   6.04264   6.06079   6.08370
 Alpha virt. eigenvalues --    6.22589   6.26907   6.35408   6.39570   6.49040
 Alpha virt. eigenvalues --    6.51246   6.54402   6.56988   6.68316   6.69290
 Alpha virt. eigenvalues --    6.88020   6.89640   6.92602   6.96854   7.09804
 Alpha virt. eigenvalues --    7.13629   7.16293   7.18144   9.49667   9.99883
 Alpha virt. eigenvalues --   11.55492  12.13947  12.44138  12.53698  12.87232
 Alpha virt. eigenvalues --   13.42936  13.53028  13.58619  13.69460  13.77582
 Alpha virt. eigenvalues --   13.99226
          Condensed to atoms (all electrons):
               1          2          3          4          5          6
     1  C    4.700155   0.161187  -0.052337   0.000774   0.000047  -0.000146
     2  C    0.161187   5.494914   0.417667   0.000905  -0.000505   0.000483
     3  H   -0.052337   0.417667   0.446763  -0.000532   0.000012   0.000031
     4  C    0.000774   0.000905  -0.000532   5.111904   0.405275   0.403052
     5  H    0.000047  -0.000505   0.000012   0.405275   0.532137  -0.017541
     6  H   -0.000146   0.000483   0.000031   0.403052  -0.017541   0.541047
     7  H    0.000518   0.000344  -0.000233   0.399900  -0.026035  -0.029271
     8  O    0.727812  -0.105283   0.001486  -0.000103   0.000000   0.000000
     9  N   -0.060739   0.232331  -0.037902  -0.001728   0.000099  -0.000137
    10  H   -0.004225  -0.020594   0.003052   0.000467   0.000222  -0.000266
    11  N    0.357800  -0.104616   0.001359   0.000085   0.000005  -0.000003
    12  H   -0.023300   0.003762  -0.000881  -0.000001  -0.000002   0.000004
    13  C   -0.060338   0.010102  -0.000896   0.000002   0.000000   0.000000
    14  H    0.001586   0.002508   0.000065  -0.000009   0.000000   0.000000
    15  H   -0.009224  -0.001229  -0.000170   0.000001   0.000000   0.000000
    16  H    0.007989   0.000701  -0.000066   0.000000   0.000000   0.000000
    17  C   -0.000196  -0.069124  -0.000051   0.000029  -0.000003   0.000001
    18  C   -0.002979   0.014294   0.002531  -0.000070  -0.000002   0.000005
    19  H    0.000276   0.000109  -0.000430  -0.000014   0.000001  -0.000004
    20  H   -0.000097  -0.000533   0.000114   0.000004   0.000000   0.000000
    21  H    0.000613  -0.000776  -0.000177   0.000001   0.000000   0.000000
    22  O   -0.006878   0.015025   0.024733  -0.000002   0.000000   0.000001
    23  C   -0.009195  -0.003763   0.003938   0.274684  -0.035144  -0.031726
    24  H   -0.000537   0.007654  -0.000122  -0.036633  -0.007904  -0.006441
    25  C    0.005218  -0.004570   0.000331  -0.062847  -0.005303   0.007490
    26  H   -0.011541   0.002689   0.000714  -0.005504  -0.000940   0.000058
    27  H    0.008803  -0.006419  -0.000214   0.008146  -0.000011  -0.000365
    28  H    0.000517  -0.001478   0.000057  -0.008239   0.004532  -0.000014
    29  C   -0.022664   0.179929  -0.024991  -0.061503   0.009692  -0.006227
    30  H    0.006615  -0.035211  -0.007843  -0.004361   0.000513   0.003640
    31  H    0.003250  -0.053586  -0.007962   0.006419  -0.000326   0.000127
               7          8          9         10         11         12
     1  C    0.000518   0.727812  -0.060739  -0.004225   0.357800  -0.023300
     2  C    0.000344  -0.105283   0.232331  -0.020594  -0.104616   0.003762
     3  H   -0.000233   0.001486  -0.037902   0.003052   0.001359  -0.000881
     4  C    0.399900  -0.000103  -0.001728   0.000467   0.000085  -0.000001
     5  H   -0.026035   0.000000   0.000099   0.000222   0.000005  -0.000002
     6  H   -0.029271   0.000000  -0.000137  -0.000266  -0.000003   0.000004
     7  H    0.547399  -0.000086  -0.000703   0.003626  -0.000028  -0.000003
     8  O   -0.000086   7.838191   0.005364  -0.000638  -0.120566   0.005025
     9  N   -0.000703   0.005364   6.571580   0.385921   0.005604   0.000465
    10  H    0.003626  -0.000638   0.385921   0.478915  -0.000036   0.000009
    11  N   -0.000028  -0.120566   0.005604  -0.000036   6.453992   0.382951
    12  H   -0.000003   0.005025   0.000465   0.000009   0.382951   0.523878
    13  C    0.000002   0.005318  -0.000361   0.000006   0.297451  -0.032513
    14  H    0.000000   0.004624   0.000007  -0.000009  -0.060546   0.003497
    15  H    0.000000   0.005422  -0.000046   0.000004  -0.040360   0.002185
    16  H    0.000000   0.001519   0.000006  -0.000001  -0.027659  -0.008031
    17  C    0.000217   0.015120   0.336643  -0.022254   0.000212  -0.000137
    18  C    0.000109  -0.000304  -0.063332  -0.002650  -0.000029   0.000000
    19  H    0.000203   0.000035   0.013145  -0.001888   0.000006   0.000001
    20  H   -0.000050   0.000045  -0.000653   0.000571   0.000002   0.000000
    21  H    0.000012   0.000314  -0.000874  -0.000106   0.000000  -0.000001
    22  O    0.000011  -0.003078  -0.138734   0.003904  -0.001095  -0.000064
    23  C   -0.040913  -0.000438  -0.001735   0.000679  -0.001968  -0.000098
    24  H    0.007884  -0.000025  -0.000492   0.000234  -0.000208  -0.000047
    25  C   -0.005347  -0.000339  -0.007600   0.001240  -0.005188   0.000261
    26  H    0.000178   0.008079   0.005038   0.003270   0.001850  -0.000100
    27  H   -0.000009  -0.006215  -0.000084  -0.000086   0.001092   0.000484
    28  H   -0.000590   0.000462   0.000307   0.000074   0.000105  -0.000018
    29  C   -0.002289   0.003043  -0.038134  -0.004983   0.009624   0.003261
    30  H   -0.000047  -0.000331  -0.000466   0.000367   0.000412  -0.000172
    31  H   -0.000102  -0.000082   0.005223  -0.000036  -0.005709   0.004616
              13         14         15         16         17         18
     1  C   -0.060338   0.001586  -0.009224   0.007989  -0.000196  -0.002979
     2  C    0.010102   0.002508  -0.001229   0.000701  -0.069124   0.014294
     3  H   -0.000896   0.000065  -0.000170  -0.000066  -0.000051   0.002531
     4  C    0.000002  -0.000009   0.000001   0.000000   0.000029  -0.000070
     5  H    0.000000   0.000000   0.000000   0.000000  -0.000003  -0.000002
     6  H    0.000000   0.000000   0.000000   0.000000   0.000001   0.000005
     7  H    0.000002   0.000000   0.000000   0.000000   0.000217   0.000109
     8  O    0.005318   0.004624   0.005422   0.001519   0.015120  -0.000304
     9  N   -0.000361   0.000007  -0.000046   0.000006   0.336643  -0.063332
    10  H    0.000006  -0.000009   0.000004  -0.000001  -0.022254  -0.002650
    11  N    0.297451  -0.060546  -0.040360  -0.027659   0.000212  -0.000029
    12  H   -0.032513   0.003497   0.002185  -0.008031  -0.000137   0.000000
    13  C    4.777760   0.388300   0.406643   0.393092  -0.000141  -0.000005
    14  H    0.388300   0.634905  -0.058544  -0.027414  -0.000002   0.000000
    15  H    0.406643  -0.058544   0.595440  -0.026186   0.000018   0.000000
    16  H    0.393092  -0.027414  -0.026186   0.598954  -0.000004   0.000000
    17  C   -0.000141  -0.000002   0.000018  -0.000004   4.530261   0.280070
    18  C   -0.000005   0.000000   0.000000   0.000000   0.280070   4.999327
    19  H    0.000001   0.000000   0.000000   0.000000  -0.054047   0.392552
    20  H    0.000000   0.000000   0.000000   0.000000  -0.021826   0.382636
    21  H    0.000001   0.000000   0.000000   0.000000  -0.027183   0.390592
    22  O   -0.000075   0.000005   0.000009  -0.000001   0.719706  -0.069751
    23  C    0.000424   0.000141  -0.000012   0.000035  -0.000639  -0.000138
    24  H    0.000008   0.000018  -0.000001   0.000004   0.000027  -0.000001
    25  C   -0.000920   0.000950  -0.000073  -0.000031   0.000153  -0.000012
    26  H   -0.000223   0.000039  -0.000043  -0.000005   0.000977   0.000100
    27  H    0.000283  -0.001068   0.000400  -0.000084  -0.000031   0.000007
    28  H   -0.000039   0.000018  -0.000002  -0.000004   0.000010   0.000001
    29  C   -0.001130  -0.000759   0.000193  -0.000145   0.007606   0.000373
    30  H    0.000062  -0.000025   0.000013   0.000003  -0.000251  -0.000039
    31  H    0.000314   0.000006   0.000003   0.000042  -0.000225   0.000038
              19         20         21         22         23         24
     1  C    0.000276  -0.000097   0.000613  -0.006878  -0.009195  -0.000537
     2  C    0.000109  -0.000533  -0.000776   0.015025  -0.003763   0.007654
     3  H   -0.000430   0.000114  -0.000177   0.024733   0.003938  -0.000122
     4  C   -0.000014   0.000004   0.000001  -0.000002   0.274684  -0.036633
     5  H    0.000001   0.000000   0.000000   0.000000  -0.035144  -0.007904
     6  H   -0.000004   0.000000   0.000000   0.000001  -0.031726  -0.006441
     7  H    0.000203  -0.000050   0.000012   0.000011  -0.040913   0.007884
     8  O    0.000035   0.000045   0.000314  -0.003078  -0.000438  -0.000025
     9  N    0.013145  -0.000653  -0.000874  -0.138734  -0.001735  -0.000492
    10  H   -0.001888   0.000571  -0.000106   0.003904   0.000679   0.000234
    11  N    0.000006   0.000002   0.000000  -0.001095  -0.001968  -0.000208
    12  H    0.000001   0.000000  -0.000001  -0.000064  -0.000098  -0.000047
    13  C    0.000001   0.000000   0.000001  -0.000075   0.000424   0.000008
    14  H    0.000000   0.000000   0.000000   0.000005   0.000141   0.000018
    15  H    0.000000   0.000000   0.000000   0.000009  -0.000012  -0.000001
    16  H    0.000000   0.000000   0.000000  -0.000001   0.000035   0.000004
    17  C   -0.054047  -0.021826  -0.027183   0.719706  -0.000639   0.000027
    18  C    0.392552   0.382636   0.390592  -0.069751  -0.000138  -0.000001
    19  H    0.604786  -0.027589  -0.024524   0.004727   0.000134   0.000000
    20  H   -0.027589   0.576244  -0.025412   0.001952   0.000012   0.000000
    21  H   -0.024524  -0.025412   0.564593   0.001088  -0.000010   0.000000
    22  O    0.004727   0.001952   0.001088   7.853218  -0.000096   0.000001
    23  C    0.000134   0.000012  -0.000010  -0.000096   5.268066   0.434261
    24  H    0.000000   0.000000   0.000000   0.000001   0.434261   0.558029
    25  C   -0.000052  -0.000006   0.000016   0.000036   0.245537  -0.039273
    26  H   -0.000013   0.000037  -0.000085  -0.000106  -0.033250   0.006991
    27  H   -0.000001   0.000000   0.000001   0.000001  -0.037428  -0.006062
    28  H   -0.000002   0.000000  -0.000001   0.000000  -0.032324  -0.007870
    29  C   -0.000282  -0.000009   0.000023   0.001547   0.217255  -0.053748
    30  H    0.000006  -0.000025   0.000013  -0.000112  -0.053526   0.000070
    31  H   -0.000004  -0.000005   0.000001   0.000065  -0.052168  -0.011063
              25         26         27         28         29         30
     1  C    0.005218  -0.011541   0.008803   0.000517  -0.022664   0.006615
     2  C   -0.004570   0.002689  -0.006419  -0.001478   0.179929  -0.035211
     3  H    0.000331   0.000714  -0.000214   0.000057  -0.024991  -0.007843
     4  C   -0.062847  -0.005504   0.008146  -0.008239  -0.061503  -0.004361
     5  H   -0.005303  -0.000940  -0.000011   0.004532   0.009692   0.000513
     6  H    0.007490   0.000058  -0.000365  -0.000014  -0.006227   0.003640
     7  H   -0.005347   0.000178  -0.000009  -0.000590  -0.002289  -0.000047
     8  O   -0.000339   0.008079  -0.006215   0.000462   0.003043  -0.000331
     9  N   -0.007600   0.005038  -0.000084   0.000307  -0.038134  -0.000466
    10  H    0.001240   0.003270  -0.000086   0.000074  -0.004983   0.000367
    11  N   -0.005188   0.001850   0.001092   0.000105   0.009624   0.000412
    12  H    0.000261  -0.000100   0.000484  -0.000018   0.003261  -0.000172
    13  C   -0.000920  -0.000223   0.000283  -0.000039  -0.001130   0.000062
    14  H    0.000950   0.000039  -0.001068   0.000018  -0.000759  -0.000025
    15  H   -0.000073  -0.000043   0.000400  -0.000002   0.000193   0.000013
    16  H   -0.000031  -0.000005  -0.000084  -0.000004  -0.000145   0.000003
    17  C    0.000153   0.000977  -0.000031   0.000010   0.007606  -0.000251
    18  C   -0.000012   0.000100   0.000007   0.000001   0.000373  -0.000039
    19  H   -0.000052  -0.000013  -0.000001  -0.000002  -0.000282   0.000006
    20  H   -0.000006   0.000037   0.000000   0.000000  -0.000009  -0.000025
    21  H    0.000016  -0.000085   0.000001  -0.000001   0.000023   0.000013
    22  O    0.000036  -0.000106   0.000001   0.000000   0.001547  -0.000112
    23  C    0.245537  -0.033250  -0.037428  -0.032324   0.217255  -0.053526
    24  H   -0.039273   0.006991  -0.006062  -0.007870  -0.053748   0.000070
    25  C    5.199905   0.389268   0.401408   0.403356  -0.045826   0.005776
    26  H    0.389268   0.519243  -0.024733  -0.021503  -0.009623  -0.000584
    27  H    0.401408  -0.024733   0.506982  -0.015405  -0.002184   0.000072
    28  H    0.403356  -0.021503  -0.015405   0.518621   0.009425  -0.000342
    29  C   -0.045826  -0.009623  -0.002184   0.009425   5.408870   0.418482
    30  H    0.005776  -0.000584   0.000072  -0.000342   0.418482   0.469564
    31  H    0.003085  -0.000908   0.001357  -0.000372   0.430755  -0.002823
              31
     1  C    0.003250
     2  C   -0.053586
     3  H   -0.007962
     4  C    0.006419
     5  H   -0.000326
     6  H    0.000127
     7  H   -0.000102
     8  O   -0.000082
     9  N    0.005223
    10  H   -0.000036
    11  N   -0.005709
    12  H    0.004616
    13  C    0.000314
    14  H    0.000006
    15  H    0.000003
    16  H    0.000042
    17  C   -0.000225
    18  C    0.000038
    19  H   -0.000004
    20  H   -0.000005
    21  H    0.000001
    22  O    0.000065
    23  C   -0.052168
    24  H   -0.011063
    25  C    0.003085
    26  H   -0.000908
    27  H    0.001357
    28  H   -0.000372
    29  C    0.430755
    30  H   -0.002823
    31  H    0.494346
 Mulliken charges:
               1
     1  C    0.281236
     2  C   -0.136916
     3  H    0.231955
     4  C   -0.430101
     5  H    0.141181
     6  H    0.136202
     7  H    0.145301
     8  O   -0.384369
     9  N   -0.208015
    10  H    0.175209
    11  N   -0.144540
    12  H    0.134970
    13  C   -0.183130
    14  H    0.111707
    15  H    0.125560
    16  H    0.087285
    17  C    0.305065
    18  C   -0.323324
    19  H    0.092868
    20  H    0.114587
    21  H    0.121880
    22  O   -0.406036
    23  C   -0.110593
    24  H    0.155247
    25  C   -0.486639
    26  H    0.170631
    27  H    0.171365
    28  H    0.150718
    29  C   -0.425581
    30  H    0.200552
    31  H    0.185724
 Sum of Mulliken charges =   0.00000
 Mulliken charges with hydrogens summed into heavy atoms:
               1
     1  C    0.281236
     2  C    0.095039
     4  C   -0.007417
     8  O   -0.384369
     9  N   -0.032805
    11  N   -0.009569
    13  C    0.141422
    17  C    0.305065
    18  C    0.006011
    22  O   -0.406036
    23  C    0.044654
    25  C    0.006075
    29  C   -0.039304
 Electronic spatial extent (au):  <R**2>=           2814.7103
 Charge=              0.0000 electrons
 Dipole moment (field-independent basis, Debye):
    X=              3.4075    Y=              3.7153    Z=             -1.3694  Tot=              5.2239
 Quadrupole moment (field-independent basis, Debye-Ang):
   XX=            -74.3036   YY=            -82.1837   ZZ=            -81.2492
   XY=            -11.1988   XZ=             -7.1067   YZ=              2.2202
 Traceless Quadrupole moment (field-independent basis, Debye-Ang):
   XX=              4.9419   YY=             -2.9382   ZZ=             -2.0037
   XY=            -11.1988   XZ=             -7.1067   YZ=              2.2202
 Octapole moment (field-independent basis, Debye-Ang**2):
  XXX=              2.0229  YYY=            -10.1845  ZZZ=             -8.0602  XYY=             24.8112
  XXY=             -0.1171  XXZ=              9.6304  XZZ=              3.2978  YZZ=              0.4846
  YYZ=              0.8905  XYZ=              8.9457
 Hexadecapole moment (field-independent basis, Debye-Ang**3):
 XXXX=          -1688.8765 YYYY=          -1542.8985 ZZZZ=           -395.5755 XXXY=            -76.2853
 XXXZ=            -41.4449 YYYX=            -46.0011 YYYZ=             -1.9889 ZZZX=             -9.0473
 ZZZY=              6.3332 XXYY=           -552.8786 XXZZ=           -349.6844 YYZZ=           -330.3015
 XXYZ=            -11.4981 YYXZ=            -11.1862 ZZXY=             -5.8456
 N-N= 8.802026451350D+02 E-N=-3.190044286458D+03  KE= 6.091081850350D+02
 Calculating spin-rotation constants.
 Leave Link  601 at Wed Jun 18 12:36:07 2014, MaxMem=  4294967296 cpu:        69.4
 (Enter /home/ztw1e12/g09/l9999.exe)

 Test job not archived.
 1\1\GINC-GREEN0631\SP\RM06\Gen\C9H18N2O2\ZTW1E12\18-Jun-2014\0\\#P Geo
 m=AllCheck Guess=TCheck SCRF=Check GenChk RM06/ChkBas NMR=ReadFC IOp(3
 /6=22)\\NMR spin-spin scan\\0,1\C,0,0.298211,1.239339,0.262734\C,0,0.1
 28111,0.121264,-0.768113\H,0,0.651934,0.48173,-1.65922\C,0,-2.611148,-
 2.152848,-0.361954\H,0,-3.417471,-2.488255,0.293847\H,0,-2.896353,-2.3
 79282,-1.390821\H,0,-1.728236,-2.754971,-0.12423\O,0,0.874954,1.075415
 ,1.332794\N,0,0.805648,-1.083613,-0.351367\H,0,0.279218,-1.80608,0.114
 443\N,0,-0.186391,2.429889,-0.110127\H,0,-0.680875,2.508948,-0.98368\C
 ,0,-0.165809,3.562197,0.78694\H,0,-0.714663,3.345665,1.705586\H,0,0.85
 5134,3.83234,1.057048\H,0,-0.631474,4.410495,0.294573\C,0,2.145157,-1.
 202544,-0.390349\C,0,2.71078,-2.478168,0.142236\H,0,1.950077,-3.176755
 ,0.484002\H,0,3.310086,-2.949539,-0.636225\H,0,3.378866,-2.24417,0.970
 97\O,0,2.870125,-0.323117,-0.852698\C,0,-2.344432,-0.667407,-0.17653\H
 ,0,-3.280946,-0.157035,-0.423824\C,0,-2.054643,-0.356677,1.280968\H,0,
 -1.154407,-0.861668,1.639854\H,0,-1.940484,0.712617,1.470923\H,0,-2.88
 4363,-0.705323,1.899111\C,0,-1.312313,-0.146375,-1.199577\H,0,-1.26591
 ,-0.841392,-2.041675\H,0,-1.682758,0.788616,-1.625298\\Version=EM64L-G
 09RevD.01\State=1-A\HF=-613.5751353\RMSD=9.269e-09\Dipole=-1.9840993,-
 0.1665808,-0.5095781\Quadrupole=-6.7800238,9.6879688,-2.907945,-4.8872
 919,2.3496513,-2.5811211\PG=C01 [X(C9H18N2O2)]\\@


 IT MATTERS NOT HOW DEEP YOU PLOW,
 BUT HOW LONG YOU STAY IN THE FURROW.
 Job cpu time:       2 days 14 hours 57 minutes 11.7 seconds.
 File lengths (MBytes):  RWF=   2456 Int=      0 D2E=      0 Chk=     48 Scr=      8
 Normal termination of Gaussian 09 at Wed Jun 18 12:36:08 2014.
