 Entering Gaussian System, Link 0=g09
 Input=scan_input_3.gjf
 Output=scan_input_3.log
 Initial command:
 /home/ztw1e12/g09/l1.exe "/home/ztw1e12/leucine_scan/leucine_chi2_scan/Gau-8482.inp" -scrdir="/home/ztw1e12/leucine_scan/leucine_chi2_scan/"
 Default is to use a total of   8 processors:
                                8 via shared-memory
                                1 via Linda
 Entering Link 1 = /home/ztw1e12/g09/l1.exe PID=      8483.
  
 Copyright (c) 1988,1990,1992,1993,1995,1998,2003,2009,2013,
            Gaussian, Inc.  All Rights Reserved.
  
 This is part of the Gaussian(R) 09 program.  It is based on
 the Gaussian(R) 03 system (copyright 2003, Gaussian, Inc.),
 the Gaussian(R) 98 system (copyright 1998, Gaussian, Inc.),
 the Gaussian(R) 94 system (copyright 1995, Gaussian, Inc.),
 the Gaussian 92(TM) system (copyright 1992, Gaussian, Inc.),
 the Gaussian 90(TM) system (copyright 1990, Gaussian, Inc.),
 the Gaussian 88(TM) system (copyright 1988, Gaussian, Inc.),
 the Gaussian 86(TM) system (copyright 1986, Carnegie Mellon
 University), and the Gaussian 82(TM) system (copyright 1983,
 Carnegie Mellon University). Gaussian is a federally registered
 trademark of Gaussian, Inc.
  
 This software contains proprietary and confidential information,
 including trade secrets, belonging to Gaussian, Inc.
  
 This software is provided under written license and may be
 used, copied, transmitted, or stored only in accord with that
 written license.
  
 The following legend is applicable only to US Government
 contracts under FAR:
  
                    RESTRICTED RIGHTS LEGEND
  
 Use, reproduction and disclosure by the US Government is
 subject to restrictions as set forth in subparagraphs (a)
 and (c) of the Commercial Computer Software - Restricted
 Rights clause in FAR 52.227-19.
  
 Gaussian, Inc.
 340 Quinnipiac St., Bldg. 40, Wallingford CT 06492
  
  
 ---------------------------------------------------------------
 Warning -- This program may not be used in any manner that
 competes with the business of Gaussian, Inc. or will provide
 assistance to any competitor of Gaussian, Inc.  The licensee
 of this program is prohibited from giving any competitor of
 Gaussian, Inc. access to this program.  By using this program,
 the user acknowledges that Gaussian, Inc. is engaged in the
 business of creating and licensing software in the field of
 computational chemistry and represents and warrants to the
 licensee that it is not a competitor of Gaussian, Inc. and that
 it will not use this program in any manner prohibited above.
 ---------------------------------------------------------------
  

 Cite this work as:
 Gaussian 09, Revision D.01,
 M. J. Frisch, G. W. Trucks, H. B. Schlegel, G. E. Scuseria, 
 M. A. Robb, J. R. Cheeseman, G. Scalmani, V. Barone, B. Mennucci, 
 G. A. Petersson, H. Nakatsuji, M. Caricato, X. Li, H. P. Hratchian, 
 A. F. Izmaylov, J. Bloino, G. Zheng, J. L. Sonnenberg, M. Hada, 
 M. Ehara, K. Toyota, R. Fukuda, J. Hasegawa, M. Ishida, T. Nakajima, 
 Y. Honda, O. Kitao, H. Nakai, T. Vreven, J. A. Montgomery, Jr., 
 J. E. Peralta, F. Ogliaro, M. Bearpark, J. J. Heyd, E. Brothers, 
 K. N. Kudin, V. N. Staroverov, T. Keith, R. Kobayashi, J. Normand, 
 K. Raghavachari, A. Rendell, J. C. Burant, S. S. Iyengar, J. Tomasi, 
 M. Cossi, N. Rega, J. M. Millam, M. Klene, J. E. Knox, J. B. Cross, 
 V. Bakken, C. Adamo, J. Jaramillo, R. Gomperts, R. E. Stratmann, 
 O. Yazyev, A. J. Austin, R. Cammi, C. Pomelli, J. W. Ochterski, 
 R. L. Martin, K. Morokuma, V. G. Zakrzewski, G. A. Voth, 
 P. Salvador, J. J. Dannenberg, S. Dapprich, A. D. Daniels, 
 O. Farkas, J. B. Foresman, J. V. Ortiz, J. Cioslowski, 
 and D. J. Fox, Gaussian, Inc., Wallingford CT, 2013.
 
 ******************************************
 Gaussian 09:  EM64L-G09RevD.01 24-Apr-2013
                17-Jun-2014 
 ******************************************
 %Mem=32GB
 %NProcShared=16
 Will use up to   16 processors via shared memory.
 Default route:  MaxDisk=100GB
 ----------------------------------------------------------------------
 #p nmr=(giao,mixed,spinspin) m06/cc-pvtz scf=tight integral=(grid=ultr
 afine)
 ----------------------------------------------------------------------
 1/38=1/1;
 2/12=2,17=6,18=5,40=1/2;
 3/5=16,6=1,10=1100000,11=2,16=1,25=1,30=1,74=-54,75=-5/1,2,8,3;
 4//1;
 5/5=2,32=2,38=5/2;
 8/6=1,10=90,11=11/1;
 10/13=100,45=16,47=3/2;
 6/7=2,8=2,9=2,10=2,28=1/1;
 99/9=1/99;
 Leave Link    1 at Tue Jun 17 15:29:05 2014, MaxMem=  4294967296 cpu:         8.1
 (Enter /home/ztw1e12/g09/l101.exe)
 ------------------
 NMR spin-spin scan
 ------------------
 Symbolic Z-matrix:
 Charge =  0 Multiplicity = 1
 C                     0.18406   1.23859   0.21469 
 C                     0.15103   0.04251  -0.73283 
 H                     0.59425   0.38375  -1.67309 
 C                    -3.44016  -1.43063  -0.47048 
 H                    -4.21768  -1.57536   0.28197 
 H                    -3.89348  -0.93019  -1.32961 
 H                    -3.10428  -2.41798  -0.79972 
 O                     0.46635   1.14552   1.40568 
 N                     0.96546  -1.04368  -0.24815 
 H                     0.52357  -1.86204   0.13935 
 N                    -0.13848   2.40357  -0.35722 
 H                    -0.35972   2.41758  -1.3401 
 C                    -0.218     3.62931   0.40216 
 H                    -0.98524   3.56895   1.17518 
 H                     0.73393   3.85258   0.88442 
 H                    -0.46537   4.44442  -0.27084 
 C                     2.30273  -0.93137  -0.17396 
 C                     3.03953  -2.10031   0.3913 
 H                     2.39059  -2.93981   0.6318 
 H                     3.7958   -2.42081  -0.32441 
 H                     3.55884  -1.7795    1.29446 
 O                     2.89093   0.07888  -0.55845 
 C                    -2.26623  -0.64704   0.09137 
 H                    -2.62056   0.31752   0.47393 
 C                    -1.6949   -1.43646   1.25852 
 H                    -1.34336  -2.41905   0.92508 
 H                    -0.87504  -0.92608   1.76248 
 H                    -2.47481  -1.61763   2.00108 
 C                    -1.28169  -0.38291  -1.0501 
 H                    -1.19828  -1.29769  -1.6499 
 H                    -1.71415   0.36867  -1.71426 
 
 NAtoms=     31 NQM=       31 NQMF=       0 NMMI=      0 NMMIF=      0
                NMic=       0 NMicF=      0.
                    Isotopes and Nuclear Properties:
 (Nuclear quadrupole moments (NQMom) in fm**2, nuclear magnetic moments (NMagM)
  in nuclear magnetons)

  Atom         1           2           3           4           5           6           7           8           9          10
 IAtWgt=          12          12           1          12           1           1           1          16          14           1
 AtmWgt=  12.0000000  12.0000000   1.0078250  12.0000000   1.0078250   1.0078250   1.0078250  15.9949146  14.0030740   1.0078250
 NucSpn=           0           0           1           0           1           1           1           0           2           1
 AtZEff=   0.0000000   0.0000000   0.0000000   0.0000000   0.0000000   0.0000000   0.0000000   0.0000000   0.0000000   0.0000000
 NQMom=    0.0000000   0.0000000   0.0000000   0.0000000   0.0000000   0.0000000   0.0000000   0.0000000   2.0440000   0.0000000
 NMagM=    0.0000000   0.0000000   2.7928460   0.0000000   2.7928460   2.7928460   2.7928460   0.0000000   0.4037610   2.7928460
 AtZNuc=   6.0000000   6.0000000   1.0000000   6.0000000   1.0000000   1.0000000   1.0000000   8.0000000   7.0000000   1.0000000

  Atom        11          12          13          14          15          16          17          18          19          20
 IAtWgt=          14           1          12           1           1           1          12          12           1           1
 AtmWgt=  14.0030740   1.0078250  12.0000000   1.0078250   1.0078250   1.0078250  12.0000000  12.0000000   1.0078250   1.0078250
 NucSpn=           2           1           0           1           1           1           0           0           1           1
 AtZEff=   0.0000000   0.0000000   0.0000000   0.0000000   0.0000000   0.0000000   0.0000000   0.0000000   0.0000000   0.0000000
 NQMom=    2.0440000   0.0000000   0.0000000   0.0000000   0.0000000   0.0000000   0.0000000   0.0000000   0.0000000   0.0000000
 NMagM=    0.4037610   2.7928460   0.0000000   2.7928460   2.7928460   2.7928460   0.0000000   0.0000000   2.7928460   2.7928460
 AtZNuc=   7.0000000   1.0000000   6.0000000   1.0000000   1.0000000   1.0000000   6.0000000   6.0000000   1.0000000   1.0000000

  Atom        21          22          23          24          25          26          27          28          29          30
 IAtWgt=           1          16          12           1          12           1           1           1          12           1
 AtmWgt=   1.0078250  15.9949146  12.0000000   1.0078250  12.0000000   1.0078250   1.0078250   1.0078250  12.0000000   1.0078250
 NucSpn=           1           0           0           1           0           1           1           1           0           1
 AtZEff=   0.0000000   0.0000000   0.0000000   0.0000000   0.0000000   0.0000000   0.0000000   0.0000000   0.0000000   0.0000000
 NQMom=    0.0000000   0.0000000   0.0000000   0.0000000   0.0000000   0.0000000   0.0000000   0.0000000   0.0000000   0.0000000
 NMagM=    2.7928460   0.0000000   0.0000000   2.7928460   0.0000000   2.7928460   2.7928460   2.7928460   0.0000000   2.7928460
 AtZNuc=   1.0000000   8.0000000   6.0000000   1.0000000   6.0000000   1.0000000   1.0000000   1.0000000   6.0000000   1.0000000

  Atom        31
 IAtWgt=           1
 AtmWgt=   1.0078250
 NucSpn=           1
 AtZEff=   0.0000000
 NQMom=    0.0000000
 NMagM=    2.7928460
 AtZNuc=   1.0000000
 Leave Link  101 at Tue Jun 17 15:29:05 2014, MaxMem=  4294967296 cpu:         2.0
 (Enter /home/ztw1e12/g09/l202.exe)
                          Input orientation:                          
 ---------------------------------------------------------------------
 Center     Atomic      Atomic             Coordinates (Angstroms)
 Number     Number       Type             X           Y           Z
 ---------------------------------------------------------------------
      1          6           0        0.184061    1.238586    0.214685
      2          6           0        0.151025    0.042509   -0.732830
      3          1           0        0.594245    0.383752   -1.673091
      4          6           0       -3.440159   -1.430629   -0.470477
      5          1           0       -4.217679   -1.575363    0.281969
      6          1           0       -3.893476   -0.930194   -1.329606
      7          1           0       -3.104282   -2.417975   -0.799724
      8          8           0        0.466353    1.145524    1.405676
      9          7           0        0.965461   -1.043676   -0.248146
     10          1           0        0.523572   -1.862040    0.139350
     11          7           0       -0.138480    2.403569   -0.357216
     12          1           0       -0.359724    2.417575   -1.340099
     13          6           0       -0.218001    3.629308    0.402156
     14          1           0       -0.985239    3.568945    1.175176
     15          1           0        0.733925    3.852579    0.884421
     16          1           0       -0.465374    4.444423   -0.270838
     17          6           0        2.302726   -0.931374   -0.173957
     18          6           0        3.039532   -2.100305    0.391296
     19          1           0        2.390591   -2.939808    0.631797
     20          1           0        3.795802   -2.420811   -0.324412
     21          1           0        3.558841   -1.779496    1.294455
     22          8           0        2.890925    0.078882   -0.558449
     23          6           0       -2.266227   -0.647042    0.091372
     24          1           0       -2.620562    0.317522    0.473933
     25          6           0       -1.694901   -1.436462    1.258518
     26          1           0       -1.343357   -2.419053    0.925080
     27          1           0       -0.875039   -0.926084    1.762481
     28          1           0       -2.474807   -1.617630    2.001077
     29          6           0       -1.281693   -0.382909   -1.050099
     30          1           0       -1.198279   -1.297693   -1.649904
     31          1           0       -1.714152    0.368666   -1.714256
 ---------------------------------------------------------------------
                    Distance matrix (angstroms):
                    1          2          3          4          5
     1  C    0.000000
     2  C    1.526262   0.000000
     3  H    2.112508   1.094066   0.000000
     4  C    4.552925   3.890446   4.584177   0.000000
     5  H    5.224763   4.767903   5.551126   1.091632   0.000000
     6  H    4.869779   4.202414   4.688718   1.092719   1.765934
     7  H    5.021221   4.081113   4.721392   1.093649   1.766269
     8  O    1.227521   2.426784   3.174186   5.041562   5.532278
     9  N    2.456322   1.441535   2.050810   4.428166   5.237237
    10  H    3.120068   2.127627   2.886783   4.033506   4.752051
    11  N    1.337269   2.408216   2.519538   5.061125   5.734137
    12  H    2.025604   2.504112   2.270986   5.005397   5.784330
    13  C    2.431533   3.780146   3.937007   6.061910   6.565095
    14  H    2.778557   4.167413   4.555530   5.807800   6.140879
    15  H    2.753880   4.179941   4.311976   6.868116   7.371831
    16  H    3.306794   4.468806   4.424721   6.588280   7.114999
    17  C    3.057533   2.427057   2.625998   5.772167   6.567973
    18  C    4.396942   3.768127   4.051131   6.570960   7.276993
    19  H    4.743599   3.971407   4.425542   6.122930   6.756724
    20  H    5.169766   4.418048   4.464804   7.304856   8.080740
    21  H    4.654445   4.363805   4.719619   7.226527   7.844811
    22  O    3.044628   2.745685   2.571014   6.509146   7.346773
    23  C    3.094303   2.645354   3.515418   1.519144   2.169394
    24  H    2.963356   3.035392   3.866404   2.149344   2.484079
    25  C    3.431613   3.091968   4.140978   2.456702   2.708754
    26  H    4.026908   3.322820   4.284917   2.705761   3.063843
    27  H    2.864116   2.866628   3.959498   3.438097   3.713047
    28  H    4.291707   4.138273   5.188846   2.659972   2.448412
    29  C    2.525343   1.527848   2.120149   2.468330   3.437494
    30  H    3.438062   2.111347   2.457832   2.536680   3.595276
    31  H    2.842672   2.132712   2.308813   2.786315   3.745906
                    6          7          8          9         10
     6  H    0.000000
     7  H    1.765529   0.000000
     8  O    5.549638   5.505611   0.000000
     9  N    4.979127   4.330790   2.788697   0.000000
    10  H    4.747260   3.788436   3.263786   1.007541   0.000000
    11  N    5.114637   5.677947   2.248619   3.621337   4.345148
    12  H    4.867758   5.586336   3.136845   3.863772   4.613468
    13  C    6.107141   6.807699   2.764883   4.864181   5.547423
    14  H    5.913884   6.650848   2.834293   5.206472   5.731060
    15  H    7.013535   7.542415   2.769738   5.030868   5.766823
    16  H    6.462150   7.371300   3.815960   5.671599   6.396698
    17  C    6.303050   5.642455   3.190770   1.344021   2.032164
    18  C    7.238595   6.266250   4.264460   2.413943   2.539744
    19  H    6.882961   5.702209   4.581650   2.529943   2.211300
    20  H    7.896667   6.916436   5.176599   3.148515   3.351834
    21  H    7.946322   7.013590   4.258121   3.105909   3.248683
    22  O    6.902247   6.498847   3.297584   2.250297   3.139819
    23  C    2.178828   2.152346   3.522454   3.273591   3.043271
    24  H    2.535717   3.055999   3.329080   3.903053   3.840314
    25  C    3.433428   2.680687   3.370360   3.082506   2.520967
    26  H    3.715295   2.464915   4.026442   2.932365   2.100728
    27  H    4.321109   3.709469   2.493632   2.728349   2.338093
    28  H    3.684921   2.980147   4.079209   4.150165   3.537802
    29  C    2.683106   2.743358   3.379734   2.475771   2.619465
    30  H    2.738929   2.368689   4.251691   2.590602   2.546505
    31  H    2.566018   3.245643   3.884853   3.365192   3.663238
                   11         12         13         14         15
    11  N    0.000000
    12  H    1.007573   0.000000
    13  C    1.444093   2.126931   0.000000
    14  H    2.103171   2.836112   1.090806   0.000000
    15  H    2.098186   2.864227   1.090226   1.766497   0.000000
    16  H    2.068672   2.294034   1.085600   1.768524   1.767264
    17  C    4.137018   4.434409   5.242689   5.734435   5.144658
    18  C    5.562815   5.913029   6.590911   6.996688   6.402798
    19  H    5.993832   6.336731   7.071829   7.352235   6.996062
    20  H    6.225295   6.458328   7.296743   7.809244   7.084616
    21  H    5.822047   6.317549   6.657018   7.019167   6.314155
    22  O    3.823867   4.080096   4.815985   5.496421   4.579881
    23  C    3.746300   3.882749   4.751735   4.537632   5.465933
    24  H    3.347108   3.579431   4.092112   3.706450   4.890574
    25  C    4.447345   4.836229   5.345710   5.056151   5.832075
    26  H    5.133585   5.430611   6.174346   6.003908   6.606824
    27  H    4.015249   4.590382   4.799352   4.534574   5.118142
    28  H    5.214404   5.649771   5.931280   5.459074   6.439415
    29  C    3.090547   2.962573   4.397541   4.544984   5.073898
    30  H    4.061226   3.821305   5.426531   5.631219   6.056527
    31  H    2.909490   2.484451   4.165268   4.372861   4.988372
                   16         17         18         19         20
    16  H    0.000000
    17  C    6.047393   0.000000
    18  C    7.453607   1.492915   0.000000
    19  H    7.968573   2.165818   1.087994   0.000000
    20  H    8.080342   2.114317   1.089452   1.777164   0.000000
    21  H    7.575065   2.110301   1.090090   1.774894   1.757318
    22  O    5.514110   1.230622   2.381797   3.283216   2.668715
    23  C    5.412697   4.585474   5.509356   5.218696   6.329876
    24  H    4.714958   5.120378   6.155435   5.978861   7.021791
    25  C    6.199635   4.276461   4.858767   4.398190   5.798485
    26  H    7.021992   4.088397   4.426764   3.781477   5.288874
    27  H    5.757131   3.721292   4.310778   3.999734   5.329736
    28  H    6.778488   5.294010   5.764747   5.224479   6.735988
    29  C    4.957495   3.730482   4.868270   4.780395   5.519114
    30  H    5.950703   3.817020   4.771763   4.558803   5.287643
    31  H    4.500522   4.494211   5.755578   5.770518   6.330280
                   21         22         23         24         25
    21  H    0.000000
    22  O    2.707939   0.000000
    23  C    6.054856   5.248376   0.000000
    24  H    6.576911   5.612419   1.096490   0.000000
    25  C    5.265052   5.160178   1.520469   2.132811   0.000000
    26  H    4.957521   5.135142   2.164897   3.053462   1.095559
    27  H    4.539455   4.536426   2.192230   2.500752   1.089329
    28  H    6.077041   6.182265   2.152329   2.469459   1.092002
    29  C    5.556812   4.226785   1.530369   2.146124   2.571075
    30  H    5.615298   4.450598   2.143805   3.023655   2.953779
    31  H    6.439829   4.756742   2.144001   2.369043   3.477965
                   26         27         28         29         30
    26  H    0.000000
    27  H    1.774688   0.000000
    28  H    1.755058   1.759097   0.000000
    29  C    2.837431   2.893270   3.501104   0.000000
    30  H    2.812301   3.447745   3.880921   1.097066   0.000000
    31  H    3.856807   3.803707   4.281082   1.092241   1.745571
                   31
    31  H    0.000000
 Stoichiometry    C9H18N2O2
 Framework group  C1[X(C9H18N2O2)]
 Deg. of freedom    87
 Full point group                 C1      NOp   1
 Largest Abelian subgroup         C1      NOp   1
 Largest concise Abelian subgroup C1      NOp   1
                         Standard orientation:                         
 ---------------------------------------------------------------------
 Center     Atomic      Atomic             Coordinates (Angstroms)
 Number     Number       Type             X           Y           Z
 ---------------------------------------------------------------------
      1          6           0        0.131264    1.224566    0.155718
      2          6           0        0.122932    0.003929   -0.760499
      3          1           0        0.540940    0.334719   -1.715920
      4          6           0       -3.414456   -1.575930   -0.404835
      5          1           0       -4.175683   -1.725918    0.363082
      6          1           0       -3.896369   -1.112632   -1.269214
      7          1           0       -3.051722   -2.560227   -0.714113
      8          8           0        0.433988    1.171418    1.344138
      9          7           0        0.979148   -1.042772   -0.261164
     10          1           0        0.569734   -1.864538    0.153828
     11          7           0       -0.237205    2.363460   -0.440470
     12          1           0       -0.473287    2.344954   -1.419820
     13          6           0       -0.345099    3.605269    0.288691
     14          1           0       -1.098475    3.540441    1.074870
     15          1           0        0.606131    3.871248    0.750221
     16          1           0       -0.628625    4.394378   -0.400837
     17          6           0        2.313031   -0.885914   -0.210723
     18          6           0        3.095532   -2.015687    0.372456
     19          1           0        2.477709   -2.868994    0.644286
     20          1           0        3.851114   -2.330273   -0.346598
     21          1           0        3.617483   -1.655187    1.258968
     22          8           0        2.862500    0.132336   -0.629867
     23          6           0       -2.258308   -0.740956    0.118557
     24          1           0       -2.637963    0.221368    0.481991
     25          6           0       -1.644562   -1.481254    1.296310
     26          1           0       -1.266387   -2.460408    0.982478
     27          1           0       -0.834279   -0.932070    1.774301
     28          1           0       -2.407141   -1.667977    2.055306
     29          6           0       -1.299808   -0.475120   -1.044474
     30          1           0       -1.195723   -1.401984   -1.622092
     31          1           0       -1.766118    0.244817   -1.720667
 ---------------------------------------------------------------------
 Rotational constants (GHZ):      0.8164852      0.6382458      0.4245512
 Leave Link  202 at Tue Jun 17 15:29:05 2014, MaxMem=  4294967296 cpu:         2.4
 (Enter /home/ztw1e12/g09/l301.exe)
 Standard basis: CC-pVTZ (5D, 7F)
 Converting basis for Fermi contact spin-spin IFCMod=1.
 AO basis functions are being uncontracted.
 Ernie: Thresh=  0.10000D-02 Tol=  0.10000D-05 Strict=F.
 There are  1119 symmetry adapted cartesian basis functions of A   symmetry.
 There are  1036 symmetry adapted basis functions of A   symmetry.
  1036 basis functions,  1119 primitive gaussians,  1119 cartesian basis functions
    51 alpha electrons       51 beta electrons
       nuclear repulsion energy       876.8336389050 Hartrees.
 IExCor= 4235 DFT=T Ex+Corr=M06 ExCW=0 ScaHFX=  0.270000
 ScaDFX=  1.000000  1.000000  1.000000  1.000000 ScalE2=  1.000000  1.000000
 IRadAn= 199590 IRanWt=     -1 IRanGd=            0 ICorTp=0 IEmpDi=  4
 NAtoms=   31 NActive=   31 NUniq=   31 SFac= 1.00D+00 NAtFMM=   60 NAOKFM=F Big=F
 Integral buffers will be    131072 words long.
 Raffenetti 2 integral format.
 Two-electron integral symmetry is turned on.
 Leave Link  301 at Tue Jun 17 15:29:06 2014, MaxMem=  4294967296 cpu:         7.6
 (Enter /home/ztw1e12/g09/l302.exe)
 NPDir=0 NMtPBC=     1 NCelOv=     1 NCel=       1 NClECP=     1 NCelD=      1
         NCelK=      1 NCelE2=     1 NClLst=     1 CellRange=     0.0.
 One-electron integrals computed using PRISM.
 GSVD:  received Info=                   1 from GESDD.
 NBasis=  1036 RedAO= T EigKep=  1.27D-04  NBF=  1036
 NBsUse=   932 1.00D-06 EigRej=  4.98D-15 NBFU=   932
 Precomputing XC quadrature grid using
 IXCGrd= 4 IRadAn=      199590 IRanWt=          -1 IRanGd=           0 AccXCQ= 0.00D+00.
 Generated NRdTot=       0 NPtTot=           0 NUsed=           0 NTot=          32
 NSgBfM=   881   881   881   881   881 MxSgAt=    31 MxSgA2=    31.
 Leave Link  302 at Tue Jun 17 15:29:10 2014, MaxMem=  4294967296 cpu:        64.5
 (Enter /home/ztw1e12/g09/l308.exe)
 Leave Link  308 at Tue Jun 17 15:29:10 2014, MaxMem=  4294967296 cpu:         5.8
 (Enter /home/ztw1e12/g09/l303.exe)
 DipDrv:  MaxL=1.
 Leave Link  303 at Tue Jun 17 15:29:11 2014, MaxMem=  4294967296 cpu:         3.3
 (Enter /home/ztw1e12/g09/l401.exe)
 ExpMin= 1.03D-01 ExpMax= 1.38D+05 ExpMxC= 1.38D+05 IAcc=4 IRadAn=    199590 AccDes= 0.00D+00
 Harris functional with IExCor= 1009 and IRadAn=  199590 diagonalized for initial guess.
 HarFok:  IExCor= 1009 AccDes= 0.00D+00 IRadAn=    199590 IDoV= 1 UseB2=F ITyADJ=14
 ICtDFT=  3500011 ScaDFX=  1.000000  1.000000  1.000000  1.000000
 FoFCou: FMM=F IPFlag=           0 FMFlag=      100000 FMFlg1=           0
         NFxFlg=           0 DoJE=T BraDBF=F KetDBF=T FulRan=T
         wScrn=  0.000000 ICntrl=     500 IOpCl=  0 I1Cent=   200000004 NGrid=           0
         NMat0=    1 NMatS0=      1 NMatT0=    0 NMatD0=    1 NMtDS0=    0 NMtDT0=    0
 Petite list used in FoFCou.
 Harris En= -613.562746634918    
 JPrj=0 DoOrth=F DoCkMO=F.
 Leave Link  401 at Tue Jun 17 15:29:28 2014, MaxMem=  4294967296 cpu:       259.6
 (Enter /home/ztw1e12/g09/l502.exe)
 Closed shell SCF:
 Using DIIS extrapolation, IDIIS=  1040.
 Integral symmetry usage will be decided dynamically.
 IVT=     3801329 IEndB=     3801329 NGot=  4294967296 MDV=  4292435888
 LenX=  4292435888 LenY=  4291182608
 Requested convergence on RMS density matrix=1.00D-08 within 128 cycles.
 Requested convergence on MAX density matrix=1.00D-06.
 Requested convergence on             energy=1.00D-06.
 No special actions if energy rises.
 Fock matrices will be formed incrementally for  20 cycles.
 Integral accuracy reduced to 1.0D-05 until final iterations.

 Cycle   1  Pass 0  IDiag  1:
 FoFJK:  IHMeth= 1 ICntrl=       0 DoSepK=F KAlg= 0 I1Cent=   0 FoldK=F
 IRaf= 480000000 NMat=   1 IRICut=       1 DoRegI=T DoRafI=F ISym2E= 0.
 FoFCou: FMM=F IPFlag=           0 FMFlag=      100000 FMFlg1=           0
         NFxFlg=           0 DoJE=F BraDBF=F KetDBF=F FulRan=T
         wScrn=  0.000000 ICntrl=       0 IOpCl=  0 I1Cent=           0 NGrid=           0
         NMat0=    1 NMatS0=      1 NMatT0=    0 NMatD0=    1 NMtDS0=    0 NMtDT0=    0
 Symmetry not used in FoFCou.
 E= -613.184845227335    
 DIIS: error= 1.39D-01 at cycle   1 NSaved=   1.
 NSaved= 1 IEnMin= 1 EnMin= -613.184845227335     IErMin= 1 ErrMin= 1.39D-01
 ErrMax= 1.39D-01  0.00D+00 EMaxC= 1.00D-01 BMatC= 1.30D+01 BMatP= 1.30D+01
 IDIUse=3 WtCom= 0.00D+00 WtEn= 1.00D+00
 Coeff-Com:  0.100D+01
 Coeff-En:   0.100D+01
 Coeff:      0.100D+01
 Gap=     0.289 Goal=   None    Shift=    0.000
 GapD=    0.289 DampG=1.000 DampE=0.250 DampFc=0.2500 IDamp=-1.
 Damping current iteration by 2.50D-01
 RMSDP=2.05D-03 MaxDP=2.98D-01              OVMax= 2.83D-01

 Cycle   2  Pass 0  IDiag  1:
 RMSU=  5.13D-04    CP:  1.01D+00
 E= -613.341622895615     Delta-E=       -0.156777668280 Rises=F Damp=T
 DIIS: error= 1.05D-01 at cycle   2 NSaved=   2.
 NSaved= 2 IEnMin= 2 EnMin= -613.341622895615     IErMin= 2 ErrMin= 1.05D-01
 ErrMax= 1.05D-01  0.00D+00 EMaxC= 1.00D-01 BMatC= 7.66D+00 BMatP= 1.30D+01
 IDIUse=3 WtCom= 0.00D+00 WtEn= 1.00D+00
 Coeff-Com: -0.279D+01 0.379D+01
 Coeff-En:   0.000D+00 0.100D+01
 Coeff:      0.000D+00 0.100D+01
 Gap=     0.219 Goal=   None    Shift=    0.000
 RMSDP=5.77D-04 MaxDP=5.19D-02 DE=-1.57D-01 OVMax= 1.31D-01

 Cycle   3  Pass 0  IDiag  1:
 RMSU=  4.26D-04    CP:  1.02D+00  1.76D+00
 E= -613.530425024954     Delta-E=       -0.188802129338 Rises=F Damp=F
 DIIS: error= 1.26D-02 at cycle   3 NSaved=   3.
 NSaved= 3 IEnMin= 3 EnMin= -613.530425024954     IErMin= 3 ErrMin= 1.26D-02
 ErrMax= 1.26D-02  0.00D+00 EMaxC= 1.00D-01 BMatC= 2.31D-01 BMatP= 7.66D+00
 IDIUse=3 WtCom= 8.74D-01 WtEn= 1.26D-01
 Coeff-Com:  0.123D+01-0.169D+01 0.145D+01
 Coeff-En:   0.138D+00 0.000D+00 0.862D+00
 Coeff:      0.109D+01-0.147D+01 0.138D+01
 Gap=     0.249 Goal=   None    Shift=    0.000
 RMSDP=4.19D-04 MaxDP=3.50D-02 DE=-1.89D-01 OVMax= 6.36D-02

 Cycle   4  Pass 0  IDiag  1:
 RMSU=  2.69D-04    CP:  1.02D+00  1.18D+00  6.88D-01
 E= -613.545194583289     Delta-E=       -0.014769558336 Rises=F Damp=F
 DIIS: error= 8.01D-03 at cycle   4 NSaved=   4.
 NSaved= 4 IEnMin= 4 EnMin= -613.545194583289     IErMin= 4 ErrMin= 8.01D-03
 ErrMax= 8.01D-03  0.00D+00 EMaxC= 1.00D-01 BMatC= 1.04D-01 BMatP= 2.31D-01
 IDIUse=3 WtCom= 9.20D-01 WtEn= 8.01D-02
 Coeff-Com:  0.771D+00-0.106D+01 0.752D+00 0.537D+00
 Coeff-En:   0.000D+00 0.000D+00 0.445D+00 0.555D+00
 Coeff:      0.709D+00-0.975D+00 0.727D+00 0.538D+00
 Gap=     0.282 Goal=   None    Shift=    0.000
 RMSDP=2.71D-04 MaxDP=2.18D-02 DE=-1.48D-02 OVMax= 7.74D-02

 Cycle   5  Pass 0  IDiag  1:
 RMSU=  9.05D-05    CP:  1.02D+00  1.13D+00  8.43D-01  8.79D-02
 E= -613.616915605701     Delta-E=       -0.071721022412 Rises=F Damp=F
 DIIS: error= 3.18D-03 at cycle   5 NSaved=   5.
 NSaved= 5 IEnMin= 5 EnMin= -613.616915605701     IErMin= 5 ErrMin= 3.18D-03
 ErrMax= 3.18D-03  0.00D+00 EMaxC= 1.00D-01 BMatC= 1.44D-02 BMatP= 1.04D-01
 IDIUse=3 WtCom= 9.68D-01 WtEn= 3.18D-02
 Coeff-Com:  0.147D+00-0.208D+00 0.141D+00 0.274D+00 0.646D+00
 Coeff-En:   0.000D+00 0.000D+00 0.000D+00 0.832D-01 0.917D+00
 Coeff:      0.142D+00-0.202D+00 0.137D+00 0.268D+00 0.654D+00
 Gap=     0.269 Goal=   None    Shift=    0.000
 RMSDP=1.50D-04 MaxDP=1.66D-02 DE=-7.17D-02 OVMax= 3.01D-02

 Cycle   6  Pass 0  IDiag  1:
 RMSU=  7.82D-05    CP:  1.02D+00  1.17D+00  9.33D-01  4.58D-01  2.61D-01
 E= -613.624945805129     Delta-E=       -0.008030199428 Rises=F Damp=F
 DIIS: error= 1.05D-03 at cycle   6 NSaved=   6.
 NSaved= 6 IEnMin= 6 EnMin= -613.624945805129     IErMin= 6 ErrMin= 1.05D-03
 ErrMax= 1.05D-03  0.00D+00 EMaxC= 1.00D-01 BMatC= 1.11D-03 BMatP= 1.44D-02
 IDIUse=3 WtCom= 9.89D-01 WtEn= 1.05D-02
 Coeff-Com:  0.634D-01-0.861D-01 0.218D-01 0.428D-01 0.199D+00 0.759D+00
 Coeff-En:   0.000D+00 0.000D+00 0.000D+00 0.000D+00 0.161D-01 0.984D+00
 Coeff:      0.628D-01-0.852D-01 0.215D-01 0.424D-01 0.197D+00 0.761D+00
 Gap=     0.269 Goal=   None    Shift=    0.000
 RMSDP=3.16D-05 MaxDP=3.18D-03 DE=-8.03D-03 OVMax= 9.57D-03

 Cycle   7  Pass 0  IDiag  1:
 RMSU=  2.22D-05    CP:  1.02D+00  1.13D+00  9.37D-01  4.52D-01  3.73D-01
                    CP:  1.12D+00
 E= -613.625549212647     Delta-E=       -0.000603407518 Rises=F Damp=F
 DIIS: error= 4.06D-04 at cycle   7 NSaved=   7.
 NSaved= 7 IEnMin= 7 EnMin= -613.625549212647     IErMin= 7 ErrMin= 4.06D-04
 ErrMax= 4.06D-04  0.00D+00 EMaxC= 1.00D-01 BMatC= 2.52D-04 BMatP= 1.11D-03
 IDIUse=3 WtCom= 9.96D-01 WtEn= 4.06D-03
 Coeff-Com:  0.424D-01-0.569D-01 0.140D-01 0.683D-02 0.567D-01 0.426D+00
 Coeff-Com:  0.511D+00
 Coeff-En:   0.000D+00 0.000D+00 0.000D+00 0.000D+00 0.000D+00 0.117D+00
 Coeff-En:   0.883D+00
 Coeff:      0.423D-01-0.567D-01 0.139D-01 0.680D-02 0.565D-01 0.424D+00
 Coeff:      0.513D+00
 Gap=     0.269 Goal=   None    Shift=    0.000
 RMSDP=1.15D-05 MaxDP=9.87D-04 DE=-6.03D-04 OVMax= 3.16D-03

 Cycle   8  Pass 0  IDiag  1:
 RMSU=  7.04D-06    CP:  1.02D+00  1.13D+00  9.42D-01  4.63D-01  3.58D-01
                    CP:  1.17D+00  6.94D-01
 E= -613.625719446310     Delta-E=       -0.000170233663 Rises=F Damp=F
 DIIS: error= 1.56D-04 at cycle   8 NSaved=   8.
 NSaved= 8 IEnMin= 8 EnMin= -613.625719446310     IErMin= 8 ErrMin= 1.56D-04
 ErrMax= 1.56D-04  0.00D+00 EMaxC= 1.00D-01 BMatC= 2.92D-05 BMatP= 2.52D-04
 IDIUse=3 WtCom= 9.98D-01 WtEn= 1.56D-03
 Coeff-Com:  0.230D-01-0.308D-01 0.918D-02-0.382D-02 0.141D-02 0.169D+00
 Coeff-Com:  0.300D+00 0.533D+00
 Coeff-En:   0.000D+00 0.000D+00 0.000D+00 0.000D+00 0.000D+00 0.000D+00
 Coeff-En:   0.000D+00 0.100D+01
 Coeff:      0.230D-01-0.308D-01 0.917D-02-0.382D-02 0.141D-02 0.168D+00
 Coeff:      0.299D+00 0.533D+00
 Gap=     0.269 Goal=   None    Shift=    0.000
 RMSDP=5.77D-06 MaxDP=5.59D-04 DE=-1.70D-04 OVMax= 1.21D-03

 Initial convergence to 1.0D-05 achieved.  Increase integral accuracy.
 Cycle   9  Pass 1  IDiag  1:
 E= -613.625699968734     Delta-E=        0.000019477576 Rises=F Damp=F
 DIIS: error= 7.94D-05 at cycle   1 NSaved=   1.
 NSaved= 1 IEnMin= 1 EnMin= -613.625699968734     IErMin= 1 ErrMin= 7.94D-05
 ErrMax= 7.94D-05  0.00D+00 EMaxC= 1.00D-01 BMatC= 1.22D-05 BMatP= 1.22D-05
 IDIUse=1 WtCom= 1.00D+00 WtEn= 0.00D+00
 Coeff-Com:  0.100D+01
 Coeff:      0.100D+01
 Gap=     0.269 Goal=   None    Shift=    0.000
 RMSDP=5.77D-06 MaxDP=5.59D-04 DE= 1.95D-05 OVMax= 1.46D-03

 Cycle  10  Pass 1  IDiag  1:
 RMSU=  2.59D-05    CP:  1.00D+00
 E= -613.625696456259     Delta-E=        0.000003512474 Rises=F Damp=F
 DIIS: error= 1.14D-04 at cycle   2 NSaved=   2.
 NSaved= 2 IEnMin= 1 EnMin= -613.625699968734     IErMin= 1 ErrMin= 7.94D-05
 ErrMax= 1.14D-04  0.00D+00 EMaxC= 1.00D-01 BMatC= 1.41D-05 BMatP= 1.22D-05
 IDIUse=3 WtCom= 4.83D-01 WtEn= 5.17D-01
 Coeff-Com:  0.522D+00 0.478D+00
 Coeff-En:   0.618D+00 0.382D+00
 Coeff:      0.572D+00 0.428D+00
 Gap=     0.269 Goal=   None    Shift=    0.000
 RMSDP=3.70D-06 MaxDP=4.40D-04 DE= 3.51D-06 OVMax= 1.25D-03

 Cycle  11  Pass 1  IDiag  1:
 RMSU=  3.64D-06    CP:  1.00D+00  9.82D-01
 E= -613.625705444745     Delta-E=       -0.000008988486 Rises=F Damp=F
 DIIS: error= 4.02D-05 at cycle   3 NSaved=   3.
 NSaved= 3 IEnMin= 3 EnMin= -613.625705444745     IErMin= 3 ErrMin= 4.02D-05
 ErrMax= 4.02D-05  0.00D+00 EMaxC= 1.00D-01 BMatC= 1.52D-06 BMatP= 1.22D-05
 IDIUse=1 WtCom= 1.00D+00 WtEn= 0.00D+00
 Coeff-Com:  0.591D-01 0.246D+00 0.695D+00
 Coeff:      0.591D-01 0.246D+00 0.695D+00
 Gap=     0.269 Goal=   None    Shift=    0.000
 RMSDP=1.02D-06 MaxDP=1.07D-04 DE=-8.99D-06 OVMax= 3.13D-04

 Cycle  12  Pass 1  IDiag  1:
 RMSU=  5.07D-07    CP:  1.00D+00  1.00D+00  7.94D-01
 E= -613.625706422176     Delta-E=       -0.000000977431 Rises=F Damp=F
 DIIS: error= 9.80D-06 at cycle   4 NSaved=   4.
 NSaved= 4 IEnMin= 4 EnMin= -613.625706422176     IErMin= 4 ErrMin= 9.80D-06
 ErrMax= 9.80D-06  0.00D+00 EMaxC= 1.00D-01 BMatC= 1.05D-07 BMatP= 1.52D-06
 IDIUse=1 WtCom= 1.00D+00 WtEn= 0.00D+00
 Coeff-Com:  0.674D-02 0.101D+00 0.340D+00 0.553D+00
 Coeff:      0.674D-02 0.101D+00 0.340D+00 0.553D+00
 Gap=     0.269 Goal=   None    Shift=    0.000
 RMSDP=2.44D-07 MaxDP=2.28D-05 DE=-9.77D-07 OVMax= 6.13D-05

 Cycle  13  Pass 1  IDiag  1:
 RMSU=  2.07D-07    CP:  1.00D+00  1.00D+00  8.03D-01  7.68D-01
 E= -613.625706493378     Delta-E=       -0.000000071202 Rises=F Damp=F
 DIIS: error= 2.48D-06 at cycle   5 NSaved=   5.
 NSaved= 5 IEnMin= 5 EnMin= -613.625706493378     IErMin= 5 ErrMin= 2.48D-06
 ErrMax= 2.48D-06  0.00D+00 EMaxC= 1.00D-01 BMatC= 8.48D-09 BMatP= 1.05D-07
 IDIUse=1 WtCom= 1.00D+00 WtEn= 0.00D+00
 Coeff-Com: -0.229D-02 0.267D-01 0.102D+00 0.273D+00 0.600D+00
 Coeff:     -0.229D-02 0.267D-01 0.102D+00 0.273D+00 0.600D+00
 Gap=     0.269 Goal=   None    Shift=    0.000
 RMSDP=7.99D-08 MaxDP=7.00D-06 DE=-7.12D-08 OVMax= 1.94D-05

 Cycle  14  Pass 1  IDiag  1:
 RMSU=  5.02D-08    CP:  1.00D+00  1.00D+00  8.08D-01  8.62D-01  8.57D-01
 E= -613.625706499189     Delta-E=       -0.000000005811 Rises=F Damp=F
 DIIS: error= 6.31D-07 at cycle   6 NSaved=   6.
 NSaved= 6 IEnMin= 6 EnMin= -613.625706499189     IErMin= 6 ErrMin= 6.31D-07
 ErrMax= 6.31D-07  0.00D+00 EMaxC= 1.00D-01 BMatC= 4.22D-10 BMatP= 8.48D-09
 IDIUse=1 WtCom= 1.00D+00 WtEn= 0.00D+00
 Coeff-Com: -0.132D-02 0.768D-02 0.308D-01 0.101D+00 0.275D+00 0.586D+00
 Coeff:     -0.132D-02 0.768D-02 0.308D-01 0.101D+00 0.275D+00 0.586D+00
 Gap=     0.269 Goal=   None    Shift=    0.000
 RMSDP=2.25D-08 MaxDP=2.38D-06 DE=-5.81D-09 OVMax= 8.45D-06

 Cycle  15  Pass 1  IDiag  1:
 RMSU=  2.04D-08    CP:  1.00D+00  1.00D+00  8.08D-01  8.73D-01  8.79D-01
                    CP:  9.02D-01
 E= -613.625706499414     Delta-E=       -0.000000000226 Rises=F Damp=F
 DIIS: error= 4.82D-07 at cycle   7 NSaved=   7.
 NSaved= 7 IEnMin= 7 EnMin= -613.625706499414     IErMin= 7 ErrMin= 4.82D-07
 ErrMax= 4.82D-07  0.00D+00 EMaxC= 1.00D-01 BMatC= 1.55D-10 BMatP= 4.22D-10
 IDIUse=1 WtCom= 1.00D+00 WtEn= 0.00D+00
 Coeff-Com: -0.416D-03-0.282D-03-0.274D-03 0.106D-01 0.560D-01 0.389D+00
 Coeff-Com:  0.545D+00
 Coeff:     -0.416D-03-0.282D-03-0.274D-03 0.106D-01 0.560D-01 0.389D+00
 Coeff:      0.545D+00
 Gap=     0.269 Goal=   None    Shift=    0.000
 RMSDP=1.45D-08 MaxDP=1.54D-06 DE=-2.26D-10 OVMax= 3.38D-06

 Cycle  16  Pass 1  IDiag  1:
 RMSU=  7.24D-09    CP:  1.00D+00  1.00D+00  8.09D-01  8.85D-01  8.98D-01
                    CP:  1.06D+00  7.62D-01
 E= -613.625706499522     Delta-E=       -0.000000000108 Rises=F Damp=F
 DIIS: error= 1.12D-07 at cycle   8 NSaved=   8.
 NSaved= 8 IEnMin= 8 EnMin= -613.625706499522     IErMin= 8 ErrMin= 1.12D-07
 ErrMax= 1.12D-07  0.00D+00 EMaxC= 1.00D-01 BMatC= 1.17D-11 BMatP= 1.55D-10
 IDIUse=1 WtCom= 1.00D+00 WtEn= 0.00D+00
 Coeff-Com: -0.460D-04-0.118D-02-0.417D-02-0.765D-02-0.694D-02 0.135D+00
 Coeff-Com:  0.287D+00 0.598D+00
 Coeff:     -0.460D-04-0.118D-02-0.417D-02-0.765D-02-0.694D-02 0.135D+00
 Coeff:      0.287D+00 0.598D+00
 Gap=     0.269 Goal=   None    Shift=    0.000
 RMSDP=3.71D-09 MaxDP=4.71D-07 DE=-1.08D-10 OVMax= 6.75D-07

 SCF Done:  E(RM06) =  -613.625706500     A.U. after   16 cycles
            NFock= 16  Conv=0.37D-08     -V/T= 2.0046
 KE= 6.108036980277D+02 PE=-3.185105852063D+03 EE= 1.083842808630D+03
 Leave Link  502 at Tue Jun 17 15:57:22 2014, MaxMem=  4294967296 cpu:     26723.4
 (Enter /home/ztw1e12/g09/l801.exe)
 DoSCS=F DFT=T ScalE2(SS,OS)=  1.000000  1.000000
 Range of M.O.s used for correlation:     1   932
 NBasis=  1036 NAE=    51 NBE=    51 NFC=     0 NFV=     0
 NROrb=    932 NOA=    51 NOB=    51 NVA=   881 NVB=   881

 **** Warning!!: The largest alpha MO coefficient is  0.13353317D+02

 Leave Link  801 at Tue Jun 17 15:57:22 2014, MaxMem=  4294967296 cpu:         0.4
 (Enter /home/ztw1e12/g09/l1002.exe)
 Minotr:  Closed shell wavefunction.
          IDoAtm=1111111111111111111111111111111
          Direct CPHF calculation.
          Differentiating once with respect to Fermi-contact.
          Electric field/nuclear overlap derivatives assumed to be zero.
          Requested convergence is 1.0D-10 RMS, and 1.0D-09 maximum.
          Secondary convergence is 1.0D-12 RMS, and 1.0D-12 maximum.
          NewPWx=T KeepS1=F KeepF1=F KeepIn=T MapXYZ=F SortEE=F KeepMc=T.
          MDV=    4294966050 using IRadAn=  199590.
 Using stored XC quadrature information.
          Solving linear equations simultaneously, MaxMat=       0.
          There are    31 degrees of freedom in the 1st order CPHF.  IDoFFX=0 NUNeed=    31.
     31 vectors produced by pass  0 Test12= 1.45D-17 3.23D-11 XBig12= 4.16D+01 2.56D+00.
 AX will form    31 AO Fock derivatives at one time.
 FoFJK:  IHMeth= 1 ICntrl=       0 DoSepK=F KAlg= 0 I1Cent=   0 FoldK=F
 IRaf= 500000000 NMat=  31 IRICut=       1 DoRegI=T DoRafI=F ISym2E=-1.
 FoFCou: FMM=F IPFlag=           0 FMFlag=      100000 FMFlg1=           0
         NFxFlg=           0 DoJE=F BraDBF=F KetDBF=F FulRan=T
         wScrn=  0.000000 ICntrl=       0 IOpCl=  0 I1Cent=           0 NGrid=           0
         NMat0=   31 NMatS0=      0 NMatT0=   31 NMatD0=   31 NMtDS0=    0 NMtDT0=    0
 Petite list used in FoFCou.
     31 vectors produced by pass  1 Test12= 1.45D-17 3.23D-11 XBig12= 3.46D-01 1.76D-01.
     31 vectors produced by pass  2 Test12= 1.45D-17 3.23D-11 XBig12= 1.70D-02 4.94D-02.
     31 vectors produced by pass  3 Test12= 1.45D-17 3.23D-11 XBig12= 3.79D-04 6.39D-03.
     31 vectors produced by pass  4 Test12= 1.45D-17 3.23D-11 XBig12= 5.80D-06 9.14D-04.
     31 vectors produced by pass  5 Test12= 1.45D-17 3.23D-11 XBig12= 1.18D-07 1.73D-04.
     31 vectors produced by pass  6 Test12= 1.45D-17 3.23D-11 XBig12= 3.46D-09 2.09D-05.
     31 vectors produced by pass  7 Test12= 1.45D-17 3.23D-11 XBig12= 1.06D-10 4.19D-06.
     31 vectors produced by pass  8 Test12= 1.45D-17 3.23D-11 XBig12= 2.88D-12 3.94D-07.
     31 vectors produced by pass  9 Test12= 1.45D-17 3.23D-11 XBig12= 7.66D-14 8.12D-08.
     31 vectors produced by pass 10 Test12= 1.45D-17 3.23D-11 XBig12= 2.79D-15 7.95D-09.
     30 vectors produced by pass 11 Test12= 1.45D-17 3.23D-11 XBig12= 2.75D-17 7.68D-10.
      5 vectors produced by pass 12 Test12= 1.45D-17 3.23D-11 XBig12= 2.37D-19 4.44D-11.
 InvSVY:  IOpt=1 It=  1 EMax= 8.88D-15
 Solved reduced A of dimension   376 with    31 vectors.
 Max diff in FC couplings:  IJMax=     9     4 Diff= 3.37D-04 IJMaxR=    19    13 DiffR= 8.18D-01
 Fermi Contact (FC) contribution to K (Hz):
                1             2             3             4             5 
      1  0.123400D+11
      2  0.267703D+02  0.123400D+11
      3 -0.109906D+01  0.187875D+02  0.123400D+11
      4 -0.848519D-01  0.217158D+01 -0.383535D-01  0.123400D+11
      5 -0.131774D-01  0.204750D+00 -0.159050D-02  0.175620D+02  0.123400D+11
      6 -0.138323D-02 -0.217639D-02 -0.167233D-02  0.170495D+02 -0.770266D+00
      7  0.385864D-02 -0.251736D-01 -0.881756D-04  0.173639D+02 -0.760979D+00
      8 -0.969251D+01  0.268174D+01  0.401651D+00  0.503863D-01  0.254004D-02
      9  0.164263D+00  0.197186D+02 -0.721990D+00 -0.885880D-01 -0.592691D-02
     10  0.199909D-01  0.215092D+00  0.195530D+00  0.184185D-01  0.103247D-02
     11  0.288745D+02  0.137972D+02  0.144758D+00 -0.157175D-01  0.146731D-02
     12  0.475931D+00  0.111894D+00 -0.221682D-01  0.109359D-02 -0.261441D-03
     13 -0.388056D+00  0.109291D+01 -0.309990D-02 -0.135539D-02 -0.830073D-03
     14  0.174528D+00 -0.852224D-01  0.180204D-01  0.734043D-03  0.416919D-03
     15  0.216982D+00 -0.783714D-01  0.117424D-01  0.176585D-03  0.384215D-03
     16  0.962475D+00 -0.252195D-01 -0.477839D-03  0.565937D-04  0.662987D-05
     17  0.123702D+00 -0.419832D+00  0.298576D+00  0.417423D-01  0.171283D-02
     18 -0.160443D+00  0.900958D+00 -0.825020D-01 -0.411544D-02 -0.529903D-03
     19 -0.158896D-02  0.109684D+00 -0.186875D-02  0.389667D-03  0.220465D-05
     20  0.574530D-01  0.225837D-01  0.154583D-01  0.114500D-03  0.288817D-04
     21  0.803306D-01  0.365490D-01  0.244288D-01  0.395688D-03 -0.520535D-04
     22  0.477011D+00  0.909344D+00  0.237577D+00  0.290008D-01  0.708064D-02
     23  0.846081D+00 -0.486013D+00  0.108864D+01  0.171077D+02 -0.512909D+00
     24 -0.195262D-01  0.573003D-01 -0.204920D-01 -0.670990D+00  0.135989D+00
     25  0.102886D-01  0.557470D+00  0.222593D-02 -0.260382D+00  0.293151D+00
     26  0.235750D-02 -0.119347D-01  0.685109D-02  0.393752D+00 -0.374993D-02
     27  0.402436D-01  0.897380D-02  0.708278D-02  0.149623D+01  0.293368D-02
     28  0.106608D-01  0.109260D-01  0.760352D-02  0.415421D+00 -0.110055D-01
     29 -0.351031D+00  0.165116D+02 -0.892531D+00  0.352957D+00  0.142462D+01
     30  0.100846D+01 -0.979354D+00  0.964661D-01  0.731854D+00  0.143840D-01
     31  0.527958D-01 -0.376453D+00  0.218618D+00  0.842229D-01 -0.142088D-01
                6             7             8             9            10 
      6  0.123400D+11
      7 -0.754175D+00  0.123400D+11
      8  0.114587D-01  0.137515D-01  0.123400D+11
      9 -0.426286D-03  0.848845D-02  0.274846D+00  0.123400D+11
     10  0.135397D-03  0.172189D-03  0.282163D-02  0.318425D+02  0.123400D+11
     11  0.260181D-02  0.341514D-02  0.645257D+01  0.115128D+01  0.156235D+00
     12 -0.327098D-04 -0.242059D-03  0.482605D+00  0.471736D-01 -0.227833D-03
     13  0.168215D-04  0.436824D-03  0.622621D+00  0.289797D+00  0.123612D-01
     14  0.593024D-04  0.529052D-03  0.237163D+00 -0.951454D-02 -0.756861D-03
     15  0.115046D-04  0.288685D-03  0.244129D+00 -0.513380D-02 -0.976382D-03
     16 -0.145929D-05  0.515332D-04  0.175591D+00  0.225798D-01 -0.885110D-03
     17  0.151510D-02 -0.646981D-03  0.544974D-01  0.264090D+02  0.395343D+00
     18 -0.130213D-04  0.169777D-03  0.690635D-01  0.126452D+02  0.976365D-01
     19  0.329315D-04 -0.264374D-04 -0.455575D-03  0.356125D+00 -0.102480D-01
     20  0.213081D-04 -0.171829D-04  0.457000D-02  0.367574D+00 -0.457641D-02
     21 -0.997788D-05  0.536533D-05  0.304869D-02  0.374542D+00 -0.179537D-01
     22  0.932951D-04  0.345871D-04  0.526284D+00  0.564130D+01  0.414831D+00
     23 -0.572001D+00 -0.722365D+00  0.391042D-01 -0.380058D-01  0.822081D-03
     24  0.109814D+00  0.353050D+00  0.462128D-01  0.333662D-01 -0.247021D-03
     25  0.131937D+01  0.470564D+00  0.183520D+01  0.136469D+01 -0.104052D+00
     26 -0.321922D-02 -0.154026D-01 -0.169508D-01  0.465514D+00 -0.532884D-01
     27  0.107857D+00  0.134217D-02 -0.835230D-01  0.306998D+00 -0.141264D-01
     28  0.121513D-01 -0.550674D-02  0.110441D-01  0.394597D+00 -0.295999D-01
     29  0.359953D+00  0.397165D+00  0.307088D+00  0.560052D+00  0.441507D+00
     30  0.168772D-02 -0.200928D-01  0.699611D-01  0.821865D+00 -0.220633D-01
     31 -0.900309D-02 -0.858053D-02 -0.212299D-01  0.176155D+01 -0.226971D-01
               11            12            13            14            15 
     11  0.123400D+11
     12  0.313042D+02  0.123400D+11
     13  0.172288D+02  0.328081D+00  0.123400D+11
     14 -0.564779D+00  0.883666D-01  0.197397D+02  0.123400D+11
     15 -0.569501D+00  0.126311D+00  0.202231D+02 -0.734342D+00  0.123400D+11
     16 -0.402900D+00  0.292570D+00  0.182139D+02 -0.740416D+00 -0.758829D+00
     17 -0.690118D-01  0.221238D-03 -0.108816D-01  0.109402D-02  0.623556D-03
     18  0.188088D-01  0.995769D-03  0.125755D-01  0.894348D-03  0.680248D-03
     19  0.608720D-02  0.529819D-04  0.694649D-05 -0.437220D-04 -0.241584D-04
     20 -0.253598D-02 -0.147571D-03 -0.405542D-03  0.293747D-04 -0.280775D-04
     21  0.167047D-01 -0.932129D-04  0.236635D-02  0.880474D-04 -0.571287D-04
     22  0.167745D+00 -0.126512D-02  0.109487D-01  0.419824D-02  0.224002D-02
     23 -0.783509D-01  0.202284D-02  0.543413D-02  0.786269D-03 -0.487677D-03
     24  0.701530D-02 -0.224107D-03  0.386722D-02  0.273114D-02  0.256936D-03
     25  0.105375D+00  0.171703D-02 -0.337234D-03  0.336987D-02 -0.113176D-02
     26  0.247660D-03 -0.891466D-05 -0.509493D-03  0.264700D-03  0.167316D-03
     27 -0.126339D-01 -0.576119D-03  0.380660D-03  0.123308D-04  0.296454D-03
     28  0.774113D-02 -0.182542D-03  0.107079D-03  0.216304D-04  0.625778D-04
     29  0.767891D-01 -0.373178D-01 -0.135192D+00  0.699697D-01  0.104861D+00
     30 -0.414546D-01 -0.682898D-02 -0.102196D-01  0.442869D-02  0.663129D-02
     31  0.750725D-01 -0.792357D-02  0.444387D-03  0.531857D-03  0.106402D-02
               16            17            18            19            20 
     16  0.123400D+11
     17 -0.751353D-04  0.123400D+11
     18  0.201654D-03  0.272546D+02  0.123400D+11
     19  0.982888D-05 -0.764246D+00  0.170445D+02  0.123400D+11
     20  0.103467D-03 -0.117526D+01  0.179490D+02 -0.719880D+00  0.123400D+11
     21  0.339471D-03 -0.121509D+01  0.179713D+02 -0.745346D+00 -0.920526D+00
     22  0.176149D-02 -0.951501D+01  0.376505D+01  0.833976D+00  0.427791D+00
     23  0.354421D-03 -0.539412D-01  0.567888D-02  0.383962D-03 -0.138105D-02
     24  0.278678D-03 -0.110242D-02  0.213482D-03  0.271448D-03  0.247777D-03
     25  0.949571D-03  0.394933D-01 -0.904944D-02 -0.114712D-02  0.227838D-02
     26  0.000000D+00  0.278606D-01  0.105163D-02  0.177503D-02  0.177412D-03
     27  0.409691D-04  0.284392D-01  0.306811D-03  0.707515D-03  0.654248D-03
     28  0.336325D-04  0.293093D-01 -0.163202D-02  0.233063D-03  0.547122D-03
     29  0.303482D-02  0.140636D+01 -0.361258D-01 -0.178931D-02  0.153637D-01
     30  0.504514D-03 -0.356295D-02  0.178361D-01 -0.570927D-04 -0.218432D-03
     31  0.296525D-03  0.965672D-01  0.616492D-01 -0.310165D-04  0.241250D-02
               21            22            23            24            25 
     21  0.123400D+11
     22  0.443522D+00  0.123400D+11
     23 -0.125586D-03  0.709837D-01  0.123400D+11
     24  0.123158D-03  0.315787D-02  0.176200D+02  0.123400D+11
     25  0.120551D-02  0.103392D+00  0.166837D+02 -0.595627D+00  0.123400D+11
     26 -0.173619D-03  0.910589D-02 -0.653103D+00  0.369565D+00  0.159467D+02
     27  0.317285D-03  0.538033D-02 -0.607783D+00  0.124573D+00  0.184276D+02
     28  0.356929D-03  0.115536D-01 -0.666507D+00  0.122678D+00  0.171604D+02
     29 -0.555925D-02  0.185958D+00  0.173437D+02 -0.692010D+00 -0.378437D+00
     30 -0.747553D-03 -0.378814D-03 -0.673358D+00  0.321279D+00  0.117793D+00
     31 -0.181752D-02 -0.390143D-02 -0.637853D+00  0.226472D+00  0.100248D+01
               26            27            28            29            30 
     26  0.123400D+11
     27 -0.731743D+00  0.123400D+11
     28 -0.819185D+00 -0.857113D+00  0.123400D+11
     29  0.295318D+00  0.173065D+00  0.114047D+01  0.123400D+11
     30 -0.122517D-01 -0.350495D-02 -0.223386D-01  0.168600D+02  0.123400D+11
     31 -0.142890D-01 -0.985008D-02  0.303572D-01  0.174292D+02 -0.907309D+00
               31 
     31  0.123400D+11
 Fermi Contact (FC) contribution to J (Hz):
                1             2             3             4             5 
      1  0.243533D+11
      2  0.528318D+02  0.243533D+11
      3 -0.862420D+01  0.147424D+03  0.385007D+12
      4 -0.167457D+00  0.428567D+01 -0.300956D+00  0.243533D+11
      5 -0.103402D+00  0.160665D+01 -0.496235D-01  0.137807D+03  0.385007D+12
      6 -0.108540D-01 -0.170779D-01 -0.521767D-01  0.133786D+03 -0.240323D+02
      7  0.302784D-01 -0.197535D+00 -0.275108D-02  0.136252D+03 -0.237425D+02
      8  0.103146D+02 -0.285386D+01 -0.169950D+01 -0.536201D-01 -0.107476D-01
      9  0.931723D-01  0.111846D+02 -0.162829D+01 -0.502482D-01 -0.133669D-01
     10  0.156867D+00  0.168780D+01  0.610053D+01  0.144528D+00  0.322129D-01
     11  0.163780D+02  0.782594D+01  0.326470D+00 -0.891516D-02  0.330921D-02
     12  0.373458D+01  0.878020D+00 -0.691645D+00  0.858126D-02 -0.815695D-02
     13 -0.765838D+00  0.215689D+01 -0.243246D-01 -0.267490D-02 -0.651350D-02
     14  0.136950D+01 -0.668732D+00  0.562235D+00  0.575997D-02  0.130078D-01
     15  0.170264D+01 -0.614973D+00  0.366363D+00  0.138564D-02  0.119875D-01
     16  0.755245D+01 -0.197895D+00 -0.149086D-01  0.444086D-03  0.206852D-03
     17  0.244130D+00 -0.828548D+00  0.234290D+01  0.823796D-01  0.134404D-01
     18 -0.316638D+00  0.177806D+01 -0.647386D+00 -0.812191D-02 -0.415810D-02
     19 -0.124684D-01  0.860684D+00 -0.583049D-01  0.305768D-02  0.687850D-04
     20  0.450828D+00  0.177212D+00  0.482297D+00  0.898469D-03  0.901109D-03
     21  0.630347D+00  0.286797D+00  0.762178D+00  0.310493D-02 -0.162407D-02
     22 -0.507626D+00 -0.967707D+00 -0.100525D+01 -0.308621D-01 -0.299601D-01
     23  0.166976D+01 -0.959159D+00  0.854243D+01  0.337624D+02 -0.402475D+01
     24 -0.153221D+00  0.449630D+00 -0.639349D+00 -0.526520D+01  0.424284D+01
     25  0.203048D-01  0.110018D+01  0.174666D-01 -0.513870D+00  0.230032D+01
     26  0.184991D-01 -0.936505D-01  0.213754D+00  0.308974D+01 -0.116998D+00
     27  0.315788D+00  0.704165D-01  0.220982D+00  0.117408D+02  0.915306D-01
     28  0.836545D-01  0.857353D-01  0.237230D+00  0.325977D+01 -0.343371D+00
     29 -0.692768D+00  0.325861D+02 -0.700360D+01  0.696569D+00  0.111789D+02
     30  0.791331D+01 -0.768489D+01  0.300974D+01  0.574279D+01  0.448780D+00
     31  0.414284D+00 -0.295399D+01  0.682086D+01  0.660889D+00 -0.443312D+00
                6             7             8             9            10 
      6  0.385007D+12
      7 -0.235302D+02  0.385007D+12
      8 -0.484849D-01 -0.581862D-01  0.708114D+10
      9 -0.961397D-03  0.191439D-01 -0.840636D-01  0.201170D+10
     10  0.422438D-02  0.537227D-02 -0.119391D-01  0.718139D+02  0.385007D+12
     11  0.586783D-02  0.770212D-02 -0.197356D+01  0.187685D+00  0.352355D+00
     12 -0.102055D-02 -0.755224D-02 -0.204204D+01  0.106390D+00 -0.710839D-02
     13  0.131997D-03  0.342771D-02 -0.662582D+00  0.164376D+00  0.969969D-01
     14  0.185023D-02  0.165064D-01 -0.100350D+01 -0.214580D-01 -0.236140D-01
     15  0.358942D-03  0.900695D-02 -0.103298D+01 -0.115782D-01 -0.304631D-01
     16 -0.455299D-04  0.160783D-02 -0.742973D+00  0.509240D-01 -0.276154D-01
     17  0.118888D-01 -0.507680D-02 -0.579951D-01  0.149795D+02  0.310222D+01
     18 -0.102177D-03  0.133222D-02 -0.734961D-01  0.717251D+01  0.766144D+00
     19  0.102746D-02 -0.824846D-03  0.192766D-02  0.803164D+00 -0.319737D+00
     20  0.664810D-03 -0.536105D-03 -0.193369D-01  0.828984D+00 -0.142784D+00
     21 -0.311310D-03  0.167398D-03 -0.128998D-01  0.844698D+00 -0.560155D+00
     22 -0.394757D-03 -0.146348D-03  0.302001D+00 -0.172543D+01 -0.175526D+01
     23 -0.448844D+01 -0.566833D+01 -0.416139D-01 -0.215574D-01  0.645079D-02
     24  0.342620D+01  0.110152D+02 -0.195539D+00  0.752502D-01 -0.770704D-02
     25  0.103530D+02  0.369247D+01 -0.195298D+01  0.774067D+00 -0.816488D+00
     26 -0.100440D+00 -0.480562D+00  0.717237D-01  0.104987D+01 -0.166260D+01
     27  0.336513D+01  0.418756D-01  0.353409D+00  0.692368D+00 -0.440742D+00
     28  0.379120D+00 -0.171810D+00 -0.467308D-01  0.889928D+00 -0.923515D+00
     29  0.282451D+01  0.311652D+01 -0.326798D+00  0.317668D+00  0.346446D+01
     30  0.526567D-01 -0.626894D+00 -0.296025D+00  0.185354D+01 -0.688375D+00
     31 -0.280896D+00 -0.267712D+00  0.898294D-01  0.397279D+01 -0.708149D+00
               11            12            13            14            15 
     11  0.201170D+10
     12  0.705999D+02  0.385007D+12
     13  0.977238D+01  0.257442D+01  0.243533D+11
     14 -0.127374D+01  0.275703D+01  0.154895D+03  0.385007D+12
     15 -0.128439D+01  0.394091D+01  0.158688D+03 -0.229114D+02  0.385007D+12
     16 -0.908655D+00  0.912818D+01  0.142923D+03 -0.231010D+02 -0.236754D+02
     17 -0.391443D-01  0.173603D-02 -0.214751D-01  0.858470D-02  0.489298D-02
     18  0.106686D-01  0.781370D-02  0.248182D-01  0.701786D-02  0.533784D-02
     19  0.137284D-01  0.165303D-02  0.545084D-04 -0.136412D-02 -0.753741D-03
     20 -0.571936D-02 -0.460421D-02 -0.318225D-02  0.916491D-03 -0.876017D-03
     21  0.376738D-01 -0.290824D-02  0.185685D-01  0.274708D-02 -0.178241D-02
     22 -0.513059D-01  0.535308D-02 -0.116514D-01 -0.177639D-01 -0.947813D-02
     23 -0.444416D-01  0.158730D-01  0.107244D-01  0.616978D-02 -0.382675D-02
     24  0.158215D-01 -0.699213D-02  0.303457D-01  0.852116D-01  0.801639D-02
     25  0.597701D-01  0.134733D-01 -0.665539D-03  0.264430D-01 -0.888083D-02
     26  0.558544D-03 -0.278137D-03 -0.399794D-02  0.825863D-02  0.522024D-02
     27 -0.284930D-01 -0.179749D-01  0.298700D-02  0.384722D-03  0.924936D-02
     28  0.174585D-01 -0.569529D-02  0.840240D-03  0.674867D-03  0.195242D-02
     29  0.435557D-01 -0.292829D+00 -0.266805D+00  0.549046D+00  0.822837D+00
     30 -0.934920D-01 -0.213064D+00 -0.801925D-01  0.138175D+00  0.206896D+00
     31  0.169310D+00 -0.247215D+00  0.348706D-02  0.165939D-01  0.331975D-01
               16            17            18            19            20 
     16  0.385007D+12
     17 -0.589580D-03  0.243533D+11
     18  0.158236D-02  0.537876D+02  0.243533D+11
     19  0.306661D-03 -0.599696D+01  0.133747D+03  0.385007D+12
     20  0.322818D-02 -0.922216D+01  0.140844D+03 -0.224602D+02  0.385007D+12
     21  0.105915D-01 -0.953471D+01  0.141019D+03 -0.232547D+02 -0.287204D+02
     22 -0.745333D-02  0.101257D+02 -0.400669D+01 -0.352878D+01 -0.181010D+01
     23  0.278111D-02 -0.106454D+00  0.112074D-01  0.301291D-02 -0.108369D-01
     24  0.869475D-02 -0.865055D-02  0.167517D-02  0.846916D-02  0.773063D-02
     25  0.745120D-02  0.779409D-01 -0.178593D-01 -0.900131D-02  0.178782D-01
     26 -0.149506D-04  0.218619D+00  0.825200D-02  0.553810D-01  0.553524D-02
     27  0.127823D-02  0.223160D+00  0.240751D-02  0.220744D-01  0.204125D-01
     28  0.104933D-02  0.229987D+00 -0.128063D-01  0.727156D-02  0.170702D-01
     29  0.238139D-01  0.277549D+01 -0.712951D-01 -0.140405D-01  0.120557D+00
     30  0.157408D-01 -0.279581D-01  0.139958D+00 -0.178129D-02 -0.681506D-02
     31  0.925157D-02  0.757754D+00  0.483755D+00 -0.967714D-03  0.752698D-01
               21            22            23            24            25 
     21  0.385007D+12
     22 -0.187666D+01  0.708114D+10
     23 -0.985463D-03 -0.755395D-01  0.243533D+11
     24  0.384254D-02 -0.133618D-01  0.138263D+03  0.385007D+12
     25  0.945956D-02 -0.110028D+00  0.329258D+02 -0.467382D+01  0.243533D+11
     26 -0.541691D-02 -0.385295D-01 -0.512484D+01  0.115304D+02  0.125132D+03
     27  0.989928D-02 -0.227657D-01 -0.476921D+01  0.388666D+01  0.144600D+03
     28  0.111362D-01 -0.488865D-01 -0.523001D+01  0.382753D+01  0.134656D+03
     29 -0.436229D-01 -0.197893D+00  0.342282D+02 -0.543014D+01 -0.746856D+00
     30 -0.233236D-01  0.160287D-02 -0.528377D+01  0.100239D+02  0.924313D+00
     31 -0.567067D-01  0.165080D-01 -0.500517D+01  0.706593D+01  0.786636D+01
               26            27            28            29            30 
     26  0.385007D+12
     27 -0.228304D+02  0.385007D+12
     28 -0.255585D+02 -0.267419D+02  0.385007D+12
     29  0.231733D+01  0.135802D+01  0.894917D+01  0.243533D+11
     30 -0.382252D+00 -0.109354D+00 -0.696964D+00  0.132299D+03  0.385007D+12
     31 -0.445816D+00 -0.307322D+00  0.947144D+00  0.136765D+03 -0.283080D+02
               31 
     31  0.385007D+12
 End of Minotr F.D. properties file   721 does not exist.
 End of Minotr F.D. properties file   722 does not exist.
 End of Minotr F.D. properties file   788 does not exist.
 Leave Link 1002 at Tue Jun 17 22:33:29 2014, MaxMem=  4294967296 cpu:    379337.1
 (Enter /home/ztw1e12/g09/l601.exe)
 Copying SCF densities to generalized density rwf, IOpCl= 0 IROHF=0.

 **********************************************************************

            Population analysis using the SCF density.

 **********************************************************************

 Orbital symmetries:
       Occupied  (A) (A) (A) (A) (A) (A) (A) (A) (A) (A) (A) (A)
                 (A) (A) (A) (A) (A) (A) (A) (A) (A) (A) (A) (A)
                 (A) (A) (A) (A) (A) (A) (A) (A) (A) (A) (A) (A)
                 (A) (A) (A) (A) (A) (A) (A) (A) (A) (A) (A) (A)
                 (A) (A) (A)
       Virtual   (A) (A) (A) (A) (A) (A) (A) (A) (A) (A) (A) (A)
                 (A) (A) (A) (A) (A) (A) (A) (A) (A) (A) (A) (A)
                 (A) (A) (A) (A) (A) (A) (A) (A) (A) (A) (A) (A)
                 (A) (A) (A) (A) (A) (A) (A) (A) (A) (A) (A) (A)
                 (A) (A) (A) (A) (A) (A) (A) (A) (A) (A) (A) (A)
                 (A) (A) (A) (A) (A) (A) (A) (A) (A) (A) (A) (A)
                 (A) (A) (A) (A) (A) (A) (A) (A) (A) (A) (A) (A)
                 (A) (A) (A) (A) (A) (A) (A) (A) (A) (A) (A) (A)
                 (A) (A) (A) (A) (A) (A) (A) (A) (A) (A) (A) (A)
                 (A) (A) (A) (A) (A) (A) (A) (A) (A) (A) (A) (A)
                 (A) (A) (A) (A) (A) (A) (A) (A) (A) (A) (A) (A)
                 (A) (A) (A) (A) (A) (A) (A) (A) (A) (A) (A) (A)
                 (A) (A) (A) (A) (A) (A) (A) (A) (A) (A) (A) (A)
                 (A) (A) (A) (A) (A) (A) (A) (A) (A) (A) (A) (A)
                 (A) (A) (A) (A) (A) (A) (A) (A) (A) (A) (A) (A)
                 (A) (A) (A) (A) (A) (A) (A) (A) (A) (A) (A) (A)
                 (A) (A) (A) (A) (A) (A) (A) (A) (A) (A) (A) (A)
                 (A) (A) (A) (A) (A) (A) (A) (A) (A) (A) (A) (A)
                 (A) (A) (A) (A) (A) (A) (A) (A) (A) (A) (A) (A)
                 (A) (A) (A) (A) (A) (A) (A) (A) (A) (A) (A) (A)
                 (A) (A) (A) (A) (A) (A) (A) (A) (A) (A) (A) (A)
                 (A) (A) (A) (A) (A) (A) (A) (A) (A) (A) (A) (A)
                 (A) (A) (A) (A) (A) (A) (A) (A) (A) (A) (A) (A)
                 (A) (A) (A) (A) (A) (A) (A) (A) (A) (A) (A) (A)
                 (A) (A) (A) (A) (A) (A) (A) (A) (A) (A) (A) (A)
                 (A) (A) (A) (A) (A) (A) (A) (A) (A) (A) (A) (A)
                 (A) (A) (A) (A) (A) (A) (A) (A) (A) (A) (A) (A)
                 (A) (A) (A) (A) (A) (A) (A) (A) (A) (A) (A) (A)
                 (A) (A) (A) (A) (A) (A) (A) (A) (A) (A) (A) (A)
                 (A) (A) (A) (A) (A) (A) (A) (A) (A) (A) (A) (A)
                 (A) (A) (A) (A) (A) (A) (A) (A) (A) (A) (A) (A)
                 (A) (A) (A) (A) (A) (A) (A) (A) (A) (A) (A) (A)
                 (A) (A) (A) (A) (A) (A) (A) (A) (A) (A) (A) (A)
                 (A) (A) (A) (A) (A) (A) (A) (A) (A) (A) (A) (A)
                 (A) (A) (A) (A) (A) (A) (A) (A) (A) (A) (A) (A)
                 (A) (A) (A) (A) (A) (A) (A) (A) (A) (A) (A) (A)
                 (A) (A) (A) (A) (A) (A) (A) (A) (A) (A) (A) (A)
                 (A) (A) (A) (A) (A) (A) (A) (A) (A) (A) (A) (A)
                 (A) (A) (A) (A) (A) (A) (A) (A) (A) (A) (A) (A)
                 (A) (A) (A) (A) (A) (A) (A) (A) (A) (A) (A) (A)
                 (A) (A) (A) (A) (A) (A) (A) (A) (A) (A) (A) (A)
                 (A) (A) (A) (A) (A) (A) (A) (A) (A) (A) (A) (A)
                 (A) (A) (A) (A) (A) (A) (A) (A) (A) (A) (A) (A)
                 (A) (A) (A) (A) (A) (A) (A) (A) (A) (A) (A) (A)
                 (A) (A) (A) (A) (A) (A) (A) (A) (A) (A) (A) (A)
                 (A) (A) (A) (A) (A) (A) (A) (A) (A) (A) (A) (A)
                 (A) (A) (A) (A) (A) (A) (A) (A) (A) (A) (A) (A)
                 (A) (A) (A) (A) (A) (A) (A) (A) (A) (A) (A) (A)
                 (A) (A) (A) (A) (A) (A) (A) (A) (A) (A) (A) (A)
                 (A) (A) (A) (A) (A) (A) (A) (A) (A) (A) (A) (A)
                 (A) (A) (A) (A) (A) (A) (A) (A) (A) (A) (A) (A)
                 (A) (A) (A) (A) (A) (A) (A) (A) (A) (A) (A) (A)
                 (A) (A) (A) (A) (A) (A) (A) (A) (A) (A) (A) (A)
                 (A) (A) (A) (A) (A) (A) (A) (A) (A) (A) (A) (A)
                 (A) (A) (A) (A) (A) (A) (A) (A) (A) (A) (A) (A)
                 (A) (A) (A) (A) (A) (A) (A) (A) (A) (A) (A) (A)
                 (A) (A) (A) (A) (A) (A) (A) (A) (A) (A) (A) (A)
                 (A) (A) (A) (A) (A) (A) (A) (A) (A) (A) (A) (A)
                 (A) (A) (A) (A) (A) (A) (A) (A) (A) (A) (A) (A)
                 (A) (A) (A) (A) (A) (A) (A) (A) (A) (A) (A) (A)
                 (A) (A) (A) (A) (A) (A) (A) (A) (A) (A) (A) (A)
                 (A) (A) (A) (A) (A) (A) (A) (A) (A) (A) (A) (A)
                 (A) (A) (A) (A) (A) (A) (A) (A) (A) (A) (A) (A)
                 (A) (A) (A) (A) (A) (A) (A) (A) (A) (A) (A) (A)
                 (A) (A) (A) (A) (A) (A) (A) (A) (A) (A) (A) (A)
                 (A) (A) (A) (A) (A) (A) (A) (A) (A) (A) (A) (A)
                 (A) (A) (A) (A) (A) (A) (A) (A) (A) (A) (A) (A)
                 (A) (A) (A) (A) (A) (A) (A) (A) (A) (A) (A) (A)
                 (A) (A) (A) (A) (A) (A) (A) (A) (A) (A) (A) (A)
                 (A) (A) (A) (A) (A) (A) (A) (A) (A) (A) (A) (A)
                 (A) (A) (A) (A) (A) (A) (A) (A) (A) (A) (A) (A)
                 (A) (A) (A) (A) (A) (A) (A) (A) (A) (A) (A) (A)
                 (A) (A) (A) (A) (A) (A) (A) (A) (A) (A) (A) (A)
                 (A) (A) (A) (A) (A)
 The electronic state is 1-A.
 Alpha  occ. eigenvalues --  -19.17255 -19.16337 -14.41868 -14.41284 -10.33475
 Alpha  occ. eigenvalues --  -10.33235 -10.29171 -10.27147 -10.25720 -10.25402
 Alpha  occ. eigenvalues --  -10.23690 -10.23500 -10.22990  -1.05407  -1.04036
 Alpha  occ. eigenvalues --   -0.94355  -0.94130  -0.83913  -0.78616  -0.74316
 Alpha  occ. eigenvalues --   -0.72019  -0.70159  -0.66157  -0.60973  -0.59623
 Alpha  occ. eigenvalues --   -0.58257  -0.54733  -0.50691  -0.49578  -0.48750
 Alpha  occ. eigenvalues --   -0.46950  -0.46495  -0.45308  -0.44952  -0.44211
 Alpha  occ. eigenvalues --   -0.42524  -0.41494  -0.40754  -0.40435  -0.40036
 Alpha  occ. eigenvalues --   -0.39852  -0.39200  -0.37733  -0.36530  -0.35001
 Alpha  occ. eigenvalues --   -0.34693  -0.33797  -0.28268  -0.27548  -0.26146
 Alpha  occ. eigenvalues --   -0.25895
 Alpha virt. eigenvalues --    0.00973   0.02677   0.02817   0.03798   0.04475
 Alpha virt. eigenvalues --    0.04884   0.06409   0.07249   0.07556   0.08629
 Alpha virt. eigenvalues --    0.09479   0.10807   0.11056   0.11884   0.11987
 Alpha virt. eigenvalues --    0.12766   0.12865   0.13289   0.14706   0.15250
 Alpha virt. eigenvalues --    0.16394   0.16525   0.18467   0.18532   0.19527
 Alpha virt. eigenvalues --    0.20678   0.22357   0.22914   0.24069   0.25045
 Alpha virt. eigenvalues --    0.25244   0.26236   0.26344   0.27203   0.28262
 Alpha virt. eigenvalues --    0.28691   0.28996   0.30436   0.31129   0.31968
 Alpha virt. eigenvalues --    0.32886   0.34768   0.34927   0.35366   0.36165
 Alpha virt. eigenvalues --    0.36834   0.37326   0.37672   0.39064   0.39321
 Alpha virt. eigenvalues --    0.39363   0.40109   0.40441   0.40777   0.41412
 Alpha virt. eigenvalues --    0.41712   0.41751   0.41949   0.42656   0.43168
 Alpha virt. eigenvalues --    0.43611   0.44139   0.44538   0.44780   0.45287
 Alpha virt. eigenvalues --    0.45828   0.46243   0.47247   0.47626   0.47908
 Alpha virt. eigenvalues --    0.49407   0.50886   0.51343   0.52534   0.52802
 Alpha virt. eigenvalues --    0.53369   0.53994   0.55135   0.55961   0.57133
 Alpha virt. eigenvalues --    0.57837   0.58904   0.60049   0.61020   0.61324
 Alpha virt. eigenvalues --    0.62403   0.63251   0.65090   0.66769   0.67514
 Alpha virt. eigenvalues --    0.68175   0.70519   0.71601   0.73221   0.74660
 Alpha virt. eigenvalues --    0.75492   0.75728   0.77224   0.77822   0.78558
 Alpha virt. eigenvalues --    0.79372   0.80098   0.80591   0.82679   0.83845
 Alpha virt. eigenvalues --    0.84038   0.85187   0.85961   0.87054   0.87533
 Alpha virt. eigenvalues --    0.88150   0.88594   0.89321   0.90251   0.90801
 Alpha virt. eigenvalues --    0.92261   0.92643   0.93063   0.94534   0.95091
 Alpha virt. eigenvalues --    0.95367   0.95737   0.96394   0.97683   0.97960
 Alpha virt. eigenvalues --    0.99705   1.00135   1.00947   1.01633   1.02423
 Alpha virt. eigenvalues --    1.03252   1.04389   1.04479   1.05391   1.06100
 Alpha virt. eigenvalues --    1.06461   1.07952   1.08624   1.09497   1.10549
 Alpha virt. eigenvalues --    1.11286   1.11998   1.12220   1.13027   1.14432
 Alpha virt. eigenvalues --    1.14568   1.16163   1.17294   1.17732   1.18288
 Alpha virt. eigenvalues --    1.19191   1.19826   1.20188   1.20741   1.21491
 Alpha virt. eigenvalues --    1.21758   1.21908   1.22433   1.23617   1.23687
 Alpha virt. eigenvalues --    1.24364   1.25064   1.25469   1.26164   1.26328
 Alpha virt. eigenvalues --    1.27433   1.27770   1.28565   1.29012   1.29268
 Alpha virt. eigenvalues --    1.30174   1.30624   1.30883   1.32161   1.33068
 Alpha virt. eigenvalues --    1.33436   1.34236   1.35092   1.36253   1.37054
 Alpha virt. eigenvalues --    1.37519   1.38234   1.38626   1.41064   1.42673
 Alpha virt. eigenvalues --    1.44309   1.44587   1.45601   1.47058   1.48787
 Alpha virt. eigenvalues --    1.50150   1.51216   1.51804   1.54214   1.55493
 Alpha virt. eigenvalues --    1.56583   1.57836   1.60721   1.62455   1.63460
 Alpha virt. eigenvalues --    1.63819   1.65954   1.68714   1.70227   1.72409
 Alpha virt. eigenvalues --    1.73881   1.74620   1.77267   1.79235   1.82121
 Alpha virt. eigenvalues --    1.85365   1.87052   1.90315   1.90771   1.91290
 Alpha virt. eigenvalues --    1.93660   1.96705   1.97409   1.98547   1.99680
 Alpha virt. eigenvalues --    2.02349   2.03527   2.04030   2.06073   2.07464
 Alpha virt. eigenvalues --    2.07895   2.09756   2.12437   2.14088   2.15859
 Alpha virt. eigenvalues --    2.17106   2.19191   2.19724   2.20500   2.21647
 Alpha virt. eigenvalues --    2.24242   2.26006   2.26602   2.29369   2.30375
 Alpha virt. eigenvalues --    2.31649   2.33921   2.35550   2.37416   2.40258
 Alpha virt. eigenvalues --    2.40275   2.41553   2.42737   2.43089   2.44397
 Alpha virt. eigenvalues --    2.44868   2.46885   2.46906   2.48424   2.49160
 Alpha virt. eigenvalues --    2.50288   2.51721   2.53412   2.54702   2.55772
 Alpha virt. eigenvalues --    2.56491   2.57398   2.58054   2.60721   2.60837
 Alpha virt. eigenvalues --    2.64833   2.65748   2.67659   2.68654   2.69593
 Alpha virt. eigenvalues --    2.70320   2.70823   2.71453   2.72061   2.72619
 Alpha virt. eigenvalues --    2.73490   2.74258   2.75200   2.77464   2.77941
 Alpha virt. eigenvalues --    2.78647   2.79843   2.81710   2.82161   2.83417
 Alpha virt. eigenvalues --    2.84549   2.84649   2.85680   2.86648   2.87449
 Alpha virt. eigenvalues --    2.87969   2.88723   2.90214   2.90757   2.91612
 Alpha virt. eigenvalues --    2.92014   2.92361   2.93278   2.94518   2.94596
 Alpha virt. eigenvalues --    2.95822   2.96711   2.97439   2.98448   2.99316
 Alpha virt. eigenvalues --    3.00527   3.00752   3.01133   3.01963   3.02963
 Alpha virt. eigenvalues --    3.03553   3.04075   3.04828   3.05572   3.06791
 Alpha virt. eigenvalues --    3.07586   3.07960   3.08949   3.09390   3.10268
 Alpha virt. eigenvalues --    3.11241   3.12573   3.13245   3.14148   3.14812
 Alpha virt. eigenvalues --    3.16247   3.17737   3.18423   3.19082   3.20094
 Alpha virt. eigenvalues --    3.20436   3.21881   3.22733   3.23086   3.23832
 Alpha virt. eigenvalues --    3.24357   3.26917   3.27145   3.27839   3.28359
 Alpha virt. eigenvalues --    3.28477   3.29695   3.30228   3.30910   3.31787
 Alpha virt. eigenvalues --    3.31984   3.32906   3.33817   3.35569   3.36275
 Alpha virt. eigenvalues --    3.37070   3.37363   3.38660   3.38855   3.39771
 Alpha virt. eigenvalues --    3.40230   3.40934   3.41858   3.42501   3.43837
 Alpha virt. eigenvalues --    3.44783   3.45136   3.45671   3.46890   3.47985
 Alpha virt. eigenvalues --    3.48690   3.49335   3.50316   3.50991   3.52529
 Alpha virt. eigenvalues --    3.54484   3.55361   3.56779   3.59445   3.59596
 Alpha virt. eigenvalues --    3.60356   3.62951   3.63705   3.64443   3.65112
 Alpha virt. eigenvalues --    3.67087   3.67934   3.69720   3.70529   3.70788
 Alpha virt. eigenvalues --    3.72298   3.72629   3.73434   3.74604   3.75045
 Alpha virt. eigenvalues --    3.76218   3.77506   3.78585   3.79495   3.79761
 Alpha virt. eigenvalues --    3.81635   3.82770   3.83543   3.84427   3.84567
 Alpha virt. eigenvalues --    3.85585   3.86552   3.87069   3.88306   3.89487
 Alpha virt. eigenvalues --    3.90918   3.91686   3.93325   3.93469   3.94389
 Alpha virt. eigenvalues --    3.96149   3.96449   3.97178   3.98629   3.99642
 Alpha virt. eigenvalues --    4.00408   4.02241   4.03256   4.04780   4.05898
 Alpha virt. eigenvalues --    4.06562   4.07160   4.07676   4.08850   4.09743
 Alpha virt. eigenvalues --    4.11668   4.12216   4.12694   4.13106   4.15205
 Alpha virt. eigenvalues --    4.16409   4.16619   4.17434   4.18898   4.19596
 Alpha virt. eigenvalues --    4.20826   4.21585   4.21761   4.23735   4.25243
 Alpha virt. eigenvalues --    4.25967   4.26582   4.27261   4.28822   4.29874
 Alpha virt. eigenvalues --    4.30201   4.31212   4.31835   4.34210   4.35555
 Alpha virt. eigenvalues --    4.36691   4.38403   4.38961   4.41252   4.42480
 Alpha virt. eigenvalues --    4.43526   4.45475   4.46046   4.46801   4.48766
 Alpha virt. eigenvalues --    4.50409   4.51842   4.53348   4.54795   4.56458
 Alpha virt. eigenvalues --    4.57297   4.59143   4.60138   4.60466   4.61076
 Alpha virt. eigenvalues --    4.61533   4.62940   4.63795   4.65379   4.66281
 Alpha virt. eigenvalues --    4.66570   4.67928   4.70559   4.70910   4.71709
 Alpha virt. eigenvalues --    4.72507   4.73458   4.75437   4.75921   4.78658
 Alpha virt. eigenvalues --    4.79178   4.79336   4.80178   4.81537   4.82921
 Alpha virt. eigenvalues --    4.83199   4.85476   4.88321   4.89735   4.90687
 Alpha virt. eigenvalues --    4.91085   4.93429   4.94282   4.95832   4.96967
 Alpha virt. eigenvalues --    4.97761   4.99031   5.00139   5.01295   5.02380
 Alpha virt. eigenvalues --    5.03035   5.04980   5.06466   5.08299   5.10675
 Alpha virt. eigenvalues --    5.10722   5.12810   5.13469   5.14039   5.15602
 Alpha virt. eigenvalues --    5.16506   5.17312   5.18599   5.19530   5.20698
 Alpha virt. eigenvalues --    5.22006   5.22594   5.23201   5.24073   5.24519
 Alpha virt. eigenvalues --    5.25707   5.27290   5.29332   5.29700   5.31082
 Alpha virt. eigenvalues --    5.31810   5.36199   5.36690   5.39354   5.40611
 Alpha virt. eigenvalues --    5.41725   5.44079   5.44705   5.48398   5.49560
 Alpha virt. eigenvalues --    5.53075   5.54210   5.56607   5.58074   5.58906
 Alpha virt. eigenvalues --    5.60343   5.61796   5.62396   5.64522   5.65246
 Alpha virt. eigenvalues --    5.67060   5.68486   5.69141   5.71309   5.72288
 Alpha virt. eigenvalues --    5.74686   5.75469   5.76330   5.77181   5.79045
 Alpha virt. eigenvalues --    5.80897   5.81693   5.84068   5.86079   5.88539
 Alpha virt. eigenvalues --    5.90315   5.95918   5.98595   6.03444   6.06188
 Alpha virt. eigenvalues --    6.11964   6.18956   6.21130   6.23297   6.27511
 Alpha virt. eigenvalues --    6.52453   6.54373   6.58076   6.61604   6.64321
 Alpha virt. eigenvalues --    6.66294   6.77619   6.82285   6.90451   6.92138
 Alpha virt. eigenvalues --    6.93581   6.94062   7.18537   7.20121   7.24359
 Alpha virt. eigenvalues --    7.28186   8.13510   8.27513   8.66223   8.73415
 Alpha virt. eigenvalues --    8.78611   8.79015   8.82333   8.82859   8.83863
 Alpha virt. eigenvalues --    8.86233   8.87440   8.88872   8.91675   8.92683
 Alpha virt. eigenvalues --    8.94275   8.95295   8.96776   8.98436   9.01037
 Alpha virt. eigenvalues --    9.05901   9.07592   9.12075   9.14703   9.16228
 Alpha virt. eigenvalues --    9.23562   9.59841   9.62029   9.77463   9.83508
 Alpha virt. eigenvalues --    9.90316   9.95709  10.10274  10.11816  10.15160
 Alpha virt. eigenvalues --   10.18021  10.19604  10.20426  10.21786  10.25621
 Alpha virt. eigenvalues --   10.26471  10.30465  10.31754  10.32692  10.34983
 Alpha virt. eigenvalues --   10.38951  11.74839  11.83039  12.04358  12.14163
 Alpha virt. eigenvalues --   12.15105  12.20724  12.24528  12.25251  12.29688
 Alpha virt. eigenvalues --   12.39523  12.48244  12.55873  12.59712  12.83962
 Alpha virt. eigenvalues --   12.92830  14.97177  15.02232  15.24250  15.27355
 Alpha virt. eigenvalues --   15.99710  16.04887  16.83986  16.90971  22.01271
 Alpha virt. eigenvalues --   22.10121  40.17388  40.25647  40.66577  40.68080
 Alpha virt. eigenvalues --   40.68729  40.72491  40.73634  40.74712  40.77174
 Alpha virt. eigenvalues --   40.77899  40.79890  40.81425  40.82272  40.82495
 Alpha virt. eigenvalues --   40.83480  40.84234  40.84537  40.85629  40.86294
 Alpha virt. eigenvalues --   40.87565  40.88865  40.90031  40.90526  40.90606
 Alpha virt. eigenvalues --   40.90927  40.92202  40.93662  46.34512  46.44683
 Alpha virt. eigenvalues --   46.47993  46.52921  46.56693  46.57392  46.61776
 Alpha virt. eigenvalues --   46.72168  46.81091  54.45352  54.46828  55.78033
 Alpha virt. eigenvalues --   55.84058  55.93621  55.98042  56.04346  56.05527
 Alpha virt. eigenvalues --   56.17654  56.21204  56.24701  56.31664  56.37351
 Alpha virt. eigenvalues --   56.41235  56.47665  56.55055  56.59648  56.72409
 Alpha virt. eigenvalues --   57.46079  57.51265  57.99329  58.03032  58.19630
 Alpha virt. eigenvalues --   58.25656  64.71258  64.77521  73.94311  73.97160
 Alpha virt. eigenvalues --   74.09969  74.11340  74.63903  74.66611  86.07073
 Alpha virt. eigenvalues --   86.14981 165.43778 165.52725 165.56909 165.60881
 Alpha virt. eigenvalues --  165.64583 165.65277 165.68661 165.77567 165.85892
 Alpha virt. eigenvalues --  226.52977 226.54981 230.58420 230.64180 235.56550
 Alpha virt. eigenvalues --  235.81607 235.98590 236.10249 236.34783 236.43432
 Alpha virt. eigenvalues --  236.75099 237.16028 237.48483 237.66404 237.83244
 Alpha virt. eigenvalues --  237.90748 238.02354 238.23958 238.42444 239.18529
 Alpha virt. eigenvalues --  308.80667 308.87690 624.55100 624.60724 624.63332
 Alpha virt. eigenvalues --  624.68791 624.70426 624.70577 624.74046 624.81418
 Alpha virt. eigenvalues --  624.88025 793.86560 794.47991 825.98883 826.02588
 Alpha virt. eigenvalues --  827.12820 827.36191 827.60229 827.66872 828.93226
 Alpha virt. eigenvalues --  830.41662 831.27118 831.61579 832.25373 832.55390
 Alpha virt. eigenvalues --  832.63665 833.52613 833.64099 835.95343 868.34125
 Alpha virt. eigenvalues --  868.402281165.933551165.997952484.110632485.15961
 Alpha virt. eigenvalues -- 2588.505282589.554462590.771542593.170292596.54182
 Alpha virt. eigenvalues -- 2596.750052596.947822602.093242605.194332606.68678
 Alpha virt. eigenvalues -- 2607.020422608.436042609.602692609.727932612.49264
 Alpha virt. eigenvalues -- 2619.641162740.323442740.339552740.375342740.42091
 Alpha virt. eigenvalues -- 2740.441782740.490162740.517822740.550972740.57923
 Alpha virt. eigenvalues -- 3787.315763787.380255073.314615073.372118285.00367
 Alpha virt. eigenvalues -- 8295.409818619.270178628.128508634.752558637.36139
 Alpha virt. eigenvalues -- 8637.884798641.653908647.746118661.812688669.46289
 Alpha virt. eigenvalues -- 8671.645328677.508818679.217948680.184698687.16411
 Alpha virt. eigenvalues -- 8687.392698707.12235******************************
 Alpha virt. eigenvalues -- **************************************************
 Alpha virt. eigenvalues -- **************************************************
 Alpha virt. eigenvalues -- **************************************************
 Alpha virt. eigenvalues -- **************************************************
 Alpha virt. eigenvalues -- **************************************************
 Alpha virt. eigenvalues -- **************************************************
 Alpha virt. eigenvalues -- **************************************************
 Alpha virt. eigenvalues -- **********
          Condensed to atoms (all electrons):
               1          2          3          4          5          6
     1  C    4.565885   0.172024  -0.042415  -0.000664   0.000024   0.000011
     2  C    0.172024   5.341184   0.384773   0.008323  -0.000462   0.000422
     3  H   -0.042415   0.384773   0.484966  -0.000256   0.000023  -0.000001
     4  C   -0.000664   0.008323  -0.000256   4.957551   0.403620   0.402221
     5  H    0.000024  -0.000462   0.000023   0.403620   0.541658  -0.011158
     6  H    0.000011   0.000422  -0.000001   0.402221  -0.011158   0.549317
     7  H    0.000020  -0.000604  -0.000002   0.409199  -0.021550  -0.023133
     8  O    0.687506  -0.096774   0.004824   0.000017   0.000003   0.000003
     9  N   -0.062527   0.313459  -0.028852  -0.000132   0.000002  -0.000006
    10  H    0.003335  -0.043509   0.002607  -0.000534   0.000041   0.000014
    11  N    0.386135  -0.112000   0.001812  -0.000061   0.000002  -0.000055
    12  H   -0.026428   0.010347  -0.000213   0.000022  -0.000001  -0.000003
    13  C   -0.051447   0.010835  -0.001225  -0.000007   0.000000   0.000000
    14  H   -0.000321   0.001839   0.000099   0.000003  -0.000001   0.000004
    15  H   -0.007683  -0.001136  -0.000263   0.000000   0.000000   0.000000
    16  H    0.006667   0.000597  -0.000167   0.000000   0.000000   0.000000
    17  C   -0.006565  -0.056417   0.003699   0.000029  -0.000002   0.000001
    18  C   -0.005625   0.016861   0.002290   0.000008   0.000000   0.000000
    19  H    0.000507  -0.000296  -0.000339  -0.000004   0.000000   0.000000
    20  H   -0.000108  -0.000664   0.000169   0.000000   0.000000   0.000000
    21  H    0.000768  -0.000550  -0.000177   0.000000   0.000000   0.000000
    22  O   -0.005524   0.020290   0.018067   0.000001   0.000000   0.000000
[...]
 Alpha virt. eigenvalues --    4.37752   4.39045   4.40411   4.41664   4.42432
 Alpha virt. eigenvalues --    4.44283   4.45682   4.49080   4.51867   4.52988
 Alpha virt. eigenvalues --    4.54052   4.54580   4.56051   4.58283   4.59607
 Alpha virt. eigenvalues --    4.61930   4.63274   4.64408   4.66188   4.67934
 Alpha virt. eigenvalues --    4.69139   4.69745   4.70936   4.71599   4.72712
 Alpha virt. eigenvalues --    4.73147   4.74062   4.77373   4.77896   4.79604
 Alpha virt. eigenvalues --    4.80573   4.81064   4.81661   4.82985   4.84657
 Alpha virt. eigenvalues --    4.85695   4.86260   4.87318   4.89391   4.89838
 Alpha virt. eigenvalues --    4.90689   4.92919   4.93763   4.95060   4.96123
 Alpha virt. eigenvalues --    4.96917   4.98786   4.99920   5.00615   5.01591
 Alpha virt. eigenvalues --    5.03023   5.04031   5.04650   5.05701   5.07578
 Alpha virt. eigenvalues --    5.08021   5.09539   5.11260   5.11638   5.12572
 Alpha virt. eigenvalues --    5.13781   5.14697   5.15843   5.17932   5.18933
 Alpha virt. eigenvalues --    5.19339   5.20212   5.21049   5.22210   5.22723
 Alpha virt. eigenvalues --    5.23706   5.24672   5.26962   5.27328   5.28430
 Alpha virt. eigenvalues --    5.28840   5.29897   5.31173   5.32528   5.33613
 Alpha virt. eigenvalues --    5.34837   5.35186   5.36928   5.38752   5.39617
 Alpha virt. eigenvalues --    5.42166   5.46582   5.50917   5.51867   5.56257
 Alpha virt. eigenvalues --    5.58568   5.60177   5.62567   5.64391   5.71930
 Alpha virt. eigenvalues --    5.72868   5.74693   5.76004   5.78526   5.78968
 Alpha virt. eigenvalues --    5.80090   5.80871   5.81822   5.83363   5.86764
 Alpha virt. eigenvalues --    5.87754   5.89086   5.91810   5.96862   5.97904
 Alpha virt. eigenvalues --    5.99860   6.00790   6.04485   6.06626   6.07996
 Alpha virt. eigenvalues --    6.22148   6.27313   6.36287   6.40996   6.50280
 Alpha virt. eigenvalues --    6.52612   6.54340   6.58540   6.66241   6.68787
 Alpha virt. eigenvalues --    6.88442   6.89670   6.92415   6.95463   7.09750
 Alpha virt. eigenvalues --    7.13439   7.17621   7.18059   9.44790   9.99079
 Alpha virt. eigenvalues --   11.58075  12.15365  12.39415  12.66939  13.02907
 Alpha virt. eigenvalues --   13.43717  13.53436  13.61505  13.67193  13.76780
 Alpha virt. eigenvalues --   13.98474
          Condensed to atoms (all electrons):
               1          2          3          4          5          6
     1  C    4.745228   0.145189  -0.053258  -0.000622   0.000025  -0.000001
     2  C    0.145189   5.426571   0.428830   0.007822  -0.000436   0.000611
     3  H   -0.053258   0.428830   0.451513  -0.000069   0.000018  -0.000010
     4  C   -0.000622   0.007822  -0.000069   5.104591   0.406589   0.401810
     5  H    0.000025  -0.000436   0.000018   0.406589   0.533427  -0.016948
     6  H   -0.000001   0.000611  -0.000010   0.401810  -0.016948   0.544538
     7  H   -0.000014  -0.000710  -0.000008   0.407223  -0.027992  -0.029412
     8  O    0.680090  -0.088125   0.002920   0.000060   0.000003   0.000004
     9  N   -0.064968   0.269806  -0.035155  -0.000150   0.000004  -0.000008
    10  H    0.004524  -0.039263   0.001143  -0.000699   0.000038   0.000012
    11  N    0.375630  -0.085960  -0.001270  -0.000034   0.000004  -0.000052
    12  H   -0.023524   0.007303  -0.001171   0.000012   0.000000  -0.000001
    13  C   -0.067242   0.010119  -0.001038  -0.000012   0.000000   0.000000
    14  H   -0.000614   0.001608   0.000103   0.000003  -0.000001   0.000004
    15  H   -0.007561  -0.001062  -0.000267   0.000000   0.000000   0.000000
    16  H    0.007150   0.000581  -0.000121  -0.000001   0.000000   0.000000
    17  C   -0.007117  -0.067636   0.002832   0.000036  -0.000002   0.000000
    18  C   -0.004182   0.013153   0.002075   0.000007   0.000000   0.000000
    19  H    0.000330   0.000558  -0.000321  -0.000003   0.000000   0.000000
    20  H   -0.000153  -0.000573   0.000160   0.000000   0.000000   0.000000
    21  H    0.000732  -0.000581  -0.000160   0.000000   0.000000   0.000000
    22  O   -0.001970   0.017476   0.017414   0.000001   0.000000   0.000000
    23  C   -0.007314  -0.014934   0.006063   0.300398  -0.037083  -0.037445
    24  H    0.007207  -0.009951  -0.000718  -0.029850  -0.005182  -0.005378
    25  C   -0.005404   0.006022  -0.000055  -0.080898  -0.005498   0.008787
    26  H    0.001983  -0.007789  -0.000259  -0.009422  -0.000520  -0.000002
    27  H   -0.008540   0.002708   0.000811   0.006602  -0.000052  -0.000282
    28  H   -0.000361  -0.000625   0.000088  -0.006433   0.004647  -0.000160
    29  C   -0.037937   0.226178  -0.031588  -0.073048   0.009805  -0.001085
    30  H    0.011746  -0.044936  -0.008876  -0.004994   0.000334  -0.002323
    31  H    0.000792  -0.033800  -0.008810  -0.004472  -0.000295   0.003064
               7          8          9         10         11         12
     1  C   -0.000014   0.680090  -0.064968   0.004524   0.375630  -0.023524
     2  C   -0.000710  -0.088125   0.269806  -0.039263  -0.085960   0.007303
     3  H   -0.000008   0.002920  -0.035155   0.001143  -0.001270  -0.001171
     4  C    0.407223   0.000060  -0.000150  -0.000699  -0.000034   0.000012
     5  H   -0.027992   0.000003   0.000004   0.000038   0.000004   0.000000
     6  H   -0.029412   0.000004  -0.000008   0.000012  -0.000052  -0.000001
     7  H    0.550311   0.000001   0.000021  -0.000204  -0.000009   0.000000
     8  O    0.000001   7.862100   0.004850  -0.001598  -0.111993   0.005000
     9  N    0.000021   0.004850   6.536707   0.395526   0.005064   0.000631
    10  H   -0.000204  -0.001598   0.395526   0.479603  -0.000292  -0.000011
    11  N   -0.000009  -0.111993   0.005064  -0.000292   6.385329   0.384091
    12  H    0.000000   0.005000   0.000631  -0.000011   0.384091   0.535973
    13  C    0.000000   0.006862  -0.000309   0.000032   0.301300  -0.031985
    14  H    0.000001   0.004690  -0.000025  -0.000006  -0.052959   0.003235
    15  H    0.000000   0.005192  -0.000041   0.000008  -0.043638   0.002347
    16  H    0.000000   0.001366   0.000008   0.000000  -0.026961  -0.008175
    17  C    0.000000   0.015139   0.331005  -0.020607  -0.000167  -0.000115
    18  C   -0.000001  -0.000237  -0.065354  -0.002989  -0.000087   0.000000
    19  H    0.000002   0.000007   0.012599  -0.000849   0.000011   0.000001
    20  H    0.000000   0.000032  -0.000071  -0.000052   0.000003   0.000001
    21  H    0.000000   0.000259  -0.001243   0.000360   0.000001  -0.000002
    22  O    0.000000  -0.003224  -0.137118   0.004160  -0.003213  -0.000211
    23  C   -0.041283   0.005905  -0.000535  -0.001579  -0.006021   0.000012
    24  H    0.006718  -0.002467   0.000087   0.000138   0.003327  -0.000011
    25  C   -0.007668  -0.012264  -0.006518   0.002384  -0.000852   0.000124
    26  H    0.004413  -0.000123  -0.002930   0.001525  -0.000103  -0.000005
    27  H    0.000031   0.026930   0.004842  -0.005546   0.001655  -0.000152
    28  H   -0.000034   0.000250   0.000782   0.000528   0.000020   0.000000
    29  C   -0.011079  -0.003700  -0.053377   0.000425   0.011588  -0.001399
    30  H    0.004416  -0.000623   0.003417   0.002323   0.000484  -0.000197
    31  H    0.000010  -0.000123   0.004097   0.000299  -0.001344   0.002320
              13         14         15         16         17         18
     1  C   -0.067242  -0.000614  -0.007561   0.007150  -0.007117  -0.004182
     2  C    0.010119   0.001608  -0.001062   0.000581  -0.067636   0.013153
     3  H   -0.001038   0.000103  -0.000267  -0.000121   0.002832   0.002075
     4  C   -0.000012   0.000003   0.000000  -0.000001   0.000036   0.000007
     5  H    0.000000  -0.000001   0.000000   0.000000  -0.000002   0.000000
     6  H    0.000000   0.000004   0.000000   0.000000   0.000000   0.000000
     7  H    0.000000   0.000001   0.000000   0.000000   0.000000  -0.000001
     8  O    0.006862   0.004690   0.005192   0.001366   0.015139  -0.000237
     9  N   -0.000309  -0.000025  -0.000041   0.000008   0.331005  -0.065354
    10  H    0.000032  -0.000006   0.000008   0.000000  -0.020607  -0.002989
    11  N    0.301300  -0.052959  -0.043638  -0.026961  -0.000167  -0.000087
    12  H   -0.031985   0.003235   0.002347  -0.008175  -0.000115   0.000000
    13  C    4.764361   0.391700   0.404357   0.394700  -0.000240  -0.000007
    14  H    0.391700   0.631408  -0.056996  -0.029348  -0.000029   0.000000
    15  H    0.404357  -0.056996   0.600499  -0.025422   0.000090   0.000001
    16  H    0.394700  -0.029348  -0.025422   0.600437  -0.000008   0.000000
    17  C   -0.000240  -0.000029   0.000090  -0.000008   4.534435   0.282309
    18  C   -0.000007   0.000000   0.000001   0.000000   0.282309   4.997277
    19  H    0.000001   0.000000   0.000000   0.000000  -0.054284   0.393222
    20  H    0.000000   0.000000   0.000000   0.000000  -0.025564   0.385503
    21  H    0.000002   0.000000   0.000001   0.000000  -0.025206   0.388287
    22  O   -0.000209   0.000009   0.000099  -0.000004   0.722958  -0.070559
    23  C   -0.000162   0.000745  -0.000095  -0.000030  -0.000654  -0.000089
    24  H    0.000209  -0.000541   0.000125  -0.000004  -0.000017  -0.000006
    25  C    0.000053   0.000050   0.000004   0.000003   0.000152   0.000101
    26  H    0.000003   0.000006   0.000000   0.000000   0.000165   0.000081
    27  H   -0.000211   0.000106  -0.000067  -0.000007   0.001472   0.000091
    28  H   -0.000007  -0.000003   0.000000   0.000000   0.000027   0.000008
    29  C   -0.000526  -0.000753   0.000183  -0.000020   0.009431   0.000414
    30  H    0.000075  -0.000025   0.000015   0.000002  -0.000359  -0.000134
    31  H    0.000062  -0.000078   0.000038   0.000011  -0.000130   0.000037
              19         20         21         22         23         24
     1  C    0.000330  -0.000153   0.000732  -0.001970  -0.007314   0.007207
     2  C    0.000558  -0.000573  -0.000581   0.017476  -0.014934  -0.009951
     3  H   -0.000321   0.000160  -0.000160   0.017414   0.006063  -0.000718
     4  C   -0.000003   0.000000   0.000000   0.000001   0.300398  -0.029850
     5  H    0.000000   0.000000   0.000000   0.000000  -0.037083  -0.005182
     6  H    0.000000   0.000000   0.000000   0.000000  -0.037445  -0.005378
     7  H    0.000002   0.000000   0.000000   0.000000  -0.041283   0.006718
     8  O    0.000007   0.000032   0.000259  -0.003224   0.005905  -0.002467
     9  N    0.012599  -0.000071  -0.001243  -0.137118  -0.000535   0.000087
    10  H   -0.000849  -0.000052   0.000360   0.004160  -0.001579   0.000138
    11  N    0.000011   0.000003   0.000001  -0.003213  -0.006021   0.003327
    12  H    0.000001   0.000001  -0.000002  -0.000211   0.000012  -0.000011
    13  C    0.000001   0.000000   0.000002  -0.000209  -0.000162   0.000209
    14  H    0.000000   0.000000   0.000000   0.000009   0.000745  -0.000541
    15  H    0.000000   0.000000   0.000001   0.000099  -0.000095   0.000125
    16  H    0.000000   0.000000   0.000000  -0.000004  -0.000030  -0.000004
    17  C   -0.054284  -0.025564  -0.025206   0.722958  -0.000654  -0.000017
    18  C    0.393222   0.385503   0.388287  -0.070559  -0.000089  -0.000006
    19  H    0.602371  -0.027142  -0.024742   0.004578   0.000061   0.000004
    20  H   -0.027142   0.576557  -0.025281   0.002270   0.000002   0.000000
    21  H   -0.024742  -0.025281   0.565069   0.001053   0.000003   0.000001
    22  O    0.004578   0.002270   0.001053   7.852251  -0.000083  -0.000007
    23  C    0.000061   0.000002   0.000003  -0.000083   5.252745   0.409256
    24  H    0.000004   0.000000   0.000001  -0.000007   0.409256   0.524261
    25  C    0.000092   0.000012  -0.000021   0.000048   0.253842  -0.036548
    26  H    0.000125  -0.000029   0.000012   0.000018  -0.056829   0.008109
    27  H   -0.000004   0.000043  -0.000056  -0.000210  -0.020071  -0.006757
    28  H   -0.000013   0.000001  -0.000004   0.000000  -0.034775  -0.006360
    29  C   -0.000270   0.000007  -0.000006   0.002460   0.214773  -0.033798
    30  H    0.000004  -0.000034   0.000022  -0.000139  -0.046529   0.007606
    31  H   -0.000005  -0.000003   0.000000   0.000098  -0.047398  -0.004884
              25         26         27         28         29         30
     1  C   -0.005404   0.001983  -0.008540  -0.000361  -0.037937   0.011746
     2  C    0.006022  -0.007789   0.002708  -0.000625   0.226178  -0.044936
     3  H   -0.000055  -0.000259   0.000811   0.000088  -0.031588  -0.008876
     4  C   -0.080898  -0.009422   0.006602  -0.006433  -0.073048  -0.004994
     5  H   -0.005498  -0.000520  -0.000052   0.004647   0.009805   0.000334
     6  H    0.008787  -0.000002  -0.000282  -0.000160  -0.001085  -0.002323
     7  H   -0.007668   0.004413   0.000031  -0.000034  -0.011079   0.004416
     8  O   -0.012264  -0.000123   0.026930   0.000250  -0.003700  -0.000623
     9  N   -0.006518  -0.002930   0.004842   0.000782  -0.053377   0.003417
    10  H    0.002384   0.001525  -0.005546   0.000528   0.000425   0.002323
    11  N   -0.000852  -0.000103   0.001655   0.000020   0.011588   0.000484
    12  H    0.000124  -0.000005  -0.000152   0.000000  -0.001399  -0.000197
    13  C    0.000053   0.000003  -0.000211  -0.000007  -0.000526   0.000075
    14  H    0.000050   0.000006   0.000106  -0.000003  -0.000753  -0.000025
    15  H    0.000004   0.000000  -0.000067   0.000000   0.000183   0.000015
    16  H    0.000003   0.000000  -0.000007   0.000000  -0.000020   0.000002
    17  C    0.000152   0.000165   0.001472   0.000027   0.009431  -0.000359
    18  C    0.000101   0.000081   0.000091   0.000008   0.000414  -0.000134
    19  H    0.000092   0.000125  -0.000004  -0.000013  -0.000270   0.000004
    20  H    0.000012  -0.000029   0.000043   0.000001   0.000007  -0.000034
    21  H   -0.000021   0.000012  -0.000056  -0.000004  -0.000006   0.000022
    22  O    0.000048   0.000018  -0.000210   0.000000   0.002460  -0.000139
    23  C    0.253842  -0.056829  -0.020071  -0.034775   0.214773  -0.046529
    24  H   -0.036548   0.008109  -0.006757  -0.006360  -0.033798   0.007606
    25  C    5.257145   0.400716   0.381324   0.399056  -0.038689  -0.004740
    26  H    0.400716   0.567978  -0.032942  -0.029290   0.006555   0.002461
    27  H    0.381324  -0.032942   0.471671  -0.002637  -0.007740  -0.000951
    28  H    0.399056  -0.029290  -0.002637   0.519976   0.007738  -0.000499
    29  C   -0.038689   0.006555  -0.007740   0.007738   5.421170   0.401042
    30  H   -0.004740   0.002461  -0.000951  -0.000499   0.401042   0.475828
    31  H    0.006993   0.000221  -0.000570  -0.000401   0.419893  -0.003347
              31
     1  C    0.000792
     2  C   -0.033800
     3  H   -0.008810
     4  C   -0.004472
     5  H   -0.000295
     6  H    0.003064
     7  H    0.000010
     8  O   -0.000123
     9  N    0.004097
    10  H    0.000299
    11  N   -0.001344
    12  H    0.002320
    13  C    0.000062
    14  H   -0.000078
    15  H    0.000038
    16  H    0.000011
    17  C   -0.000130
    18  C    0.000037
    19  H   -0.000005
    20  H   -0.000003
    21  H    0.000000
    22  O    0.000098
    23  C   -0.047398
    24  H   -0.004884
    25  C    0.006993
    26  H    0.000221
    27  H   -0.000570
    28  H   -0.000401
    29  C    0.419893
    30  H   -0.003347
    31  H    0.477801
 Mulliken charges:
               1
     1  C    0.310155
     2  C   -0.168153
     3  H    0.229182
     4  C   -0.424446
     5  H    0.139116
     6  H    0.134278
     7  H    0.145267
     8  O   -0.397184
     9  N   -0.201643
    10  H    0.180667
    11  N   -0.133554
    12  H    0.125908
    13  C   -0.171886
    14  H    0.107711
    15  H    0.122190
    16  H    0.085843
    17  C    0.302086
    18  C   -0.318920
    19  H    0.093667
    20  H    0.114313
    21  H    0.121500
    22  O   -0.407947
    23  C   -0.090896
    24  H    0.175431
    25  C   -0.517753
    26  H    0.145872
    27  H    0.188507
    28  H    0.148483
    29  C   -0.436648
    30  H    0.208931
    31  H    0.189924
 Sum of Mulliken charges =   0.00000
 Mulliken charges with hydrogens summed into heavy atoms:
               1
     1  C    0.310155
     2  C    0.061029
     4  C   -0.005786
     8  O   -0.397184
     9  N   -0.020976
    11  N   -0.007645
    13  C    0.143858
    17  C    0.302086
    18  C    0.010559
    22  O   -0.407947
    23  C    0.084535
    25  C   -0.034891
    29  C   -0.037793
 Electronic spatial extent (au):  <R**2>=           2887.3844
 Charge=              0.0000 electrons
 Dipole moment (field-independent basis, Debye):
    X=             -3.7476    Y=             -1.1022    Z=             -1.9058  Tot=              4.3465
 Quadrupole moment (field-independent basis, Debye-Ang):
   XX=            -86.5923   YY=            -68.0184   ZZ=            -82.2329
   XY=             -8.1619   XZ=              3.2979   YZ=             -4.9631
 Traceless Quadrupole moment (field-independent basis, Debye-Ang):
   XX=             -7.6444   YY=             10.9294   ZZ=             -3.2850
   XY=             -8.1619   XZ=              3.2979   YZ=             -4.9631
 Octapole moment (field-independent basis, Debye-Ang**2):
  XXX=             -8.5408  YYY=             37.4833  ZZZ=             -8.6392  XYY=              7.4305
  XXY=            -15.0998  XXZ=             15.8012  XZZ=             -0.9558  YZZ=              4.2383
  YYZ=             -4.8409  XYZ=              1.9882
 Hexadecapole moment (field-independent basis, Debye-Ang**3):
 XXXX=          -2003.0005 YYYY=          -1364.6739 ZZZZ=           -395.2826 XXXY=            -68.2216
 XXXZ=             25.7541 YYYX=            -34.9691 YYYZ=             -7.0215 ZZZX=             -3.0559
 ZZZY=            -16.6526 XXYY=           -559.9928 XXZZ=           -384.6688 YYZZ=           -309.9780
 XXYZ=              0.0900 YYXZ=              2.1311 ZZXY=            -11.2899
 N-N= 8.768336389050D+02 E-N=-3.183385514808D+03  KE= 6.091235569945D+02
 Calculating spin-rotation constants.
 Leave Link  601 at Wed Jun 18 02:25:54 2014, MaxMem=  4294967296 cpu:        68.5
 (Enter /home/ztw1e12/g09/l9999.exe)

 Test job not archived.
 1\1\GINC-GREEN0630\SP\RM06\Gen\C9H18N2O2\ROOT\18-Jun-2014\0\\#P Geom=A
 llCheck Guess=TCheck SCRF=Check GenChk RM06/ChkBas NMR=ReadFC IOp(3/6=
 22)\\NMR spin-spin scan\\0,1\C,0,0.184061,1.238586,0.214685\C,0,0.1510
 25,0.042509,-0.73283\H,0,0.594245,0.383752,-1.673091\C,0,-3.440159,-1.
 430629,-0.470477\H,0,-4.217679,-1.575363,0.281969\H,0,-3.893476,-0.930
 194,-1.329606\H,0,-3.104282,-2.417975,-0.799724\O,0,0.466353,1.145524,
 1.405676\N,0,0.965461,-1.043676,-0.248146\H,0,0.523572,-1.86204,0.1393
 5\N,0,-0.13848,2.403569,-0.357216\H,0,-0.359724,2.417575,-1.340099\C,0
 ,-0.218001,3.629308,0.402156\H,0,-0.985239,3.568945,1.175176\H,0,0.733
 925,3.852579,0.884421\H,0,-0.465374,4.444423,-0.270838\C,0,2.302726,-0
 .931374,-0.173957\C,0,3.039532,-2.100305,0.391296\H,0,2.390591,-2.9398
 08,0.631797\H,0,3.795802,-2.420811,-0.324412\H,0,3.558841,-1.779496,1.
 294455\O,0,2.890925,0.078882,-0.558449\C,0,-2.266227,-0.647042,0.09137
 2\H,0,-2.620562,0.317522,0.473933\C,0,-1.694901,-1.436462,1.258518\H,0
 ,-1.343357,-2.419053,0.92508\H,0,-0.875039,-0.926084,1.762481\H,0,-2.4
 74807,-1.61763,2.001077\C,0,-1.281693,-0.382909,-1.050099\H,0,-1.19827
 9,-1.297693,-1.649904\H,0,-1.714152,0.368666,-1.714256\\Version=EM64L-
 G09RevD.01\State=1-A\HF=-613.5820513\RMSD=7.406e-09\Dipole=-1.475663,-
 0.3665352,-0.7824804\Quadrupole=-6.1289042,8.6879246,-2.5590204,-5.611
 202,2.1334606,-3.5727513\PG=C01 [X(C9H18N2O2)]\\@


 SIC AS THE CAWSE OF EWERY THING IS, SIC WILBE THE EFFECT.
 -- PROVERBS AND REASONS OF THE YEAR 1585
           AS REPRINTED IN PAISLEY MAGAZINE 1828.
 Job cpu time:       2 days 13 hours 39 minutes 44.9 seconds.
 File lengths (MBytes):  RWF=   2456 Int=      0 D2E=      0 Chk=     48 Scr=      8
 Normal termination of Gaussian 09 at Wed Jun 18 02:25:55 2014.
