 Entering Gaussian System, Link 0=g09
 Input=scan_input_2.gjf
 Output=scan_input_2.log
 Initial command:
 /home/ztw1e12/g09/l1.exe "/home/ztw1e12/leucine_scan/leucine_chi2_scan/Gau-4506.inp" -scrdir="/home/ztw1e12/leucine_scan/leucine_chi2_scan/"
 Default is to use a total of   8 processors:
                                8 via shared-memory
                                1 via Linda
 Entering Link 1 = /home/ztw1e12/g09/l1.exe PID=      4507.
  
 Copyright (c) 1988,1990,1992,1993,1995,1998,2003,2009,2013,
            Gaussian, Inc.  All Rights Reserved.
  
 This is part of the Gaussian(R) 09 program.  It is based on
 the Gaussian(R) 03 system (copyright 2003, Gaussian, Inc.),
 the Gaussian(R) 98 system (copyright 1998, Gaussian, Inc.),
 the Gaussian(R) 94 system (copyright 1995, Gaussian, Inc.),
 the Gaussian 92(TM) system (copyright 1992, Gaussian, Inc.),
 the Gaussian 90(TM) system (copyright 1990, Gaussian, Inc.),
 the Gaussian 88(TM) system (copyright 1988, Gaussian, Inc.),
 the Gaussian 86(TM) system (copyright 1986, Carnegie Mellon
 University), and the Gaussian 82(TM) system (copyright 1983,
 Carnegie Mellon University). Gaussian is a federally registered
 trademark of Gaussian, Inc.
  
 This software contains proprietary and confidential information,
 including trade secrets, belonging to Gaussian, Inc.
  
 This software is provided under written license and may be
 used, copied, transmitted, or stored only in accord with that
 written license.
  
 The following legend is applicable only to US Government
 contracts under FAR:
  
                    RESTRICTED RIGHTS LEGEND
  
 Use, reproduction and disclosure by the US Government is
 subject to restrictions as set forth in subparagraphs (a)
 and (c) of the Commercial Computer Software - Restricted
 Rights clause in FAR 52.227-19.
  
 Gaussian, Inc.
 340 Quinnipiac St., Bldg. 40, Wallingford CT 06492
  
  
 ---------------------------------------------------------------
 Warning -- This program may not be used in any manner that
 competes with the business of Gaussian, Inc. or will provide
 assistance to any competitor of Gaussian, Inc.  The licensee
 of this program is prohibited from giving any competitor of
 Gaussian, Inc. access to this program.  By using this program,
 the user acknowledges that Gaussian, Inc. is engaged in the
 business of creating and licensing software in the field of
 computational chemistry and represents and warrants to the
 licensee that it is not a competitor of Gaussian, Inc. and that
 it will not use this program in any manner prohibited above.
 ---------------------------------------------------------------
  

 Cite this work as:
 Gaussian 09, Revision D.01,
 M. J. Frisch, G. W. Trucks, H. B. Schlegel, G. E. Scuseria, 
 M. A. Robb, J. R. Cheeseman, G. Scalmani, V. Barone, B. Mennucci, 
 G. A. Petersson, H. Nakatsuji, M. Caricato, X. Li, H. P. Hratchian, 
 A. F. Izmaylov, J. Bloino, G. Zheng, J. L. Sonnenberg, M. Hada, 
 M. Ehara, K. Toyota, R. Fukuda, J. Hasegawa, M. Ishida, T. Nakajima, 
 Y. Honda, O. Kitao, H. Nakai, T. Vreven, J. A. Montgomery, Jr., 
 J. E. Peralta, F. Ogliaro, M. Bearpark, J. J. Heyd, E. Brothers, 
 K. N. Kudin, V. N. Staroverov, T. Keith, R. Kobayashi, J. Normand, 
 K. Raghavachari, A. Rendell, J. C. Burant, S. S. Iyengar, J. Tomasi, 
 M. Cossi, N. Rega, J. M. Millam, M. Klene, J. E. Knox, J. B. Cross, 
 V. Bakken, C. Adamo, J. Jaramillo, R. Gomperts, R. E. Stratmann, 
 O. Yazyev, A. J. Austin, R. Cammi, C. Pomelli, J. W. Ochterski, 
 R. L. Martin, K. Morokuma, V. G. Zakrzewski, G. A. Voth, 
 P. Salvador, J. J. Dannenberg, S. Dapprich, A. D. Daniels, 
 O. Farkas, J. B. Foresman, J. V. Ortiz, J. Cioslowski, 
 and D. J. Fox, Gaussian, Inc., Wallingford CT, 2013.
 
 ******************************************
 Gaussian 09:  EM64L-G09RevD.01 24-Apr-2013
                17-Jun-2014 
 ******************************************
 %Mem=32GB
 %NProcShared=16
 Will use up to   16 processors via shared memory.
 Default route:  MaxDisk=100GB
 ----------------------------------------------------------------------
 #p nmr=(giao,mixed,spinspin) m06/cc-pvtz scf=tight integral=(grid=ultr
 afine)
 ----------------------------------------------------------------------
 1/38=1/1;
 2/12=2,17=6,18=5,40=1/2;
 3/5=16,6=1,10=1100000,11=2,16=1,25=1,30=1,74=-54,75=-5/1,2,8,3;
 4//1;
 5/5=2,32=2,38=5/2;
 8/6=1,10=90,11=11/1;
 10/13=100,45=16,47=3/2;
 6/7=2,8=2,9=2,10=2,28=1/1;
 99/9=1/99;
 Leave Link    1 at Tue Jun 17 15:29:05 2014, MaxMem=  4294967296 cpu:         7.8
 (Enter /home/ztw1e12/g09/l101.exe)
 ------------------
 NMR spin-spin scan
 ------------------
 Symbolic Z-matrix:
 Charge =  0 Multiplicity = 1
 C                     0.16697   1.21437   0.19384 
 C                     0.16407   0.01389  -0.74611 
 H                     0.59559   0.35338  -1.69237 
 C                    -3.50843  -1.26026  -0.42843 
 H                    -4.26408  -1.36646   0.352 
 H                    -3.93384  -0.65127  -1.22933 
 H                    -3.30721  -2.25508  -0.83652 
 O                     0.39443   1.12264   1.39677 
 N                     1.00189  -1.04923  -0.24779 
 H                     0.57782  -1.88826   0.1145 
 N                    -0.12837   2.37773  -0.39473 
 H                    -0.31686   2.38717  -1.38446 
 C                    -0.26174   3.60019   0.36296 
 H                    -1.06693   3.52704   1.09547 
 H                     0.66177   3.8329    0.89353 
 H                    -0.48382   4.41472  -0.31948 
 C                     2.33235  -0.89339  -0.14415 
 C                     3.09744  -2.04012   0.42831 
 H                     2.47052  -2.89358   0.67748 
 H                     3.85894  -2.34787  -0.28771 
 H                     3.61255  -1.70013   1.32668 
 O                     2.89334   0.13946  -0.50954 
 C                    -2.22847  -0.657     0.12263 
 H                    -2.45669   0.3185    0.56988 
 C                    -1.69474  -1.57087   1.21298 
 H                    -1.42602  -2.54742   0.79481 
 H                    -0.82372  -1.16147   1.72497 
 H                    -2.46441  -1.7471    1.96725 
 C                    -1.26355  -0.44389  -1.04138 
 H                    -1.18734  -1.38057  -1.60714 
 H                    -1.70584   0.28527  -1.72461 
 
 NAtoms=     31 NQM=       31 NQMF=       0 NMMI=      0 NMMIF=      0
                NMic=       0 NMicF=      0.
                    Isotopes and Nuclear Properties:
 (Nuclear quadrupole moments (NQMom) in fm**2, nuclear magnetic moments (NMagM)
  in nuclear magnetons)

  Atom         1           2           3           4           5           6           7           8           9          10
 IAtWgt=          12          12           1          12           1           1           1          16          14           1
 AtmWgt=  12.0000000  12.0000000   1.0078250  12.0000000   1.0078250   1.0078250   1.0078250  15.9949146  14.0030740   1.0078250
 NucSpn=           0           0           1           0           1           1           1           0           2           1
 AtZEff=   0.0000000   0.0000000   0.0000000   0.0000000   0.0000000   0.0000000   0.0000000   0.0000000   0.0000000   0.0000000
 NQMom=    0.0000000   0.0000000   0.0000000   0.0000000   0.0000000   0.0000000   0.0000000   0.0000000   2.0440000   0.0000000
 NMagM=    0.0000000   0.0000000   2.7928460   0.0000000   2.7928460   2.7928460   2.7928460   0.0000000   0.4037610   2.7928460
 AtZNuc=   6.0000000   6.0000000   1.0000000   6.0000000   1.0000000   1.0000000   1.0000000   8.0000000   7.0000000   1.0000000

  Atom        11          12          13          14          15          16          17          18          19          20
 IAtWgt=          14           1          12           1           1           1          12          12           1           1
 AtmWgt=  14.0030740   1.0078250  12.0000000   1.0078250   1.0078250   1.0078250  12.0000000  12.0000000   1.0078250   1.0078250
 NucSpn=           2           1           0           1           1           1           0           0           1           1
 AtZEff=   0.0000000   0.0000000   0.0000000   0.0000000   0.0000000   0.0000000   0.0000000   0.0000000   0.0000000   0.0000000
 NQMom=    2.0440000   0.0000000   0.0000000   0.0000000   0.0000000   0.0000000   0.0000000   0.0000000   0.0000000   0.0000000
 NMagM=    0.4037610   2.7928460   0.0000000   2.7928460   2.7928460   2.7928460   0.0000000   0.0000000   2.7928460   2.7928460
 AtZNuc=   7.0000000   1.0000000   6.0000000   1.0000000   1.0000000   1.0000000   6.0000000   6.0000000   1.0000000   1.0000000

  Atom        21          22          23          24          25          26          27          28          29          30
 IAtWgt=           1          16          12           1          12           1           1           1          12           1
 AtmWgt=   1.0078250  15.9949146  12.0000000   1.0078250  12.0000000   1.0078250   1.0078250   1.0078250  12.0000000   1.0078250
 NucSpn=           1           0           0           1           0           1           1           1           0           1
 AtZEff=   0.0000000   0.0000000   0.0000000   0.0000000   0.0000000   0.0000000   0.0000000   0.0000000   0.0000000   0.0000000
 NQMom=    0.0000000   0.0000000   0.0000000   0.0000000   0.0000000   0.0000000   0.0000000   0.0000000   0.0000000   0.0000000
 NMagM=    2.7928460   0.0000000   0.0000000   2.7928460   0.0000000   2.7928460   2.7928460   2.7928460   0.0000000   2.7928460
 AtZNuc=   1.0000000   8.0000000   6.0000000   1.0000000   6.0000000   1.0000000   1.0000000   1.0000000   6.0000000   1.0000000

  Atom        31
 IAtWgt=           1
 AtmWgt=   1.0078250
 NucSpn=           1
 AtZEff=   0.0000000
 NQMom=    0.0000000
 NMagM=    2.7928460
 AtZNuc=   1.0000000
 Leave Link  101 at Tue Jun 17 15:29:05 2014, MaxMem=  4294967296 cpu:         1.9
 (Enter /home/ztw1e12/g09/l202.exe)
                          Input orientation:                          
 ---------------------------------------------------------------------
 Center     Atomic      Atomic             Coordinates (Angstroms)
 Number     Number       Type             X           Y           Z
 ---------------------------------------------------------------------
      1          6           0        0.166969    1.214369    0.193843
      2          6           0        0.164068    0.013887   -0.746107
      3          1           0        0.595591    0.353376   -1.692367
      4          6           0       -3.508434   -1.260261   -0.428432
      5          1           0       -4.264077   -1.366457    0.352001
      6          1           0       -3.933840   -0.651267   -1.229327
      7          1           0       -3.307214   -2.255084   -0.836520
      8          8           0        0.394426    1.122640    1.396772
      9          7           0        1.001888   -1.049234   -0.247794
     10          1           0        0.577817   -1.888262    0.114495
     11          7           0       -0.128371    2.377734   -0.394725
     12          1           0       -0.316856    2.387169   -1.384463
     13          6           0       -0.261738    3.600189    0.362962
     14          1           0       -1.066925    3.527042    1.095475
     15          1           0        0.661772    3.832903    0.893534
     16          1           0       -0.483819    4.414723   -0.319479
     17          6           0        2.332349   -0.893388   -0.144145
     18          6           0        3.097439   -2.040123    0.428311
     19          1           0        2.470524   -2.893583    0.677482
     20          1           0        3.858942   -2.347871   -0.287712
     21          1           0        3.612552   -1.700130    1.326683
     22          8           0        2.893341    0.139462   -0.509539
     23          6           0       -2.228469   -0.657000    0.122633
     24          1           0       -2.456689    0.318499    0.569875
     25          6           0       -1.694739   -1.570865    1.212977
     26          1           0       -1.426017   -2.547417    0.794810
     27          1           0       -0.823720   -1.161470    1.724967
     28          1           0       -2.464411   -1.747095    1.967252
     29          6           0       -1.263551   -0.443891   -1.041377
     30          1           0       -1.187339   -1.380572   -1.607139
     31          1           0       -1.705842    0.285271   -1.724608
 ---------------------------------------------------------------------
                    Distance matrix (angstroms):
                    1          2          3          4          5
     1  C    0.000000
     2  C    1.524687   0.000000
     3  H    2.117266   1.094017   0.000000
     4  C    4.474328   3.900210   4.587415   0.000000
     5  H    5.130287   4.766514   5.545596   1.091490   0.000000
     6  H    4.724685   4.179567   4.662559   1.092372   1.766678
     7  H    5.016842   4.148036   4.771627   1.093937   1.765737
     8  O    1.227676   2.423701   3.189830   4.923607   5.384125
     9  N    2.452760   1.442388   2.054065   4.518868   5.309498
    10  H    3.130721   2.128378   2.879237   4.169724   4.875718
    11  N    1.336808   2.407647   2.511179   4.965981   5.628555
    12  H    2.024993   2.504247   2.250262   4.940031   5.717129
    13  C    2.429923   3.777950   3.937154   5.898416   6.378590
    14  H    2.771983   4.153195   4.539623   5.585833   5.892442
    15  H    2.755198   4.185811   4.335709   6.714055   7.182659
    16  H    3.305948   4.468683   4.420915   6.431610   6.939977
    17  C    3.040682   2.426303   2.639648   5.859195   6.631952
    18  C    4.385698   3.768671   4.060216   6.706695   7.392670
    19  H    4.734505   3.974887   4.435572   6.295929   6.913241
    20  H    5.152874   4.409095   4.463099   7.448552   8.207061
    21  H    4.652921   4.373369   4.736413   7.347269   7.943716
    22  O    3.013847   2.742383   2.593163   6.553512   7.364691
    23  C    3.040595   2.632305   3.505767   1.518521   2.167865
    24  H    2.797778   2.948383   3.799391   2.143658   2.480564
    25  C    3.501731   3.131232   4.170053   2.465804   2.717455
    26  H    4.129140   3.385716   4.322910   2.736705   3.105693
    27  H    2.995065   2.909192   3.998421   3.443048   3.709867
    28  H    4.340439   4.168006   5.212332   2.658250   2.448003
    29  C    2.514355   1.528019   2.125049   2.466102   3.434499
    30  H    3.436772   2.124192   2.488509   2.606014   3.647567
    31  H    2.837446   2.127834   2.302666   2.705195   3.685794
                    6          7          8          9         10
     6  H    0.000000
     7  H    1.766122   0.000000
     8  O    5.364422   5.486233   0.000000
     9  N    5.048088   4.513206   2.791173   0.000000
    10  H    4.867347   4.016523   3.277712   1.007501   0.000000
    11  N    4.934876   5.635888   2.249008   3.611535   4.353933
    12  H    4.726387   5.549144   3.136913   3.852268   4.618076
    13  C    5.839058   6.708048   2.763614   4.856635   5.557849
    14  H    5.575139   6.494958   2.829748   5.198717   5.743955
    15  H    6.762689   7.470577   2.769521   5.025293   5.774572
    16  H    6.196348   7.261213   3.815055   5.662799   6.406483
    17  C    6.364068   5.842796   3.192858   1.343562   2.033483
    18  C    7.356329   6.531890   4.271682   2.414604   2.543627
    19  H    7.048388   6.006841   4.577948   2.532716   2.215844
    20  H    8.030726   7.187739   5.185056   3.138600   3.337483
    21  H    8.036251   7.271216   4.281271   3.117404   3.273287
    22  O    6.910409   6.654897   3.293211   2.249245   3.140499
    23  C    2.176263   2.153494   3.416157   3.275098   3.064525
    24  H    2.521815   3.053632   3.075591   3.808022   3.779602
    25  C    3.438616   2.696047   3.413702   3.110908   2.543996
    26  H    3.739210   2.507110   4.140735   3.037482   2.216453
    27  H    4.319839   3.731615   2.609358   2.690210   2.255250
    28  H    3.684858   2.971449   4.090694   4.172370   3.564798
    29  C    2.684916   2.738420   3.338784   2.475566   2.610150
    30  H    2.866687   2.419193   4.218001   2.598138   2.517449
    31  H    2.467059   3.131533   3.854261   3.360608   3.649883
                   11         12         13         14         15
    11  N    0.000000
    12  H    1.007570   0.000000
    13  C    1.444393   2.127898   0.000000
    14  H    2.102971   2.830549   1.090987   0.000000
    15  H    2.097964   2.870040   1.090199   1.767123   0.000000
    16  H    2.069137   2.296311   1.085593   1.769205   1.767001
    17  C    4.100997   4.395308   5.213317   5.712436   5.119124
    18  C    5.531790   5.877455   6.565170   6.984294   6.375056
    19  H    5.974167   6.317234   7.052181   7.342526   6.968779
    20  H    6.183968   6.407867   7.265177   7.790505   7.058272
    21  H    5.795406   6.284630   6.635681   7.019565   6.285632
    22  O    3.762152   4.015351   4.763655   5.453024   4.537623
    23  C    3.726618   3.897764   4.695684   4.449923   5.395091
    24  H    3.254530   3.560578   3.953494   3.535880   4.709627
    25  C    4.541987   4.930648   5.432846   5.137763   5.903888
    26  H    5.230296   5.507232   6.271770   6.092487   6.713948
    27  H    4.183607   4.745346   4.984403   4.736829   5.276526
    28  H    5.296247   5.739175   6.001580   5.525349   6.485543
    29  C    3.109399   3.004803   4.396633   4.513658   5.073629
    30  H    4.088548   3.873396   5.435625   5.603864   6.070659
    31  H    2.938606   2.542234   4.175173   4.343980   5.004594
                   16         17         18         19         20
    16  H    0.000000
    17  C    6.011455   0.000000
    18  C    7.419544   1.492672   0.000000
    19  H    7.945654   2.166782   1.087889   0.000000
    20  H    8.036993   2.113438   1.089626   1.776825   0.000000
    21  H    7.541985   2.110234   1.089958   1.774830   1.756857
    22  O    5.451531   1.230855   2.381556   3.284380   2.677390
    23  C    5.381602   4.574725   5.511058   5.233612   6.331193
    24  H    4.632733   4.991330   6.035849   5.882727   6.908848
    25  C    6.296190   4.303277   4.878614   4.402926   5.805099
    26  H    7.113422   4.212216   4.566544   3.913646   5.398376
    27  H    5.948884   3.677801   4.222421   3.866456   5.233139
    28  H    6.864393   5.309964   5.778268   5.227956   6.740222
    29  C    4.973454   3.733305   4.870952   4.785267   5.516619
    30  H    5.978165   3.842643   4.789299   4.570411   5.304857
    31  H    4.529912   4.493783   5.754479   5.772104   6.321782
                   21         22         23         24         25
    21  H    0.000000
    22  O    2.696864   0.000000
    23  C    6.054369   5.221775   0.000000
    24  H    6.440754   5.460770   1.097136   0.000000
    25  C    5.310083   5.190641   1.519496   2.136316   0.000000
    26  H    5.136921   5.251428   2.160886   3.053908   1.095778
    27  H    4.486568   4.527912   2.189814   2.488199   1.090143
    28  H    6.110811   6.196701   2.155596   2.493873   1.091963
    29  C    5.564371   4.231182   1.526893   2.144982   2.556972
    30  H    5.634570   4.490788   2.144672   3.039323   2.871710
    31  H    6.444960   4.759216   2.138531   2.414441   3.474877
                   26         27         28         29         30
    26  H    0.000000
    27  H    1.774487   0.000000
    28  H    1.758806   1.758842   0.000000
    29  C    2.796927   2.891545   3.491741   0.000000
    30  H    2.681017   3.359041   3.813335   1.096935   0.000000
    31  H    3.801301   3.843275   4.282029   1.092750   1.748622
                   31
    31  H    0.000000
 Stoichiometry    C9H18N2O2
 Framework group  C1[X(C9H18N2O2)]
 Deg. of freedom    87
 Full point group                 C1      NOp   1
 Largest Abelian subgroup         C1      NOp   1
 Largest concise Abelian subgroup C1      NOp   1
                         Standard orientation:                         
 ---------------------------------------------------------------------
 Center     Atomic      Atomic             Coordinates (Angstroms)
 Number     Number       Type             X           Y           Z
 ---------------------------------------------------------------------
      1          6           0        0.093898    1.198218    0.158974
      2          6           0        0.136014   -0.005494   -0.775892
      3          1           0        0.534123    0.350649   -1.730640
      4          6           0       -3.461744   -1.461500   -0.391408
      5          1           0       -4.198035   -1.601797    0.402029
      6          1           0       -3.930547   -0.878662   -1.187524
      7          1           0       -3.217364   -2.446915   -0.798757
      8          8           0        0.345587    1.123985    1.358279
      9          7           0        1.034554   -1.022584   -0.287385
     10          1           0        0.659423   -1.880122    0.085391
     11          7           0       -0.269482    2.342314   -0.429291
     12          1           0       -0.474570    2.337371   -1.415755
     13          6           0       -0.451801    3.560208    0.325538
     14          1           0       -1.240028    3.450185    1.071759
     15          1           0        0.467449    3.841768    0.839576
     16          1           0       -0.725977    4.359150   -0.356394
     17          6           0        2.356990   -0.799387   -0.206725
     18          6           0        3.188350   -1.903283    0.357475
     19          1           0        2.609516   -2.786013    0.620615
     20          1           0        3.952449   -2.175787   -0.369971
     21          1           0        3.700458   -1.533351    1.245678
     22          8           0        2.859016    0.258609   -0.585695
     23          6           0       -2.204901   -0.791805    0.135625
     24          1           0       -2.474619    0.173143    0.582654
     25          6           0       -1.607748   -1.672241    1.220571
     26          1           0       -1.297051   -2.636057    0.801937
     27          1           0       -0.750138   -1.216962    1.716191
     28          1           0       -2.354947   -1.883318    1.988375
     29          6           0       -1.271379   -0.536074   -1.045281
     30          1           0       -1.157377   -1.470497   -1.608419
     31          1           0       -1.761159    0.166505   -1.723957
 ---------------------------------------------------------------------
 Rotational constants (GHZ):      0.8359635      0.6306775      0.4243134
 Leave Link  202 at Tue Jun 17 15:29:05 2014, MaxMem=  4294967296 cpu:         2.5
 (Enter /home/ztw1e12/g09/l301.exe)
 Standard basis: CC-pVTZ (5D, 7F)
 Converting basis for Fermi contact spin-spin IFCMod=1.
 AO basis functions are being uncontracted.
 Ernie: Thresh=  0.10000D-02 Tol=  0.10000D-05 Strict=F.
 There are  1119 symmetry adapted cartesian basis functions of A   symmetry.
 There are  1036 symmetry adapted basis functions of A   symmetry.
  1036 basis functions,  1119 primitive gaussians,  1119 cartesian basis functions
    51 alpha electrons       51 beta electrons
       nuclear repulsion energy       877.4023455805 Hartrees.
 IExCor= 4235 DFT=T Ex+Corr=M06 ExCW=0 ScaHFX=  0.270000
 ScaDFX=  1.000000  1.000000  1.000000  1.000000 ScalE2=  1.000000  1.000000
 IRadAn= 199590 IRanWt=     -1 IRanGd=            0 ICorTp=0 IEmpDi=  4
 NAtoms=   31 NActive=   31 NUniq=   31 SFac= 1.00D+00 NAtFMM=   60 NAOKFM=F Big=F
 Integral buffers will be    131072 words long.
 Raffenetti 2 integral format.
 Two-electron integral symmetry is turned on.
 Leave Link  301 at Tue Jun 17 15:29:06 2014, MaxMem=  4294967296 cpu:         7.5
 (Enter /home/ztw1e12/g09/l302.exe)
 NPDir=0 NMtPBC=     1 NCelOv=     1 NCel=       1 NClECP=     1 NCelD=      1
         NCelK=      1 NCelE2=     1 NClLst=     1 CellRange=     0.0.
 One-electron integrals computed using PRISM.
 GSVD:  received Info=                   1 from GESDD.
 NBasis=  1036 RedAO= T EigKep=  1.27D-04  NBF=  1036
 NBsUse=   932 1.00D-06 EigRej=  4.10D-15 NBFU=   932
 Precomputing XC quadrature grid using
 IXCGrd= 4 IRadAn=      199590 IRanWt=          -1 IRanGd=           0 AccXCQ= 0.00D+00.
 Generated NRdTot=       0 NPtTot=           0 NUsed=           0 NTot=          32
 NSgBfM=   881   881   881   881   881 MxSgAt=    31 MxSgA2=    31.
 Leave Link  302 at Tue Jun 17 15:29:10 2014, MaxMem=  4294967296 cpu:        65.1
 (Enter /home/ztw1e12/g09/l308.exe)
 Leave Link  308 at Tue Jun 17 15:29:10 2014, MaxMem=  4294967296 cpu:         5.5
 (Enter /home/ztw1e12/g09/l303.exe)
 DipDrv:  MaxL=1.
 Leave Link  303 at Tue Jun 17 15:29:11 2014, MaxMem=  4294967296 cpu:         3.3
 (Enter /home/ztw1e12/g09/l401.exe)
 ExpMin= 1.03D-01 ExpMax= 1.38D+05 ExpMxC= 1.38D+05 IAcc=4 IRadAn=    199590 AccDes= 0.00D+00
 Harris functional with IExCor= 1009 and IRadAn=  199590 diagonalized for initial guess.
 HarFok:  IExCor= 1009 AccDes= 0.00D+00 IRadAn=    199590 IDoV= 1 UseB2=F ITyADJ=14
 ICtDFT=  3500011 ScaDFX=  1.000000  1.000000  1.000000  1.000000
 FoFCou: FMM=F IPFlag=           0 FMFlag=      100000 FMFlg1=           0
         NFxFlg=           0 DoJE=T BraDBF=F KetDBF=T FulRan=T
         wScrn=  0.000000 ICntrl=     500 IOpCl=  0 I1Cent=   200000004 NGrid=           0
         NMat0=    1 NMatS0=      1 NMatT0=    0 NMatD0=    1 NMtDS0=    0 NMtDT0=    0
 Petite list used in FoFCou.
 Harris En= -613.564425460440    
 JPrj=0 DoOrth=F DoCkMO=F.
 Leave Link  401 at Tue Jun 17 15:29:28 2014, MaxMem=  4294967296 cpu:       260.1
 (Enter /home/ztw1e12/g09/l502.exe)
 Closed shell SCF:
 Using DIIS extrapolation, IDIIS=  1040.
 Integral symmetry usage will be decided dynamically.
 IVT=     3801329 IEndB=     3801329 NGot=  4294967296 MDV=  4292435888
 LenX=  4292435888 LenY=  4291182608
 Requested convergence on RMS density matrix=1.00D-08 within 128 cycles.
 Requested convergence on MAX density matrix=1.00D-06.
 Requested convergence on             energy=1.00D-06.
 No special actions if energy rises.
 Fock matrices will be formed incrementally for  20 cycles.
 Integral accuracy reduced to 1.0D-05 until final iterations.

 Cycle   1  Pass 0  IDiag  1:
 FoFJK:  IHMeth= 1 ICntrl=       0 DoSepK=F KAlg= 0 I1Cent=   0 FoldK=F
 IRaf= 480000000 NMat=   1 IRICut=       1 DoRegI=T DoRafI=F ISym2E= 0.
 FoFCou: FMM=F IPFlag=           0 FMFlag=      100000 FMFlg1=           0
         NFxFlg=           0 DoJE=F BraDBF=F KetDBF=F FulRan=T
         wScrn=  0.000000 ICntrl=       0 IOpCl=  0 I1Cent=           0 NGrid=           0
         NMat0=    1 NMatS0=      1 NMatT0=    0 NMatD0=    1 NMtDS0=    0 NMtDT0=    0
 Symmetry not used in FoFCou.
 E= -613.185587061148    
 DIIS: error= 1.36D-01 at cycle   1 NSaved=   1.
 NSaved= 1 IEnMin= 1 EnMin= -613.185587061148     IErMin= 1 ErrMin= 1.36D-01
 ErrMax= 1.36D-01  0.00D+00 EMaxC= 1.00D-01 BMatC= 1.30D+01 BMatP= 1.30D+01
 IDIUse=3 WtCom= 0.00D+00 WtEn= 1.00D+00
 Coeff-Com:  0.100D+01
 Coeff-En:   0.100D+01
 Coeff:      0.100D+01
 Gap=     0.290 Goal=   None    Shift=    0.000
 GapD=    0.290 DampG=1.000 DampE=0.250 DampFc=0.2500 IDamp=-1.
 Damping current iteration by 2.50D-01
 RMSDP=2.05D-03 MaxDP=2.94D-01              OVMax= 2.83D-01

 Cycle   2  Pass 0  IDiag  1:
 RMSU=  5.12D-04    CP:  1.01D+00
 E= -613.342742770829     Delta-E=       -0.157155709681 Rises=F Damp=T
 DIIS: error= 1.03D-01 at cycle   2 NSaved=   2.
 NSaved= 2 IEnMin= 2 EnMin= -613.342742770829     IErMin= 2 ErrMin= 1.03D-01
 ErrMax= 1.03D-01  0.00D+00 EMaxC= 1.00D-01 BMatC= 7.66D+00 BMatP= 1.30D+01
 IDIUse=3 WtCom= 0.00D+00 WtEn= 1.00D+00
 Coeff-Com: -0.279D+01 0.379D+01
 Coeff-En:   0.000D+00 0.100D+01
 Coeff:      0.000D+00 0.100D+01
 Gap=     0.220 Goal=   None    Shift=    0.000
 RMSDP=5.76D-04 MaxDP=5.08D-02 DE=-1.57D-01 OVMax= 1.32D-01

 Cycle   3  Pass 0  IDiag  1:
 RMSU=  4.25D-04    CP:  1.02D+00  1.76D+00
 E= -613.532024562862     Delta-E=       -0.189281792033 Rises=F Damp=F
 DIIS: error= 1.26D-02 at cycle   3 NSaved=   3.
 NSaved= 3 IEnMin= 3 EnMin= -613.532024562862     IErMin= 3 ErrMin= 1.26D-02
 ErrMax= 1.26D-02  0.00D+00 EMaxC= 1.00D-01 BMatC= 2.31D-01 BMatP= 7.66D+00
 IDIUse=3 WtCom= 8.74D-01 WtEn= 1.26D-01
 Coeff-Com:  0.123D+01-0.168D+01 0.145D+01
 Coeff-En:   0.138D+00 0.000D+00 0.862D+00
 Coeff:      0.109D+01-0.147D+01 0.138D+01
 Gap=     0.250 Goal=   None    Shift=    0.000
 RMSDP=4.18D-04 MaxDP=3.47D-02 DE=-1.89D-01 OVMax= 6.53D-02

 Cycle   4  Pass 0  IDiag  1:
 RMSU=  2.68D-04    CP:  1.02D+00  1.19D+00  6.88D-01
 E= -613.547291279591     Delta-E=       -0.015266716728 Rises=F Damp=F
 DIIS: error= 8.34D-03 at cycle   4 NSaved=   4.
 NSaved= 4 IEnMin= 4 EnMin= -613.547291279591     IErMin= 4 ErrMin= 8.34D-03
 ErrMax= 8.34D-03  0.00D+00 EMaxC= 1.00D-01 BMatC= 1.04D-01 BMatP= 2.31D-01
 IDIUse=3 WtCom= 9.17D-01 WtEn= 8.34D-02
 Coeff-Com:  0.768D+00-0.106D+01 0.751D+00 0.537D+00
 Coeff-En:   0.000D+00 0.000D+00 0.444D+00 0.556D+00
 Coeff:      0.704D+00-0.968D+00 0.725D+00 0.539D+00
 Gap=     0.283 Goal=   None    Shift=    0.000
 RMSDP=2.71D-04 MaxDP=2.19D-02 DE=-1.53D-02 OVMax= 7.62D-02

 Cycle   5  Pass 0  IDiag  1:
 RMSU=  9.03D-05    CP:  1.02D+00  1.13D+00  8.42D-01  8.45D-02
 E= -613.618688217653     Delta-E=       -0.071396938062 Rises=F Damp=F
 DIIS: error= 3.36D-03 at cycle   5 NSaved=   5.
 NSaved= 5 IEnMin= 5 EnMin= -613.618688217653     IErMin= 5 ErrMin= 3.36D-03
 ErrMax= 3.36D-03  0.00D+00 EMaxC= 1.00D-01 BMatC= 1.44D-02 BMatP= 1.04D-01
 IDIUse=3 WtCom= 9.66D-01 WtEn= 3.36D-02
 Coeff-Com:  0.144D+00-0.204D+00 0.140D+00 0.275D+00 0.646D+00
 Coeff-En:   0.000D+00 0.000D+00 0.000D+00 0.844D-01 0.916D+00
 Coeff:      0.139D+00-0.197D+00 0.135D+00 0.269D+00 0.655D+00
 Gap=     0.270 Goal=   None    Shift=    0.000
 RMSDP=1.50D-04 MaxDP=1.60D-02 DE=-7.14D-02 OVMax= 3.03D-02

 Cycle   6  Pass 0  IDiag  1:
 RMSU=  7.78D-05    CP:  1.02D+00  1.17D+00  9.31D-01  4.60D-01  2.67D-01
 E= -613.626770344686     Delta-E=       -0.008082127033 Rises=F Damp=F
 DIIS: error= 1.09D-03 at cycle   6 NSaved=   6.
 NSaved= 6 IEnMin= 6 EnMin= -613.626770344686     IErMin= 6 ErrMin= 1.09D-03
 ErrMax= 1.09D-03  0.00D+00 EMaxC= 1.00D-01 BMatC= 1.12D-03 BMatP= 1.44D-02
 IDIUse=3 WtCom= 9.89D-01 WtEn= 1.09D-02
 Coeff-Com:  0.622D-01-0.844D-01 0.211D-01 0.429D-01 0.201D+00 0.758D+00
 Coeff-En:   0.000D+00 0.000D+00 0.000D+00 0.000D+00 0.173D-01 0.983D+00
 Coeff:      0.615D-01-0.835D-01 0.208D-01 0.424D-01 0.199D+00 0.760D+00
 Gap=     0.270 Goal=   None    Shift=    0.000
 RMSDP=3.15D-05 MaxDP=3.14D-03 DE=-8.08D-03 OVMax= 9.62D-03

 Cycle   7  Pass 0  IDiag  1:
 RMSU=  2.20D-05    CP:  1.02D+00  1.14D+00  9.34D-01  4.55D-01  3.84D-01
                    CP:  1.11D+00
 E= -613.627380606151     Delta-E=       -0.000610261465 Rises=F Damp=F
 DIIS: error= 4.85D-04 at cycle   7 NSaved=   7.
 NSaved= 7 IEnMin= 7 EnMin= -613.627380606151     IErMin= 7 ErrMin= 4.85D-04
 ErrMax= 4.85D-04  0.00D+00 EMaxC= 1.00D-01 BMatC= 2.49D-04 BMatP= 1.12D-03
 IDIUse=3 WtCom= 9.95D-01 WtEn= 4.85D-03
 Coeff-Com:  0.418D-01-0.560D-01 0.136D-01 0.697D-02 0.578D-01 0.425D+00
 Coeff-Com:  0.511D+00
 Coeff-En:   0.000D+00 0.000D+00 0.000D+00 0.000D+00 0.000D+00 0.113D+00
 Coeff-En:   0.887D+00
 Coeff:      0.415D-01-0.557D-01 0.136D-01 0.694D-02 0.576D-01 0.423D+00
 Coeff:      0.513D+00
 Gap=     0.270 Goal=   None    Shift=    0.000
 RMSDP=1.14D-05 MaxDP=9.87D-04 DE=-6.10D-04 OVMax= 3.16D-03

 Cycle   8  Pass 0  IDiag  1:
 RMSU=  7.00D-06    CP:  1.02D+00  1.13D+00  9.39D-01  4.66D-01  3.70D-01
                    CP:  1.17D+00  6.90D-01
 E= -613.627548959788     Delta-E=       -0.000168353637 Rises=F Damp=F
 DIIS: error= 1.56D-04 at cycle   8 NSaved=   8.
 NSaved= 8 IEnMin= 8 EnMin= -613.627548959788     IErMin= 8 ErrMin= 1.56D-04
 ErrMax= 1.56D-04  0.00D+00 EMaxC= 1.00D-01 BMatC= 2.89D-05 BMatP= 2.49D-04
 IDIUse=3 WtCom= 9.98D-01 WtEn= 1.56D-03
 Coeff-Com:  0.227D-01-0.304D-01 0.900D-02-0.371D-02 0.215D-02 0.168D+00
 Coeff-Com:  0.300D+00 0.532D+00
 Coeff-En:   0.000D+00 0.000D+00 0.000D+00 0.000D+00 0.000D+00 0.000D+00
 Coeff-En:   0.000D+00 0.100D+01
 Coeff:      0.227D-01-0.304D-01 0.899D-02-0.370D-02 0.214D-02 0.168D+00
 Coeff:      0.300D+00 0.532D+00
 Gap=     0.270 Goal=   None    Shift=    0.000
 RMSDP=5.71D-06 MaxDP=5.58D-04 DE=-1.68D-04 OVMax= 1.21D-03

 Initial convergence to 1.0D-05 achieved.  Increase integral accuracy.
 Cycle   9  Pass 1  IDiag  1:
 E= -613.627542416795     Delta-E=        0.000006542993 Rises=F Damp=F
 DIIS: error= 7.91D-05 at cycle   1 NSaved=   1.
 NSaved= 1 IEnMin= 1 EnMin= -613.627542416795     IErMin= 1 ErrMin= 7.91D-05
 ErrMax= 7.91D-05  0.00D+00 EMaxC= 1.00D-01 BMatC= 1.23D-05 BMatP= 1.23D-05
 IDIUse=1 WtCom= 1.00D+00 WtEn= 0.00D+00
 Coeff-Com:  0.100D+01
 Coeff:      0.100D+01
 Gap=     0.270 Goal=   None    Shift=    0.000
 RMSDP=5.71D-06 MaxDP=5.58D-04 DE= 6.54D-06 OVMax= 1.47D-03

 Cycle  10  Pass 1  IDiag  1:
 RMSU=  2.65D-05    CP:  1.00D+00
 E= -613.627539277964     Delta-E=        0.000003138831 Rises=F Damp=F
 DIIS: error= 1.18D-04 at cycle   2 NSaved=   2.
 NSaved= 2 IEnMin= 1 EnMin= -613.627542416795     IErMin= 1 ErrMin= 7.91D-05
 ErrMax= 1.18D-04  0.00D+00 EMaxC= 1.00D-01 BMatC= 1.37D-05 BMatP= 1.23D-05
 IDIUse=3 WtCom= 4.79D-01 WtEn= 5.21D-01
 Coeff-Com:  0.517D+00 0.483D+00
 Coeff-En:   0.608D+00 0.392D+00
 Coeff:      0.564D+00 0.436D+00
 Gap=     0.270 Goal=   None    Shift=    0.000
 RMSDP=3.74D-06 MaxDP=4.47D-04 DE= 3.14D-06 OVMax= 1.28D-03

 Cycle  11  Pass 1  IDiag  1:
 RMSU=  3.68D-06    CP:  1.00D+00  9.83D-01
 E= -613.627547920751     Delta-E=       -0.000008642786 Rises=F Damp=F
 DIIS: error= 4.57D-05 at cycle   3 NSaved=   3.
 NSaved= 3 IEnMin= 3 EnMin= -613.627547920751     IErMin= 3 ErrMin= 4.57D-05
 ErrMax= 4.57D-05  0.00D+00 EMaxC= 1.00D-01 BMatC= 1.69D-06 BMatP= 1.23D-05
 IDIUse=1 WtCom= 1.00D+00 WtEn= 0.00D+00
 Coeff-Com:  0.561D-01 0.258D+00 0.686D+00
 Coeff:      0.561D-01 0.258D+00 0.686D+00
 Gap=     0.270 Goal=   None    Shift=    0.000
 RMSDP=1.05D-06 MaxDP=1.14D-04 DE=-8.64D-06 OVMax= 3.34D-04

 Cycle  12  Pass 1  IDiag  1:
 RMSU=  5.06D-07    CP:  1.00D+00  1.00D+00  7.87D-01
 E= -613.627549023976     Delta-E=       -0.000001103225 Rises=F Damp=F
 DIIS: error= 1.06D-05 at cycle   4 NSaved=   4.
 NSaved= 4 IEnMin= 4 EnMin= -613.627549023976     IErMin= 4 ErrMin= 1.06D-05
 ErrMax= 1.06D-05  0.00D+00 EMaxC= 1.00D-01 BMatC= 1.01D-07 BMatP= 1.69D-06
 IDIUse=1 WtCom= 1.00D+00 WtEn= 0.00D+00
 Coeff-Com:  0.593D-02 0.106D+00 0.332D+00 0.556D+00
 Coeff:      0.593D-02 0.106D+00 0.332D+00 0.556D+00
 Gap=     0.270 Goal=   None    Shift=    0.000
 RMSDP=2.39D-07 MaxDP=2.25D-05 DE=-1.10D-06 OVMax= 6.20D-05

 Cycle  13  Pass 1  IDiag  1:
 RMSU=  1.97D-07    CP:  1.00D+00  1.00D+00  7.95D-01  7.53D-01
 E= -613.627549092063     Delta-E=       -0.000000068088 Rises=F Damp=F
 DIIS: error= 2.56D-06 at cycle   5 NSaved=   5.
 NSaved= 5 IEnMin= 5 EnMin= -613.627549092063     IErMin= 5 ErrMin= 2.56D-06
 ErrMax= 2.56D-06  0.00D+00 EMaxC= 1.00D-01 BMatC= 8.95D-09 BMatP= 1.01D-07
 IDIUse=1 WtCom= 1.00D+00 WtEn= 0.00D+00
 Coeff-Com: -0.221D-02 0.303D-01 0.105D+00 0.281D+00 0.585D+00
 Coeff:     -0.221D-02 0.303D-01 0.105D+00 0.281D+00 0.585D+00
 Gap=     0.270 Goal=   None    Shift=    0.000
 RMSDP=7.82D-08 MaxDP=6.66D-06 DE=-6.81D-08 OVMax= 1.96D-05

 Cycle  14  Pass 1  IDiag  1:
 RMSU=  4.09D-08    CP:  1.00D+00  1.00D+00  8.00D-01  8.65D-01  8.69D-01
 E= -613.627549098109     Delta-E=       -0.000000006046 Rises=F Damp=F
 DIIS: error= 6.91D-07 at cycle   6 NSaved=   6.
 NSaved= 6 IEnMin= 6 EnMin= -613.627549098109     IErMin= 6 ErrMin= 6.91D-07
 ErrMax= 6.91D-07  0.00D+00 EMaxC= 1.00D-01 BMatC= 4.10D-10 BMatP= 8.95D-09
 IDIUse=1 WtCom= 1.00D+00 WtEn= 0.00D+00
 Coeff-Com: -0.123D-02 0.974D-02 0.349D-01 0.110D+00 0.273D+00 0.574D+00
 Coeff:     -0.123D-02 0.974D-02 0.349D-01 0.110D+00 0.273D+00 0.574D+00
 Gap=     0.270 Goal=   None    Shift=    0.000
 RMSDP=2.20D-08 MaxDP=2.40D-06 DE=-6.05D-09 OVMax= 8.44D-06

 Cycle  15  Pass 1  IDiag  1:
 RMSU=  1.90D-08    CP:  1.00D+00  1.00D+00  8.01D-01  8.75D-01  8.93D-01
                    CP:  8.10D-01
 E= -613.627549098289     Delta-E=       -0.000000000180 Rises=F Damp=F
 DIIS: error= 4.84D-07 at cycle   7 NSaved=   7.
 NSaved= 7 IEnMin= 7 EnMin= -613.627549098289     IErMin= 7 ErrMin= 4.84D-07
 ErrMax= 4.84D-07  0.00D+00 EMaxC= 1.00D-01 BMatC= 1.46D-10 BMatP= 4.10D-10
 IDIUse=1 WtCom= 1.00D+00 WtEn= 0.00D+00
 Coeff-Com: -0.354D-03-0.709D-04 0.412D-03 0.113D-01 0.497D-01 0.382D+00
 Coeff-Com:  0.557D+00
 Coeff:     -0.354D-03-0.709D-04 0.412D-03 0.113D-01 0.497D-01 0.382D+00
 Coeff:      0.557D+00
 Gap=     0.270 Goal=   None    Shift=    0.000
 RMSDP=1.45D-08 MaxDP=1.41D-06 DE=-1.80D-10 OVMax= 3.19D-06

 Cycle  16  Pass 1  IDiag  1:
 RMSU=  6.89D-09    CP:  1.00D+00  1.00D+00  8.01D-01  8.89D-01  9.15D-01
                    CP:  9.93D-01  7.56D-01
 E= -613.627549098341     Delta-E=       -0.000000000051 Rises=F Damp=F
 DIIS: error= 1.08D-07 at cycle   8 NSaved=   8.
 NSaved= 8 IEnMin= 8 EnMin= -613.627549098341     IErMin= 8 ErrMin= 1.08D-07
 ErrMax= 1.08D-07  0.00D+00 EMaxC= 1.00D-01 BMatC= 1.05D-11 BMatP= 1.46D-10
 IDIUse=1 WtCom= 1.00D+00 WtEn= 0.00D+00
 Coeff-Com: -0.366D-04-0.122D-02-0.395D-02-0.727D-02-0.721D-02 0.135D+00
 Coeff-Com:  0.288D+00 0.597D+00
 Coeff:     -0.366D-04-0.122D-02-0.395D-02-0.727D-02-0.721D-02 0.135D+00
 Coeff:      0.288D+00 0.597D+00
 Gap=     0.270 Goal=   None    Shift=    0.000
 RMSDP=3.42D-09 MaxDP=3.58D-07 DE=-5.14D-11 OVMax= 6.60D-07

 SCF Done:  E(RM06) =  -613.627549098     A.U. after   16 cycles
            NFock= 16  Conv=0.34D-08     -V/T= 2.0046
 KE= 6.108047560196D+02 PE=-3.186261071110D+03 EE= 1.084426420411D+03
 Leave Link  502 at Tue Jun 17 15:58:11 2014, MaxMem=  4294967296 cpu:     27508.6
 (Enter /home/ztw1e12/g09/l801.exe)
 DoSCS=F DFT=T ScalE2(SS,OS)=  1.000000  1.000000
 Range of M.O.s used for correlation:     1   932
 NBasis=  1036 NAE=    51 NBE=    51 NFC=     0 NFV=     0
 NROrb=    932 NOA=    51 NOB=    51 NVA=   881 NVB=   881

 **** Warning!!: The largest alpha MO coefficient is  0.12181288D+02

 Leave Link  801 at Tue Jun 17 15:58:12 2014, MaxMem=  4294967296 cpu:         0.4
 (Enter /home/ztw1e12/g09/l1002.exe)
 Minotr:  Closed shell wavefunction.
          IDoAtm=1111111111111111111111111111111
          Direct CPHF calculation.
          Differentiating once with respect to Fermi-contact.
          Electric field/nuclear overlap derivatives assumed to be zero.
          Requested convergence is 1.0D-10 RMS, and 1.0D-09 maximum.
          Secondary convergence is 1.0D-12 RMS, and 1.0D-12 maximum.
          NewPWx=T KeepS1=F KeepF1=F KeepIn=T MapXYZ=F SortEE=F KeepMc=T.
          MDV=    4294966050 using IRadAn=  199590.
 Using stored XC quadrature information.
          Solving linear equations simultaneously, MaxMat=       0.
          There are    31 degrees of freedom in the 1st order CPHF.  IDoFFX=0 NUNeed=    31.
     31 vectors produced by pass  0 Test12= 1.45D-17 3.23D-11 XBig12= 4.16D+01 2.57D+00.
 AX will form    31 AO Fock derivatives at one time.
 FoFJK:  IHMeth= 1 ICntrl=       0 DoSepK=F KAlg= 0 I1Cent=   0 FoldK=F
 IRaf= 500000000 NMat=  31 IRICut=       1 DoRegI=T DoRafI=F ISym2E=-1.
 FoFCou: FMM=F IPFlag=           0 FMFlag=      100000 FMFlg1=           0
         NFxFlg=           0 DoJE=F BraDBF=F KetDBF=F FulRan=T
         wScrn=  0.000000 ICntrl=       0 IOpCl=  0 I1Cent=           0 NGrid=           0
         NMat0=   31 NMatS0=      0 NMatT0=   31 NMatD0=   31 NMtDS0=    0 NMtDT0=    0
 Petite list used in FoFCou.
     31 vectors produced by pass  1 Test12= 1.45D-17 3.23D-11 XBig12= 3.48D-01 1.77D-01.
     31 vectors produced by pass  2 Test12= 1.45D-17 3.23D-11 XBig12= 1.72D-02 4.75D-02.
     31 vectors produced by pass  3 Test12= 1.45D-17 3.23D-11 XBig12= 3.88D-04 6.48D-03.
     31 vectors produced by pass  4 Test12= 1.45D-17 3.23D-11 XBig12= 6.34D-06 9.46D-04.
     31 vectors produced by pass  5 Test12= 1.45D-17 3.23D-11 XBig12= 1.36D-07 1.87D-04.
     31 vectors produced by pass  6 Test12= 1.45D-17 3.23D-11 XBig12= 3.39D-09 2.29D-05.
     31 vectors produced by pass  7 Test12= 1.45D-17 3.23D-11 XBig12= 1.07D-10 4.21D-06.
     31 vectors produced by pass  8 Test12= 1.45D-17 3.23D-11 XBig12= 2.71D-12 3.79D-07.
     31 vectors produced by pass  9 Test12= 1.45D-17 3.23D-11 XBig12= 7.55D-14 8.31D-08.
     31 vectors produced by pass 10 Test12= 1.45D-17 3.23D-11 XBig12= 2.77D-15 8.61D-09.
     30 vectors produced by pass 11 Test12= 1.45D-17 3.23D-11 XBig12= 2.57D-17 7.08D-10.
      7 vectors produced by pass 12 Test12= 1.45D-17 3.23D-11 XBig12= 2.42D-19 4.28D-11.
 InvSVY:  IOpt=1 It=  1 EMax= 7.11D-15
 Solved reduced A of dimension   378 with    31 vectors.
 Max diff in FC couplings:  IJMax=     8     1 Diff= 3.76D-04 IJMaxR=    19    13 DiffR= 3.60D-01
 Fermi Contact (FC) contribution to K (Hz):
                1             2             3             4             5 
      1  0.123400D+11
      2  0.270063D+02  0.123400D+11
      3 -0.105102D+01  0.188674D+02  0.123400D+11
      4 -0.871707D-01  0.238582D+01 -0.323394D-01  0.123400D+11
      5 -0.138987D-01  0.215999D+00 -0.237000D-02  0.175927D+02  0.123400D+11
      6 -0.140514D-02  0.755079D-03 -0.192647D-02  0.171203D+02 -0.767293D+00
      7  0.280044D-02 -0.261290D-01 -0.326368D-03  0.172071D+02 -0.763033D+00
      8 -0.969046D+01  0.270915D+01  0.412693D+00  0.524441D-01  0.198777D-02
      9  0.140479D+00  0.193992D+02 -0.685476D+00 -0.593468D-01 -0.101452D-01
     10  0.418051D-01  0.230554D+00  0.177393D+00  0.189289D-01  0.840214D-03
     11  0.289804D+02  0.137729D+02  0.163979D+00 -0.874741D-02  0.104592D-02
     12  0.474629D+00  0.118325D+00 -0.218884D-01  0.715028D-03 -0.214218D-03
     13 -0.381973D+00  0.110732D+01  0.784292D-02 -0.182586D-02 -0.621110D-03
     14  0.180246D+00 -0.876799D-01  0.151842D-01  0.125560D-02  0.358574D-03
     15  0.210521D+00 -0.780199D-01  0.908623D-02  0.350529D-03  0.276727D-03
     16  0.963250D+00 -0.264078D-01 -0.613694D-03  0.592971D-04  0.531339D-05
     17  0.144077D+00 -0.411666D+00  0.276906D+00  0.545633D-01  0.226185D-02
     18 -0.163299D+00  0.887165D+00 -0.816170D-01 -0.325488D-02 -0.610741D-03
     19 -0.197715D-02  0.107422D+00 -0.183454D-02  0.662123D-03  0.143212D-04
     20  0.607332D-01  0.154154D-01  0.178942D-01  0.229962D-03  0.458432D-04
     21  0.746481D-01  0.425519D-01  0.247381D-01  0.471190D-03 -0.632969D-04
     22  0.484753D+00  0.912123D+00  0.244578D+00  0.304583D-01  0.704899D-02
     23  0.927674D+00 -0.427867D+00  0.105317D+01  0.170109D+02 -0.518289D+00
     24 -0.251268D-01  0.144060D+00 -0.187410D-01 -0.713940D+00  0.140309D+00
     25 -0.149029D-01  0.352576D+00 -0.445800D-02 -0.200809D+00  0.300883D+00
     26  0.228106D-02 -0.789347D-02  0.672149D-02  0.327333D+00 -0.406291D-02
     27  0.409000D-01  0.957398D-02  0.739915D-02  0.147112D+01  0.105055D-02
     28  0.849833D-02  0.208661D-02  0.804792D-02  0.457719D+00 -0.119615D-01
     29 -0.390186D+00  0.164311D+02 -0.860780D+00  0.319433D+00  0.140247D+01
     30  0.971498D+00 -0.928763D+00  0.840998D-01  0.528237D+00  0.349369D-02
     31  0.483075D-01 -0.394440D+00  0.228907D+00  0.208496D+00 -0.347686D-02
                6             7             8             9            10 
      6  0.123400D+11
      7 -0.750727D+00  0.123400D+11
      8  0.724270D-02  0.244643D-01  0.123400D+11
      9  0.646337D-03  0.737108D-02  0.287376D+00  0.123400D+11
     10  0.135413D-05 -0.117432D-03  0.520202D-02  0.318931D+02  0.123400D+11
     11  0.190743D-02  0.245283D-02  0.644203D+01  0.116167D+01  0.174549D+00
     12 -0.808687D-05 -0.205597D-03  0.477684D+00  0.477664D-01 -0.619296D-05
     13  0.538286D-04  0.100096D-02  0.632601D+00  0.294706D+00  0.150376D-01
     14  0.322292D-04  0.643424D-03  0.238888D+00 -0.816559D-02 -0.109502D-02
     15  0.000000D+00  0.225646D-03  0.245986D+00 -0.377289D-02 -0.109371D-02
     16  0.000000D+00  0.667012D-04  0.178644D+00  0.221021D-01 -0.936714D-03
     17  0.182403D-02 -0.584890D-03  0.458281D-01  0.264570D+02  0.408740D+00
     18  0.534294D-05  0.116256D-03  0.702908D-01  0.125931D+02  0.947648D-01
     19  0.503494D-04 -0.200615D-04 -0.292491D-03  0.348317D+00 -0.981851D-02
     20  0.224841D-04 -0.128763D-04  0.451686D-02  0.344781D+00 -0.651832D-02
     21 -0.147905D-04  0.470110D-05  0.268237D-02  0.398250D+00 -0.167214D-01
     22  0.142784D-03 -0.193664D-03  0.525327D+00  0.568549D+01  0.421493D+00
     23 -0.563751D+00 -0.741510D+00  0.234598D+00 -0.352038D-01  0.160701D-02
     24  0.110390D+00  0.363479D+00  0.958684D-01  0.190281D-01  0.649274D-03
     25  0.129833D+01  0.432226D+00  0.158172D+01  0.135340D+01 -0.865879D-01
     26 -0.637001D-02 -0.148358D-01  0.914701D-03  0.326376D+00 -0.457105D-01
     27  0.100546D+00 -0.365864D-03 -0.191311D-01  0.381721D+00 -0.255110D-01
     28  0.146626D-01 -0.443675D-02  0.135546D-01  0.365768D+00 -0.302041D-01
     29  0.366981D+00  0.377665D+00  0.308253D+00  0.538369D+00  0.458490D+00
     30 -0.901888D-04 -0.180295D-01  0.668475D-01  0.835148D+00 -0.236622D-01
     31 -0.108825D-01 -0.782483D-02 -0.182945D-01  0.175445D+01 -0.224496D-01
               11            12            13            14            15 
     11  0.123400D+11
     12  0.313442D+02  0.123400D+11
     13  0.171582D+02  0.331967D+00  0.123400D+11
     14 -0.577048D+00  0.822853D-01  0.197175D+02  0.123400D+11
     15 -0.556424D+00  0.133538D+00  0.202527D+02 -0.733074D+00  0.123400D+11
     16 -0.401911D+00  0.290963D+00  0.182217D+02 -0.737462D+00 -0.760475D+00
     17 -0.637830D-01  0.450815D-03 -0.892531D-02  0.791485D-03  0.241558D-03
     18  0.168266D-01  0.806807D-03  0.110995D-01  0.133414D-02  0.101343D-02
     19  0.605294D-02  0.646933D-04  0.183178D-04 -0.515296D-04 -0.323036D-04
     20 -0.247381D-02 -0.165518D-03 -0.360072D-03  0.345510D-04 -0.362807D-04
     21  0.150436D-01 -0.931121D-04  0.216361D-02  0.109687D-03 -0.497408D-04
     22  0.171542D+00 -0.142163D-02  0.833670D-02  0.583484D-02  0.348009D-02
     23 -0.933107D-01  0.206042D-02  0.700683D-02  0.132711D-02 -0.937092D-03
     24  0.870972D-02  0.833073D-04  0.643334D-02  0.374198D-02  0.218406D-03
     25  0.868983D-01  0.218106D-02 -0.215575D-03  0.248599D-02 -0.115690D-02
     26  0.104220D-02 -0.337748D-04 -0.314749D-03  0.549456D-03  0.205924D-03
     27 -0.134860D-01 -0.529830D-03  0.215734D-03  0.104316D-03  0.239150D-03
     28  0.688473D-02 -0.150489D-03  0.125636D-03  0.159532D-04  0.474033D-04
     29  0.878143D-01 -0.383599D-01 -0.131362D+00  0.734176D-01  0.101720D+00
     30 -0.355743D-01 -0.642360D-02 -0.964635D-02  0.509754D-02  0.665919D-02
     31  0.583888D-01 -0.601623D-02 -0.355728D-03  0.555290D-03  0.756625D-03
               16            17            18            19            20 
     16  0.123400D+11
     17 -0.132049D-03  0.123400D+11
     18  0.185429D-03  0.272476D+02  0.123400D+11
     19  0.563480D-05 -0.757819D+00  0.170635D+02  0.123400D+11
     20  0.117746D-03 -0.118021D+01  0.178721D+02 -0.723486D+00  0.123400D+11
     21  0.338299D-03 -0.121267D+01  0.180171D+02 -0.742223D+00 -0.921980D+00
     22  0.194882D-02 -0.952027D+01  0.376264D+01  0.835918D+00  0.426754D+00
     23  0.732747D-03 -0.483678D-01  0.425090D-02  0.408850D-03 -0.135954D-02
     24  0.347470D-03 -0.332141D-03 -0.151978D-03  0.124781D-03  0.141051D-03
     25  0.785071D-03  0.399238D-01 -0.102467D-01 -0.100211D-02  0.229342D-02
     26  0.269296D-04  0.208175D-01  0.601623D-03  0.121493D-02  0.637069D-04
     27  0.518411D-04  0.325532D-01  0.106521D-02  0.121783D-02  0.728319D-03
     28  0.179028D-04  0.275679D-01 -0.162322D-02  0.262128D-03  0.537990D-03
     29  0.250393D-02  0.142294D+01 -0.369998D-01 -0.138117D-02  0.127392D-01
     30  0.376983D-03 -0.437380D-02  0.189003D-01 -0.122067D-03 -0.288590D-03
     31  0.248851D-03  0.984533D-01  0.616283D-01  0.409099D-05  0.191878D-02
               21            22            23            24            25 
     21  0.123400D+11
     22  0.446446D+00  0.123400D+11
     23 -0.652822D-04  0.620288D-01  0.123400D+11
     24  0.191372D-03  0.536349D-02  0.175515D+02  0.123400D+11
     25  0.124686D-02  0.102767D+00  0.168585D+02 -0.598226D+00  0.123400D+11
     26 -0.174842D-03  0.605686D-02 -0.660980D+00  0.357797D+00  0.160055D+02
     27  0.325906D-03  0.519985D-02 -0.629019D+00  0.134876D+00  0.181623D+02
     28  0.309345D-03  0.101310D-01 -0.660471D+00  0.105965D+00  0.172580D+02
     29 -0.502995D-02  0.185081D+00  0.173249D+02 -0.693241D+00 -0.312025D+00
     30 -0.664956D-03  0.203366D-02 -0.660325D+00  0.339261D+00  0.235458D+00
     31 -0.173995D-02 -0.595060D-02 -0.651133D+00  0.174424D+00  0.107089D+01
               26            27            28            29            30 
     26  0.123400D+11
     27 -0.733808D+00  0.123400D+11
     28 -0.814423D+00 -0.855113D+00  0.123400D+11
     29  0.358206D+00  0.136327D+00  0.113136D+01  0.123400D+11
     30 -0.187858D-01 -0.389462D-02 -0.196662D-01  0.170026D+02  0.123400D+11
     31 -0.125753D-01 -0.107748D-01  0.388179D-01  0.173299D+02 -0.896188D+00
               31 
     31  0.123400D+11
 Fermi Contact (FC) contribution to J (Hz):
                1             2             3             4             5 
      1  0.243533D+11
      2  0.532976D+02  0.243533D+11
      3 -0.824725D+01  0.148051D+03  0.385007D+12
      4 -0.172033D+00  0.470848D+01 -0.253764D+00  0.243533D+11
      5 -0.109061D+00  0.169492D+01 -0.739439D-01  0.138048D+03  0.385007D+12
      6 -0.110260D-01  0.592503D-02 -0.601059D-01  0.134342D+03 -0.239395D+02
      7  0.219748D-01 -0.205032D+00 -0.101827D-01  0.135023D+03 -0.238066D+02
      8  0.103124D+02 -0.288302D+01 -0.174622D+01 -0.558100D-01 -0.841080D-02
      9  0.796814D-01  0.110035D+02 -0.154594D+01 -0.336622D-01 -0.228803D-01
     10  0.328040D+00  0.180913D+01  0.553464D+01  0.148534D+00  0.262146D-01
     11  0.164380D+02  0.781217D+01  0.369820D+00 -0.496164D-02  0.235884D-02
     12  0.372437D+01  0.928482D+00 -0.682916D+00  0.561076D-02 -0.668358D-02
     13 -0.753832D+00  0.218533D+01  0.615426D-01 -0.360337D-02 -0.487379D-02
     14  0.141437D+01 -0.688016D+00  0.473747D+00  0.985260D-02  0.111875D-01
     15  0.165194D+01 -0.612215D+00  0.283490D+00  0.275056D-02  0.863386D-02
     16  0.755853D+01 -0.207219D+00 -0.191472D-01  0.465299D-03  0.165777D-03
     17  0.284340D+00 -0.812433D+00  0.217286D+01  0.107682D+00  0.177485D-01
     18 -0.322275D+00  0.175084D+01 -0.640441D+00 -0.642359D-02 -0.479243D-02
     19 -0.155145D-01  0.842932D+00 -0.572374D-01  0.519562D-02  0.446822D-03
     20  0.476567D+00  0.120963D+00  0.558297D+00  0.180449D-02  0.143031D-02
     21  0.585756D+00  0.333901D+00  0.771829D+00  0.369738D-02 -0.197486D-02
     22 -0.515865D+00 -0.970664D+00 -0.103488D+01 -0.324131D-01 -0.298262D-01
     23  0.183079D+01 -0.844407D+00  0.826413D+01  0.335714D+02 -0.406697D+01
     24 -0.197168D+00  0.113043D+01 -0.584719D+00 -0.560222D+01  0.437763D+01
     25 -0.294112D-01  0.695817D+00 -0.349815D-01 -0.396301D+00  0.236100D+01
     26  0.178993D-01 -0.619393D-01  0.209710D+00  0.256855D+01 -0.126763D+00
     27  0.320938D+00  0.751261D-01  0.230853D+00  0.115437D+02  0.327771D-01
     28  0.666856D-01  0.163734D-01  0.251095D+00  0.359168D+01 -0.373199D+00
     29 -0.770043D+00  0.324272D+02 -0.675446D+01  0.630409D+00  0.110051D+02
     30  0.762325D+01 -0.728791D+01  0.262391D+01  0.414502D+01  0.109003D+00
     31  0.379064D+00 -0.309513D+01  0.714187D+01  0.163605D+01 -0.108478D+00
                6             7             8             9            10 
      6  0.385007D+12
      7 -0.234227D+02  0.385007D+12
      8 -0.306458D-01 -0.103515D+00  0.708114D+10
      9  0.145767D-02  0.166239D-01 -0.878960D-01  0.201170D+10
     10  0.422487D-04 -0.366386D-02 -0.220112D-01  0.719280D+02  0.385007D+12
     11  0.430180D-02  0.553183D-02 -0.197034D+01  0.189379D+00  0.393658D+00
     12 -0.252310D-03 -0.641463D-02 -0.202121D+01  0.107727D+00 -0.193220D-03
     13  0.422388D-03  0.785444D-02 -0.673202D+00  0.167161D+00  0.117999D+00
     14  0.100555D-02  0.200748D-01 -0.101080D+01 -0.184157D-01 -0.341645D-01
     15  0.269988D-04  0.704015D-02 -0.104084D+01 -0.850894D-02 -0.341237D-01
     16  0.273434D-04  0.208108D-02 -0.755894D+00  0.498465D-01 -0.292254D-01
     17  0.143130D-01 -0.458957D-02 -0.487694D-01  0.150068D+02  0.320734D+01
     18  0.419255D-04  0.912252D-03 -0.748021D-01  0.714295D+01  0.743610D+00
     19  0.157090D-02 -0.625918D-03  0.123761D-02  0.785553D+00 -0.306337D+00
     20  0.701503D-03 -0.401740D-03 -0.191121D-01  0.777579D+00 -0.203371D+00
     21 -0.461462D-03  0.146674D-03 -0.113498D-01  0.898168D+00 -0.521706D+00
     22 -0.604158D-03  0.819446D-03  0.301452D+00 -0.173895D+01 -0.178345D+01
     23 -0.442370D+01 -0.581856D+01 -0.249655D+00 -0.199680D-01  0.126101D-01
     24  0.344416D+01  0.113405D+02 -0.405645D+00  0.429138D-01  0.202573D-01
     25  0.101878D+02  0.339163D+01 -0.168324D+01  0.767663D+00 -0.679447D+00
     26 -0.198744D+00 -0.462875D+00 -0.387035D-02  0.736070D+00 -0.142617D+01
     27  0.313703D+01 -0.114149D-01  0.809487D-01  0.860889D+00 -0.795941D+00
     28  0.457471D+00 -0.138426D+00 -0.573533D-01  0.824911D+00 -0.942365D+00
     29  0.287967D+01  0.296350D+01 -0.328037D+00  0.305370D+00  0.359773D+01
     30 -0.281389D-02 -0.562520D+00 -0.282850D+00  0.188350D+01 -0.738259D+00
     31 -0.339533D+00 -0.244134D+00  0.774091D-01  0.395678D+01 -0.700426D+00
               11            12            13            14            15 
     11  0.201170D+10
     12  0.706900D+02  0.385007D+12
     13  0.973234D+01  0.260491D+01  0.243533D+11
     14 -0.130141D+01  0.256730D+01  0.154721D+03  0.385007D+12
     15 -0.125490D+01  0.416637D+01  0.158921D+03 -0.228719D+02  0.385007D+12
     16 -0.906424D+00  0.907805D+01  0.142984D+03 -0.230088D+02 -0.237268D+02
     17 -0.361785D-01  0.353750D-02 -0.176143D-01  0.621071D-02  0.189548D-02
     18  0.954425D-02  0.633094D-02  0.219051D-01  0.104689D-01  0.795226D-02
     19  0.136511D-01  0.201843D-02  0.143738D-03 -0.160772D-02 -0.100787D-02
     20 -0.557914D-02 -0.516414D-02 -0.282545D-02  0.107799D-02 -0.113196D-02
     21  0.339275D-01 -0.290509D-02  0.169776D-01  0.342222D-02 -0.155191D-02
     22 -0.524672D-01  0.601531D-02 -0.887175D-02 -0.246888D-01 -0.147252D-01
     23 -0.529270D-01  0.161679D-01  0.138282D-01  0.104137D-01 -0.735327D-02
     24  0.196429D-01  0.259918D-02  0.504818D-01  0.116749D+00  0.681425D-02
     25  0.492898D-01  0.171146D-01 -0.425444D-03  0.195073D-01 -0.907812D-02
     26  0.235045D-02 -0.105377D-02 -0.246981D-02  0.171430D-01  0.642481D-02
     27 -0.304148D-01 -0.165307D-01  0.169285D-02  0.325465D-02  0.746148D-02
     28  0.155270D-01 -0.469524D-02  0.985851D-03  0.497738D-03  0.147898D-02
     29  0.498093D-01 -0.301007D+00 -0.259247D+00  0.576101D+00  0.798186D+00
     30 -0.802301D-01 -0.200416D+00 -0.756940D-01  0.159043D+00  0.207766D+00
     31  0.131683D+00 -0.187706D+00 -0.279136D-02  0.173250D-01  0.236067D-01
               16            17            18            19            20 
     16  0.385007D+12
     17 -0.103618D-02  0.243533D+11
     18  0.145505D-02  0.537739D+02  0.243533D+11
     19  0.175806D-03 -0.594653D+01  0.133896D+03  0.385007D+12
     20  0.367368D-02 -0.926100D+01  0.140241D+03 -0.225727D+02  0.385007D+12
     21  0.105549D-01 -0.951567D+01  0.141378D+03 -0.231573D+02 -0.287657D+02
     22 -0.824600D-02  0.101313D+02 -0.400413D+01 -0.353700D+01 -0.180571D+01
     23  0.574980D-02 -0.954550D-01  0.838925D-02  0.320820D-02 -0.106681D-01
     24  0.108410D-01 -0.260628D-02 -0.119255D-02  0.389315D-02  0.440077D-02
     25  0.616038D-02  0.787907D-01 -0.202220D-01 -0.786345D-02  0.179963D-01
     26  0.840204D-03  0.163353D+00  0.472088D-02  0.379058D-01  0.198765D-02
     27  0.161744D-02  0.255442D+00  0.835861D-02  0.379963D-01  0.227235D-01
     28  0.558568D-03  0.216323D+00 -0.127373D-01  0.817839D-02  0.167853D-01
     29  0.196481D-01  0.280820D+01 -0.730201D-01 -0.108379D-01  0.999636D-01
     30  0.117619D-01 -0.343208D-01  0.148309D+00 -0.380850D-02 -0.900400D-02
     31  0.776413D-02  0.772554D+00  0.483592D+00  0.127639D-03  0.598658D-01
               21            22            23            24            25 
     21  0.385007D+12
     22 -0.188903D+01  0.708114D+10
     23 -0.512263D-03 -0.660099D-01  0.243533D+11
     24  0.597081D-02 -0.226944D-01  0.137725D+03  0.385007D+12
     25  0.978399D-02 -0.109362D+00  0.332707D+02 -0.469422D+01  0.243533D+11
     26 -0.545505D-02 -0.256282D-01 -0.518665D+01  0.111633D+02  0.125594D+03
     27  0.101683D-01 -0.220020D-01 -0.493585D+01  0.420813D+01  0.142518D+03
     28  0.965156D-02 -0.428672D-01 -0.518265D+01  0.330609D+01  0.135422D+03
     29 -0.394695D-01 -0.196960D+00  0.341911D+02 -0.543980D+01 -0.615789D+00
     30 -0.207466D-01 -0.860496D-02 -0.518151D+01  0.105849D+02  0.184761D+01
     31 -0.542863D-01  0.251786D-01 -0.510938D+01  0.544202D+01  0.840314D+01
               26            27            28            29            30 
     26  0.385007D+12
     27 -0.228948D+02  0.385007D+12
     28 -0.254100D+02 -0.266795D+02  0.385007D+12
     29  0.281080D+01  0.106974D+01  0.887764D+01  0.243533D+11
     30 -0.586117D+00 -0.121512D+00 -0.613584D+00  0.133418D+03  0.385007D+12
     31 -0.392350D+00 -0.336172D+00  0.121112D+01  0.135986D+03 -0.279610D+02
               31 
     31  0.385007D+12
 End of Minotr F.D. properties file   721 does not exist.
 End of Minotr F.D. properties file   722 does not exist.
 End of Minotr F.D. properties file   788 does not exist.
 Leave Link 1002 at Tue Jun 17 22:31:28 2014, MaxMem=  4294967296 cpu:    376612.4
 (Enter /home/ztw1e12/g09/l601.exe)
 Copying SCF densities to generalized density rwf, IOpCl= 0 IROHF=0.

 **********************************************************************

            Population analysis using the SCF density.

 **********************************************************************

 Orbital symmetries:
       Occupied  (A) (A) (A) (A) (A) (A) (A) (A) (A) (A) (A) (A)
                 (A) (A) (A) (A) (A) (A) (A) (A) (A) (A) (A) (A)
                 (A) (A) (A) (A) (A) (A) (A) (A) (A) (A) (A) (A)
                 (A) (A) (A) (A) (A) (A) (A) (A) (A) (A) (A) (A)
                 (A) (A) (A)
       Virtual   (A) (A) (A) (A) (A) (A) (A) (A) (A) (A) (A) (A)
                 (A) (A) (A) (A) (A) (A) (A) (A) (A) (A) (A) (A)
                 (A) (A) (A) (A) (A) (A) (A) (A) (A) (A) (A) (A)
                 (A) (A) (A) (A) (A) (A) (A) (A) (A) (A) (A) (A)
                 (A) (A) (A) (A) (A) (A) (A) (A) (A) (A) (A) (A)
                 (A) (A) (A) (A) (A) (A) (A) (A) (A) (A) (A) (A)
                 (A) (A) (A) (A) (A) (A) (A) (A) (A) (A) (A) (A)
                 (A) (A) (A) (A) (A) (A) (A) (A) (A) (A) (A) (A)
                 (A) (A) (A) (A) (A) (A) (A) (A) (A) (A) (A) (A)
                 (A) (A) (A) (A) (A) (A) (A) (A) (A) (A) (A) (A)
                 (A) (A) (A) (A) (A) (A) (A) (A) (A) (A) (A) (A)
                 (A) (A) (A) (A) (A) (A) (A) (A) (A) (A) (A) (A)
                 (A) (A) (A) (A) (A) (A) (A) (A) (A) (A) (A) (A)
                 (A) (A) (A) (A) (A) (A) (A) (A) (A) (A) (A) (A)
                 (A) (A) (A) (A) (A) (A) (A) (A) (A) (A) (A) (A)
                 (A) (A) (A) (A) (A) (A) (A) (A) (A) (A) (A) (A)
                 (A) (A) (A) (A) (A) (A) (A) (A) (A) (A) (A) (A)
                 (A) (A) (A) (A) (A) (A) (A) (A) (A) (A) (A) (A)
                 (A) (A) (A) (A) (A) (A) (A) (A) (A) (A) (A) (A)
                 (A) (A) (A) (A) (A) (A) (A) (A) (A) (A) (A) (A)
                 (A) (A) (A) (A) (A) (A) (A) (A) (A) (A) (A) (A)
                 (A) (A) (A) (A) (A) (A) (A) (A) (A) (A) (A) (A)
                 (A) (A) (A) (A) (A) (A) (A) (A) (A) (A) (A) (A)
                 (A) (A) (A) (A) (A) (A) (A) (A) (A) (A) (A) (A)
                 (A) (A) (A) (A) (A) (A) (A) (A) (A) (A) (A) (A)
                 (A) (A) (A) (A) (A) (A) (A) (A) (A) (A) (A) (A)
                 (A) (A) (A) (A) (A) (A) (A) (A) (A) (A) (A) (A)
                 (A) (A) (A) (A) (A) (A) (A) (A) (A) (A) (A) (A)
                 (A) (A) (A) (A) (A) (A) (A) (A) (A) (A) (A) (A)
                 (A) (A) (A) (A) (A) (A) (A) (A) (A) (A) (A) (A)
                 (A) (A) (A) (A) (A) (A) (A) (A) (A) (A) (A) (A)
                 (A) (A) (A) (A) (A) (A) (A) (A) (A) (A) (A) (A)
                 (A) (A) (A) (A) (A) (A) (A) (A) (A) (A) (A) (A)
                 (A) (A) (A) (A) (A) (A) (A) (A) (A) (A) (A) (A)
                 (A) (A) (A) (A) (A) (A) (A) (A) (A) (A) (A) (A)
                 (A) (A) (A) (A) (A) (A) (A) (A) (A) (A) (A) (A)
                 (A) (A) (A) (A) (A) (A) (A) (A) (A) (A) (A) (A)
                 (A) (A) (A) (A) (A) (A) (A) (A) (A) (A) (A) (A)
                 (A) (A) (A) (A) (A) (A) (A) (A) (A) (A) (A) (A)
                 (A) (A) (A) (A) (A) (A) (A) (A) (A) (A) (A) (A)
                 (A) (A) (A) (A) (A) (A) (A) (A) (A) (A) (A) (A)
                 (A) (A) (A) (A) (A) (A) (A) (A) (A) (A) (A) (A)
                 (A) (A) (A) (A) (A) (A) (A) (A) (A) (A) (A) (A)
                 (A) (A) (A) (A) (A) (A) (A) (A) (A) (A) (A) (A)
                 (A) (A) (A) (A) (A) (A) (A) (A) (A) (A) (A) (A)
                 (A) (A) (A) (A) (A) (A) (A) (A) (A) (A) (A) (A)
                 (A) (A) (A) (A) (A) (A) (A) (A) (A) (A) (A) (A)
                 (A) (A) (A) (A) (A) (A) (A) (A) (A) (A) (A) (A)
                 (A) (A) (A) (A) (A) (A) (A) (A) (A) (A) (A) (A)
                 (A) (A) (A) (A) (A) (A) (A) (A) (A) (A) (A) (A)
                 (A) (A) (A) (A) (A) (A) (A) (A) (A) (A) (A) (A)
                 (A) (A) (A) (A) (A) (A) (A) (A) (A) (A) (A) (A)
                 (A) (A) (A) (A) (A) (A) (A) (A) (A) (A) (A) (A)
                 (A) (A) (A) (A) (A) (A) (A) (A) (A) (A) (A) (A)
                 (A) (A) (A) (A) (A) (A) (A) (A) (A) (A) (A) (A)
                 (A) (A) (A) (A) (A) (A) (A) (A) (A) (A) (A) (A)
                 (A) (A) (A) (A) (A) (A) (A) (A) (A) (A) (A) (A)
                 (A) (A) (A) (A) (A) (A) (A) (A) (A) (A) (A) (A)
                 (A) (A) (A) (A) (A) (A) (A) (A) (A) (A) (A) (A)
                 (A) (A) (A) (A) (A) (A) (A) (A) (A) (A) (A) (A)
                 (A) (A) (A) (A) (A) (A) (A) (A) (A) (A) (A) (A)
                 (A) (A) (A) (A) (A) (A) (A) (A) (A) (A) (A) (A)
                 (A) (A) (A) (A) (A) (A) (A) (A) (A) (A) (A) (A)
                 (A) (A) (A) (A) (A) (A) (A) (A) (A) (A) (A) (A)
                 (A) (A) (A) (A) (A) (A) (A) (A) (A) (A) (A) (A)
                 (A) (A) (A) (A) (A) (A) (A) (A) (A) (A) (A) (A)
                 (A) (A) (A) (A) (A) (A) (A) (A) (A) (A) (A) (A)
                 (A) (A) (A) (A) (A) (A) (A) (A) (A) (A) (A) (A)
                 (A) (A) (A) (A) (A) (A) (A) (A) (A) (A) (A) (A)
                 (A) (A) (A) (A) (A) (A) (A) (A) (A) (A) (A) (A)
                 (A) (A) (A) (A) (A) (A) (A) (A) (A) (A) (A) (A)
                 (A) (A) (A) (A) (A) (A) (A) (A) (A) (A) (A) (A)
                 (A) (A) (A) (A) (A) (A) (A) (A) (A) (A) (A) (A)
                 (A) (A) (A) (A) (A)
 The electronic state is 1-A.
 Alpha  occ. eigenvalues --  -19.17187 -19.16370 -14.41833 -14.41327 -10.33423
 Alpha  occ. eigenvalues --  -10.33259 -10.29160 -10.27119 -10.25691 -10.25285
 Alpha  occ. eigenvalues --  -10.23713 -10.23429 -10.23038  -1.05379  -1.04039
 Alpha  occ. eigenvalues --   -0.94322  -0.94128  -0.83941  -0.78586  -0.74318
 Alpha  occ. eigenvalues --   -0.71990  -0.70183  -0.66086  -0.60973  -0.59583
 Alpha  occ. eigenvalues --   -0.58275  -0.54659  -0.50805  -0.49632  -0.48711
 Alpha  occ. eigenvalues --   -0.46869  -0.46419  -0.45331  -0.44886  -0.44296
 Alpha  occ. eigenvalues --   -0.42473  -0.41431  -0.40755  -0.40386  -0.40163
 Alpha  occ. eigenvalues --   -0.39986  -0.38925  -0.37590  -0.36533  -0.35033
 Alpha  occ. eigenvalues --   -0.34721  -0.33868  -0.28239  -0.27532  -0.26127
 Alpha  occ. eigenvalues --   -0.25940
 Alpha virt. eigenvalues --    0.01030   0.02774   0.02840   0.03841   0.04486
 Alpha virt. eigenvalues --    0.04914   0.06363   0.07356   0.07632   0.08595
 Alpha virt. eigenvalues --    0.09425   0.10742   0.10953   0.11891   0.12117
 Alpha virt. eigenvalues --    0.12703   0.12811   0.13491   0.14375   0.14943
 Alpha virt. eigenvalues --    0.16413   0.16625   0.18352   0.18554   0.18954
 Alpha virt. eigenvalues --    0.21274   0.22303   0.22751   0.24062   0.25124
 Alpha virt. eigenvalues --    0.25326   0.26307   0.26495   0.27372   0.28307
 Alpha virt. eigenvalues --    0.28605   0.29084   0.30815   0.31354   0.31997
 Alpha virt. eigenvalues --    0.32793   0.34581   0.34862   0.35749   0.36052
 Alpha virt. eigenvalues --    0.36848   0.37455   0.37576   0.38840   0.38970
 Alpha virt. eigenvalues --    0.39278   0.40188   0.40382   0.40866   0.41462
 Alpha virt. eigenvalues --    0.41671   0.41906   0.42101   0.42737   0.43340
 Alpha virt. eigenvalues --    0.43600   0.44089   0.44659   0.44762   0.45018
 Alpha virt. eigenvalues --    0.46239   0.46467   0.47303   0.47516   0.47861
 Alpha virt. eigenvalues --    0.49168   0.50541   0.51139   0.52520   0.52856
 Alpha virt. eigenvalues --    0.53370   0.54556   0.55741   0.56115   0.57462
 Alpha virt. eigenvalues --    0.57883   0.59008   0.60541   0.61060   0.61426
 Alpha virt. eigenvalues --    0.62537   0.63251   0.64879   0.66789   0.67635
 Alpha virt. eigenvalues --    0.67860   0.71193   0.71376   0.72731   0.74101
 Alpha virt. eigenvalues --    0.75161   0.75652   0.76852   0.77162   0.78291
 Alpha virt. eigenvalues --    0.79295   0.80599   0.81226   0.82321   0.83831
 Alpha virt. eigenvalues --    0.84685   0.85061   0.86021   0.86935   0.87569
 Alpha virt. eigenvalues --    0.88095   0.88590   0.89121   0.89805   0.90979
 Alpha virt. eigenvalues --    0.92269   0.92841   0.93986   0.94734   0.94991
 Alpha virt. eigenvalues --    0.95474   0.95994   0.96474   0.97403   0.98037
 Alpha virt. eigenvalues --    0.99311   1.00174   1.01482   1.01748   1.02656
 Alpha virt. eigenvalues --    1.02777   1.04252   1.04694   1.04914   1.06498
 Alpha virt. eigenvalues --    1.07174   1.08173   1.09032   1.09711   1.10074
 Alpha virt. eigenvalues --    1.11491   1.11963   1.12255   1.12455   1.14424
 Alpha virt. eigenvalues --    1.14836   1.15987   1.17626   1.18034   1.18659
 Alpha virt. eigenvalues --    1.19383   1.19670   1.20508   1.20858   1.21393
 Alpha virt. eigenvalues --    1.21945   1.22244   1.22596   1.23449   1.23982
 Alpha virt. eigenvalues --    1.24386   1.24751   1.25567   1.26318   1.26638
 Alpha virt. eigenvalues --    1.27264   1.27819   1.28046   1.28756   1.29220
 Alpha virt. eigenvalues --    1.29505   1.30847   1.30892   1.32578   1.32904
 Alpha virt. eigenvalues --    1.33634   1.34063   1.35539   1.36261   1.36852
 Alpha virt. eigenvalues --    1.37458   1.38841   1.39389   1.40889   1.42658
 Alpha virt. eigenvalues --    1.43736   1.44508   1.45764   1.47446   1.48286
 Alpha virt. eigenvalues --    1.49954   1.50840   1.52673   1.53979   1.54624
 Alpha virt. eigenvalues --    1.56462   1.57311   1.60744   1.61651   1.63178
 Alpha virt. eigenvalues --    1.64153   1.67021   1.68515   1.69834   1.72966
 Alpha virt. eigenvalues --    1.74386   1.74487   1.77728   1.79586   1.82117
 Alpha virt. eigenvalues --    1.85277   1.87703   1.89778   1.90771   1.91652
 Alpha virt. eigenvalues --    1.93720   1.96867   1.97240   1.98558   1.99120
 Alpha virt. eigenvalues --    2.02555   2.03394   2.04802   2.06095   2.07362
 Alpha virt. eigenvalues --    2.08015   2.09379   2.11879   2.14342   2.15346
 Alpha virt. eigenvalues --    2.17321   2.19323   2.19655   2.19675   2.21434
 Alpha virt. eigenvalues --    2.24276   2.25796   2.27440   2.29828   2.30432
 Alpha virt. eigenvalues --    2.32097   2.33968   2.35479   2.36664   2.40165
 Alpha virt. eigenvalues --    2.40767   2.41803   2.42473   2.42738   2.44366
 Alpha virt. eigenvalues --    2.44917   2.46085   2.47350   2.48412   2.49320
 Alpha virt. eigenvalues --    2.50839   2.52010   2.53117   2.54579   2.55838
 Alpha virt. eigenvalues --    2.56635   2.57117   2.57858   2.60392   2.61696
 Alpha virt. eigenvalues --    2.64351   2.65937   2.67356   2.68281   2.69799
 Alpha virt. eigenvalues --    2.70351   2.71013   2.71272   2.72024   2.72836
 Alpha virt. eigenvalues --    2.73248   2.74276   2.75339   2.76814   2.77662
 Alpha virt. eigenvalues --    2.78709   2.80300   2.81620   2.81975   2.83915
 Alpha virt. eigenvalues --    2.84403   2.85352   2.85939   2.86916   2.87517
 Alpha virt. eigenvalues --    2.87702   2.88381   2.90199   2.91390   2.91695
 Alpha virt. eigenvalues --    2.91936   2.92390   2.93531   2.93820   2.94775
 Alpha virt. eigenvalues --    2.95552   2.96924   2.97220   2.98356   2.99349
 Alpha virt. eigenvalues --    2.99840   3.00818   3.01576   3.02087   3.03186
 Alpha virt. eigenvalues --    3.03234   3.04432   3.05083   3.05373   3.06661
 Alpha virt. eigenvalues --    3.07142   3.07982   3.08495   3.09213   3.10384
 Alpha virt. eigenvalues --    3.11104   3.12240   3.12718   3.14422   3.15140
 Alpha virt. eigenvalues --    3.16595   3.17780   3.18062   3.19153   3.20259
 Alpha virt. eigenvalues --    3.21078   3.21550   3.22680   3.23841   3.24191
 Alpha virt. eigenvalues --    3.24453   3.26652   3.27399   3.27423   3.28364
 Alpha virt. eigenvalues --    3.28675   3.29738   3.30119   3.31345   3.31777
 Alpha virt. eigenvalues --    3.32679   3.32812   3.33657   3.35959   3.36421
 Alpha virt. eigenvalues --    3.36670   3.37660   3.38282   3.39204   3.39781
 Alpha virt. eigenvalues --    3.40515   3.41546   3.41859   3.42476   3.43551
 Alpha virt. eigenvalues --    3.44646   3.45514   3.45746   3.46408   3.46895
 Alpha virt. eigenvalues --    3.48352   3.50146   3.50627   3.51196   3.53168
 Alpha virt. eigenvalues --    3.54367   3.55393   3.56435   3.59313   3.59551
 Alpha virt. eigenvalues --    3.60215   3.61806   3.63623   3.64763   3.65230
 Alpha virt. eigenvalues --    3.67355   3.68365   3.69209   3.69793   3.70463
 Alpha virt. eigenvalues --    3.72467   3.72827   3.73419   3.75262   3.75579
 Alpha virt. eigenvalues --    3.75977   3.77677   3.78046   3.79080   3.79606
 Alpha virt. eigenvalues --    3.81842   3.82583   3.83309   3.84090   3.84371
 Alpha virt. eigenvalues --    3.85608   3.86100   3.87009   3.87569   3.89361
 Alpha virt. eigenvalues --    3.90085   3.91519   3.92669   3.93706   3.93979
 Alpha virt. eigenvalues --    3.95308   3.96231   3.97197   3.98519   3.99270
 Alpha virt. eigenvalues --    4.00930   4.02445   4.03723   4.05090   4.05512
 Alpha virt. eigenvalues --    4.06711   4.07437   4.07788   4.08978   4.09876
 Alpha virt. eigenvalues --    4.11227   4.11911   4.12637   4.12897   4.14273
 Alpha virt. eigenvalues --    4.16346   4.17198   4.17343   4.19221   4.19692
 Alpha virt. eigenvalues --    4.20914   4.21615   4.21947   4.24378   4.24587
 Alpha virt. eigenvalues --    4.26023   4.26801   4.27275   4.28739   4.29916
 Alpha virt. eigenvalues --    4.30214   4.30662   4.31465   4.34175   4.36437
 Alpha virt. eigenvalues --    4.37270   4.37559   4.39657   4.41802   4.42601
 Alpha virt. eigenvalues --    4.43652   4.44369   4.46241   4.46986   4.48243
 Alpha virt. eigenvalues --    4.50290   4.52265   4.53940   4.55609   4.56422
 Alpha virt. eigenvalues --    4.56634   4.58986   4.59940   4.60216   4.60842
 Alpha virt. eigenvalues --    4.61468   4.62521   4.64363   4.65621   4.65710
 Alpha virt. eigenvalues --    4.66901   4.67396   4.70152   4.71014   4.72093
 Alpha virt. eigenvalues --    4.72578   4.73571   4.74551   4.75838   4.77768
 Alpha virt. eigenvalues --    4.79133   4.79173   4.79533   4.81715   4.81960
 Alpha virt. eigenvalues --    4.84603   4.86601   4.88069   4.90149   4.90834
 Alpha virt. eigenvalues --    4.91210   4.93453   4.94891   4.95928   4.96649
 Alpha virt. eigenvalues --    4.97976   4.99096   5.00206   5.01659   5.02434
 Alpha virt. eigenvalues --    5.02853   5.05132   5.06187   5.08055   5.10731
 Alpha virt. eigenvalues --    5.10841   5.12718   5.13587   5.14356   5.15424
 Alpha virt. eigenvalues --    5.16965   5.17820   5.18879   5.19434   5.19969
 Alpha virt. eigenvalues --    5.21776   5.22844   5.23236   5.23919   5.24569
 Alpha virt. eigenvalues --    5.26238   5.27194   5.28898   5.29912   5.30801
 Alpha virt. eigenvalues --    5.31740   5.35275   5.36313   5.40044   5.40265
 Alpha virt. eigenvalues --    5.41601   5.44483   5.45237   5.48382   5.50574
 Alpha virt. eigenvalues --    5.52724   5.53939   5.56307   5.57891   5.58773
 Alpha virt. eigenvalues --    5.60045   5.61838   5.62461   5.64462   5.65387
 Alpha virt. eigenvalues --    5.66973   5.68519   5.69293   5.71562   5.72031
 Alpha virt. eigenvalues --    5.73515   5.75438   5.76056   5.76552   5.79078
 Alpha virt. eigenvalues --    5.80684   5.81384   5.83202   5.86032   5.89144
 Alpha virt. eigenvalues --    5.90837   5.95533   5.99437   6.02513   6.06629
 Alpha virt. eigenvalues --    6.11634   6.18747   6.21487   6.23139   6.27004
 Alpha virt. eigenvalues --    6.52659   6.54001   6.58162   6.62154   6.64502
 Alpha virt. eigenvalues --    6.66706   6.77992   6.81938   6.90394   6.92072
 Alpha virt. eigenvalues --    6.93152   6.93878   7.18463   7.20309   7.24472
 Alpha virt. eigenvalues --    7.27753   8.13355   8.28070   8.66428   8.73319
 Alpha virt. eigenvalues --    8.78663   8.79058   8.82428   8.82685   8.83523
 Alpha virt. eigenvalues --    8.86589   8.88251   8.88817   8.91575   8.92884
 Alpha virt. eigenvalues --    8.94169   8.94847   8.96915   8.98799   9.01111
 Alpha virt. eigenvalues --    9.05468   9.09207   9.11179   9.14078   9.16371
 Alpha virt. eigenvalues --    9.23727   9.59707   9.62103   9.77506   9.83496
 Alpha virt. eigenvalues --    9.90318   9.95556  10.10875  10.12078  10.15096
 Alpha virt. eigenvalues --   10.18068  10.19609  10.20457  10.21736  10.25961
 Alpha virt. eigenvalues --   10.27462  10.29867  10.31383  10.33103  10.33957
 Alpha virt. eigenvalues --   10.39682  11.75179  11.82909  12.04230  12.14075
 Alpha virt. eigenvalues --   12.15371  12.20648  12.24556  12.24628  12.31142
 Alpha virt. eigenvalues --   12.39914  12.47272  12.55757  12.59166  12.83871
 Alpha virt. eigenvalues --   12.92609  14.97187  15.02653  15.24321  15.27223
 Alpha virt. eigenvalues --   15.99714  16.04851  16.83763  16.90233  22.01388
 Alpha virt. eigenvalues --   22.10302  40.17311  40.26056  40.66549  40.68481
 Alpha virt. eigenvalues --   40.68873  40.72534  40.73394  40.74771  40.76914
 Alpha virt. eigenvalues --   40.77926  40.80251  40.81555  40.82406  40.82731
 Alpha virt. eigenvalues --   40.83714  40.84123  40.84587  40.85321  40.86223
 Alpha virt. eigenvalues --   40.87516  40.88705  40.89996  40.90551  40.90652
 Alpha virt. eigenvalues --   40.90874  40.92522  40.93584  46.34379  46.44600
 Alpha virt. eigenvalues --   46.48120  46.53180  46.56212  46.57230  46.62939
 Alpha virt. eigenvalues --   46.72521  46.80245  54.44496  54.45468  55.78104
 Alpha virt. eigenvalues --   55.84044  55.94254  55.97927  56.05808  56.09402
 Alpha virt. eigenvalues --   56.17249  56.21944  56.24764  56.30765  56.36008
 Alpha virt. eigenvalues --   56.41660  56.48329  56.57117  56.61057  56.70094
 Alpha virt. eigenvalues --   57.46285  57.51117  57.99367  58.02607  58.19631
 Alpha virt. eigenvalues --   58.25495  64.71085  64.76880  73.94306  73.97427
 Alpha virt. eigenvalues --   74.10030  74.11252  74.63889  74.66618  86.07167
 Alpha virt. eigenvalues --   86.15184 165.43656 165.52663 165.57021 165.61131
 Alpha virt. eigenvalues --  165.64323 165.64939 165.69643 165.77941 165.85156
 Alpha virt. eigenvalues --  226.46227 226.52979 230.58275 230.63623 235.54868
 Alpha virt. eigenvalues --  235.81370 236.13957 236.28078 236.32183 236.47195
 Alpha virt. eigenvalues --  236.81163 237.13778 237.47226 237.61894 237.79704
 Alpha virt. eigenvalues --  237.96078 238.07139 238.25566 238.42706 239.05256
 Alpha virt. eigenvalues --  308.80748 308.87899 624.54967 624.60745 624.63312
 Alpha virt. eigenvalues --  624.68427 624.70334 624.70811 624.74951 624.81701
 Alpha virt. eigenvalues --  624.87360 793.73629 794.43784 825.93468 826.98432
 Alpha virt. eigenvalues --  827.12025 827.28396 827.70705 827.77917 829.20268
 Alpha virt. eigenvalues --  830.35442 831.22646 831.48819 832.16654 832.69152
 Alpha virt. eigenvalues --  832.76544 833.45629 833.62859 835.51414 868.34053
 Alpha virt. eigenvalues --  868.397271165.934321165.999822483.473852484.98897
 Alpha virt. eigenvalues -- 2588.335992589.530912593.544602593.565052596.39455
 Alpha virt. eigenvalues -- 2597.000762597.412812601.876212605.060232606.34972
 Alpha virt. eigenvalues -- 2607.515652608.077392610.014012610.183522612.48090
 Alpha virt. eigenvalues -- 2618.600842740.322372740.340312740.374692740.41561
 Alpha virt. eigenvalues -- 2740.444932740.501202740.517812740.549602740.57388
 Alpha virt. eigenvalues -- 3787.315883787.376185073.315345073.373748284.51437
 Alpha virt. eigenvalues -- 8295.136998627.682368628.319848634.192208637.29504
 Alpha virt. eigenvalues -- 8638.709278642.520538650.362058661.307368669.05442
 Alpha virt. eigenvalues -- 8670.654088676.780998680.410038681.189558686.20609
 Alpha virt. eigenvalues -- 8687.482868703.60476******************************
 Alpha virt. eigenvalues -- **************************************************
 Alpha virt. eigenvalues -- **************************************************
 Alpha virt. eigenvalues -- **************************************************
 Alpha virt. eigenvalues -- **************************************************
 Alpha virt. eigenvalues -- **************************************************
 Alpha virt. eigenvalues -- **************************************************
 Alpha virt. eigenvalues -- **************************************************
 Alpha virt. eigenvalues -- **********
          Condensed to atoms (all electrons):
               1          2          3          4          5          6
     1  C    4.578386   0.168806  -0.045454  -0.000498   0.000026  -0.000008
     2  C    0.168806   5.319539   0.392188   0.007348  -0.000472   0.000318
     3  H   -0.045454   0.392188   0.486755  -0.000208   0.000023  -0.000005
     4  C   -0.000498   0.007348  -0.000208   4.960876   0.404216   0.403372
     5  H    0.000026  -0.000472   0.000023   0.404216   0.542519  -0.011537
     6  H   -0.000008   0.000318  -0.000005   0.403372  -0.011537   0.551535
     7  H    0.000003  -0.000142   0.000013   0.406918  -0.021808  -0.023209
     8  O    0.691140  -0.094139   0.004987   0.000161   0.000005   0.000006
     9  N   -0.062151   0.316726  -0.028429   0.000006   0.000003  -0.000013
    10  H    0.003849  -0.041744   0.002044  -0.000329   0.000033   0.000014
    11  N    0.379517  -0.107692   0.001991  -0.000247   0.000001  -0.000085
    12  H   -0.024895   0.010336   0.000003  -0.000003  -0.000001  -0.000003
    13  C   -0.050703   0.010636  -0.001165  -0.000014   0.000000   0.000002
    14  H    0.000092   0.001675   0.000103   0.000029  -0.000001   0.000010
    15  H   -0.007920  -0.001170  -0.000258  -0.000002   0.000000  -0.000001
    16  H    0.006675   0.000588  -0.000177  -0.000001   0.000000   0.000000
    17  C   -0.007310  -0.057215   0.003524   0.000042  -0.000001   0.000000
    18  C   -0.005758   0.016658   0.002084   0.000007   0.000000   0.000000
    19  H    0.000502  -0.000265  -0.000290  -0.000004   0.000000   0.000000
    20  H   -0.000116  -0.000671   0.000170   0.000000   0.000000   0.000000
    21  H    0.000792  -0.000580  -0.000173   0.000000   0.000000   0.000000
    22  O   -0.004829   0.022451   0.016133   0.000002   0.000000   0.000000
[...]
 Alpha virt. eigenvalues --    4.37876   4.39377   4.39996   4.40998   4.42567
 Alpha virt. eigenvalues --    4.43938   4.46276   4.49501   4.51983   4.52843
 Alpha virt. eigenvalues --    4.54210   4.54591   4.55756   4.58159   4.59287
 Alpha virt. eigenvalues --    4.62121   4.62640   4.64553   4.65984   4.67803
 Alpha virt. eigenvalues --    4.69114   4.70217   4.71060   4.71275   4.72663
 Alpha virt. eigenvalues --    4.73615   4.74095   4.76328   4.78192   4.79619
 Alpha virt. eigenvalues --    4.80397   4.80841   4.81768   4.82961   4.84345
 Alpha virt. eigenvalues --    4.86023   4.87318   4.87979   4.88951   4.89609
 Alpha virt. eigenvalues --    4.91243   4.92566   4.93216   4.95356   4.95958
 Alpha virt. eigenvalues --    4.97266   4.99224   5.00276   5.01051   5.01961
 Alpha virt. eigenvalues --    5.03026   5.03518   5.04692   5.06003   5.07699
 Alpha virt. eigenvalues --    5.08222   5.09688   5.11051   5.11482   5.12832
 Alpha virt. eigenvalues --    5.13809   5.14692   5.15922   5.17318   5.18970
 Alpha virt. eigenvalues --    5.19760   5.20059   5.21159   5.22098   5.23278
 Alpha virt. eigenvalues --    5.24193   5.25076   5.26631   5.27926   5.28015
 Alpha virt. eigenvalues --    5.28931   5.29986   5.31000   5.32992   5.33618
 Alpha virt. eigenvalues --    5.35314   5.35408   5.36613   5.37396   5.39534
 Alpha virt. eigenvalues --    5.41527   5.46579   5.50850   5.51606   5.56339
 Alpha virt. eigenvalues --    5.58765   5.59946   5.62507   5.64883   5.72584
 Alpha virt. eigenvalues --    5.73064   5.74650   5.75935   5.78496   5.78832
 Alpha virt. eigenvalues --    5.79975   5.81182   5.81690   5.83628   5.86321
 Alpha virt. eigenvalues --    5.87815   5.89124   5.90965   5.96095   5.97501
 Alpha virt. eigenvalues --    6.00242   6.00649   6.03919   6.06371   6.07930
 Alpha virt. eigenvalues --    6.21981   6.27156   6.36221   6.40788   6.49735
 Alpha virt. eigenvalues --    6.53009   6.53938   6.58741   6.66775   6.68898
 Alpha virt. eigenvalues --    6.88386   6.89599   6.92407   6.95296   7.09782
 Alpha virt. eigenvalues --    7.13474   7.17540   7.18118   9.45053   9.97399
 Alpha virt. eigenvalues --   11.58331  12.13619  12.38671  12.66240  13.07656
 Alpha virt. eigenvalues --   13.44787  13.54019  13.60700  13.63845  13.77372
 Alpha virt. eigenvalues --   13.97635
          Condensed to atoms (all electrons):
               1          2          3          4          5          6
     1  C    4.762373   0.139949  -0.055507  -0.000616   0.000024  -0.000017
     2  C    0.139949   5.414141   0.434410   0.006859  -0.000456   0.000412
     3  H   -0.055507   0.434410   0.452178   0.000002   0.000018  -0.000015
     4  C   -0.000616   0.006859   0.000002   5.108298   0.406846   0.403520
     5  H    0.000024  -0.000456   0.000018   0.406846   0.535019  -0.017188
     6  H   -0.000017   0.000412  -0.000015   0.403520  -0.017188   0.546267
     7  H   -0.000016  -0.000224   0.000002   0.405175  -0.028176  -0.029775
     8  O    0.683791  -0.087702   0.003074   0.000217   0.000006   0.000006
     9  N   -0.063890   0.269101  -0.034507   0.000001   0.000005  -0.000016
    10  H    0.005158  -0.037640   0.000726  -0.000517   0.000031   0.000014
    11  N    0.368900  -0.082974  -0.001145  -0.000197   0.000003  -0.000078
    12  H   -0.022490   0.007759  -0.001072  -0.000005   0.000000  -0.000002
    13  C   -0.066492   0.009801  -0.000968  -0.000022   0.000000   0.000002
    14  H   -0.000387   0.001447   0.000108   0.000027   0.000000   0.000009
    15  H   -0.007606  -0.001062  -0.000263  -0.000002   0.000000   0.000000
    16  H    0.007214   0.000565  -0.000126  -0.000002   0.000000   0.000000
    17  C   -0.007526  -0.068663   0.002871   0.000045  -0.000002  -0.000001
    18  C   -0.004317   0.013184   0.001891   0.000005   0.000000   0.000000
    19  H    0.000335   0.000519  -0.000280  -0.000003   0.000000   0.000000
    20  H   -0.000160  -0.000591   0.000156   0.000000   0.000000   0.000000
    21  H    0.000750  -0.000601  -0.000155   0.000000   0.000000   0.000000
    22  O   -0.001906   0.020326   0.015667   0.000001   0.000000   0.000000
    23  C   -0.007415  -0.018718   0.007240   0.298434  -0.037082  -0.037509
    24  H    0.011209  -0.010767  -0.000723  -0.036028  -0.005405  -0.005438
    25  C   -0.005347   0.008944  -0.000292  -0.078978  -0.005588   0.008559
    26  H    0.001950  -0.007599  -0.000218  -0.008743  -0.000465  -0.000029
    27  H   -0.008724   0.003745   0.000787   0.007091  -0.000062  -0.000315
    28  H   -0.000358  -0.000619   0.000078  -0.006076   0.004746  -0.000131
    29  C   -0.040811   0.230384  -0.033871  -0.072912   0.009588  -0.003374
    30  H    0.012332  -0.041212  -0.008101  -0.006075   0.000140  -0.001643
    31  H    0.000437  -0.034937  -0.008775  -0.005234  -0.000180   0.004103
               7          8          9         10         11         12
     1  C   -0.000016   0.683791  -0.063890   0.005158   0.368900  -0.022490
     2  C   -0.000224  -0.087702   0.269101  -0.037640  -0.082974   0.007759
     3  H    0.000002   0.003074  -0.034507   0.000726  -0.001145  -0.001072
     4  C    0.405175   0.000217   0.000001  -0.000517  -0.000197  -0.000005
     5  H   -0.028176   0.000006   0.000005   0.000031   0.000003   0.000000
     6  H   -0.029775   0.000006  -0.000016   0.000014  -0.000078  -0.000002
     7  H    0.550242  -0.000001   0.000010  -0.000191  -0.000010   0.000001
     8  O   -0.000001   7.860012   0.004714  -0.002300  -0.113325   0.005123
     9  N    0.000010   0.004714   6.536129   0.392427   0.005061   0.000628
    10  H   -0.000191  -0.002300   0.392427   0.483969  -0.000383   0.000001
    11  N   -0.000010  -0.113325   0.005061  -0.000383   6.388472   0.382290
    12  H    0.000001   0.005123   0.000628   0.000001   0.382290   0.537402
    13  C    0.000000   0.006870  -0.000319   0.000038   0.300804  -0.031823
    14  H    0.000001   0.004518  -0.000027  -0.000004  -0.053845   0.002936
    15  H    0.000000   0.005260  -0.000035   0.000007  -0.043257   0.002599
    16  H    0.000000   0.001388   0.000008   0.000000  -0.026751  -0.008036
    17  C    0.000002   0.015554   0.331704  -0.020901  -0.000385  -0.000079
    18  C    0.000000  -0.000153  -0.065256  -0.002516  -0.000095   0.000001
    19  H    0.000002   0.000015   0.012570  -0.000839   0.000011   0.000001
    20  H    0.000000   0.000030  -0.000276  -0.000230   0.000003   0.000001
    21  H    0.000000   0.000236  -0.000949   0.000431   0.000000  -0.000002
    22  O    0.000000  -0.003279  -0.137248   0.004359  -0.003467  -0.000212
    23  C   -0.039189   0.009399  -0.000070  -0.001853  -0.006072   0.000094
    24  H    0.007052  -0.003018   0.000197   0.000130   0.001479   0.000036
    25  C   -0.007431  -0.010761  -0.009230   0.002455  -0.000380   0.000065
    26  H    0.003952   0.000005  -0.001686   0.001311  -0.000076  -0.000006
    27  H    0.000079   0.023202   0.007185  -0.006508   0.001457  -0.000108
    28  H   -0.000126   0.000149   0.000708   0.000446   0.000022   0.000000
    29  C   -0.011053  -0.004725  -0.051553   0.000132   0.009520  -0.002074
    30  H    0.004550  -0.000662   0.003020   0.002673   0.000337  -0.000158
    31  H   -0.000355  -0.000130   0.004046   0.000335   0.000078   0.002175
              13         14         15         16         17         18
     1  C   -0.066492  -0.000387  -0.007606   0.007214  -0.007526  -0.004317
     2  C    0.009801   0.001447  -0.001062   0.000565  -0.068663   0.013184
     3  H   -0.000968   0.000108  -0.000263  -0.000126   0.002871   0.001891
     4  C   -0.000022   0.000027  -0.000002  -0.000002   0.000045   0.000005
     5  H    0.000000   0.000000   0.000000   0.000000  -0.000002   0.000000
     6  H    0.000002   0.000009   0.000000   0.000000  -0.000001   0.000000
     7  H    0.000000   0.000001   0.000000   0.000000   0.000002   0.000000
     8  O    0.006870   0.004518   0.005260   0.001388   0.015554  -0.000153
     9  N   -0.000319  -0.000027  -0.000035   0.000008   0.331704  -0.065256
    10  H    0.000038  -0.000004   0.000007   0.000000  -0.020901  -0.002516
    11  N    0.300804  -0.053845  -0.043257  -0.026751  -0.000385  -0.000095
    12  H   -0.031823   0.002936   0.002599  -0.008036  -0.000079   0.000001
    13  C    4.765695   0.391828   0.404201   0.394511  -0.000257  -0.000008
    14  H    0.391828   0.632147  -0.057049  -0.029081  -0.000038   0.000000
    15  H    0.404201  -0.057049   0.599204  -0.025407   0.000116   0.000002
    16  H    0.394511  -0.029081  -0.025407   0.599663  -0.000010   0.000000
    17  C   -0.000257  -0.000038   0.000116  -0.000010   4.536786   0.282011
    18  C   -0.000008   0.000000   0.000002   0.000000   0.282011   4.994479
    19  H    0.000000   0.000000   0.000000   0.000000  -0.054719   0.394041
    20  H    0.000000   0.000000   0.000000   0.000000  -0.025706   0.386085
    21  H    0.000002   0.000000   0.000001   0.000000  -0.025179   0.388539
    22  O   -0.000216   0.000009   0.000111  -0.000005   0.721690  -0.070009
    23  C   -0.000386   0.000867  -0.000125  -0.000036  -0.000456  -0.000032
    24  H    0.000302  -0.000376   0.000143  -0.000002  -0.000037  -0.000006
    25  C    0.000046   0.000018   0.000005   0.000003   0.000305   0.000057
    26  H    0.000002   0.000005   0.000000   0.000000   0.000058   0.000057
    27  H   -0.000182   0.000034  -0.000040  -0.000005   0.001662   0.000093
    28  H   -0.000005  -0.000004   0.000000   0.000000   0.000025   0.000006
    29  C   -0.000365  -0.000663   0.000143  -0.000008   0.009404   0.000406
    30  H    0.000070  -0.000027   0.000014   0.000001  -0.000273  -0.000111
    31  H    0.000059  -0.000120   0.000047   0.000006  -0.000137   0.000036
              19         20         21         22         23         24
     1  C    0.000335  -0.000160   0.000750  -0.001906  -0.007415   0.011209
     2  C    0.000519  -0.000591  -0.000601   0.020326  -0.018718  -0.010767
     3  H   -0.000280   0.000156  -0.000155   0.015667   0.007240  -0.000723
     4  C   -0.000003   0.000000   0.000000   0.000001   0.298434  -0.036028
     5  H    0.000000   0.000000   0.000000   0.000000  -0.037082  -0.005405
     6  H    0.000000   0.000000   0.000000   0.000000  -0.037509  -0.005438
     7  H    0.000002   0.000000   0.000000   0.000000  -0.039189   0.007052
     8  O    0.000015   0.000030   0.000236  -0.003279   0.009399  -0.003018
     9  N    0.012570  -0.000276  -0.000949  -0.137248  -0.000070   0.000197
    10  H   -0.000839  -0.000230   0.000431   0.004359  -0.001853   0.000130
    11  N    0.000011   0.000003   0.000000  -0.003467  -0.006072   0.001479
    12  H    0.000001   0.000001  -0.000002  -0.000212   0.000094   0.000036
    13  C    0.000000   0.000000   0.000002  -0.000216  -0.000386   0.000302
    14  H    0.000000   0.000000   0.000000   0.000009   0.000867  -0.000376
    15  H    0.000000   0.000000   0.000001   0.000111  -0.000125   0.000143
    16  H    0.000000   0.000000   0.000000  -0.000005  -0.000036  -0.000002
    17  C   -0.054719  -0.025706  -0.025179   0.721690  -0.000456  -0.000037
    18  C    0.394041   0.386085   0.388539  -0.070009  -0.000032  -0.000006
    19  H    0.601794  -0.026885  -0.024970   0.004567   0.000023   0.000005
    20  H   -0.026885   0.576281  -0.025169   0.002006   0.000001   0.000000
    21  H   -0.024970  -0.025169   0.564617   0.001180  -0.000001   0.000001
    22  O    0.004567   0.002006   0.001180   7.852202  -0.000041  -0.000009
    23  C    0.000023   0.000001  -0.000001  -0.000041   5.247868   0.409525
    24  H    0.000005   0.000000   0.000001  -0.000009   0.409525   0.519079
    25  C    0.000133   0.000003  -0.000002   0.000055   0.256579  -0.031398
    26  H    0.000069  -0.000020   0.000008   0.000012  -0.057401   0.007988
    27  H    0.000060   0.000059  -0.000085  -0.000255  -0.018700  -0.007099
    28  H   -0.000012   0.000001  -0.000004   0.000000  -0.036774  -0.005727
    29  C   -0.000267   0.000001  -0.000001   0.002610   0.219028  -0.032754
    30  H   -0.000003  -0.000031   0.000021  -0.000119  -0.043805   0.007232
    31  H   -0.000004  -0.000003  -0.000001   0.000087  -0.049023  -0.003539
              25         26         27         28         29         30
     1  C   -0.005347   0.001950  -0.008724  -0.000358  -0.040811   0.012332
     2  C    0.008944  -0.007599   0.003745  -0.000619   0.230384  -0.041212
     3  H   -0.000292  -0.000218   0.000787   0.000078  -0.033871  -0.008101
     4  C   -0.078978  -0.008743   0.007091  -0.006076  -0.072912  -0.006075
     5  H   -0.005588  -0.000465  -0.000062   0.004746   0.009588   0.000140
     6  H    0.008559  -0.000029  -0.000315  -0.000131  -0.003374  -0.001643
     7  H   -0.007431   0.003952   0.000079  -0.000126  -0.011053   0.004550
     8  O   -0.010761   0.000005   0.023202   0.000149  -0.004725  -0.000662
     9  N   -0.009230  -0.001686   0.007185   0.000708  -0.051553   0.003020
    10  H    0.002455   0.001311  -0.006508   0.000446   0.000132   0.002673
    11  N   -0.000380  -0.000076   0.001457   0.000022   0.009520   0.000337
    12  H    0.000065  -0.000006  -0.000108   0.000000  -0.002074  -0.000158
    13  C    0.000046   0.000002  -0.000182  -0.000005  -0.000365   0.000070
    14  H    0.000018   0.000005   0.000034  -0.000004  -0.000663  -0.000027
    15  H    0.000005   0.000000  -0.000040   0.000000   0.000143   0.000014
    16  H    0.000003   0.000000  -0.000005   0.000000  -0.000008   0.000001
    17  C    0.000305   0.000058   0.001662   0.000025   0.009404  -0.000273
    18  C    0.000057   0.000057   0.000093   0.000006   0.000406  -0.000111
    19  H    0.000133   0.000069   0.000060  -0.000012  -0.000267  -0.000003
    20  H    0.000003  -0.000020   0.000059   0.000001   0.000001  -0.000031
    21  H   -0.000002   0.000008  -0.000085  -0.000004  -0.000001   0.000021
    22  O    0.000055   0.000012  -0.000255   0.000000   0.002610  -0.000119
    23  C    0.256579  -0.057401  -0.018700  -0.036774   0.219028  -0.043805
    24  H   -0.031398   0.007988  -0.007099  -0.005727  -0.032754   0.007232
    25  C    5.242862   0.401567   0.380050   0.400157  -0.044132  -0.004855
    26  H    0.401567   0.563717  -0.034906  -0.026855   0.006317   0.003031
    27  H    0.380050  -0.034906   0.486243  -0.003645  -0.008825  -0.001043
    28  H    0.400157  -0.026855  -0.003645   0.519304   0.007892  -0.000416
    29  C   -0.044132   0.006317  -0.008825   0.007892   5.417791   0.398138
    30  H   -0.004855   0.003031  -0.001043  -0.000416   0.398138   0.473970
    31  H    0.007089   0.000274  -0.000615  -0.000378   0.421227  -0.003461
              31
     1  C    0.000437
     2  C   -0.034937
     3  H   -0.008775
     4  C   -0.005234
     5  H   -0.000180
     6  H    0.004103
     7  H   -0.000355
     8  O   -0.000130
     9  N    0.004046
    10  H    0.000335
    11  N    0.000078
    12  H    0.002175
    13  C    0.000059
    14  H   -0.000120
    15  H    0.000047
    16  H    0.000006
    17  C   -0.000137
    18  C    0.000036
    19  H   -0.000004
    20  H   -0.000003
    21  H   -0.000001
    22  O    0.000087
    23  C   -0.049023
    24  H   -0.003539
    25  C    0.007089
    26  H    0.000274
    27  H   -0.000615
    28  H   -0.000378
    29  C    0.421227
    30  H   -0.003461
    31  H    0.476260
 Mulliken charges:
               1
     1  C    0.299163
     2  C   -0.167782
     3  H    0.226809
     4  C   -0.421112
     5  H    0.138179
     6  H    0.132640
     7  H    0.145480
     8  O   -0.397514
     9  N   -0.202452
    10  H    0.179239
    11  N   -0.125999
    12  H    0.124955
    13  C   -0.173192
    14  H    0.107669
    15  H    0.122992
    16  H    0.086108
    17  C    0.302137
    18  C   -0.318387
    19  H    0.093837
    20  H    0.114444
    21  H    0.121332
    22  O   -0.408118
    23  C   -0.094369
    24  H    0.177950
    25  C   -0.510559
    26  H    0.147681
    27  H    0.179370
    28  H    0.147595
    29  C   -0.425196
    30  H    0.206468
    31  H    0.190629
 Sum of Mulliken charges =   0.00000
 Mulliken charges with hydrogens summed into heavy atoms:
               1
     1  C    0.299163
     2  C    0.059028
     4  C   -0.004813
     8  O   -0.397514
     9  N   -0.023213
    11  N   -0.001043
    13  C    0.143577
    17  C    0.302137
    18  C    0.011227
    22  O   -0.408118
    23  C    0.083581
    25  C   -0.035912
    29  C   -0.028100
 Electronic spatial extent (au):  <R**2>=           2883.9865
 Charge=              0.0000 electrons
 Dipole moment (field-independent basis, Debye):
    X=             -3.5383    Y=             -1.2397    Z=             -2.0281  Tot=              4.2626
 Quadrupole moment (field-independent basis, Debye-Ang):
   XX=            -85.9636   YY=            -68.4085   ZZ=            -82.2228
   XY=             -8.7630   XZ=              3.1765   YZ=             -4.5566
 Traceless Quadrupole moment (field-independent basis, Debye-Ang):
   XX=             -7.0986   YY=             10.4565   ZZ=             -3.3579
   XY=             -8.7630   XZ=              3.1765   YZ=             -4.5566
 Octapole moment (field-independent basis, Debye-Ang**2):
  XXX=             -5.6242  YYY=             37.3736  ZZZ=             -8.5784  XYY=              5.4556
  XXY=            -16.5253  XXZ=             15.4448  XZZ=             -0.1635  YZZ=              4.3589
  YYZ=             -4.4396  XYZ=              2.6986
 Hexadecapole moment (field-independent basis, Debye-Ang**3):
 XXXX=          -2032.3329 YYYY=          -1339.2279 ZZZZ=           -387.2663 XXXY=            -74.9140
 XXXZ=             21.5337 YYYX=            -35.6170 YYYZ=             -4.3116 ZZZX=             -3.5116
 ZZZY=            -17.1654 XXYY=           -564.2697 XXZZ=           -387.8377 YYZZ=           -302.4807
 XXYZ=              1.2880 YYXZ=              3.0636 ZZXY=             -9.9986
 N-N= 8.774023455805D+02 E-N=-3.184540984675D+03  KE= 6.091247752744D+02
 Calculating spin-rotation constants.
 Leave Link  601 at Wed Jun 18 02:24:09 2014, MaxMem=  4294967296 cpu:        72.4
 (Enter /home/ztw1e12/g09/l9999.exe)

 Test job not archived.
 1\1\GINC-GREEN0598\SP\RM06\Gen\C9H18N2O2\ROOT\18-Jun-2014\0\\#P Geom=A
 llCheck Guess=TCheck SCRF=Check GenChk RM06/ChkBas NMR=ReadFC IOp(3/6=
 22)\\NMR spin-spin scan\\0,1\C,0,0.166969,1.214369,0.193843\C,0,0.1640
 68,0.013887,-0.746107\H,0,0.595591,0.353376,-1.692367\C,0,-3.508434,-1
 .260261,-0.428432\H,0,-4.264077,-1.366457,0.352001\H,0,-3.93384,-0.651
 267,-1.229327\H,0,-3.307214,-2.255084,-0.83652\O,0,0.394426,1.12264,1.
 396772\N,0,1.001888,-1.049234,-0.247794\H,0,0.577817,-1.888262,0.11449
 5\N,0,-0.128371,2.377734,-0.394725\H,0,-0.316856,2.387169,-1.384463\C,
 0,-0.261738,3.600189,0.362962\H,0,-1.066925,3.527042,1.095475\H,0,0.66
 1772,3.832903,0.893534\H,0,-0.483819,4.414723,-0.319479\C,0,2.332349,-
 0.893388,-0.144145\C,0,3.097439,-2.040123,0.428311\H,0,2.470524,-2.893
 583,0.677482\H,0,3.858942,-2.347871,-0.287712\H,0,3.612552,-1.70013,1.
 326683\O,0,2.893341,0.139462,-0.509539\C,0,-2.228469,-0.657,0.122633\H
 ,0,-2.456689,0.318499,0.569875\C,0,-1.694739,-1.570865,1.212977\H,0,-1
 .426017,-2.547417,0.79481\H,0,-0.82372,-1.16147,1.724967\H,0,-2.464411
 ,-1.747095,1.967252\C,0,-1.263551,-0.443891,-1.041377\H,0,-1.187339,-1
 .380572,-1.607139\H,0,-1.705842,0.285271,-1.724608\\Version=EM64L-G09R
 evD.01\State=1-A\HF=-613.583904\RMSD=6.601e-09\Dipole=-1.4013007,-0.41
 36053,-0.823257\Quadrupole=-5.9728569,8.4260221,-2.4531652,-5.7740858,
 2.1060461,-3.5554666\PG=C01 [X(C9H18N2O2)]\\@


 THERE ARE PEOPLE SO ADDICTED TO EXAGERATING THEY
 CAN'T TELL THE TRUTH WITHOUT LYING. -- FORTUNE COOKIE
 Job cpu time:       2 days 13 hours 44 minutes  4.3 seconds.
 File lengths (MBytes):  RWF=   2456 Int=      0 D2E=      0 Chk=     48 Scr=      8
 Normal termination of Gaussian 09 at Wed Jun 18 02:24:09 2014.
