 Entering Gaussian System, Link 0=g09
 Input=scan_input_20.gjf
 Output=scan_input_20.log
 Initial command:
 /home/ztw1e12/g09/l1.exe "/home/ztw1e12/leucine_scan/leucine_chi2_scan/Gau-8389.inp" -scrdir="/home/ztw1e12/leucine_scan/leucine_chi2_scan/"
 Default is to use a total of   8 processors:
                                8 via shared-memory
                                1 via Linda
 Entering Link 1 = /home/ztw1e12/g09/l1.exe PID=      8390.
  
 Copyright (c) 1988,1990,1992,1993,1995,1998,2003,2009,2013,
            Gaussian, Inc.  All Rights Reserved.
  
 This is part of the Gaussian(R) 09 program.  It is based on
 the Gaussian(R) 03 system (copyright 2003, Gaussian, Inc.),
 the Gaussian(R) 98 system (copyright 1998, Gaussian, Inc.),
 the Gaussian(R) 94 system (copyright 1995, Gaussian, Inc.),
 the Gaussian 92(TM) system (copyright 1992, Gaussian, Inc.),
 the Gaussian 90(TM) system (copyright 1990, Gaussian, Inc.),
 the Gaussian 88(TM) system (copyright 1988, Gaussian, Inc.),
 the Gaussian 86(TM) system (copyright 1986, Carnegie Mellon
 University), and the Gaussian 82(TM) system (copyright 1983,
 Carnegie Mellon University). Gaussian is a federally registered
 trademark of Gaussian, Inc.
  
 This software contains proprietary and confidential information,
 including trade secrets, belonging to Gaussian, Inc.
  
 This software is provided under written license and may be
 used, copied, transmitted, or stored only in accord with that
 written license.
  
 The following legend is applicable only to US Government
 contracts under FAR:
  
                    RESTRICTED RIGHTS LEGEND
  
 Use, reproduction and disclosure by the US Government is
 subject to restrictions as set forth in subparagraphs (a)
 and (c) of the Commercial Computer Software - Restricted
 Rights clause in FAR 52.227-19.
  
 Gaussian, Inc.
 340 Quinnipiac St., Bldg. 40, Wallingford CT 06492
  
  
 ---------------------------------------------------------------
 Warning -- This program may not be used in any manner that
 competes with the business of Gaussian, Inc. or will provide
 assistance to any competitor of Gaussian, Inc.  The licensee
 of this program is prohibited from giving any competitor of
 Gaussian, Inc. access to this program.  By using this program,
 the user acknowledges that Gaussian, Inc. is engaged in the
 business of creating and licensing software in the field of
 computational chemistry and represents and warrants to the
 licensee that it is not a competitor of Gaussian, Inc. and that
 it will not use this program in any manner prohibited above.
 ---------------------------------------------------------------
  

 Cite this work as:
 Gaussian 09, Revision D.01,
 M. J. Frisch, G. W. Trucks, H. B. Schlegel, G. E. Scuseria, 
 M. A. Robb, J. R. Cheeseman, G. Scalmani, V. Barone, B. Mennucci, 
 G. A. Petersson, H. Nakatsuji, M. Caricato, X. Li, H. P. Hratchian, 
 A. F. Izmaylov, J. Bloino, G. Zheng, J. L. Sonnenberg, M. Hada, 
 M. Ehara, K. Toyota, R. Fukuda, J. Hasegawa, M. Ishida, T. Nakajima, 
 Y. Honda, O. Kitao, H. Nakai, T. Vreven, J. A. Montgomery, Jr., 
 J. E. Peralta, F. Ogliaro, M. Bearpark, J. J. Heyd, E. Brothers, 
 K. N. Kudin, V. N. Staroverov, T. Keith, R. Kobayashi, J. Normand, 
 K. Raghavachari, A. Rendell, J. C. Burant, S. S. Iyengar, J. Tomasi, 
 M. Cossi, N. Rega, J. M. Millam, M. Klene, J. E. Knox, J. B. Cross, 
 V. Bakken, C. Adamo, J. Jaramillo, R. Gomperts, R. E. Stratmann, 
 O. Yazyev, A. J. Austin, R. Cammi, C. Pomelli, J. W. Ochterski, 
 R. L. Martin, K. Morokuma, V. G. Zakrzewski, G. A. Voth, 
 P. Salvador, J. J. Dannenberg, S. Dapprich, A. D. Daniels, 
 O. Farkas, J. B. Foresman, J. V. Ortiz, J. Cioslowski, 
 and D. J. Fox, Gaussian, Inc., Wallingford CT, 2013.
 
 ******************************************
 Gaussian 09:  EM64L-G09RevD.01 24-Apr-2013
                18-Jun-2014 
 ******************************************
 %Mem=32GB
 %NProcShared=16
 Will use up to   16 processors via shared memory.
 Default route:  MaxDisk=100GB
 ----------------------------------------------------------------------
 #p nmr=(giao,mixed,spinspin) m06/cc-pvtz scf=tight integral=(grid=ultr
 afine)
 ----------------------------------------------------------------------
 1/38=1/1;
 2/12=2,17=6,18=5,40=1/2;
 3/5=16,6=1,10=1100000,11=2,16=1,25=1,30=1,74=-54,75=-5/1,2,8,3;
 4//1;
 5/5=2,32=2,38=5/2;
 8/6=1,10=90,11=11/1;
 10/13=100,45=16,47=3/2;
 6/7=2,8=2,9=2,10=2,28=1/1;
 99/9=1/99;
 Leave Link    1 at Wed Jun 18 04:31:19 2014, MaxMem=  4294967296 cpu:        14.5
 (Enter /home/ztw1e12/g09/l101.exe)
 ------------------
 NMR spin-spin scan
 ------------------
 Symbolic Z-matrix:
 Charge =  0 Multiplicity = 1
 C                     0.48868   0.83587   0.47261 
 C                     0.22898   0.01878  -0.79266 
 H                     0.71476   0.58485  -1.59377 
 C                    -1.76542  -1.00064   1.21685 
 H                    -2.55696  -1.49726   1.78172 
 H                    -0.8896   -1.64899   1.25602 
 H                    -1.52752  -0.07779   1.75478 
 O                     1.21221   0.43832   1.37979 
 N                     0.8913   -1.26239  -0.73416 
 H                     0.35749  -2.07198  -0.45845 
 N                    -0.08173   2.04649   0.49352 
 H                    -0.72656   2.29865  -0.23765 
 C                     0.02064   2.90276   1.65269 
 H                    -0.40291   2.42188   2.53714 
 H                     1.06026   3.15106   1.86555 
 H                    -0.52435   3.82201   1.46025 
 C                     2.21103  -1.40847  -0.94436 
 C                     2.75308  -2.79227  -0.79424 
 H                     1.98553  -3.53566  -0.58972 
 H                     3.28852  -3.06254  -1.70371 
 H                     3.47647  -2.79348   0.02149 
 O                     2.93783  -0.46468  -1.25115 
 C                    -2.25826  -0.72841  -0.19542 
 H                    -2.55705  -1.70058  -0.60193 
 C                    -3.50243   0.13985  -0.15017 
 H                    -3.27084   1.12122   0.27538 
 H                    -3.91392   0.30143  -1.14859 
 H                    -4.28058  -0.31607   0.46545 
 C                    -1.23542  -0.13211  -1.19192 
 H                    -1.24441  -0.7174   -2.11316 
 H                    -1.58324   0.86084  -1.49184 
 
 NAtoms=     31 NQM=       31 NQMF=       0 NMMI=      0 NMMIF=      0
                NMic=       0 NMicF=      0.
                    Isotopes and Nuclear Properties:
 (Nuclear quadrupole moments (NQMom) in fm**2, nuclear magnetic moments (NMagM)
  in nuclear magnetons)

  Atom         1           2           3           4           5           6           7           8           9          10
 IAtWgt=          12          12           1          12           1           1           1          16          14           1
 AtmWgt=  12.0000000  12.0000000   1.0078250  12.0000000   1.0078250   1.0078250   1.0078250  15.9949146  14.0030740   1.0078250
 NucSpn=           0           0           1           0           1           1           1           0           2           1
 AtZEff=   0.0000000   0.0000000   0.0000000   0.0000000   0.0000000   0.0000000   0.0000000   0.0000000   0.0000000   0.0000000
 NQMom=    0.0000000   0.0000000   0.0000000   0.0000000   0.0000000   0.0000000   0.0000000   0.0000000   2.0440000   0.0000000
 NMagM=    0.0000000   0.0000000   2.7928460   0.0000000   2.7928460   2.7928460   2.7928460   0.0000000   0.4037610   2.7928460
 AtZNuc=   6.0000000   6.0000000   1.0000000   6.0000000   1.0000000   1.0000000   1.0000000   8.0000000   7.0000000   1.0000000

  Atom        11          12          13          14          15          16          17          18          19          20
 IAtWgt=          14           1          12           1           1           1          12          12           1           1
 AtmWgt=  14.0030740   1.0078250  12.0000000   1.0078250   1.0078250   1.0078250  12.0000000  12.0000000   1.0078250   1.0078250
 NucSpn=           2           1           0           1           1           1           0           0           1           1
 AtZEff=   0.0000000   0.0000000   0.0000000   0.0000000   0.0000000   0.0000000   0.0000000   0.0000000   0.0000000   0.0000000
 NQMom=    2.0440000   0.0000000   0.0000000   0.0000000   0.0000000   0.0000000   0.0000000   0.0000000   0.0000000   0.0000000
 NMagM=    0.4037610   2.7928460   0.0000000   2.7928460   2.7928460   2.7928460   0.0000000   0.0000000   2.7928460   2.7928460
 AtZNuc=   7.0000000   1.0000000   6.0000000   1.0000000   1.0000000   1.0000000   6.0000000   6.0000000   1.0000000   1.0000000

  Atom        21          22          23          24          25          26          27          28          29          30
 IAtWgt=           1          16          12           1          12           1           1           1          12           1
 AtmWgt=   1.0078250  15.9949146  12.0000000   1.0078250  12.0000000   1.0078250   1.0078250   1.0078250  12.0000000   1.0078250
 NucSpn=           1           0           0           1           0           1           1           1           0           1
 AtZEff=   0.0000000   0.0000000   0.0000000   0.0000000   0.0000000   0.0000000   0.0000000   0.0000000   0.0000000   0.0000000
 NQMom=    0.0000000   0.0000000   0.0000000   0.0000000   0.0000000   0.0000000   0.0000000   0.0000000   0.0000000   0.0000000
 NMagM=    2.7928460   0.0000000   0.0000000   2.7928460   0.0000000   2.7928460   2.7928460   2.7928460   0.0000000   2.7928460
 AtZNuc=   1.0000000   8.0000000   6.0000000   1.0000000   6.0000000   1.0000000   1.0000000   1.0000000   6.0000000   1.0000000

  Atom        31
 IAtWgt=           1
 AtmWgt=   1.0078250
 NucSpn=           1
 AtZEff=   0.0000000
 NQMom=    0.0000000
 NMagM=    2.7928460
 AtZNuc=   1.0000000
 Leave Link  101 at Wed Jun 18 04:31:19 2014, MaxMem=  4294967296 cpu:         4.2
 (Enter /home/ztw1e12/g09/l202.exe)
                          Input orientation:                          
 ---------------------------------------------------------------------
 Center     Atomic      Atomic             Coordinates (Angstroms)
 Number     Number       Type             X           Y           Z
 ---------------------------------------------------------------------
      1          6           0        0.488678    0.835870    0.472610
      2          6           0        0.228978    0.018777   -0.792663
      3          1           0        0.714760    0.584847   -1.593768
      4          6           0       -1.765421   -1.000639    1.216852
      5          1           0       -2.556955   -1.497258    1.781721
      6          1           0       -0.889595   -1.648985    1.256024
      7          1           0       -1.527519   -0.077786    1.754776
      8          8           0        1.212207    0.438320    1.379788
      9          7           0        0.891300   -1.262388   -0.734156
     10          1           0        0.357488   -2.071982   -0.458449
     11          7           0       -0.081727    2.046494    0.493524
     12          1           0       -0.726556    2.298653   -0.237649
     13          6           0        0.020644    2.902760    1.652689
     14          1           0       -0.402905    2.421876    2.537135
     15          1           0        1.060261    3.151062    1.865552
     16          1           0       -0.524349    3.822007    1.460248
     17          6           0        2.211033   -1.408473   -0.944358
     18          6           0        2.753075   -2.792266   -0.794236
     19          1           0        1.985531   -3.535661   -0.589716
     20          1           0        3.288519   -3.062543   -1.703714
     21          1           0        3.476471   -2.793480    0.021492
     22          8           0        2.937834   -0.464679   -1.251152
     23          6           0       -2.258260   -0.728408   -0.195415
     24          1           0       -2.557047   -1.700576   -0.601933
     25          6           0       -3.502425    0.139849   -0.150174
     26          1           0       -3.270836    1.121219    0.275382
     27          1           0       -3.913920    0.301432   -1.148587
     28          1           0       -4.280579   -0.316072    0.465445
     29          6           0       -1.235416   -0.132114   -1.191920
     30          1           0       -1.244409   -0.717401   -2.113163
     31          1           0       -1.583236    0.860839   -1.491842
 ---------------------------------------------------------------------
                    Distance matrix (angstroms):
                    1          2          3          4          5
     1  C    0.000000
     2  C    1.528398   0.000000
     3  H    2.093811   1.094618   0.000000
     4  C    3.001270   3.009151   4.069969   0.000000
     5  H    4.053781   4.085002   5.141323   1.091894   0.000000
     6  H    2.947521   2.868755   3.960464   1.090394   1.754841
     7  H    2.558079   3.095812   4.084072   1.094357   1.753672
     8  O    1.226586   2.421218   3.018437   3.311106   4.256124
     9  N    2.453788   1.443426   2.045086   3.306526   4.274958
    10  H    3.056090   2.121199   2.911242   2.908806   3.720571
    11  N    1.338436   2.421250   2.669755   3.555706   4.510475
    12  H    2.030024   2.533559   2.617935   3.752351   4.673024
    13  C    2.425629   3.786886   4.048951   4.314685   5.101061
    14  H    2.751836   4.154722   4.657060   3.913209   4.535437
    15  H    2.761722   4.191461   4.321079   5.063784   5.890514
    16  H    3.304341   4.484157   4.619698   4.985721   5.703456
    17  C    3.164077   2.447161   2.575634   4.544155   5.493005
    18  C    4.460467   3.777967   4.024782   5.260343   6.042269
    19  H    4.741243   3.969974   4.427366   4.874389   5.514796
    20  H    5.270021   4.436816   4.465398   6.190595   6.983405
    21  H    4.722562   4.372396   4.652871   5.667504   6.417229
    22  O    3.265141   2.789595   2.482126   5.338437   6.360601
    23  C    3.230927   2.664835   3.538203   1.520361   2.142292
    24  H    4.106658   3.279404   4.112374   2.103464   2.392309
    25  C    4.098928   3.788247   4.479580   2.487299   2.703008
    26  H    3.775483   3.821622   4.434681   2.766753   3.104047
    27  H    4.721946   4.167755   4.658668   3.450614   3.696396
    28  H    4.906407   4.693726   5.477721   2.712796   2.469547
    29  C    2.584599   1.525328   2.116294   2.614847   3.528828
    30  H    3.478859   2.111054   2.409142   3.382407   4.183429
    31  H    2.855262   2.117083   2.316753   3.291704   4.150297
                    6          7          8          9         10
     6  H    0.000000
     7  H    1.767588   0.000000
     8  O    2.964748   2.813020   0.000000
     9  N    2.698492   3.667254   2.732059   0.000000
    10  H    2.161842   3.525398   3.226651   1.008173   0.000000
    11  N    3.858837   2.862453   2.246320   3.660967   4.249824
    12  H    4.223918   3.202930   3.136199   3.942714   4.508476
    13  C    4.658783   3.360191   2.750957   4.878886   5.414649
    14  H    4.295349   2.850465   2.807585   5.094125   5.454033
    15  H    5.216696   4.139364   2.760077   5.124995   5.759779
    16  H    5.486972   4.037509   3.804134   5.715815   6.260842
    17  C    3.809648   4.799252   3.132084   1.344329   2.027802
    18  C    4.333555   5.673566   4.187761   2.410465   2.523965
    19  H    3.902903   5.458485   4.502166   2.527049   2.193197
    20  H    5.311764   6.638083   5.106378   3.150755   3.335092
    21  H    4.679366   5.951402   4.173295   3.098121   3.237122
    22  O    4.726280   5.396727   3.273384   2.256530   3.141653
    23  C    2.197130   2.181865   3.985807   3.239615   2.952375
    24  H    2.497011   3.040962   4.765435   3.478590   2.941606
    25  C    3.464708   2.752536   4.965644   4.648884   4.459390
    26  H    3.782327   2.581739   4.667305   4.901441   4.888740
    27  H    4.328143   3.777331   5.717394   5.070249   4.935009
    28  H    3.728330   3.049343   5.619237   5.392855   5.044647
    29  C    2.900503   2.961637   3.595822   2.451528   2.615036
    30  H    3.513568   3.930676   4.423953   2.599985   2.671899
    31  H    3.785647   3.380037   4.029799   3.347463   3.665481
                   11         12         13         14         15
    11  N    0.000000
    12  H    1.006977   0.000000
    13  C    1.444761   2.120526   0.000000
    14  H    2.102478   2.796312   1.092194   0.000000
    15  H    2.099206   2.888385   1.089848   1.767368   0.000000
    16  H    2.069521   2.290054   1.085848   1.770537   1.767888
    17  C    4.388741   4.782431   5.489006   5.798710   5.478068
    18  C    5.753957   6.191533   6.773990   6.945899   6.727796
    19  H    6.050407   6.443492   7.095240   7.139613   7.183086
    20  H    6.502974   6.856573   7.584806   7.854315   7.504244
    21  H    6.025690   6.607754   6.859351   6.969789   6.676542
    22  O    4.297398   4.700101   5.318076   5.817547   5.129591
    23  C    3.593329   3.392786   4.668434   4.564369   5.505493
    24  H    4.622528   4.413302   5.737466   5.611478   6.535426
    25  C    3.968730   3.517604   4.826594   4.694284   5.826548
    26  H    3.327782   2.850072   3.988070   3.877146   5.040566
    27  H    4.519676   3.870141   5.485877   5.514350   6.476720
    28  H    4.817973   4.467909   5.501904   5.179248   6.519654
    29  C    2.986311   2.660489   4.345106   4.595845   5.039594
    30  H    3.973130   3.589193   5.374715   5.673488   6.008884
    31  H    2.757170   2.091461   4.077983   4.479138   4.848226
                   16         17         18         19         20
    16  H    0.000000
    17  C    6.373568   0.000000
    18  C    7.718343   1.493730   0.000000
    19  H    8.039722   2.168306   1.087928   0.000000
    20  H    8.482078   2.115076   1.089449   1.778373   0.000000
    21  H    7.863921   2.110082   1.090282   1.774066   1.756148
    22  O    6.141179   1.230085   2.379195   3.282577   2.660205
    23  C    5.143340   4.582356   5.452667   5.103519   6.204024
    24  H    6.235654   4.789276   5.424589   4.899255   6.102419
    25  C    5.002068   5.972573   6.938544   6.619685   7.667185
    26  H    4.030056   6.159383   7.262710   7.075614   8.027816
    27  H    5.539825   6.362431   7.358353   7.059684   7.968665
    28  H    5.676495   6.732155   7.562448   7.123430   8.339041
    29  C    4.814009   3.683530   4.810678   4.724540   5.414364
    30  H    5.821853   3.712649   4.693028   4.549285   5.120037
    31  H    4.313304   4.454884   5.712742   5.734034   6.258739
                   21         22         23         24         25
    21  H    0.000000
    22  O    2.707964   0.000000
    23  C    6.099075   5.308816   0.000000
    24  H    6.163314   5.669448   1.095281   0.000000
    25  C    7.572244   6.561596   1.517848   2.117779   0.000000
    26  H    7.804837   6.587333   2.160574   3.040017   1.094449
    27  H    8.097249   6.895214   2.170327   2.479510   1.091909
    28  H    8.155150   7.421204   2.167148   2.454936   1.091959
    29  C    5.545910   4.186899   1.547514   2.134213   2.509687
    30  H    5.581538   4.277626   2.169279   2.230127   3.112369
    31  H    6.422216   4.717521   2.159187   2.881162   2.450140
                   26         27         28         29         30
    26  H    0.000000
    27  H    1.764453   0.000000
    28  H    1.766780   1.766593   0.000000
    29  C    2.804773   2.713710   3.471846   0.000000
    30  H    3.632090   3.015745   4.003575   1.091481   0.000000
    31  H    2.457412   2.421332   3.534367   1.094024   1.729649
                   31
    31  H    0.000000
 Stoichiometry    C9H18N2O2
 Framework group  C1[X(C9H18N2O2)]
 Deg. of freedom    87
 Full point group                 C1      NOp   1
 Largest Abelian subgroup         C1      NOp   1
 Largest concise Abelian subgroup C1      NOp   1
                         Standard orientation:                         
 ---------------------------------------------------------------------
 Center     Atomic      Atomic             Coordinates (Angstroms)
 Number     Number       Type             X           Y           Z
 ---------------------------------------------------------------------
      1          6           0       -0.209484    1.123487    0.053290
      2          6           0        0.267864   -0.100018   -0.728487
      3          1           0        0.628968    0.301853   -1.680480
      4          6           0       -1.481622   -1.204690    1.456459
      5          1           0       -2.074100   -1.798170    2.155733
      6          1           0       -0.449675   -1.232965    1.807519
      7          1           0       -1.838844   -0.173556    1.538764
      8          8           0        0.355047    1.522576    1.066475
      9          7           0        1.402065   -0.721545   -0.087573
     10          1           0        1.246368   -1.526249    0.499473
     11          7           0       -1.253604    1.767309   -0.482169
     12          1           0       -1.729954    1.360690   -1.270683
     13          6           0       -1.855551    2.900451    0.181898
     14          1           0       -2.223993    2.626989    1.173038
     15          1           0       -1.138328    3.712800    0.297860
     16          1           0       -2.690086    3.255580   -0.415179
     17          6           0        2.646753   -0.219905   -0.167138
     18          6           0        3.701843   -0.950500    0.597222
     19          1           0        3.335158   -1.852059    1.083352
     20          1           0        4.515117   -1.207464   -0.080609
     21          1           0        4.108740   -0.278518    1.353257
     22          8           0        2.913498    0.778128   -0.834884
     23          6           0       -1.662595   -1.762230    0.053642
     24          1           0       -1.368483   -2.815837    0.108881
     25          6           0       -3.130379   -1.726367   -0.331308
     26          1           0       -3.490816   -0.693931   -0.375804
     27          1           0       -3.297937   -2.177353   -1.311512
     28          1           0       -3.743100   -2.263104    0.395921
     29          6           0       -0.807683   -1.126654   -1.068841
     30          1           0       -0.311156   -1.915843   -1.636266
     31          1           0       -1.480334   -0.650293   -1.788223
 ---------------------------------------------------------------------
 Rotational constants (GHZ):      0.9886748      0.5665666      0.4287652
 Leave Link  202 at Wed Jun 18 04:31:20 2014, MaxMem=  4294967296 cpu:         5.5
 (Enter /home/ztw1e12/g09/l301.exe)
 Standard basis: CC-pVTZ (5D, 7F)
 Converting basis for Fermi contact spin-spin IFCMod=1.
 AO basis functions are being uncontracted.
 Ernie: Thresh=  0.10000D-02 Tol=  0.10000D-05 Strict=F.
 There are  1119 symmetry adapted cartesian basis functions of A   symmetry.
 There are  1036 symmetry adapted basis functions of A   symmetry.
  1036 basis functions,  1119 primitive gaussians,  1119 cartesian basis functions
    51 alpha electrons       51 beta electrons
       nuclear repulsion energy       879.3386158181 Hartrees.
 IExCor= 4235 DFT=T Ex+Corr=M06 ExCW=0 ScaHFX=  0.270000
 ScaDFX=  1.000000  1.000000  1.000000  1.000000 ScalE2=  1.000000  1.000000
 IRadAn= 199590 IRanWt=     -1 IRanGd=            0 ICorTp=0 IEmpDi=  4
 NAtoms=   31 NActive=   31 NUniq=   31 SFac= 1.00D+00 NAtFMM=   60 NAOKFM=F Big=F
 Integral buffers will be    131072 words long.
 Raffenetti 2 integral format.
 Two-electron integral symmetry is turned on.
 Leave Link  301 at Wed Jun 18 04:31:20 2014, MaxMem=  4294967296 cpu:         7.4
 (Enter /home/ztw1e12/g09/l302.exe)
 NPDir=0 NMtPBC=     1 NCelOv=     1 NCel=       1 NClECP=     1 NCelD=      1
         NCelK=      1 NCelE2=     1 NClLst=     1 CellRange=     0.0.
 One-electron integrals computed using PRISM.
 GSVD:  received Info=                   1 from GESDD.
 NBasis=  1036 RedAO= T EigKep=  1.23D-04  NBF=  1036
 NBsUse=   932 1.00D-06 EigRej=  5.21D-15 NBFU=   932
 Precomputing XC quadrature grid using
 IXCGrd= 4 IRadAn=      199590 IRanWt=          -1 IRanGd=           0 AccXCQ= 0.00D+00.
 Generated NRdTot=       0 NPtTot=           0 NUsed=           0 NTot=          32
 NSgBfM=   877   877   879   879   879 MxSgAt=    31 MxSgA2=    31.
 Leave Link  302 at Wed Jun 18 04:31:24 2014, MaxMem=  4294967296 cpu:        64.9
 (Enter /home/ztw1e12/g09/l308.exe)
 Leave Link  308 at Wed Jun 18 04:31:25 2014, MaxMem=  4294967296 cpu:         5.5
 (Enter /home/ztw1e12/g09/l303.exe)
 DipDrv:  MaxL=1.
 Leave Link  303 at Wed Jun 18 04:31:25 2014, MaxMem=  4294967296 cpu:         3.3
 (Enter /home/ztw1e12/g09/l401.exe)
 ExpMin= 1.03D-01 ExpMax= 1.38D+05 ExpMxC= 1.38D+05 IAcc=4 IRadAn=    199590 AccDes= 0.00D+00
 Harris functional with IExCor= 1009 and IRadAn=  199590 diagonalized for initial guess.
 HarFok:  IExCor= 1009 AccDes= 0.00D+00 IRadAn=    199590 IDoV= 1 UseB2=F ITyADJ=14
 ICtDFT=  3500011 ScaDFX=  1.000000  1.000000  1.000000  1.000000
 FoFCou: FMM=F IPFlag=           0 FMFlag=      100000 FMFlg1=           0
         NFxFlg=           0 DoJE=T BraDBF=F KetDBF=T FulRan=T
         wScrn=  0.000000 ICntrl=     500 IOpCl=  0 I1Cent=   200000004 NGrid=           0
         NMat0=    1 NMatS0=      1 NMatT0=    0 NMatD0=    1 NMtDS0=    0 NMtDT0=    0
 Petite list used in FoFCou.
 Harris En= -613.556678004686    
 JPrj=0 DoOrth=F DoCkMO=F.
 Leave Link  401 at Wed Jun 18 04:31:42 2014, MaxMem=  4294967296 cpu:       264.4
 (Enter /home/ztw1e12/g09/l502.exe)
 Closed shell SCF:
 Using DIIS extrapolation, IDIIS=  1040.
 Integral symmetry usage will be decided dynamically.
 IVT=     3801329 IEndB=     3801329 NGot=  4294967296 MDV=  4292435888
 LenX=  4292435888 LenY=  4291182608
 Requested convergence on RMS density matrix=1.00D-08 within 128 cycles.
 Requested convergence on MAX density matrix=1.00D-06.
 Requested convergence on             energy=1.00D-06.
 No special actions if energy rises.
 Fock matrices will be formed incrementally for  20 cycles.
 Integral accuracy reduced to 1.0D-05 until final iterations.

 Cycle   1  Pass 0  IDiag  1:
 FoFJK:  IHMeth= 1 ICntrl=       0 DoSepK=F KAlg= 0 I1Cent=   0 FoldK=F
 IRaf= 490000000 NMat=   1 IRICut=       1 DoRegI=T DoRafI=F ISym2E= 0.
 FoFCou: FMM=F IPFlag=           0 FMFlag=      100000 FMFlg1=           0
         NFxFlg=           0 DoJE=F BraDBF=F KetDBF=F FulRan=T
         wScrn=  0.000000 ICntrl=       0 IOpCl=  0 I1Cent=           0 NGrid=           0
         NMat0=    1 NMatS0=      1 NMatT0=    0 NMatD0=    1 NMtDS0=    0 NMtDT0=    0
 Symmetry not used in FoFCou.
 E= -613.175858524166    
 DIIS: error= 1.26D-01 at cycle   1 NSaved=   1.
 NSaved= 1 IEnMin= 1 EnMin= -613.175858524166     IErMin= 1 ErrMin= 1.26D-01
 ErrMax= 1.26D-01  0.00D+00 EMaxC= 1.00D-01 BMatC= 1.30D+01 BMatP= 1.30D+01
 IDIUse=3 WtCom= 0.00D+00 WtEn= 1.00D+00
 Coeff-Com:  0.100D+01
 Coeff-En:   0.100D+01
 Coeff:      0.100D+01
 Gap=     0.283 Goal=   None    Shift=    0.000
 GapD=    0.283 DampG=1.000 DampE=0.250 DampFc=0.2500 IDamp=-1.
 Damping current iteration by 2.50D-01
 RMSDP=2.16D-03 MaxDP=3.16D-01              OVMax= 2.89D-01

 Cycle   2  Pass 0  IDiag  1:
 RMSU=  5.39D-04    CP:  1.01D+00
 E= -613.332383568560     Delta-E=       -0.156525044393 Rises=F Damp=T
 DIIS: error= 9.67D-02 at cycle   2 NSaved=   2.
 NSaved= 2 IEnMin= 2 EnMin= -613.332383568560     IErMin= 2 ErrMin= 9.67D-02
 ErrMax= 9.67D-02  0.00D+00 EMaxC= 1.00D-01 BMatC= 7.66D+00 BMatP= 1.30D+01
 IDIUse=3 WtCom= 3.28D-02 WtEn= 9.67D-01
 Coeff-Com: -0.279D+01 0.379D+01
 Coeff-En:   0.000D+00 0.100D+01
 Coeff:     -0.914D-01 0.109D+01
 Gap=     0.226 Goal=   None    Shift=    0.000
 RMSDP=5.55D-04 MaxDP=5.43D-02 DE=-1.57D-01 OVMax= 1.43D-01

 Cycle   3  Pass 0  IDiag  1:
 RMSU=  4.52D-04    CP:  1.03D+00  1.59D+00
 E= -613.546625705037     Delta-E=       -0.214242136478 Rises=F Damp=F
 DIIS: error= 1.56D-02 at cycle   3 NSaved=   3.
 NSaved= 3 IEnMin= 3 EnMin= -613.546625705037     IErMin= 3 ErrMin= 1.56D-02
 ErrMax= 1.56D-02  0.00D+00 EMaxC= 1.00D-01 BMatC= 1.92D-01 BMatP= 7.66D+00
 IDIUse=3 WtCom= 8.44D-01 WtEn= 1.56D-01
 Coeff-Com:  0.874D+00-0.121D+01 0.134D+01
 Coeff-En:   0.651D-01 0.000D+00 0.935D+00
 Coeff:      0.748D+00-0.102D+01 0.127D+01
 Gap=     0.244 Goal=   None    Shift=    0.000
 RMSDP=3.92D-04 MaxDP=3.29D-02 DE=-2.14D-01 OVMax= 6.42D-02

 Cycle   4  Pass 0  IDiag  1:
 RMSU=  3.02D-04    CP:  1.03D+00  1.19D+00  7.33D-01
 E= -613.530144705890     Delta-E=        0.016480999147 Rises=F Damp=F
 DIIS: error= 9.54D-03 at cycle   4 NSaved=   4.
 NSaved= 4 IEnMin= 3 EnMin= -613.546625705037     IErMin= 4 ErrMin= 9.54D-03
 ErrMax= 9.54D-03  0.00D+00 EMaxC= 1.00D-01 BMatC= 1.10D-01 BMatP= 1.92D-01
 IDIUse=3 WtCom= 9.05D-01 WtEn= 9.54D-02
 Coeff-Com:  0.585D+00-0.813D+00 0.706D+00 0.522D+00
 Coeff-En:   0.000D+00 0.000D+00 0.561D+00 0.439D+00
 Coeff:      0.529D+00-0.735D+00 0.692D+00 0.514D+00
 Gap=     0.275 Goal=   None    Shift=    0.000
 RMSDP=2.86D-04 MaxDP=2.83D-02 DE= 1.65D-02 OVMax= 7.24D-02

 Cycle   5  Pass 0  IDiag  1:
 RMSU=  7.84D-05    CP:  1.02D+00  1.10D+00  8.49D-01  1.20D-01
 E= -613.610054887214     Delta-E=       -0.079910181324 Rises=F Damp=F
 DIIS: error= 3.31D-03 at cycle   5 NSaved=   5.
 NSaved= 5 IEnMin= 5 EnMin= -613.610054887214     IErMin= 5 ErrMin= 3.31D-03
 ErrMax= 3.31D-03  0.00D+00 EMaxC= 1.00D-01 BMatC= 1.16D-02 BMatP= 1.10D-01
 IDIUse=3 WtCom= 9.67D-01 WtEn= 3.31D-02
 Coeff-Com:  0.552D-01-0.838D-01 0.827D-01 0.242D+00 0.704D+00
 Coeff-En:   0.000D+00 0.000D+00 0.000D+00 0.468D-01 0.953D+00
 Coeff:      0.534D-01-0.810D-01 0.799D-01 0.236D+00 0.712D+00
 Gap=     0.265 Goal=   None    Shift=    0.000
 RMSDP=1.36D-04 MaxDP=1.98D-02 DE=-7.99D-02 OVMax= 2.45D-02

 Cycle   6  Pass 0  IDiag  1:
 RMSU=  6.20D-05    CP:  1.03D+00  1.16D+00  9.28D-01  4.51D-01  3.94D-01
 E= -613.616789777149     Delta-E=       -0.006734889935 Rises=F Damp=F
 DIIS: error= 9.00D-04 at cycle   6 NSaved=   6.
 NSaved= 6 IEnMin= 6 EnMin= -613.616789777149     IErMin= 6 ErrMin= 9.00D-04
 ErrMax= 9.00D-04  0.00D+00 EMaxC= 1.00D-01 BMatC= 8.70D-04 BMatP= 1.16D-02
 IDIUse=3 WtCom= 9.91D-01 WtEn= 9.00D-03
 Coeff-Com:  0.246D-01-0.339D-01 0.232D-02 0.510D-01 0.246D+00 0.710D+00
 Coeff-En:   0.000D+00 0.000D+00 0.000D+00 0.000D+00 0.537D-02 0.995D+00
 Coeff:      0.244D-01-0.336D-01 0.230D-02 0.505D-01 0.244D+00 0.712D+00
 Gap=     0.265 Goal=   None    Shift=    0.000
 RMSDP=2.77D-05 MaxDP=3.82D-03 DE=-6.73D-03 OVMax= 6.57D-03

 Cycle   7  Pass 0  IDiag  1:
 RMSU=  1.96D-05    CP:  1.03D+00  1.13D+00  9.21D-01  4.42D-01  5.44D-01
                    CP:  9.94D-01
 E= -613.617277635640     Delta-E=       -0.000487858491 Rises=F Damp=F
 DIIS: error= 4.00D-04 at cycle   7 NSaved=   7.
 NSaved= 7 IEnMin= 7 EnMin= -613.617277635640     IErMin= 7 ErrMin= 4.00D-04
 ErrMax= 4.00D-04  0.00D+00 EMaxC= 1.00D-01 BMatC= 1.78D-04 BMatP= 8.70D-04
 IDIUse=3 WtCom= 9.96D-01 WtEn= 4.00D-03
 Coeff-Com:  0.186D-01-0.248D-01 0.196D-02 0.138D-01 0.815D-01 0.392D+00
 Coeff-Com:  0.517D+00
 Coeff-En:   0.000D+00 0.000D+00 0.000D+00 0.000D+00 0.000D+00 0.131D+00
 Coeff-En:   0.869D+00
 Coeff:      0.185D-01-0.247D-01 0.195D-02 0.138D-01 0.812D-01 0.391D+00
 Coeff:      0.518D+00
 Gap=     0.265 Goal=   None    Shift=    0.000
 RMSDP=9.79D-06 MaxDP=1.11D-03 DE=-4.88D-04 OVMax= 2.28D-03

 Cycle   8  Pass 0  IDiag  1:
 RMSU=  5.72D-06    CP:  1.03D+00  1.13D+00  9.25D-01  4.51D-01  5.30D-01
                    CP:  1.05D+00  6.82D-01
 E= -613.617403815531     Delta-E=       -0.000126179891 Rises=F Damp=F
 DIIS: error= 1.29D-04 at cycle   8 NSaved=   8.
 NSaved= 8 IEnMin= 8 EnMin= -613.617403815531     IErMin= 8 ErrMin= 1.29D-04
 ErrMax= 1.29D-04  0.00D+00 EMaxC= 1.00D-01 BMatC= 1.61D-05 BMatP= 1.78D-04
 IDIUse=3 WtCom= 9.99D-01 WtEn= 1.29D-03
 Coeff-Com:  0.105D-01-0.140D-01 0.245D-02 0.224D-02 0.206D-01 0.164D+00
 Coeff-Com:  0.295D+00 0.519D+00
 Coeff-En:   0.000D+00 0.000D+00 0.000D+00 0.000D+00 0.000D+00 0.000D+00
 Coeff-En:   0.000D+00 0.100D+01
 Coeff:      0.104D-01-0.140D-01 0.245D-02 0.224D-02 0.206D-01 0.164D+00
 Coeff:      0.294D+00 0.520D+00
 Gap=     0.264 Goal=   None    Shift=    0.000
 RMSDP=4.20D-06 MaxDP=5.04D-04 DE=-1.26D-04 OVMax= 9.86D-04

 Initial convergence to 1.0D-05 achieved.  Increase integral accuracy.
 Cycle   9  Pass 1  IDiag  1:
 E= -613.617420258212     Delta-E=       -0.000016442681 Rises=F Damp=F
 DIIS: error= 7.81D-05 at cycle   1 NSaved=   1.
 NSaved= 1 IEnMin= 1 EnMin= -613.617420258212     IErMin= 1 ErrMin= 7.81D-05
 ErrMax= 7.81D-05  0.00D+00 EMaxC= 1.00D-01 BMatC= 9.18D-06 BMatP= 9.18D-06
 IDIUse=1 WtCom= 1.00D+00 WtEn= 0.00D+00
 Coeff-Com:  0.100D+01
 Coeff:      0.100D+01
 Gap=     0.265 Goal=   None    Shift=    0.000
 RMSDP=4.20D-06 MaxDP=5.04D-04 DE=-1.64D-05 OVMax= 1.01D-03

 Cycle  10  Pass 1  IDiag  1:
 RMSU=  2.46D-05    CP:  1.00D+00
 E= -613.617418701234     Delta-E=        0.000001556978 Rises=F Damp=F
 DIIS: error= 9.18D-05 at cycle   2 NSaved=   2.
 NSaved= 2 IEnMin= 1 EnMin= -613.617420258212     IErMin= 1 ErrMin= 7.81D-05
 ErrMax= 9.18D-05  0.00D+00 EMaxC= 1.00D-01 BMatC= 9.73D-06 BMatP= 9.18D-06
 IDIUse=1 WtCom= 1.00D+00 WtEn= 0.00D+00
 Coeff-Com:  0.510D+00 0.490D+00
 Coeff:      0.510D+00 0.490D+00
 Gap=     0.264 Goal=   None    Shift=    0.000
 RMSDP=3.56D-06 MaxDP=4.63D-04 DE= 1.56D-06 OVMax= 9.86D-04

 Cycle  11  Pass 1  IDiag  1:
 RMSU=  3.53D-06    CP:  1.00D+00  9.83D-01
 E= -613.617423864421     Delta-E=       -0.000005163187 Rises=F Damp=F
 DIIS: error= 5.09D-05 at cycle   3 NSaved=   3.
 NSaved= 3 IEnMin= 3 EnMin= -613.617423864421     IErMin= 3 ErrMin= 5.09D-05
 ErrMax= 5.09D-05  0.00D+00 EMaxC= 1.00D-01 BMatC= 2.54D-06 BMatP= 9.18D-06
 IDIUse=1 WtCom= 1.00D+00 WtEn= 0.00D+00
 Coeff-Com:  0.298D-01 0.335D+00 0.635D+00
 Coeff:      0.298D-01 0.335D+00 0.635D+00
 Gap=     0.264 Goal=   None    Shift=    0.000
 RMSDP=1.24D-06 MaxDP=1.27D-04 DE=-5.16D-06 OVMax= 3.50D-04

 Cycle  12  Pass 1  IDiag  1:
 RMSU=  4.10D-07    CP:  1.00D+00  1.00D+00  6.93D-01
 E= -613.617425612284     Delta-E=       -0.000001747862 Rises=F Damp=F
 DIIS: error= 1.20D-05 at cycle   4 NSaved=   4.
 NSaved= 4 IEnMin= 4 EnMin= -613.617425612284     IErMin= 4 ErrMin= 1.20D-05
 ErrMax= 1.20D-05  0.00D+00 EMaxC= 1.00D-01 BMatC= 8.32D-08 BMatP= 2.54D-06
 IDIUse=1 WtCom= 1.00D+00 WtEn= 0.00D+00
 Coeff-Com:  0.836D-03 0.165D+00 0.341D+00 0.493D+00
 Coeff:      0.836D-03 0.165D+00 0.341D+00 0.493D+00
 Gap=     0.264 Goal=   None    Shift=    0.000
 RMSDP=2.12D-07 MaxDP=2.15D-05 DE=-1.75D-06 OVMax= 4.08D-05

 Cycle  13  Pass 1  IDiag  1:
 RMSU=  1.53D-07    CP:  1.00D+00  1.00D+00  6.96D-01  6.48D-01
 E= -613.617425675038     Delta-E=       -0.000000062754 Rises=F Damp=F
 DIIS: error= 1.52D-06 at cycle   5 NSaved=   5.
 NSaved= 5 IEnMin= 5 EnMin= -613.617425675038     IErMin= 5 ErrMin= 1.52D-06
 ErrMax= 1.52D-06  0.00D+00 EMaxC= 1.00D-01 BMatC= 2.51D-09 BMatP= 8.32D-08
 IDIUse=1 WtCom= 1.00D+00 WtEn= 0.00D+00
 Coeff-Com: -0.168D-02 0.479D-01 0.103D+00 0.211D+00 0.640D+00
 Coeff:     -0.168D-02 0.479D-01 0.103D+00 0.211D+00 0.640D+00
 Gap=     0.264 Goal=   None    Shift=    0.000
 RMSDP=4.36D-08 MaxDP=5.36D-06 DE=-6.28D-08 OVMax= 7.30D-06

 Cycle  14  Pass 1  IDiag  1:
 RMSU=  2.55D-08    CP:  1.00D+00  1.00D+00  6.98D-01  7.29D-01  9.70D-01
 E= -613.617425676557     Delta-E=       -0.000000001519 Rises=F Damp=F
 DIIS: error= 3.14D-07 at cycle   6 NSaved=   6.
 NSaved= 6 IEnMin= 6 EnMin= -613.617425676557     IErMin= 6 ErrMin= 3.14D-07
 ErrMax= 3.14D-07  0.00D+00 EMaxC= 1.00D-01 BMatC= 1.32D-10 BMatP= 2.51D-09
 IDIUse=1 WtCom= 1.00D+00 WtEn= 0.00D+00
 Coeff-Com: -0.714D-03 0.124D-01 0.273D-01 0.657D-01 0.263D+00 0.633D+00
 Coeff:     -0.714D-03 0.124D-01 0.273D-01 0.657D-01 0.263D+00 0.633D+00
 Gap=     0.264 Goal=   None    Shift=    0.000
 RMSDP=1.38D-08 MaxDP=9.90D-07 DE=-1.52D-09 OVMax= 4.10D-06

 Cycle  15  Pass 1  IDiag  1:
 RMSU=  1.16D-08    CP:  1.00D+00  1.00D+00  6.98D-01  7.39D-01  9.89D-01
                    CP:  7.97D-01
 E= -613.617425676597     Delta-E=       -0.000000000040 Rises=F Damp=F
 DIIS: error= 2.79D-07 at cycle   7 NSaved=   7.
 NSaved= 7 IEnMin= 7 EnMin= -613.617425676597     IErMin= 7 ErrMin= 2.79D-07
 ErrMax= 2.79D-07  0.00D+00 EMaxC= 1.00D-01 BMatC= 5.74D-11 BMatP= 1.32D-10
 IDIUse=1 WtCom= 1.00D+00 WtEn= 0.00D+00
 Coeff-Com: -0.158D-03-0.798D-03-0.129D-02 0.254D-02 0.467D-01 0.410D+00
 Coeff-Com:  0.543D+00
 Coeff:     -0.158D-03-0.798D-03-0.129D-02 0.254D-02 0.467D-01 0.410D+00
 Coeff:      0.543D+00
 Gap=     0.264 Goal=   None    Shift=    0.000
 RMSDP=9.52D-09 MaxDP=1.58D-06 DE=-3.96D-11 OVMax= 1.97D-06

 Cycle  16  Pass 1  IDiag  1:
 RMSU=  4.24D-09    CP:  1.00D+00  1.00D+00  6.99D-01  7.47D-01  1.02D+00
                    CP:  9.81D-01  6.92D-01
 E= -613.617425676614     Delta-E=       -0.000000000017 Rises=F Damp=F
 DIIS: error= 1.01D-07 at cycle   8 NSaved=   8.
 NSaved= 8 IEnMin= 8 EnMin= -613.617425676614     IErMin= 8 ErrMin= 1.01D-07
 ErrMax= 1.01D-07  0.00D+00 EMaxC= 1.00D-01 BMatC= 6.29D-12 BMatP= 5.74D-11
 IDIUse=1 WtCom= 1.00D+00 WtEn= 0.00D+00
 Coeff-Com: -0.886D-06-0.211D-02-0.432D-02-0.692D-02-0.560D-02 0.167D+00
 Coeff-Com:  0.318D+00 0.534D+00
 Coeff:     -0.886D-06-0.211D-02-0.432D-02-0.692D-02-0.560D-02 0.167D+00
 Coeff:      0.318D+00 0.534D+00
 Gap=     0.264 Goal=   None    Shift=    0.000
 RMSDP=2.19D-09 MaxDP=1.53D-07 DE=-1.68D-11 OVMax= 4.47D-07

 SCF Done:  E(RM06) =  -613.617425677     A.U. after   16 cycles
            NFock= 16  Conv=0.22D-08     -V/T= 2.0046
 KE= 6.107974279791D+02 PE=-3.189989889196D+03 EE= 1.086236419722D+03
 Leave Link  502 at Wed Jun 18 05:01:01 2014, MaxMem=  4294967296 cpu:     28073.1
 (Enter /home/ztw1e12/g09/l801.exe)
 DoSCS=F DFT=T ScalE2(SS,OS)=  1.000000  1.000000
 Range of M.O.s used for correlation:     1   932
 NBasis=  1036 NAE=    51 NBE=    51 NFC=     0 NFV=     0
 NROrb=    932 NOA=    51 NOB=    51 NVA=   881 NVB=   881

 **** Warning!!: The largest alpha MO coefficient is  0.11113875D+02

 Leave Link  801 at Wed Jun 18 05:01:01 2014, MaxMem=  4294967296 cpu:         0.3
 (Enter /home/ztw1e12/g09/l1002.exe)
 Minotr:  Closed shell wavefunction.
          IDoAtm=1111111111111111111111111111111
          Direct CPHF calculation.
          Differentiating once with respect to Fermi-contact.
          Electric field/nuclear overlap derivatives assumed to be zero.
          Requested convergence is 1.0D-10 RMS, and 1.0D-09 maximum.
          Secondary convergence is 1.0D-12 RMS, and 1.0D-12 maximum.
          NewPWx=T KeepS1=F KeepF1=F KeepIn=T MapXYZ=F SortEE=F KeepMc=T.
          MDV=    4294966050 using IRadAn=  199590.
 Using stored XC quadrature information.
          Solving linear equations simultaneously, MaxMat=       0.
          There are    31 degrees of freedom in the 1st order CPHF.  IDoFFX=0 NUNeed=    31.
     31 vectors produced by pass  0 Test12= 1.45D-17 3.23D-11 XBig12= 4.16D+01 2.57D+00.
 AX will form    31 AO Fock derivatives at one time.
 FoFJK:  IHMeth= 1 ICntrl=       0 DoSepK=F KAlg= 0 I1Cent=   0 FoldK=F
 IRaf= 510000000 NMat=  31 IRICut=       1 DoRegI=T DoRafI=F ISym2E=-1.
 FoFCou: FMM=F IPFlag=           0 FMFlag=      100000 FMFlg1=           0
         NFxFlg=           0 DoJE=F BraDBF=F KetDBF=F FulRan=T
         wScrn=  0.000000 ICntrl=       0 IOpCl=  0 I1Cent=           0 NGrid=           0
         NMat0=   31 NMatS0=      0 NMatT0=   31 NMatD0=   31 NMtDS0=    0 NMtDT0=    0
 Petite list used in FoFCou.
     31 vectors produced by pass  1 Test12= 1.45D-17 3.23D-11 XBig12= 3.43D-01 1.76D-01.
     31 vectors produced by pass  2 Test12= 1.45D-17 3.23D-11 XBig12= 1.67D-02 4.24D-02.
     31 vectors produced by pass  3 Test12= 1.45D-17 3.23D-11 XBig12= 3.71D-04 6.39D-03.
     31 vectors produced by pass  4 Test12= 1.45D-17 3.23D-11 XBig12= 5.49D-06 9.19D-04.
     31 vectors produced by pass  5 Test12= 1.45D-17 3.23D-11 XBig12= 1.36D-07 1.67D-04.
     31 vectors produced by pass  6 Test12= 1.45D-17 3.23D-11 XBig12= 4.49D-09 1.84D-05.
     31 vectors produced by pass  7 Test12= 1.45D-17 3.23D-11 XBig12= 1.47D-10 4.97D-06.
     31 vectors produced by pass  8 Test12= 1.45D-17 3.23D-11 XBig12= 3.50D-12 4.50D-07.
     31 vectors produced by pass  9 Test12= 1.45D-17 3.23D-11 XBig12= 8.37D-14 9.01D-08.
     31 vectors produced by pass 10 Test12= 1.45D-17 3.23D-11 XBig12= 4.05D-15 1.23D-08.
     30 vectors produced by pass 11 Test12= 1.45D-17 3.23D-11 XBig12= 4.79D-17 9.71D-10.
      2 vectors produced by pass 12 Test12= 1.45D-17 3.23D-11 XBig12= 3.55D-19 5.95D-11.
 InvSVY:  IOpt=1 It=  1 EMax= 8.88D-15
 Solved reduced A of dimension   373 with    31 vectors.
 Max diff in FC couplings:  IJMax=    11     1 Diff= 4.55D-04 IJMaxR=    27    18 DiffR= 5.60D-01
 Fermi Contact (FC) contribution to K (Hz):
                1             2             3             4             5 
      1  0.123400D+11
      2  0.268300D+02  0.123400D+11
      3 -0.130865D+01  0.187396D+02  0.123400D+11
      4  0.194518D+00  0.168145D+01  0.222892D-01  0.123400D+11
      5  0.225848D-01  0.125242D+00  0.316615D-02  0.167993D+02  0.123400D+11
      6  0.432522D-01  0.269734D-01  0.119940D-01  0.174290D+02 -0.866855D+00
      7  0.123155D-01  0.466299D-01  0.576407D-02  0.173406D+02 -0.847217D+00
      8 -0.960577D+01  0.283119D+01  0.353325D+00  0.964190D+00  0.166276D+00
      9  0.334373D+00  0.193368D+02 -0.888471D+00  0.778555D+00  0.635246D-01
     10 -0.433812D-01  0.253398D+00  0.264304D+00  0.638391D-02  0.357408D-03
     11  0.279828D+02  0.133724D+02 -0.167415D-01  0.274617D+00  0.387149D-01
     12  0.457272D+00  0.671722D-01 -0.197622D-01 -0.654235D-02 -0.122007D-02
     13 -0.458045D+00  0.960023D+00 -0.664208D-01  0.104322D-02 -0.358463D-03
     14  0.212870D+00 -0.880826D-01  0.347547D-01  0.119077D-01  0.169483D-02
     15  0.159818D+00 -0.789901D-01  0.256508D-01  0.456399D-02  0.136800D-02
     16  0.961009D+00 -0.145098D-01  0.658080D-03  0.277748D-02  0.247327D-03
     17  0.104129D-01 -0.522466D+00  0.422715D+00  0.250222D-01  0.526789D-02
     18 -0.152167D+00  0.895776D+00 -0.863968D-01 -0.309814D-02 -0.374386D-03
     19 -0.251828D-03  0.108515D+00 -0.276621D-02 -0.944822D-03 -0.262607D-04
     20  0.492486D-01  0.241934D-01  0.784663D-02  0.133138D-02  0.167641D-03
     21  0.921802D-01  0.390037D-01  0.167925D-01  0.469154D-03  0.167152D-03
     22  0.429598D+00  0.769013D+00  0.118473D+00  0.768694D-01  0.223879D-02
     23  0.684992D+00 -0.569357D+00  0.113203D+01  0.170479D+02 -0.663951D+00
     24 -0.141878D-01  0.134891D+00 -0.217054D-01 -0.845040D+00  0.166887D+00
     25 -0.449904D-01  0.956350D+00 -0.404075D-01 -0.118970D+00  0.294802D+00
     26  0.645415D-02 -0.889024D-02  0.333703D-02  0.466866D+00 -0.676190D-02
     27  0.131621D-02  0.166351D-02 -0.789963D-03  0.136171D+01  0.671354D-02
     28  0.198397D-02  0.133150D+00  0.182577D-02  0.282456D+00 -0.797456D-02
     29 -0.262457D-01  0.171509D+02 -0.905977D+00 -0.299271D+00  0.122557D+01
     30  0.105921D+01 -0.969500D+00  0.116588D+00  0.416435D+00 -0.116159D-01
     31  0.552447D-01 -0.556078D+00  0.192034D+00  0.121964D+00 -0.635943D-02
                6             7             8             9            10 
      6  0.123400D+11
      7 -0.776507D+00  0.123400D+11
      8  0.128936D+00  0.204412D+00  0.123400D+11
      9  0.285683D+00  0.868189D-02  0.531346D+00  0.123400D+11
     10 -0.200106D-01 -0.879001D-03 -0.109174D-01  0.312432D+02  0.123400D+11
     11 -0.688097D-02  0.667882D-01  0.638735D+01  0.834684D+00  0.674766D-01
     12  0.919776D-03 -0.218872D-03  0.485327D+00  0.343650D-01 -0.165255D-02
     13 -0.422377D-03  0.226760D-01  0.679955D+00  0.280512D+00 -0.180973D-02
     14  0.145696D-03  0.791994D-02  0.251975D+00 -0.747890D-02  0.100257D-02
     15  0.996384D-04  0.209550D-02  0.237732D+00 -0.845145D-03  0.432847D-03
     16 -0.109766D-03  0.818426D-03  0.188884D+00  0.343848D-01 -0.486284D-03
     17  0.243154D-01 -0.690559D-03  0.138563D+00  0.266582D+02  0.379491D+00
     18  0.181076D-02  0.181902D-03  0.675166D-01  0.129892D+02  0.113898D+00
     19  0.688179D-03  0.498055D-04 -0.181710D-03  0.349313D+00 -0.118337D-01
     20  0.231033D-03 -0.195871D-04  0.560937D-02  0.390714D+00 -0.570902D-02
     21  0.272664D-03  0.858206D-04  0.315056D-02  0.341899D+00 -0.162865D-01
     22  0.894855D-03 -0.119422D-04  0.664356D+00  0.568884D+01  0.368278D+00
     23 -0.525884D+00 -0.749749D+00  0.562583D-01  0.636515D-01 -0.575663D-02
     24  0.126603D+00  0.443075D+00  0.129079D-01 -0.122495D-01  0.460036D-02
     25  0.145969D+01  0.489867D+00  0.713482D-02  0.104186D+00  0.394488D-02
     26 -0.102726D-01 -0.177053D-01 -0.117951D-03  0.100294D-01  0.750327D-03
     27  0.877580D-01 -0.880668D-02  0.181639D-02  0.464996D-02 -0.312569D-03
     28  0.486720D-02 -0.343767D-02 -0.137449D-02  0.181825D-03  0.421352D-03
     29  0.232560D+00  0.236766D+00  0.414977D+00  0.891352D+00  0.383803D+00
     30 -0.789240D-02 -0.138792D-01  0.865923D-01  0.655560D+00 -0.116591D-01
     31 -0.614813D-02 -0.713698D-02 -0.240517D-01  0.189721D+01 -0.205243D-01
               11            12            13            14            15 
     11  0.123400D+11
     12  0.310203D+02  0.123400D+11
     13  0.169830D+02  0.303688D+00  0.123400D+11
     14 -0.600294D+00  0.545933D-01  0.196231D+02  0.123400D+11
     15 -0.510320D+00  0.163510D+00  0.203365D+02 -0.733218D+00  0.123400D+11
     16 -0.349445D+00  0.286116D+00  0.182431D+02 -0.731461D+00 -0.757213D+00
     17 -0.543488D-01 -0.152960D-02 -0.154634D-01  0.150218D-02  0.172200D-02
     18  0.179085D-01  0.176454D-02  0.136844D-01 -0.205668D-03  0.126112D-03
     19  0.470064D-02 -0.240344D-04 -0.359909D-04 -0.159758D-04 -0.929829D-05
     20 -0.217728D-02 -0.350529D-04 -0.331565D-03  0.310394D-04  0.387935D-05
     21  0.253630D-01  0.118728D-03  0.393022D-02 -0.831697D-04 -0.140096D-03
     22  0.187133D+00 -0.188899D-02  0.128477D-01  0.455201D-03  0.131383D-02
     23  0.175194D-01  0.118914D-01 -0.555566D-02  0.320632D-03  0.841111D-04
     24  0.433678D-01 -0.195953D-02 -0.299681D-04  0.241483D-02  0.745137D-03
     25  0.128516D+00  0.131323D-01 -0.133239D-01  0.311989D-02  0.679942D-02
     26  0.654149D-01  0.781384D-03  0.326638D-02  0.233400D-02  0.243462D-02
     27  0.194585D-02  0.173829D-03  0.353957D-03  0.347202D-03  0.126096D-03
     28  0.105060D-01  0.133183D-02 -0.121461D-02  0.178202D-03  0.675790D-03
     29 -0.406834D-01 -0.431408D-01 -0.581387D-01  0.361057D-01  0.820398D-01
     30 -0.297107D-01 -0.139636D-01 -0.695061D-02 -0.213782D-03  0.491573D-02
     31  0.296956D+00 -0.360465D-01  0.118728D-01 -0.138082D-02  0.281839D-02
               16            17            18            19            20 
     16  0.123400D+11
     17  0.139315D-03  0.123400D+11
     18  0.549012D-03  0.273657D+02  0.123400D+11
     19  0.154775D-04 -0.752015D+00  0.169748D+02  0.123400D+11
     20  0.767859D-04 -0.116232D+01  0.179650D+02 -0.712257D+00  0.123400D+11
     21  0.321696D-03 -0.122355D+01  0.179547D+02 -0.748475D+00 -0.922121D+00
     22  0.663153D-03 -0.961003D+01  0.381952D+01  0.824856D+00  0.422654D+00
     23 -0.109273D-02 -0.789746D-01  0.146724D-01 -0.402843D-03 -0.139675D-02
     24  0.454612D-03  0.445007D-02 -0.632822D-03 -0.620841D-04  0.154437D-04
     25  0.143108D-02  0.235019D-01  0.402692D-02  0.635518D-03  0.133655D-02
     26  0.980932D-03  0.268837D-02  0.509516D-04 -0.125021D-04  0.376197D-05
     27 -0.580967D-05  0.670621D-03  0.774734D-04  0.772802D-05  0.603403D-04
     28  0.752688D-04  0.305305D-02 -0.220825D-03  0.268825D-04  0.207104D-03
     29  0.466427D-02  0.123877D+01 -0.367259D-01 -0.328467D-02  0.263389D-01
     30  0.140431D-02 -0.298892D-02  0.119630D-01  0.180368D-03  0.653069D-04
     31  0.996539D-03  0.958431D-01  0.624006D-01 -0.165359D-03  0.367681D-02
               21            22            23            24            25 
     21  0.123400D+11
     22  0.446858D+00  0.123400D+11
     23 -0.403818D-03  0.125019D+00  0.123400D+11
     24  0.177194D-04 -0.942619D-03  0.168569D+02  0.123400D+11
     25 -0.254888D-03  0.511339D-02  0.175172D+02 -0.787280D+00  0.123400D+11
     26 -0.109120D-04 -0.223042D-03 -0.731159D+00  0.394929D+00  0.170710D+02
     27 -0.268074D-04  0.273056D-03 -0.623736D+00  0.153686D+00  0.173894D+02
     28 -0.811733D-04  0.502542D-02 -0.537424D+00  0.128517D+00  0.175223D+02
     29 -0.481888D-02  0.138531D+00  0.172672D+02 -0.738351D+00  0.229744D+00
     30 -0.100601D-02 -0.237797D-02 -0.536324D+00  0.393989D+00  0.149926D+00
     31 -0.197156D-02  0.854794D-02 -0.694881D+00  0.140941D+00  0.121537D+01
               26            27            28            29            30 
     26  0.123400D+11
     27 -0.755096D+00  0.123400D+11
     28 -0.757192D+00 -0.770872D+00  0.123400D+11
     29  0.417957D+00  0.375231D+00  0.147039D+01  0.123400D+11
     30 -0.626314D-02 -0.535683D-02 -0.145453D-01  0.178723D+02  0.123400D+11
     31 -0.190570D-01 -0.604730D-02  0.335021D-01  0.163915D+02 -0.961077D+00
               31 
     31  0.123400D+11
 Fermi Contact (FC) contribution to J (Hz):
                1             2             3             4             5 
      1  0.243533D+11
      2  0.529496D+02  0.243533D+11
      3 -0.102688D+02  0.147048D+03  0.385007D+12
      4  0.383886D+00  0.331839D+01  0.174901D+00  0.243533D+11
      5  0.177221D+00  0.982758D+00  0.987839D-01  0.131823D+03  0.385007D+12
      6  0.339396D+00  0.211657D+00  0.374214D+00  0.136764D+03 -0.270458D+02
      7  0.966388D-01  0.365900D+00  0.179839D+00  0.136070D+03 -0.264331D+02
      8  0.102223D+02 -0.301290D+01 -0.149501D+01 -0.102607D+01 -0.703558D+00
      9  0.189660D+00  0.109681D+02 -0.200375D+01  0.441606D+00  0.143266D+00
     10 -0.340408D+00  0.198839D+01  0.824627D+01  0.500939D-01  0.111511D-01
     11  0.158722D+02  0.758498D+01 -0.377569D-01  0.155766D+00  0.873131D-01
     12  0.358817D+01  0.527094D+00 -0.616581D+00 -0.513372D-01 -0.380661D-01
     13 -0.903963D+00  0.189463D+01 -0.521198D+00  0.205883D-02 -0.281282D-02
     14  0.167037D+01 -0.691176D+00  0.108434D+01  0.934384D-01  0.528786D-01
     15  0.125408D+01 -0.619828D+00  0.800303D+00  0.358132D-01  0.426814D-01
     16  0.754094D+01 -0.113857D+00  0.205321D-01  0.217946D-01  0.771658D-02
     17  0.205502D-01 -0.103110D+01  0.331700D+01  0.493820D-01  0.413366D-01
     18 -0.300305D+00  0.176784D+01 -0.677947D+00 -0.611426D-02 -0.293777D-02
     19 -0.197607D-02  0.851511D+00 -0.863055D-01 -0.741392D-02 -0.819333D-03
     20  0.386449D+00  0.189843D+00  0.244814D+00  0.104472D-01  0.523038D-02
     21  0.723329D+00  0.306058D+00  0.523926D+00  0.368141D-02  0.521514D-02
     22 -0.457170D+00 -0.818369D+00 -0.501293D+00 -0.818029D-01 -0.947295D-02
     23  0.135185D+01 -0.112364D+01  0.888296D+01  0.336445D+02 -0.520996D+01
     24 -0.111330D+00  0.105848D+01 -0.677208D+00 -0.663095D+01  0.520687D+01
     25 -0.887896D-01  0.188738D+01 -0.317074D+00 -0.234791D+00  0.231328D+01
     26  0.506451D-01 -0.697609D-01  0.104115D+00  0.366345D+01 -0.210971D+00
     27  0.103282D-01  0.130534D-01 -0.246468D-01  0.106852D+02  0.209462D+00
     28  0.155680D-01  0.104482D+01  0.569641D-01  0.221640D+01 -0.248806D+00
     29 -0.517965D-01  0.338476D+02 -0.710911D+01 -0.590618D+00  0.961692D+01
     30  0.831148D+01 -0.760757D+01  0.363753D+01  0.326773D+01 -0.362415D+00
     31  0.433500D+00 -0.436349D+01  0.599146D+01  0.957039D+00 -0.198414D+00
                6             7             8             9            10 
      6  0.385007D+12
      7 -0.242270D+02  0.385007D+12
      8 -0.545563D+00 -0.864923D+00  0.708114D+10
      9  0.644296D+00  0.195801D-01 -0.162516D+00  0.201170D+10
     10 -0.624329D+00 -0.274248D-01  0.461944D-01  0.704622D+02  0.385007D+12
     11 -0.155186D-01  0.150626D+00 -0.195362D+01  0.136073D+00  0.152179D+00
     12  0.286970D-01 -0.682879D-02 -0.205355D+01  0.775028D-01 -0.515594D-01
     13 -0.331435D-02  0.177936D+00 -0.723595D+00  0.159110D+00 -0.142008D-01
     14  0.454569D-02  0.247102D+00 -0.106617D+01 -0.168671D-01  0.312801D-01
     15  0.310871D-02  0.653796D-01 -0.100591D+01 -0.190604D-02  0.135048D-01
     16 -0.342469D-02  0.255349D-01 -0.799220D+00  0.775474D-01 -0.151720D-01
     17  0.190800D+00 -0.541875D-02 -0.147456D+00  0.151208D+02  0.297783D+01
     18  0.142088D-01  0.142736D-02 -0.718499D-01  0.736762D+01  0.893748D+00
     19  0.214712D-01  0.155393D-02  0.768864D-03  0.787800D+00 -0.369211D+00
     20  0.720822D-02 -0.611116D-03 -0.237348D-01  0.881171D+00 -0.178121D+00
     21  0.850712D-02  0.267760D-02 -0.133309D-01  0.771079D+00 -0.508138D+00
     22 -0.378637D-02  0.505307D-04  0.381232D+00 -0.173997D+01 -0.155829D+01
     23 -0.412656D+01 -0.588321D+01 -0.598690D-01  0.361039D-01 -0.451717D-01
     24  0.395000D+01  0.138239D+02 -0.546167D-01 -0.276261D-01  0.143531D+00
     25  0.114540D+02  0.384394D+01 -0.759274D-02  0.590957D-01  0.309551D-01
     26 -0.320503D+00 -0.552404D+00  0.499081D-03  0.226192D-01  0.234102D-01
     27  0.273805D+01 -0.274768D+00 -0.768564D-02  0.104870D-01 -0.975214D-02
     28  0.151856D+00 -0.107255D+00  0.581584D-02  0.410067D-03  0.131462D-01
     29  0.182488D+01  0.185788D+01 -0.441611D+00  0.505586D+00  0.301166D+01
     30 -0.246242D+00 -0.433029D+00 -0.366395D+00  0.147848D+01 -0.363762D+00
     31 -0.191821D+00 -0.222673D+00  0.101769D+00  0.427875D+01 -0.640358D+00
               11            12            13            14            15 
     11  0.201170D+10
     12  0.699597D+02  0.385007D+12
     13  0.963296D+01  0.238301D+01  0.243533D+11
     14 -0.135383D+01  0.170331D+01  0.153980D+03  0.385007D+12
     15 -0.115092D+01  0.510150D+01  0.159578D+03 -0.228764D+02  0.385007D+12
     16 -0.788099D+00  0.892682D+01  0.143152D+03 -0.228215D+02 -0.236250D+02
     17 -0.308273D-01 -0.120026D-01 -0.305175D-01  0.117875D-01  0.135124D-01
     18  0.101579D-01  0.138462D-01  0.270065D-01 -0.161386D-02  0.989590D-03
     19  0.106013D-01 -0.749872D-03 -0.282417D-03 -0.498443D-03 -0.290106D-03
     20 -0.491038D-02 -0.109365D-02 -0.260176D-02  0.968427D-03  0.121036D-03
     21  0.572008D-01  0.370432D-02  0.308401D-01 -0.259489D-02 -0.437098D-02
     22 -0.572358D-01  0.799282D-02 -0.136722D-01 -0.192608D-02 -0.555916D-02
     23  0.993719D-02  0.933108D-01 -0.109642D-01  0.251596D-02  0.660012D-03
     24  0.978067D-01 -0.611373D-01 -0.235157D-03  0.753426D-01  0.232482D-01
     25  0.728959D-01  0.103048D+00 -0.262950D-01  0.244815D-01  0.533544D-01
     26  0.147529D+00  0.243791D-01  0.256309D-01  0.728206D-01  0.759601D-01
     27  0.438844D-02  0.542345D-02  0.277746D-02  0.108327D-01  0.393420D-02
     28  0.236940D-01  0.415531D-01 -0.953089D-02  0.555989D-02  0.210846D-01
     29 -0.230761D-01 -0.338521D+00 -0.114738D+00  0.283318D+00  0.643759D+00
     30 -0.670060D-01 -0.435663D+00 -0.545408D-01 -0.666998D-02  0.153371D+00
     31  0.669721D+00 -0.112465D+01  0.931645D-01 -0.430814D-01  0.879336D-01
               16            17            18            19            20 
     16  0.385007D+12
     17  0.109319D-02  0.243533D+11
     18  0.430804D-02  0.540070D+02  0.243533D+11
     19  0.482898D-03 -0.590099D+01  0.133199D+03  0.385007D+12
     20  0.239572D-02 -0.912065D+01  0.140970D+03 -0.222224D+02  0.385007D+12
     21  0.100369D-01 -0.960111D+01  0.140888D+03 -0.233524D+02 -0.287701D+02
     22 -0.280598D-02  0.102268D+02 -0.406466D+01 -0.349019D+01 -0.178837D+01
     23 -0.857456D-02 -0.155858D+00  0.289563D-01 -0.316107D-02 -0.109601D-01
     24  0.141839D-01  0.349192D-01 -0.496569D-02 -0.193702D-02  0.481843D-03
     25  0.112296D-01  0.463815D-01  0.794723D-02  0.498685D-02  0.104877D-01
     26  0.306050D-01  0.210954D-01  0.399812D-03 -0.390064D-03  0.117373D-03
     27 -0.181261D-03  0.526230D-02  0.607926D-03  0.241114D-03  0.188261D-02
     28  0.234838D-02  0.239570D-01 -0.173279D-02  0.838732D-03  0.646165D-02
     29  0.366001D-01  0.244475D+01 -0.724796D-01 -0.257745D-01  0.206679D+00
     30  0.438143D-01 -0.234538D-01  0.938724D-01  0.562749D-02  0.203757D-02
     31  0.310920D-01  0.752071D+00  0.489651D+00 -0.515918D-02  0.114716D+00
               21            22            23            24            25 
     21  0.385007D+12
     22 -0.189078D+01  0.708114D+10
     23 -0.316872D-02 -0.133043D+00  0.243533D+11
     24  0.552844D-03  0.398848D-02  0.132274D+03  0.385007D+12
     25 -0.200008D-02 -0.544157D-02  0.345707D+02 -0.617771D+01  0.243533D+11
     26 -0.340454D-03  0.943752D-03 -0.573733D+01  0.123218D+02  0.133954D+03
     27 -0.836388D-03 -0.115538D-02 -0.489440D+01  0.479501D+01  0.136453D+03
     28 -0.253260D-02 -0.212639D-01 -0.421711D+01  0.400972D+01  0.137496D+03
     29 -0.378133D-01 -0.147422D+00  0.340772D+02 -0.579377D+01  0.453405D+00
     30 -0.313876D-01  0.100618D-01 -0.420848D+01  0.122924D+02  0.117645D+01
     31 -0.615127D-01 -0.361687D-01 -0.545267D+01  0.439736D+01  0.953690D+01
               26            27            28            29            30 
     26  0.385007D+12
     27 -0.235590D+02  0.385007D+12
     28 -0.236243D+02 -0.240512D+02  0.385007D+12
     29  0.327967D+01  0.294440D+01  0.115380D+02  0.243533D+11
     30 -0.195410D+00 -0.167133D+00 -0.453812D+00  0.140242D+03  0.385007D+12
     31 -0.594579D+00 -0.188675D+00  0.104527D+01  0.128623D+03 -0.299856D+02
               31 
     31  0.385007D+12
 End of Minotr F.D. properties file   721 does not exist.
 End of Minotr F.D. properties file   722 does not exist.
 End of Minotr F.D. properties file   788 does not exist.
 Leave Link 1002 at Wed Jun 18 11:45:39 2014, MaxMem=  4294967296 cpu:    387487.4
 (Enter /home/ztw1e12/g09/l601.exe)
 Copying SCF densities to generalized density rwf, IOpCl= 0 IROHF=0.

 **********************************************************************

            Population analysis using the SCF density.

 **********************************************************************

 Orbital symmetries:
       Occupied  (A) (A) (A) (A) (A) (A) (A) (A) (A) (A) (A) (A)
                 (A) (A) (A) (A) (A) (A) (A) (A) (A) (A) (A) (A)
                 (A) (A) (A) (A) (A) (A) (A) (A) (A) (A) (A) (A)
                 (A) (A) (A) (A) (A) (A) (A) (A) (A) (A) (A) (A)
                 (A) (A) (A)
       Virtual   (A) (A) (A) (A) (A) (A) (A) (A) (A) (A) (A) (A)
                 (A) (A) (A) (A) (A) (A) (A) (A) (A) (A) (A) (A)
                 (A) (A) (A) (A) (A) (A) (A) (A) (A) (A) (A) (A)
                 (A) (A) (A) (A) (A) (A) (A) (A) (A) (A) (A) (A)
                 (A) (A) (A) (A) (A) (A) (A) (A) (A) (A) (A) (A)
                 (A) (A) (A) (A) (A) (A) (A) (A) (A) (A) (A) (A)
                 (A) (A) (A) (A) (A) (A) (A) (A) (A) (A) (A) (A)
                 (A) (A) (A) (A) (A) (A) (A) (A) (A) (A) (A) (A)
                 (A) (A) (A) (A) (A) (A) (A) (A) (A) (A) (A) (A)
                 (A) (A) (A) (A) (A) (A) (A) (A) (A) (A) (A) (A)
                 (A) (A) (A) (A) (A) (A) (A) (A) (A) (A) (A) (A)
                 (A) (A) (A) (A) (A) (A) (A) (A) (A) (A) (A) (A)
                 (A) (A) (A) (A) (A) (A) (A) (A) (A) (A) (A) (A)
                 (A) (A) (A) (A) (A) (A) (A) (A) (A) (A) (A) (A)
                 (A) (A) (A) (A) (A) (A) (A) (A) (A) (A) (A) (A)
                 (A) (A) (A) (A) (A) (A) (A) (A) (A) (A) (A) (A)
                 (A) (A) (A) (A) (A) (A) (A) (A) (A) (A) (A) (A)
                 (A) (A) (A) (A) (A) (A) (A) (A) (A) (A) (A) (A)
                 (A) (A) (A) (A) (A) (A) (A) (A) (A) (A) (A) (A)
                 (A) (A) (A) (A) (A) (A) (A) (A) (A) (A) (A) (A)
                 (A) (A) (A) (A) (A) (A) (A) (A) (A) (A) (A) (A)
                 (A) (A) (A) (A) (A) (A) (A) (A) (A) (A) (A) (A)
                 (A) (A) (A) (A) (A) (A) (A) (A) (A) (A) (A) (A)
                 (A) (A) (A) (A) (A) (A) (A) (A) (A) (A) (A) (A)
                 (A) (A) (A) (A) (A) (A) (A) (A) (A) (A) (A) (A)
                 (A) (A) (A) (A) (A) (A) (A) (A) (A) (A) (A) (A)
                 (A) (A) (A) (A) (A) (A) (A) (A) (A) (A) (A) (A)
                 (A) (A) (A) (A) (A) (A) (A) (A) (A) (A) (A) (A)
                 (A) (A) (A) (A) (A) (A) (A) (A) (A) (A) (A) (A)
                 (A) (A) (A) (A) (A) (A) (A) (A) (A) (A) (A) (A)
                 (A) (A) (A) (A) (A) (A) (A) (A) (A) (A) (A) (A)
                 (A) (A) (A) (A) (A) (A) (A) (A) (A) (A) (A) (A)
                 (A) (A) (A) (A) (A) (A) (A) (A) (A) (A) (A) (A)
                 (A) (A) (A) (A) (A) (A) (A) (A) (A) (A) (A) (A)
                 (A) (A) (A) (A) (A) (A) (A) (A) (A) (A) (A) (A)
                 (A) (A) (A) (A) (A) (A) (A) (A) (A) (A) (A) (A)
                 (A) (A) (A) (A) (A) (A) (A) (A) (A) (A) (A) (A)
                 (A) (A) (A) (A) (A) (A) (A) (A) (A) (A) (A) (A)
                 (A) (A) (A) (A) (A) (A) (A) (A) (A) (A) (A) (A)
                 (A) (A) (A) (A) (A) (A) (A) (A) (A) (A) (A) (A)
                 (A) (A) (A) (A) (A) (A) (A) (A) (A) (A) (A) (A)
                 (A) (A) (A) (A) (A) (A) (A) (A) (A) (A) (A) (A)
                 (A) (A) (A) (A) (A) (A) (A) (A) (A) (A) (A) (A)
                 (A) (A) (A) (A) (A) (A) (A) (A) (A) (A) (A) (A)
                 (A) (A) (A) (A) (A) (A) (A) (A) (A) (A) (A) (A)
                 (A) (A) (A) (A) (A) (A) (A) (A) (A) (A) (A) (A)
                 (A) (A) (A) (A) (A) (A) (A) (A) (A) (A) (A) (A)
                 (A) (A) (A) (A) (A) (A) (A) (A) (A) (A) (A) (A)
                 (A) (A) (A) (A) (A) (A) (A) (A) (A) (A) (A) (A)
                 (A) (A) (A) (A) (A) (A) (A) (A) (A) (A) (A) (A)
                 (A) (A) (A) (A) (A) (A) (A) (A) (A) (A) (A) (A)
                 (A) (A) (A) (A) (A) (A) (A) (A) (A) (A) (A) (A)
                 (A) (A) (A) (A) (A) (A) (A) (A) (A) (A) (A) (A)
                 (A) (A) (A) (A) (A) (A) (A) (A) (A) (A) (A) (A)
                 (A) (A) (A) (A) (A) (A) (A) (A) (A) (A) (A) (A)
                 (A) (A) (A) (A) (A) (A) (A) (A) (A) (A) (A) (A)
                 (A) (A) (A) (A) (A) (A) (A) (A) (A) (A) (A) (A)
                 (A) (A) (A) (A) (A) (A) (A) (A) (A) (A) (A) (A)
                 (A) (A) (A) (A) (A) (A) (A) (A) (A) (A) (A) (A)
                 (A) (A) (A) (A) (A) (A) (A) (A) (A) (A) (A) (A)
                 (A) (A) (A) (A) (A) (A) (A) (A) (A) (A) (A) (A)
                 (A) (A) (A) (A) (A) (A) (A) (A) (A) (A) (A) (A)
                 (A) (A) (A) (A) (A) (A) (A) (A) (A) (A) (A) (A)
                 (A) (A) (A) (A) (A) (A) (A) (A) (A) (A) (A) (A)
                 (A) (A) (A) (A) (A) (A) (A) (A) (A) (A) (A) (A)
                 (A) (A) (A) (A) (A) (A) (A) (A) (A) (A) (A) (A)
                 (A) (A) (A) (A) (A) (A) (A) (A) (A) (A) (A) (A)
                 (A) (A) (A) (A) (A) (A) (A) (A) (A) (A) (A) (A)
                 (A) (A) (A) (A) (A) (A) (A) (A) (A) (A) (A) (A)
                 (A) (A) (A) (A) (A) (A) (A) (A) (A) (A) (A) (A)
                 (A) (A) (A) (A) (A) (A) (A) (A) (A) (A) (A) (A)
                 (A) (A) (A) (A) (A) (A) (A) (A) (A) (A) (A) (A)
                 (A) (A) (A) (A) (A) (A) (A) (A) (A) (A) (A) (A)
                 (A) (A) (A) (A) (A)
 The electronic state is 1-A.
 Alpha  occ. eigenvalues --  -19.17196 -19.16027 -14.41990 -14.41245 -10.33544
 Alpha  occ. eigenvalues --  -10.33066 -10.29179 -10.27359 -10.25969 -10.25924
 Alpha  occ. eigenvalues --  -10.24066 -10.23541 -10.23523  -1.05388  -1.03789
 Alpha  occ. eigenvalues --   -0.94448  -0.94102  -0.84012  -0.78659  -0.74187
 Alpha  occ. eigenvalues --   -0.72180  -0.70774  -0.66723  -0.60598  -0.59906
 Alpha  occ. eigenvalues --   -0.58551  -0.55151  -0.50575  -0.49244  -0.48480
 Alpha  occ. eigenvalues --   -0.47462  -0.46446  -0.45339  -0.45139  -0.44592
 Alpha  occ. eigenvalues --   -0.42662  -0.41764  -0.41382  -0.40619  -0.40324
 Alpha  occ. eigenvalues --   -0.39931  -0.38664  -0.38165  -0.36493  -0.35553
 Alpha  occ. eigenvalues --   -0.34859  -0.33422  -0.28147  -0.27655  -0.26213
 Alpha  occ. eigenvalues --   -0.25554
 Alpha virt. eigenvalues --    0.00870   0.02136   0.02512   0.03781   0.04352
 Alpha virt. eigenvalues --    0.04677   0.06611   0.06964   0.07532   0.07911
 Alpha virt. eigenvalues --    0.09024   0.10131   0.10637   0.11308   0.11984
 Alpha virt. eigenvalues --    0.12338   0.12793   0.13078   0.14328   0.15430
 Alpha virt. eigenvalues --    0.16673   0.17125   0.18554   0.19191   0.19509
 Alpha virt. eigenvalues --    0.20937   0.22509   0.23036   0.23986   0.24481
 Alpha virt. eigenvalues --    0.25030   0.26305   0.26819   0.27275   0.27563
 Alpha virt. eigenvalues --    0.28320   0.28844   0.29226   0.29933   0.32036
 Alpha virt. eigenvalues --    0.32737   0.33479   0.34096   0.34419   0.36619
 Alpha virt. eigenvalues --    0.37072   0.37445   0.38382   0.38654   0.38979
 Alpha virt. eigenvalues --    0.39297   0.39850   0.40399   0.40856   0.41251
 Alpha virt. eigenvalues --    0.41393   0.42125   0.42413   0.42984   0.43536
 Alpha virt. eigenvalues --    0.43734   0.44060   0.44628   0.45231   0.45899
 Alpha virt. eigenvalues --    0.46281   0.46948   0.47166   0.48542   0.48841
 Alpha virt. eigenvalues --    0.49300   0.49936   0.51575   0.51729   0.52314
 Alpha virt. eigenvalues --    0.53797   0.54349   0.54656   0.55121   0.55911
 Alpha virt. eigenvalues --    0.57598   0.57893   0.59233   0.59874   0.61239
 Alpha virt. eigenvalues --    0.63089   0.63348   0.64701   0.65605   0.68337
 Alpha virt. eigenvalues --    0.69626   0.70164   0.71229   0.72735   0.73183
 Alpha virt. eigenvalues --    0.73867   0.74823   0.76342   0.77215   0.77712
 Alpha virt. eigenvalues --    0.79415   0.80218   0.81711   0.82465   0.83281
 Alpha virt. eigenvalues --    0.84160   0.84522   0.85455   0.86529   0.87033
 Alpha virt. eigenvalues --    0.88008   0.89288   0.90048   0.90908   0.92194
 Alpha virt. eigenvalues --    0.92608   0.92780   0.93959   0.94820   0.95689
 Alpha virt. eigenvalues --    0.95785   0.96841   0.97171   0.97840   0.98249
 Alpha virt. eigenvalues --    0.98804   0.99494   1.00232   1.01567   1.02055
 Alpha virt. eigenvalues --    1.02596   1.03448   1.04221   1.04879   1.05373
 Alpha virt. eigenvalues --    1.06826   1.07591   1.07941   1.10065   1.10534
 Alpha virt. eigenvalues --    1.11944   1.12074   1.12707   1.13665   1.14367
 Alpha virt. eigenvalues --    1.15432   1.15988   1.16660   1.17148   1.17643
 Alpha virt. eigenvalues --    1.18378   1.18698   1.19413   1.20847   1.20890
 Alpha virt. eigenvalues --    1.21851   1.22173   1.22579   1.23014   1.23635
 Alpha virt. eigenvalues --    1.24382   1.24709   1.25958   1.26800   1.27011
 Alpha virt. eigenvalues --    1.27542   1.27917   1.28202   1.28653   1.29414
 Alpha virt. eigenvalues --    1.30325   1.30969   1.31483   1.32180   1.32644
 Alpha virt. eigenvalues --    1.33952   1.34170   1.35653   1.36084   1.37028
 Alpha virt. eigenvalues --    1.37715   1.39464   1.40282   1.41346   1.42214
 Alpha virt. eigenvalues --    1.43210   1.45139   1.46132   1.47811   1.48666
 Alpha virt. eigenvalues --    1.50236   1.51202   1.52682   1.53657   1.56682
 Alpha virt. eigenvalues --    1.57654   1.58951   1.60564   1.63289   1.64731
 Alpha virt. eigenvalues --    1.65784   1.68663   1.70067   1.71054   1.71630
 Alpha virt. eigenvalues --    1.74042   1.75477   1.77150   1.80083   1.82941
 Alpha virt. eigenvalues --    1.84815   1.87458   1.88842   1.90735   1.91713
 Alpha virt. eigenvalues --    1.95188   1.96434   1.97678   1.98728   2.00073
 Alpha virt. eigenvalues --    2.02438   2.02907   2.04141   2.05828   2.06531
 Alpha virt. eigenvalues --    2.08032   2.10284   2.12218   2.13975   2.15488
 Alpha virt. eigenvalues --    2.17582   2.18325   2.18988   2.20441   2.22067
 Alpha virt. eigenvalues --    2.23097   2.24417   2.25977   2.28090   2.28920
 Alpha virt. eigenvalues --    2.30614   2.31708   2.35651   2.37043   2.38987
 Alpha virt. eigenvalues --    2.39627   2.40268   2.41793   2.42319   2.43236
 Alpha virt. eigenvalues --    2.44138   2.45476   2.47012   2.47964   2.49450
 Alpha virt. eigenvalues --    2.50585   2.51566   2.52485   2.54056   2.54904
 Alpha virt. eigenvalues --    2.56895   2.57206   2.59110   2.61714   2.62026
 Alpha virt. eigenvalues --    2.65013   2.67211   2.68114   2.69500   2.70070
 Alpha virt. eigenvalues --    2.70575   2.70921   2.71121   2.71461   2.73686
 Alpha virt. eigenvalues --    2.74586   2.75105   2.76270   2.76746   2.78925
 Alpha virt. eigenvalues --    2.79919   2.80407   2.80966   2.81887   2.83267
 Alpha virt. eigenvalues --    2.83646   2.84895   2.85774   2.86277   2.86876
 Alpha virt. eigenvalues --    2.88118   2.88358   2.88578   2.89316   2.91299
 Alpha virt. eigenvalues --    2.92050   2.93019   2.93855   2.94492   2.94877
 Alpha virt. eigenvalues --    2.95290   2.96402   2.97449   2.98738   2.99324
 Alpha virt. eigenvalues --    2.99601   2.99816   3.00346   3.01809   3.02354
 Alpha virt. eigenvalues --    3.03679   3.04251   3.05664   3.06175   3.07112
 Alpha virt. eigenvalues --    3.07452   3.08229   3.08807   3.09649   3.10737
 Alpha virt. eigenvalues --    3.11952   3.12082   3.12888   3.13250   3.14784
 Alpha virt. eigenvalues --    3.15457   3.16091   3.17365   3.18706   3.19485
 Alpha virt. eigenvalues --    3.20386   3.20965   3.21639   3.23075   3.24134
 Alpha virt. eigenvalues --    3.24325   3.25838   3.27024   3.27877   3.28139
 Alpha virt. eigenvalues --    3.29293   3.29724   3.30387   3.30687   3.32324
 Alpha virt. eigenvalues --    3.33306   3.33405   3.34088   3.34584   3.35330
 Alpha virt. eigenvalues --    3.35782   3.37131   3.37979   3.39088   3.40060
 Alpha virt. eigenvalues --    3.40382   3.41365   3.41872   3.42903   3.43521
 Alpha virt. eigenvalues --    3.43859   3.44903   3.46318   3.47113   3.48276
 Alpha virt. eigenvalues --    3.48778   3.50243   3.51095   3.51873   3.52723
 Alpha virt. eigenvalues --    3.54404   3.55470   3.57119   3.59014   3.60460
 Alpha virt. eigenvalues --    3.61153   3.62175   3.62427   3.63676   3.66084
 Alpha virt. eigenvalues --    3.66577   3.67528   3.68440   3.70514   3.70882
 Alpha virt. eigenvalues --    3.71515   3.72152   3.73387   3.74286   3.75124
 Alpha virt. eigenvalues --    3.76581   3.77253   3.78110   3.78836   3.79664
 Alpha virt. eigenvalues --    3.81917   3.82294   3.83547   3.85525   3.86224
 Alpha virt. eigenvalues --    3.86620   3.87078   3.88439   3.88839   3.90591
 Alpha virt. eigenvalues --    3.90690   3.91740   3.92667   3.93307   3.94453
 Alpha virt. eigenvalues --    3.95214   3.97112   3.97445   3.98714   3.99357
 Alpha virt. eigenvalues --    4.01678   4.01900   4.03632   4.03917   4.05778
 Alpha virt. eigenvalues --    4.06449   4.06548   4.07142   4.08018   4.09497
 Alpha virt. eigenvalues --    4.10929   4.11961   4.12830   4.14663   4.15737
 Alpha virt. eigenvalues --    4.16135   4.17083   4.17963   4.19491   4.19713
 Alpha virt. eigenvalues --    4.20367   4.21236   4.22870   4.23419   4.24759
 Alpha virt. eigenvalues --    4.25179   4.27203   4.27496   4.28841   4.29850
 Alpha virt. eigenvalues --    4.30459   4.31798   4.33377   4.33565   4.34422
 Alpha virt. eigenvalues --    4.36799   4.39106   4.39939   4.40909   4.42589
 Alpha virt. eigenvalues --    4.44001   4.45355   4.46263   4.47748   4.49155
 Alpha virt. eigenvalues --    4.52054   4.52366   4.54184   4.54628   4.56127
 Alpha virt. eigenvalues --    4.57469   4.58414   4.58940   4.59987   4.61507
 Alpha virt. eigenvalues --    4.62198   4.62545   4.63276   4.63840   4.64919
 Alpha virt. eigenvalues --    4.67631   4.69246   4.70581   4.70703   4.71760
 Alpha virt. eigenvalues --    4.72166   4.74041   4.74860   4.75994   4.76655
 Alpha virt. eigenvalues --    4.77600   4.79891   4.81403   4.81587   4.83162
 Alpha virt. eigenvalues --    4.84570   4.86806   4.89381   4.90978   4.92213
 Alpha virt. eigenvalues --    4.92725   4.93078   4.94662   4.95268   4.96270
 Alpha virt. eigenvalues --    4.96744   4.98976   4.99834   5.00983   5.02239
 Alpha virt. eigenvalues --    5.02648   5.03399   5.06663   5.09359   5.09783
 Alpha virt. eigenvalues --    5.11668   5.12100   5.13059   5.13507   5.14633
 Alpha virt. eigenvalues --    5.16716   5.17067   5.18417   5.19867   5.20771
 Alpha virt. eigenvalues --    5.21189   5.22409   5.23455   5.24704   5.24902
 Alpha virt. eigenvalues --    5.26237   5.27553   5.29260   5.30075   5.31285
 Alpha virt. eigenvalues --    5.32464   5.34126   5.37107   5.38294   5.39604
 Alpha virt. eigenvalues --    5.41363   5.43834   5.44558   5.47263   5.49643
 Alpha virt. eigenvalues --    5.52475   5.53094   5.56342   5.57307   5.58604
 Alpha virt. eigenvalues --    5.60946   5.62901   5.63993   5.65689   5.66928
 Alpha virt. eigenvalues --    5.68466   5.69128   5.69741   5.71521   5.72669
 Alpha virt. eigenvalues --    5.73943   5.75823   5.76992   5.78125   5.78982
 Alpha virt. eigenvalues --    5.79567   5.81382   5.82332   5.83355   5.89587
 Alpha virt. eigenvalues --    5.90263   5.94204   5.96238   6.02815   6.04038
 Alpha virt. eigenvalues --    6.11980   6.18879   6.19831   6.24875   6.28190
 Alpha virt. eigenvalues --    6.50953   6.52210   6.58057   6.61251   6.64587
 Alpha virt. eigenvalues --    6.66290   6.77790   6.83445   6.90401   6.92201
 Alpha virt. eigenvalues --    6.93460   6.95436   7.18447   7.19636   7.22864
 Alpha virt. eigenvalues --    7.29031   8.14000   8.28880   8.67184   8.73643
 Alpha virt. eigenvalues --    8.77097   8.78852   8.80120   8.82527   8.83830
 Alpha virt. eigenvalues --    8.84497   8.86835   8.88631   8.89466   8.91426
 Alpha virt. eigenvalues --    8.93208   8.93610   8.96530   8.97437   9.01838
 Alpha virt. eigenvalues --    9.02900   9.08013   9.14421   9.17289   9.18919
 Alpha virt. eigenvalues --    9.22924   9.60589   9.62750   9.77291   9.83412
 Alpha virt. eigenvalues --    9.91069   9.94321  10.07251  10.11875  10.15207
 Alpha virt. eigenvalues --   10.18161  10.19847  10.21631  10.22209  10.24078
 Alpha virt. eigenvalues --   10.27419  10.29779  10.31189  10.33502  10.34266
 Alpha virt. eigenvalues --   10.37302  11.76690  11.83558  12.04182  12.14551
 Alpha virt. eigenvalues --   12.17403  12.18048  12.24617  12.27877  12.28224
 Alpha virt. eigenvalues --   12.39846  12.47612  12.58031  12.59977  12.84213
 Alpha virt. eigenvalues --   12.94002  14.97215  15.01919  15.24412  15.28553
 Alpha virt. eigenvalues --   15.99859  16.05122  16.83560  16.91834  22.01410
 Alpha virt. eigenvalues --   22.09117  40.17701  40.26651  40.65812  40.66999
 Alpha virt. eigenvalues --   40.69782  40.70665  40.72084  40.74899  40.76649
 Alpha virt. eigenvalues --   40.77679  40.79441  40.81157  40.81293  40.81543
 Alpha virt. eigenvalues --   40.82641  40.83545  40.84468  40.85104  40.85488
 Alpha virt. eigenvalues --   40.86960  40.88082  40.89242  40.89992  40.90759
 Alpha virt. eigenvalues --   40.91497  40.93930  40.96144  46.34238  46.46136
 Alpha virt. eigenvalues --   46.48806  46.50473  46.57185  46.59280  46.61099
 Alpha virt. eigenvalues --   46.72640  46.81556  54.49077  54.50829  55.78432
 Alpha virt. eigenvalues --   55.84802  55.97962  55.98397  56.05542  56.11750
 Alpha virt. eigenvalues --   56.19260  56.22648  56.28124  56.30356  56.31809
 Alpha virt. eigenvalues --   56.39041  56.47492  56.50943  56.60755  56.64655
 Alpha virt. eigenvalues --   57.47395  57.51394  57.99801  58.02719  58.19701
 Alpha virt. eigenvalues --   58.26247  64.70571  64.78336  73.94441  73.96946
 Alpha virt. eigenvalues --   74.10053  74.12370  74.64179  74.66835  86.07248
 Alpha virt. eigenvalues --   86.13965 165.43506 165.54407 165.57223 165.59212
 Alpha virt. eigenvalues --  165.64830 165.66613 165.67964 165.77889 165.86342
 Alpha virt. eigenvalues --  226.70778 226.73323 230.57804 230.64892 235.50323
 Alpha virt. eigenvalues --  235.84386 236.19933 236.34144 236.35873 236.43725
 Alpha virt. eigenvalues --  237.25112 237.35476 237.45712 237.52603 237.62296
 Alpha virt. eigenvalues --  237.73069 237.86140 238.24980 238.53857 238.72783
 Alpha virt. eigenvalues --  308.80853 308.86787 624.55076 624.60952 624.64336
 Alpha virt. eigenvalues --  624.65315 624.70841 624.72241 624.74525 624.81917
 Alpha virt. eigenvalues --  624.88539 794.61527 794.72831 825.81568 826.73103
 Alpha virt. eigenvalues --  827.19362 827.38680 827.68472 828.24186 830.70547
 Alpha virt. eigenvalues --  830.85216 831.23171 831.24830 831.69040 831.77820
 Alpha virt. eigenvalues --  831.81758 833.32463 834.68946 834.85691 868.33781
 Alpha virt. eigenvalues --  868.408231165.936571165.992542486.374372486.56597
 Alpha virt. eigenvalues -- 2587.769582589.845052592.448112595.525402596.87467
 Alpha virt. eigenvalues -- 2596.940662602.267212602.868352604.787712605.11988
 Alpha virt. eigenvalues -- 2606.367702606.984282607.930992611.266722611.95226
 Alpha virt. eigenvalues -- 2613.952462740.327532740.339342740.376542740.40034
 Alpha virt. eigenvalues -- 2740.441542740.474922740.537022740.564412740.58668
 Alpha virt. eigenvalues -- 3787.315033787.385125073.318685073.370088293.70272
 Alpha virt. eigenvalues -- 8295.201198626.694168627.269598634.922408637.84616
 Alpha virt. eigenvalues -- 8638.090668646.904818664.210468664.508398667.36712
 Alpha virt. eigenvalues -- 8669.387778671.311038672.912778673.230448686.52899
 Alpha virt. eigenvalues -- 8695.926618696.83721******************************
 Alpha virt. eigenvalues -- **************************************************
 Alpha virt. eigenvalues -- **************************************************
 Alpha virt. eigenvalues -- **************************************************
 Alpha virt. eigenvalues -- **************************************************
 Alpha virt. eigenvalues -- **************************************************
 Alpha virt. eigenvalues -- **************************************************
 Alpha virt. eigenvalues -- **************************************************
 Alpha virt. eigenvalues -- **********
          Condensed to atoms (all electrons):
               1          2          3          4          5          6
     1  C    4.536254   0.165596  -0.043431   0.009580   0.000307  -0.010607
     2  C    0.165596   5.380509   0.375513   0.017741  -0.001556   0.003168
     3  H   -0.043431   0.375513   0.487124   0.000298   0.000050   0.001009
     4  C    0.009580   0.017741   0.000298   5.046137   0.395901   0.386941
     5  H    0.000307  -0.001556   0.000050   0.395901   0.530182  -0.004605
     6  H   -0.010607   0.003168   0.001009   0.386941  -0.004605   0.519855
     7  H    0.006787  -0.001986  -0.000074   0.401301  -0.023576  -0.018839
     8  O    0.744193  -0.119376   0.003585  -0.002271   0.000395   0.006313
     9  N   -0.050877   0.286402  -0.039477  -0.014309   0.000398   0.010050
    10  H   -0.000056  -0.029142   0.003748   0.001980   0.000023  -0.000262
    11  N    0.359379  -0.130203   0.006972  -0.006569   0.000159   0.002060
    12  H   -0.026432   0.007032  -0.000911  -0.000135  -0.000016  -0.000105
    13  C   -0.038246   0.010679  -0.000956  -0.000856  -0.000026  -0.000211
    14  H   -0.000598   0.002415   0.000038   0.000581   0.000038   0.000016
    15  H   -0.008523  -0.000967  -0.000152  -0.000062  -0.000004  -0.000032
    16  H    0.007528   0.000661  -0.000071  -0.000024  -0.000003  -0.000005
    17  C   -0.001177  -0.061291   0.002636   0.000096   0.000014   0.000908
    18  C   -0.003924   0.017512   0.003182  -0.000030   0.000002   0.000223
    19  H    0.000345  -0.000666  -0.000447  -0.000045  -0.000002   0.000103
    20  H   -0.000074  -0.000480   0.000116  -0.000012   0.000000   0.000066
    21  H    0.000606  -0.000887  -0.000191   0.000022  -0.000001  -0.000121
    22  O   -0.010735   0.015188   0.027242   0.000043   0.000000  -0.000131
    23  C   -0.007451  -0.020630   0.003952   0.333142  -0.030464  -0.030042
[...]
 Alpha virt. eigenvalues --    4.38821   4.39605   4.41484   4.43296   4.45101
 Alpha virt. eigenvalues --    4.45585   4.45824   4.49519   4.50963   4.52121
 Alpha virt. eigenvalues --    4.53057   4.55194   4.55994   4.56882   4.58238
 Alpha virt. eigenvalues --    4.61132   4.64249   4.65132   4.67172   4.68592
 Alpha virt. eigenvalues --    4.69159   4.69475   4.71247   4.72053   4.72891
 Alpha virt. eigenvalues --    4.73880   4.76377   4.77142   4.77515   4.78949
 Alpha virt. eigenvalues --    4.79756   4.81029   4.81343   4.82763   4.83398
 Alpha virt. eigenvalues --    4.83818   4.85392   4.87918   4.88956   4.91602
 Alpha virt. eigenvalues --    4.92559   4.94079   4.94755   4.95011   4.95801
 Alpha virt. eigenvalues --    4.97220   4.98666   4.99149   5.00448   5.01282
 Alpha virt. eigenvalues --    5.02091   5.03337   5.04307   5.04648   5.06295
 Alpha virt. eigenvalues --    5.08950   5.09607   5.10715   5.11766   5.13164
 Alpha virt. eigenvalues --    5.14075   5.14416   5.14887   5.16340   5.17912
 Alpha virt. eigenvalues --    5.19498   5.20403   5.20961   5.21678   5.23308
 Alpha virt. eigenvalues --    5.23516   5.24734   5.26576   5.27286   5.28057
 Alpha virt. eigenvalues --    5.28540   5.30150   5.31802   5.33406   5.34865
 Alpha virt. eigenvalues --    5.36063   5.36229   5.36948   5.38815   5.41772
 Alpha virt. eigenvalues --    5.43290   5.47482   5.49843   5.50381   5.55549
 Alpha virt. eigenvalues --    5.57695   5.60188   5.61698   5.63625   5.67437
 Alpha virt. eigenvalues --    5.73396   5.75425   5.77641   5.78274   5.78985
 Alpha virt. eigenvalues --    5.80153   5.81626   5.84717   5.85133   5.87279
 Alpha virt. eigenvalues --    5.88262   5.90014   5.91814   5.95819   5.97114
 Alpha virt. eigenvalues --    6.00547   6.01380   6.03543   6.05639   6.09042
 Alpha virt. eigenvalues --    6.22639   6.26775   6.35632   6.38651   6.48414
 Alpha virt. eigenvalues --    6.51286   6.54635   6.55875   6.67919   6.69772
 Alpha virt. eigenvalues --    6.87555   6.89832   6.92610   6.96715   7.09905
 Alpha virt. eigenvalues --    7.13217   7.15958   7.18304   9.55811   9.99791
 Alpha virt. eigenvalues --   11.50930  12.09341  12.46668  12.47854  12.92055
 Alpha virt. eigenvalues --   13.38541  13.55839  13.62318  13.72022  13.77135
 Alpha virt. eigenvalues --   13.98478
          Condensed to atoms (all electrons):
               1          2          3          4          5          6
     1  C    4.692888   0.143931  -0.052249   0.004173   0.000243  -0.012430
     2  C    0.143931   5.510414   0.420876  -0.004189  -0.001293   0.002906
     3  H   -0.052249   0.420876   0.451369   0.000239   0.000063   0.000833
     4  C    0.004173  -0.004189   0.000239   5.207874   0.403488   0.390670
     5  H    0.000243  -0.001293   0.000063   0.403488   0.518514  -0.009279
     6  H   -0.012430   0.002906   0.000833   0.390670  -0.009279   0.511166
     7  H    0.010214  -0.004217  -0.000214   0.395238  -0.029361  -0.024779
     8  O    0.736863  -0.111101   0.001090  -0.000577   0.000409   0.006527
     9  N   -0.050466   0.216965  -0.042228  -0.009754   0.000343   0.009353
    10  H    0.000147  -0.024572   0.001929   0.001967   0.000035  -0.000603
    11  N    0.358146  -0.101999   0.002132  -0.003696   0.000188   0.001824
    12  H   -0.022724   0.000447  -0.001206   0.000339  -0.000023  -0.000116
    13  C   -0.057686   0.010526  -0.000751  -0.001124  -0.000036  -0.000237
    14  H   -0.000994   0.002144   0.000045   0.000368   0.000041   0.000046
    15  H   -0.008233  -0.000946  -0.000140  -0.000041  -0.000003  -0.000037
    16  H    0.008106   0.000684  -0.000047  -0.000043  -0.000005  -0.000005
    17  C   -0.000414  -0.073658   0.000098   0.000216   0.000011   0.001136
    18  C   -0.002918   0.014483   0.002887  -0.000052   0.000001   0.000231
    19  H    0.000155   0.000123  -0.000429  -0.000020  -0.000002   0.000061
    20  H   -0.000095  -0.000464   0.000102  -0.000010   0.000000   0.000062
    21  H    0.000573  -0.000863  -0.000173   0.000020  -0.000001  -0.000118
    22  O   -0.007776   0.013957   0.026532   0.000030   0.000000  -0.000135
    23  C   -0.006926  -0.005913   0.003505   0.249580  -0.031190  -0.032912
    24  H    0.000849  -0.001308  -0.000414  -0.043326  -0.008537  -0.007352
    25  C   -0.000636   0.003612  -0.000284  -0.063376  -0.008657   0.006503
    26  H   -0.000048  -0.001673  -0.000070  -0.005512  -0.000163  -0.000164
    27  H    0.000032   0.000851  -0.000003   0.007647  -0.000101  -0.000337
    28  H    0.000040  -0.000457   0.000012  -0.005701   0.004240  -0.000126
    29  C   -0.017595   0.188172  -0.024914  -0.045929   0.009311  -0.007872
    30  H    0.006682  -0.034624  -0.007392   0.005542  -0.000410  -0.000671
    31  H    0.003982  -0.047547  -0.009106   0.003281  -0.000313  -0.000888
               7          8          9         10         11         12
     1  C    0.010214   0.736863  -0.050466   0.000147   0.358146  -0.022724
     2  C   -0.004217  -0.111101   0.216965  -0.024572  -0.101999   0.000447
     3  H   -0.000214   0.001090  -0.042228   0.001929   0.002132  -0.001206
     4  C    0.395238  -0.000577  -0.009754   0.001967  -0.003696   0.000339
     5  H   -0.029361   0.000409   0.000343   0.000035   0.000188  -0.000023
     6  H   -0.024779   0.006527   0.009353  -0.000603   0.001824  -0.000116
     7  H    0.520338  -0.003884  -0.000275   0.000080  -0.004824   0.000539
     8  O   -0.003884   7.830782   0.006283  -0.001957  -0.121342   0.005044
     9  N   -0.000275   0.006283   6.563881   0.376595   0.004986   0.000470
    10  H    0.000080  -0.001957   0.376595   0.504718  -0.000288  -0.000005
    11  N   -0.004824  -0.121342   0.004986  -0.000288   6.470414   0.380767
    12  H    0.000539   0.005044   0.000470  -0.000005   0.380767   0.516481
    13  C    0.000411   0.005776  -0.000377   0.000031   0.291618  -0.032930
    14  H    0.000683   0.004217   0.000013  -0.000012  -0.059807   0.004047
    15  H    0.000188   0.005293  -0.000038   0.000008  -0.038435   0.002040
    16  H   -0.000072   0.001515   0.000005   0.000000  -0.027817  -0.008298
    17  C   -0.000001   0.016295   0.347791  -0.020074   0.000640  -0.000155
    18  C    0.000006  -0.000190  -0.062524  -0.000148  -0.000004   0.000001
    19  H   -0.000002   0.000062   0.012948  -0.001026   0.000005   0.000000
    20  H   -0.000001   0.000043  -0.000124  -0.000659   0.000002   0.000000
    21  H    0.000002   0.000351  -0.001403   0.000441   0.000000  -0.000001
    22  O    0.000005  -0.003088  -0.136258   0.004931  -0.000640  -0.000016
    23  C   -0.035949  -0.001016  -0.003239   0.001993   0.000943  -0.002241
    24  H    0.007877  -0.000092   0.000736  -0.000187  -0.000011   0.000061
    25  C   -0.005598   0.000007  -0.000144   0.000260  -0.003349   0.001149
    26  H    0.003842  -0.000164  -0.000033   0.000018   0.005047   0.001280
    27  H   -0.000027   0.000000  -0.000016  -0.000012  -0.000056  -0.000066
    28  H   -0.000584   0.000002   0.000012   0.000020   0.000044  -0.000018
    29  C   -0.004359   0.004471  -0.047351  -0.004155   0.004941   0.008086
    30  H   -0.000177  -0.000346   0.000604   0.001561   0.000150   0.000013
    31  H    0.000939  -0.000084   0.005780   0.000376  -0.008957   0.003933
              13         14         15         16         17         18
     1  C   -0.057686  -0.000994  -0.008233   0.008106  -0.000414  -0.002918
     2  C    0.010526   0.002144  -0.000946   0.000684  -0.073658   0.014483
     3  H   -0.000751   0.000045  -0.000140  -0.000047   0.000098   0.002887
     4  C   -0.001124   0.000368  -0.000041  -0.000043   0.000216  -0.000052
     5  H   -0.000036   0.000041  -0.000003  -0.000005   0.000011   0.000001
     6  H   -0.000237   0.000046  -0.000037  -0.000005   0.001136   0.000231
     7  H    0.000411   0.000683   0.000188  -0.000072  -0.000001   0.000006
     8  O    0.005776   0.004217   0.005293   0.001515   0.016295  -0.000190
     9  N   -0.000377   0.000013  -0.000038   0.000005   0.347791  -0.062524
    10  H    0.000031  -0.000012   0.000008   0.000000  -0.020074  -0.000148
    11  N    0.291618  -0.059807  -0.038435  -0.027817   0.000640  -0.000004
    12  H   -0.032930   0.004047   0.002040  -0.008298  -0.000155   0.000001
    13  C    4.787523   0.392053   0.406544   0.393108  -0.000136  -0.000005
    14  H    0.392053   0.624655  -0.054540  -0.028923   0.000001   0.000000
    15  H    0.406544  -0.054540   0.584424  -0.024989   0.000001   0.000000
    16  H    0.393108  -0.028923  -0.024989   0.597442  -0.000003   0.000000
    17  C   -0.000136   0.000001   0.000001  -0.000003   4.529755   0.278216
    18  C   -0.000005   0.000000   0.000000   0.000000   0.278216   4.994920
    19  H    0.000000   0.000000   0.000000   0.000000  -0.054189   0.390333
    20  H    0.000000   0.000000   0.000000   0.000000  -0.025608   0.384921
    21  H    0.000001   0.000000   0.000000   0.000000  -0.025272   0.389461
    22  O   -0.000051   0.000003   0.000003  -0.000001   0.713335  -0.069678
    23  C    0.000381  -0.000173   0.000021   0.000031  -0.000453  -0.000149
    24  H   -0.000001  -0.000010   0.000002   0.000000   0.000014   0.000012
    25  C    0.000154   0.000351  -0.000020   0.000000   0.000018   0.000001
    26  H   -0.000056  -0.000983   0.000111   0.000074  -0.000004   0.000000
    27  H   -0.000001   0.000003   0.000000   0.000000   0.000001   0.000000
    28  H   -0.000003  -0.000003   0.000000  -0.000001  -0.000001   0.000000
    29  C   -0.001276  -0.000491   0.000155  -0.000142   0.007880   0.000337
    30  H    0.000054  -0.000019   0.000011   0.000002  -0.000288  -0.000066
    31  H    0.000384   0.000145  -0.000062   0.000056  -0.000279   0.000021
              19         20         21         22         23         24
     1  C    0.000155  -0.000095   0.000573  -0.007776  -0.006926   0.000849
     2  C    0.000123  -0.000464  -0.000863   0.013957  -0.005913  -0.001308
     3  H   -0.000429   0.000102  -0.000173   0.026532   0.003505  -0.000414
     4  C   -0.000020  -0.000010   0.000020   0.000030   0.249580  -0.043326
     5  H   -0.000002   0.000000  -0.000001   0.000000  -0.031190  -0.008537
     6  H    0.000061   0.000062  -0.000118  -0.000135  -0.032912  -0.007352
     7  H   -0.000002  -0.000001   0.000002   0.000005  -0.035949   0.007877
     8  O    0.000062   0.000043   0.000351  -0.003088  -0.001016  -0.000092
     9  N    0.012948  -0.000124  -0.001403  -0.136258  -0.003239   0.000736
    10  H   -0.001026  -0.000659   0.000441   0.004931   0.001993  -0.000187
    11  N    0.000005   0.000002   0.000000  -0.000640   0.000943  -0.000011
    12  H    0.000000   0.000000  -0.000001  -0.000016  -0.002241   0.000061
    13  C    0.000000   0.000000   0.000001  -0.000051   0.000381  -0.000001
    14  H    0.000000   0.000000   0.000000   0.000003  -0.000173  -0.000010
    15  H    0.000000   0.000000   0.000000   0.000003   0.000021   0.000002
    16  H    0.000000   0.000000   0.000000  -0.000001   0.000031   0.000000
    17  C   -0.054189  -0.025608  -0.025272   0.713335  -0.000453   0.000014
    18  C    0.390333   0.384921   0.389461  -0.069678  -0.000149   0.000012
    19  H    0.608053  -0.027052  -0.024779   0.004836   0.000098  -0.000006
    20  H   -0.027052   0.576881  -0.025205   0.002749   0.000006  -0.000002
    21  H   -0.024779  -0.025205   0.563670   0.000703  -0.000003   0.000001
    22  O    0.004836   0.002749   0.000703   7.855459  -0.000075   0.000000
    23  C    0.000098   0.000006  -0.000003  -0.000075   5.308953   0.422555
    24  H   -0.000006  -0.000002   0.000001   0.000000   0.422555   0.537232
    25  C   -0.000001   0.000000   0.000000   0.000001   0.271515  -0.024681
    26  H    0.000000   0.000000   0.000000   0.000000  -0.046920   0.008041
    27  H    0.000000   0.000000   0.000000   0.000000  -0.034974  -0.006648
    28  H    0.000000   0.000000   0.000000   0.000000  -0.036269  -0.006000
    29  C   -0.000291  -0.000001   0.000016   0.001795   0.200985  -0.050438
    30  H   -0.000027  -0.000038   0.000017  -0.000115  -0.048498  -0.007813
    31  H   -0.000002  -0.000005   0.000001   0.000028  -0.061539   0.004571
              25         26         27         28         29         30
     1  C   -0.000636  -0.000048   0.000032   0.000040  -0.017595   0.006682
     2  C    0.003612  -0.001673   0.000851  -0.000457   0.188172  -0.034624
     3  H   -0.000284  -0.000070  -0.000003   0.000012  -0.024914  -0.007392
     4  C   -0.063376  -0.005512   0.007647  -0.005701  -0.045929   0.005542
     5  H   -0.008657  -0.000163  -0.000101   0.004240   0.009311  -0.000410
     6  H    0.006503  -0.000164  -0.000337  -0.000126  -0.007872  -0.000671
     7  H   -0.005598   0.003842  -0.000027  -0.000584  -0.004359  -0.000177
     8  O    0.000007  -0.000164   0.000000   0.000002   0.004471  -0.000346
     9  N   -0.000144  -0.000033  -0.000016   0.000012  -0.047351   0.000604
    10  H    0.000260   0.000018  -0.000012   0.000020  -0.004155   0.001561
    11  N   -0.003349   0.005047  -0.000056   0.000044   0.004941   0.000150
    12  H    0.001149   0.001280  -0.000066  -0.000018   0.008086   0.000013
    13  C    0.000154  -0.000056  -0.000001  -0.000003  -0.001276   0.000054
    14  H    0.000351  -0.000983   0.000003  -0.000003  -0.000491  -0.000019
    15  H   -0.000020   0.000111   0.000000   0.000000   0.000155   0.000011
    16  H    0.000000   0.000074   0.000000  -0.000001  -0.000142   0.000002
    17  C    0.000018  -0.000004   0.000001  -0.000001   0.007880  -0.000288
    18  C    0.000001   0.000000   0.000000   0.000000   0.000337  -0.000066
    19  H   -0.000001   0.000000   0.000000   0.000000  -0.000291  -0.000027
    20  H    0.000000   0.000000   0.000000   0.000000  -0.000001  -0.000038
    21  H    0.000000   0.000000   0.000000   0.000000   0.000016   0.000017
    22  O    0.000001   0.000000   0.000000   0.000000   0.001795  -0.000115
    23  C    0.271515  -0.046920  -0.034974  -0.036269   0.200985  -0.048498
    24  H   -0.024681   0.008041  -0.006648  -0.006000  -0.050438  -0.007813
    25  C    5.101755   0.400707   0.404674   0.407589  -0.049731   0.003241
    26  H    0.400707   0.558431  -0.033146  -0.023487  -0.004582   0.000406
    27  H    0.404674  -0.033146   0.543330  -0.017188  -0.003811   0.000727
    28  H    0.407589  -0.023487  -0.017188   0.525639   0.009711  -0.000371
    29  C   -0.049731  -0.004582  -0.003811   0.009711   5.442417   0.419961
    30  H    0.003241   0.000406   0.000727  -0.000371   0.419961   0.472921
    31  H   -0.006027  -0.002408  -0.000006   0.000820   0.422695  -0.005309
              31
     1  C    0.003982
     2  C   -0.047547
     3  H   -0.009106
     4  C    0.003281
     5  H   -0.000313
     6  H   -0.000888
     7  H    0.000939
     8  O   -0.000084
     9  N    0.005780
    10  H    0.000376
    11  N   -0.008957
    12  H    0.003933
    13  C    0.000384
    14  H    0.000145
    15  H   -0.000062
    16  H    0.000056
    17  C   -0.000279
    18  C    0.000021
    19  H   -0.000002
    20  H   -0.000005
    21  H    0.000001
    22  O    0.000028
    23  C   -0.061539
    24  H    0.004571
    25  C   -0.006027
    26  H   -0.002408
    27  H   -0.000006
    28  H    0.000820
    29  C    0.422695
    30  H   -0.005309
    31  H    0.496150
 Mulliken charges:
               1
     1  C    0.274165
     2  C   -0.115266
     3  H    0.227910
     4  C   -0.487324
     5  H    0.152485
     6  H    0.166742
     7  H    0.173963
     8  O   -0.381187
     9  N   -0.192534
    10  H    0.158592
    11  N   -0.150621
    12  H    0.143102
    13  C   -0.193895
    14  H    0.117139
    15  H    0.128685
    16  H    0.089322
    17  C    0.305124
    18  C   -0.320098
    19  H    0.091151
    20  H    0.114498
    21  H    0.122560
    22  O   -0.406538
    23  C   -0.112126
    24  H    0.174875
    25  C   -0.439032
    26  H    0.141455
    27  H    0.139127
    28  H    0.142081
    29  C   -0.457995
    30  H    0.194271
    31  H    0.199371
 Sum of Mulliken charges =   0.00000
 Mulliken charges with hydrogens summed into heavy atoms:
               1
     1  C    0.274165
     2  C    0.112644
     4  C    0.005865
     8  O   -0.381187
     9  N   -0.033942
    11  N   -0.007519
    13  C    0.141251
    17  C    0.305124
    18  C    0.008111
    22  O   -0.406538
    23  C    0.062749
    25  C   -0.016369
    29  C   -0.064353
 Electronic spatial extent (au):  <R**2>=           2859.0228
 Charge=              0.0000 electrons
 Dipole moment (field-independent basis, Debye):
    X=             -4.2299    Y=             -3.3398    Z=             -0.7674  Tot=              5.4438
 Quadrupole moment (field-independent basis, Debye-Ang):
   XX=            -80.4221   YY=            -77.3082   ZZ=            -81.7243
   XY=            -12.0317   XZ=              6.4797   YZ=             -2.9671
 Traceless Quadrupole moment (field-independent basis, Debye-Ang):
   XX=             -0.6039   YY=              2.5100   ZZ=             -1.9061
   XY=            -12.0317   XZ=              6.4797   YZ=             -2.9671
 Octapole moment (field-independent basis, Debye-Ang**2):
  XXX=             -0.3670  YYY=             15.8634  ZZZ=             -5.2397  XYY=            -13.0651
  XXY=            -11.4137  XXZ=             16.9173  XZZ=             -3.8972  YZZ=             -2.0704
  YYZ=             -0.8752  XYZ=              5.0591
 Hexadecapole moment (field-independent basis, Debye-Ang**3):
 XXXX=          -2198.9147 YYYY=          -1128.3617 ZZZZ=           -406.9923 XXXY=            -91.0374
 XXXZ=             57.6511 YYYX=            -40.2643 YYYZ=             -4.1065 ZZZX=              4.1614
 ZZZY=             -4.5867 XXYY=           -547.7957 XXZZ=           -434.0796 YYZZ=           -268.0721
 XXYZ=              8.2410 YYXZ=              1.6031 ZZXY=             -8.7986
 N-N= 8.793386158181D+02 E-N=-3.188267951194D+03  KE= 6.091153336791D+02
 Calculating spin-rotation constants.
 Leave Link  601 at Wed Jun 18 15:43:44 2014, MaxMem=  4294967296 cpu:        70.8
 (Enter /home/ztw1e12/g09/l9999.exe)

 Test job not archived.
 1\1\GINC-GREEN0717\SP\RM06\Gen\C9H18N2O2\ROOT\18-Jun-2014\0\\#P Geom=A
 llCheck Guess=TCheck SCRF=Check GenChk RM06/ChkBas NMR=ReadFC IOp(3/6=
 22)\\NMR spin-spin scan\\0,1\C,0,0.488678,0.83587,0.47261\C,0,0.228978
 ,0.018777,-0.792663\H,0,0.71476,0.584847,-1.593768\C,0,-1.765421,-1.00
 0639,1.216852\H,0,-2.556955,-1.497258,1.781721\H,0,-0.889595,-1.648985
 ,1.256024\H,0,-1.527519,-0.077786,1.754776\O,0,1.212207,0.43832,1.3797
 88\N,0,0.8913,-1.262388,-0.734156\H,0,0.357488,-2.071982,-0.458449\N,0
 ,-0.081727,2.046494,0.493524\H,0,-0.726556,2.298653,-0.237649\C,0,0.02
 0644,2.90276,1.652689\H,0,-0.402905,2.421876,2.537135\H,0,1.060261,3.1
 51062,1.865552\H,0,-0.524349,3.822007,1.460248\C,0,2.211033,-1.408473,
 -0.944358\C,0,2.753075,-2.792266,-0.794236\H,0,1.985531,-3.535661,-0.5
 89716\H,0,3.288519,-3.062543,-1.703714\H,0,3.476471,-2.79348,0.021492\
 O,0,2.937834,-0.464679,-1.251152\C,0,-2.25826,-0.728408,-0.195415\H,0,
 -2.557047,-1.700576,-0.601933\C,0,-3.502425,0.139849,-0.150174\H,0,-3.
 270836,1.121219,0.275382\H,0,-3.91392,0.301432,-1.148587\H,0,-4.280579
 ,-0.316072,0.465445\C,0,-1.235416,-0.132114,-1.19192\H,0,-1.244409,-0.
 717401,-2.113163\H,0,-1.583236,0.860839,-1.491842\\Version=EM64L-G09Re
 vD.01\State=1-A\HF=-613.5737773\RMSD=2.906e-09\Dipole=-2.1146966,-0.12
 08353,-0.31723\Quadrupole=-7.5882782,10.5011167,-2.9128385,-4.2291688,
 1.435536,1.6799921\PG=C01 [X(C9H18N2O2)]\\@


 ALL MEN WHO EXPLORE
 DEPLORE
 THAT FRUSTRATING HURDLE
 THE GIRDLE.

         -- COLIN FLETCHER
 Job cpu time:       2 days 15 hours 10 minutes 22.2 seconds.
 File lengths (MBytes):  RWF=   2456 Int=      0 D2E=      0 Chk=     48 Scr=      8
 Normal termination of Gaussian 09 at Wed Jun 18 15:43:45 2014.
