 Entering Gaussian System, Link 0=g09
 Input=scan_input_29.gjf
 Output=scan_input_29.log
 Initial command:
 /home/ztw1e12/g09/l1.exe "/home/ztw1e12/leucine_scan/leucine_chi2_scan/Gau-7202.inp" -scrdir="/home/ztw1e12/leucine_scan/leucine_chi2_scan/"
 Default is to use a total of   8 processors:
                                8 via shared-memory
                                1 via Linda
 Entering Link 1 = /home/ztw1e12/g09/l1.exe PID=      7203.
  
 Copyright (c) 1988,1990,1992,1993,1995,1998,2003,2009,2013,
            Gaussian, Inc.  All Rights Reserved.
  
 This is part of the Gaussian(R) 09 program.  It is based on
 the Gaussian(R) 03 system (copyright 2003, Gaussian, Inc.),
 the Gaussian(R) 98 system (copyright 1998, Gaussian, Inc.),
 the Gaussian(R) 94 system (copyright 1995, Gaussian, Inc.),
 the Gaussian 92(TM) system (copyright 1992, Gaussian, Inc.),
 the Gaussian 90(TM) system (copyright 1990, Gaussian, Inc.),
 the Gaussian 88(TM) system (copyright 1988, Gaussian, Inc.),
 the Gaussian 86(TM) system (copyright 1986, Carnegie Mellon
 University), and the Gaussian 82(TM) system (copyright 1983,
 Carnegie Mellon University). Gaussian is a federally registered
 trademark of Gaussian, Inc.
  
 This software contains proprietary and confidential information,
 including trade secrets, belonging to Gaussian, Inc.
  
 This software is provided under written license and may be
 used, copied, transmitted, or stored only in accord with that
 written license.
  
 The following legend is applicable only to US Government
 contracts under FAR:
  
                    RESTRICTED RIGHTS LEGEND
  
 Use, reproduction and disclosure by the US Government is
 subject to restrictions as set forth in subparagraphs (a)
 and (c) of the Commercial Computer Software - Restricted
 Rights clause in FAR 52.227-19.
  
 Gaussian, Inc.
 340 Quinnipiac St., Bldg. 40, Wallingford CT 06492
  
  
 ---------------------------------------------------------------
 Warning -- This program may not be used in any manner that
 competes with the business of Gaussian, Inc. or will provide
 assistance to any competitor of Gaussian, Inc.  The licensee
 of this program is prohibited from giving any competitor of
 Gaussian, Inc. access to this program.  By using this program,
 the user acknowledges that Gaussian, Inc. is engaged in the
 business of creating and licensing software in the field of
 computational chemistry and represents and warrants to the
 licensee that it is not a competitor of Gaussian, Inc. and that
 it will not use this program in any manner prohibited above.
 ---------------------------------------------------------------
  

 Cite this work as:
 Gaussian 09, Revision D.01,
 M. J. Frisch, G. W. Trucks, H. B. Schlegel, G. E. Scuseria, 
 M. A. Robb, J. R. Cheeseman, G. Scalmani, V. Barone, B. Mennucci, 
 G. A. Petersson, H. Nakatsuji, M. Caricato, X. Li, H. P. Hratchian, 
 A. F. Izmaylov, J. Bloino, G. Zheng, J. L. Sonnenberg, M. Hada, 
 M. Ehara, K. Toyota, R. Fukuda, J. Hasegawa, M. Ishida, T. Nakajima, 
 Y. Honda, O. Kitao, H. Nakai, T. Vreven, J. A. Montgomery, Jr., 
 J. E. Peralta, F. Ogliaro, M. Bearpark, J. J. Heyd, E. Brothers, 
 K. N. Kudin, V. N. Staroverov, T. Keith, R. Kobayashi, J. Normand, 
 K. Raghavachari, A. Rendell, J. C. Burant, S. S. Iyengar, J. Tomasi, 
 M. Cossi, N. Rega, J. M. Millam, M. Klene, J. E. Knox, J. B. Cross, 
 V. Bakken, C. Adamo, J. Jaramillo, R. Gomperts, R. E. Stratmann, 
 O. Yazyev, A. J. Austin, R. Cammi, C. Pomelli, J. W. Ochterski, 
 R. L. Martin, K. Morokuma, V. G. Zakrzewski, G. A. Voth, 
 P. Salvador, J. J. Dannenberg, S. Dapprich, A. D. Daniels, 
 O. Farkas, J. B. Foresman, J. V. Ortiz, J. Cioslowski, 
 and D. J. Fox, Gaussian, Inc., Wallingford CT, 2013.
 
 ******************************************
 Gaussian 09:  EM64L-G09RevD.01 24-Apr-2013
                18-Jun-2014 
 ******************************************
 %Mem=32GB
 %NProcShared=16
 Will use up to   16 processors via shared memory.
 Default route:  MaxDisk=100GB
 ----------------------------------------------------------------------
 #p nmr=(giao,mixed,spinspin) m06/cc-pvtz scf=tight integral=(grid=ultr
 afine)
 ----------------------------------------------------------------------
 1/38=1/1;
 2/12=2,17=6,18=5,40=1/2;
 3/5=16,6=1,10=1100000,11=2,16=1,25=1,30=1,74=-54,75=-5/1,2,8,3;
 4//1;
 5/5=2,32=2,38=5/2;
 8/6=1,10=90,11=11/1;
 10/13=100,45=16,47=3/2;
 6/7=2,8=2,9=2,10=2,28=1/1;
 99/9=1/99;
 Leave Link    1 at Wed Jun 18 15:08:23 2014, MaxMem=  4294967296 cpu:         6.4
 (Enter /home/ztw1e12/g09/l101.exe)
 ------------------
 NMR spin-spin scan
 ------------------
 Symbolic Z-matrix:
 Charge =  0 Multiplicity = 1
 C                     0.56178   0.72607   0.6145 
 C                     0.14938   0.19773  -0.75314 
 H                     0.54356   0.88679  -1.50554 
 C                    -2.63517   0.23114   1.28242 
 H                    -3.12884  -0.3593    2.05685 
 H                    -1.84076   0.8079    1.76159 
 H                    -3.36694   0.94109   0.88521 
 O                     0.80239  -0.01078   1.56658 
 N                     0.70714  -1.11198  -0.99582 
 H                     0.08506  -1.90386  -1.05903 
 N                     0.60956   2.05929   0.70339 
 H                     0.35008   2.60552  -0.10302 
 C                     0.82165   2.72679   1.96702 
 H                     0.03741   2.4768    2.6842 
 H                     1.7811    2.44468   2.39985 
 H                     0.81789   3.80006   1.80398 
 C                     2.03293  -1.31411  -1.06428 
 C                     2.48303  -2.71953  -1.29051 
 H                     1.65903  -3.42372  -1.38334 
 H                     3.09023  -2.75277  -2.19475 
 H                     3.12021  -3.02131  -0.4594 
 O                     2.83512  -0.38694  -0.95548 
 C                    -2.11669  -0.65701   0.16469 
 H                    -1.42976  -1.39218   0.59883 
 C                    -3.26945  -1.41037  -0.47221 
 H                    -3.96278  -0.71212  -0.95149 
 H                    -2.91609  -2.10573  -1.23694 
 H                    -3.83213  -1.97901   0.27099 
 C                    -1.36819   0.157    -0.89692 
 H                    -1.57228  -0.25144  -1.89107 
 H                    -1.74286   1.18462  -0.90682 
 
 NAtoms=     31 NQM=       31 NQMF=       0 NMMI=      0 NMMIF=      0
                NMic=       0 NMicF=      0.
                    Isotopes and Nuclear Properties:
 (Nuclear quadrupole moments (NQMom) in fm**2, nuclear magnetic moments (NMagM)
  in nuclear magnetons)

  Atom         1           2           3           4           5           6           7           8           9          10
 IAtWgt=          12          12           1          12           1           1           1          16          14           1
 AtmWgt=  12.0000000  12.0000000   1.0078250  12.0000000   1.0078250   1.0078250   1.0078250  15.9949146  14.0030740   1.0078250
 NucSpn=           0           0           1           0           1           1           1           0           2           1
 AtZEff=   0.0000000   0.0000000   0.0000000   0.0000000   0.0000000   0.0000000   0.0000000   0.0000000   0.0000000   0.0000000
 NQMom=    0.0000000   0.0000000   0.0000000   0.0000000   0.0000000   0.0000000   0.0000000   0.0000000   2.0440000   0.0000000
 NMagM=    0.0000000   0.0000000   2.7928460   0.0000000   2.7928460   2.7928460   2.7928460   0.0000000   0.4037610   2.7928460
 AtZNuc=   6.0000000   6.0000000   1.0000000   6.0000000   1.0000000   1.0000000   1.0000000   8.0000000   7.0000000   1.0000000

  Atom        11          12          13          14          15          16          17          18          19          20
 IAtWgt=          14           1          12           1           1           1          12          12           1           1
 AtmWgt=  14.0030740   1.0078250  12.0000000   1.0078250   1.0078250   1.0078250  12.0000000  12.0000000   1.0078250   1.0078250
 NucSpn=           2           1           0           1           1           1           0           0           1           1
 AtZEff=   0.0000000   0.0000000   0.0000000   0.0000000   0.0000000   0.0000000   0.0000000   0.0000000   0.0000000   0.0000000
 NQMom=    2.0440000   0.0000000   0.0000000   0.0000000   0.0000000   0.0000000   0.0000000   0.0000000   0.0000000   0.0000000
 NMagM=    0.4037610   2.7928460   0.0000000   2.7928460   2.7928460   2.7928460   0.0000000   0.0000000   2.7928460   2.7928460
 AtZNuc=   7.0000000   1.0000000   6.0000000   1.0000000   1.0000000   1.0000000   6.0000000   6.0000000   1.0000000   1.0000000

  Atom        21          22          23          24          25          26          27          28          29          30
 IAtWgt=           1          16          12           1          12           1           1           1          12           1
 AtmWgt=   1.0078250  15.9949146  12.0000000   1.0078250  12.0000000   1.0078250   1.0078250   1.0078250  12.0000000   1.0078250
 NucSpn=           1           0           0           1           0           1           1           1           0           1
 AtZEff=   0.0000000   0.0000000   0.0000000   0.0000000   0.0000000   0.0000000   0.0000000   0.0000000   0.0000000   0.0000000
 NQMom=    0.0000000   0.0000000   0.0000000   0.0000000   0.0000000   0.0000000   0.0000000   0.0000000   0.0000000   0.0000000
 NMagM=    2.7928460   0.0000000   0.0000000   2.7928460   0.0000000   2.7928460   2.7928460   2.7928460   0.0000000   2.7928460
 AtZNuc=   1.0000000   8.0000000   6.0000000   1.0000000   6.0000000   1.0000000   1.0000000   1.0000000   6.0000000   1.0000000

  Atom        31
 IAtWgt=           1
 AtmWgt=   1.0078250
 NucSpn=           1
 AtZEff=   0.0000000
 NQMom=    0.0000000
 NMagM=    2.7928460
 AtZNuc=   1.0000000
 Leave Link  101 at Wed Jun 18 15:08:23 2014, MaxMem=  4294967296 cpu:         2.6
 (Enter /home/ztw1e12/g09/l202.exe)
                          Input orientation:                          
 ---------------------------------------------------------------------
 Center     Atomic      Atomic             Coordinates (Angstroms)
 Number     Number       Type             X           Y           Z
 ---------------------------------------------------------------------
      1          6           0        0.561783    0.726068    0.614496
      2          6           0        0.149381    0.197731   -0.753143
      3          1           0        0.543557    0.886787   -1.505543
      4          6           0       -2.635172    0.231137    1.282422
      5          1           0       -3.128839   -0.359300    2.056846
      6          1           0       -1.840759    0.807900    1.761591
      7          1           0       -3.366935    0.941086    0.885211
      8          8           0        0.802392   -0.010779    1.566581
      9          7           0        0.707142   -1.111983   -0.995815
     10          1           0        0.085060   -1.903857   -1.059025
     11          7           0        0.609563    2.059291    0.703387
     12          1           0        0.350075    2.605515   -0.103015
     13          6           0        0.821647    2.726785    1.967017
     14          1           0        0.037407    2.476797    2.684197
     15          1           0        1.781101    2.444676    2.399852
     16          1           0        0.817892    3.800055    1.803981
     17          6           0        2.032934   -1.314106   -1.064279
     18          6           0        2.483025   -2.719525   -1.290513
     19          1           0        1.659030   -3.423718   -1.383343
     20          1           0        3.090231   -2.752770   -2.194751
     21          1           0        3.120215   -3.021314   -0.459404
     22          8           0        2.835121   -0.386939   -0.955475
     23          6           0       -2.116694   -0.657012    0.164688
     24          1           0       -1.429760   -1.392176    0.598826
     25          6           0       -3.269446   -1.410369   -0.472207
     26          1           0       -3.962775   -0.712122   -0.951492
     27          1           0       -2.916088   -2.105730   -1.236935
     28          1           0       -3.832134   -1.979011    0.270992
     29          6           0       -1.368186    0.156996   -0.896922
     30          1           0       -1.572278   -0.251437   -1.891066
     31          1           0       -1.742864    1.184621   -0.906817
 ---------------------------------------------------------------------
                    Distance matrix (angstroms):
                    1          2          3          4          5
     1  C    0.000000
     2  C    1.523040   0.000000
     3  H    2.126200   1.093745   0.000000
     4  C    3.303272   3.449402   4.278661   0.000000
     5  H    4.108417   4.353510   5.265913   1.091813   0.000000
     6  H    2.663594   3.264483   4.045411   1.092406   1.763145
     7  H    3.943900   3.949843   4.583732   1.094203   1.766472
     8  O    1.227722   2.418888   3.211007   3.457762   3.976984
     9  N    2.447991   1.444070   2.069218   4.262088   4.959841
    10  H    3.153481   2.124705   2.863091   4.176151   4.735341
    11  N    1.337037   2.408039   2.501698   3.769049   4.653717
    12  H    2.022860   2.502073   2.226779   4.058178   5.055489
    13  C    2.428932   3.774563   3.939746   4.318162   5.013814
    14  H    2.761102   4.125771   4.509794   3.761734   4.296758
    15  H    2.761856   4.201506   4.382995   5.064768   5.664578
    16  H    3.306034   4.467945   4.417617   4.993281   5.739413
    17  C    3.024050   2.435206   2.693861   5.448486   6.107125
    18  C    4.380906   3.774261   4.100398   6.443783   6.947553
    19  H    4.734558   3.973800   4.454174   6.237342   6.644490
    20  H    5.136850   4.408207   4.495212   7.333122   7.904531
    21  H    4.662800   4.390261   4.796543   6.836437   7.243515
    22  O    2.978533   2.756080   2.678846   5.942584   6.681591
    23  C    3.047864   2.589999   3.499989   1.518867   2.166410
    24  H    2.907481   2.617119   3.676414   2.134354   2.465669
    25  C    4.519248   3.788573   4.569869   2.485069   2.742376
    26  H    4.999233   4.216278   4.813576   2.764532   3.141660
    27  H    4.852058   3.864853   4.582189   3.447756   3.734203
    28  H    5.171262   4.651830   5.524088   2.709329   2.511446
    29  C    2.516547   1.524907   2.134895   2.521962   3.477241
    30  H    3.433304   2.112044   2.433298   3.381368   4.245059
    31  H    2.799297   2.139663   2.382205   2.549140   3.617723
                    6          7          8          9         10
     6  H    0.000000
     7  H    1.764934   0.000000
     8  O    2.773898   4.330543   0.000000
     9  N    4.216757   4.934719   2.790626   0.000000
    10  H    4.360995   4.877502   3.315436   1.008983   0.000000
    11  N    2.947856   4.134728   2.251106   3.599137   4.368952
    12  H    3.392334   4.190833   3.136421   3.839841   4.617210
    13  C    3.288271   4.680090   2.766763   4.850528   5.580532
    14  H    2.676551   4.145395   2.832367   5.183664   5.762301
    15  H    4.025454   5.572898   2.771547   5.033266   5.809486
    16  H    4.002901   5.150788   3.818253   5.655019   6.424053
    17  C    5.243467   6.168062   3.183445   1.342857   2.035202
    18  C    6.360281   7.235736   4.280750   2.413462   2.543450
    19  H    6.328169   7.032651   4.591735   2.529899   2.211909
    20  H    7.255734   8.051443   5.186554   3.131891   3.322887
    21  H    6.648832   7.719567   4.305838   3.123492   3.289441
    22  O    5.538406   6.604338   3.261020   2.248469   3.142387
    23  C    2.184538   2.153177   3.302118   3.086716   2.810661
    24  H    2.522157   3.046108   2.797733   2.680996   2.303251
    25  C    3.457126   2.716878   4.763966   4.021996   3.441017
    26  H    3.764869   2.541968   5.435015   4.687214   4.220991
    27  H    4.317028   3.740301   5.106429   3.764767   3.013187
    28  H    3.735550   3.020040   5.199165   4.791823   4.137512
    29  C    2.777534   2.790303   3.287614   2.434558   2.526918
    30  H    3.812634   3.514345   4.201464   2.595721   2.483859
    31  H    2.696647   2.430695   3.744998   3.359292   3.592098
                   11         12         13         14         15
    11  N    0.000000
    12  H    1.007958   0.000000
    13  C    1.444745   2.126527   0.000000
    14  H    2.103635   2.807647   1.091730   0.000000
    15  H    2.097383   2.887568   1.089717   1.767018   0.000000
    16  H    2.070016   2.298350   1.085589   1.770579   1.766320
    17  C    4.065764   4.372582   5.194687   5.692464   5.117818
    18  C    5.506594   5.857959   6.560028   6.984349   6.385958
    19  H    5.959800   6.301131   7.053709   7.347831   6.983231
    20  H    6.140753   6.371423   7.245158   7.776390   7.059578
    21  H    5.785154   6.281870   6.649179   7.043803   6.312339
    22  O    3.699861   3.982075   4.721262   5.410675   4.515221
    23  C    3.885997   4.098865   4.830354   4.561670   5.459783
    24  H    4.010286   4.431921   4.889440   4.633606   5.317401
    25  C    5.335473   5.418908   6.308954   6.000685   6.972669
    26  H    5.596930   5.507023   6.575292   6.276057   7.361317
    27  H    5.791586   5.843751   6.898491   6.715502   7.483047
    28  H    6.018598   6.216802   6.832181   6.375824   7.457175
    29  C    3.176666   3.094827   4.427339   4.492392   5.101001
    30  H    4.102570   3.880044   5.430054   5.564834   6.076689
    31  H    2.981898   2.654323   4.148965   4.211231   4.994009
                   16         17         18         19         20
    16  H    0.000000
    17  C    5.988145   0.000000
    18  C    7.406314   1.492972   0.000000
    19  H    7.940368   2.166118   1.087875   0.000000
    20  H    8.005804   2.113196   1.089702   1.776764   0.000000
    21  H    7.546832   2.112490   1.089876   1.775008   1.756259
    22  O    5.405065   1.230846   2.382683   3.284553   2.682917
    23  C    5.582519   4.377390   5.246807   4.930229   6.088614
    24  H    5.784773   3.842169   4.543275   4.194852   5.485035
    25  C    7.002563   5.336202   5.956042   5.401261   6.724187
    26  H    7.127913   6.026909   6.759655   6.256512   7.446800
    27  H    7.620241   5.014908   5.434155   4.763427   6.116530
    28  H    7.574325   6.051782   6.547358   5.914126   7.389028
    29  C    5.034451   3.709416   4.822978   4.714038   5.479834
    30  H    5.981711   3.848428   4.785144   4.556589   5.299800
    31  H    4.554821   4.530462   5.766083   5.747760   6.365582
                   21         22         23         24         25
    21  H    0.000000
    22  O    2.695792   0.000000
    23  C    5.779674   5.084110   0.000000
    24  H    4.947344   4.649254   1.095819   0.000000
    25  C    6.589619   6.208598   1.517241   2.128823   0.000000
    26  H    7.466141   6.805670   2.157987   3.046658   1.094517
    27  H    6.154657   6.009149   2.168493   2.467458   1.092336
    28  H    7.067887   6.963563   2.168344   2.494645   1.091932
    29  C    5.517139   4.238760   1.532935   2.154295   2.500361
    30  H    5.633948   4.507644   2.164949   2.742473   2.497331
    31  H    6.445123   4.840466   2.163211   3.000813   3.041926
                   26         27         28         29         30
    26  H    0.000000
    27  H    1.766119   0.000000
    28  H    1.765373   1.768910   0.000000
    29  C    2.736830   2.762524   3.463754   0.000000
    30  H    2.609503   2.381620   3.572948   1.093981   0.000000
    31  H    2.920211   3.508823   3.969994   1.093844   1.749317
                   31
    31  H    0.000000
 Stoichiometry    C9H18N2O2
 Framework group  C1[X(C9H18N2O2)]
 Deg. of freedom    87
 Full point group                 C1      NOp   1
 Largest Abelian subgroup         C1      NOp   1
 Largest concise Abelian subgroup C1      NOp   1
                         Standard orientation:                         
 ---------------------------------------------------------------------
 Center     Atomic      Atomic             Coordinates (Angstroms)
 Number     Number       Type             X           Y           Z
 ---------------------------------------------------------------------
      1          6           0        0.009212    1.148431    0.086415
      2          6           0        0.220859   -0.075407   -0.795106
      3          1           0        0.596346    0.274665   -1.760890
      4          6           0       -2.924163   -0.278408    0.607035
      5          1           0       -3.426271   -0.583839    1.527174
      6          1           0       -2.533004    0.729710    0.762096
      7          1           0       -3.678559   -0.223347   -0.183621
      8          8           0        0.158622    1.123638    1.304760
      9          7           0        1.199422   -0.968586   -0.220667
     10          1           0        0.901332   -1.876177    0.104091
     11          7           0       -0.383809    2.244633   -0.570505
     12          1           0       -0.536650    2.181605   -1.564812
     13          6           0       -0.786508    3.442932    0.128926
     14          1           0       -1.637061    3.251740    0.786100
     15          1           0        0.030844    3.832971    0.734969
     16          1           0       -1.068685    4.197871   -0.598362
     17          6           0        2.476571   -0.595490   -0.039126
     18          6           0        3.382434   -1.600877    0.591410
     19          1           0        2.884729   -2.539857    0.823956
     20          1           0        4.217959   -1.791887   -0.081542
     21          1           0        3.792925   -1.176571    1.507538
     22          8           0        2.881365    0.514712   -0.383472
     23          6           0       -1.840752   -1.270091    0.220071
     24          1           0       -1.130375   -1.346458    1.050945
     25          6           0       -2.451958   -2.640807   -0.002604
     26          1           0       -3.142877   -2.616891   -0.851148
     27          1           0       -1.685063   -3.387927   -0.219123
     28          1           0       -3.013297   -2.973173    0.873037
     29          6           0       -1.089216   -0.817396   -1.036969
     30          1           0       -0.841713   -1.685372   -1.655154
     31          1           0       -1.738638   -0.183514   -1.647657
 ---------------------------------------------------------------------
 Rotational constants (GHZ):      0.8496161      0.6361741      0.4151916
 Leave Link  202 at Wed Jun 18 15:08:23 2014, MaxMem=  4294967296 cpu:         1.6
 (Enter /home/ztw1e12/g09/l301.exe)
 Standard basis: CC-pVTZ (5D, 7F)
 Converting basis for Fermi contact spin-spin IFCMod=1.
 AO basis functions are being uncontracted.
 Ernie: Thresh=  0.10000D-02 Tol=  0.10000D-05 Strict=F.
 There are  1119 symmetry adapted cartesian basis functions of A   symmetry.
 There are  1036 symmetry adapted basis functions of A   symmetry.
  1036 basis functions,  1119 primitive gaussians,  1119 cartesian basis functions
    51 alpha electrons       51 beta electrons
       nuclear repulsion energy       876.8981852235 Hartrees.
 IExCor= 4235 DFT=T Ex+Corr=M06 ExCW=0 ScaHFX=  0.270000
 ScaDFX=  1.000000  1.000000  1.000000  1.000000 ScalE2=  1.000000  1.000000
 IRadAn= 199590 IRanWt=     -1 IRanGd=            0 ICorTp=0 IEmpDi=  4
 NAtoms=   31 NActive=   31 NUniq=   31 SFac= 1.00D+00 NAtFMM=   60 NAOKFM=F Big=F
 Integral buffers will be    131072 words long.
 Raffenetti 2 integral format.
 Two-electron integral symmetry is turned on.
 Leave Link  301 at Wed Jun 18 15:08:23 2014, MaxMem=  4294967296 cpu:         4.8
 (Enter /home/ztw1e12/g09/l302.exe)
 NPDir=0 NMtPBC=     1 NCelOv=     1 NCel=       1 NClECP=     1 NCelD=      1
         NCelK=      1 NCelE2=     1 NClLst=     1 CellRange=     0.0.
 One-electron integrals computed using PRISM.
 GSVD:  received Info=                   1 from GESDD.
 NBasis=  1036 RedAO= T EigKep=  1.18D-04  NBF=  1036
 NBsUse=   932 1.00D-06 EigRej=  4.74D-15 NBFU=   932
 Precomputing XC quadrature grid using
 IXCGrd= 4 IRadAn=      199590 IRanWt=          -1 IRanGd=           0 AccXCQ= 0.00D+00.
 Generated NRdTot=       0 NPtTot=           0 NUsed=           0 NTot=          32
 NSgBfM=   877   878   878   878   878 MxSgAt=    31 MxSgA2=    31.
 Leave Link  302 at Wed Jun 18 15:08:28 2014, MaxMem=  4294967296 cpu:        67.1
 (Enter /home/ztw1e12/g09/l308.exe)
 Leave Link  308 at Wed Jun 18 15:08:29 2014, MaxMem=  4294967296 cpu:         5.4
 (Enter /home/ztw1e12/g09/l303.exe)
 DipDrv:  MaxL=1.
 Leave Link  303 at Wed Jun 18 15:08:29 2014, MaxMem=  4294967296 cpu:         3.6
 (Enter /home/ztw1e12/g09/l401.exe)
 ExpMin= 1.03D-01 ExpMax= 1.38D+05 ExpMxC= 1.38D+05 IAcc=4 IRadAn=    199590 AccDes= 0.00D+00
 Harris functional with IExCor= 1009 and IRadAn=  199590 diagonalized for initial guess.
 HarFok:  IExCor= 1009 AccDes= 0.00D+00 IRadAn=    199590 IDoV= 1 UseB2=F ITyADJ=14
 ICtDFT=  3500011 ScaDFX=  1.000000  1.000000  1.000000  1.000000
 FoFCou: FMM=F IPFlag=           0 FMFlag=      100000 FMFlg1=           0
         NFxFlg=           0 DoJE=T BraDBF=F KetDBF=T FulRan=T
         wScrn=  0.000000 ICntrl=     500 IOpCl=  0 I1Cent=   200000004 NGrid=           0
         NMat0=    1 NMatS0=      1 NMatT0=    0 NMatD0=    1 NMtDS0=    0 NMtDT0=    0
 Petite list used in FoFCou.
 Harris En= -613.564803184018    
 JPrj=0 DoOrth=F DoCkMO=F.
 Leave Link  401 at Wed Jun 18 15:08:47 2014, MaxMem=  4294967296 cpu:       261.6
 (Enter /home/ztw1e12/g09/l502.exe)
 Closed shell SCF:
 Using DIIS extrapolation, IDIIS=  1040.
 Integral symmetry usage will be decided dynamically.
 IVT=     3801329 IEndB=     3801329 NGot=  4294967296 MDV=  4292435888
 LenX=  4292435888 LenY=  4291182608
 Requested convergence on RMS density matrix=1.00D-08 within 128 cycles.
 Requested convergence on MAX density matrix=1.00D-06.
 Requested convergence on             energy=1.00D-06.
 No special actions if energy rises.
 Fock matrices will be formed incrementally for  20 cycles.
 Integral accuracy reduced to 1.0D-05 until final iterations.

 Cycle   1  Pass 0  IDiag  1:
 FoFJK:  IHMeth= 1 ICntrl=       0 DoSepK=F KAlg= 0 I1Cent=   0 FoldK=F
 IRaf= 480000000 NMat=   1 IRICut=       1 DoRegI=T DoRafI=F ISym2E= 0.
 FoFCou: FMM=F IPFlag=           0 FMFlag=      100000 FMFlg1=           0
         NFxFlg=           0 DoJE=F BraDBF=F KetDBF=F FulRan=T
         wScrn=  0.000000 ICntrl=       0 IOpCl=  0 I1Cent=           0 NGrid=           0
         NMat0=    1 NMatS0=      1 NMatT0=    0 NMatD0=    1 NMtDS0=    0 NMtDT0=    0
 Symmetry not used in FoFCou.
 E= -613.182185905266    
 DIIS: error= 1.17D-01 at cycle   1 NSaved=   1.
 NSaved= 1 IEnMin= 1 EnMin= -613.182185905266     IErMin= 1 ErrMin= 1.17D-01
 ErrMax= 1.17D-01  0.00D+00 EMaxC= 1.00D-01 BMatC= 1.30D+01 BMatP= 1.30D+01
 IDIUse=3 WtCom= 0.00D+00 WtEn= 1.00D+00
 Coeff-Com:  0.100D+01
 Coeff-En:   0.100D+01
 Coeff:      0.100D+01
 Gap=     0.290 Goal=   None    Shift=    0.000
 GapD=    0.290 DampG=1.000 DampE=0.250 DampFc=0.2500 IDamp=-1.
 Damping current iteration by 2.50D-01
 RMSDP=2.13D-03 MaxDP=3.03D-01              OVMax= 2.87D-01

 Cycle   2  Pass 0  IDiag  1:
 RMSU=  5.32D-04    CP:  1.01D+00
 E= -613.340147460859     Delta-E=       -0.157961555594 Rises=F Damp=T
 DIIS: error= 9.42D-02 at cycle   2 NSaved=   2.
 NSaved= 2 IEnMin= 2 EnMin= -613.340147460859     IErMin= 2 ErrMin= 9.42D-02
 ErrMax= 9.42D-02  0.00D+00 EMaxC= 1.00D-01 BMatC= 7.66D+00 BMatP= 1.30D+01
 IDIUse=3 WtCom= 5.76D-02 WtEn= 9.42D-01
 Coeff-Com: -0.279D+01 0.379D+01
 Coeff-En:   0.000D+00 0.100D+01
 Coeff:     -0.160D+00 0.116D+01
 Gap=     0.242 Goal=   None    Shift=    0.000
 RMSDP=5.33D-04 MaxDP=4.73D-02 DE=-1.58D-01 OVMax= 1.46D-01

 Cycle   3  Pass 0  IDiag  1:
 RMSU=  4.60D-04    CP:  1.03D+00  1.50D+00
 E= -613.569399423975     Delta-E=       -0.229251963116 Rises=F Damp=F
 DIIS: error= 1.62D-02 at cycle   3 NSaved=   3.
 NSaved= 3 IEnMin= 3 EnMin= -613.569399423975     IErMin= 3 ErrMin= 1.62D-02
 ErrMax= 1.62D-02  0.00D+00 EMaxC= 1.00D-01 BMatC= 1.69D-01 BMatP= 7.66D+00
 IDIUse=3 WtCom= 8.38D-01 WtEn= 1.62D-01
 Coeff-Com:  0.683D+00-0.959D+00 0.128D+01
 Coeff-En:   0.136D-01 0.000D+00 0.986D+00
 Coeff:      0.575D+00-0.804D+00 0.123D+01
 Gap=     0.259 Goal=   None    Shift=    0.000
 RMSDP=3.74D-04 MaxDP=3.13D-02 DE=-2.29D-01 OVMax= 7.47D-02

 Cycle   4  Pass 0  IDiag  1:
 RMSU=  3.03D-04    CP:  1.03D+00  1.15D+00  7.47D-01
 E= -613.542491213656     Delta-E=        0.026908210319 Rises=F Damp=F
 DIIS: error= 9.63D-03 at cycle   4 NSaved=   4.
 NSaved= 4 IEnMin= 3 EnMin= -613.569399423975     IErMin= 4 ErrMin= 9.63D-03
 ErrMax= 9.63D-03  0.00D+00 EMaxC= 1.00D-01 BMatC= 1.06D-01 BMatP= 1.69D-01
 IDIUse=3 WtCom= 9.04D-01 WtEn= 9.63D-02
 Coeff-Com:  0.470D+00-0.659D+00 0.670D+00 0.519D+00
 Coeff-En:   0.000D+00 0.000D+00 0.606D+00 0.394D+00
 Coeff:      0.425D+00-0.596D+00 0.664D+00 0.507D+00
 Gap=     0.285 Goal=   None    Shift=    0.000
 RMSDP=2.75D-04 MaxDP=2.09D-02 DE= 2.69D-02 OVMax= 7.26D-02

 Cycle   5  Pass 0  IDiag  1:
 RMSU=  6.96D-05    CP:  1.02D+00  1.09D+00  8.57D-01  1.44D-01
 E= -613.620392798899     Delta-E=       -0.077901585242 Rises=F Damp=F
 DIIS: error= 2.35D-03 at cycle   5 NSaved=   5.
 NSaved= 5 IEnMin= 5 EnMin= -613.620392798899     IErMin= 5 ErrMin= 2.35D-03
 ErrMax= 2.35D-03  0.00D+00 EMaxC= 1.00D-01 BMatC= 1.01D-02 BMatP= 1.06D-01
 IDIUse=3 WtCom= 9.77D-01 WtEn= 2.35D-02
 Coeff-Com:  0.241D-01-0.406D-01 0.585D-01 0.229D+00 0.729D+00
 Coeff-En:   0.000D+00 0.000D+00 0.000D+00 0.297D-01 0.970D+00
 Coeff:      0.235D-01-0.396D-01 0.571D-01 0.225D+00 0.734D+00
 Gap=     0.273 Goal=   None    Shift=    0.000
 RMSDP=1.21D-04 MaxDP=1.30D-02 DE=-7.79D-02 OVMax= 2.48D-02

 Cycle   6  Pass 0  IDiag  1:
 RMSU=  5.20D-05    CP:  1.03D+00  1.14D+00  9.35D-01  4.44D-01  3.91D-01
 E= -613.626251782023     Delta-E=       -0.005858983124 Rises=F Damp=F
 DIIS: error= 7.81D-04 at cycle   6 NSaved=   6.
 NSaved= 6 IEnMin= 6 EnMin= -613.626251782023     IErMin= 6 ErrMin= 7.81D-04
 ErrMax= 7.81D-04  0.00D+00 EMaxC= 1.00D-01 BMatC= 7.52D-04 BMatP= 1.01D-02
 IDIUse=3 WtCom= 9.92D-01 WtEn= 7.81D-03
 Coeff-Com:  0.112D-01-0.158D-01-0.488D-02 0.567D-01 0.269D+00 0.683D+00
 Coeff-En:   0.000D+00 0.000D+00 0.000D+00 0.000D+00 0.000D+00 0.100D+01
 Coeff:      0.111D-01-0.157D-01-0.485D-02 0.563D-01 0.267D+00 0.686D+00
 Gap=     0.274 Goal=   None    Shift=    0.000
 RMSDP=2.56D-05 MaxDP=2.42D-03 DE=-5.86D-03 OVMax= 7.24D-03

 Cycle   7  Pass 0  IDiag  1:
 RMSU=  1.86D-05    CP:  1.03D+00  1.11D+00  9.28D-01  4.39D-01  5.58D-01
                    CP:  9.51D-01
 E= -613.626670196220     Delta-E=       -0.000418414197 Rises=F Damp=F
 DIIS: error= 3.37D-04 at cycle   7 NSaved=   7.
 NSaved= 7 IEnMin= 7 EnMin= -613.626670196220     IErMin= 7 ErrMin= 3.37D-04
 ErrMax= 3.37D-04  0.00D+00 EMaxC= 1.00D-01 BMatC= 1.54D-04 BMatP= 7.52D-04
 IDIUse=3 WtCom= 9.97D-01 WtEn= 3.37D-03
 Coeff-Com:  0.105D-01-0.140D-01-0.234D-02 0.171D-01 0.919D-01 0.377D+00
 Coeff-Com:  0.520D+00
 Coeff-En:   0.000D+00 0.000D+00 0.000D+00 0.000D+00 0.000D+00 0.142D+00
 Coeff-En:   0.858D+00
 Coeff:      0.105D-01-0.140D-01-0.233D-02 0.170D-01 0.916D-01 0.377D+00
 Coeff:      0.521D+00
 Gap=     0.273 Goal=   None    Shift=    0.000
 RMSDP=8.90D-06 MaxDP=7.92D-04 DE=-4.18D-04 OVMax= 2.82D-03

 Initial convergence to 1.0D-05 achieved.  Increase integral accuracy.
 Cycle   8  Pass 1  IDiag  1:
 E= -613.626751037279     Delta-E=       -0.000080841060 Rises=F Damp=F
 DIIS: error= 1.02D-04 at cycle   1 NSaved=   1.
 NSaved= 1 IEnMin= 1 EnMin= -613.626751037279     IErMin= 1 ErrMin= 1.02D-04
 ErrMax= 1.02D-04  0.00D+00 EMaxC= 1.00D-01 BMatC= 1.96D-05 BMatP= 1.96D-05
 IDIUse=3 WtCom= 9.99D-01 WtEn= 1.02D-03
 Coeff-Com:  0.100D+01
 Coeff-En:   0.100D+01
 Coeff:      0.100D+01
 Gap=     0.274 Goal=   None    Shift=    0.000
 RMSDP=8.90D-06 MaxDP=7.92D-04 DE=-8.08D-05 OVMax= 2.43D-03

 Cycle   9  Pass 1  IDiag  1:
 RMSU=  2.44D-05    CP:  1.00D+00
 E= -613.626722988335     Delta-E=        0.000028048944 Rises=F Damp=F
 DIIS: error= 2.04D-04 at cycle   2 NSaved=   2.
 NSaved= 2 IEnMin= 1 EnMin= -613.626751037279     IErMin= 1 ErrMin= 1.02D-04
 ErrMax= 2.04D-04  0.00D+00 EMaxC= 1.00D-01 BMatC= 5.71D-05 BMatP= 1.96D-05
 IDIUse=3 WtCom= 4.12D-01 WtEn= 5.88D-01
 Coeff-Com:  0.643D+00 0.357D+00
 Coeff-En:   0.733D+00 0.267D+00
 Coeff:      0.696D+00 0.304D+00
 Gap=     0.274 Goal=   None    Shift=    0.000
 RMSDP=5.15D-06 MaxDP=4.83D-04 DE= 2.80D-05 OVMax= 1.54D-03

 Cycle  10  Pass 1  IDiag  1:
 RMSU=  4.96D-06    CP:  1.00D+00  9.43D-01
 E= -613.626763738970     Delta-E=       -0.000040750635 Rises=F Damp=F
 DIIS: error= 1.08D-05 at cycle   3 NSaved=   3.
 NSaved= 3 IEnMin= 3 EnMin= -613.626763738970     IErMin= 3 ErrMin= 1.08D-05
 ErrMax= 1.08D-05  0.00D+00 EMaxC= 1.00D-01 BMatC= 2.68D-07 BMatP= 1.96D-05
 IDIUse=1 WtCom= 1.00D+00 WtEn= 0.00D+00
 Coeff-Com:  0.549D-01-0.201D-01 0.965D+00
 Coeff:      0.549D-01-0.201D-01 0.965D+00
 Gap=     0.273 Goal=   None    Shift=    0.000
 RMSDP=8.15D-07 MaxDP=8.88D-05 DE=-4.08D-05 OVMax= 9.32D-05

 Cycle  11  Pass 1  IDiag  1:
 RMSU=  6.43D-07    CP:  1.00D+00  9.53D-01  1.09D+00
 E= -613.626763841905     Delta-E=       -0.000000102935 Rises=F Damp=F
 DIIS: error= 8.35D-06 at cycle   4 NSaved=   4.
 NSaved= 4 IEnMin= 4 EnMin= -613.626763841905     IErMin= 4 ErrMin= 8.35D-06
 ErrMax= 8.35D-06  0.00D+00 EMaxC= 1.00D-01 BMatC= 9.02D-08 BMatP= 2.68D-07
 IDIUse=1 WtCom= 1.00D+00 WtEn= 0.00D+00
 Coeff-Com:  0.271D-02-0.222D-01 0.466D+00 0.553D+00
 Coeff:      0.271D-02-0.222D-01 0.466D+00 0.553D+00
 Gap=     0.273 Goal=   None    Shift=    0.000
 RMSDP=3.13D-07 MaxDP=3.11D-05 DE=-1.03D-07 OVMax= 4.59D-05

 Cycle  12  Pass 1  IDiag  1:
 RMSU=  2.35D-07    CP:  1.00D+00  9.56D-01  1.09D+00  7.10D-01
 E= -613.626763908456     Delta-E=       -0.000000066551 Rises=F Damp=F
 DIIS: error= 2.02D-06 at cycle   5 NSaved=   5.
 NSaved= 5 IEnMin= 5 EnMin= -613.626763908456     IErMin= 5 ErrMin= 2.02D-06
 ErrMax= 2.02D-06  0.00D+00 EMaxC= 1.00D-01 BMatC= 5.15D-09 BMatP= 9.02D-08
 IDIUse=1 WtCom= 1.00D+00 WtEn= 0.00D+00
 Coeff-Com: -0.245D-02-0.892D-02 0.153D+00 0.258D+00 0.600D+00
 Coeff:     -0.245D-02-0.892D-02 0.153D+00 0.258D+00 0.600D+00
 Gap=     0.273 Goal=   None    Shift=    0.000
 RMSDP=5.11D-08 MaxDP=5.08D-06 DE=-6.66D-08 OVMax= 1.02D-05

 Cycle  13  Pass 1  IDiag  1:
 RMSU=  3.97D-08    CP:  1.00D+00  9.56D-01  1.09D+00  7.56D-01  9.64D-01
 E= -613.626763911890     Delta-E=       -0.000000003434 Rises=F Damp=F
 DIIS: error= 4.85D-07 at cycle   6 NSaved=   6.
 NSaved= 6 IEnMin= 6 EnMin= -613.626763911890     IErMin= 6 ErrMin= 4.85D-07
 ErrMax= 4.85D-07  0.00D+00 EMaxC= 1.00D-01 BMatC= 2.53D-10 BMatP= 5.15D-09
 IDIUse=1 WtCom= 1.00D+00 WtEn= 0.00D+00
 Coeff-Com: -0.118D-02-0.268D-02 0.408D-01 0.772D-01 0.244D+00 0.642D+00
 Coeff:     -0.118D-02-0.268D-02 0.408D-01 0.772D-01 0.244D+00 0.642D+00
 Gap=     0.273 Goal=   None    Shift=    0.000
 RMSDP=2.15D-08 MaxDP=2.13D-06 DE=-3.43D-09 OVMax= 3.17D-06

 Cycle  14  Pass 1  IDiag  1:
 RMSU=  1.18D-08    CP:  1.00D+00  9.57D-01  1.09D+00  7.71D-01  1.02D+00
                    CP:  8.70D-01
 E= -613.626763912059     Delta-E=       -0.000000000169 Rises=F Damp=F
 DIIS: error= 1.71D-07 at cycle   7 NSaved=   7.
 NSaved= 7 IEnMin= 7 EnMin= -613.626763912059     IErMin= 7 ErrMin= 1.71D-07
 ErrMax= 1.71D-07  0.00D+00 EMaxC= 1.00D-01 BMatC= 4.03D-11 BMatP= 2.53D-10
 IDIUse=1 WtCom= 1.00D+00 WtEn= 0.00D+00
 Coeff-Com: -0.181D-03 0.141D-03-0.511D-02-0.307D-02 0.244D-01 0.293D+00
 Coeff-Com:  0.691D+00
 Coeff:     -0.181D-03 0.141D-03-0.511D-02-0.307D-02 0.244D-01 0.293D+00
 Coeff:      0.691D+00
 Gap=     0.273 Goal=   None    Shift=    0.000
 RMSDP=8.51D-09 MaxDP=7.89D-07 DE=-1.69D-10 OVMax= 1.48D-06

 SCF Done:  E(RM06) =  -613.626763912     A.U. after   14 cycles
            NFock= 14  Conv=0.85D-08     -V/T= 2.0046
 KE= 6.108039339429D+02 PE=-3.185262330329D+03 EE= 1.083933447251D+03
 Leave Link  502 at Wed Jun 18 15:34:11 2014, MaxMem=  4294967296 cpu:     24321.7
 (Enter /home/ztw1e12/g09/l801.exe)
 DoSCS=F DFT=T ScalE2(SS,OS)=  1.000000  1.000000
 Range of M.O.s used for correlation:     1   932
 NBasis=  1036 NAE=    51 NBE=    51 NFC=     0 NFV=     0
 NROrb=    932 NOA=    51 NOB=    51 NVA=   881 NVB=   881

 **** Warning!!: The largest alpha MO coefficient is  0.10549865D+02

 Leave Link  801 at Wed Jun 18 15:34:11 2014, MaxMem=  4294967296 cpu:         0.4
 (Enter /home/ztw1e12/g09/l1002.exe)
 Minotr:  Closed shell wavefunction.
          IDoAtm=1111111111111111111111111111111
          Direct CPHF calculation.
          Differentiating once with respect to Fermi-contact.
          Electric field/nuclear overlap derivatives assumed to be zero.
          Requested convergence is 1.0D-10 RMS, and 1.0D-09 maximum.
          Secondary convergence is 1.0D-12 RMS, and 1.0D-12 maximum.
          NewPWx=T KeepS1=F KeepF1=F KeepIn=T MapXYZ=F SortEE=F KeepMc=T.
          MDV=    4294966050 using IRadAn=  199590.
 Using stored XC quadrature information.
          Solving linear equations simultaneously, MaxMat=       0.
          There are    31 degrees of freedom in the 1st order CPHF.  IDoFFX=0 NUNeed=    31.
     31 vectors produced by pass  0 Test12= 1.45D-17 3.23D-11 XBig12= 4.16D+01 2.57D+00.
 AX will form    31 AO Fock derivatives at one time.
 FoFJK:  IHMeth= 1 ICntrl=       0 DoSepK=F KAlg= 0 I1Cent=   0 FoldK=F
 IRaf= 500000000 NMat=  31 IRICut=       1 DoRegI=T DoRafI=F ISym2E=-1.
 FoFCou: FMM=F IPFlag=           0 FMFlag=      100000 FMFlg1=           0
         NFxFlg=           0 DoJE=F BraDBF=F KetDBF=F FulRan=T
         wScrn=  0.000000 ICntrl=       0 IOpCl=  0 I1Cent=           0 NGrid=           0
         NMat0=   31 NMatS0=      0 NMatT0=   31 NMatD0=   31 NMtDS0=    0 NMtDT0=    0
 Petite list used in FoFCou.
     31 vectors produced by pass  1 Test12= 1.45D-17 3.23D-11 XBig12= 3.47D-01 1.77D-01.
     31 vectors produced by pass  2 Test12= 1.45D-17 3.23D-11 XBig12= 1.73D-02 4.80D-02.
     31 vectors produced by pass  3 Test12= 1.45D-17 3.23D-11 XBig12= 3.96D-04 6.51D-03.
     31 vectors produced by pass  4 Test12= 1.45D-17 3.23D-11 XBig12= 6.39D-06 9.49D-04.
     31 vectors produced by pass  5 Test12= 1.45D-17 3.23D-11 XBig12= 1.47D-07 1.86D-04.
     31 vectors produced by pass  6 Test12= 1.45D-17 3.23D-11 XBig12= 3.55D-09 2.18D-05.
     31 vectors produced by pass  7 Test12= 1.45D-17 3.23D-11 XBig12= 1.20D-10 4.63D-06.
     31 vectors produced by pass  8 Test12= 1.45D-17 3.23D-11 XBig12= 2.15D-12 3.43D-07.
     31 vectors produced by pass  9 Test12= 1.45D-17 3.23D-11 XBig12= 5.74D-14 7.96D-08.
     31 vectors produced by pass 10 Test12= 1.45D-17 3.23D-11 XBig12= 2.15D-15 8.13D-09.
     30 vectors produced by pass 11 Test12= 1.45D-17 3.23D-11 XBig12= 2.44D-17 6.44D-10.
      5 vectors produced by pass 12 Test12= 1.45D-17 3.23D-11 XBig12= 2.27D-19 5.14D-11.
 InvSVY:  IOpt=1 It=  1 EMax= 1.24D-14
 Solved reduced A of dimension   376 with    31 vectors.
 Max diff in FC couplings:  IJMax=    11     1 Diff= 3.50D-04 IJMaxR=    17     6 DiffR= 1.05D+00
 Fermi Contact (FC) contribution to K (Hz):
                1             2             3             4             5 
      1  0.123400D+11
      2  0.273764D+02  0.123400D+11
      3 -0.925355D+00  0.190557D+02  0.123400D+11
      4  0.101999D+00  0.104099D+00 -0.352903D-01  0.123400D+11
      5 -0.915994D-04 -0.223098D-01  0.286669D-02  0.175243D+02  0.123400D+11
      6 -0.114903D-01  0.160669D-01  0.858634D-03  0.175690D+02 -0.796069D+00
      7  0.373597D-02 -0.800098D-02  0.156880D-02  0.168684D+02 -0.750073D+00
      8 -0.975110D+01  0.259943D+01  0.423565D+00  0.812621D+00  0.150694D-01
      9  0.173070D+00  0.194541D+02 -0.554368D+00 -0.207607D-01  0.127317D-02
     10  0.988212D-01  0.231846D+00  0.137228D+00 -0.276928D-02  0.715865D-03
     11  0.289279D+02  0.139004D+02  0.194752D+00  0.135199D+00  0.229672D-01
     12  0.442571D+00  0.136471D+00 -0.228823D-01 -0.100800D-01 -0.539066D-03
     13 -0.377088D+00  0.113305D+01  0.239032D-01  0.115558D+00 -0.201981D-02
     14  0.199405D+00 -0.949377D-01  0.120200D-01  0.231961D-01  0.765170D-03
     15  0.187501D+00 -0.738643D-01  0.512999D-02  0.354511D-02  0.599494D-03
     16  0.968502D+00 -0.277273D-01 -0.789660D-03  0.457521D-02 -0.281992D-04
     17  0.164078D+00 -0.344507D+00  0.218051D+00 -0.149179D-01  0.473298D-03
     18 -0.159440D+00  0.901506D+00 -0.771328D-01  0.199364D-03  0.595440D-04
     19 -0.230721D-02  0.103680D+00 -0.178399D-02  0.512472D-05 -0.436427D-05
     20  0.567302D-01  0.133548D-01  0.202236D-01  0.590151D-03 -0.706234D-05
     21  0.650457D-01  0.448958D-01  0.245647D-01 -0.377932D-03 -0.310834D-04
     22  0.491195D+00  0.745854D+00  0.228497D+00  0.284081D-01 -0.233882D-03
     23  0.626416D+00 -0.520287D+00  0.948472D+00  0.174262D+02 -0.571658D+00
     24  0.130235D-01  0.669432D+00 -0.134320D-01 -0.732044D+00  0.131567D+00
     25 -0.336574D-01  0.136096D+01 -0.472272D-02  0.123348D-01  0.264013D+00
     26  0.524435D-02 -0.158333D-01 -0.417187D-03  0.383626D+00 -0.527843D-02
     27  0.259590D-02 -0.125026D-01  0.883650D-03  0.128611D+01  0.448444D-02
     28 -0.852969D-02  0.101382D+00  0.283945D-02  0.313651D+00 -0.710155D-02
     29 -0.523257D+00  0.161765D+02 -0.761280D+00  0.712775D-02  0.134030D+01
     30  0.106927D+01 -0.979299D+00  0.133249D+00  0.660852D+00  0.436154D-01
     31  0.120823D+00 -0.363731D+00  0.155286D+00  0.958132D+00  0.204785D-01
                6             7             8             9            10 
      6  0.123400D+11
      7 -0.749268D+00  0.123400D+11
      8  0.116300D+00  0.329224D-01  0.123400D+11
      9  0.761817D-02  0.750360D-01  0.354192D+00  0.123400D+11
     10 -0.823633D-04 -0.813406D-03  0.320967D-02  0.315215D+02  0.123400D+11
     11  0.486076D-01 -0.381909D-02  0.647777D+01  0.115366D+01  0.199086D+00
     12  0.100218D-02  0.349297D-03  0.476797D+00  0.525751D-01  0.306670D-03
     13  0.250809D-01 -0.539935D-02  0.614648D+00  0.317458D+00  0.196462D-01
     14  0.135961D-02 -0.284284D-03  0.240822D+00 -0.417596D-02 -0.158966D-02
     15  0.915929D-03 -0.124895D-04  0.244746D+00 -0.766859D-03 -0.116848D-02
     16  0.440890D-03 -0.140237D-03  0.176893D+00  0.217243D-01 -0.952835D-03
     17 -0.360699D-04  0.824019D-02  0.360440D-01  0.266729D+02  0.406710D+00
     18  0.843093D-04  0.458716D-03  0.772270D-01  0.127044D+02  0.927266D-01
     19 -0.145565D-04  0.241744D-04 -0.554914D-03  0.348589D+00 -0.986387D-02
     20 -0.219310D-04 -0.283724D-04  0.401868D-02  0.349786D+00 -0.877942D-02
     21  0.436556D-04  0.104368D-03  0.263485D-02  0.390736D+00 -0.144477D-01
     22 -0.343226D-03  0.280576D-03  0.607563D+00  0.589668D+01  0.441551D+00
     23 -0.636937D+00 -0.739401D+00  0.689977D+00  0.822775D+00 -0.132228D-01
     24  0.115428D+00  0.349524D+00  0.953051D-01  0.703450D-01 -0.184230D-01
     25  0.145307D+01  0.513999D+00  0.150327D+00 -0.691415D-01  0.170611D-01
     26 -0.883088D-02 -0.134667D-01  0.432193D-01  0.574291D-02  0.125854D-02
     27  0.873800D-01 -0.474957D-02  0.518400D-02  0.293688D-03  0.342369D-02
     28  0.508359D-02 -0.331945D-02 -0.619493D-03 -0.257183D-02  0.220408D-02
     29  0.263007D+00  0.409916D+00  0.275316D+00  0.760494D+00  0.518534D+00
     30 -0.309698D-02 -0.872945D-02  0.695382D-01  0.744445D+00 -0.187626D-01
     31 -0.110558D-01 -0.167697D-01 -0.129574D-01  0.180833D+01 -0.178560D-01
               11            12            13            14            15 
     11  0.123400D+11
     12  0.312268D+02  0.123400D+11
     13  0.169894D+02  0.318078D+00  0.123400D+11
     14 -0.598509D+00  0.618461D-01  0.195528D+02  0.123400D+11
     15 -0.510720D+00  0.161489D+00  0.203194D+02 -0.734239D+00  0.123400D+11
     16 -0.382423D+00  0.288152D+00  0.182800D+02 -0.731015D+00 -0.764857D+00
     17 -0.568702D-01  0.338735D-03 -0.544520D-02  0.501224D-04 -0.313797D-03
     18  0.143552D-01  0.728422D-03  0.872915D-02  0.221632D-02  0.166645D-02
     19  0.664102D-02  0.734972D-04  0.141760D-03 -0.730240D-04 -0.484129D-04
     20 -0.303829D-02 -0.179113D-03 -0.327475D-03  0.169721D-04 -0.561644D-04
     21  0.115539D-01 -0.487588D-04  0.182578D-02  0.129610D-03 -0.574401D-04
     22  0.182894D+00 -0.203203D-02  0.243866D-02  0.885293D-02  0.520903D-02
     23 -0.412880D-01  0.497132D-02 -0.958010D-02 -0.216224D-02 -0.204288D-02
     24  0.222181D-01 -0.807530D-03  0.183979D-04  0.816394D-03  0.263912D-03
     25  0.206796D-01 -0.237707D-02  0.118029D-01  0.236011D-02  0.122562D-02
     26 -0.301341D-03  0.922675D-04  0.289341D-03 -0.515102D-04 -0.277687D-04
     27  0.458032D-02 -0.104371D-03  0.136877D-02  0.840741D-03  0.423811D-03
     28  0.664228D-03 -0.129704D-03 -0.693647D-03  0.453323D-03  0.432575D-03
     29  0.145839D+00 -0.365140D-01 -0.115011D+00  0.809121D-01  0.906705D-01
     30 -0.253978D-01 -0.509004D-02 -0.177085D-02  0.327602D-02  0.411032D-02
     31  0.223929D-01 -0.394541D-02 -0.915313D-03 -0.483355D-04  0.384693D-04
               16            17            18            19            20 
     16  0.123400D+11
     17 -0.164207D-03  0.123400D+11
     18  0.185569D-03  0.271991D+02  0.123400D+11
     19  0.259654D-05 -0.760858D+00  0.170353D+02  0.123400D+11
     20  0.127300D-03 -0.117906D+01  0.178406D+02 -0.724595D+00  0.123400D+11
     21  0.343806D-03 -0.120389D+01  0.180733D+02 -0.740763D+00 -0.923726D+00
     22  0.217709D-02 -0.955124D+01  0.372950D+01  0.827616D+00  0.425861D+00
     23  0.331262D-03 -0.531737D-01  0.205738D-01 -0.121953D-02 -0.141379D-02
     24  0.910540D-04  0.119647D-02 -0.186152D-02  0.269650D-03  0.810602D-03
     25  0.732783D-03  0.204133D-01 -0.413786D-02  0.417665D-04  0.105728D-03
     26  0.406450D-04  0.170277D-02 -0.968108D-04  0.171641D-05  0.644508D-04
     27  0.256704D-04 -0.481958D-03  0.104156D-03 -0.579878D-04 -0.125244D-04
     28 -0.378878D-05  0.198650D-02 -0.182909D-03 -0.977890D-05 -0.137083D-05
     29  0.991608D-03  0.151191D+01 -0.413093D-01 -0.165799D-02  0.673097D-02
     30  0.217520D-03 -0.263907D-02  0.159006D-01 -0.198115D-03 -0.357350D-03
     31  0.317253D-03  0.132026D+00  0.585737D-01 -0.733742D-04  0.152630D-02
               21            22            23            24            25 
     21  0.123400D+11
     22  0.447649D+00  0.123400D+11
     23 -0.108426D-02  0.988574D-01  0.123400D+11
     24 -0.759150D-04  0.151197D-01  0.173935D+02  0.123400D+11
     25 -0.133760D-03  0.176981D-01  0.170129D+02 -0.746353D+00  0.123400D+11
     26  0.894144D-04 -0.622262D-05 -0.806043D+00  0.417729D+00  0.171162D+02
     27  0.305670D-05  0.233292D-03 -0.551850D+00  0.164335D+00  0.171766D+02
     28  0.153223D-04  0.305599D-02 -0.534706D+00  0.119663D+00  0.175450D+02
     29 -0.306511D-02  0.144061D+00  0.171281D+02 -0.709429D+00  0.220771D+00
     30 -0.618132D-03  0.201485D-02 -0.558226D+00  0.123716D-01  0.980664D+00
     31 -0.189622D-02 -0.910119D-02 -0.657413D+00  0.229291D+00  0.619962D-02
               26            27            28            29            30 
     26  0.123400D+11
     27 -0.749710D+00  0.123400D+11
     28 -0.759290D+00 -0.753851D+00  0.123400D+11
     29  0.431274D+00  0.334014D+00  0.146214D+01  0.123400D+11
     30 -0.632631D-02 -0.128717D-01  0.314618D-01  0.172997D+02  0.123400D+11
     31 -0.367111D-02 -0.290848D-02 -0.177515D-01  0.174097D+02 -0.890268D+00
               31 
     31  0.123400D+11
 Fermi Contact (FC) contribution to J (Hz):
                1             2             3             4             5 
      1  0.243533D+11
      2  0.540281D+02  0.243533D+11
      3 -0.726117D+01  0.149528D+03  0.385007D+12
      4  0.201298D+00  0.205442D+00 -0.276920D+00  0.243533D+11
      5 -0.718771D-03 -0.175063D+00  0.894405D-01  0.137511D+03  0.385007D+12
      6 -0.901633D-01  0.126075D+00  0.267893D-01  0.137862D+03 -0.248373D+02
      7  0.293158D-01 -0.627829D-01  0.489465D-01  0.132365D+03 -0.234022D+02
      8  0.103769D+02 -0.276626D+01 -0.179222D+01 -0.864776D+00 -0.637627D-01
      9  0.981676D-01  0.110346D+02 -0.125026D+01 -0.117757D-01  0.287137D-02
     10  0.775440D+00  0.181928D+01  0.428150D+01 -0.217303D-01  0.223349D-01
     11  0.164082D+02  0.788449D+01  0.439221D+00  0.766868D-01  0.517975D-01
     12  0.347281D+01  0.107088D+01 -0.713928D+00 -0.790971D-01 -0.168188D-01
     13 -0.744192D+00  0.223610D+01  0.187566D+00  0.228056D+00 -0.158492D-01
     14  0.156471D+01 -0.744967D+00  0.375024D+00  0.182017D+00  0.238733D-01
     15  0.147130D+01 -0.579606D+00  0.160056D+00  0.278181D-01  0.187042D-01
     16  0.759974D+01 -0.217573D+00 -0.246374D-01  0.359012D-01 -0.879815D-03
     17  0.323811D+00 -0.679892D+00  0.171102D+01 -0.294408D-01  0.371392D-02
     18 -0.314659D+00  0.177915D+01 -0.605253D+00  0.393450D-03  0.467236D-03
     19 -0.181044D-01  0.813564D+00 -0.556603D-01  0.402132D-04 -0.136165D-03
     20  0.445157D+00  0.104794D+00  0.630975D+00  0.463086D-02 -0.220345D-03
     21  0.510407D+00  0.352293D+00  0.766418D+00 -0.296559D-02 -0.969801D-03
     22 -0.522721D+00 -0.793724D+00 -0.966835D+00 -0.302314D-01  0.989620D-03
     23  0.123625D+01 -0.102680D+01  0.744257D+01  0.343911D+02 -0.448575D+01
     24  0.102194D+00  0.525297D+01 -0.419078D+00 -0.574428D+01  0.410488D+01
     25 -0.664236D-01  0.268590D+01 -0.370587D-01  0.243430D-01  0.207168D+01
     26  0.411519D-01 -0.124242D+00 -0.130162D-01  0.301028D+01 -0.164687D+00
     27  0.203698D-01 -0.981066D-01  0.275698D-01  0.100920D+02  0.139914D+00
     28 -0.669317D-01  0.795537D+00  0.885907D-01  0.246119D+01 -0.221568D+00
     29 -0.103266D+01  0.319248D+02 -0.597369D+01  0.140668D-01  0.105172D+02
     30  0.839047D+01 -0.768447D+01  0.415737D+01  0.518564D+01  0.136080D+01
     31  0.948083D+00 -0.285416D+01  0.484490D+01  0.751837D+01  0.638927D+00
                6             7             8             9            10 
      6  0.385007D+12
      7 -0.233771D+02  0.385007D+12
      8 -0.492097D+00 -0.139303D+00  0.708114D+10
      9  0.171811D-01  0.169227D+00 -0.108332D+00  0.201170D+10
     10 -0.256973D-02 -0.253782D-01 -0.135810D-01  0.710899D+02  0.385007D+12
     11  0.109624D+00 -0.861313D-02 -0.198127D+01  0.188074D+00  0.448995D+00
     12  0.312681D-01  0.108980D-01 -0.201746D+01  0.118572D+00  0.956809D-02
     13  0.196807D+00 -0.423682D-01 -0.654097D+00  0.180066D+00  0.154162D+00
     14  0.424197D-01 -0.886964D-02 -0.101898D+01 -0.941798D-02 -0.495974D-01
     15  0.285769D-01 -0.389670D-03 -0.103559D+01 -0.172949D-02 -0.364567D-01
     16  0.137557D-01 -0.437538D-02 -0.748481D+00  0.489946D-01 -0.297284D-01
     17 -0.283037D-03  0.646599D-01 -0.383573D-01  0.151292D+02  0.319141D+01
     18  0.661567D-03  0.359950D-02 -0.821834D-01  0.720611D+01  0.727616D+00
     19 -0.454162D-03  0.754242D-03  0.234799D-02  0.786168D+00 -0.307752D+00
     20 -0.684245D-03 -0.885217D-03 -0.170041D-01  0.788868D+00 -0.273918D+00
     21  0.136205D-02  0.325626D-02 -0.111488D-01  0.881221D+00 -0.450767D+00
     22  0.145228D-02 -0.118720D-02  0.348642D+00 -0.180354D+01 -0.186832D+01
     23 -0.499798D+01 -0.580201D+01 -0.734260D+00  0.466688D+00 -0.103758D+00
     24  0.360135D+01  0.109051D+02 -0.403262D+00  0.158648D+00 -0.574796D+00
     25  0.114021D+02  0.403330D+01 -0.159975D+00 -0.392179D-01  0.133877D+00
     26 -0.275523D+00 -0.420160D+00 -0.182873D+00  0.129519D-01  0.392665D-01
     27  0.272625D+01 -0.148186D+00 -0.219349D-01  0.662349D-03  0.106819D+00
     28  0.158608D+00 -0.103567D+00  0.262125D-02 -0.580021D-02  0.687671D-01
     29  0.206379D+01  0.321657D+01 -0.292986D+00  0.431362D+00  0.406889D+01
     30 -0.966257D-01 -0.272358D+00 -0.294235D+00  0.167893D+01 -0.585391D+00
     31 -0.344940D+00 -0.523215D+00  0.548262D-01  0.407830D+01 -0.557107D+00
               11            12            13            14            15 
     11  0.201170D+10
     12  0.704254D+02  0.385007D+12
     13  0.963662D+01  0.249593D+01  0.243533D+11
     14 -0.134981D+01  0.192960D+01  0.153429D+03  0.385007D+12
     15 -0.115182D+01  0.503846D+01  0.159444D+03 -0.229082D+02  0.385007D+12
     16 -0.862473D+00  0.899033D+01  0.143441D+03 -0.228076D+02 -0.238635D+02
     17 -0.322575D-01  0.265802D-02 -0.107462D-01  0.393306D-03 -0.246233D-02
     18  0.814246D-02  0.571586D-02  0.172272D-01  0.173913D-01  0.130764D-01
     19  0.149774D-01  0.229311D-02  0.111237D-02 -0.227835D-02 -0.151048D-02
     20 -0.685222D-02 -0.558832D-02 -0.256966D-02  0.529528D-03 -0.175233D-02
     21  0.260573D-01 -0.152127D-02  0.143267D-01  0.404383D-02 -0.179213D-02
     22 -0.559393D-01  0.859808D-02 -0.259517D-02 -0.374592D-01 -0.220408D-01
     23 -0.234191D-01  0.390095D-01 -0.189066D-01 -0.169669D-01 -0.160303D-01
     24  0.501082D-01 -0.251949D-01  0.144367D-03  0.254715D-01  0.823403D-02
     25  0.117297D-01 -0.186527D-01  0.232934D-01  0.185196D-01  0.961734D-02
     26 -0.679610D-03  0.287874D-02  0.227043D-02 -0.160712D-02 -0.866381D-03
     27  0.103299D-01 -0.325637D-02  0.107406D-01  0.262311D-01  0.132229D-01
     28  0.149802D-02 -0.404675D-02 -0.544298D-02  0.141437D-01  0.134963D-01
     29  0.827215D-01 -0.286522D+00 -0.226976D+00  0.634909D+00  0.711482D+00
     30 -0.572794D-01 -0.158809D+00 -0.138957D-01  0.102212D+00  0.128242D+00
     31  0.505024D-01 -0.123097D+00 -0.718237D-02 -0.150807D-02  0.120024D-02
               16            17            18            19            20 
     16  0.385007D+12
     17 -0.128852D-02  0.243533D+11
     18  0.145614D-02  0.536781D+02  0.243533D+11
     19  0.810119D-04 -0.597038D+01  0.133675D+03  0.385007D+12
     20  0.397177D-02 -0.925195D+01  0.139994D+03 -0.226073D+02  0.385007D+12
     21  0.107267D-01 -0.944678D+01  0.141819D+03 -0.231118D+02 -0.288202D+02
     22 -0.921185D-02  0.101642D+02 -0.396886D+01 -0.350187D+01 -0.180193D+01
     23  0.259938D-02 -0.104940D+00  0.406030D-01 -0.956957D-02 -0.110939D-01
     24  0.284088D-02  0.938856D-02 -0.146072D-01  0.841307D-02  0.252907D-01
     25  0.575008D-02  0.402861D-01 -0.816617D-02  0.327737D-03  0.829634D-03
     26  0.126812D-02  0.133615D-01 -0.759665D-03  0.535518D-04  0.201086D-02
     27  0.800915D-03 -0.378188D-02  0.817304D-03 -0.180922D-02 -0.390760D-03
     28 -0.118210D-03  0.155879D-01 -0.143527D-02 -0.305101D-03 -0.427700D-04
     29  0.778105D-02  0.298378D+01 -0.815250D-01 -0.130101D-01  0.528173D-01
     30  0.678663D-02 -0.207085D-01  0.124771D+00 -0.618117D-02 -0.111493D-01
     31  0.989829D-02  0.103600D+01  0.459622D+00 -0.228927D-02  0.476205D-01
               21            22            23            24            25 
     21  0.385007D+12
     22 -0.189413D+01  0.708114D+10
     23 -0.850807D-02 -0.105202D+00  0.243533D+11
     24 -0.236854D-02 -0.639754D-01  0.136485D+03  0.385007D+12
     25 -0.104960D-02 -0.188340D-01  0.335754D+02 -0.585656D+01  0.243533D+11
     26  0.278973D-02  0.263296D-04 -0.632494D+01  0.130331D+02  0.134309D+03
     27  0.953690D-04 -0.987124D-03 -0.433031D+01  0.512725D+01  0.134783D+03
     28  0.478056D-03 -0.129307D-01 -0.419578D+01  0.373349D+01  0.137674D+03
     29 -0.240516D-01 -0.153307D+00  0.338027D+02 -0.556682D+01  0.435696D+00
     30 -0.192857D-01 -0.852536D-02 -0.438034D+01  0.385992D+00  0.769517D+01
     31 -0.591620D-01  0.385096D-01 -0.515866D+01  0.715388D+01  0.486478D-01
               26            27            28            29            30 
     26  0.385007D+12
     27 -0.233909D+02  0.385007D+12
     28 -0.236898D+02 -0.235201D+02  0.385007D+12
     29  0.338416D+01  0.262097D+01  0.114733D+02  0.243533D+11
     30 -0.197381D+00 -0.401597D+00  0.981605D+00  0.135749D+03  0.385007D+12
     31 -0.114539D+00 -0.907444D-01 -0.553845D+00  0.136613D+03 -0.277763D+02
               31 
     31  0.385007D+12
 End of Minotr F.D. properties file   721 does not exist.
 End of Minotr F.D. properties file   722 does not exist.
 End of Minotr F.D. properties file   788 does not exist.
 Leave Link 1002 at Wed Jun 18 22:08:04 2014, MaxMem=  4294967296 cpu:    377182.2
 (Enter /home/ztw1e12/g09/l601.exe)
 Copying SCF densities to generalized density rwf, IOpCl= 0 IROHF=0.

 **********************************************************************

            Population analysis using the SCF density.

 **********************************************************************

 Orbital symmetries:
       Occupied  (A) (A) (A) (A) (A) (A) (A) (A) (A) (A) (A) (A)
                 (A) (A) (A) (A) (A) (A) (A) (A) (A) (A) (A) (A)
                 (A) (A) (A) (A) (A) (A) (A) (A) (A) (A) (A) (A)
                 (A) (A) (A) (A) (A) (A) (A) (A) (A) (A) (A) (A)
                 (A) (A) (A)
       Virtual   (A) (A) (A) (A) (A) (A) (A) (A) (A) (A) (A) (A)
                 (A) (A) (A) (A) (A) (A) (A) (A) (A) (A) (A) (A)
                 (A) (A) (A) (A) (A) (A) (A) (A) (A) (A) (A) (A)
                 (A) (A) (A) (A) (A) (A) (A) (A) (A) (A) (A) (A)
                 (A) (A) (A) (A) (A) (A) (A) (A) (A) (A) (A) (A)
                 (A) (A) (A) (A) (A) (A) (A) (A) (A) (A) (A) (A)
                 (A) (A) (A) (A) (A) (A) (A) (A) (A) (A) (A) (A)
                 (A) (A) (A) (A) (A) (A) (A) (A) (A) (A) (A) (A)
                 (A) (A) (A) (A) (A) (A) (A) (A) (A) (A) (A) (A)
                 (A) (A) (A) (A) (A) (A) (A) (A) (A) (A) (A) (A)
                 (A) (A) (A) (A) (A) (A) (A) (A) (A) (A) (A) (A)
                 (A) (A) (A) (A) (A) (A) (A) (A) (A) (A) (A) (A)
                 (A) (A) (A) (A) (A) (A) (A) (A) (A) (A) (A) (A)
                 (A) (A) (A) (A) (A) (A) (A) (A) (A) (A) (A) (A)
                 (A) (A) (A) (A) (A) (A) (A) (A) (A) (A) (A) (A)
                 (A) (A) (A) (A) (A) (A) (A) (A) (A) (A) (A) (A)
                 (A) (A) (A) (A) (A) (A) (A) (A) (A) (A) (A) (A)
                 (A) (A) (A) (A) (A) (A) (A) (A) (A) (A) (A) (A)
                 (A) (A) (A) (A) (A) (A) (A) (A) (A) (A) (A) (A)
                 (A) (A) (A) (A) (A) (A) (A) (A) (A) (A) (A) (A)
                 (A) (A) (A) (A) (A) (A) (A) (A) (A) (A) (A) (A)
                 (A) (A) (A) (A) (A) (A) (A) (A) (A) (A) (A) (A)
                 (A) (A) (A) (A) (A) (A) (A) (A) (A) (A) (A) (A)
                 (A) (A) (A) (A) (A) (A) (A) (A) (A) (A) (A) (A)
                 (A) (A) (A) (A) (A) (A) (A) (A) (A) (A) (A) (A)
                 (A) (A) (A) (A) (A) (A) (A) (A) (A) (A) (A) (A)
                 (A) (A) (A) (A) (A) (A) (A) (A) (A) (A) (A) (A)
                 (A) (A) (A) (A) (A) (A) (A) (A) (A) (A) (A) (A)
                 (A) (A) (A) (A) (A) (A) (A) (A) (A) (A) (A) (A)
                 (A) (A) (A) (A) (A) (A) (A) (A) (A) (A) (A) (A)
                 (A) (A) (A) (A) (A) (A) (A) (A) (A) (A) (A) (A)
                 (A) (A) (A) (A) (A) (A) (A) (A) (A) (A) (A) (A)
                 (A) (A) (A) (A) (A) (A) (A) (A) (A) (A) (A) (A)
                 (A) (A) (A) (A) (A) (A) (A) (A) (A) (A) (A) (A)
                 (A) (A) (A) (A) (A) (A) (A) (A) (A) (A) (A) (A)
                 (A) (A) (A) (A) (A) (A) (A) (A) (A) (A) (A) (A)
                 (A) (A) (A) (A) (A) (A) (A) (A) (A) (A) (A) (A)
                 (A) (A) (A) (A) (A) (A) (A) (A) (A) (A) (A) (A)
                 (A) (A) (A) (A) (A) (A) (A) (A) (A) (A) (A) (A)
                 (A) (A) (A) (A) (A) (A) (A) (A) (A) (A) (A) (A)
                 (A) (A) (A) (A) (A) (A) (A) (A) (A) (A) (A) (A)
                 (A) (A) (A) (A) (A) (A) (A) (A) (A) (A) (A) (A)
                 (A) (A) (A) (A) (A) (A) (A) (A) (A) (A) (A) (A)
                 (A) (A) (A) (A) (A) (A) (A) (A) (A) (A) (A) (A)
                 (A) (A) (A) (A) (A) (A) (A) (A) (A) (A) (A) (A)
                 (A) (A) (A) (A) (A) (A) (A) (A) (A) (A) (A) (A)
                 (A) (A) (A) (A) (A) (A) (A) (A) (A) (A) (A) (A)
                 (A) (A) (A) (A) (A) (A) (A) (A) (A) (A) (A) (A)
                 (A) (A) (A) (A) (A) (A) (A) (A) (A) (A) (A) (A)
                 (A) (A) (A) (A) (A) (A) (A) (A) (A) (A) (A) (A)
                 (A) (A) (A) (A) (A) (A) (A) (A) (A) (A) (A) (A)
                 (A) (A) (A) (A) (A) (A) (A) (A) (A) (A) (A) (A)
                 (A) (A) (A) (A) (A) (A) (A) (A) (A) (A) (A) (A)
                 (A) (A) (A) (A) (A) (A) (A) (A) (A) (A) (A) (A)
                 (A) (A) (A) (A) (A) (A) (A) (A) (A) (A) (A) (A)
                 (A) (A) (A) (A) (A) (A) (A) (A) (A) (A) (A) (A)
                 (A) (A) (A) (A) (A) (A) (A) (A) (A) (A) (A) (A)
                 (A) (A) (A) (A) (A) (A) (A) (A) (A) (A) (A) (A)
                 (A) (A) (A) (A) (A) (A) (A) (A) (A) (A) (A) (A)
                 (A) (A) (A) (A) (A) (A) (A) (A) (A) (A) (A) (A)
                 (A) (A) (A) (A) (A) (A) (A) (A) (A) (A) (A) (A)
                 (A) (A) (A) (A) (A) (A) (A) (A) (A) (A) (A) (A)
                 (A) (A) (A) (A) (A) (A) (A) (A) (A) (A) (A) (A)
                 (A) (A) (A) (A) (A) (A) (A) (A) (A) (A) (A) (A)
                 (A) (A) (A) (A) (A) (A) (A) (A) (A) (A) (A) (A)
                 (A) (A) (A) (A) (A) (A) (A) (A) (A) (A) (A) (A)
                 (A) (A) (A) (A) (A) (A) (A) (A) (A) (A) (A) (A)
                 (A) (A) (A) (A) (A) (A) (A) (A) (A) (A) (A) (A)
                 (A) (A) (A) (A) (A) (A) (A) (A) (A) (A) (A) (A)
                 (A) (A) (A) (A) (A) (A) (A) (A) (A) (A) (A) (A)
                 (A) (A) (A) (A) (A) (A) (A) (A) (A) (A) (A) (A)
                 (A) (A) (A) (A) (A) (A) (A) (A) (A) (A) (A) (A)
                 (A) (A) (A) (A) (A) (A) (A) (A) (A) (A) (A) (A)
                 (A) (A) (A) (A) (A)
 The electronic state is 1-A.
 Alpha  occ. eigenvalues --  -19.17079 -19.16446 -14.41803 -14.41526 -10.33365
 Alpha  occ. eigenvalues --  -10.33357 -10.29238 -10.27122 -10.25555 -10.25054
 Alpha  occ. eigenvalues --  -10.23804 -10.23488 -10.22952  -1.05354  -1.04049
 Alpha  occ. eigenvalues --   -0.94379  -0.94178  -0.83840  -0.78566  -0.74281
 Alpha  occ. eigenvalues --   -0.72034  -0.70131  -0.65969  -0.60699  -0.59751
 Alpha  occ. eigenvalues --   -0.58614  -0.54448  -0.50834  -0.49810  -0.47803
 Alpha  occ. eigenvalues --   -0.47146  -0.46804  -0.45426  -0.44799  -0.44278
 Alpha  occ. eigenvalues --   -0.42435  -0.41757  -0.40711  -0.40407  -0.40209
 Alpha  occ. eigenvalues --   -0.39906  -0.38366  -0.37779  -0.36564  -0.35059
 Alpha  occ. eigenvalues --   -0.34471  -0.33858  -0.28227  -0.27523  -0.26126
 Alpha  occ. eigenvalues --   -0.26001
 Alpha virt. eigenvalues --    0.01296   0.01969   0.02716   0.03744   0.04686
 Alpha virt. eigenvalues --    0.05179   0.06472   0.07145   0.08073   0.08466
 Alpha virt. eigenvalues --    0.09959   0.10171   0.10797   0.10962   0.12076
 Alpha virt. eigenvalues --    0.12429   0.12758   0.13236   0.14240   0.15029
 Alpha virt. eigenvalues --    0.15946   0.17738   0.18404   0.18867   0.19745
 Alpha virt. eigenvalues --    0.20519   0.22414   0.23259   0.23863   0.24889
 Alpha virt. eigenvalues --    0.25459   0.26388   0.27239   0.27527   0.28044
 Alpha virt. eigenvalues --    0.28896   0.30001   0.30560   0.30841   0.32164
 Alpha virt. eigenvalues --    0.32541   0.33555   0.33649   0.34989   0.35820
 Alpha virt. eigenvalues --    0.37269   0.37703   0.37999   0.38774   0.39092
 Alpha virt. eigenvalues --    0.39258   0.39959   0.40208   0.40571   0.40680
 Alpha virt. eigenvalues --    0.41735   0.42182   0.42649   0.42753   0.43220
 Alpha virt. eigenvalues --    0.43537   0.44455   0.44564   0.44930   0.45628
 Alpha virt. eigenvalues --    0.46482   0.46683   0.47141   0.48047   0.49260
 Alpha virt. eigenvalues --    0.49606   0.49946   0.51523   0.52431   0.52826
 Alpha virt. eigenvalues --    0.53220   0.53491   0.54269   0.55347   0.56116
 Alpha virt. eigenvalues --    0.56632   0.58986   0.59300   0.60767   0.61421
 Alpha virt. eigenvalues --    0.62982   0.63275   0.65458   0.66380   0.67562
 Alpha virt. eigenvalues --    0.69751   0.70212   0.71277   0.72251   0.72979
 Alpha virt. eigenvalues --    0.74375   0.75146   0.77258   0.78377   0.78800
 Alpha virt. eigenvalues --    0.80405   0.80905   0.82024   0.82904   0.83483
 Alpha virt. eigenvalues --    0.84403   0.85113   0.86262   0.87269   0.88530
 Alpha virt. eigenvalues --    0.88704   0.89302   0.89461   0.90991   0.91470
 Alpha virt. eigenvalues --    0.92298   0.93332   0.94283   0.94806   0.95367
 Alpha virt. eigenvalues --    0.95710   0.96031   0.96717   0.97300   0.97428
 Alpha virt. eigenvalues --    0.98151   0.99226   0.99858   1.00738   1.01318
 Alpha virt. eigenvalues --    1.02513   1.03038   1.03999   1.04131   1.04503
 Alpha virt. eigenvalues --    1.07560   1.08515   1.09430   1.10258   1.10832
 Alpha virt. eigenvalues --    1.11803   1.13072   1.13297   1.14855   1.15965
 Alpha virt. eigenvalues --    1.15999   1.17303   1.17554   1.17853   1.18287
 Alpha virt. eigenvalues --    1.19412   1.19970   1.20508   1.20724   1.21727
 Alpha virt. eigenvalues --    1.21956   1.22660   1.22826   1.23468   1.23851
 Alpha virt. eigenvalues --    1.24046   1.24637   1.24918   1.26198   1.26463
 Alpha virt. eigenvalues --    1.27497   1.28174   1.28465   1.28578   1.29391
 Alpha virt. eigenvalues --    1.30389   1.30689   1.31270   1.32274   1.33006
 Alpha virt. eigenvalues --    1.33794   1.34364   1.35223   1.36661   1.36996
 Alpha virt. eigenvalues --    1.37584   1.38215   1.40656   1.40900   1.42286
 Alpha virt. eigenvalues --    1.42959   1.43636   1.45522   1.45928   1.48198
 Alpha virt. eigenvalues --    1.50155   1.50225   1.50771   1.54958   1.56039
 Alpha virt. eigenvalues --    1.56767   1.57066   1.59135   1.62205   1.63355
 Alpha virt. eigenvalues --    1.64341   1.67097   1.69229   1.71022   1.73351
 Alpha virt. eigenvalues --    1.74644   1.75810   1.78267   1.79069   1.82347
 Alpha virt. eigenvalues --    1.84725   1.87684   1.88775   1.90930   1.91918
 Alpha virt. eigenvalues --    1.93055   1.94775   1.98670   1.99229   1.99902
 Alpha virt. eigenvalues --    2.01396   2.02165   2.04946   2.05698   2.06927
 Alpha virt. eigenvalues --    2.07147   2.08641   2.12465   2.14719   2.16354
 Alpha virt. eigenvalues --    2.17767   2.19779   2.20030   2.20431   2.21958
 Alpha virt. eigenvalues --    2.24860   2.25225   2.27219   2.27852   2.29623
 Alpha virt. eigenvalues --    2.32124   2.34715   2.36283   2.37109   2.39533
 Alpha virt. eigenvalues --    2.40300   2.41918   2.42285   2.43317   2.44275
 Alpha virt. eigenvalues --    2.45133   2.45634   2.47352   2.47872   2.49444
 Alpha virt. eigenvalues --    2.50829   2.51917   2.52457   2.54084   2.54405
 Alpha virt. eigenvalues --    2.55335   2.57418   2.58436   2.60341   2.61508
 Alpha virt. eigenvalues --    2.64239   2.65337   2.67150   2.68116   2.68966
 Alpha virt. eigenvalues --    2.70631   2.70996   2.71501   2.72422   2.73178
 Alpha virt. eigenvalues --    2.74265   2.75108   2.75503   2.76453   2.78158
 Alpha virt. eigenvalues --    2.79753   2.80387   2.81587   2.82501   2.83545
 Alpha virt. eigenvalues --    2.83917   2.84256   2.84955   2.87150   2.87541
 Alpha virt. eigenvalues --    2.88308   2.88682   2.89490   2.89622   2.90972
 Alpha virt. eigenvalues --    2.91901   2.92404   2.93534   2.94534   2.94817
 Alpha virt. eigenvalues --    2.95757   2.96525   2.97517   2.98068   2.98410
 Alpha virt. eigenvalues --    2.99212   2.99597   3.00726   3.02291   3.02569
 Alpha virt. eigenvalues --    3.02937   3.03802   3.04654   3.06106   3.07694
 Alpha virt. eigenvalues --    3.07868   3.08660   3.09411   3.09594   3.10852
 Alpha virt. eigenvalues --    3.11542   3.12491   3.13570   3.14256   3.14837
 Alpha virt. eigenvalues --    3.16203   3.17659   3.18436   3.19104   3.20034
 Alpha virt. eigenvalues --    3.20826   3.21874   3.22818   3.23905   3.24850
 Alpha virt. eigenvalues --    3.25019   3.25871   3.27006   3.27566   3.28539
 Alpha virt. eigenvalues --    3.29039   3.29446   3.30020   3.30520   3.31613
 Alpha virt. eigenvalues --    3.32531   3.33464   3.34453   3.34567   3.36479
 Alpha virt. eigenvalues --    3.36802   3.37876   3.38780   3.39809   3.40037
 Alpha virt. eigenvalues --    3.40502   3.41376   3.42133   3.42766   3.42953
 Alpha virt. eigenvalues --    3.43350   3.44154   3.45741   3.47010   3.47896
 Alpha virt. eigenvalues --    3.49076   3.49725   3.50741   3.52631   3.53852
 Alpha virt. eigenvalues --    3.55180   3.56813   3.57968   3.58192   3.59305
 Alpha virt. eigenvalues --    3.59614   3.63251   3.63718   3.64277   3.65560
 Alpha virt. eigenvalues --    3.67170   3.67485   3.68843   3.69976   3.71734
 Alpha virt. eigenvalues --    3.72516   3.73100   3.73899   3.74152   3.74878
 Alpha virt. eigenvalues --    3.76316   3.77706   3.78012   3.78257   3.79520
 Alpha virt. eigenvalues --    3.80961   3.82085   3.83155   3.83336   3.83860
 Alpha virt. eigenvalues --    3.84987   3.86421   3.86687   3.88820   3.89046
 Alpha virt. eigenvalues --    3.89749   3.91664   3.93484   3.94212   3.95274
 Alpha virt. eigenvalues --    3.95693   3.96424   3.98343   3.99647   3.99981
 Alpha virt. eigenvalues --    4.01583   4.02310   4.04069   4.04600   4.06182
 Alpha virt. eigenvalues --    4.06471   4.07313   4.07894   4.09241   4.10220
 Alpha virt. eigenvalues --    4.10460   4.12330   4.13175   4.13280   4.13706
 Alpha virt. eigenvalues --    4.14814   4.16006   4.17297   4.17825   4.18940
 Alpha virt. eigenvalues --    4.19756   4.21134   4.22162   4.23282   4.24326
 Alpha virt. eigenvalues --    4.25366   4.26418   4.27814   4.28461   4.29318
 Alpha virt. eigenvalues --    4.30135   4.30392   4.32040   4.32869   4.33986
 Alpha virt. eigenvalues --    4.35233   4.37308   4.38703   4.40798   4.42446
 Alpha virt. eigenvalues --    4.45214   4.45704   4.46316   4.49011   4.50726
 Alpha virt. eigenvalues --    4.51451   4.52414   4.53311   4.54649   4.55120
 Alpha virt. eigenvalues --    4.56604   4.59558   4.60102   4.60463   4.61475
 Alpha virt. eigenvalues --    4.62289   4.63930   4.64709   4.65076   4.65876
 Alpha virt. eigenvalues --    4.66615   4.68374   4.69732   4.71043   4.71784
 Alpha virt. eigenvalues --    4.72875   4.73677   4.75424   4.76973   4.77682
 Alpha virt. eigenvalues --    4.78479   4.78782   4.79691   4.82551   4.82709
 Alpha virt. eigenvalues --    4.84577   4.85352   4.89108   4.90188   4.91471
 Alpha virt. eigenvalues --    4.92700   4.93170   4.94590   4.95558   4.96470
 Alpha virt. eigenvalues --    4.97184   4.99082   4.99989   5.01521   5.02255
 Alpha virt. eigenvalues --    5.03172   5.03678   5.04735   5.07253   5.10739
 Alpha virt. eigenvalues --    5.11684   5.12154   5.13537   5.13955   5.15238
 Alpha virt. eigenvalues --    5.15749   5.17474   5.18171   5.18835   5.20910
 Alpha virt. eigenvalues --    5.21771   5.23072   5.23550   5.24383   5.25148
 Alpha virt. eigenvalues --    5.26035   5.27368   5.28357   5.29010   5.29909
 Alpha virt. eigenvalues --    5.30577   5.33328   5.35703   5.38204   5.40149
 Alpha virt. eigenvalues --    5.40436   5.43143   5.45247   5.47295   5.50092
 Alpha virt. eigenvalues --    5.53015   5.54308   5.55048   5.57984   5.58598
 Alpha virt. eigenvalues --    5.60838   5.62351   5.63101   5.64780   5.65624
 Alpha virt. eigenvalues --    5.66113   5.69034   5.69355   5.70774   5.72056
 Alpha virt. eigenvalues --    5.74319   5.75372   5.76272   5.76994   5.78830
 Alpha virt. eigenvalues --    5.80456   5.81084   5.82842   5.86461   5.86960
 Alpha virt. eigenvalues --    5.91015   5.95362   5.97119   6.00594   6.06054
 Alpha virt. eigenvalues --    6.11523   6.18536   6.21632   6.22590   6.26524
 Alpha virt. eigenvalues --    6.53114   6.54700   6.58028   6.63639   6.65009
 Alpha virt. eigenvalues --    6.67327   6.78297   6.81079   6.90301   6.92054
 Alpha virt. eigenvalues --    6.92411   6.94390   7.18050   7.20420   7.24115
 Alpha virt. eigenvalues --    7.26909   8.13046   8.33123   8.67856   8.73590
 Alpha virt. eigenvalues --    8.78329   8.79467   8.82212   8.82917   8.83164
 Alpha virt. eigenvalues --    8.84855   8.87229   8.88397   8.91235   8.93217
 Alpha virt. eigenvalues --    8.94497   8.95223   8.97196   8.98250   9.01193
 Alpha virt. eigenvalues --    9.05022   9.06273   9.10838   9.15604   9.18712
 Alpha virt. eigenvalues --    9.23415   9.59705   9.62360   9.77404   9.83319
 Alpha virt. eigenvalues --    9.89262   9.95797  10.11654  10.12208  10.14905
 Alpha virt. eigenvalues --   10.18318  10.20644  10.20929  10.21642  10.24194
 Alpha virt. eigenvalues --   10.24648  10.28136  10.29383  10.33019  10.35272
 Alpha virt. eigenvalues --   10.39352  11.76547  11.80763  12.03670  12.14927
 Alpha virt. eigenvalues --   12.16132  12.20638  12.23744  12.25330  12.32707
 Alpha virt. eigenvalues --   12.42601  12.43911  12.55735  12.57855  12.83329
 Alpha virt. eigenvalues --   12.93033  14.97141  15.03963  15.24227  15.27145
 Alpha virt. eigenvalues --   15.99520  16.05216  16.83716  16.89304  22.01201
 Alpha virt. eigenvalues --   22.13202  40.17071  40.29788  40.66848  40.68493
 Alpha virt. eigenvalues --   40.69063  40.72621  40.73611  40.75230  40.77664
 Alpha virt. eigenvalues --   40.78094  40.80409  40.80666  40.81786  40.82842
 Alpha virt. eigenvalues --   40.83384  40.84021  40.84164  40.85414  40.86440
 Alpha virt. eigenvalues --   40.87024  40.87650  40.89726  40.90398  40.90474
 Alpha virt. eigenvalues --   40.91183  40.93999  40.96635  46.33850  46.45778
 Alpha virt. eigenvalues --   46.48582  46.52919  46.55286  46.57059  46.64791
 Alpha virt. eigenvalues --   46.75941  46.77484  54.45264  54.49319  55.77997
 Alpha virt. eigenvalues --   55.83757  55.97241  55.97729  56.05585  56.17571
 Alpha virt. eigenvalues --   56.20441  56.24249  56.27412  56.32429  56.37341
 Alpha virt. eigenvalues --   56.43379  56.45124  56.51637  56.54251  56.58706
 Alpha virt. eigenvalues --   57.47205  57.49590  57.99373  58.01434  58.19355
 Alpha virt. eigenvalues --   58.25438  64.71055  64.76142  73.94253  73.98298
 Alpha virt. eigenvalues --   74.09964  74.11211  74.63715  74.66882  86.06992
 Alpha virt. eigenvalues --   86.17709 165.43170 165.53871 165.57467 165.61041
 Alpha virt. eigenvalues --  165.63593 165.64665 165.70978 165.81064 165.82934
 Alpha virt. eigenvalues --  226.56063 226.68720 230.58189 230.63026 235.45865
 Alpha virt. eigenvalues --  235.78947 236.28380 236.32979 236.48145 236.86722
 Alpha virt. eigenvalues --  237.16068 237.46020 237.47017 237.52923 237.93459
 Alpha virt. eigenvalues --  237.97863 238.01469 238.06962 238.13518 238.30063
 Alpha virt. eigenvalues --  308.80591 308.90157 624.54555 624.61270 624.63663
 Alpha virt. eigenvalues --  624.67665 624.69426 624.71997 624.76759 624.83929
 Alpha virt. eigenvalues --  624.85826 794.55196 794.68616 825.66672 827.04191
 Alpha virt. eigenvalues --  827.18428 827.80332 828.23544 829.53585 830.43192
 Alpha virt. eigenvalues --  830.87961 831.24875 831.29448 832.47661 832.66219
 Alpha virt. eigenvalues --  832.73895 832.80120 832.86251 833.45528 868.34282
 Alpha virt. eigenvalues --  868.391771165.933651166.020862485.367992486.34767
 Alpha virt. eigenvalues -- 2587.346312589.320212595.303472596.035062597.40832
 Alpha virt. eigenvalues -- 2597.548832602.073502604.950482605.196232605.25159
 Alpha virt. eigenvalues -- 2607.172592608.338282608.509682609.406602610.61534
 Alpha virt. eigenvalues -- 2612.174202740.320362740.344052740.377272740.41222
 Alpha virt. eigenvalues -- 2740.437482740.517742740.535292740.554352740.56805
 Alpha virt. eigenvalues -- 3787.320993787.372075073.315555073.392968295.45954
 Alpha virt. eigenvalues -- 8296.244738625.405078633.436288636.637508638.87019
 Alpha virt. eigenvalues -- 8646.799538654.054168661.969288663.995078669.54124
 Alpha virt. eigenvalues -- 8669.610248676.215808679.771718680.128818682.12072
 Alpha virt. eigenvalues -- 8682.602678687.21258******************************
 Alpha virt. eigenvalues -- **************************************************
 Alpha virt. eigenvalues -- **************************************************
 Alpha virt. eigenvalues -- **************************************************
 Alpha virt. eigenvalues -- **************************************************
 Alpha virt. eigenvalues -- **************************************************
 Alpha virt. eigenvalues -- **************************************************
 Alpha virt. eigenvalues -- **************************************************
 Alpha virt. eigenvalues -- **********
          Condensed to atoms (all electrons):
               1          2          3          4          5          6
     1  C    4.669852   0.174278  -0.058849   0.004302  -0.000364   0.011888
     2  C    0.174278   5.232655   0.406591  -0.009907  -0.000207  -0.003991
     3  H   -0.058849   0.406591   0.499451  -0.000362   0.000033  -0.000081
     4  C    0.004302  -0.009907  -0.000362   5.007659   0.401092   0.407146
     5  H   -0.000364  -0.000207   0.000033   0.401092   0.538376  -0.006525
     6  H    0.011888  -0.003991  -0.000081   0.407146  -0.006525   0.482273
     7  H   -0.000449   0.001435  -0.000064   0.400553  -0.022985  -0.024050
     8  O    0.705784  -0.089889   0.004842  -0.004604  -0.000128   0.000193
     9  N   -0.058832   0.332674  -0.032119   0.000414   0.000011   0.000318
    10  H    0.002458  -0.039580   0.002374   0.000441   0.000023  -0.000021
    11  N    0.323842  -0.109623   0.005072  -0.001064   0.000254  -0.002252
    12  H   -0.020699   0.010079   0.000474   0.000267  -0.000001   0.000423
    13  C   -0.046280   0.010733  -0.001113  -0.000752  -0.000011  -0.000643
    14  H    0.004459   0.001260   0.000102  -0.000117  -0.000155   0.001195
    15  H   -0.011242  -0.000989  -0.000286   0.000073   0.000005   0.000165
    16  H    0.006623   0.000567  -0.000175   0.000020  -0.000001  -0.000066
    17  C   -0.007720  -0.062152   0.003481  -0.000042   0.000004   0.000026
    18  C   -0.005921   0.016347   0.001662  -0.000005   0.000000   0.000002
    19  H    0.000526  -0.000164  -0.000234   0.000000   0.000000  -0.000001
    20  H   -0.000140  -0.000543   0.000195   0.000000   0.000000   0.000000
    21  H    0.000823  -0.000750  -0.000165   0.000000   0.000000   0.000000
    22  O   -0.001724   0.020364   0.012988   0.000001   0.000000   0.000006
    23  C   -0.012438  -0.005323   0.011395   0.323931  -0.032586  -0.035715
    24  H   -0.014744   0.009670   0.001755  -0.027691  -0.004875  -0.005051
    25  C    0.000372   0.001138  -0.000153  -0.063570  -0.004558   0.007760
    26  H   -0.000160   0.001238  -0.000012  -0.007982  -0.000608  -0.000095
    27  H    0.000145  -0.001256  -0.000028   0.009597  -0.000127  -0.000442
    28  H    0.000004  -0.000437   0.000028  -0.004467   0.004382   0.000065
    29  C   -0.006730   0.282663  -0.034177  -0.033859   0.006977   0.000601
    30  H    0.009866  -0.036905  -0.011580   0.007661  -0.000493  -0.000009
    31  H   -0.004360  -0.024514  -0.005072  -0.006649   0.000542  -0.000813
               7          8          9         10         11         12
     1  C   -0.000449   0.705784  -0.058832   0.002458   0.323842  -0.020699
     2  C    0.001435  -0.089889   0.332674  -0.039580  -0.109623   0.010079
     3  H   -0.000064   0.004842  -0.032119   0.002374   0.005072   0.000474
     4  C    0.400553  -0.004604   0.000414   0.000441  -0.001064   0.000267
     5  H   -0.022985  -0.000128   0.000011   0.000023   0.000254  -0.000001
     6  H   -0.024050   0.000193   0.000318  -0.000021  -0.002252   0.000423
     7  H    0.565072   0.000303  -0.000110  -0.000004  -0.000692  -0.000035
     8  O    0.000303   7.885477   0.003047  -0.001756  -0.110903   0.006578
     9  N   -0.000110   0.003047   6.608106   0.362577   0.006105   0.000715
    10  H   -0.000004  -0.001756   0.362577   0.506043  -0.000437   0.000001
    11  N   -0.000692  -0.110903   0.006105  -0.000437   6.502397   0.365687
    12  H   -0.000035   0.006578   0.000715   0.000001   0.365687   0.542371
[...]
 Alpha virt. eigenvalues --    4.37388   4.38935   4.39588   4.42640   4.43210
 Alpha virt. eigenvalues --    4.44639   4.47655   4.49179   4.51929   4.54057
 Alpha virt. eigenvalues --    4.55095   4.56088   4.56862   4.59196   4.60098
 Alpha virt. eigenvalues --    4.61991   4.62933   4.64789   4.65696   4.68496
 Alpha virt. eigenvalues --    4.69543   4.70170   4.70829   4.71646   4.73082
 Alpha virt. eigenvalues --    4.74493   4.75333   4.76665   4.77739   4.78514
 Alpha virt. eigenvalues --    4.79860   4.80939   4.81284   4.81730   4.84302
 Alpha virt. eigenvalues --    4.84679   4.86256   4.87376   4.88794   4.90235
 Alpha virt. eigenvalues --    4.91821   4.93095   4.93741   4.94940   4.96240
 Alpha virt. eigenvalues --    4.96969   4.98933   4.99730   5.00906   5.01644
 Alpha virt. eigenvalues --    5.02897   5.03548   5.04422   5.06164   5.07660
 Alpha virt. eigenvalues --    5.08953   5.09419   5.09865   5.12182   5.12370
 Alpha virt. eigenvalues --    5.14192   5.14577   5.15662   5.16296   5.18347
 Alpha virt. eigenvalues --    5.18846   5.19756   5.20867   5.21519   5.23195
 Alpha virt. eigenvalues --    5.24135   5.25597   5.26165   5.26460   5.28041
 Alpha virt. eigenvalues --    5.28637   5.29240   5.30021   5.32107   5.32989
 Alpha virt. eigenvalues --    5.34183   5.35410   5.36660   5.37296   5.40070
 Alpha virt. eigenvalues --    5.42665   5.45552   5.47853   5.49268   5.54367
 Alpha virt. eigenvalues --    5.58510   5.59160   5.61620   5.64231   5.71591
 Alpha virt. eigenvalues --    5.72935   5.75087   5.76055   5.78047   5.78640
 Alpha virt. eigenvalues --    5.80625   5.81297   5.83594   5.84277   5.85556
 Alpha virt. eigenvalues --    5.88009   5.88967   5.90417   5.93479   5.95260
 Alpha virt. eigenvalues --    5.98673   6.00212   6.01929   6.05397   6.08989
 Alpha virt. eigenvalues --    6.21860   6.27270   6.35429   6.40265   6.49189
 Alpha virt. eigenvalues --    6.53802   6.54603   6.58024   6.66900   6.69383
 Alpha virt. eigenvalues --    6.88315   6.89595   6.92436   6.95987   7.10115
 Alpha virt. eigenvalues --    7.14112   7.16287   7.18097   9.47139   9.96457
 Alpha virt. eigenvalues --   11.70906  12.12929  12.34206  12.67085  13.06112
 Alpha virt. eigenvalues --   13.42554  13.57380  13.65203  13.72567  13.74646
 Alpha virt. eigenvalues --   13.98179
          Condensed to atoms (all electrons):
               1          2          3          4          5          6
     1  C    4.846362   0.139311  -0.061544   0.006304  -0.000175   0.013024
     2  C    0.139311   5.368557   0.440595  -0.001807  -0.000752  -0.004660
     3  H   -0.061544   0.440595   0.461690  -0.000453   0.000025  -0.000016
     4  C    0.006304  -0.001807  -0.000453   5.143537   0.403907   0.399293
     5  H   -0.000175  -0.000752   0.000025   0.403907   0.531903  -0.011576
     6  H    0.013024  -0.004660  -0.000016   0.399293  -0.011576   0.492426
     7  H   -0.000819   0.002343  -0.000057   0.402689  -0.030224  -0.029597
     8  O    0.699855  -0.088216   0.002961  -0.004930  -0.000184   0.000072
     9  N   -0.061426   0.278979  -0.034897   0.000084   0.000021   0.000379
    10  H    0.003887  -0.036481   0.000810   0.000523   0.000022  -0.000040
    11  N    0.312777  -0.085278   0.000144  -0.002613   0.000267  -0.002471
    12  H   -0.015993   0.007969  -0.000716   0.000184   0.000002   0.000504
    13  C   -0.065951   0.009891  -0.000918  -0.000579  -0.000013  -0.000761
    14  H    0.003730   0.001183   0.000115  -0.000028  -0.000168   0.000764
    15  H   -0.010525  -0.000870  -0.000283   0.000058   0.000007   0.000245
    16  H    0.007606   0.000560  -0.000120   0.000036  -0.000002  -0.000127
    17  C   -0.006691  -0.072810   0.002645  -0.000004   0.000000   0.000033
    18  C   -0.004463   0.013242   0.001469  -0.000002   0.000000   0.000002
    19  H    0.000368   0.000614  -0.000221  -0.000001   0.000000  -0.000001
    20  H   -0.000178  -0.000507   0.000171   0.000000   0.000000   0.000000
    21  H    0.000766  -0.000724  -0.000144   0.000000   0.000000   0.000000
    22  O   -0.000166   0.020219   0.012442   0.000002   0.000000   0.000005
    23  C   -0.019952  -0.009540   0.010393   0.260441  -0.033778  -0.030058
    24  H   -0.014490   0.008589   0.001191  -0.023834  -0.005638  -0.004544
    25  C    0.000228   0.001266  -0.000020  -0.073167  -0.005715   0.007100
    26  H   -0.000169   0.001567  -0.000012  -0.008853  -0.000382  -0.000172
    27  H    0.000083  -0.001037  -0.000020   0.009537  -0.000145  -0.000305
    28  H    0.000027  -0.000598   0.000020  -0.006335   0.004011   0.000055
    29  C   -0.023811   0.208399  -0.033688  -0.053059   0.008898  -0.000788
    30  H    0.010781  -0.036379  -0.010154   0.006388  -0.000336  -0.000031
    31  H   -0.003351  -0.028796  -0.007380  -0.005106   0.000482  -0.000931
               7          8          9         10         11         12
     1  C   -0.000819   0.699855  -0.061426   0.003887   0.312777  -0.015993
     2  C    0.002343  -0.088216   0.278979  -0.036481  -0.085278   0.007969
     3  H   -0.000057   0.002961  -0.034897   0.000810   0.000144  -0.000716
     4  C    0.402689  -0.004930   0.000084   0.000523  -0.002613   0.000184
     5  H   -0.030224  -0.000184   0.000021   0.000022   0.000267   0.000002
     6  H   -0.029597   0.000072   0.000379  -0.000040  -0.002471   0.000504
     7  H    0.561243   0.000309  -0.000125  -0.000003  -0.000575  -0.000045
     8  O    0.000309   7.846724   0.003950  -0.002049  -0.118935   0.005385
     9  N   -0.000125   0.003950   6.522358   0.384370   0.005527   0.000719
    10  H   -0.000003  -0.002049   0.384370   0.506390  -0.000380   0.000007
    11  N   -0.000575  -0.118935   0.005527  -0.000380   6.438574   0.375599
    12  H   -0.000045   0.005385   0.000719   0.000007   0.375599   0.540722
    13  C    0.000073   0.007842  -0.000320   0.000036   0.300832  -0.032596
    14  H    0.000262   0.003571  -0.000047  -0.000005  -0.060979   0.001774
    15  H   -0.000015   0.005391  -0.000018   0.000006  -0.038825   0.003440
    16  H    0.000007   0.001423   0.000007   0.000000  -0.027037  -0.007823
    17  C   -0.000004   0.015366   0.330393  -0.020395  -0.000636  -0.000017
    18  C    0.000000  -0.000068  -0.065886   0.000040  -0.000107   0.000001
    19  H    0.000000   0.000030   0.012876  -0.000806   0.000014   0.000001
    20  H    0.000000   0.000031  -0.000717  -0.000363   0.000005   0.000001
    21  H    0.000000   0.000201  -0.000692   0.000196  -0.000001  -0.000002
    22  O    0.000000  -0.003303  -0.133970   0.004952  -0.004293  -0.000238
    23  C   -0.043802   0.005557  -0.007609   0.002888  -0.001868   0.000085
    24  H    0.007099   0.015544   0.006702  -0.002008   0.001786  -0.000157
    25  C   -0.009843   0.000419   0.000979  -0.001359  -0.000022  -0.000013
    26  H    0.004867  -0.000007  -0.000088  -0.000024  -0.000015   0.000005
    27  H    0.000058  -0.000003  -0.000003   0.001532  -0.000003  -0.000001
    28  H   -0.000952   0.000002   0.000017   0.000075   0.000004   0.000000
    29  C   -0.011858  -0.007027  -0.055244  -0.001878   0.005982  -0.003241
    30  H    0.000258  -0.000695   0.000988   0.002304   0.000198  -0.000128
    31  H    0.004243  -0.000146   0.004065   0.000513   0.003748   0.001957
              13         14         15         16         17         18
     1  C   -0.065951   0.003730  -0.010525   0.007606  -0.006691  -0.004463
     2  C    0.009891   0.001183  -0.000870   0.000560  -0.072810   0.013242
     3  H   -0.000918   0.000115  -0.000283  -0.000120   0.002645   0.001469
     4  C   -0.000579  -0.000028   0.000058   0.000036  -0.000004  -0.000002
     5  H   -0.000013  -0.000168   0.000007  -0.000002   0.000000   0.000000
     6  H   -0.000761   0.000764   0.000245  -0.000127   0.000033   0.000002
     7  H    0.000073   0.000262  -0.000015   0.000007  -0.000004   0.000000
     8  O    0.007842   0.003571   0.005391   0.001423   0.015366  -0.000068
     9  N   -0.000320  -0.000047  -0.000018   0.000007   0.330393  -0.065886
    10  H    0.000036  -0.000005   0.000006   0.000000  -0.020395   0.000040
    11  N    0.300832  -0.060979  -0.038825  -0.027037  -0.000636  -0.000107
    12  H   -0.032596   0.001774   0.003440  -0.007823  -0.000017   0.000001
    13  C    4.779219   0.389116   0.405853   0.393605  -0.000270  -0.000008
    14  H    0.389116   0.632634  -0.057314  -0.027198  -0.000042  -0.000001
    15  H    0.405853  -0.057314   0.590461  -0.025628   0.000121   0.000002
    16  H    0.393605  -0.027198  -0.025628   0.597300  -0.000012   0.000000
    17  C   -0.000270  -0.000042   0.000121  -0.000012   4.539305   0.280732
    18  C   -0.000008  -0.000001   0.000002   0.000000   0.280732   4.996274
    19  H    0.000000   0.000000   0.000000   0.000000  -0.055089   0.392718
    20  H    0.000000   0.000000   0.000000   0.000000  -0.025145   0.384225
    21  H    0.000002   0.000000   0.000001   0.000000  -0.025331   0.389157
    22  O   -0.000242   0.000006   0.000118  -0.000003   0.722058  -0.070827
    23  C   -0.000348   0.000394  -0.000097  -0.000042   0.000720  -0.000052
    24  H   -0.000197   0.000076  -0.000048  -0.000004   0.001049   0.000170
    25  C   -0.000016   0.000011  -0.000001  -0.000001   0.000120   0.000016
    26  H    0.000001   0.000001   0.000000   0.000000   0.000001   0.000001
    27  H    0.000000   0.000000   0.000000   0.000000   0.000018   0.000005
    28  H    0.000000  -0.000001   0.000000   0.000000  -0.000004   0.000000
    29  C   -0.000286  -0.000485   0.000106   0.000021   0.009061   0.000255
    30  H    0.000074  -0.000030   0.000011   0.000002  -0.000664  -0.000140
    31  H    0.000063  -0.000211   0.000062  -0.000010  -0.000047   0.000035
              19         20         21         22         23         24
     1  C    0.000368  -0.000178   0.000766  -0.000166  -0.019952  -0.014490
     2  C    0.000614  -0.000507  -0.000724   0.020219  -0.009540   0.008589
     3  H   -0.000221   0.000171  -0.000144   0.012442   0.010393   0.001191
     4  C   -0.000001   0.000000   0.000000   0.000002   0.260441  -0.023834
     5  H    0.000000   0.000000   0.000000   0.000000  -0.033778  -0.005638
     6  H   -0.000001   0.000000   0.000000   0.000005  -0.030058  -0.004544
     7  H    0.000000   0.000000   0.000000   0.000000  -0.043802   0.007099
     8  O    0.000030   0.000031   0.000201  -0.003303   0.005557   0.015544
     9  N    0.012876  -0.000717  -0.000692  -0.133970  -0.007609   0.006702
    10  H   -0.000806  -0.000363   0.000196   0.004952   0.002888  -0.002008
    11  N    0.000014   0.000005  -0.000001  -0.004293  -0.001868   0.001786
    12  H    0.000001   0.000001  -0.000002  -0.000238   0.000085  -0.000157
    13  C    0.000000   0.000000   0.000002  -0.000242  -0.000348  -0.000197
    14  H    0.000000   0.000000   0.000000   0.000006   0.000394   0.000076
    15  H    0.000000   0.000000   0.000001   0.000118  -0.000097  -0.000048
    16  H    0.000000   0.000000   0.000000  -0.000003  -0.000042  -0.000004
    17  C   -0.055089  -0.025145  -0.025331   0.722058   0.000720   0.001049
    18  C    0.392718   0.384225   0.389157  -0.070827  -0.000052   0.000170
    19  H    0.604034  -0.026810  -0.024915   0.004620   0.000044   0.000072
    20  H   -0.026810   0.578385  -0.025433   0.002067   0.000007   0.000027
    21  H   -0.024915  -0.025433   0.564032   0.001410  -0.000010  -0.000061
    22  O    0.004620   0.002067   0.001410   7.849883   0.000037  -0.000123
    23  C    0.000044   0.000007  -0.000010   0.000037   5.385042   0.415712
    24  H    0.000072   0.000027  -0.000061  -0.000123   0.415712   0.493438
    25  C   -0.000028   0.000001  -0.000001   0.000002   0.274362  -0.032852
    26  H    0.000000   0.000000   0.000000   0.000000  -0.033983   0.006739
    27  H   -0.000013  -0.000001  -0.000001   0.000002  -0.037891  -0.008034
    28  H    0.000001   0.000000   0.000000   0.000000  -0.040241  -0.004386
    29  C   -0.000271   0.000011   0.000016   0.002032   0.177033  -0.067413
    30  H    0.000002  -0.000029   0.000021  -0.000158  -0.061123  -0.000525
    31  H   -0.000005  -0.000003   0.000000   0.000076  -0.040831   0.003449
              25         26         27         28         29         30
     1  C    0.000228  -0.000169   0.000083   0.000027  -0.023811   0.010781
     2  C    0.001266   0.001567  -0.001037  -0.000598   0.208399  -0.036379
     3  H   -0.000020  -0.000012  -0.000020   0.000020  -0.033688  -0.010154
     4  C   -0.073167  -0.008853   0.009537  -0.006335  -0.053059   0.006388
     5  H   -0.005715  -0.000382  -0.000145   0.004011   0.008898  -0.000336
     6  H    0.007100  -0.000172  -0.000305   0.000055  -0.000788  -0.000031
     7  H   -0.009843   0.004867   0.000058  -0.000952  -0.011858   0.000258
     8  O    0.000419  -0.000007  -0.000003   0.000002  -0.007027  -0.000695
     9  N    0.000979  -0.000088  -0.000003   0.000017  -0.055244   0.000988
    10  H   -0.001359  -0.000024   0.001532   0.000075  -0.001878   0.002304
    11  N   -0.000022  -0.000015  -0.000003   0.000004   0.005982   0.000198
    12  H   -0.000013   0.000005  -0.000001   0.000000  -0.003241  -0.000128
    13  C   -0.000016   0.000001   0.000000   0.000000  -0.000286   0.000074
    14  H    0.000011   0.000001   0.000000  -0.000001  -0.000485  -0.000030
    15  H   -0.000001   0.000000   0.000000   0.000000   0.000106   0.000011
    16  H   -0.000001   0.000000   0.000000   0.000000   0.000021   0.000002
    17  C    0.000120   0.000001   0.000018  -0.000004   0.009061  -0.000664
    18  C    0.000016   0.000001   0.000005   0.000000   0.000255  -0.000140
    19  H   -0.000028   0.000000  -0.000013   0.000001  -0.000271   0.000002
    20  H    0.000001   0.000000  -0.000001   0.000000   0.000011  -0.000029
    21  H   -0.000001   0.000000  -0.000001   0.000000   0.000016   0.000021
    22  O    0.000002   0.000000   0.000002   0.000000   0.002032  -0.000158
    23  C    0.274362  -0.033983  -0.037891  -0.040241   0.177033  -0.061123
    24  H   -0.032852   0.006739  -0.008034  -0.004386  -0.067413  -0.000525
    25  C    5.111904   0.398727   0.399830   0.411650  -0.054379  -0.011509
    26  H    0.398727   0.552851  -0.029532  -0.028770  -0.008055   0.000476
    27  H    0.399830  -0.029532   0.548514  -0.016618  -0.002304   0.000942
    28  H    0.411650  -0.028770  -0.016618   0.534068   0.009762   0.000249
    29  C   -0.054379  -0.008055  -0.002304   0.009762   5.510108   0.416871
    30  H   -0.011509   0.000476   0.000942   0.000249   0.416871   0.468229
    31  H   -0.000677   0.000492   0.000410  -0.000252   0.407574   0.000033
              31
     1  C   -0.003351
     2  C   -0.028796
     3  H   -0.007380
     4  C   -0.005106
     5  H    0.000482
     6  H   -0.000931
     7  H    0.004243
     8  O   -0.000146
     9  N    0.004065
    10  H    0.000513
    11  N    0.003748
    12  H    0.001957
    13  C    0.000063
    14  H   -0.000211
    15  H    0.000062
    16  H   -0.000010
    17  C   -0.000047
    18  C    0.000035
    19  H   -0.000005
    20  H   -0.000003
    21  H    0.000000
    22  O    0.000076
    23  C   -0.040831
    24  H    0.003449
    25  C   -0.000677
    26  H    0.000492
    27  H    0.000410
    28  H   -0.000252
    29  C    0.407574
    30  H    0.000033
    31  H    0.456310
 Mulliken charges:
               1
     1  C    0.244594
     2  C   -0.134828
     3  H    0.215968
     4  C   -0.452211
     5  H    0.139544
     6  H    0.172179
     7  H    0.144468
     8  O   -0.389069
     9  N   -0.191372
    10  H    0.157241
    11  N   -0.101418
    12  H    0.122614
    13  C   -0.184101
    14  H    0.112873
    15  H    0.127742
    16  H    0.087439
    17  C    0.305538
    18  C   -0.316793
    19  H    0.092766
    20  H    0.114254
    21  H    0.121512
    22  O   -0.406609
    23  C   -0.171489
    24  H    0.202672
    25  C   -0.417013
    26  H    0.144335
    27  H    0.134980
    28  H    0.138217
    29  C   -0.432341
    30  H    0.214073
    31  H    0.204234
 Sum of Mulliken charges =   0.00000
 Mulliken charges with hydrogens summed into heavy atoms:
               1
     1  C    0.244594
     2  C    0.081140
     4  C    0.003980
     8  O   -0.389069
     9  N   -0.034130
    11  N    0.021196
    13  C    0.143954
    17  C    0.305538
    18  C    0.011739
    22  O   -0.406609
    23  C    0.031182
    25  C    0.000519
    29  C   -0.014034
 Electronic spatial extent (au):  <R**2>=           2894.9977
 Charge=              0.0000 electrons
 Dipole moment (field-independent basis, Debye):
    X=             -3.0314    Y=             -1.8794    Z=             -2.3092  Tot=              4.2490
 Quadrupole moment (field-independent basis, Debye-Ang):
   XX=            -85.0742   YY=            -70.2302   ZZ=            -81.1776
   XY=             -9.9336   XZ=              3.5281   YZ=             -5.0803
 Traceless Quadrupole moment (field-independent basis, Debye-Ang):
   XX=             -6.2468   YY=              8.5971   ZZ=             -2.3502
   XY=             -9.9336   XZ=              3.5281   YZ=             -5.0803
 Octapole moment (field-independent basis, Debye-Ang**2):
  XXX=              1.1239  YYY=             34.5469  ZZZ=             -8.8306  XYY=              0.5501
  XXY=            -19.4848  XXZ=             13.3037  XZZ=              1.8083  YZZ=              4.0283
  YYZ=             -3.2838  XYZ=              2.9591
 Hexadecapole moment (field-independent basis, Debye-Ang**3):
 XXXX=          -2061.7962 YYYY=          -1400.2016 ZZZZ=           -319.9222 XXXY=            -79.6719
 XXXZ=             28.6633 YYYX=            -45.1362 YYYZ=            -15.0376 ZZZX=              1.4908
 ZZZY=            -20.8132 XXYY=           -586.0522 XXZZ=           -377.5810 YYZZ=           -297.4023
 XXYZ=              0.4121 YYXZ=              4.2188 ZZXY=             -5.3873
 N-N= 8.768981852235D+02 E-N=-3.183543772248D+03  KE= 6.091243472443D+02
 Calculating spin-rotation constants.
 Leave Link  601 at Thu Jun 19 02:00:57 2014, MaxMem=  4294967296 cpu:        69.9
 (Enter /home/ztw1e12/g09/l9999.exe)

 Test job not archived.
 1\1\GINC-GREEN0670\SP\RM06\Gen\C9H18N2O2\ROOT\19-Jun-2014\0\\#P Geom=A
 llCheck Guess=TCheck SCRF=Check GenChk RM06/ChkBas NMR=ReadFC IOp(3/6=
 22)\\NMR spin-spin scan\\0,1\C,0,0.561783,0.726068,0.614496\C,0,0.1493
 81,0.197731,-0.753143\H,0,0.543557,0.886787,-1.505543\C,0,-2.635172,0.
 231137,1.282422\H,0,-3.128839,-0.3593,2.056846\H,0,-1.840759,0.8079,1.
 761591\H,0,-3.366935,0.941086,0.885211\O,0,0.802392,-0.010779,1.566581
 \N,0,0.707142,-1.111983,-0.995815\H,0,0.08506,-1.903857,-1.059025\N,0,
 0.609563,2.059291,0.703387\H,0,0.350075,2.605515,-0.103015\C,0,0.82164
 7,2.726785,1.967017\H,0,0.037407,2.476797,2.684197\H,0,1.781101,2.4446
 76,2.399852\H,0,0.817892,3.800055,1.803981\C,0,2.032934,-1.314106,-1.0
 64279\C,0,2.483025,-2.719525,-1.290513\H,0,1.65903,-3.423718,-1.383343
 \H,0,3.090231,-2.75277,-2.194751\H,0,3.120215,-3.021314,-0.459404\O,0,
 2.835121,-0.386939,-0.955475\C,0,-2.116694,-0.657012,0.164688\H,0,-1.4
 2976,-1.392176,0.598826\C,0,-3.269446,-1.410369,-0.472207\H,0,-3.96277
 5,-0.712122,-0.951492\H,0,-2.916088,-2.10573,-1.236935\H,0,-3.832134,-
 1.979011,0.270992\C,0,-1.368186,0.156996,-0.896922\H,0,-1.572278,-0.25
 1437,-1.891066\H,0,-1.742864,1.184621,-0.906817\\Version=EM64L-G09RevD
 .01\State=1-A\HF=-613.5831337\RMSD=8.272e-09\Dipole=-1.4744943,0.29284
 51,-0.731199\Quadrupole=-8.1281878,10.5115356,-2.3833478,-1.5024,0.655
 9745,3.8237683\PG=C01 [X(C9H18N2O2)]\\@


 The most important thing in communication is to hear what isn't being said.
 -- Peter F. Drucker
 Job cpu time:       2 days 13 hours 47 minutes 16.3 seconds.
 File lengths (MBytes):  RWF=   2456 Int=      0 D2E=      0 Chk=     48 Scr=      8
 Normal termination of Gaussian 09 at Thu Jun 19 02:00:57 2014.
