 Entering Gaussian System, Link 0=g09
 Input=scan_input_13.gjf
 Output=scan_input_13.log
 Initial command:
 /home/ztw1e12/g09/l1.exe "/home/ztw1e12/leucine_scan/leucine_chi2_scan/Gau-2394.inp" -scrdir="/home/ztw1e12/leucine_scan/leucine_chi2_scan/"
 Default is to use a total of   8 processors:
                                8 via shared-memory
                                1 via Linda
 Entering Link 1 = /home/ztw1e12/g09/l1.exe PID=      2395.
  
 Copyright (c) 1988,1990,1992,1993,1995,1998,2003,2009,2013,
            Gaussian, Inc.  All Rights Reserved.
  
 This is part of the Gaussian(R) 09 program.  It is based on
 the Gaussian(R) 03 system (copyright 2003, Gaussian, Inc.),
 the Gaussian(R) 98 system (copyright 1998, Gaussian, Inc.),
 the Gaussian(R) 94 system (copyright 1995, Gaussian, Inc.),
 the Gaussian 92(TM) system (copyright 1992, Gaussian, Inc.),
 the Gaussian 90(TM) system (copyright 1990, Gaussian, Inc.),
 the Gaussian 88(TM) system (copyright 1988, Gaussian, Inc.),
 the Gaussian 86(TM) system (copyright 1986, Carnegie Mellon
 University), and the Gaussian 82(TM) system (copyright 1983,
 Carnegie Mellon University). Gaussian is a federally registered
 trademark of Gaussian, Inc.
  
 This software contains proprietary and confidential information,
 including trade secrets, belonging to Gaussian, Inc.
  
 This software is provided under written license and may be
 used, copied, transmitted, or stored only in accord with that
 written license.
  
 The following legend is applicable only to US Government
 contracts under FAR:
  
                    RESTRICTED RIGHTS LEGEND
  
 Use, reproduction and disclosure by the US Government is
 subject to restrictions as set forth in subparagraphs (a)
 and (c) of the Commercial Computer Software - Restricted
 Rights clause in FAR 52.227-19.
  
 Gaussian, Inc.
 340 Quinnipiac St., Bldg. 40, Wallingford CT 06492
  
  
 ---------------------------------------------------------------
 Warning -- This program may not be used in any manner that
 competes with the business of Gaussian, Inc. or will provide
 assistance to any competitor of Gaussian, Inc.  The licensee
 of this program is prohibited from giving any competitor of
 Gaussian, Inc. access to this program.  By using this program,
 the user acknowledges that Gaussian, Inc. is engaged in the
 business of creating and licensing software in the field of
 computational chemistry and represents and warrants to the
 licensee that it is not a competitor of Gaussian, Inc. and that
 it will not use this program in any manner prohibited above.
 ---------------------------------------------------------------
  

 Cite this work as:
 Gaussian 09, Revision D.01,
 M. J. Frisch, G. W. Trucks, H. B. Schlegel, G. E. Scuseria, 
 M. A. Robb, J. R. Cheeseman, G. Scalmani, V. Barone, B. Mennucci, 
 G. A. Petersson, H. Nakatsuji, M. Caricato, X. Li, H. P. Hratchian, 
 A. F. Izmaylov, J. Bloino, G. Zheng, J. L. Sonnenberg, M. Hada, 
 M. Ehara, K. Toyota, R. Fukuda, J. Hasegawa, M. Ishida, T. Nakajima, 
 Y. Honda, O. Kitao, H. Nakai, T. Vreven, J. A. Montgomery, Jr., 
 J. E. Peralta, F. Ogliaro, M. Bearpark, J. J. Heyd, E. Brothers, 
 K. N. Kudin, V. N. Staroverov, T. Keith, R. Kobayashi, J. Normand, 
 K. Raghavachari, A. Rendell, J. C. Burant, S. S. Iyengar, J. Tomasi, 
 M. Cossi, N. Rega, J. M. Millam, M. Klene, J. E. Knox, J. B. Cross, 
 V. Bakken, C. Adamo, J. Jaramillo, R. Gomperts, R. E. Stratmann, 
 O. Yazyev, A. J. Austin, R. Cammi, C. Pomelli, J. W. Ochterski, 
 R. L. Martin, K. Morokuma, V. G. Zakrzewski, G. A. Voth, 
 P. Salvador, J. J. Dannenberg, S. Dapprich, A. D. Daniels, 
 O. Farkas, J. B. Foresman, J. V. Ortiz, J. Cioslowski, 
 and D. J. Fox, Gaussian, Inc., Wallingford CT, 2013.
 
 ******************************************
 Gaussian 09:  EM64L-G09RevD.01 24-Apr-2013
                18-Jun-2014 
 ******************************************
 %Mem=32GB
 %NProcShared=16
 Will use up to   16 processors via shared memory.
 Default route:  MaxDisk=100GB
 ----------------------------------------------------------------------
 #p nmr=(giao,mixed,spinspin) m06/cc-pvtz scf=tight integral=(grid=ultr
 afine)
 ----------------------------------------------------------------------
 1/38=1/1;
 2/12=2,17=6,18=5,40=1/2;
 3/5=16,6=1,10=1100000,11=2,16=1,25=1,30=1,74=-54,75=-5/1,2,8,3;
 4//1;
 5/5=2,32=2,38=5/2;
 8/6=1,10=90,11=11/1;
 10/13=100,45=16,47=3/2;
 6/7=2,8=2,9=2,10=2,28=1/1;
 99/9=1/99;
 Leave Link    1 at Wed Jun 18 02:04:46 2014, MaxMem=  4294967296 cpu:         6.6
 (Enter /home/ztw1e12/g09/l101.exe)
 ------------------
 NMR spin-spin scan
 ------------------
 Symbolic Z-matrix:
 Charge =  0 Multiplicity = 1
 C                     0.23861   0.96196   0.35364 
 C                     0.09578   0.03486  -0.8459 
 H                     0.56435   0.54856  -1.69089 
 C                    -2.08447  -2.03826   0.39154 
 H                    -2.93871  -2.4007    0.96662 
 H                    -1.85208  -2.78795  -0.36915 
 H                    -1.23876  -1.97721   1.08343 
 O                     0.54147   0.5596    1.47305 
 N                     0.82589  -1.19469  -0.63593 
 H                     0.31644  -2.04563  -0.45742 
 N                     0.0078    2.25223   0.08847 
 H                    -0.2863    2.50799  -0.84122 
 C                    -0.07265   3.23635   1.14315 
 H                    -0.87536   2.99895   1.84477 
 H                     0.86244   3.28709   1.70046 
 H                    -0.26882   4.20965   0.70354 
 C                     2.16709  -1.21315  -0.56463 
 C                     2.80377  -2.54194  -0.32248 
 H                     2.08519  -3.35328  -0.22851 
 H                     3.48552  -2.75798  -1.14492 
 H                     3.40066  -2.4832    0.58764 
 O                     2.83943  -0.19192  -0.70601 
 C                    -2.39233  -0.6865   -0.22797 
 H                    -3.30199  -0.81936  -0.8263 
 C                    -2.73035   0.34083   0.83784 
 H                    -1.91377   0.48897   1.54687 
 H                    -2.98307   1.30888   0.39968 
 H                    -3.59479   0.00435   1.4143 
 C                    -1.35529  -0.23326  -1.25741 
 H                    -1.31612  -0.97232  -2.06268 
 H                    -1.72397   0.69037  -1.71323 
 
 NAtoms=     31 NQM=       31 NQMF=       0 NMMI=      0 NMMIF=      0
                NMic=       0 NMicF=      0.
                    Isotopes and Nuclear Properties:
 (Nuclear quadrupole moments (NQMom) in fm**2, nuclear magnetic moments (NMagM)
  in nuclear magnetons)

  Atom         1           2           3           4           5           6           7           8           9          10
 IAtWgt=          12          12           1          12           1           1           1          16          14           1
 AtmWgt=  12.0000000  12.0000000   1.0078250  12.0000000   1.0078250   1.0078250   1.0078250  15.9949146  14.0030740   1.0078250
 NucSpn=           0           0           1           0           1           1           1           0           2           1
 AtZEff=   0.0000000   0.0000000   0.0000000   0.0000000   0.0000000   0.0000000   0.0000000   0.0000000   0.0000000   0.0000000
 NQMom=    0.0000000   0.0000000   0.0000000   0.0000000   0.0000000   0.0000000   0.0000000   0.0000000   2.0440000   0.0000000
 NMagM=    0.0000000   0.0000000   2.7928460   0.0000000   2.7928460   2.7928460   2.7928460   0.0000000   0.4037610   2.7928460
 AtZNuc=   6.0000000   6.0000000   1.0000000   6.0000000   1.0000000   1.0000000   1.0000000   8.0000000   7.0000000   1.0000000

  Atom        11          12          13          14          15          16          17          18          19          20
 IAtWgt=          14           1          12           1           1           1          12          12           1           1
 AtmWgt=  14.0030740   1.0078250  12.0000000   1.0078250   1.0078250   1.0078250  12.0000000  12.0000000   1.0078250   1.0078250
 NucSpn=           2           1           0           1           1           1           0           0           1           1
 AtZEff=   0.0000000   0.0000000   0.0000000   0.0000000   0.0000000   0.0000000   0.0000000   0.0000000   0.0000000   0.0000000
 NQMom=    2.0440000   0.0000000   0.0000000   0.0000000   0.0000000   0.0000000   0.0000000   0.0000000   0.0000000   0.0000000
 NMagM=    0.4037610   2.7928460   0.0000000   2.7928460   2.7928460   2.7928460   0.0000000   0.0000000   2.7928460   2.7928460
 AtZNuc=   7.0000000   1.0000000   6.0000000   1.0000000   1.0000000   1.0000000   6.0000000   6.0000000   1.0000000   1.0000000

  Atom        21          22          23          24          25          26          27          28          29          30
 IAtWgt=           1          16          12           1          12           1           1           1          12           1
 AtmWgt=   1.0078250  15.9949146  12.0000000   1.0078250  12.0000000   1.0078250   1.0078250   1.0078250  12.0000000   1.0078250
 NucSpn=           1           0           0           1           0           1           1           1           0           1
 AtZEff=   0.0000000   0.0000000   0.0000000   0.0000000   0.0000000   0.0000000   0.0000000   0.0000000   0.0000000   0.0000000
 NQMom=    0.0000000   0.0000000   0.0000000   0.0000000   0.0000000   0.0000000   0.0000000   0.0000000   0.0000000   0.0000000
 NMagM=    2.7928460   0.0000000   0.0000000   2.7928460   0.0000000   2.7928460   2.7928460   2.7928460   0.0000000   2.7928460
 AtZNuc=   1.0000000   8.0000000   6.0000000   1.0000000   6.0000000   1.0000000   1.0000000   1.0000000   6.0000000   1.0000000

  Atom        31
 IAtWgt=           1
 AtmWgt=   1.0078250
 NucSpn=           1
 AtZEff=   0.0000000
 NQMom=    0.0000000
 NMagM=    2.7928460
 AtZNuc=   1.0000000
 Leave Link  101 at Wed Jun 18 02:04:46 2014, MaxMem=  4294967296 cpu:         2.2
 (Enter /home/ztw1e12/g09/l202.exe)
                          Input orientation:                          
 ---------------------------------------------------------------------
 Center     Atomic      Atomic             Coordinates (Angstroms)
 Number     Number       Type             X           Y           Z
 ---------------------------------------------------------------------
      1          6           0        0.238613    0.961959    0.353641
      2          6           0        0.095782    0.034858   -0.845904
      3          1           0        0.564346    0.548563   -1.690889
      4          6           0       -2.084465   -2.038263    0.391536
      5          1           0       -2.938713   -2.400700    0.966621
      6          1           0       -1.852077   -2.787945   -0.369146
      7          1           0       -1.238763   -1.977207    1.083429
      8          8           0        0.541467    0.559600    1.473050
      9          7           0        0.825889   -1.194688   -0.635927
     10          1           0        0.316441   -2.045634   -0.457423
     11          7           0        0.007803    2.252226    0.088472
     12          1           0       -0.286303    2.507990   -0.841220
     13          6           0       -0.072646    3.236351    1.143145
     14          1           0       -0.875355    2.998952    1.844767
     15          1           0        0.862435    3.287088    1.700459
     16          1           0       -0.268816    4.209649    0.703537
     17          6           0        2.167094   -1.213147   -0.564632
     18          6           0        2.803773   -2.541944   -0.322475
     19          1           0        2.085192   -3.353283   -0.228508
     20          1           0        3.485517   -2.757977   -1.144921
     21          1           0        3.400656   -2.483196    0.587636
     22          8           0        2.839427   -0.191920   -0.706006
     23          6           0       -2.392325   -0.686501   -0.227974
     24          1           0       -3.301990   -0.819363   -0.826298
     25          6           0       -2.730349    0.340832    0.837840
     26          1           0       -1.913774    0.488972    1.546866
     27          1           0       -2.983069    1.308880    0.399681
     28          1           0       -3.594789    0.004352    1.414301
     29          6           0       -1.355289   -0.233257   -1.257413
     30          1           0       -1.316119   -0.972319   -2.062676
     31          1           0       -1.723967    0.690368   -1.713231
 ---------------------------------------------------------------------
                    Distance matrix (angstroms):
                    1          2          3          4          5
     1  C    0.000000
     2  C    1.522769   0.000000
     3  H    2.111185   1.094278   0.000000
     4  C    3.794662   3.253086   4.247866   0.000000
     5  H    4.666757   4.292476   5.294519   1.091706   0.000000
     6  H    4.353755   3.462610   4.326476   1.093007   1.764939
     7  H    3.369559   3.090589   4.162638   1.094375   1.755796
     8  O    1.227473   2.418995   3.164041   3.848907   4.596901
     9  N    2.444435   1.445313   2.054330   3.199603   4.265543
    10  H    3.116007   2.127923   2.883185   2.546593   3.570714
    11  N    1.337302   2.407804   2.525536   4.783067   5.576990
    12  H    2.023226   2.502477   2.298890   5.041973   5.865049
    13  C    2.427562   3.772829   3.957488   5.695075   6.326282
    14  H    2.759297   4.119305   4.536299   5.380275   5.846779
    15  H    2.758496   4.201038   4.369167   6.225501   6.880274
    16  H    3.305662   4.467950   4.453199   6.513857   7.134023
    17  C    3.048500   2.434536   2.634555   4.435181   5.461161
    18  C    4.394828   3.774533   4.054482   4.965720   5.887093
    19  H    4.729700   3.977239   4.435756   4.415855   5.251225
    20  H    5.160039   4.402231   4.445731   5.822662   6.771779
    21  H    4.682132   4.395205   4.735810   5.506630   6.351223
    22  O    3.036202   2.756554   2.587335   5.371992   6.408065
    23  C    3.158723   2.663245   3.522415   1.518496   2.159647
    24  H    4.135364   3.503560   4.191335   2.109788   2.418089
    25  C    3.071642   3.303881   4.158442   2.505284   2.752453
    26  H    2.506047   3.157512   4.077706   2.784033   3.120479
    27  H    3.240634   3.557237   4.187209   3.465678   3.752915
    28  H    4.091086   4.327791   5.218886   2.738504   2.532810
    29  C    2.562140   1.531937   2.117579   2.551231   3.485881
    30  H    3.463699   2.118585   2.446928   2.783837   3.721522
    31  H    2.863117   2.119773   2.292811   3.464885   4.267542
                    6          7          8          9         10
     6  H    0.000000
     7  H    1.772970   0.000000
     8  O    4.508747   3.123526   0.000000
     9  N    3.127482   2.798448   2.757935   0.000000
    10  H    2.293750   2.190335   3.250324   1.007725   0.000000
    11  N    5.391836   4.520174   2.250963   3.615969   4.343370
    12  H    5.542692   4.972770   3.136443   3.871555   4.609348
    13  C    6.461079   5.342713   2.766038   4.858659   5.532863
    14  H    6.272446   5.047163   2.845346   5.160881   5.671711
    15  H    6.968347   5.701628   2.755708   5.054340   5.778623
    16  H    7.254218   6.273938   3.817272   5.674452   6.388969
    17  C    4.321104   3.860020   3.152371   1.343225   2.032104
    18  C    4.662578   4.317128   4.238103   2.413582   2.539952
    19  H    3.980135   3.829287   4.537515   2.532068   2.211522
    20  H    5.393759   5.281474   5.150487   3.126750   3.320110
    21  H    5.347851   4.693191   4.268200   3.128384   3.285725
    22  O    5.372432   4.798016   3.254795   2.250509   3.140622
    23  C    2.174365   2.171729   3.612947   3.283532   3.039293
    24  H    2.487278   3.040488   4.686225   4.149276   3.838340
    25  C    3.466615   2.767390   3.340080   4.144471   4.081159
    26  H    3.796458   2.598548   2.457366   3.886522   3.926227
    27  H    4.319052   3.782655   3.759773   4.674238   4.782694
    28  H    3.743615   3.096274   4.173771   5.018319   4.796198
    29  C    2.749954   2.921383   3.417855   2.463358   2.592176
    30  H    2.540038   3.303598   4.277705   2.583265   2.528655
    31  H    3.731171   3.895213   3.911736   3.348998   3.636760
                   11         12         13         14         15
    11  N    0.000000
    12  H    1.008088   0.000000
    13  C    1.444752   2.124585   0.000000
    14  H    2.102888   2.793305   1.092233   0.000000
    15  H    2.097579   2.895984   1.089748   1.767417   0.000000
    16  H    2.070345   2.298309   1.085839   1.770899   1.767682
    17  C    4.134960   4.465705   5.266020   5.727432   5.204314
    18  C    5.565105   5.943021   6.618952   6.995316   6.468282
    19  H    5.986464   6.352474   7.068308   7.308502   7.022149
    20  H    6.222370   6.484541   7.336739   7.816500   7.177713
    21  H    5.846780   6.367671   6.714584   7.065309   6.401337
    22  O    3.824021   4.132552   4.863391   5.521568   4.669376
    23  C    3.807475   3.875071   4.759164   4.492217   5.486504
    24  H    4.607189   4.490642   5.545826   5.253825   6.371018
    25  C    3.422347   3.672762   3.942160   3.394187   4.725742
    26  H    2.988049   3.525344   3.331791   2.732592   3.944665
    27  H    3.151518   3.201601   3.569096   3.063833   4.515887
    28  H    4.448531   4.722463   4.787989   4.067954   5.543022
    29  C    3.138001   2.971596   4.409765   4.505667   5.104913
    30  H    4.096083   3.829494   5.434742   5.588683   6.086857
    31  H    2.946958   2.476092   4.167466   4.325396   5.008564
                   16         17         18         19         20
    16  H    0.000000
    17  C    6.078538   0.000000
    18  C    7.488492   1.493219   0.000000
    19  H    7.975462   2.167918   1.087869   0.000000
    20  H    8.127707   2.112220   1.089891   1.776264   0.000000
    21  H    7.633651   2.112444   1.089965   1.775834   1.756263
    22  O    5.569721   1.230822   2.381382   3.284980   2.682299
    23  C    5.417498   4.602064   5.518246   5.211515   6.299272
    24  H    6.068896   5.489482   6.364076   5.983296   7.066116
    25  C    4.587475   5.326042   6.346907   6.162225   7.222946
    26  H    4.154579   4.899910   5.910680   5.822938   6.851331
    27  H    3.984214   5.815041   6.988411   6.915031   7.795366
    28  H    5.408494   6.212711   7.102226   6.799612   8.019402
    29  C    4.976461   3.721198   4.847880   4.757112   5.460794
    30  H    5.966705   3.799330   4.739782   4.538951   5.204475
    31  H    4.510385   4.481407   5.734324   5.750235   6.273180
                   21         22         23         24         25
    21  H    0.000000
    22  O    2.690434   0.000000
    23  C    6.119801   5.276775   0.000000
    24  H    7.049327   6.174557   1.096875   0.000000
    25  C    6.754773   5.804282   1.518431   2.107648   0.000000
    26  H    6.164176   5.303958   2.181927   3.044797   1.091539
    27  H    7.427457   6.113624   2.173586   2.476722   1.092231
    28  H    7.470443   6.777415   2.149480   2.405103   1.092146
    29  C    5.575432   4.231005   1.529908   2.078226   2.571080
    30  H    5.617372   4.440511   2.146169   2.344293   3.483878
    31  H    6.451919   4.755786   2.132712   2.357137   2.764587
                   26         27         28         29         30
    26  H    0.000000
    27  H    1.769654   0.000000
    28  H    1.754492   1.762228   0.000000
    29  C    2.949153   2.788156   3.494263   0.000000
    30  H    3.939715   3.747772   4.270315   1.093707   0.000000
    31  H    3.271822   2.536196   3.708376   1.093973   1.747278
                   31
    31  H    0.000000
 Stoichiometry    C9H18N2O2
 Framework group  C1[X(C9H18N2O2)]
 Deg. of freedom    87
 Full point group                 C1      NOp   1
 Largest Abelian subgroup         C1      NOp   1
 Largest concise Abelian subgroup C1      NOp   1
                         Standard orientation:                         
 ---------------------------------------------------------------------
 Center     Atomic      Atomic             Coordinates (Angstroms)
 Number     Number       Type             X           Y           Z
 ---------------------------------------------------------------------
      1          6           0        0.423916    1.012119   -0.113660
      2          6           0       -0.196772   -0.004729    0.834807
      3          1           0       -0.490572    0.548755    1.731904
      4          6           0        0.771906   -2.726858   -0.659931
      5          1           0        1.406641   -3.412739   -1.224290
      6          1           0        0.026983   -3.323483   -0.127210
      7          1           0        0.251596   -2.100973   -1.391505
      8          8           0        0.197543    1.021267   -1.320044
      9          7           0       -1.400677   -0.569111    0.268225
     10          1           0       -1.390047   -1.520947   -0.062541
     11          7           0        1.236362    1.896357    0.474923
     12          1           0        1.418305    1.801018    1.461862
     13          6           0        2.040765    2.813342   -0.299276
     14          1           0        2.725204    2.277307   -0.960475
     15          1           0        1.413103    3.460421   -0.911549
     16          1           0        2.621582    3.431981    0.378208
     17          6           0       -2.501534    0.174958    0.071426
     18          6           0       -3.673770   -0.517709   -0.541580
     19          1           0       -3.487588   -1.566646   -0.761870
     20          1           0       -4.521942   -0.437394    0.138137
     21          1           0       -3.944329    0.000298   -1.461628
     22          8           0       -2.549274    1.362235    0.392389
     23          6           0        1.605895   -1.888770    0.292908
     24          1           0        2.160862   -2.594860    0.922657
     25          6           0        2.647754   -1.078576   -0.457923
     26          1           0        2.200798   -0.395299   -1.182368
     27          1           0        3.272754   -0.495558    0.222101
     28          1           0        3.304817   -1.748755   -1.016414
     29          6           0        0.772833   -1.095181    1.301295
     30          1           0        0.183489   -1.797667    1.897435
     31          1           0        1.466430   -0.615779    1.998342
 ---------------------------------------------------------------------
 Rotational constants (GHZ):      0.9161368      0.6491483      0.4479966
 Leave Link  202 at Wed Jun 18 02:04:46 2014, MaxMem=  4294967296 cpu:         1.9
 (Enter /home/ztw1e12/g09/l301.exe)
 Standard basis: CC-pVTZ (5D, 7F)
 Converting basis for Fermi contact spin-spin IFCMod=1.
 AO basis functions are being uncontracted.
 Ernie: Thresh=  0.10000D-02 Tol=  0.10000D-05 Strict=F.
 There are  1119 symmetry adapted cartesian basis functions of A   symmetry.
 There are  1036 symmetry adapted basis functions of A   symmetry.
  1036 basis functions,  1119 primitive gaussians,  1119 cartesian basis functions
    51 alpha electrons       51 beta electrons
       nuclear repulsion energy       887.0846781391 Hartrees.
 IExCor= 4235 DFT=T Ex+Corr=M06 ExCW=0 ScaHFX=  0.270000
 ScaDFX=  1.000000  1.000000  1.000000  1.000000 ScalE2=  1.000000  1.000000
 IRadAn= 199590 IRanWt=     -1 IRanGd=            0 ICorTp=0 IEmpDi=  4
 NAtoms=   31 NActive=   31 NUniq=   31 SFac= 1.00D+00 NAtFMM=   60 NAOKFM=F Big=F
 Integral buffers will be    131072 words long.
 Raffenetti 2 integral format.
 Two-electron integral symmetry is turned on.
 Leave Link  301 at Wed Jun 18 02:04:46 2014, MaxMem=  4294967296 cpu:         4.6
 (Enter /home/ztw1e12/g09/l302.exe)
 NPDir=0 NMtPBC=     1 NCelOv=     1 NCel=       1 NClECP=     1 NCelD=      1
         NCelK=      1 NCelE2=     1 NClLst=     1 CellRange=     0.0.
 One-electron integrals computed using PRISM.
 GSVD:  received Info=                   1 from GESDD.
 NBasis=  1036 RedAO= T EigKep=  1.07D-04  NBF=  1036
 NBsUse=   932 1.00D-06 EigRej=  4.74D-15 NBFU=   932
 Precomputing XC quadrature grid using
 IXCGrd= 4 IRadAn=      199590 IRanWt=          -1 IRanGd=           0 AccXCQ= 0.00D+00.
 Generated NRdTot=       0 NPtTot=           0 NUsed=           0 NTot=          32
 NSgBfM=   886   886   886   886   886 MxSgAt=    31 MxSgA2=    31.
 Leave Link  302 at Wed Jun 18 02:04:51 2014, MaxMem=  4294967296 cpu:        65.8
 (Enter /home/ztw1e12/g09/l308.exe)
 Leave Link  308 at Wed Jun 18 02:04:51 2014, MaxMem=  4294967296 cpu:         5.5
 (Enter /home/ztw1e12/g09/l303.exe)
 DipDrv:  MaxL=1.
 Leave Link  303 at Wed Jun 18 02:04:52 2014, MaxMem=  4294967296 cpu:         3.4
 (Enter /home/ztw1e12/g09/l401.exe)
 ExpMin= 1.03D-01 ExpMax= 1.38D+05 ExpMxC= 1.38D+05 IAcc=4 IRadAn=    199590 AccDes= 0.00D+00
 Harris functional with IExCor= 1009 and IRadAn=  199590 diagonalized for initial guess.
 HarFok:  IExCor= 1009 AccDes= 0.00D+00 IRadAn=    199590 IDoV= 1 UseB2=F ITyADJ=14
 ICtDFT=  3500011 ScaDFX=  1.000000  1.000000  1.000000  1.000000
 FoFCou: FMM=F IPFlag=           0 FMFlag=      100000 FMFlg1=           0
         NFxFlg=           0 DoJE=T BraDBF=F KetDBF=T FulRan=T
         wScrn=  0.000000 ICntrl=     500 IOpCl=  0 I1Cent=   200000004 NGrid=           0
         NMat0=    1 NMatS0=      1 NMatT0=    0 NMatD0=    1 NMtDS0=    0 NMtDT0=    0
 Petite list used in FoFCou.
 Harris En= -613.561085937951    
 JPrj=0 DoOrth=F DoCkMO=F.
 Leave Link  401 at Wed Jun 18 02:05:10 2014, MaxMem=  4294967296 cpu:       269.1
 (Enter /home/ztw1e12/g09/l502.exe)
 Closed shell SCF:
 Using DIIS extrapolation, IDIIS=  1040.
 Integral symmetry usage will be decided dynamically.
 IVT=     3801329 IEndB=     3801329 NGot=  4294967296 MDV=  4292435888
 LenX=  4292435888 LenY=  4291182608
 Requested convergence on RMS density matrix=1.00D-08 within 128 cycles.
 Requested convergence on MAX density matrix=1.00D-06.
 Requested convergence on             energy=1.00D-06.
 No special actions if energy rises.
 Fock matrices will be formed incrementally for  20 cycles.
 Integral accuracy reduced to 1.0D-05 until final iterations.

 Cycle   1  Pass 0  IDiag  1:
 FoFJK:  IHMeth= 1 ICntrl=       0 DoSepK=F KAlg= 0 I1Cent=   0 FoldK=F
 IRaf= 490000000 NMat=   1 IRICut=       1 DoRegI=T DoRafI=F ISym2E= 0.
 FoFCou: FMM=F IPFlag=           0 FMFlag=      100000 FMFlg1=           0
         NFxFlg=           0 DoJE=F BraDBF=F KetDBF=F FulRan=T
         wScrn=  0.000000 ICntrl=       0 IOpCl=  0 I1Cent=           0 NGrid=           0
         NMat0=    1 NMatS0=      1 NMatT0=    0 NMatD0=    1 NMtDS0=    0 NMtDT0=    0
 Symmetry not used in FoFCou.
 E= -613.184440532582    
 DIIS: error= 1.22D-01 at cycle   1 NSaved=   1.
 NSaved= 1 IEnMin= 1 EnMin= -613.184440532582     IErMin= 1 ErrMin= 1.22D-01
 ErrMax= 1.22D-01  0.00D+00 EMaxC= 1.00D-01 BMatC= 1.30D+01 BMatP= 1.30D+01
 IDIUse=3 WtCom= 0.00D+00 WtEn= 1.00D+00
 Coeff-Com:  0.100D+01
 Coeff-En:   0.100D+01
 Coeff:      0.100D+01
 Gap=     0.288 Goal=   None    Shift=    0.000
 GapD=    0.288 DampG=1.000 DampE=0.250 DampFc=0.2500 IDamp=-1.
 Damping current iteration by 2.50D-01
 RMSDP=2.12D-03 MaxDP=3.13D-01              OVMax= 2.82D-01

 Cycle   2  Pass 0  IDiag  1:
 RMSU=  5.28D-04    CP:  1.01D+00
 E= -613.340893036351     Delta-E=       -0.156452503769 Rises=F Damp=T
 DIIS: error= 9.61D-02 at cycle   2 NSaved=   2.
 NSaved= 2 IEnMin= 2 EnMin= -613.340893036351     IErMin= 2 ErrMin= 9.61D-02
 ErrMax= 9.61D-02  0.00D+00 EMaxC= 1.00D-01 BMatC= 7.66D+00 BMatP= 1.30D+01
 IDIUse=3 WtCom= 3.90D-02 WtEn= 9.61D-01
 Coeff-Com: -0.279D+01 0.379D+01
 Coeff-En:   0.000D+00 0.100D+01
 Coeff:     -0.109D+00 0.111D+01
 Gap=     0.230 Goal=   None    Shift=    0.000
 RMSDP=5.58D-04 MaxDP=5.41D-02 DE=-1.56D-01 OVMax= 1.41D-01

 Cycle   3  Pass 0  IDiag  1:
 RMSU=  4.54D-04    CP:  1.03D+00  1.61D+00
 E= -613.558115819067     Delta-E=       -0.217222782716 Rises=F Damp=F
 DIIS: error= 1.46D-02 at cycle   3 NSaved=   3.
 NSaved= 3 IEnMin= 3 EnMin= -613.558115819067     IErMin= 3 ErrMin= 1.46D-02
 ErrMax= 1.46D-02  0.00D+00 EMaxC= 1.00D-01 BMatC= 1.85D-01 BMatP= 7.66D+00
 IDIUse=3 WtCom= 8.54D-01 WtEn= 1.46D-01
 Coeff-Com:  0.853D+00-0.118D+01 0.133D+01
 Coeff-En:   0.537D-01 0.000D+00 0.946D+00
 Coeff:      0.737D+00-0.101D+01 0.127D+01
 Gap=     0.248 Goal=   None    Shift=    0.000
 RMSDP=3.79D-04 MaxDP=3.20D-02 DE=-2.17D-01 OVMax= 6.83D-02

 Cycle   4  Pass 0  IDiag  1:
 RMSU=  2.85D-04    CP:  1.03D+00  1.20D+00  7.22D-01
 E= -613.543013262750     Delta-E=        0.015102556317 Rises=F Damp=F
 DIIS: error= 9.00D-03 at cycle   4 NSaved=   4.
 NSaved= 4 IEnMin= 3 EnMin= -613.558115819067     IErMin= 4 ErrMin= 9.00D-03
 ErrMax= 9.00D-03  0.00D+00 EMaxC= 1.00D-01 BMatC= 1.04D-01 BMatP= 1.85D-01
 IDIUse=3 WtCom= 9.10D-01 WtEn= 9.00D-02
 Coeff-Com:  0.563D+00-0.784D+00 0.695D+00 0.525D+00
 Coeff-En:   0.000D+00 0.000D+00 0.560D+00 0.440D+00
 Coeff:      0.513D+00-0.713D+00 0.683D+00 0.517D+00
 Gap=     0.280 Goal=   None    Shift=    0.000
 RMSDP=2.74D-04 MaxDP=1.88D-02 DE= 1.51D-02 OVMax= 7.49D-02

 Cycle   5  Pass 0  IDiag  1:
 RMSU=  8.27D-05    CP:  1.02D+00  1.13D+00  8.39D-01  1.14D-01
 E= -613.617180296722     Delta-E=       -0.074167033971 Rises=F Damp=F
 DIIS: error= 2.92D-03 at cycle   5 NSaved=   5.
 NSaved= 5 IEnMin= 5 EnMin= -613.617180296722     IErMin= 5 ErrMin= 2.92D-03
 ErrMax= 2.92D-03  0.00D+00 EMaxC= 1.00D-01 BMatC= 1.21D-02 BMatP= 1.04D-01
 IDIUse=3 WtCom= 9.71D-01 WtEn= 2.92D-02
 Coeff-Com:  0.588D-01-0.884D-01 0.853D-01 0.252D+00 0.692D+00
 Coeff-En:   0.000D+00 0.000D+00 0.000D+00 0.629D-01 0.937D+00
 Coeff:      0.571D-01-0.859D-01 0.828D-01 0.246D+00 0.699D+00
 Gap=     0.269 Goal=   None    Shift=    0.000
 RMSDP=1.35D-04 MaxDP=1.45D-02 DE=-7.42D-02 OVMax= 2.47D-02

 Cycle   6  Pass 0  IDiag  1:
 RMSU=  6.03D-05    CP:  1.03D+00  1.18D+00  9.26D-01  4.41D-01  2.85D-01
 E= -613.624281975509     Delta-E=       -0.007101678788 Rises=F Damp=F
 DIIS: error= 7.66D-04 at cycle   6 NSaved=   6.
 NSaved= 6 IEnMin= 6 EnMin= -613.624281975509     IErMin= 6 ErrMin= 7.66D-04
 ErrMax= 7.66D-04  0.00D+00 EMaxC= 1.00D-01 BMatC= 8.74D-04 BMatP= 1.21D-02
 IDIUse=3 WtCom= 9.92D-01 WtEn= 7.66D-03
 Coeff-Com:  0.241D-01-0.332D-01 0.240D-02 0.565D-01 0.249D+00 0.701D+00
 Coeff-En:   0.000D+00 0.000D+00 0.000D+00 0.000D+00 0.000D+00 0.100D+01
 Coeff:      0.239D-01-0.330D-01 0.239D-02 0.561D-01 0.247D+00 0.704D+00
 Gap=     0.267 Goal=   None    Shift=    0.000
 RMSDP=2.85D-05 MaxDP=2.77D-03 DE=-7.10D-03 OVMax= 6.27D-03

 Cycle   7  Pass 0  IDiag  1:
 RMSU=  2.04D-05    CP:  1.03D+00  1.16D+00  9.16D-01  4.36D-01  4.55D-01
                    CP:  9.82D-01
 E= -613.624770689545     Delta-E=       -0.000488714036 Rises=F Damp=F
 DIIS: error= 3.65D-04 at cycle   7 NSaved=   7.
 NSaved= 7 IEnMin= 7 EnMin= -613.624770689545     IErMin= 7 ErrMin= 3.65D-04
 ErrMax= 3.65D-04  0.00D+00 EMaxC= 1.00D-01 BMatC= 1.82D-04 BMatP= 8.74D-04
 IDIUse=3 WtCom= 9.96D-01 WtEn= 3.65D-03
 Coeff-Com:  0.183D-01-0.244D-01 0.187D-02 0.152D-01 0.807D-01 0.386D+00
 Coeff-Com:  0.522D+00
 Coeff-En:   0.000D+00 0.000D+00 0.000D+00 0.000D+00 0.000D+00 0.133D+00
 Coeff-En:   0.867D+00
 Coeff:      0.182D-01-0.244D-01 0.186D-02 0.152D-01 0.804D-01 0.385D+00
 Coeff:      0.524D+00
 Gap=     0.267 Goal=   None    Shift=    0.000
 RMSDP=9.71D-06 MaxDP=9.00D-04 DE=-4.89D-04 OVMax= 2.46D-03

 Initial convergence to 1.0D-05 achieved.  Increase integral accuracy.
 Cycle   8  Pass 1  IDiag  1:
 E= -613.624908931345     Delta-E=       -0.000138241800 Rises=F Damp=F
 DIIS: error= 1.16D-04 at cycle   1 NSaved=   1.
 NSaved= 1 IEnMin= 1 EnMin= -613.624908931345     IErMin= 1 ErrMin= 1.16D-04
 ErrMax= 1.16D-04  0.00D+00 EMaxC= 1.00D-01 BMatC= 2.31D-05 BMatP= 2.31D-05
 IDIUse=3 WtCom= 9.99D-01 WtEn= 1.16D-03
 Coeff-Com:  0.100D+01
 Coeff-En:   0.100D+01
 Coeff:      0.100D+01
 Gap=     0.266 Goal=   None    Shift=    0.000
 RMSDP=9.71D-06 MaxDP=9.00D-04 DE=-1.38D-04 OVMax= 2.33D-03

 Cycle   9  Pass 1  IDiag  1:
 RMSU=  2.54D-05    CP:  1.00D+00
 E= -613.624879438301     Delta-E=        0.000029493044 Rises=F Damp=F
 DIIS: error= 2.50D-04 at cycle   2 NSaved=   2.
 NSaved= 2 IEnMin= 1 EnMin= -613.624908931345     IErMin= 1 ErrMin= 1.16D-04
 ErrMax= 2.50D-04  0.00D+00 EMaxC= 1.00D-01 BMatC= 6.20D-05 BMatP= 2.31D-05
 IDIUse=3 WtCom= 3.87D-01 WtEn= 6.13D-01
 Coeff-Com:  0.634D+00 0.366D+00
 Coeff-En:   0.726D+00 0.274D+00
 Coeff:      0.691D+00 0.309D+00
 Gap=     0.267 Goal=   None    Shift=    0.000
 RMSDP=5.46D-06 MaxDP=4.95D-04 DE= 2.95D-05 OVMax= 1.54D-03

 Cycle  10  Pass 1  IDiag  1:
 RMSU=  5.23D-06    CP:  1.00D+00  9.38D-01
 E= -613.624923274140     Delta-E=       -0.000043835839 Rises=F Damp=F
 DIIS: error= 1.80D-05 at cycle   3 NSaved=   3.
 NSaved= 3 IEnMin= 3 EnMin= -613.624923274140     IErMin= 3 ErrMin= 1.80D-05
 ErrMax= 1.80D-05  0.00D+00 EMaxC= 1.00D-01 BMatC= 3.37D-07 BMatP= 2.31D-05
 IDIUse=1 WtCom= 1.00D+00 WtEn= 0.00D+00
 Coeff-Com:  0.788D-01 0.498D-02 0.916D+00
 Coeff:      0.788D-01 0.498D-02 0.916D+00
 Gap=     0.267 Goal=   None    Shift=    0.000
 RMSDP=9.24D-07 MaxDP=7.60D-05 DE=-4.38D-05 OVMax= 1.20D-04

 Cycle  11  Pass 1  IDiag  1:
 RMSU=  7.86D-07    CP:  1.00D+00  9.46D-01  1.08D+00
 E= -613.624923355512     Delta-E=       -0.000000081372 Rises=F Damp=F
 DIIS: error= 1.01D-05 at cycle   4 NSaved=   4.
 NSaved= 4 IEnMin= 4 EnMin= -613.624923355512     IErMin= 4 ErrMin= 1.01D-05
 ErrMax= 1.01D-05  0.00D+00 EMaxC= 1.00D-01 BMatC= 1.58D-07 BMatP= 3.37D-07
 IDIUse=1 WtCom= 1.00D+00 WtEn= 0.00D+00
 Coeff-Com:  0.708D-02-0.148D-01 0.453D+00 0.555D+00
 Coeff:      0.708D-02-0.148D-01 0.453D+00 0.555D+00
 Gap=     0.267 Goal=   None    Shift=    0.000
 RMSDP=3.71D-07 MaxDP=3.61D-05 DE=-8.14D-08 OVMax= 7.48D-05

 Cycle  12  Pass 1  IDiag  1:
 RMSU=  2.50D-07    CP:  1.00D+00  9.48D-01  1.09D+00  6.60D-01
 E= -613.624923467844     Delta-E=       -0.000000112331 Rises=F Damp=F
 DIIS: error= 3.02D-06 at cycle   5 NSaved=   5.
 NSaved= 5 IEnMin= 5 EnMin= -613.624923467844     IErMin= 5 ErrMin= 3.02D-06
 ErrMax= 3.02D-06  0.00D+00 EMaxC= 1.00D-01 BMatC= 1.21D-08 BMatP= 1.58D-07
 IDIUse=1 WtCom= 1.00D+00 WtEn= 0.00D+00
 Coeff-Com: -0.206D-02-0.750D-02 0.163D+00 0.285D+00 0.561D+00
 Coeff:     -0.206D-02-0.750D-02 0.163D+00 0.285D+00 0.561D+00
 Gap=     0.267 Goal=   None    Shift=    0.000
 RMSDP=8.59D-08 MaxDP=8.84D-06 DE=-1.12D-07 OVMax= 1.95D-05

 Cycle  13  Pass 1  IDiag  1:
 RMSU=  7.47D-08    CP:  1.00D+00  9.49D-01  1.09D+00  6.97D-01  8.93D-01
 E= -613.624923476615     Delta-E=       -0.000000008771 Rises=F Damp=F
 DIIS: error= 6.22D-07 at cycle   6 NSaved=   6.
 NSaved= 6 IEnMin= 6 EnMin= -613.624923476615     IErMin= 6 ErrMin= 6.22D-07
 ErrMax= 6.22D-07  0.00D+00 EMaxC= 1.00D-01 BMatC= 4.76D-10 BMatP= 1.21D-08
 IDIUse=1 WtCom= 1.00D+00 WtEn= 0.00D+00
 Coeff-Com: -0.131D-02-0.248D-02 0.438D-01 0.887D-01 0.237D+00 0.635D+00
 Coeff:     -0.131D-02-0.248D-02 0.438D-01 0.887D-01 0.237D+00 0.635D+00
 Gap=     0.267 Goal=   None    Shift=    0.000
 RMSDP=2.65D-08 MaxDP=2.58D-06 DE=-8.77D-09 OVMax= 3.48D-06

 Cycle  14  Pass 1  IDiag  1:
 RMSU=  1.32D-08    CP:  1.00D+00  9.49D-01  1.09D+00  7.13D-01  9.45D-01
                    CP:  8.55D-01
 E= -613.624923476910     Delta-E=       -0.000000000295 Rises=F Damp=F
 DIIS: error= 2.64D-07 at cycle   7 NSaved=   7.
 NSaved= 7 IEnMin= 7 EnMin= -613.624923476910     IErMin= 7 ErrMin= 2.64D-07
 ErrMax= 2.64D-07  0.00D+00 EMaxC= 1.00D-01 BMatC= 4.64D-11 BMatP= 4.76D-10
 IDIUse=1 WtCom= 1.00D+00 WtEn= 0.00D+00
 Coeff-Com: -0.294D-03-0.177D-03-0.677D-04 0.467D-02 0.338D-01 0.253D+00
 Coeff-Com:  0.709D+00
 Coeff:     -0.294D-03-0.177D-03-0.677D-04 0.467D-02 0.338D-01 0.253D+00
 Coeff:      0.709D+00
 Gap=     0.267 Goal=   None    Shift=    0.000
 RMSDP=1.23D-08 MaxDP=1.39D-06 DE=-2.95D-10 OVMax= 1.34D-06

 Cycle  15  Pass 1  IDiag  1:
 RMSU=  7.35D-09    CP:  1.00D+00  9.49D-01  1.09D+00  7.17D-01  9.73D-01
                    CP:  9.24D-01  8.65D-01
 E= -613.624923476916     Delta-E=       -0.000000000006 Rises=F Damp=F
 DIIS: error= 1.04D-07 at cycle   8 NSaved=   8.
 NSaved= 8 IEnMin= 8 EnMin= -613.624923476916     IErMin= 8 ErrMin= 1.04D-07
 ErrMax= 1.04D-07  0.00D+00 EMaxC= 1.00D-01 BMatC= 9.41D-12 BMatP= 4.64D-11
 IDIUse=1 WtCom= 1.00D+00 WtEn= 0.00D+00
 Coeff-Com:  0.879D-05 0.247D-03-0.623D-02-0.914D-02-0.113D-01 0.539D-01
 Coeff-Com:  0.366D+00 0.607D+00
 Coeff:      0.879D-05 0.247D-03-0.623D-02-0.914D-02-0.113D-01 0.539D-01
 Coeff:      0.366D+00 0.607D+00
 Gap=     0.267 Goal=   None    Shift=    0.000
 RMSDP=2.92D-09 MaxDP=1.92D-07 DE=-6.37D-12 OVMax= 5.84D-07

 SCF Done:  E(RM06) =  -613.624923477     A.U. after   15 cycles
            NFock= 15  Conv=0.29D-08     -V/T= 2.0046
 KE= 6.107988149815D+02 PE=-3.205630925401D+03 EE= 1.094122508803D+03
 Leave Link  502 at Wed Jun 18 02:32:36 2014, MaxMem=  4294967296 cpu:     26261.5
 (Enter /home/ztw1e12/g09/l801.exe)
 DoSCS=F DFT=T ScalE2(SS,OS)=  1.000000  1.000000
 Range of M.O.s used for correlation:     1   932
 NBasis=  1036 NAE=    51 NBE=    51 NFC=     0 NFV=     0
 NROrb=    932 NOA=    51 NOB=    51 NVA=   881 NVB=   881

 **** Warning!!: The largest alpha MO coefficient is  0.10310299D+02

 Leave Link  801 at Wed Jun 18 02:32:36 2014, MaxMem=  4294967296 cpu:         0.4
 (Enter /home/ztw1e12/g09/l1002.exe)
 Minotr:  Closed shell wavefunction.
          IDoAtm=1111111111111111111111111111111
          Direct CPHF calculation.
          Differentiating once with respect to Fermi-contact.
          Electric field/nuclear overlap derivatives assumed to be zero.
          Requested convergence is 1.0D-10 RMS, and 1.0D-09 maximum.
          Secondary convergence is 1.0D-12 RMS, and 1.0D-12 maximum.
          NewPWx=T KeepS1=F KeepF1=F KeepIn=T MapXYZ=F SortEE=F KeepMc=T.
          MDV=    4294966050 using IRadAn=  199590.
 Using stored XC quadrature information.
          Solving linear equations simultaneously, MaxMat=       0.
          There are    31 degrees of freedom in the 1st order CPHF.  IDoFFX=0 NUNeed=    31.
     31 vectors produced by pass  0 Test12= 1.45D-17 3.23D-11 XBig12= 4.16D+01 2.57D+00.
 AX will form    31 AO Fock derivatives at one time.
 FoFJK:  IHMeth= 1 ICntrl=       0 DoSepK=F KAlg= 0 I1Cent=   0 FoldK=F
 IRaf= 510000000 NMat=  31 IRICut=       1 DoRegI=T DoRafI=F ISym2E=-1.
 FoFCou: FMM=F IPFlag=           0 FMFlag=      100000 FMFlg1=           0
         NFxFlg=           0 DoJE=F BraDBF=F KetDBF=F FulRan=T
         wScrn=  0.000000 ICntrl=       0 IOpCl=  0 I1Cent=           0 NGrid=           0
         NMat0=   31 NMatS0=      0 NMatT0=   31 NMatD0=   31 NMtDS0=    0 NMtDT0=    0
 Petite list used in FoFCou.
     31 vectors produced by pass  1 Test12= 1.45D-17 3.23D-11 XBig12= 3.47D-01 1.77D-01.
     31 vectors produced by pass  2 Test12= 1.45D-17 3.23D-11 XBig12= 1.71D-02 4.99D-02.
     31 vectors produced by pass  3 Test12= 1.45D-17 3.23D-11 XBig12= 3.80D-04 6.44D-03.
     31 vectors produced by pass  4 Test12= 1.45D-17 3.23D-11 XBig12= 6.04D-06 9.43D-04.
     31 vectors produced by pass  5 Test12= 1.45D-17 3.23D-11 XBig12= 1.43D-07 1.83D-04.
     31 vectors produced by pass  6 Test12= 1.45D-17 3.23D-11 XBig12= 4.87D-09 2.18D-05.
     31 vectors produced by pass  7 Test12= 1.45D-17 3.23D-11 XBig12= 1.51D-10 5.08D-06.
     31 vectors produced by pass  8 Test12= 1.45D-17 3.23D-11 XBig12= 3.55D-12 4.50D-07.
     31 vectors produced by pass  9 Test12= 1.45D-17 3.23D-11 XBig12= 8.64D-14 1.00D-07.
     31 vectors produced by pass 10 Test12= 1.45D-17 3.23D-11 XBig12= 3.64D-15 1.24D-08.
     31 vectors produced by pass 11 Test12= 1.45D-17 3.23D-11 XBig12= 3.53D-17 8.35D-10.
      6 vectors produced by pass 12 Test12= 1.45D-17 3.23D-11 XBig12= 3.03D-19 8.13D-11.
 InvSVY:  IOpt=1 It=  1 EMax= 7.99D-15
 Solved reduced A of dimension   378 with    31 vectors.
 Max diff in FC couplings:  IJMax=    11     1 Diff= 1.16D-03 IJMaxR=    28     2 DiffR= 7.41D-01
 Fermi Contact (FC) contribution to K (Hz):
                1             2             3             4             5 
      1  0.123400D+11
      2  0.273734D+02  0.123400D+11
      3 -0.110190D+01  0.188057D+02  0.123400D+11
      4 -0.453251D-01  0.307235D+00 -0.125526D-01  0.123400D+11
      5  0.351586D-02 -0.221421D-01  0.992821D-02  0.174673D+02  0.123400D+11
      6  0.100212D-02 -0.702858D-02  0.630631D-02  0.166386D+02 -0.808285D+00
      7  0.195379D-01  0.102443D-01  0.671584D-02  0.170818D+02 -0.843023D+00
      8 -0.935499D+01  0.292660D+01  0.433119D+00  0.455367D+00  0.211687D-01
      9  0.169688D+00  0.186798D+02 -0.751863D+00  0.102143D+01  0.324649D+00
     10  0.226802D-01  0.241136D+00  0.187995D+00 -0.135736D+00 -0.385735D-01
     11  0.286401D+02  0.138503D+02  0.167572D+00  0.555796D-01  0.211586D-02
     12  0.445972D+00  0.117636D+00 -0.219599D-01  0.595940D-03  0.249447D-04
     13 -0.414920D+00  0.106566D+01  0.336190D-02  0.103805D-02  0.303994D-03
     14  0.203597D+00 -0.946675D-01  0.186910D-01  0.926058D-03 -0.378301D-04
     15  0.185056D+00 -0.766236D-01  0.980703D-02 -0.688091D-03  0.413985D-04
     16  0.967156D+00 -0.245926D-01 -0.489428D-03  0.506523D-03  0.109281D-04
     17  0.107451D+00 -0.461382D+00  0.295251D+00  0.346453D-01  0.307156D-01
     18 -0.159608D+00  0.868621D+00 -0.831369D-01 -0.814619D-02 -0.148003D-02
     19 -0.190165D-02  0.104701D+00 -0.200871D-02 -0.100630D-02  0.274103D-03
     20  0.590177D-01  0.110280D-01  0.168321D-01  0.119067D-02  0.219669D-03
     21  0.730845D-01  0.483909D-01  0.229068D-01 -0.279888D-03  0.101723D-03
     22  0.462250D+00  0.868287D+00  0.225891D+00  0.664270D-01  0.494705D-02
     23  0.714528D+00 -0.692942D+00  0.108883D+01  0.169395D+02 -0.646957D+00
     24 -0.462946D-01  0.113650D+01 -0.278613D-01 -0.972836D+00  0.191895D+00
     25  0.127291D+00  0.406534D+00 -0.217695D-01  0.428659D+00  0.205764D+00
     26 -0.221782D-02  0.159955D-01  0.446484D-04  0.404203D+00 -0.312938D-02
     27  0.180977D-01  0.695827D-02  0.150839D-02  0.130730D+01  0.346731D-02
     28  0.246439D-02  0.487026D-04  0.553473D-03  0.245732D+00 -0.884041D-02
     29 -0.219011D+00  0.164297D+02 -0.887944D+00 -0.144276D+00  0.117735D+01
     30  0.100317D+01 -0.916752D+00  0.985793D-01  0.242774D+00 -0.583867D-02
     31  0.454913D-01 -0.434031D+00  0.223582D+00  0.113083D+01  0.363708D-01
                6             7             8             9            10 
      6  0.123400D+11
      7 -0.729961D+00  0.123400D+11
      8  0.492537D-03  0.956494D-01  0.123400D+11
      9  0.222836D+00  0.467294D+00  0.444001D+00  0.123400D+11
     10 -0.408736D-01 -0.438258D-01  0.677973D-02  0.318688D+02  0.123400D+11
     11  0.177700D-02 -0.246414D-02  0.646940D+01  0.105335D+01  0.164424D+00
     12 -0.762202D-04  0.180999D-03  0.485353D+00  0.542494D-01 -0.452867D-03
     13  0.471983D-03  0.512003D-03  0.609096D+00  0.312836D+00  0.145434D-01
     14  0.460941D-03  0.625365D-04  0.240788D+00 -0.556600D-02 -0.107795D-02
     15  0.376205D-03  0.224752D-04  0.238113D+00 -0.300589D-02 -0.101404D-02
     16  0.115320D-04  0.538860D-04  0.175825D+00  0.259383D-01 -0.914379D-03
     17  0.142498D-01  0.400239D-01  0.680614D-01  0.264868D+02  0.410608D+00
     18  0.114166D-03  0.154037D-02  0.757584D-01  0.126808D+02  0.978264D-01
     19  0.866905D-03  0.134040D-02 -0.314474D-03  0.342855D+00 -0.986008D-02
     20 -0.246383D-04  0.282003D-03  0.498904D-02  0.319470D+00 -0.742401D-02
     21 -0.160479D-03  0.252184D-03  0.252914D-02  0.421930D+00 -0.158922D-01
     22  0.383715D-02  0.451280D-02  0.628959D+00  0.578971D+01  0.423662D+00
     23 -0.538220D+00 -0.752211D+00 -0.922425D-02  0.334973D-03  0.146626D-02
     24  0.102300D+00  0.442339D+00  0.672732D-01 -0.347379D-01  0.386935D-02
     25  0.121746D+01  0.426810D+00  0.146468D+01  0.209377D-01 -0.736037D-03
     26 -0.816190D-02 -0.173658D-01  0.795568D-01  0.715471D-02  0.115395D-03
     27  0.771560D-01 -0.722113D-02 -0.420037D-01  0.743455D-03  0.263540D-03
     28  0.360351D-02 -0.300617D-02  0.634949D-01 -0.255422D-03 -0.121714D-03
     29  0.295943D+00  0.197726D+00  0.297297D+00  0.714226D+00  0.457284D+00
     30 -0.171794D-01 -0.534479D-02  0.628584D-01  0.751370D+00 -0.220371D-01
     31  0.257463D-02 -0.164341D-01 -0.171869D-01  0.182179D+01 -0.222028D-01
               11            12            13            14            15 
     11  0.123400D+11
     12  0.311019D+02  0.123400D+11
     13  0.168889D+02  0.301736D+00  0.123400D+11
     14 -0.613483D+00  0.513634D-01  0.195392D+02  0.123400D+11
     15 -0.504921D+00  0.177271D+00  0.203541D+02 -0.734262D+00  0.123400D+11
     16 -0.371852D+00  0.284931D+00  0.182837D+02 -0.729174D+00 -0.763409D+00
     17 -0.689369D-01 -0.614562D-03 -0.893218D-02  0.100785D-02  0.642729D-03
     18  0.172112D-01  0.134969D-02  0.111175D-01  0.133076D-02  0.848933D-03
     19  0.591939D-02  0.267747D-04  0.463651D-04 -0.454720D-04 -0.240496D-04
     20 -0.264951D-02 -0.149627D-03 -0.362038D-03  0.522711D-04 -0.275959D-04
     21  0.148533D-01 -0.315827D-05  0.220340D-02  0.139083D-03 -0.484906D-04
     22  0.170995D+00 -0.163168D-02  0.852850D-02  0.556801D-02  0.199814D-02
     23 -0.119719D-01  0.271159D-02 -0.366582D-02  0.190216D-02 -0.551588D-04
     24 -0.100474D-02  0.204957D-04  0.733806D-02  0.188392D-03 -0.192404D-03
     25  0.330446D+00 -0.508633D-02  0.166122D+00  0.368852D-01  0.478814D-02
     26  0.112671D+00 -0.244280D-02  0.483978D-01  0.142606D-02  0.142339D-02
     27  0.891782D-01  0.103624D-02  0.180637D-01  0.634537D-02  0.303074D-02
     28  0.107475D+00 -0.217228D-02  0.137322D-01  0.337875D-02  0.183935D-02
     29  0.890438D-01 -0.277919D-01 -0.116340D+00  0.781593D-01  0.927953D-01
     30 -0.404857D-01 -0.583300D-02 -0.417742D-02  0.205548D-02  0.363034D-02
     31  0.650302D-01 -0.851907D-02  0.447656D-03 -0.479356D-03 -0.172209D-03
               16            17            18            19            20 
     16  0.123400D+11
     17 -0.478200D-04  0.123400D+11
     18  0.295783D-03  0.272472D+02  0.123400D+11
     19  0.290742D-05 -0.752697D+00  0.170645D+02  0.123400D+11
     20  0.133048D-03 -0.118367D+01  0.177903D+02 -0.727258D+00  0.123400D+11
     21  0.372408D-03 -0.120484D+01  0.180644D+02 -0.736448D+00 -0.922784D+00
     22  0.183422D-02 -0.953724D+01  0.377563D+01  0.830567D+00  0.429628D+00
     23 -0.515548D-03 -0.518497D-01  0.430043D-02  0.233888D-03 -0.138203D-02
     24  0.203639D-03  0.162795D-01 -0.102225D-02  0.401443D-03  0.245268D-03
     25  0.640383D-02 -0.659614D-02  0.170621D-02  0.457560D-04 -0.176746D-03
     26  0.119249D-02 -0.386339D-03 -0.117205D-03 -0.260354D-04  0.000000D+00
     27  0.115976D-02  0.387900D-04  0.109192D-03  0.394226D-04 -0.141953D-04
     28  0.561481D-03 -0.156908D-02 -0.188870D-04 -0.158079D-04 -0.241384D-04
     29  0.125057D-02  0.140515D+01 -0.388337D-01 -0.152485D-02  0.132700D-01
     30  0.509354D-03 -0.343266D-02  0.160373D-01 -0.862365D-04 -0.143894D-03
     31  0.356913D-03  0.106274D+00  0.627066D-01  0.144181D-05  0.218434D-02
               21            22            23            24            25 
     21  0.123400D+11
     22  0.441495D+00  0.123400D+11
     23 -0.145408D-03  0.643091D-01  0.123400D+11
     24 -0.239701D-04  0.115634D-01  0.165733D+02  0.123400D+11
     25  0.185309D-03  0.352449D-01  0.175650D+02 -0.964745D+00  0.123400D+11
     26  0.573213D-04 -0.677895D-03 -0.780380D+00  0.434035D+00  0.178486D+02
     27  0.421457D-05 -0.290792D-04 -0.568736D+00  0.113119D+00  0.168250D+02
     28  0.110032D-04  0.112402D-02 -0.660142D+00  0.182576D+00  0.168863D+02
     29 -0.559751D-02  0.172140D+00  0.172344D+02 -0.934212D+00 -0.298991D+00
     30 -0.807957D-03 -0.104665D-02 -0.582072D+00  0.152995D+00  0.100783D+01
     31 -0.183054D-02 -0.450142D-02 -0.682016D+00  0.140246D+00  0.286898D+00
               26            27            28            29            30 
     26  0.123400D+11
     27 -0.766909D+00  0.123400D+11
     28 -0.852716D+00 -0.816605D+00  0.123400D+11
     29  0.190054D+00  0.320451D+00  0.122573D+01  0.123400D+11
     30 -0.186868D-01  0.723867D-03  0.288493D-01  0.175832D+02  0.123400D+11
     31 -0.629074D-02 -0.176761D-01 -0.519478D-02  0.168155D+02 -0.913750D+00
               31 
     31  0.123400D+11
 Fermi Contact (FC) contribution to J (Hz):
                1             2             3             4             5 
      1  0.243533D+11
      2  0.540221D+02  0.243533D+11
      3 -0.864653D+01  0.147566D+03  0.385007D+12
      4 -0.894503D-01  0.606335D+00 -0.984991D-01  0.243533D+11
      5  0.275886D-01 -0.173747D+00  0.309760D+00  0.137064D+03  0.385007D+12
      6  0.786351D-02 -0.551526D-01  0.196757D+00  0.130561D+03 -0.252185D+02
      7  0.153312D+00  0.803859D-01  0.209534D+00  0.134039D+03 -0.263023D+02
      8  0.995540D+01 -0.311443D+01 -0.183264D+01 -0.484593D+00 -0.895706D-01
      9  0.962490D-01  0.105954D+02 -0.169566D+01  0.579368D+00  0.732175D+00
     10  0.177969D+00  0.189217D+01  0.586544D+01 -0.106511D+01 -0.120349D+01
     11  0.162450D+02  0.785604D+01  0.377923D+00  0.315254D-01  0.477187D-02
     12  0.349950D+01  0.923081D+00 -0.685148D+00  0.467628D-02  0.778273D-03
     13 -0.818855D+00  0.210311D+01  0.263805D-01  0.204861D-02  0.238541D-02
     14  0.159760D+01 -0.742847D+00  0.583159D+00  0.726669D-02 -0.118030D-02
     15  0.145211D+01 -0.601258D+00  0.305979D+00 -0.539939D-02  0.129163D-02
     16  0.758918D+01 -0.192975D+00 -0.152701D-01  0.397463D-02  0.340956D-03
     17  0.212057D+00 -0.910549D+00  0.231681D+01  0.683734D-01  0.241023D+00
     18 -0.314991D+00  0.171425D+01 -0.652367D+00 -0.160767D-01 -0.116137D-01
     19 -0.149220D-01  0.821580D+00 -0.626717D-01 -0.789633D-02  0.855199D-02
     20  0.463106D+00  0.865356D-01  0.525162D+00  0.934304D-02  0.685365D-02
     21  0.573487D+00  0.379719D+00  0.714690D+00 -0.219626D-02  0.317374D-02
     22 -0.491917D+00 -0.924014D+00 -0.955807D+00 -0.706903D-01 -0.209323D-01
     23  0.141014D+01 -0.136754D+01  0.854391D+01  0.334306D+02 -0.507661D+01
     24 -0.363269D+00  0.891804D+01 -0.869270D+00 -0.763375D+01  0.598713D+01
     25  0.251211D+00  0.802305D+00 -0.170823D+00  0.845968D+00  0.161461D+01
     26 -0.174030D-01  0.125515D+00  0.139303D-02  0.317174D+01 -0.976365D-01
     27  0.142011D+00  0.546008D-01  0.470616D-01  0.102582D+02  0.108180D+00
     28  0.193378D-01  0.382165D-03  0.172683D-01  0.192823D+01 -0.275820D+00
     29 -0.432223D+00  0.324245D+02 -0.696761D+01 -0.284733D+00  0.923856D+01
     30  0.787175D+01 -0.719367D+01  0.307567D+01  0.190503D+01 -0.182166D+00
     31  0.356965D+00 -0.340580D+01  0.697575D+01  0.887355D+01  0.113477D+01
                6             7             8             9            10 
      6  0.385007D+12
      7 -0.227747D+02  0.385007D+12
      8 -0.208406D-02 -0.404719D+00  0.708114D+10
      9  0.502560D+00  0.105388D+01 -0.135801D+00  0.201170D+10
     10 -0.127525D+01 -0.136736D+01 -0.286869D-01  0.718732D+02  0.385007D+12
     11  0.400765D-02 -0.555735D-02 -0.197871D+01  0.171720D+00  0.370822D+00
     12 -0.237807D-02  0.564717D-02 -0.205366D+01  0.122348D+00 -0.141294D-01
     13  0.370361D-02  0.401763D-02 -0.648189D+00  0.177445D+00  0.114120D+00
     14  0.143813D-01  0.195114D-02 -0.101884D+01 -0.125529D-01 -0.336321D-01
     15  0.117376D-01  0.701226D-03 -0.100752D+01 -0.677915D-02 -0.316381D-01
     16  0.359799D-03  0.168124D-02 -0.743962D+00  0.584982D-01 -0.285286D-01
     17  0.111817D+00  0.314063D+00 -0.724296D-01  0.150236D+02  0.322200D+01
     18  0.895853D-03  0.120871D-01 -0.806206D-01  0.719272D+01  0.767634D+00
     19  0.270474D-01  0.418206D-01  0.133063D-02  0.773235D+00 -0.307634D+00
     20 -0.768715D-03  0.879850D-02 -0.211100D-01  0.720495D+00 -0.231629D+00
     21 -0.500693D-02  0.786814D-02 -0.107015D-01  0.951573D+00 -0.495835D+00
     22 -0.162361D-01 -0.190949D-01  0.360920D+00 -0.177082D+01 -0.179263D+01
     23 -0.422336D+01 -0.590253D+01  0.981627D-02  0.190001D-03  0.115056D-01
     24  0.319177D+01  0.138010D+02 -0.284651D+00 -0.783438D-01  0.120724D+00
     25  0.955329D+01  0.334914D+01 -0.155869D+01  0.118761D-01 -0.577561D-02
     26 -0.254651D+00 -0.541813D+00 -0.336627D+00  0.161359D-01  0.360032D-02
     27  0.240726D+01 -0.225299D+00  0.177729D+00  0.167670D-02  0.822243D-02
     28  0.112429D+00 -0.937924D-01 -0.268664D+00 -0.576050D-03 -0.379748D-02
     29  0.232224D+01  0.155154D+01 -0.316378D+00  0.405118D+00  0.358827D+01
     30 -0.535996D+00 -0.166757D+00 -0.265971D+00  0.169455D+01 -0.687555D+00
     31  0.803283D-01 -0.512743D+00  0.727225D-01  0.410866D+01 -0.692725D+00
               11            12            13            14            15 
     11  0.201170D+10
     12  0.701436D+02  0.385007D+12
     13  0.957958D+01  0.236769D+01  0.243533D+11
     14 -0.138358D+01  0.160253D+01  0.153322D+03  0.385007D+12
     15 -0.113874D+01  0.553084D+01  0.159717D+03 -0.229090D+02  0.385007D+12
     16 -0.838633D+00  0.888982D+01  0.143470D+03 -0.227502D+02 -0.238183D+02
     17 -0.391019D-01 -0.482241D-02 -0.176279D-01  0.790853D-02  0.504343D-02
     18  0.976239D-02  0.105909D-01  0.219406D-01  0.104423D-01  0.666150D-02
     19  0.133499D-01  0.835370D-03  0.363822D-03 -0.141872D-02 -0.750346D-03
     20 -0.597540D-02 -0.466834D-02 -0.284088D-02  0.163086D-02 -0.860991D-03
     21  0.334983D-01 -0.985379D-04  0.172899D-01  0.433937D-02 -0.151291D-02
     22 -0.523001D-01  0.690408D-02 -0.907587D-02 -0.235598D-01 -0.845466D-02
     23 -0.679063D-02  0.212776D-01 -0.723459D-02  0.149261D-01 -0.432826D-03
     24 -0.226597D-02  0.639465D-03  0.575810D-01  0.587783D-02 -0.600301D-02
     25  0.187433D+00 -0.399120D-01  0.327847D+00  0.289435D+00  0.375721D-01
     26  0.254105D+00 -0.762153D-01  0.379773D+00  0.444930D-01  0.444097D-01
     27  0.201122D+00  0.323306D-01  0.141744D+00  0.197975D+00  0.945591D-01
     28  0.242387D+00 -0.677751D-01  0.107755D+00  0.105417D+00  0.573876D-01
     29  0.505067D-01 -0.218081D+00 -0.229599D+00  0.613309D+00  0.728156D+00
     30 -0.913067D-01 -0.181989D+00 -0.327798D-01  0.641310D-01  0.113266D+00
     31  0.146662D+00 -0.265794D+00  0.351271D-02 -0.149559D-01 -0.537293D-02
               16            17            18            19            20 
     16  0.385007D+12
     17 -0.375239D-03  0.243533D+11
     18  0.232098D-02  0.537730D+02  0.243533D+11
     19  0.907115D-04 -0.590634D+01  0.133903D+03  0.385007D+12
     20  0.415110D-02 -0.928812D+01  0.139599D+03 -0.226904D+02  0.385007D+12
     21  0.116191D-01 -0.945426D+01  0.141749D+03 -0.229772D+02 -0.287908D+02
     22 -0.776109D-02  0.101493D+02 -0.401795D+01 -0.351435D+01 -0.181787D+01
     23 -0.404546D-02 -0.102327D+00  0.848700D-02  0.183530D-02 -0.108446D-01
     24  0.635351D-02  0.127744D+00 -0.802147D-02  0.125250D-01  0.765235D-02
     25  0.502503D-01 -0.130176D-01  0.336724D-02  0.359043D-03 -0.138691D-02
     26  0.372056D-01 -0.303157D-02 -0.919699D-03 -0.812304D-03  0.184963D-04
     27  0.361846D-01  0.304382D-03  0.856818D-03  0.122998D-02 -0.442893D-03
     28  0.175182D-01 -0.123124D-01 -0.148204D-03 -0.493205D-03 -0.753115D-03
     29  0.981314D-02  0.277310D+01 -0.766393D-01 -0.119654D-01  0.104128D+00
     30  0.158918D-01 -0.269357D-01  0.125843D+00 -0.269058D-02 -0.448949D-02
     31  0.111357D-01  0.833925D+00  0.492053D+00  0.449844D-04  0.681512D-01
               21            22            23            24            25 
     21  0.385007D+12
     22 -0.186808D+01  0.708114D+10
     23 -0.114101D-02 -0.684366D-01  0.243533D+11
     24 -0.747866D-03 -0.489280D-01  0.130049D+03  0.385007D+12
     25  0.145410D-02 -0.375069D-01  0.346649D+02 -0.757026D+01  0.243533D+11
     26  0.178842D-02  0.286836D-02 -0.612357D+01  0.135419D+02  0.140057D+03
     27  0.131494D-03  0.123042D-03 -0.446281D+01  0.352931D+01  0.132024D+03
     28  0.343300D-03 -0.475602D-02 -0.518007D+01  0.569637D+01  0.132505D+03
     29 -0.439231D-01 -0.183189D+00  0.340125D+02 -0.733067D+01 -0.590066D+00
     30 -0.252082D-01  0.442864D-02 -0.456746D+01  0.477344D+01  0.790833D+01
     31 -0.571128D-01  0.190468D-01 -0.535172D+01  0.437567D+01  0.225126D+01
               26            27            28            29            30 
     26  0.385007D+12
     27 -0.239275D+02  0.385007D+12
     28 -0.266047D+02 -0.254780D+02  0.385007D+12
     29  0.149134D+01  0.251455D+01  0.961818D+01  0.243533D+11
     30 -0.583028D+00  0.225846D-01  0.900097D+00  0.137974D+03  0.385007D+12
     31 -0.196271D+00 -0.551493D+00 -0.162077D+00  0.131950D+03 -0.285090D+02
               31 
     31  0.385007D+12
 End of Minotr F.D. properties file   721 does not exist.
 End of Minotr F.D. properties file   722 does not exist.
 End of Minotr F.D. properties file   788 does not exist.
 Leave Link 1002 at Wed Jun 18 09:22:54 2014, MaxMem=  4294967296 cpu:    392930.8
 (Enter /home/ztw1e12/g09/l601.exe)
 Copying SCF densities to generalized density rwf, IOpCl= 0 IROHF=0.

 **********************************************************************

            Population analysis using the SCF density.

 **********************************************************************

 Orbital symmetries:
       Occupied  (A) (A) (A) (A) (A) (A) (A) (A) (A) (A) (A) (A)
                 (A) (A) (A) (A) (A) (A) (A) (A) (A) (A) (A) (A)
                 (A) (A) (A) (A) (A) (A) (A) (A) (A) (A) (A) (A)
                 (A) (A) (A) (A) (A) (A) (A) (A) (A) (A) (A) (A)
                 (A) (A) (A)
       Virtual   (A) (A) (A) (A) (A) (A) (A) (A) (A) (A) (A) (A)
                 (A) (A) (A) (A) (A) (A) (A) (A) (A) (A) (A) (A)
                 (A) (A) (A) (A) (A) (A) (A) (A) (A) (A) (A) (A)
                 (A) (A) (A) (A) (A) (A) (A) (A) (A) (A) (A) (A)
                 (A) (A) (A) (A) (A) (A) (A) (A) (A) (A) (A) (A)
                 (A) (A) (A) (A) (A) (A) (A) (A) (A) (A) (A) (A)
                 (A) (A) (A) (A) (A) (A) (A) (A) (A) (A) (A) (A)
                 (A) (A) (A) (A) (A) (A) (A) (A) (A) (A) (A) (A)
                 (A) (A) (A) (A) (A) (A) (A) (A) (A) (A) (A) (A)
                 (A) (A) (A) (A) (A) (A) (A) (A) (A) (A) (A) (A)
                 (A) (A) (A) (A) (A) (A) (A) (A) (A) (A) (A) (A)
                 (A) (A) (A) (A) (A) (A) (A) (A) (A) (A) (A) (A)
                 (A) (A) (A) (A) (A) (A) (A) (A) (A) (A) (A) (A)
                 (A) (A) (A) (A) (A) (A) (A) (A) (A) (A) (A) (A)
                 (A) (A) (A) (A) (A) (A) (A) (A) (A) (A) (A) (A)
                 (A) (A) (A) (A) (A) (A) (A) (A) (A) (A) (A) (A)
                 (A) (A) (A) (A) (A) (A) (A) (A) (A) (A) (A) (A)
                 (A) (A) (A) (A) (A) (A) (A) (A) (A) (A) (A) (A)
                 (A) (A) (A) (A) (A) (A) (A) (A) (A) (A) (A) (A)
                 (A) (A) (A) (A) (A) (A) (A) (A) (A) (A) (A) (A)
                 (A) (A) (A) (A) (A) (A) (A) (A) (A) (A) (A) (A)
                 (A) (A) (A) (A) (A) (A) (A) (A) (A) (A) (A) (A)
                 (A) (A) (A) (A) (A) (A) (A) (A) (A) (A) (A) (A)
                 (A) (A) (A) (A) (A) (A) (A) (A) (A) (A) (A) (A)
                 (A) (A) (A) (A) (A) (A) (A) (A) (A) (A) (A) (A)
                 (A) (A) (A) (A) (A) (A) (A) (A) (A) (A) (A) (A)
                 (A) (A) (A) (A) (A) (A) (A) (A) (A) (A) (A) (A)
                 (A) (A) (A) (A) (A) (A) (A) (A) (A) (A) (A) (A)
                 (A) (A) (A) (A) (A) (A) (A) (A) (A) (A) (A) (A)
                 (A) (A) (A) (A) (A) (A) (A) (A) (A) (A) (A) (A)
                 (A) (A) (A) (A) (A) (A) (A) (A) (A) (A) (A) (A)
                 (A) (A) (A) (A) (A) (A) (A) (A) (A) (A) (A) (A)
                 (A) (A) (A) (A) (A) (A) (A) (A) (A) (A) (A) (A)
                 (A) (A) (A) (A) (A) (A) (A) (A) (A) (A) (A) (A)
                 (A) (A) (A) (A) (A) (A) (A) (A) (A) (A) (A) (A)
                 (A) (A) (A) (A) (A) (A) (A) (A) (A) (A) (A) (A)
                 (A) (A) (A) (A) (A) (A) (A) (A) (A) (A) (A) (A)
                 (A) (A) (A) (A) (A) (A) (A) (A) (A) (A) (A) (A)
                 (A) (A) (A) (A) (A) (A) (A) (A) (A) (A) (A) (A)
                 (A) (A) (A) (A) (A) (A) (A) (A) (A) (A) (A) (A)
                 (A) (A) (A) (A) (A) (A) (A) (A) (A) (A) (A) (A)
                 (A) (A) (A) (A) (A) (A) (A) (A) (A) (A) (A) (A)
                 (A) (A) (A) (A) (A) (A) (A) (A) (A) (A) (A) (A)
                 (A) (A) (A) (A) (A) (A) (A) (A) (A) (A) (A) (A)
                 (A) (A) (A) (A) (A) (A) (A) (A) (A) (A) (A) (A)
                 (A) (A) (A) (A) (A) (A) (A) (A) (A) (A) (A) (A)
                 (A) (A) (A) (A) (A) (A) (A) (A) (A) (A) (A) (A)
                 (A) (A) (A) (A) (A) (A) (A) (A) (A) (A) (A) (A)
                 (A) (A) (A) (A) (A) (A) (A) (A) (A) (A) (A) (A)
                 (A) (A) (A) (A) (A) (A) (A) (A) (A) (A) (A) (A)
                 (A) (A) (A) (A) (A) (A) (A) (A) (A) (A) (A) (A)
                 (A) (A) (A) (A) (A) (A) (A) (A) (A) (A) (A) (A)
                 (A) (A) (A) (A) (A) (A) (A) (A) (A) (A) (A) (A)
                 (A) (A) (A) (A) (A) (A) (A) (A) (A) (A) (A) (A)
                 (A) (A) (A) (A) (A) (A) (A) (A) (A) (A) (A) (A)
                 (A) (A) (A) (A) (A) (A) (A) (A) (A) (A) (A) (A)
                 (A) (A) (A) (A) (A) (A) (A) (A) (A) (A) (A) (A)
                 (A) (A) (A) (A) (A) (A) (A) (A) (A) (A) (A) (A)
                 (A) (A) (A) (A) (A) (A) (A) (A) (A) (A) (A) (A)
                 (A) (A) (A) (A) (A) (A) (A) (A) (A) (A) (A) (A)
                 (A) (A) (A) (A) (A) (A) (A) (A) (A) (A) (A) (A)
                 (A) (A) (A) (A) (A) (A) (A) (A) (A) (A) (A) (A)
                 (A) (A) (A) (A) (A) (A) (A) (A) (A) (A) (A) (A)
                 (A) (A) (A) (A) (A) (A) (A) (A) (A) (A) (A) (A)
                 (A) (A) (A) (A) (A) (A) (A) (A) (A) (A) (A) (A)
                 (A) (A) (A) (A) (A) (A) (A) (A) (A) (A) (A) (A)
                 (A) (A) (A) (A) (A) (A) (A) (A) (A) (A) (A) (A)
                 (A) (A) (A) (A) (A) (A) (A) (A) (A) (A) (A) (A)
                 (A) (A) (A) (A) (A) (A) (A) (A) (A) (A) (A) (A)
                 (A) (A) (A) (A) (A) (A) (A) (A) (A) (A) (A) (A)
                 (A) (A) (A) (A) (A) (A) (A) (A) (A) (A) (A) (A)
                 (A) (A) (A) (A) (A) (A) (A) (A) (A) (A) (A) (A)
                 (A) (A) (A) (A) (A) (A) (A) (A) (A) (A) (A) (A)
                 (A) (A) (A) (A) (A)
 The electronic state is 1-A.
 Alpha  occ. eigenvalues --  -19.17181 -19.16210 -14.41894 -14.41181 -10.33480
 Alpha  occ. eigenvalues --  -10.33114 -10.29163 -10.27186 -10.25798 -10.25495
 Alpha  occ. eigenvalues --  -10.23638 -10.23611 -10.22839  -1.05388  -1.03899
 Alpha  occ. eigenvalues --   -0.94355  -0.94024  -0.83756  -0.78470  -0.74195
 Alpha  occ. eigenvalues --   -0.72142  -0.70392  -0.66630  -0.60784  -0.59577
 Alpha  occ. eigenvalues --   -0.57885  -0.54778  -0.50507  -0.49363  -0.47900
 Alpha  occ. eigenvalues --   -0.47216  -0.46659  -0.45402  -0.45275  -0.44589
 Alpha  occ. eigenvalues --   -0.42432  -0.41550  -0.40930  -0.40561  -0.40323
 Alpha  occ. eigenvalues --   -0.39567  -0.38308  -0.38191  -0.36431  -0.35519
 Alpha  occ. eigenvalues --   -0.34807  -0.32791  -0.28065  -0.27621  -0.26152
 Alpha  occ. eigenvalues --   -0.25829
 Alpha virt. eigenvalues --    0.00842   0.02538   0.02683   0.03727   0.04490
 Alpha virt. eigenvalues --    0.05138   0.06937   0.07232   0.08208   0.08588
 Alpha virt. eigenvalues --    0.09756   0.10414   0.11304   0.11573   0.11930
 Alpha virt. eigenvalues --    0.12259   0.12601   0.12758   0.13655   0.14925
 Alpha virt. eigenvalues --    0.15898   0.17460   0.18192   0.19441   0.20109
 Alpha virt. eigenvalues --    0.21603   0.23282   0.23659   0.24260   0.25275
 Alpha virt. eigenvalues --    0.25912   0.26399   0.27052   0.27614   0.27976
 Alpha virt. eigenvalues --    0.28384   0.28915   0.29867   0.30989   0.31390
 Alpha virt. eigenvalues --    0.32555   0.33886   0.34412   0.34755   0.35487
 Alpha virt. eigenvalues --    0.36928   0.37323   0.37623   0.38394   0.38640
 Alpha virt. eigenvalues --    0.39371   0.40585   0.41006   0.41094   0.41481
 Alpha virt. eigenvalues --    0.41725   0.42195   0.42454   0.43058   0.43333
 Alpha virt. eigenvalues --    0.43512   0.44736   0.45196   0.45854   0.46015
 Alpha virt. eigenvalues --    0.46341   0.46700   0.47953   0.48226   0.49107
 Alpha virt. eigenvalues --    0.50009   0.50731   0.51580   0.52219   0.53003
 Alpha virt. eigenvalues --    0.53359   0.54298   0.55688   0.56302   0.56772
 Alpha virt. eigenvalues --    0.57417   0.59335   0.60245   0.60699   0.61827
 Alpha virt. eigenvalues --    0.63211   0.63543   0.65112   0.66449   0.67804
 Alpha virt. eigenvalues --    0.69657   0.70588   0.71984   0.72647   0.73376
 Alpha virt. eigenvalues --    0.74624   0.75982   0.76974   0.77849   0.78575
 Alpha virt. eigenvalues --    0.79029   0.79756   0.82692   0.83631   0.83728
 Alpha virt. eigenvalues --    0.84969   0.85344   0.86180   0.87484   0.87962
 Alpha virt. eigenvalues --    0.88458   0.89134   0.89467   0.90642   0.91624
 Alpha virt. eigenvalues --    0.92519   0.93862   0.94557   0.95444   0.95673
 Alpha virt. eigenvalues --    0.95860   0.96430   0.97018   0.97514   0.97983
 Alpha virt. eigenvalues --    0.99454   1.00694   1.01810   1.02890   1.03301
 Alpha virt. eigenvalues --    1.03946   1.04386   1.05475   1.06260   1.06489
 Alpha virt. eigenvalues --    1.06927   1.07396   1.08124   1.09814   1.11244
 Alpha virt. eigenvalues --    1.11286   1.11693   1.12902   1.14127   1.14330
 Alpha virt. eigenvalues --    1.14491   1.16037   1.17382   1.17977   1.19295
 Alpha virt. eigenvalues --    1.19458   1.19940   1.20793   1.21523   1.22041
 Alpha virt. eigenvalues --    1.22130   1.22761   1.23097   1.23603   1.24218
 Alpha virt. eigenvalues --    1.24768   1.25501   1.25824   1.26645   1.27460
 Alpha virt. eigenvalues --    1.27973   1.28157   1.28899   1.29203   1.30065
 Alpha virt. eigenvalues --    1.30758   1.31317   1.32571   1.32949   1.33447
 Alpha virt. eigenvalues --    1.34496   1.35054   1.35681   1.36675   1.37197
 Alpha virt. eigenvalues --    1.38539   1.38925   1.39556   1.41240   1.43384
 Alpha virt. eigenvalues --    1.43554   1.44085   1.44825   1.47592   1.47633
 Alpha virt. eigenvalues --    1.49437   1.50844   1.53395   1.53418   1.55493
 Alpha virt. eigenvalues --    1.58026   1.59483   1.61796   1.63932   1.64548
 Alpha virt. eigenvalues --    1.66902   1.68423   1.69226   1.71528   1.72638
 Alpha virt. eigenvalues --    1.75008   1.76852   1.77535   1.80520   1.82955
 Alpha virt. eigenvalues --    1.84387   1.88471   1.90572   1.90834   1.92334
 Alpha virt. eigenvalues --    1.94025   1.96420   1.97615   1.98456   1.99240
 Alpha virt. eigenvalues --    2.00909   2.03361   2.05252   2.05507   2.08563
 Alpha virt. eigenvalues --    2.09600   2.12065   2.13218   2.14584   2.17854
 Alpha virt. eigenvalues --    2.18411   2.19626   2.20982   2.23005   2.24354
 Alpha virt. eigenvalues --    2.25036   2.26184   2.27446   2.30117   2.31839
 Alpha virt. eigenvalues --    2.32500   2.34584   2.36465   2.37566   2.39934
 Alpha virt. eigenvalues --    2.40846   2.41738   2.43105   2.43156   2.45287
 Alpha virt. eigenvalues --    2.45562   2.47115   2.47301   2.47772   2.49622
 Alpha virt. eigenvalues --    2.50326   2.51478   2.53600   2.54943   2.55351
 Alpha virt. eigenvalues --    2.56516   2.57054   2.59166   2.60191   2.62764
 Alpha virt. eigenvalues --    2.64903   2.65891   2.66268   2.68246   2.68778
 Alpha virt. eigenvalues --    2.69398   2.71140   2.71393   2.72606   2.73357
 Alpha virt. eigenvalues --    2.74220   2.74615   2.75987   2.77085   2.78137
 Alpha virt. eigenvalues --    2.79469   2.79781   2.80656   2.82499   2.83436
 Alpha virt. eigenvalues --    2.83971   2.85498   2.85763   2.86336   2.87185
 Alpha virt. eigenvalues --    2.88639   2.89225   2.89466   2.91150   2.92508
 Alpha virt. eigenvalues --    2.92949   2.93862   2.94182   2.94798   2.95984
 Alpha virt. eigenvalues --    2.96849   2.97631   2.98002   2.98821   2.99076
 Alpha virt. eigenvalues --    2.99439   3.00399   3.02116   3.02157   3.02744
 Alpha virt. eigenvalues --    3.03283   3.04357   3.04709   3.05370   3.06573
 Alpha virt. eigenvalues --    3.06801   3.07921   3.08854   3.10180   3.10237
 Alpha virt. eigenvalues --    3.11520   3.12548   3.12984   3.14733   3.15127
 Alpha virt. eigenvalues --    3.15994   3.17911   3.18616   3.18936   3.21070
 Alpha virt. eigenvalues --    3.21545   3.22050   3.23791   3.24523   3.25357
 Alpha virt. eigenvalues --    3.25807   3.26758   3.27674   3.28462   3.28609
 Alpha virt. eigenvalues --    3.29289   3.29782   3.30825   3.31872   3.32316
 Alpha virt. eigenvalues --    3.32631   3.33618   3.34116   3.36176   3.37092
 Alpha virt. eigenvalues --    3.37738   3.37995   3.38689   3.39649   3.40861
 Alpha virt. eigenvalues --    3.41762   3.42355   3.42675   3.43646   3.44716
 Alpha virt. eigenvalues --    3.45163   3.46173   3.47550   3.47858   3.48692
 Alpha virt. eigenvalues --    3.49269   3.49737   3.50540   3.52023   3.52778
 Alpha virt. eigenvalues --    3.53799   3.56685   3.57424   3.57908   3.59251
 Alpha virt. eigenvalues --    3.60272   3.61588   3.61700   3.64462   3.64924
 Alpha virt. eigenvalues --    3.65942   3.67536   3.68363   3.69709   3.70472
 Alpha virt. eigenvalues --    3.71811   3.72697   3.73095   3.74260   3.76287
 Alpha virt. eigenvalues --    3.77383   3.77888   3.78709   3.79454   3.80454
 Alpha virt. eigenvalues --    3.81414   3.81716   3.83339   3.83979   3.85486
 Alpha virt. eigenvalues --    3.86001   3.86357   3.87948   3.88853   3.89904
 Alpha virt. eigenvalues --    3.91087   3.92269   3.93630   3.94313   3.94942
 Alpha virt. eigenvalues --    3.95414   3.96880   3.97193   3.99241   3.99771
 Alpha virt. eigenvalues --    4.00692   4.01587   4.02641   4.03883   4.05780
 Alpha virt. eigenvalues --    4.06647   4.07469   4.08630   4.09785   4.10482
 Alpha virt. eigenvalues --    4.11209   4.12616   4.13278   4.13951   4.14532
 Alpha virt. eigenvalues --    4.16070   4.17147   4.17687   4.18238   4.19002
 Alpha virt. eigenvalues --    4.19880   4.21653   4.23354   4.24049   4.24774
 Alpha virt. eigenvalues --    4.25717   4.26255   4.26867   4.28561   4.29454
 Alpha virt. eigenvalues --    4.30159   4.30607   4.33360   4.34445   4.35397
 Alpha virt. eigenvalues --    4.36782   4.37317   4.38954   4.42261   4.42938
 Alpha virt. eigenvalues --    4.44035   4.45459   4.47095   4.48894   4.48934
 Alpha virt. eigenvalues --    4.51225   4.51878   4.53168   4.53430   4.54559
 Alpha virt. eigenvalues --    4.57417   4.58412   4.59422   4.60195   4.61272
 Alpha virt. eigenvalues --    4.61539   4.63184   4.63299   4.64638   4.65476
 Alpha virt. eigenvalues --    4.67509   4.68101   4.69919   4.70860   4.71820
 Alpha virt. eigenvalues --    4.73697   4.75157   4.75652   4.76107   4.78324
 Alpha virt. eigenvalues --    4.79255   4.79951   4.81998   4.82782   4.84147
 Alpha virt. eigenvalues --    4.85145   4.87053   4.90291   4.90684   4.91206
 Alpha virt. eigenvalues --    4.92171   4.93837   4.94684   4.95993   4.96683
 Alpha virt. eigenvalues --    4.98228   5.00290   5.01378   5.02321   5.03244
 Alpha virt. eigenvalues --    5.04074   5.06540   5.06946   5.07632   5.08868
 Alpha virt. eigenvalues --    5.10091   5.12669   5.13562   5.14462   5.15315
 Alpha virt. eigenvalues --    5.16410   5.17867   5.18490   5.19463   5.20606
 Alpha virt. eigenvalues --    5.21836   5.22206   5.22589   5.24844   5.26111
 Alpha virt. eigenvalues --    5.27377   5.28237   5.28393   5.30742   5.31002
 Alpha virt. eigenvalues --    5.32632   5.33498   5.36681   5.37965   5.39664
 Alpha virt. eigenvalues --    5.42656   5.43117   5.45593   5.47307   5.51038
 Alpha virt. eigenvalues --    5.52311   5.53634   5.55637   5.57738   5.58749
 Alpha virt. eigenvalues --    5.60640   5.62656   5.64096   5.65604   5.66087
 Alpha virt. eigenvalues --    5.67037   5.68782   5.69525   5.72174   5.72890
 Alpha virt. eigenvalues --    5.75526   5.76375   5.78440   5.79836   5.81131
 Alpha virt. eigenvalues --    5.82670   5.83654   5.85827   5.87998   5.88766
 Alpha virt. eigenvalues --    5.91615   5.93458   5.96192   6.02108   6.05879
 Alpha virt. eigenvalues --    6.11697   6.18930   6.21610   6.23532   6.27188
 Alpha virt. eigenvalues --    6.52047   6.53651   6.58505   6.62750   6.65430
 Alpha virt. eigenvalues --    6.66659   6.77758   6.82215   6.90661   6.92511
 Alpha virt. eigenvalues --    6.93471   6.97204   7.18298   7.20217   7.24775
 Alpha virt. eigenvalues --    7.27892   8.13515   8.33303   8.68068   8.73987
 Alpha virt. eigenvalues --    8.78597   8.79081   8.81411   8.83152   8.84370
 Alpha virt. eigenvalues --    8.87678   8.88425   8.88671   8.89277   8.91836
 Alpha virt. eigenvalues --    8.92891   8.96896   8.98303   8.98958   9.00920
 Alpha virt. eigenvalues --    9.03817   9.10838   9.12430   9.14988   9.16499
 Alpha virt. eigenvalues --    9.23099   9.60225   9.62364   9.77439   9.83592
 Alpha virt. eigenvalues --    9.93174   9.94397  10.10286  10.12613  10.15094
 Alpha virt. eigenvalues --   10.18165  10.19483  10.21146  10.21690  10.22801
 Alpha virt. eigenvalues --   10.28756  10.30558  10.31722  10.35066  10.35874
 Alpha virt. eigenvalues --   10.42276  11.76268  11.82439  12.03484  12.14075
 Alpha virt. eigenvalues --   12.15819  12.22009  12.23471  12.26680  12.31292
 Alpha virt. eigenvalues --   12.38934  12.50101  12.56300  12.59118  12.83399
 Alpha virt. eigenvalues --   12.93698  14.97278  15.04903  15.24438  15.28060
 Alpha virt. eigenvalues --   15.99931  16.06226  16.83832  16.90725  22.01510
 Alpha virt. eigenvalues --   22.11793  40.17430  40.30009  40.66738  40.68632
 Alpha virt. eigenvalues --   40.69624  40.71328  40.72021  40.74307  40.76474
 Alpha virt. eigenvalues --   40.78030  40.80542  40.82049  40.82733  40.83024
 Alpha virt. eigenvalues --   40.83945  40.83977  40.84547  40.84867  40.86446
 Alpha virt. eigenvalues --   40.87540  40.87849  40.89209  40.90587  40.91262
 Alpha virt. eigenvalues --   40.91512  40.91855  40.93089  46.33697  46.44145
 Alpha virt. eigenvalues --   46.48033  46.54131  46.56403  46.58514  46.63073
 Alpha virt. eigenvalues --   46.73461  46.81679  54.46282  54.46872  55.77852
 Alpha virt. eigenvalues --   55.84619  55.98029  55.99066  56.06801  56.17702
 Alpha virt. eigenvalues --   56.19393  56.22808  56.28571  56.29593  56.37315
 Alpha virt. eigenvalues --   56.44483  56.49499  56.51460  56.60592  56.66709
 Alpha virt. eigenvalues --   57.47171  57.50798  57.99587  58.02610  58.19315
 Alpha virt. eigenvalues --   58.25890  64.71003  64.77341  73.94427  73.98812
 Alpha virt. eigenvalues --   74.10155  74.11801  74.64089  74.67481  86.07293
 Alpha virt. eigenvalues --   86.16522 165.43017 165.52074 165.57147 165.62098
 Alpha virt. eigenvalues --  165.64296 165.66033 165.69648 165.78934 165.86237
 Alpha virt. eigenvalues --  226.53711 226.60865 230.58104 230.64047 235.43529
 Alpha virt. eigenvalues --  235.82576 236.31014 236.37981 236.53928 236.72886
 Alpha virt. eigenvalues --  236.79201 237.15643 237.48858 237.51253 237.80879
 Alpha virt. eigenvalues --  237.86683 238.08836 238.28011 238.30744 238.73552
 Alpha virt. eigenvalues --  308.80876 308.89120 624.54418 624.60953 624.62572
 Alpha virt. eigenvalues --  624.68044 624.69136 624.72767 624.75341 624.83127
 Alpha virt. eigenvalues --  624.88263 793.91701 794.66922 825.57724 827.13112
 Alpha virt. eigenvalues --  827.26648 827.95412 828.32615 828.36568 828.88063
 Alpha virt. eigenvalues --  830.41489 830.74515 831.15426 832.09579 832.23372
 Alpha virt. eigenvalues --  832.97579 833.48952 833.67776 835.15583 868.34270
 Alpha virt. eigenvalues --  868.401471165.935901166.011282484.210672485.81174
 Alpha virt. eigenvalues -- 2587.123202589.685492595.804132596.250172596.42090
 Alpha virt. eigenvalues -- 2598.088652598.101072602.015282605.220612605.36020
 Alpha virt. eigenvalues -- 2606.785672607.948462609.798932610.284392611.79960
 Alpha virt. eigenvalues -- 2613.288192740.320362740.344322740.366502740.41120
 Alpha virt. eigenvalues -- 2740.426362740.507562740.516682740.571212740.58559
 Alpha virt. eigenvalues -- 3787.321573787.380645073.317215073.384248285.80641
 Alpha virt. eigenvalues -- 8297.202418624.560658634.183128637.338498639.42386
 Alpha virt. eigenvalues -- 8640.061908647.381978647.811988661.819738662.12573
 Alpha virt. eigenvalues -- 8668.138308675.754858676.157048683.632258687.16587
 Alpha virt. eigenvalues -- 8688.372998699.76380******************************
 Alpha virt. eigenvalues -- **************************************************
 Alpha virt. eigenvalues -- **************************************************
 Alpha virt. eigenvalues -- **************************************************
 Alpha virt. eigenvalues -- **************************************************
 Alpha virt. eigenvalues -- **************************************************
 Alpha virt. eigenvalues -- **************************************************
 Alpha virt. eigenvalues -- **************************************************
 Alpha virt. eigenvalues -- **********
          Condensed to atoms (all electrons):
               1          2          3          4          5          6
     1  C    4.656893   0.179001  -0.058138  -0.005990  -0.000015   0.001066
     2  C    0.179001   5.316401   0.404354   0.007931  -0.000442  -0.004720
     3  H   -0.058138   0.404354   0.495348  -0.000037   0.000059  -0.000201
     4  C   -0.005990   0.007931  -0.000037   5.025171   0.395188   0.408388
     5  H   -0.000015  -0.000442   0.000059   0.395188   0.531405  -0.008097
     6  H    0.001066  -0.004720  -0.000201   0.408388  -0.008097   0.554106
     7  H   -0.004177   0.005646   0.000768   0.385774  -0.010687  -0.033010
     8  O    0.710612  -0.083259   0.004501  -0.003196   0.000065  -0.000051
     9  N   -0.064888   0.321076  -0.035788  -0.011521   0.000524  -0.001055
    10  H    0.002347  -0.036556   0.002406   0.003020   0.000246   0.002494
    11  N    0.301413  -0.119065   0.008758  -0.000133   0.000009  -0.000035
    12  H   -0.022812   0.007933   0.000215   0.000048   0.000000  -0.000006
    13  C   -0.039579   0.009963  -0.001114   0.000014  -0.000002   0.000002
    14  H    0.003615   0.000687   0.000114   0.000020  -0.000002   0.000000
    15  H   -0.010375  -0.000075  -0.000308   0.000002   0.000000   0.000000
    16  H    0.007247   0.000506  -0.000154   0.000000   0.000000   0.000000
    17  C   -0.006146  -0.053071   0.001647   0.000450   0.000024  -0.000047
    18  C   -0.005389   0.017134   0.002325  -0.000093   0.000004   0.000020
    19  H    0.000436  -0.000277  -0.000331   0.000158  -0.000009   0.000074
    20  H   -0.000131  -0.000477   0.000177   0.000001   0.000001  -0.000017
    21  H    0.000743  -0.000789  -0.000201   0.000003  -0.000002   0.000008
    22  O   -0.003405   0.017628   0.019002   0.000030   0.000000   0.000004
    23  C   -0.002574   0.009085   0.006868   0.331840  -0.036227  -0.051070
    24  H    0.000022   0.008337  -0.000265  -0.040710  -0.007067  -0.005708
    25  C    0.006166  -0.019864  -0.000098  -0.050685  -0.003729   0.007670
    26  H    0.019079   0.001881  -0.000127  -0.002571  -0.000816   0.000172
    27  H   -0.002696  -0.001599  -0.000065   0.007802  -0.000182  -0.000488
    28  H   -0.000573   0.000019   0.000037  -0.004220   0.004551  -0.000242
    29  C   -0.015566   0.272250  -0.036559  -0.040281   0.008572   0.002479
    30  H    0.009870  -0.055748  -0.010349  -0.006564  -0.000551   0.004231
    31  H    0.000425  -0.050353  -0.007231   0.007415  -0.000514   0.000485
               7          8          9         10         11         12
     1  C   -0.004177   0.710612  -0.064888   0.002347   0.301413  -0.022812
     2  C    0.005646  -0.083259   0.321076  -0.036556  -0.119065   0.007933
[...]
 Alpha virt. eigenvalues --    4.32534   4.33343   4.34894   4.36342   4.37058
 Alpha virt. eigenvalues --    4.38050   4.39222   4.40934   4.43461   4.45221
 Alpha virt. eigenvalues --    4.46370   4.47142   4.48919   4.50151   4.52097
 Alpha virt. eigenvalues --    4.53630   4.55276   4.56328   4.57973   4.58499
 Alpha virt. eigenvalues --    4.60909   4.63053   4.65012   4.65823   4.67794
 Alpha virt. eigenvalues --    4.68335   4.69571   4.70553   4.72105   4.73274
 Alpha virt. eigenvalues --    4.74246   4.75668   4.77123   4.77857   4.79166
 Alpha virt. eigenvalues --    4.79846   4.81168   4.82992   4.84152   4.85419
 Alpha virt. eigenvalues --    4.85911   4.86646   4.88245   4.89609   4.91605
 Alpha virt. eigenvalues --    4.93068   4.93438   4.94535   4.95440   4.96153
 Alpha virt. eigenvalues --    4.97010   4.97585   5.00385   5.01185   5.02133
 Alpha virt. eigenvalues --    5.03369   5.03493   5.05519   5.05774   5.08227
 Alpha virt. eigenvalues --    5.08891   5.09530   5.10882   5.12747   5.13002
 Alpha virt. eigenvalues --    5.14266   5.14640   5.15753   5.16611   5.17471
 Alpha virt. eigenvalues --    5.19676   5.20560   5.21259   5.21918   5.23193
 Alpha virt. eigenvalues --    5.23735   5.24852   5.27533   5.27801   5.29117
 Alpha virt. eigenvalues --    5.29989   5.30526   5.32267   5.32574   5.34384
 Alpha virt. eigenvalues --    5.34836   5.36161   5.37178   5.39184   5.39973
 Alpha virt. eigenvalues --    5.43390   5.46435   5.49530   5.52646   5.54719
 Alpha virt. eigenvalues --    5.57463   5.58936   5.63012   5.65157   5.72077
 Alpha virt. eigenvalues --    5.73228   5.75695   5.76589   5.78424   5.78692
 Alpha virt. eigenvalues --    5.80678   5.81793   5.83264   5.84705   5.88883
 Alpha virt. eigenvalues --    5.91170   5.91965   5.93158   5.97118   5.98644
 Alpha virt. eigenvalues --    5.99765   6.01829   6.03007   6.06244   6.09103
 Alpha virt. eigenvalues --    6.22150   6.27767   6.35934   6.40808   6.48751
 Alpha virt. eigenvalues --    6.52789   6.54262   6.58156   6.68020   6.70064
 Alpha virt. eigenvalues --    6.88430   6.89869   6.92698   6.98229   7.10346
 Alpha virt. eigenvalues --    7.14575   7.16759   7.18003   9.49527   9.97917
 Alpha virt. eigenvalues --   11.62056  12.12545  12.40772  12.63664  12.98204
 Alpha virt. eigenvalues --   13.39003  13.56761  13.59718  13.70643  13.76895
 Alpha virt. eigenvalues --   13.97157
          Condensed to atoms (all electrons):
               1          2          3          4          5          6
     1  C    4.816930   0.139275  -0.064997  -0.004212  -0.000060   0.001071
     2  C    0.139275   5.445926   0.445430   0.004375  -0.000532  -0.004595
     3  H   -0.064997   0.445430   0.451841  -0.000204   0.000056  -0.000223
     4  C   -0.004212   0.004375  -0.000204   5.197083   0.401364   0.403761
     5  H   -0.000060  -0.000532   0.000056   0.401364   0.515301  -0.012589
     6  H    0.001071  -0.004595  -0.000223   0.403761  -0.012589   0.546971
     7  H   -0.004371   0.006266   0.000674   0.384378  -0.017017  -0.039490
     8  O    0.700984  -0.075581   0.002532  -0.003136   0.000059  -0.000068
     9  N   -0.062587   0.268008  -0.038758  -0.009224   0.000467  -0.001065
    10  H    0.003563  -0.035998   0.000898   0.001688   0.000496   0.001631
    11  N    0.299455  -0.090708   0.004072  -0.000263   0.000011  -0.000033
    12  H   -0.019558   0.005633  -0.001033   0.000051   0.000000  -0.000005
    13  C   -0.060836   0.009220  -0.000922   0.000018  -0.000002   0.000002
    14  H    0.003052   0.000567   0.000121   0.000024  -0.000002   0.000000
    15  H   -0.010278  -0.000101  -0.000285   0.000001   0.000000   0.000000
    16  H    0.008421   0.000481  -0.000124   0.000000   0.000000   0.000000
    17  C   -0.005779  -0.063584   0.000930   0.000463   0.000018  -0.000060
    18  C   -0.003998   0.013780   0.002112   0.000007   0.000004   0.000032
    19  H    0.000260   0.000529  -0.000315   0.000149  -0.000012   0.000080
    20  H   -0.000165  -0.000442   0.000161  -0.000002   0.000001  -0.000018
    21  H    0.000689  -0.000783  -0.000176   0.000001  -0.000002   0.000009
    22  O   -0.000409   0.015551   0.018231   0.000039   0.000000   0.000004
    23  C   -0.006298  -0.002644   0.006129   0.252688  -0.035688  -0.049856
    24  H   -0.000421   0.009971  -0.000066  -0.038834  -0.007379  -0.006265
    25  C    0.001938  -0.012183  -0.000269  -0.060931  -0.004679   0.007800
    26  H    0.016462   0.003716  -0.000077  -0.002221  -0.000646   0.000093
    27  H   -0.003748  -0.001053  -0.000107   0.007796  -0.000226  -0.000367
    28  H   -0.000142  -0.000450   0.000034  -0.005453   0.004405  -0.000242
    29  C   -0.023995   0.200542  -0.037098  -0.047203   0.009079   0.003776
    30  H    0.010373  -0.052907  -0.009294  -0.005841  -0.000519   0.003493
    31  H    0.003214  -0.053451  -0.009293   0.007325  -0.000348   0.000468
               7          8          9         10         11         12
     1  C   -0.004371   0.700984  -0.062587   0.003563   0.299455  -0.019558
     2  C    0.006266  -0.075581   0.268008  -0.035998  -0.090708   0.005633
     3  H    0.000674   0.002532  -0.038758   0.000898   0.004072  -0.001033
     4  C    0.384378  -0.003136  -0.009224   0.001688  -0.000263   0.000051
     5  H   -0.017017   0.000059   0.000467   0.000496   0.000011   0.000000
     6  H   -0.039490  -0.000068  -0.001065   0.001631  -0.000033  -0.000005
     7  H    0.533932   0.009469   0.005147  -0.006510   0.000669  -0.000042
     8  O    0.009469   7.841848  -0.000156  -0.002094  -0.119329   0.005188
     9  N    0.005147  -0.000156   6.543893   0.392196   0.006002   0.000604
    10  H   -0.006510  -0.002094   0.392196   0.481632  -0.000366   0.000000
    11  N    0.000669  -0.119329   0.006002  -0.000366   6.473126   0.380296
    12  H   -0.000042   0.005188   0.000604   0.000000   0.380296   0.536825
    13  C   -0.000103   0.007703  -0.000277   0.000039   0.290985  -0.032612
    14  H    0.000026   0.002319  -0.000018  -0.000005  -0.059006   0.002111
    15  H   -0.000018   0.006044  -0.000036   0.000007  -0.036721   0.003343
    16  H   -0.000002   0.001440   0.000010   0.000000  -0.027488  -0.007878
    17  C    0.001220   0.013100   0.331520  -0.022013  -0.000447  -0.000083
    18  C    0.000151  -0.000198  -0.065064  -0.002354  -0.000090   0.000001
    19  H    0.000100   0.000007   0.012488  -0.000905   0.000012   0.000001
    20  H    0.000054   0.000033  -0.000797  -0.000225   0.000005   0.000000
    21  H   -0.000089   0.000230  -0.000646   0.000503  -0.000001  -0.000002
    22  O   -0.000110  -0.003207  -0.138087   0.004241  -0.003493  -0.000162
    23  C   -0.024961   0.006771   0.000934  -0.001587  -0.007349  -0.000268
    24  H    0.007379   0.000025  -0.000227  -0.000572  -0.000266  -0.000006
    25  C   -0.005900  -0.016739   0.000174   0.000096   0.010770   0.000669
    26  H    0.001607   0.012593  -0.000168  -0.000135  -0.017172  -0.000050
    27  H   -0.000084  -0.000365  -0.000018   0.000000   0.003760   0.000554
    28  H   -0.000122   0.000093  -0.000003   0.000012   0.000611  -0.000004
    29  C   -0.012811  -0.004971  -0.051580   0.000753   0.006464  -0.000601
    30  H   -0.001379  -0.000593   0.003051   0.002819   0.000043  -0.000092
    31  H   -0.000748  -0.000081   0.004790   0.000292  -0.001991   0.002625
              13         14         15         16         17         18
     1  C   -0.060836   0.003052  -0.010278   0.008421  -0.005779  -0.003998
     2  C    0.009220   0.000567  -0.000101   0.000481  -0.063584   0.013780
     3  H   -0.000922   0.000121  -0.000285  -0.000124   0.000930   0.002112
     4  C    0.000018   0.000024   0.000001   0.000000   0.000463   0.000007
     5  H   -0.000002  -0.000002   0.000000   0.000000   0.000018   0.000004
     6  H    0.000002   0.000000   0.000000   0.000000  -0.000060   0.000032
     7  H   -0.000103   0.000026  -0.000018  -0.000002   0.001220   0.000151
     8  O    0.007703   0.002319   0.006044   0.001440   0.013100  -0.000198
     9  N   -0.000277  -0.000018  -0.000036   0.000010   0.331520  -0.065064
    10  H    0.000039  -0.000005   0.000007   0.000000  -0.022013  -0.002354
    11  N    0.290985  -0.059006  -0.036721  -0.027488  -0.000447  -0.000090
    12  H   -0.032612   0.002111   0.003343  -0.007878  -0.000083   0.000001
    13  C    4.788069   0.395329   0.405390   0.393732  -0.000214  -0.000007
    14  H    0.395329   0.618522  -0.051544  -0.029979  -0.000026   0.000000
    15  H    0.405390  -0.051544   0.576850  -0.023464   0.000075   0.000001
    16  H    0.393732  -0.029979  -0.023464   0.595065  -0.000007   0.000000
    17  C   -0.000214  -0.000026   0.000075  -0.000007   4.533572   0.279486
    18  C   -0.000007   0.000000   0.000001   0.000000   0.279486   4.999901
    19  H    0.000000   0.000000   0.000000   0.000000  -0.054021   0.393220
    20  H    0.000000   0.000000   0.000000   0.000000  -0.024317   0.384124
    21  H    0.000002   0.000000   0.000001   0.000000  -0.025606   0.389246
    22  O   -0.000194   0.000002   0.000067  -0.000002   0.724305  -0.070466
    23  C    0.000288   0.000884  -0.000152  -0.000005  -0.000789  -0.000093
    24  H   -0.000024   0.000026  -0.000002  -0.000001   0.000072   0.000001
    25  C   -0.002615  -0.004069   0.000534  -0.000153   0.000145   0.000007
    26  H    0.000234   0.005428  -0.000659   0.000158  -0.000026   0.000003
    27  H    0.000114  -0.001190   0.000124  -0.000033  -0.000001   0.000000
    28  H   -0.000047  -0.000143   0.000008  -0.000011   0.000001   0.000000
    29  C   -0.000261  -0.000544   0.000132   0.000011   0.008484   0.000159
    30  H    0.000070  -0.000027   0.000011   0.000003  -0.000674  -0.000122
    31  H    0.000119  -0.000057   0.000027   0.000017  -0.000292   0.000032
              19         20         21         22         23         24
     1  C    0.000260  -0.000165   0.000689  -0.000409  -0.006298  -0.000421
     2  C    0.000529  -0.000442  -0.000783   0.015551  -0.002644   0.009971
     3  H   -0.000315   0.000161  -0.000176   0.018231   0.006129  -0.000066
     4  C    0.000149  -0.000002   0.000001   0.000039   0.252688  -0.038834
     5  H   -0.000012   0.000001  -0.000002   0.000000  -0.035688  -0.007379
     6  H    0.000080  -0.000018   0.000009   0.000004  -0.049856  -0.006265
     7  H    0.000100   0.000054  -0.000089  -0.000110  -0.024961   0.007379
     8  O    0.000007   0.000033   0.000230  -0.003207   0.006771   0.000025
     9  N    0.012488  -0.000797  -0.000646  -0.138087   0.000934  -0.000227
    10  H   -0.000905  -0.000225   0.000503   0.004241  -0.001587  -0.000572
    11  N    0.000012   0.000005  -0.000001  -0.003493  -0.007349  -0.000266
    12  H    0.000001   0.000000  -0.000002  -0.000162  -0.000268  -0.000006
    13  C    0.000000   0.000000   0.000002  -0.000194   0.000288  -0.000024
    14  H    0.000000   0.000000   0.000000   0.000002   0.000884   0.000026
    15  H    0.000000   0.000000   0.000001   0.000067  -0.000152  -0.000002
    16  H    0.000000   0.000000   0.000000  -0.000002  -0.000005  -0.000001
    17  C   -0.054021  -0.024317  -0.025606   0.724305  -0.000789   0.000072
    18  C    0.393220   0.384124   0.389246  -0.070466  -0.000093   0.000001
    19  H    0.602744  -0.027189  -0.024762   0.004598   0.000036   0.000000
    20  H   -0.027189   0.578203  -0.025584   0.001923   0.000005   0.000000
    21  H   -0.024762  -0.025584   0.564610   0.001345  -0.000002   0.000000
    22  O    0.004598   0.001923   0.001345   7.851724  -0.000095   0.000001
    23  C    0.000036   0.000005  -0.000002  -0.000095   5.224891   0.454384
    24  H    0.000000   0.000000   0.000000   0.000001   0.454384   0.547737
    25  C    0.000003   0.000000   0.000000  -0.000006   0.252973  -0.042449
    26  H   -0.000002  -0.000001   0.000000   0.000027  -0.017358   0.006187
    27  H    0.000000   0.000000   0.000000   0.000001  -0.048658  -0.006170
    28  H    0.000000   0.000000   0.000000   0.000000  -0.038671  -0.008652
    29  C   -0.000222  -0.000001   0.000016   0.001907   0.229357  -0.061741
    30  H   -0.000021  -0.000038   0.000020  -0.000131  -0.047568  -0.008982
    31  H   -0.000003  -0.000004   0.000000   0.000063  -0.044861  -0.008617
              25         26         27         28         29         30
     1  C    0.001938   0.016462  -0.003748  -0.000142  -0.023995   0.010373
     2  C   -0.012183   0.003716  -0.001053  -0.000450   0.200542  -0.052907
     3  H   -0.000269  -0.000077  -0.000107   0.000034  -0.037098  -0.009294
     4  C   -0.060931  -0.002221   0.007796  -0.005453  -0.047203  -0.005841
     5  H   -0.004679  -0.000646  -0.000226   0.004405   0.009079  -0.000519
     6  H    0.007800   0.000093  -0.000367  -0.000242   0.003776   0.003493
     7  H   -0.005900   0.001607  -0.000084  -0.000122  -0.012811  -0.001379
     8  O   -0.016739   0.012593  -0.000365   0.000093  -0.004971  -0.000593
     9  N    0.000174  -0.000168  -0.000018  -0.000003  -0.051580   0.003051
    10  H    0.000096  -0.000135   0.000000   0.000012   0.000753   0.002819
    11  N    0.010770  -0.017172   0.003760   0.000611   0.006464   0.000043
    12  H    0.000669  -0.000050   0.000554  -0.000004  -0.000601  -0.000092
    13  C   -0.002615   0.000234   0.000114  -0.000047  -0.000261   0.000070
    14  H   -0.004069   0.005428  -0.001190  -0.000143  -0.000544  -0.000027
    15  H    0.000534  -0.000659   0.000124   0.000008   0.000132   0.000011
    16  H   -0.000153   0.000158  -0.000033  -0.000011   0.000011   0.000003
    17  C    0.000145  -0.000026  -0.000001   0.000001   0.008484  -0.000674
    18  C    0.000007   0.000003   0.000000   0.000000   0.000159  -0.000122
    19  H    0.000003  -0.000002   0.000000   0.000000  -0.000222  -0.000021
    20  H    0.000000  -0.000001   0.000000   0.000000  -0.000001  -0.000038
    21  H    0.000000   0.000000   0.000000   0.000000   0.000016   0.000020
    22  O   -0.000006   0.000027   0.000001   0.000000   0.001907  -0.000131
    23  C    0.252973  -0.017358  -0.048658  -0.038671   0.229357  -0.047568
    24  H   -0.042449   0.006187  -0.006170  -0.008652  -0.061741  -0.008982
    25  C    5.206540   0.370142   0.404270   0.413732  -0.041124   0.006943
    26  H    0.370142   0.516263  -0.032170  -0.025787  -0.009898  -0.000279
    27  H    0.404270  -0.032170   0.533357  -0.010405   0.000515   0.000426
    28  H    0.413732  -0.025787  -0.010405   0.512083   0.008867  -0.000290
    29  C   -0.041124  -0.009898   0.000515   0.008867   5.373892   0.424485
    30  H    0.006943  -0.000279   0.000426  -0.000290   0.424485   0.474192
    31  H   -0.004919   0.000470   0.002665  -0.000123   0.429243   0.002783
              31
     1  C    0.003214
     2  C   -0.053451
     3  H   -0.009293
     4  C    0.007325
     5  H   -0.000348
     6  H    0.000468
     7  H   -0.000748
     8  O   -0.000081
     9  N    0.004790
    10  H    0.000292
    11  N   -0.001991
    12  H    0.002625
    13  C    0.000119
    14  H   -0.000057
    15  H    0.000027
    16  H    0.000017
    17  C   -0.000292
    18  C    0.000032
    19  H   -0.000003
    20  H   -0.000004
    21  H    0.000000
    22  O    0.000063
    23  C   -0.044861
    24  H   -0.008617
    25  C   -0.004919
    26  H    0.000470
    27  H    0.002665
    28  H   -0.000123
    29  C    0.429243
    30  H    0.002783
    31  H    0.478133
 Mulliken charges:
               1
     1  C    0.266168
     2  C   -0.174257
     3  H    0.230021
     4  C   -0.483688
     5  H    0.148437
     6  H    0.145685
     7  H    0.162684
     8  O   -0.383917
     9  N   -0.200574
    10  H    0.181900
    11  N   -0.111556
    12  H    0.124495
    13  C   -0.193200
    14  H    0.118200
    15  H    0.130648
    16  H    0.089807
    17  C    0.304550
    18  C   -0.319877
    19  H    0.093227
    20  H    0.114272
    21  H    0.120981
    22  O   -0.407668
    23  C   -0.102437
    24  H    0.164888
    25  C   -0.480699
    26  H    0.173265
    27  H    0.151012
    28  H    0.150699
    29  C   -0.405630
    30  H    0.200045
    31  H    0.192522
 Sum of Mulliken charges =   0.00000
 Mulliken charges with hydrogens summed into heavy atoms:
               1
     1  C    0.266168
     2  C    0.055764
     4  C   -0.026882
     8  O   -0.383917
     9  N   -0.018674
    11  N    0.012938
    13  C    0.145455
    17  C    0.304550
    18  C    0.008602
    22  O   -0.407668
    23  C    0.062451
    25  C   -0.005723
    29  C   -0.013063
 Electronic spatial extent (au):  <R**2>=           2737.2293
 Charge=              0.0000 electrons
 Dipole moment (field-independent basis, Debye):
    X=              2.7944    Y=             -2.8653    Z=              2.3680  Tot=              4.6504
 Quadrupole moment (field-independent basis, Debye-Ang):
   XX=            -76.9650   YY=            -77.4417   ZZ=            -81.3386
   XY=             12.1334   XZ=              4.7967   YZ=              2.6323
 Traceless Quadrupole moment (field-independent basis, Debye-Ang):
   XX=              1.6168   YY=              1.1401   ZZ=             -2.7568
   XY=             12.1334   XZ=              4.7967   YZ=              2.6323
 Octapole moment (field-independent basis, Debye-Ang**2):
  XXX=            -10.2725  YYY=             15.7160  ZZZ=              9.2584  XYY=             22.3301
  XXY=             -9.1762  XXZ=             -8.7806  XZZ=             -0.0774  YZZ=              4.4512
  YYZ=             -0.4921  XYZ=              6.8498
 Hexadecapole moment (field-independent basis, Debye-Ang**3):
 XXXX=          -1874.5309 YYYY=          -1290.4813 ZZZZ=           -369.0973 XXXY=             70.5263
 XXXZ=             23.0381 YYYX=             55.7730 YYYZ=             -3.1064 ZZZX=              9.8154
 ZZZY=             11.7673 XXYY=           -543.0691 XXZZ=           -370.3284 YYZZ=           -279.0072
 XXYZ=             -2.4746 YYXZ=              6.3934 ZZXY=              4.9906
 N-N= 8.870846781391D+02 E-N=-3.203910570864D+03  KE= 6.091182397986D+02
 Calculating spin-rotation constants.
 Leave Link  601 at Wed Jun 18 13:23:13 2014, MaxMem=  4294967296 cpu:        71.1
 (Enter /home/ztw1e12/g09/l9999.exe)

 Test job not archived.
 1\1\GINC-GREEN0703\SP\RM06\Gen\C9H18N2O2\ROOT\18-Jun-2014\0\\#P Geom=A
 llCheck Guess=TCheck SCRF=Check GenChk RM06/ChkBas NMR=ReadFC IOp(3/6=
 22)\\NMR spin-spin scan\\0,1\C,0,0.238613,0.961959,0.353641\C,0,0.0957
 82,0.034858,-0.845904\H,0,0.564346,0.548563,-1.690889\C,0,-2.084465,-2
 .038263,0.391536\H,0,-2.938713,-2.4007,0.966621\H,0,-1.852077,-2.78794
 5,-0.369146\H,0,-1.238763,-1.977207,1.083429\O,0,0.541467,0.5596,1.473
 05\N,0,0.825889,-1.194688,-0.635927\H,0,0.316441,-2.045634,-0.457423\N
 ,0,0.007803,2.252226,0.088472\H,0,-0.286303,2.50799,-0.84122\C,0,-0.07
 2646,3.236351,1.143145\H,0,-0.875355,2.998952,1.844767\H,0,0.862435,3.
 287088,1.700459\H,0,-0.268816,4.209649,0.703537\C,0,2.167094,-1.213147
 ,-0.564632\C,0,2.803773,-2.541944,-0.322475\H,0,2.085192,-3.353283,-0.
 228508\H,0,3.485517,-2.757977,-1.144921\H,0,3.400656,-2.483196,0.58763
 6\O,0,2.839427,-0.19192,-0.706006\C,0,-2.392325,-0.686501,-0.227974\H,
 0,-3.30199,-0.819363,-0.826298\C,0,-2.730349,0.340832,0.83784\H,0,-1.9
 13774,0.488972,1.546866\H,0,-2.983069,1.30888,0.399681\H,0,-3.594789,0
 .004352,1.414301\C,0,-1.355289,-0.233257,-1.257413\H,0,-1.316119,-0.97
 2319,-2.062676\H,0,-1.723967,0.690368,-1.713231\\Version=EM64L-G09RevD
 .01\State=1-A\HF=-613.5812969\RMSD=8.172e-09\Dipole=-1.6214974,-0.1178
 253,-0.8392417\Quadrupole=-6.8981973,10.1838559,-3.2856586,-4.2819562,
 1.3071424,-0.1302768\PG=C01 [X(C9H18N2O2)]\\@


 REALITY IS FOR PEOPLE WHO CAN'T FACE SCIENCE FICTION.
 Job cpu time:       2 days 15 hours 45 minutes 31.5 seconds.
 File lengths (MBytes):  RWF=   2456 Int=      0 D2E=      0 Chk=     48 Scr=      8
 Normal termination of Gaussian 09 at Wed Jun 18 13:23:13 2014.
