 Entering Gaussian System, Link 0=g09
 Input=scan_input_35.gjf
 Output=scan_input_35.log
 Initial command:
 /home/ztw1e12/g09/l1.exe "/home/ztw1e12/leucine_scan/leucine_chi2_scan/Gau-17122.inp" -scrdir="/home/ztw1e12/leucine_scan/leucine_chi2_scan/"
 Default is to use a total of   8 processors:
                                8 via shared-memory
                                1 via Linda
 Entering Link 1 = /home/ztw1e12/g09/l1.exe PID=     17123.
  
 Copyright (c) 1988,1990,1992,1993,1995,1998,2003,2009,2013,
            Gaussian, Inc.  All Rights Reserved.
  
 This is part of the Gaussian(R) 09 program.  It is based on
 the Gaussian(R) 03 system (copyright 2003, Gaussian, Inc.),
 the Gaussian(R) 98 system (copyright 1998, Gaussian, Inc.),
 the Gaussian(R) 94 system (copyright 1995, Gaussian, Inc.),
 the Gaussian 92(TM) system (copyright 1992, Gaussian, Inc.),
 the Gaussian 90(TM) system (copyright 1990, Gaussian, Inc.),
 the Gaussian 88(TM) system (copyright 1988, Gaussian, Inc.),
 the Gaussian 86(TM) system (copyright 1986, Carnegie Mellon
 University), and the Gaussian 82(TM) system (copyright 1983,
 Carnegie Mellon University). Gaussian is a federally registered
 trademark of Gaussian, Inc.
  
 This software contains proprietary and confidential information,
 including trade secrets, belonging to Gaussian, Inc.
  
 This software is provided under written license and may be
 used, copied, transmitted, or stored only in accord with that
 written license.
  
 The following legend is applicable only to US Government
 contracts under FAR:
  
                    RESTRICTED RIGHTS LEGEND
  
 Use, reproduction and disclosure by the US Government is
 subject to restrictions as set forth in subparagraphs (a)
 and (c) of the Commercial Computer Software - Restricted
 Rights clause in FAR 52.227-19.
  
 Gaussian, Inc.
 340 Quinnipiac St., Bldg. 40, Wallingford CT 06492
  
  
 ---------------------------------------------------------------
 Warning -- This program may not be used in any manner that
 competes with the business of Gaussian, Inc. or will provide
 assistance to any competitor of Gaussian, Inc.  The licensee
 of this program is prohibited from giving any competitor of
 Gaussian, Inc. access to this program.  By using this program,
 the user acknowledges that Gaussian, Inc. is engaged in the
 business of creating and licensing software in the field of
 computational chemistry and represents and warrants to the
 licensee that it is not a competitor of Gaussian, Inc. and that
 it will not use this program in any manner prohibited above.
 ---------------------------------------------------------------
  

 Cite this work as:
 Gaussian 09, Revision D.01,
 M. J. Frisch, G. W. Trucks, H. B. Schlegel, G. E. Scuseria, 
 M. A. Robb, J. R. Cheeseman, G. Scalmani, V. Barone, B. Mennucci, 
 G. A. Petersson, H. Nakatsuji, M. Caricato, X. Li, H. P. Hratchian, 
 A. F. Izmaylov, J. Bloino, G. Zheng, J. L. Sonnenberg, M. Hada, 
 M. Ehara, K. Toyota, R. Fukuda, J. Hasegawa, M. Ishida, T. Nakajima, 
 Y. Honda, O. Kitao, H. Nakai, T. Vreven, J. A. Montgomery, Jr., 
 J. E. Peralta, F. Ogliaro, M. Bearpark, J. J. Heyd, E. Brothers, 
 K. N. Kudin, V. N. Staroverov, T. Keith, R. Kobayashi, J. Normand, 
 K. Raghavachari, A. Rendell, J. C. Burant, S. S. Iyengar, J. Tomasi, 
 M. Cossi, N. Rega, J. M. Millam, M. Klene, J. E. Knox, J. B. Cross, 
 V. Bakken, C. Adamo, J. Jaramillo, R. Gomperts, R. E. Stratmann, 
 O. Yazyev, A. J. Austin, R. Cammi, C. Pomelli, J. W. Ochterski, 
 R. L. Martin, K. Morokuma, V. G. Zakrzewski, G. A. Voth, 
 P. Salvador, J. J. Dannenberg, S. Dapprich, A. D. Daniels, 
 O. Farkas, J. B. Foresman, J. V. Ortiz, J. Cioslowski, 
 and D. J. Fox, Gaussian, Inc., Wallingford CT, 2013.
 
 ******************************************
 Gaussian 09:  EM64L-G09RevD.01 24-Apr-2013
                18-Jun-2014 
 ******************************************
 %Mem=32GB
 %NProcShared=16
 Will use up to   16 processors via shared memory.
 Default route:  MaxDisk=100GB
 ----------------------------------------------------------------------
 #p nmr=(giao,mixed,spinspin) m06/cc-pvtz scf=tight integral=(grid=ultr
 afine)
 ----------------------------------------------------------------------
 1/38=1/1;
 2/12=2,17=6,18=5,40=1/2;
 3/5=16,6=1,10=1100000,11=2,16=1,25=1,30=1,74=-54,75=-5/1,2,8,3;
 4//1;
 5/5=2,32=2,38=5/2;
 8/6=1,10=90,11=11/1;
 10/13=100,45=16,47=3/2;
 6/7=2,8=2,9=2,10=2,28=1/1;
 99/9=1/99;
 Leave Link    1 at Wed Jun 18 15:55:52 2014, MaxMem=  4294967296 cpu:         6.5
 (Enter /home/ztw1e12/g09/l101.exe)
 ------------------
 NMR spin-spin scan
 ------------------
 Symbolic Z-matrix:
 Charge =  0 Multiplicity = 1
 C                     0.65815   0.60398   0.66283 
 C                     0.12934   0.25833  -0.72285 
 H                     0.53726   0.9923   -1.42431 
 C                    -3.53591   0.48658   0.48987 
 H                    -4.12285   0.10937   1.32955 
 H                    -3.43266   1.56719   0.60304 
 H                    -4.11002   0.29949  -0.42368 
 O                     0.94953  -0.25299   1.4925 
 N                     0.58338  -1.05012  -1.13452 
 H                    -0.09103  -1.78948  -1.25349 
 N                     0.73881   1.91245   0.91963 
 H                     0.46634   2.56629   0.2027 
 C                     1.10387   2.40553   2.22804 
 H                     0.40512   2.05465   2.9888 
 H                     2.10451   2.07468   2.50607 
 H                     1.08746   3.49092   2.21307 
 C                     1.88368  -1.30956  -1.34795 
 C                     2.22833  -2.70042  -1.76629 
 H                     1.35964  -3.34867  -1.85968 
 H                     2.75381  -2.66104  -2.72025 
 H                     2.91477  -3.12526  -1.03397 
 O                     2.74696  -0.4428   -1.21136 
 C                    -2.18115  -0.19332   0.41934 
 H                    -1.646     0.06615   1.34105 
 C                    -2.32997  -1.70231   0.37224 
 H                    -2.80641  -2.01184  -0.56342 
 H                    -1.3694   -2.21606   0.4483 
 H                    -2.95205  -2.05855   1.19586 
 C                    -1.39567   0.3657   -0.76621 
 H                    -1.75037  -0.0905   -1.69686 
 H                    -1.62182   1.43262  -0.84772 
 
 NAtoms=     31 NQM=       31 NQMF=       0 NMMI=      0 NMMIF=      0
                NMic=       0 NMicF=      0.
                    Isotopes and Nuclear Properties:
 (Nuclear quadrupole moments (NQMom) in fm**2, nuclear magnetic moments (NMagM)
  in nuclear magnetons)

  Atom         1           2           3           4           5           6           7           8           9          10
 IAtWgt=          12          12           1          12           1           1           1          16          14           1
 AtmWgt=  12.0000000  12.0000000   1.0078250  12.0000000   1.0078250   1.0078250   1.0078250  15.9949146  14.0030740   1.0078250
 NucSpn=           0           0           1           0           1           1           1           0           2           1
 AtZEff=   0.0000000   0.0000000   0.0000000   0.0000000   0.0000000   0.0000000   0.0000000   0.0000000   0.0000000   0.0000000
 NQMom=    0.0000000   0.0000000   0.0000000   0.0000000   0.0000000   0.0000000   0.0000000   0.0000000   2.0440000   0.0000000
 NMagM=    0.0000000   0.0000000   2.7928460   0.0000000   2.7928460   2.7928460   2.7928460   0.0000000   0.4037610   2.7928460
 AtZNuc=   6.0000000   6.0000000   1.0000000   6.0000000   1.0000000   1.0000000   1.0000000   8.0000000   7.0000000   1.0000000

  Atom        11          12          13          14          15          16          17          18          19          20
 IAtWgt=          14           1          12           1           1           1          12          12           1           1
 AtmWgt=  14.0030740   1.0078250  12.0000000   1.0078250   1.0078250   1.0078250  12.0000000  12.0000000   1.0078250   1.0078250
 NucSpn=           2           1           0           1           1           1           0           0           1           1
 AtZEff=   0.0000000   0.0000000   0.0000000   0.0000000   0.0000000   0.0000000   0.0000000   0.0000000   0.0000000   0.0000000
 NQMom=    2.0440000   0.0000000   0.0000000   0.0000000   0.0000000   0.0000000   0.0000000   0.0000000   0.0000000   0.0000000
 NMagM=    0.4037610   2.7928460   0.0000000   2.7928460   2.7928460   2.7928460   0.0000000   0.0000000   2.7928460   2.7928460
 AtZNuc=   7.0000000   1.0000000   6.0000000   1.0000000   1.0000000   1.0000000   6.0000000   6.0000000   1.0000000   1.0000000

  Atom        21          22          23          24          25          26          27          28          29          30
 IAtWgt=           1          16          12           1          12           1           1           1          12           1
 AtmWgt=   1.0078250  15.9949146  12.0000000   1.0078250  12.0000000   1.0078250   1.0078250   1.0078250  12.0000000   1.0078250
 NucSpn=           1           0           0           1           0           1           1           1           0           1
 AtZEff=   0.0000000   0.0000000   0.0000000   0.0000000   0.0000000   0.0000000   0.0000000   0.0000000   0.0000000   0.0000000
 NQMom=    0.0000000   0.0000000   0.0000000   0.0000000   0.0000000   0.0000000   0.0000000   0.0000000   0.0000000   0.0000000
 NMagM=    2.7928460   0.0000000   0.0000000   2.7928460   0.0000000   2.7928460   2.7928460   2.7928460   0.0000000   2.7928460
 AtZNuc=   1.0000000   8.0000000   6.0000000   1.0000000   6.0000000   1.0000000   1.0000000   1.0000000   6.0000000   1.0000000

  Atom        31
 IAtWgt=           1
 AtmWgt=   1.0078250
 NucSpn=           1
 AtZEff=   0.0000000
 NQMom=    0.0000000
 NMagM=    2.7928460
 AtZNuc=   1.0000000
 Leave Link  101 at Wed Jun 18 15:55:53 2014, MaxMem=  4294967296 cpu:         1.8
 (Enter /home/ztw1e12/g09/l202.exe)
                          Input orientation:                          
 ---------------------------------------------------------------------
 Center     Atomic      Atomic             Coordinates (Angstroms)
 Number     Number       Type             X           Y           Z
 ---------------------------------------------------------------------
      1          6           0        0.658145    0.603981    0.662832
      2          6           0        0.129336    0.258326   -0.722848
      3          1           0        0.537260    0.992296   -1.424314
      4          6           0       -3.535913    0.486579    0.489874
      5          1           0       -4.122853    0.109365    1.329547
      6          1           0       -3.432659    1.567188    0.603037
      7          1           0       -4.110016    0.299488   -0.423680
      8          8           0        0.949528   -0.252990    1.492503
      9          7           0        0.583381   -1.050118   -1.134516
     10          1           0       -0.091033   -1.789483   -1.253493
     11          7           0        0.738805    1.912449    0.919630
     12          1           0        0.466336    2.566294    0.202703
     13          6           0        1.103866    2.405534    2.228038
     14          1           0        0.405118    2.054650    2.988797
     15          1           0        2.104507    2.074680    2.506073
     16          1           0        1.087460    3.490920    2.213071
     17          6           0        1.883683   -1.309555   -1.347948
     18          6           0        2.228326   -2.700424   -1.766288
     19          1           0        1.359642   -3.348670   -1.859676
     20          1           0        2.753808   -2.661035   -2.720254
     21          1           0        2.914766   -3.125262   -1.033970
     22          8           0        2.746963   -0.442799   -1.211361
     23          6           0       -2.181149   -0.193318    0.419343
     24          1           0       -1.645998    0.066149    1.341053
     25          6           0       -2.329973   -1.702314    0.372235
     26          1           0       -2.806411   -2.011842   -0.563422
     27          1           0       -1.369395   -2.216056    0.448300
     28          1           0       -2.952051   -2.058551    1.195862
     29          6           0       -1.395666    0.365697   -0.766208
     30          1           0       -1.750366   -0.090499   -1.696862
     31          1           0       -1.621823    1.432615   -0.847718
 ---------------------------------------------------------------------
                    Distance matrix (angstroms):
                    1          2          3          4          5
     1  C    0.000000
     2  C    1.522900   0.000000
     3  H    2.126401   1.094152   0.000000
     4  C    4.199264   3.867408   4.528863   0.000000
     5  H    4.852535   4.723942   5.484521   1.091714   0.000000
     6  H    4.203097   4.019813   4.494542   1.091413   1.769020
     7  H    4.899855   4.250094   4.804001   1.095070   1.763552
     8  O    1.227867   2.417010   3.198206   4.655256   5.087918
     9  N    2.443787   1.444871   2.063387   4.687074   5.437338
    10  H    3.156301   2.126892   2.856961   4.481851   5.151048
    11  N    1.335867   2.409421   2.526138   4.526700   5.201429
    12  H    2.024644   2.509368   2.264881   4.519478   5.326062
    13  C    2.427783   3.777293   3.957014   5.313299   5.779124
    14  H    2.752921   4.132692   4.541102   4.922925   5.199977
    15  H    2.766307   4.198377   4.367581   6.196891   6.635261
    16  H    3.304840   4.470714   4.447068   5.776768   6.273985
    17  C    3.034271   2.434488   2.667809   5.997975   6.727614
    18  C    4.391490   3.774749   4.075884   6.962306   7.603722
    19  H    4.741160   3.976990   4.439576   6.648006   7.224050
    20  H    5.147563   4.404560   4.465352   7.731299   8.447749
    21  H    4.677470   4.393641   4.770659   7.548427   8.097969
    22  O    2.995248   2.753578   2.643413   6.575141   7.345439
    23  C    2.959149   2.616663   3.492062   1.517439   2.165711
    24  H    2.461366   2.729181   3.643023   2.114958   2.477259
    25  C    3.785801   3.330393   4.325452   2.501876   2.722691
    26  H    4.511028   3.714524   4.576693   2.807795   3.133029
    27  H    3.479878   3.120953   4.175588   3.464068   3.710217
    28  H    4.517379   4.306311   5.324310   2.704995   2.467490
    29  C    2.513379   1.529392   2.135868   2.484555   3.448977
    30  H    3.442584   2.145615   2.545577   2.881495   3.850687
    31  H    2.857735   2.112133   2.277714   2.519499   3.570242
                    6          7          8          9         10
     6  H    0.000000
     7  H    1.766359   0.000000
     8  O    4.827811   5.438380   0.000000
     9  N    5.098819   4.935048   2.769604   0.000000
    10  H    5.087279   4.604847   3.314223   1.007795   0.000000
    11  N    4.197684   5.283672   2.249825   3.608390   4.372116
    12  H    4.044829   5.145266   3.137741   3.857498   4.626441
    13  C    4.891167   6.217041   2.762713   4.849660   5.580951
    14  H    4.545108   5.925540   2.803655   5.164598   5.746351
    15  H    5.877015   7.096130   2.789148   5.033098   5.821210
    16  H    5.169568   6.644656   3.815115   5.664050   6.425618
    17  C    6.351810   6.274370   3.171299   1.342999   2.034393
    18  C    7.474822   7.139793   4.271414   2.414227   2.544052
    19  H    7.293611   6.729658   4.581324   2.532149   2.214267
    20  H    8.197226   7.819912   5.177010   3.133747   3.317244
    21  H    8.061556   7.838937   4.300601   3.122769   3.296562
    22  O    6.746837   6.941872   3.252335   2.248517   3.141585
    23  C    2.167810   2.161961   3.310041   3.284998   3.116843
    24  H    2.447436   3.039756   2.619455   3.513492   3.548655
    25  C    3.458154   2.794503   3.756417   3.344143   2.768292
    26  H    3.816054   2.657284   4.628981   3.569559   2.810502
    27  H    4.312069   3.820905   3.212692   2.770930   2.170777
    28  H    3.705187   3.086122   4.309335   4.352801   3.775866
    29  C    2.732719   2.736678   3.314285   2.461059   2.565992
    30  H    3.296600   2.709434   4.181851   2.585242   2.415887
    31  H    2.324205   2.766747   3.863903   3.333038   3.590249
                   11         12         13         14         15
    11  N    0.000000
    12  H    1.007838   0.000000
    13  C    1.445107   2.129383   0.000000
    14  H    2.100719   2.833346   1.090927   0.000000
    15  H    2.099586   2.868937   1.089977   1.766733   0.000000
    16  H    2.070295   2.298327   1.085613   1.769241   1.768041
    17  C    4.102922   4.408582   5.215139   5.684311   5.133740
    18  C    5.541789   5.892355   6.579503   6.967471   6.408589
    19  H    5.982420   6.327575   7.062980   7.322204   7.001951
    20  H    6.182698   6.411020   7.271728   7.768352   7.082590
    21  H    5.824937   6.318068   6.671563   7.022284   6.342541
    22  O    3.757794   4.031808   4.758386   5.418747   4.535390
    23  C    3.634649   3.830348   4.562536   4.283017   5.278741
    24  H    3.045276   3.465331   3.717690   3.297920   4.411095
    25  C    4.773212   5.105791   5.666540   5.333095   6.203512
    26  H    5.492546   5.679538   6.526540   6.282399   7.087918
    27  H    4.659529   5.128460   5.535664   5.276547   5.891760
    28  H    5.428403   5.836174   6.119142   5.603893   6.661008
    29  C    3.128971   3.041129   4.401602   4.493935   5.087205
    30  H    4.129625   3.947235   5.457258   5.585980   6.100222
    31  H    2.987695   2.597888   4.223296   4.383408   5.054275
                   16         17         18         19         20
    16  H    0.000000
    17  C    6.029875   0.000000
    18  C    7.447793   1.492750   0.000000
    19  H    7.965007   2.166674   1.087914   0.000000
    20  H    8.059836   2.113490   1.089832   1.776833   0.000000
    21  H    7.593167   2.111518   1.089944   1.774856   1.756408
    22  O    5.473101   1.230924   2.381974   3.284670   2.682793
    23  C    5.241648   4.570794   5.523227   5.261879   6.348267
    24  H    4.467803   4.645636   5.685058   5.562331   6.579517
    25  C    6.483610   4.568171   5.132991   4.615753   6.027227
    26  H    7.290510   4.806836   5.222031   4.563264   5.999118
    27  H    6.459112   3.825019   4.252365   3.749295   5.219056
    28  H    6.938947   5.515096   6.001886   5.439799   6.946638
    29  C    4.980867   3.728139   4.851245   4.752254   5.495229
    30  H    6.013933   3.848916   4.758836   4.507143   5.286073
    31  H    4.576600   4.478649   5.722712   5.724847   6.277779
                   21         22         23         24         25
    21  H    0.000000
    22  O    2.693554   0.000000
    23  C    6.056134   5.196896   0.000000
    24  H    6.051975   5.106070   1.096932   0.000000
    25  C    5.613331   5.465294   1.517049   2.129294   0.000000
    26  H    5.847477   5.807037   2.159585   3.048218   1.094648
    27  H    4.623615   4.779468   2.179737   2.466166   1.091983
    28  H    6.366283   6.394071   2.162491   2.498240   1.091901
    29  C    5.553226   4.244196   1.528075   2.143115   2.538829
    30  H    5.604701   4.537157   2.162052   3.043741   2.686085
    31  H    6.433473   4.768197   2.135872   2.580413   3.437665
                   26         27         28         29         30
    26  H    0.000000
    27  H    1.769265   0.000000
    28  H    1.765920   1.757401   0.000000
    29  C    2.772006   2.853273   3.485546   0.000000
    30  H    2.468092   3.043822   3.699342   1.095465   0.000000
    31  H    3.653540   3.880230   4.258399   1.093666   1.748555
                   31
    31  H    0.000000
 Stoichiometry    C9H18N2O2
 Framework group  C1[X(C9H18N2O2)]
 Deg. of freedom    87
 Full point group                 C1      NOp   1
 Largest Abelian subgroup         C1      NOp   1
 Largest concise Abelian subgroup C1      NOp   1
                         Standard orientation:                         
 ---------------------------------------------------------------------
 Center     Atomic      Atomic             Coordinates (Angstroms)
 Number     Number       Type             X           Y           Z
 ---------------------------------------------------------------------
      1          6           0       -0.016852    1.147934    0.160698
      2          6           0        0.192899   -0.022099   -0.791275
      3          1           0        0.537678    0.386782   -1.745797
      4          6           0       -3.461793   -1.201723   -0.334596
      5          1           0       -4.142316   -1.384459    0.499272
      6          1           0       -3.814689   -0.323228   -0.877638
      7          1           0       -3.529574   -2.061430   -1.009494
      8          8           0        0.227086    1.075439    1.361904
      9          7           0        1.216169   -0.912508   -0.293537
     10          1           0        0.961869   -1.847547   -0.016617
     11          7           0       -0.527648    2.244538   -0.405947
     12          1           0       -0.724119    2.234502   -1.394398
     13          6           0       -0.900736    3.398447    0.379949
     14          1           0       -1.655452    3.139384    1.123866
     15          1           0       -0.037681    3.813392    0.900534
     16          1           0       -1.307704    4.158127   -0.280216
     17          6           0        2.495235   -0.520151   -0.176514
     18          6           0        3.458631   -1.529544    0.353860
     19          1           0        2.996409   -2.488750    0.577088
     20          1           0        4.254985   -1.673533   -0.376087
     21          1           0        3.915891   -1.133085    1.260342
     22          8           0        2.856040    0.612499   -0.496043
     23          6           0       -2.036835   -1.014510    0.152298
     24          1           0       -2.031782   -0.119589    0.786609
     25          6           0       -1.590466   -2.191841    0.998514
     26          1           0       -1.522024   -3.098448    0.388896
     27          1           0       -0.616784   -2.022793    1.463050
     28          1           0       -2.302327   -2.385401    1.803521
     29          6           0       -1.122334   -0.760152   -1.045201
     30          1           0       -0.898750   -1.705755   -1.551055
     31          1           0       -1.674780   -0.154037   -1.768757
 ---------------------------------------------------------------------
 Rotational constants (GHZ):      0.8796524      0.6085390      0.4182036
 Leave Link  202 at Wed Jun 18 15:55:53 2014, MaxMem=  4294967296 cpu:         1.5
 (Enter /home/ztw1e12/g09/l301.exe)
 Standard basis: CC-pVTZ (5D, 7F)
 Converting basis for Fermi contact spin-spin IFCMod=1.
 AO basis functions are being uncontracted.
 Ernie: Thresh=  0.10000D-02 Tol=  0.10000D-05 Strict=F.
 There are  1119 symmetry adapted cartesian basis functions of A   symmetry.
 There are  1036 symmetry adapted basis functions of A   symmetry.
  1036 basis functions,  1119 primitive gaussians,  1119 cartesian basis functions
    51 alpha electrons       51 beta electrons
       nuclear repulsion energy       875.6172867245 Hartrees.
 IExCor= 4235 DFT=T Ex+Corr=M06 ExCW=0 ScaHFX=  0.270000
 ScaDFX=  1.000000  1.000000  1.000000  1.000000 ScalE2=  1.000000  1.000000
 IRadAn= 199590 IRanWt=     -1 IRanGd=            0 ICorTp=0 IEmpDi=  4
 NAtoms=   31 NActive=   31 NUniq=   31 SFac= 1.00D+00 NAtFMM=   60 NAOKFM=F Big=F
 Integral buffers will be    131072 words long.
 Raffenetti 2 integral format.
 Two-electron integral symmetry is turned on.
 Leave Link  301 at Wed Jun 18 15:55:53 2014, MaxMem=  4294967296 cpu:         4.8
 (Enter /home/ztw1e12/g09/l302.exe)
 NPDir=0 NMtPBC=     1 NCelOv=     1 NCel=       1 NClECP=     1 NCelD=      1
         NCelK=      1 NCelE2=     1 NClLst=     1 CellRange=     0.0.
 One-electron integrals computed using PRISM.
 GSVD:  received Info=                   1 from GESDD.
 NBasis=  1036 RedAO= T EigKep=  1.06D-04  NBF=  1036
 NBsUse=   932 1.00D-06 EigRej=  6.30D-15 NBFU=   932
 Precomputing XC quadrature grid using
 IXCGrd= 4 IRadAn=      199590 IRanWt=          -1 IRanGd=           0 AccXCQ= 0.00D+00.
 Generated NRdTot=       0 NPtTot=           0 NUsed=           0 NTot=          32
 NSgBfM=   877   877   877   877   877 MxSgAt=    31 MxSgA2=    31.
 Leave Link  302 at Wed Jun 18 15:55:58 2014, MaxMem=  4294967296 cpu:        65.4
 (Enter /home/ztw1e12/g09/l308.exe)
 Leave Link  308 at Wed Jun 18 15:55:58 2014, MaxMem=  4294967296 cpu:         5.9
 (Enter /home/ztw1e12/g09/l303.exe)
 DipDrv:  MaxL=1.
 Leave Link  303 at Wed Jun 18 15:55:59 2014, MaxMem=  4294967296 cpu:         3.3
 (Enter /home/ztw1e12/g09/l401.exe)
 ExpMin= 1.03D-01 ExpMax= 1.38D+05 ExpMxC= 1.38D+05 IAcc=4 IRadAn=    199590 AccDes= 0.00D+00
 Harris functional with IExCor= 1009 and IRadAn=  199590 diagonalized for initial guess.
 HarFok:  IExCor= 1009 AccDes= 0.00D+00 IRadAn=    199590 IDoV= 1 UseB2=F ITyADJ=14
 ICtDFT=  3500011 ScaDFX=  1.000000  1.000000  1.000000  1.000000
 FoFCou: FMM=F IPFlag=           0 FMFlag=      100000 FMFlg1=           0
         NFxFlg=           0 DoJE=T BraDBF=F KetDBF=T FulRan=T
         wScrn=  0.000000 ICntrl=     500 IOpCl=  0 I1Cent=   200000004 NGrid=           0
         NMat0=    1 NMatS0=      1 NMatT0=    0 NMatD0=    1 NMtDS0=    0 NMtDT0=    0
 Petite list used in FoFCou.
 Harris En= -613.564966970098    
 JPrj=0 DoOrth=F DoCkMO=F.
 Leave Link  401 at Wed Jun 18 15:56:16 2014, MaxMem=  4294967296 cpu:       260.2
 (Enter /home/ztw1e12/g09/l502.exe)
 Closed shell SCF:
 Using DIIS extrapolation, IDIIS=  1040.
 Integral symmetry usage will be decided dynamically.
 IVT=     3801329 IEndB=     3801329 NGot=  4294967296 MDV=  4292435888
 LenX=  4292435888 LenY=  4291182608
 Requested convergence on RMS density matrix=1.00D-08 within 128 cycles.
 Requested convergence on MAX density matrix=1.00D-06.
 Requested convergence on             energy=1.00D-06.
 No special actions if energy rises.
 Fock matrices will be formed incrementally for  20 cycles.
 Integral accuracy reduced to 1.0D-05 until final iterations.

 Cycle   1  Pass 0  IDiag  1:
 FoFJK:  IHMeth= 1 ICntrl=       0 DoSepK=F KAlg= 0 I1Cent=   0 FoldK=F
 IRaf= 480000000 NMat=   1 IRICut=       1 DoRegI=T DoRafI=F ISym2E= 0.
 FoFCou: FMM=F IPFlag=           0 FMFlag=      100000 FMFlg1=           0
         NFxFlg=           0 DoJE=F BraDBF=F KetDBF=F FulRan=T
         wScrn=  0.000000 ICntrl=       0 IOpCl=  0 I1Cent=           0 NGrid=           0
         NMat0=    1 NMatS0=      1 NMatT0=    0 NMatD0=    1 NMtDS0=    0 NMtDT0=    0
 Symmetry not used in FoFCou.
 E= -613.181553919354    
 DIIS: error= 1.27D-01 at cycle   1 NSaved=   1.
 NSaved= 1 IEnMin= 1 EnMin= -613.181553919354     IErMin= 1 ErrMin= 1.27D-01
 ErrMax= 1.27D-01  0.00D+00 EMaxC= 1.00D-01 BMatC= 1.30D+01 BMatP= 1.30D+01
 IDIUse=3 WtCom= 0.00D+00 WtEn= 1.00D+00
 Coeff-Com:  0.100D+01
 Coeff-En:   0.100D+01
 Coeff:      0.100D+01
 Gap=     0.293 Goal=   None    Shift=    0.000
 GapD=    0.293 DampG=1.000 DampE=0.250 DampFc=0.2500 IDamp=-1.
 Damping current iteration by 2.50D-01
 RMSDP=2.13D-03 MaxDP=3.05D-01              OVMax= 2.85D-01

 Cycle   2  Pass 0  IDiag  1:
 RMSU=  5.32D-04    CP:  1.01D+00
 E= -613.339315988023     Delta-E=       -0.157762068669 Rises=F Damp=T
 DIIS: error= 9.53D-02 at cycle   2 NSaved=   2.
 NSaved= 2 IEnMin= 2 EnMin= -613.339315988023     IErMin= 2 ErrMin= 9.53D-02
 ErrMax= 9.53D-02  0.00D+00 EMaxC= 1.00D-01 BMatC= 7.66D+00 BMatP= 1.30D+01
 IDIUse=3 WtCom= 4.73D-02 WtEn= 9.53D-01
 Coeff-Com: -0.279D+01 0.379D+01
 Coeff-En:   0.000D+00 0.100D+01
 Coeff:     -0.132D+00 0.113D+01
 Gap=     0.236 Goal=   None    Shift=    0.000
 RMSDP=5.44D-04 MaxDP=4.28D-02 DE=-1.58D-01 OVMax= 1.44D-01

 Cycle   3  Pass 0  IDiag  1:
 RMSU=  4.58D-04    CP:  1.03D+00  1.54D+00
 E= -613.563176603487     Delta-E=       -0.223860615463 Rises=F Damp=F
 DIIS: error= 1.24D-02 at cycle   3 NSaved=   3.
 NSaved= 3 IEnMin= 3 EnMin= -613.563176603487     IErMin= 3 ErrMin= 1.24D-02
 ErrMax= 1.24D-02  0.00D+00 EMaxC= 1.00D-01 BMatC= 1.78D-01 BMatP= 7.66D+00
 IDIUse=3 WtCom= 8.76D-01 WtEn= 1.24D-01
 Coeff-Com:  0.765D+00-0.107D+01 0.130D+01
 Coeff-En:   0.360D-01 0.000D+00 0.964D+00
 Coeff:      0.674D+00-0.935D+00 0.126D+01
 Gap=     0.251 Goal=   None    Shift=    0.000
 RMSDP=3.78D-04 MaxDP=3.18D-02 DE=-2.24D-01 OVMax= 7.50D-02

 Cycle   4  Pass 0  IDiag  1:
 RMSU=  3.05D-04    CP:  1.03D+00  1.18D+00  7.44D-01
 E= -613.538517473579     Delta-E=        0.024659129907 Rises=F Damp=F
 DIIS: error= 8.10D-03 at cycle   4 NSaved=   4.
 NSaved= 4 IEnMin= 3 EnMin= -613.563176603487     IErMin= 4 ErrMin= 8.10D-03
 ErrMax= 8.10D-03  0.00D+00 EMaxC= 1.00D-01 BMatC= 1.10D-01 BMatP= 1.78D-01
 IDIUse=3 WtCom= 9.19D-01 WtEn= 8.10D-02
 Coeff-Com:  0.537D+00-0.749D+00 0.694D+00 0.517D+00
 Coeff-En:   0.000D+00 0.000D+00 0.595D+00 0.405D+00
 Coeff:      0.494D+00-0.688D+00 0.686D+00 0.508D+00
 Gap=     0.282 Goal=   None    Shift=    0.000
 RMSDP=2.84D-04 MaxDP=2.17D-02 DE= 2.47D-02 OVMax= 7.72D-02

 Cycle   5  Pass 0  IDiag  1:
 RMSU=  7.51D-05    CP:  1.02D+00  1.11D+00  8.60D-01  1.28D-01
 E= -613.619199668365     Delta-E=       -0.080682194786 Rises=F Damp=F
 DIIS: error= 2.55D-03 at cycle   5 NSaved=   5.
 NSaved= 5 IEnMin= 5 EnMin= -613.619199668365     IErMin= 5 ErrMin= 2.55D-03
 ErrMax= 2.55D-03  0.00D+00 EMaxC= 1.00D-01 BMatC= 1.07D-02 BMatP= 1.10D-01
 IDIUse=3 WtCom= 9.75D-01 WtEn= 2.55D-02
 Coeff-Com:  0.567D-01-0.848D-01 0.802D-01 0.236D+00 0.712D+00
 Coeff-En:   0.000D+00 0.000D+00 0.000D+00 0.341D-01 0.966D+00
 Coeff:      0.552D-01-0.826D-01 0.782D-01 0.231D+00 0.718D+00
 Gap=     0.271 Goal=   None    Shift=    0.000
 RMSDP=1.27D-04 MaxDP=1.10D-02 DE=-8.07D-02 OVMax= 2.53D-02

 Cycle   6  Pass 0  IDiag  1:
 RMSU=  5.67D-05    CP:  1.03D+00  1.15D+00  9.39D-01  4.37D-01  3.95D-01
 E= -613.625305168660     Delta-E=       -0.006105500295 Rises=F Damp=F
 DIIS: error= 7.59D-04 at cycle   6 NSaved=   6.
 NSaved= 6 IEnMin= 6 EnMin= -613.625305168660     IErMin= 6 ErrMin= 7.59D-04
 ErrMax= 7.59D-04  0.00D+00 EMaxC= 1.00D-01 BMatC= 8.16D-04 BMatP= 1.07D-02
 IDIUse=3 WtCom= 9.92D-01 WtEn= 7.59D-03
 Coeff-Com:  0.243D-01-0.335D-01 0.296D-02 0.556D-01 0.256D+00 0.695D+00
 Coeff-En:   0.000D+00 0.000D+00 0.000D+00 0.000D+00 0.000D+00 0.100D+01
 Coeff:      0.241D-01-0.332D-01 0.294D-02 0.552D-01 0.254D+00 0.697D+00
 Gap=     0.270 Goal=   None    Shift=    0.000
 RMSDP=2.73D-05 MaxDP=2.61D-03 DE=-6.11D-03 OVMax= 7.91D-03

 Cycle   7  Pass 0  IDiag  1:
 RMSU=  2.07D-05    CP:  1.03D+00  1.13D+00  9.34D-01  4.33D-01  5.48D-01
                    CP:  1.00D+00
 E= -613.625745296034     Delta-E=       -0.000440127374 Rises=F Damp=F
 DIIS: error= 4.02D-04 at cycle   7 NSaved=   7.
 NSaved= 7 IEnMin= 7 EnMin= -613.625745296034     IErMin= 7 ErrMin= 4.02D-04
 ErrMax= 4.02D-04  0.00D+00 EMaxC= 1.00D-01 BMatC= 1.99D-04 BMatP= 8.16D-04
 IDIUse=3 WtCom= 9.96D-01 WtEn= 4.02D-03
 Coeff-Com:  0.181D-01-0.242D-01 0.179D-02 0.155D-01 0.830D-01 0.394D+00
 Coeff-Com:  0.512D+00
 Coeff-En:   0.000D+00 0.000D+00 0.000D+00 0.000D+00 0.000D+00 0.169D+00
 Coeff-En:   0.831D+00
 Coeff:      0.180D-01-0.241D-01 0.178D-02 0.154D-01 0.827D-01 0.393D+00
 Coeff:      0.513D+00
 Gap=     0.270 Goal=   None    Shift=    0.000
 RMSDP=1.04D-05 MaxDP=9.48D-04 DE=-4.40D-04 OVMax= 3.10D-03

 Cycle   8  Pass 0  IDiag  1:
 RMSU=  6.27D-06    CP:  1.03D+00  1.13D+00  9.37D-01  4.42D-01  5.41D-01
                    CP:  1.05D+00  6.60D-01
 E= -613.625882759706     Delta-E=       -0.000137463672 Rises=F Damp=F
 DIIS: error= 1.29D-04 at cycle   8 NSaved=   8.
 NSaved= 8 IEnMin= 8 EnMin= -613.625882759706     IErMin= 8 ErrMin= 1.29D-04
 ErrMax= 1.29D-04  0.00D+00 EMaxC= 1.00D-01 BMatC= 1.94D-05 BMatP= 1.99D-04
 IDIUse=3 WtCom= 9.99D-01 WtEn= 1.29D-03
 Coeff-Com:  0.104D-01-0.139D-01 0.225D-02 0.345D-02 0.234D-01 0.177D+00
 Coeff-Com:  0.306D+00 0.491D+00
 Coeff-En:   0.000D+00 0.000D+00 0.000D+00 0.000D+00 0.000D+00 0.000D+00
 Coeff-En:   0.000D+00 0.100D+01
 Coeff:      0.104D-01-0.139D-01 0.224D-02 0.345D-02 0.233D-01 0.177D+00
 Coeff:      0.306D+00 0.492D+00
 Gap=     0.270 Goal=   None    Shift=    0.000
 RMSDP=4.48D-06 MaxDP=4.59D-04 DE=-1.37D-04 OVMax= 1.11D-03

 Initial convergence to 1.0D-05 achieved.  Increase integral accuracy.
 Cycle   9  Pass 1  IDiag  1:
 E= -613.625854130193     Delta-E=        0.000028629513 Rises=F Damp=F
 DIIS: error= 7.61D-05 at cycle   1 NSaved=   1.
 NSaved= 1 IEnMin= 1 EnMin= -613.625854130193     IErMin= 1 ErrMin= 7.61D-05
 ErrMax= 7.61D-05  0.00D+00 EMaxC= 1.00D-01 BMatC= 9.25D-06 BMatP= 9.25D-06
 IDIUse=1 WtCom= 1.00D+00 WtEn= 0.00D+00
 Coeff-Com:  0.100D+01
 Coeff:      0.100D+01
 Gap=     0.270 Goal=   None    Shift=    0.000
 RMSDP=4.48D-06 MaxDP=4.59D-04 DE= 2.86D-05 OVMax= 1.03D-03

 Cycle  10  Pass 1  IDiag  1:
 RMSU=  2.42D-05    CP:  1.00D+00
 E= -613.625854078845     Delta-E=        0.000000051348 Rises=F Damp=F
 DIIS: error= 9.41D-05 at cycle   2 NSaved=   2.
 NSaved= 2 IEnMin= 1 EnMin= -613.625854130193     IErMin= 1 ErrMin= 7.61D-05
 ErrMax= 9.41D-05  0.00D+00 EMaxC= 1.00D-01 BMatC= 7.43D-06 BMatP= 9.25D-06
 IDIUse=1 WtCom= 1.00D+00 WtEn= 0.00D+00
 Coeff-Com:  0.463D+00 0.537D+00
 Coeff:      0.463D+00 0.537D+00
 Gap=     0.270 Goal=   None    Shift=    0.000
 RMSDP=3.31D-06 MaxDP=3.57D-04 DE= 5.13D-08 OVMax= 1.10D-03

 Cycle  11  Pass 1  IDiag  1:
 RMSU=  3.30D-06    CP:  1.00D+00  9.93D-01
 E= -613.625857209385     Delta-E=       -0.000003130540 Rises=F Damp=F
 DIIS: error= 6.66D-05 at cycle   3 NSaved=   3.
 NSaved= 3 IEnMin= 3 EnMin= -613.625857209385     IErMin= 3 ErrMin= 6.66D-05
 ErrMax= 6.66D-05  0.00D+00 EMaxC= 1.00D-01 BMatC= 3.08D-06 BMatP= 7.43D-06
 IDIUse=1 WtCom= 1.00D+00 WtEn= 0.00D+00
 Coeff-Com:  0.313D-01 0.387D+00 0.582D+00
 Coeff:      0.313D-01 0.387D+00 0.582D+00
 Gap=     0.270 Goal=   None    Shift=    0.000
 RMSDP=1.37D-06 MaxDP=1.47D-04 DE=-3.13D-06 OVMax= 4.45D-04

 Cycle  12  Pass 1  IDiag  1:
 RMSU=  4.16D-07    CP:  1.00D+00  1.01D+00  6.21D-01
 E= -613.625859359111     Delta-E=       -0.000002149726 Rises=F Damp=F
 DIIS: error= 9.47D-06 at cycle   4 NSaved=   4.
 NSaved= 4 IEnMin= 4 EnMin= -613.625859359111     IErMin= 4 ErrMin= 9.47D-06
 ErrMax= 9.47D-06  0.00D+00 EMaxC= 1.00D-01 BMatC= 9.27D-08 BMatP= 3.08D-06
 IDIUse=1 WtCom= 1.00D+00 WtEn= 0.00D+00
 Coeff-Com:  0.140D-02 0.190D+00 0.314D+00 0.495D+00
 Coeff:      0.140D-02 0.190D+00 0.314D+00 0.495D+00
 Gap=     0.270 Goal=   None    Shift=    0.000
 RMSDP=2.06D-07 MaxDP=1.86D-05 DE=-2.15D-06 OVMax= 5.20D-05

 Cycle  13  Pass 1  IDiag  1:
 RMSU=  1.46D-07    CP:  1.00D+00  1.01D+00  6.32D-01  6.66D-01
 E= -613.625859425572     Delta-E=       -0.000000066461 Rises=F Damp=F
 DIIS: error= 1.29D-06 at cycle   5 NSaved=   5.
 NSaved= 5 IEnMin= 5 EnMin= -613.625859425572     IErMin= 5 ErrMin= 1.29D-06
 ErrMax= 1.29D-06  0.00D+00 EMaxC= 1.00D-01 BMatC= 3.40D-09 BMatP= 9.27D-08
 IDIUse=1 WtCom= 1.00D+00 WtEn= 0.00D+00
 Coeff-Com: -0.149D-02 0.599D-01 0.102D+00 0.226D+00 0.613D+00
 Coeff:     -0.149D-02 0.599D-01 0.102D+00 0.226D+00 0.613D+00
 Gap=     0.270 Goal=   None    Shift=    0.000
 RMSDP=4.90D-08 MaxDP=3.90D-06 DE=-6.65D-08 OVMax= 1.13D-05

 Cycle  14  Pass 1  IDiag  1:
 RMSU=  2.83D-08    CP:  1.00D+00  1.01D+00  6.34D-01  7.52D-01  9.10D-01
 E= -613.625859427660     Delta-E=       -0.000000002088 Rises=F Damp=F
 DIIS: error= 3.62D-07 at cycle   6 NSaved=   6.
 NSaved= 6 IEnMin= 6 EnMin= -613.625859427660     IErMin= 6 ErrMin= 3.62D-07
 ErrMax= 3.62D-07  0.00D+00 EMaxC= 1.00D-01 BMatC= 1.83D-10 BMatP= 3.40D-09
 IDIUse=1 WtCom= 1.00D+00 WtEn= 0.00D+00
 Coeff-Com: -0.720D-03 0.184D-01 0.318D-01 0.793D-01 0.271D+00 0.600D+00
 Coeff:     -0.720D-03 0.184D-01 0.318D-01 0.793D-01 0.271D+00 0.600D+00
 Gap=     0.270 Goal=   None    Shift=    0.000
 RMSDP=1.64D-08 MaxDP=1.48D-06 DE=-2.09D-09 OVMax= 5.11D-06

 Cycle  15  Pass 1  IDiag  1:
 RMSU=  1.42D-08    CP:  1.00D+00  1.01D+00  6.34D-01  7.63D-01  9.43D-01
                    CP:  8.44D-01
 E= -613.625859427811     Delta-E=       -0.000000000151 Rises=F Damp=F
 DIIS: error= 2.82D-07 at cycle   7 NSaved=   7.
 NSaved= 7 IEnMin= 7 EnMin= -613.625859427811     IErMin= 7 ErrMin= 2.82D-07
 ErrMax= 2.82D-07  0.00D+00 EMaxC= 1.00D-01 BMatC= 7.08D-11 BMatP= 1.83D-10
 IDIUse=1 WtCom= 1.00D+00 WtEn= 0.00D+00
 Coeff-Com: -0.187D-03 0.206D-03 0.504D-03 0.611D-02 0.499D-01 0.393D+00
 Coeff-Com:  0.550D+00
 Coeff:     -0.187D-03 0.206D-03 0.504D-03 0.611D-02 0.499D-01 0.393D+00
 Coeff:      0.550D+00
 Gap=     0.270 Goal=   None    Shift=    0.000
 RMSDP=1.03D-08 MaxDP=1.01D-06 DE=-1.51D-10 OVMax= 2.27D-06

 Cycle  16  Pass 1  IDiag  1:
 RMSU=  5.46D-09    CP:  1.00D+00  1.01D+00  6.35D-01  7.74D-01  9.64D-01
                    CP:  1.02D+00  7.42D-01
 E= -613.625859427803     Delta-E=        0.000000000009 Rises=F Damp=F
 DIIS: error= 7.53D-08 at cycle   8 NSaved=   8.
 NSaved= 8 IEnMin= 7 EnMin= -613.625859427811     IErMin= 8 ErrMin= 7.53D-08
 ErrMax= 7.53D-08  0.00D+00 EMaxC= 1.00D-01 BMatC= 6.32D-12 BMatP= 7.08D-11
 IDIUse=1 WtCom= 1.00D+00 WtEn= 0.00D+00
 Coeff-Com: -0.121D-04-0.221D-02-0.370D-02-0.642D-02-0.634D-02 0.144D+00
 Coeff-Com:  0.301D+00 0.574D+00
 Coeff:     -0.121D-04-0.221D-02-0.370D-02-0.642D-02-0.634D-02 0.144D+00
 Coeff:      0.301D+00 0.574D+00
 Gap=     0.270 Goal=   None    Shift=    0.000
 RMSDP=2.60D-09 MaxDP=2.73D-07 DE= 8.87D-12 OVMax= 4.73D-07

 SCF Done:  E(RM06) =  -613.625859428     A.U. after   16 cycles
            NFock= 16  Conv=0.26D-08     -V/T= 2.0046
 KE= 6.108029402480D+02 PE=-3.182698878237D+03 EE= 1.082652791837D+03
 Leave Link  502 at Wed Jun 18 16:23:29 2014, MaxMem=  4294967296 cpu:     26048.3
 (Enter /home/ztw1e12/g09/l801.exe)
 DoSCS=F DFT=T ScalE2(SS,OS)=  1.000000  1.000000
 Range of M.O.s used for correlation:     1   932
 NBasis=  1036 NAE=    51 NBE=    51 NFC=     0 NFV=     0
 NROrb=    932 NOA=    51 NOB=    51 NVA=   881 NVB=   881

 **** Warning!!: The largest alpha MO coefficient is  0.10335447D+02

 Leave Link  801 at Wed Jun 18 16:23:29 2014, MaxMem=  4294967296 cpu:         0.4
 (Enter /home/ztw1e12/g09/l1002.exe)
 Minotr:  Closed shell wavefunction.
          IDoAtm=1111111111111111111111111111111
          Direct CPHF calculation.
          Differentiating once with respect to Fermi-contact.
          Electric field/nuclear overlap derivatives assumed to be zero.
          Requested convergence is 1.0D-10 RMS, and 1.0D-09 maximum.
          Secondary convergence is 1.0D-12 RMS, and 1.0D-12 maximum.
          NewPWx=T KeepS1=F KeepF1=F KeepIn=T MapXYZ=F SortEE=F KeepMc=T.
          MDV=    4294966050 using IRadAn=  199590.
 Using stored XC quadrature information.
          Solving linear equations simultaneously, MaxMat=       0.
          There are    31 degrees of freedom in the 1st order CPHF.  IDoFFX=0 NUNeed=    31.
     31 vectors produced by pass  0 Test12= 1.45D-17 3.23D-11 XBig12= 4.16D+01 2.57D+00.
 AX will form    31 AO Fock derivatives at one time.
 FoFJK:  IHMeth= 1 ICntrl=       0 DoSepK=F KAlg= 0 I1Cent=   0 FoldK=F
 IRaf= 500000000 NMat=  31 IRICut=       1 DoRegI=T DoRafI=F ISym2E=-1.
 FoFCou: FMM=F IPFlag=           0 FMFlag=      100000 FMFlg1=           0
         NFxFlg=           0 DoJE=F BraDBF=F KetDBF=F FulRan=T
         wScrn=  0.000000 ICntrl=       0 IOpCl=  0 I1Cent=           0 NGrid=           0
         NMat0=   31 NMatS0=      0 NMatT0=   31 NMatD0=   31 NMtDS0=    0 NMtDT0=    0
 Petite list used in FoFCou.
     31 vectors produced by pass  1 Test12= 1.45D-17 3.23D-11 XBig12= 3.45D-01 1.77D-01.
     31 vectors produced by pass  2 Test12= 1.45D-17 3.23D-11 XBig12= 1.68D-02 4.04D-02.
     31 vectors produced by pass  3 Test12= 1.45D-17 3.23D-11 XBig12= 3.65D-04 6.30D-03.
     31 vectors produced by pass  4 Test12= 1.45D-17 3.23D-11 XBig12= 5.18D-06 9.05D-04.
     31 vectors produced by pass  5 Test12= 1.45D-17 3.23D-11 XBig12= 1.06D-07 1.59D-04.
     31 vectors produced by pass  6 Test12= 1.45D-17 3.23D-11 XBig12= 3.21D-09 1.75D-05.
     31 vectors produced by pass  7 Test12= 1.45D-17 3.23D-11 XBig12= 9.99D-11 4.15D-06.
     31 vectors produced by pass  8 Test12= 1.45D-17 3.23D-11 XBig12= 2.45D-12 3.68D-07.
     31 vectors produced by pass  9 Test12= 1.45D-17 3.23D-11 XBig12= 6.23D-14 8.20D-08.
     31 vectors produced by pass 10 Test12= 1.45D-17 3.23D-11 XBig12= 2.39D-15 8.42D-09.
     30 vectors produced by pass 11 Test12= 1.45D-17 3.23D-11 XBig12= 2.19D-17 6.58D-10.
      2 vectors produced by pass 12 Test12= 1.45D-17 3.23D-11 XBig12= 1.81D-19 3.66D-11.
 InvSVY:  IOpt=1 It=  1 EMax= 1.07D-14
 Solved reduced A of dimension   373 with    31 vectors.
 Max diff in FC couplings:  IJMax=    17     9 Diff= 3.76D-04 IJMaxR=    28    13 DiffR= 1.70D+00
 Fermi Contact (FC) contribution to K (Hz):
                1             2             3             4             5 
      1  0.123400D+11
      2  0.277534D+02  0.123400D+11
      3 -0.949387D+00  0.190853D+02  0.123400D+11
      4 -0.741196D-01  0.229808D+01 -0.269101D-01  0.123400D+11
      5 -0.676892D-02  0.185334D+00 -0.362981D-02  0.175401D+02  0.123400D+11
      6  0.194501D-02 -0.121267D-02 -0.177981D-02  0.175156D+02 -0.758138D+00
      7 -0.276073D-02 -0.309368D-01 -0.108663D-02  0.168012D+02 -0.763115D+00
      8 -0.964324D+01  0.264496D+01  0.389696D+00  0.356803D-01  0.522842D-02
      9  0.256494D+00  0.186724D+02 -0.636383D+00  0.100564D+00 -0.759217D-02
     10  0.993982D-01  0.281951D+00  0.136368D+00  0.140876D-01  0.814458D-03
     11  0.291744D+02  0.137324D+02  0.134538D+00  0.182711D-01 -0.271603D-03
     12  0.472733D+00  0.122397D+00 -0.208269D-01 -0.125601D-02 -0.146822D-03
     13 -0.379921D+00  0.113235D+01  0.579631D-02 -0.510855D-02 -0.291103D-03
     14  0.194225D+00 -0.891093D-01  0.137164D-01  0.100164D-02  0.215053D-03
     15  0.194507D+00 -0.805955D-01  0.837406D-02  0.695515D-03  0.142890D-03
     16  0.963292D+00 -0.264046D-01 -0.398344D-03  0.807452D-04  0.124329D-04
     17  0.127668D+00 -0.429301D+00  0.253513D+00  0.824976D-01  0.467244D-02
     18 -0.160382D+00  0.867409D+00 -0.816045D-01  0.172429D-02 -0.127987D-03
     19 -0.208897D-02  0.103279D+00 -0.175168D-02  0.115991D-02  0.238687D-04
     20  0.575926D-01  0.177343D-01  0.205370D-01  0.903741D-03  0.816375D-04
     21  0.686175D-01  0.380145D-01  0.262013D-01  0.276610D-04 -0.879463D-04
     22  0.493247D+00  0.797692D+00  0.243050D+00  0.194208D-01  0.457699D-02
     23  0.107706D+01 -0.286116D+00  0.968643D+00  0.171277D+02 -0.528502D+00
     24 -0.592495D-01  0.550741D+00 -0.140766D-01 -0.849352D+00  0.127787D+00
     25 -0.618249D-01 -0.119678D-01 -0.379893D-02  0.409236D-02  0.336032D+00
     26  0.655235D-03 -0.261505D-02  0.312999D-02  0.301313D+00 -0.331017D-02
     27  0.129289D-01  0.786079D-02  0.613935D-02  0.145630D+01 -0.281617D-04
     28  0.779243D-03 -0.229217D-01  0.964061D-02  0.416572D+00 -0.106984D-01
     29 -0.444867D+00  0.163566D+02 -0.775644D+00  0.276829D+00  0.143102D+01
     30  0.881468D+00 -0.854898D+00  0.573726D-01  0.677041D-01 -0.205442D-01
     31  0.337504D-01 -0.509781D+00  0.258418D+00  0.721517D+00  0.300892D-01
                6             7             8             9            10 
      6  0.123400D+11
      7 -0.746217D+00  0.123400D+11
      8  0.603585D-02  0.626165D-01  0.123400D+11
      9  0.643490D-02  0.114061D-02  0.490830D+00  0.123400D+11
     10 -0.143814D-03  0.321953D-04  0.624445D-02  0.317884D+02  0.123400D+11
     11  0.367029D-02 -0.497947D-03  0.638923D+01  0.112072D+01  0.200794D+00
     12  0.236495D-03  0.105706D-03  0.467420D+00  0.529506D-01  0.334992D-03
     13 -0.651927D-03  0.119908D-02  0.624018D+00  0.323468D+00  0.182319D-01
     14 -0.100005D-04  0.234081D-03  0.244240D+00 -0.483201D-02 -0.143152D-02
     15  0.135113D-03 -0.269875D-04  0.240746D+00 -0.238192D-02 -0.123778D-02
     16  0.126353D-05  0.564576D-04  0.182034D+00  0.238196D-01 -0.895489D-03
     17  0.190456D-02 -0.404676D-03  0.406898D-01  0.265647D+02  0.425041D+00
     18  0.172209D-03  0.366040D-04  0.758326D-01  0.125982D+02  0.926812D-01
     19  0.369767D-04 -0.184736D-04 -0.504319D-03  0.342676D+00 -0.961128D-02
     20 -0.807202D-05 -0.352644D-05  0.429422D-02  0.370793D+00 -0.102869D-01
     21 -0.232140D-04  0.102454D-04  0.249424D-02  0.370300D+00 -0.134351D-01
     22  0.420426D-04 -0.743285D-03  0.635349D+00  0.586369D+01  0.436116D+00
     23 -0.559431D+00 -0.795496D+00  0.727245D+00 -0.465313D-01  0.136838D-02
     24  0.154457D+00  0.416804D+00  0.143323D+00 -0.893700D-02  0.192968D-02
     25  0.125212D+01  0.331272D+00  0.229818D+00  0.727063D+00 -0.226391D-01
     26 -0.108025D-01 -0.969981D-02  0.210621D-01 -0.124499D-01 -0.385893D-03
     27  0.766322D-01 -0.109069D-01  0.614902D-01  0.350349D+00 -0.306368D-01
     28  0.133590D-01 -0.442754D-02  0.114103D-01  0.130448D+00 -0.120087D-01
     29  0.348975D+00  0.398722D+00  0.232878D+00  0.653046D+00  0.514406D+00
     30 -0.583223D-02 -0.771474D-02  0.692909D-01  0.954169D+00 -0.245780D-01
     31 -0.152839D-01 -0.287356D-02 -0.138179D-01  0.183286D+01 -0.214471D-01
               11            12            13            14            15 
     11  0.123400D+11
     12  0.313308D+02  0.123400D+11
     13  0.170995D+02  0.335498D+00  0.123400D+11
     14 -0.597277D+00  0.869580D-01  0.197014D+02  0.123400D+11
     15 -0.535081D+00  0.127935D+00  0.203061D+02 -0.734647D+00  0.123400D+11
     16 -0.399275D+00  0.289784D+00  0.182401D+02 -0.739162D+00 -0.755241D+00
     17 -0.645999D-01  0.334916D-03 -0.909363D-02  0.518937D-03  0.764135D-04
     18  0.180722D-01  0.777695D-03  0.111062D-01  0.167647D-02  0.133312D-02
     19  0.610448D-02  0.581941D-04  0.407065D-04 -0.547791D-04 -0.372147D-04
     20 -0.291256D-02 -0.152799D-03 -0.352318D-03  0.290580D-04 -0.456591D-04
     21  0.125080D-01 -0.331174D-04  0.215557D-02  0.122847D-03 -0.532488D-04
     22  0.156307D+00 -0.153804D-02  0.691744D-02  0.670953D-02  0.395842D-02
     23 -0.130651D+00  0.389389D-02  0.162294D-01 -0.278153D-04 -0.343683D-02
     24  0.336974D-01  0.565068D-03  0.115384D-01  0.418268D-02 -0.132542D-03
     25  0.847042D-02  0.197484D-03 -0.146761D-03  0.883051D-03 -0.270511D-03
     26  0.524375D-02 -0.236581D-03  0.558161D-03  0.985242D-03  0.329875D-03
     27 -0.200843D-02  0.160714D-03  0.215500D-03  0.169047D-03  0.662753D-05
     28  0.464269D-02  0.253671D-05  0.238592D-05  0.105303D-04  0.734997D-04
     29  0.863450D-01 -0.379076D-01 -0.123951D+00  0.733851D-01  0.989371D-01
     30 -0.256716D-01 -0.616245D-02 -0.992290D-02  0.545081D-02  0.698466D-02
     31  0.552865D-01 -0.427263D-02 -0.761378D-03  0.258426D-03  0.612919D-03
               16            17            18            19            20 
     16  0.123400D+11
     17 -0.121531D-03  0.123400D+11
     18  0.154448D-03  0.272286D+02  0.123400D+11
     19  0.598408D-05 -0.756722D+00  0.170443D+02  0.123400D+11
     20  0.117193D-03 -0.117317D+01  0.178223D+02 -0.724160D+00  0.123400D+11
     21  0.329494D-03 -0.121296D+01  0.180633D+02 -0.741477D+00 -0.923129D+00
     22  0.188823D-02 -0.951231D+01  0.374940D+01  0.830952D+00  0.424259D+00
     23  0.986416D-03 -0.426931D-01  0.230457D-02  0.252119D-03 -0.124862D-02
     24  0.296630D-03  0.659093D-02 -0.962977D-03  0.262545D-04 -0.947444D-05
     25  0.209593D-03  0.271016D-01 -0.893830D-02 -0.638293D-03  0.109680D-02
     26  0.897756D-04 -0.839081D-03  0.215471D-05 -0.110860D-03 -0.788981D-04
     27  0.523140D-04  0.266202D-01  0.175458D-02  0.168584D-02  0.403968D-03
     28  0.427690D-05  0.132766D-01 -0.977015D-03  0.127732D-03  0.225521D-03
     29  0.248131D-02  0.147227D+01 -0.430964D-01 -0.157382D-02  0.812499D-02
     30  0.391821D-03  0.419644D-02  0.223184D-01 -0.264691D-03 -0.198247D-03
     31  0.213883D-03  0.115128D+00  0.612241D-01 -0.694490D-04  0.127503D-02
               21            22            23            24            25 
     21  0.123400D+11
     22  0.448342D+00  0.123400D+11
     23 -0.143300D-03  0.564794D-01  0.123400D+11
     24  0.254514D-03  0.890667D-02  0.173844D+02  0.123400D+11
     25  0.716558D-03  0.610996D-01  0.174274D+02 -0.686984D+00  0.123400D+11
     26  0.000000D+00  0.110715D-03 -0.712615D+00  0.363480D+00  0.166434D+02
     27  0.293114D-03  0.244834D-02 -0.602210D+00  0.164309D+00  0.172661D+02
     28  0.127474D-03  0.187954D-02 -0.627156D+00  0.988112D-01  0.175576D+02
     29 -0.341700D-02  0.162915D+00  0.175093D+02 -0.752744D+00  0.383998D-01
     30 -0.758330D-03  0.671779D-02 -0.603151D+00  0.304472D+00  0.671735D+00
     31 -0.164327D-02 -0.769840D-02 -0.684836D+00  0.455354D-01  0.991483D+00
               26            27            28            29            30 
     26  0.123400D+11
     27 -0.733809D+00  0.123400D+11
     28 -0.768867D+00 -0.834411D+00  0.123400D+11
     29  0.465556D+00  0.129319D+00  0.120455D+01  0.123400D+11
     30 -0.199616D-01 -0.721111D-02  0.156717D-03  0.174650D+02  0.123400D+11
     31 -0.869547D-02 -0.838359D-02  0.508226D-01  0.169040D+02 -0.896344D+00
               31 
     31  0.123400D+11
 Fermi Contact (FC) contribution to J (Hz):
                1             2             3             4             5 
      1  0.243533D+11
      2  0.547719D+02  0.243533D+11
      3 -0.744974D+01  0.149761D+03  0.385007D+12
      4 -0.146277D+00  0.453532D+01 -0.211161D+00  0.243533D+11
      5 -0.531150D-01  0.145430D+01 -0.113250D+00  0.137636D+03  0.385007D+12
      6  0.152623D-01 -0.951573D-02 -0.555299D-01  0.137443D+03 -0.236539D+02
      7 -0.216632D-01 -0.242758D+00 -0.339029D-01  0.131837D+03 -0.238092D+02
      8  0.102621D+02 -0.281471D+01 -0.164891D+01 -0.379703D-01 -0.221229D-01
      9  0.145486D+00  0.105912D+02 -0.143522D+01  0.570409D-01 -0.171225D-01
     10  0.779968D+00  0.221244D+01  0.425467D+01  0.110544D+00  0.254111D-01
     11  0.165481D+02  0.778916D+01  0.303421D+00  0.103636D-01 -0.612543D-03
     12  0.370949D+01  0.960441D+00 -0.649797D+00 -0.985578D-02 -0.458084D-02
     13 -0.749783D+00  0.223473D+01  0.454831D-01 -0.100818D-01 -0.228426D-02
     14  0.152406D+01 -0.699232D+00  0.427950D+00  0.785976D-02  0.670963D-02
     15  0.152628D+01 -0.632425D+00  0.261270D+00  0.545764D-02  0.445815D-02
     16  0.755886D+01 -0.207195D+00 -0.124283D-01  0.633600D-03  0.387907D-03
     17  0.251957D+00 -0.847235D+00  0.198929D+01  0.162811D+00  0.366642D-01
     18 -0.316518D+00  0.171185D+01 -0.640343D+00  0.340293D-02 -0.100431D-02
     19 -0.163919D-01  0.810423D+00 -0.546522D-01  0.910169D-02  0.744702D-03
     20  0.451923D+00  0.139159D+00  0.640753D+00  0.709156D-02  0.254709D-02
     21  0.538435D+00  0.298296D+00  0.817481D+00  0.217053D-03 -0.274392D-02
     22 -0.524903D+00 -0.848889D+00 -0.102841D+01 -0.206672D-01 -0.193665D-01
     23  0.212561D+01 -0.564658D+00  0.760085D+01  0.338020D+02 -0.414710D+01
     24 -0.464925D+00  0.432161D+01 -0.439188D+00 -0.666478D+01  0.398696D+01
     25 -0.122013D+00 -0.236188D-01 -0.298098D-01  0.807637D-02  0.263681D+01
     26  0.514157D-02 -0.205200D-01  0.976554D-01  0.236438D+01 -0.103277D+00
     27  0.101452D+00  0.616829D-01  0.191547D+00  0.114275D+02 -0.878643D-03
     28  0.611464D-02 -0.179864D+00  0.300787D+00  0.326880D+01 -0.333791D+00
     29 -0.877956D+00  0.322802D+02 -0.608640D+01  0.546329D+00  0.112290D+02
     30  0.691680D+01 -0.670830D+01  0.179002D+01  0.531267D+00 -0.640977D+00
     31  0.264836D+00 -0.400020D+01  0.806263D+01  0.566167D+01  0.938782D+00
                6             7             8             9            10 
      6  0.385007D+12
      7 -0.232819D+02  0.385007D+12
      8 -0.255393D-01 -0.264948D+00  0.708114D+10
      9  0.145125D-01  0.257240D-02 -0.150124D+00  0.201170D+10
     10 -0.448699D-02  0.100449D-02 -0.264220D-01  0.716919D+02  0.385007D+12
     11  0.827755D-02 -0.112301D-02 -0.195419D+01  0.182703D+00  0.452849D+00
     12  0.737863D-02  0.329804D-02 -0.197778D+01  0.119419D+00  0.104517D-01
     13 -0.511561D-02  0.940903D-02 -0.664068D+00  0.183475D+00  0.143064D+00
     14 -0.312015D-03  0.730332D-02 -0.103345D+01 -0.108976D-01 -0.446632D-01
     15  0.421551D-02 -0.842008D-03 -0.101866D+01 -0.537191D-02 -0.386186D-01
     16  0.394222D-04  0.176147D-02 -0.770238D+00  0.537199D-01 -0.279392D-01
     17  0.149449D-01 -0.317545D-02 -0.433013D-01  0.150678D+02  0.333526D+01
     18  0.135131D-02  0.287228D-03 -0.806996D-01  0.714584D+01  0.727261D+00
     19  0.115367D-02 -0.576376D-03  0.213391D-02  0.772832D+00 -0.299871D+00
     20 -0.251847D-03 -0.110025D-03 -0.181700D-01  0.836243D+00 -0.320951D+00
     21 -0.724276D-03  0.319657D-03 -0.105538D-01  0.835131D+00 -0.419175D+00
     22 -0.177894D-03  0.314504D-02  0.364586D+00 -0.179345D+01 -0.184533D+01
     23 -0.438980D+01 -0.624218D+01 -0.773920D+00 -0.263931D-01  0.107375D-01
     24  0.481906D+01  0.130043D+02 -0.606438D+00 -0.201555D-01  0.602059D-01
     25  0.982527D+01  0.259946D+01 -0.244568D+00  0.412399D+00 -0.177647D+00
     26 -0.337038D+00 -0.302634D+00 -0.891194D-01 -0.280781D-01 -0.120398D-01
     27  0.239092D+01 -0.340295D+00 -0.260182D+00  0.790136D+00 -0.955866D+00
     28  0.416801D+00 -0.138139D+00 -0.482801D-01  0.294198D+00 -0.374671D+00
     29  0.273837D+01  0.312873D+01 -0.247824D+00  0.370416D+00  0.403649D+01
     30 -0.181965D+00 -0.240700D+00 -0.293189D+00  0.215192D+01 -0.766834D+00
     31 -0.476857D+00 -0.896549D-01  0.584673D-01  0.413361D+01 -0.669149D+00
               11            12            13            14            15 
     11  0.201170D+10
     12  0.706598D+02  0.385007D+12
     13  0.969902D+01  0.263262D+01  0.243533D+11
     14 -0.134703D+01  0.271309D+01  0.154595D+03  0.385007D+12
     15 -0.120676D+01  0.399157D+01  0.159340D+03 -0.229209D+02  0.385007D+12
     16 -0.900478D+00  0.904125D+01  0.143128D+03 -0.230618D+02 -0.235635D+02
     17 -0.366418D-01  0.262805D-02 -0.179465D-01  0.407205D-02  0.599609D-03
     18  0.102508D-01  0.610250D-02  0.219183D-01  0.131551D-01  0.104609D-01
     19  0.137673D-01  0.181565D-02  0.319420D-03 -0.170911D-02 -0.116110D-02
     20 -0.656865D-02 -0.476733D-02 -0.276461D-02  0.906608D-03 -0.142456D-02
     21  0.282092D-01 -0.103326D-02  0.169146D-01  0.383283D-02 -0.166136D-02
     22 -0.478075D-01  0.650787D-02 -0.736141D-02 -0.283898D-01 -0.167492D-01
     23 -0.741067D-01  0.305550D-01  0.320292D-01 -0.218264D-03 -0.269684D-01
     24  0.759973D-01  0.176301D-01  0.905406D-01  0.130499D+00 -0.413531D-02
     25  0.480452D-02  0.154964D-02 -0.289637D-03  0.692922D-02 -0.212267D-02
     26  0.118262D-01 -0.738132D-02  0.437983D-02  0.307395D-01  0.102921D-01
     27 -0.452959D-02  0.501426D-02  0.169100D-02  0.527426D-02  0.206779D-03
     28  0.104706D-01  0.791451D-04  0.187221D-04  0.328546D-03  0.229319D-02
     29  0.489759D-01 -0.297457D+00 -0.244621D+00  0.575846D+00  0.776350D+00
     30 -0.578968D-01 -0.192268D+00 -0.778640D-01  0.170065D+00  0.217921D+00
     31  0.124687D+00 -0.133306D+00 -0.597446D-02  0.806287D-02  0.191231D-01
               16            17            18            19            20 
     16  0.385007D+12
     17 -0.953641D-03  0.243533D+11
     18  0.121194D-02  0.537363D+02  0.243533D+11
     19  0.186703D-03 -0.593793D+01  0.133745D+03  0.385007D+12
     20  0.365641D-02 -0.920578D+01  0.139850D+03 -0.225937D+02  0.385007D+12
     21  0.102802D-01 -0.951796D+01  0.141741D+03 -0.231340D+02 -0.288016D+02
     22 -0.798960D-02  0.101228D+02 -0.399004D+01 -0.351598D+01 -0.179516D+01
     23  0.774031D-02 -0.842559D-01  0.454813D-02  0.197836D-02 -0.979781D-02
     24  0.925486D-02  0.517184D-01 -0.755639D-02  0.819139D-03 -0.295602D-03
     25  0.164465D-02  0.534858D-01 -0.176400D-01 -0.500862D-02  0.860652D-02
     26  0.280100D-02 -0.658419D-02  0.169078D-04 -0.345882D-02 -0.246162D-02
     27  0.163219D-02  0.208886D+00  0.137680D-01  0.525983D-01  0.126038D-01
     28  0.133439D-03  0.104180D+00 -0.766654D-02  0.398523D-02  0.703626D-02
     29  0.194706D-01  0.290556D+01 -0.850519D-01 -0.123496D-01  0.637560D-01
     30  0.122248D-01  0.329290D-01  0.175130D+00 -0.825835D-02 -0.618529D-02
     31  0.667313D-02  0.903399D+00  0.480420D+00 -0.216681D-02  0.397807D-01
               21            22            23            24            25 
     21  0.385007D+12
     22 -0.189706D+01  0.708114D+10
     23 -0.112446D-02 -0.601042D-01  0.243533D+11
     24  0.794082D-02 -0.376866D-01  0.136414D+03  0.385007D+12
     25  0.562276D-02 -0.650210D-01  0.343934D+02 -0.539070D+01  0.243533D+11
     26  0.104609D-04 -0.468465D-03 -0.559182D+01  0.113406D+02  0.130599D+03
     27  0.914514D-02 -0.103596D-01 -0.472548D+01  0.512644D+01  0.135485D+03
     28  0.397717D-02 -0.795287D-02 -0.492123D+01  0.308291D+01  0.137772D+03
     29 -0.268128D-01 -0.173371D+00  0.345550D+02 -0.590671D+01  0.757830D-01
     30 -0.236599D-01 -0.284248D-01 -0.473287D+01  0.949953D+01  0.527104D+01
     31 -0.512701D-01  0.325740D-01 -0.537384D+01  0.142070D+01  0.778007D+01
               26            27            28            29            30 
     26  0.385007D+12
     27 -0.228948D+02  0.385007D+12
     28 -0.239886D+02 -0.260336D+02  0.385007D+12
     29  0.365318D+01  0.101476D+01  0.945196D+01  0.243533D+11
     30 -0.622801D+00 -0.224986D+00  0.488957D-02  0.137046D+03  0.385007D+12
     31 -0.271298D+00 -0.261568D+00  0.158566D+01  0.132644D+03 -0.279659D+02
               31 
     31  0.385007D+12
 End of Minotr F.D. properties file   721 does not exist.
 End of Minotr F.D. properties file   722 does not exist.
 End of Minotr F.D. properties file   788 does not exist.
 Leave Link 1002 at Wed Jun 18 22:55:15 2014, MaxMem=  4294967296 cpu:    375166.2
 (Enter /home/ztw1e12/g09/l601.exe)
 Copying SCF densities to generalized density rwf, IOpCl= 0 IROHF=0.

 **********************************************************************

            Population analysis using the SCF density.

 **********************************************************************

 Orbital symmetries:
       Occupied  (A) (A) (A) (A) (A) (A) (A) (A) (A) (A) (A) (A)
                 (A) (A) (A) (A) (A) (A) (A) (A) (A) (A) (A) (A)
                 (A) (A) (A) (A) (A) (A) (A) (A) (A) (A) (A) (A)
                 (A) (A) (A) (A) (A) (A) (A) (A) (A) (A) (A) (A)
                 (A) (A) (A)
       Virtual   (A) (A) (A) (A) (A) (A) (A) (A) (A) (A) (A) (A)
                 (A) (A) (A) (A) (A) (A) (A) (A) (A) (A) (A) (A)
                 (A) (A) (A) (A) (A) (A) (A) (A) (A) (A) (A) (A)
                 (A) (A) (A) (A) (A) (A) (A) (A) (A) (A) (A) (A)
                 (A) (A) (A) (A) (A) (A) (A) (A) (A) (A) (A) (A)
                 (A) (A) (A) (A) (A) (A) (A) (A) (A) (A) (A) (A)
                 (A) (A) (A) (A) (A) (A) (A) (A) (A) (A) (A) (A)
                 (A) (A) (A) (A) (A) (A) (A) (A) (A) (A) (A) (A)
                 (A) (A) (A) (A) (A) (A) (A) (A) (A) (A) (A) (A)
                 (A) (A) (A) (A) (A) (A) (A) (A) (A) (A) (A) (A)
                 (A) (A) (A) (A) (A) (A) (A) (A) (A) (A) (A) (A)
                 (A) (A) (A) (A) (A) (A) (A) (A) (A) (A) (A) (A)
                 (A) (A) (A) (A) (A) (A) (A) (A) (A) (A) (A) (A)
                 (A) (A) (A) (A) (A) (A) (A) (A) (A) (A) (A) (A)
                 (A) (A) (A) (A) (A) (A) (A) (A) (A) (A) (A) (A)
                 (A) (A) (A) (A) (A) (A) (A) (A) (A) (A) (A) (A)
                 (A) (A) (A) (A) (A) (A) (A) (A) (A) (A) (A) (A)
                 (A) (A) (A) (A) (A) (A) (A) (A) (A) (A) (A) (A)
                 (A) (A) (A) (A) (A) (A) (A) (A) (A) (A) (A) (A)
                 (A) (A) (A) (A) (A) (A) (A) (A) (A) (A) (A) (A)
                 (A) (A) (A) (A) (A) (A) (A) (A) (A) (A) (A) (A)
                 (A) (A) (A) (A) (A) (A) (A) (A) (A) (A) (A) (A)
                 (A) (A) (A) (A) (A) (A) (A) (A) (A) (A) (A) (A)
                 (A) (A) (A) (A) (A) (A) (A) (A) (A) (A) (A) (A)
                 (A) (A) (A) (A) (A) (A) (A) (A) (A) (A) (A) (A)
                 (A) (A) (A) (A) (A) (A) (A) (A) (A) (A) (A) (A)
                 (A) (A) (A) (A) (A) (A) (A) (A) (A) (A) (A) (A)
                 (A) (A) (A) (A) (A) (A) (A) (A) (A) (A) (A) (A)
                 (A) (A) (A) (A) (A) (A) (A) (A) (A) (A) (A) (A)
                 (A) (A) (A) (A) (A) (A) (A) (A) (A) (A) (A) (A)
                 (A) (A) (A) (A) (A) (A) (A) (A) (A) (A) (A) (A)
                 (A) (A) (A) (A) (A) (A) (A) (A) (A) (A) (A) (A)
                 (A) (A) (A) (A) (A) (A) (A) (A) (A) (A) (A) (A)
                 (A) (A) (A) (A) (A) (A) (A) (A) (A) (A) (A) (A)
                 (A) (A) (A) (A) (A) (A) (A) (A) (A) (A) (A) (A)
                 (A) (A) (A) (A) (A) (A) (A) (A) (A) (A) (A) (A)
                 (A) (A) (A) (A) (A) (A) (A) (A) (A) (A) (A) (A)
                 (A) (A) (A) (A) (A) (A) (A) (A) (A) (A) (A) (A)
                 (A) (A) (A) (A) (A) (A) (A) (A) (A) (A) (A) (A)
                 (A) (A) (A) (A) (A) (A) (A) (A) (A) (A) (A) (A)
                 (A) (A) (A) (A) (A) (A) (A) (A) (A) (A) (A) (A)
                 (A) (A) (A) (A) (A) (A) (A) (A) (A) (A) (A) (A)
                 (A) (A) (A) (A) (A) (A) (A) (A) (A) (A) (A) (A)
                 (A) (A) (A) (A) (A) (A) (A) (A) (A) (A) (A) (A)
                 (A) (A) (A) (A) (A) (A) (A) (A) (A) (A) (A) (A)
                 (A) (A) (A) (A) (A) (A) (A) (A) (A) (A) (A) (A)
                 (A) (A) (A) (A) (A) (A) (A) (A) (A) (A) (A) (A)
                 (A) (A) (A) (A) (A) (A) (A) (A) (A) (A) (A) (A)
                 (A) (A) (A) (A) (A) (A) (A) (A) (A) (A) (A) (A)
                 (A) (A) (A) (A) (A) (A) (A) (A) (A) (A) (A) (A)
                 (A) (A) (A) (A) (A) (A) (A) (A) (A) (A) (A) (A)
                 (A) (A) (A) (A) (A) (A) (A) (A) (A) (A) (A) (A)
                 (A) (A) (A) (A) (A) (A) (A) (A) (A) (A) (A) (A)
                 (A) (A) (A) (A) (A) (A) (A) (A) (A) (A) (A) (A)
                 (A) (A) (A) (A) (A) (A) (A) (A) (A) (A) (A) (A)
                 (A) (A) (A) (A) (A) (A) (A) (A) (A) (A) (A) (A)
                 (A) (A) (A) (A) (A) (A) (A) (A) (A) (A) (A) (A)
                 (A) (A) (A) (A) (A) (A) (A) (A) (A) (A) (A) (A)
                 (A) (A) (A) (A) (A) (A) (A) (A) (A) (A) (A) (A)
                 (A) (A) (A) (A) (A) (A) (A) (A) (A) (A) (A) (A)
                 (A) (A) (A) (A) (A) (A) (A) (A) (A) (A) (A) (A)
                 (A) (A) (A) (A) (A) (A) (A) (A) (A) (A) (A) (A)
                 (A) (A) (A) (A) (A) (A) (A) (A) (A) (A) (A) (A)
                 (A) (A) (A) (A) (A) (A) (A) (A) (A) (A) (A) (A)
                 (A) (A) (A) (A) (A) (A) (A) (A) (A) (A) (A) (A)
                 (A) (A) (A) (A) (A) (A) (A) (A) (A) (A) (A) (A)
                 (A) (A) (A) (A) (A) (A) (A) (A) (A) (A) (A) (A)
                 (A) (A) (A) (A) (A) (A) (A) (A) (A) (A) (A) (A)
                 (A) (A) (A) (A) (A) (A) (A) (A) (A) (A) (A) (A)
                 (A) (A) (A) (A) (A) (A) (A) (A) (A) (A) (A) (A)
                 (A) (A) (A) (A) (A) (A) (A) (A) (A) (A) (A) (A)
                 (A) (A) (A) (A) (A) (A) (A) (A) (A) (A) (A) (A)
                 (A) (A) (A) (A) (A) (A) (A) (A) (A) (A) (A) (A)
                 (A) (A) (A) (A) (A)
 The electronic state is 1-A.
 Alpha  occ. eigenvalues --  -19.17051 -19.16348 -14.41874 -14.41365 -10.33375
 Alpha  occ. eigenvalues --  -10.33233 -10.29201 -10.27138 -10.25648 -10.25041
 Alpha  occ. eigenvalues --  -10.23720 -10.23366 -10.23364  -1.05325  -1.03973
 Alpha  occ. eigenvalues --   -0.94289  -0.94118  -0.83889  -0.78530  -0.74270
 Alpha  occ. eigenvalues --   -0.71995  -0.70417  -0.66018  -0.60927  -0.59575
 Alpha  occ. eigenvalues --   -0.58499  -0.54383  -0.50945  -0.49686  -0.48503
 Alpha  occ. eigenvalues --   -0.46786  -0.46108  -0.45398  -0.44908  -0.44617
 Alpha  occ. eigenvalues --   -0.42727  -0.41283  -0.41010  -0.40378  -0.40330
 Alpha  occ. eigenvalues --   -0.40218  -0.38279  -0.37501  -0.36521  -0.35256
 Alpha  occ. eigenvalues --   -0.34412  -0.33931  -0.28106  -0.27483  -0.26108
 Alpha  occ. eigenvalues --   -0.25992
 Alpha virt. eigenvalues --    0.00970   0.02768   0.02879   0.03770   0.04462
 Alpha virt. eigenvalues --    0.04991   0.06419   0.07412   0.07858   0.08298
 Alpha virt. eigenvalues --    0.09653   0.10007   0.10490   0.11806   0.11980
 Alpha virt. eigenvalues --    0.12515   0.12673   0.13084   0.13841   0.14168
 Alpha virt. eigenvalues --    0.16303   0.16349   0.18049   0.18507   0.19142
 Alpha virt. eigenvalues --    0.21942   0.22379   0.22687   0.24034   0.24892
 Alpha virt. eigenvalues --    0.25402   0.25774   0.26824   0.27494   0.28433
 Alpha virt. eigenvalues --    0.28584   0.29364   0.30957   0.31266   0.32074
 Alpha virt. eigenvalues --    0.32816   0.33597   0.34393   0.35420   0.36050
 Alpha virt. eigenvalues --    0.36569   0.37579   0.37892   0.38001   0.38395
 Alpha virt. eigenvalues --    0.39053   0.40104   0.40579   0.40909   0.41173
 Alpha virt. eigenvalues --    0.41451   0.41986   0.42286   0.42415   0.43112
 Alpha virt. eigenvalues --    0.43449   0.43927   0.44627   0.45040   0.45695
 Alpha virt. eigenvalues --    0.45906   0.46153   0.47403   0.48414   0.48636
 Alpha virt. eigenvalues --    0.48857   0.50036   0.50966   0.52403   0.52557
 Alpha virt. eigenvalues --    0.52943   0.53166   0.55078   0.55651   0.57830
 Alpha virt. eigenvalues --    0.58025   0.58612   0.59807   0.60632   0.61335
 Alpha virt. eigenvalues --    0.62808   0.63435   0.65137   0.65545   0.66775
 Alpha virt. eigenvalues --    0.69557   0.71008   0.71436   0.71808   0.72682
 Alpha virt. eigenvalues --    0.74704   0.75517   0.76525   0.77312   0.79046
 Alpha virt. eigenvalues --    0.79198   0.80322   0.82209   0.82751   0.83137
 Alpha virt. eigenvalues --    0.84112   0.85135   0.85866   0.86120   0.86337
 Alpha virt. eigenvalues --    0.87669   0.88388   0.89045   0.89874   0.91633
 Alpha virt. eigenvalues --    0.91936   0.93119   0.93965   0.94571   0.94749
 Alpha virt. eigenvalues --    0.95196   0.95640   0.96960   0.97230   0.97904
 Alpha virt. eigenvalues --    0.98551   0.99264   0.99977   1.00694   1.01524
 Alpha virt. eigenvalues --    1.02456   1.04044   1.04752   1.06000   1.06323
 Alpha virt. eigenvalues --    1.07104   1.07751   1.08565   1.09677   1.10523
 Alpha virt. eigenvalues --    1.10864   1.11117   1.13164   1.13515   1.14644
 Alpha virt. eigenvalues --    1.15021   1.16365   1.17254   1.17504   1.18993
 Alpha virt. eigenvalues --    1.19062   1.20078   1.20393   1.20693   1.21066
 Alpha virt. eigenvalues --    1.21631   1.22243   1.22771   1.23662   1.24127
 Alpha virt. eigenvalues --    1.24398   1.24925   1.25347   1.26119   1.26613
 Alpha virt. eigenvalues --    1.27039   1.27677   1.28015   1.28551   1.29162
 Alpha virt. eigenvalues --    1.30013   1.30736   1.31519   1.32143   1.32972
 Alpha virt. eigenvalues --    1.33779   1.34381   1.34998   1.35553   1.36240
 Alpha virt. eigenvalues --    1.37476   1.38535   1.38832   1.41085   1.42014
 Alpha virt. eigenvalues --    1.43143   1.43599   1.44435   1.45909   1.48204
 Alpha virt. eigenvalues --    1.49562   1.50231   1.51905   1.53866   1.56514
 Alpha virt. eigenvalues --    1.57908   1.59375   1.60155   1.61866   1.63354
 Alpha virt. eigenvalues --    1.65128   1.67118   1.68301   1.70819   1.73261
 Alpha virt. eigenvalues --    1.74951   1.75682   1.76633   1.79746   1.83295
 Alpha virt. eigenvalues --    1.84888   1.88288   1.88430   1.89920   1.92043
 Alpha virt. eigenvalues --    1.93601   1.95341   1.96745   1.98501   1.99033
 Alpha virt. eigenvalues --    2.01466   2.02091   2.04559   2.06287   2.06749
 Alpha virt. eigenvalues --    2.08456   2.09961   2.11286   2.11858   2.16248
 Alpha virt. eigenvalues --    2.17879   2.18491   2.19017   2.20067   2.21471
 Alpha virt. eigenvalues --    2.23214   2.24140   2.25383   2.29182   2.30924
 Alpha virt. eigenvalues --    2.31593   2.34099   2.35026   2.36132   2.39021
 Alpha virt. eigenvalues --    2.39626   2.41660   2.41934   2.43305   2.43630
 Alpha virt. eigenvalues --    2.44619   2.45695   2.47470   2.48514   2.49490
 Alpha virt. eigenvalues --    2.50568   2.51219   2.51814   2.53566   2.55206
 Alpha virt. eigenvalues --    2.56067   2.56943   2.57879   2.59820   2.61844
 Alpha virt. eigenvalues --    2.62555   2.65608   2.67104   2.68848   2.69444
 Alpha virt. eigenvalues --    2.70268   2.70979   2.71452   2.72300   2.73284
 Alpha virt. eigenvalues --    2.74340   2.74460   2.75681   2.76317   2.76872
 Alpha virt. eigenvalues --    2.78788   2.79750   2.81236   2.81806   2.83530
 Alpha virt. eigenvalues --    2.83970   2.84899   2.86388   2.86810   2.87081
 Alpha virt. eigenvalues --    2.88136   2.89040   2.89395   2.90056   2.91435
 Alpha virt. eigenvalues --    2.92427   2.93219   2.93579   2.93919   2.94688
 Alpha virt. eigenvalues --    2.95047   2.95534   2.95889   2.96967   2.98725
 Alpha virt. eigenvalues --    2.99109   3.01000   3.01460   3.01665   3.02649
 Alpha virt. eigenvalues --    3.03449   3.03532   3.04005   3.05336   3.06778
 Alpha virt. eigenvalues --    3.07042   3.07963   3.08659   3.08962   3.09884
 Alpha virt. eigenvalues --    3.11390   3.12184   3.12927   3.14672   3.15745
 Alpha virt. eigenvalues --    3.17169   3.17468   3.18043   3.18985   3.19819
 Alpha virt. eigenvalues --    3.20486   3.21673   3.22642   3.23726   3.24232
 Alpha virt. eigenvalues --    3.25229   3.26395   3.26717   3.27099   3.27815
 Alpha virt. eigenvalues --    3.28461   3.29266   3.29412   3.31209   3.31527
 Alpha virt. eigenvalues --    3.32456   3.34097   3.34590   3.35545   3.36323
 Alpha virt. eigenvalues --    3.36608   3.37186   3.37681   3.38442   3.38826
 Alpha virt. eigenvalues --    3.39946   3.40444   3.41564   3.42164   3.43642
 Alpha virt. eigenvalues --    3.44045   3.44622   3.45198   3.46270   3.47259
 Alpha virt. eigenvalues --    3.48001   3.50367   3.50652   3.51610   3.53489
 Alpha virt. eigenvalues --    3.53896   3.56410   3.57976   3.58420   3.59552
 Alpha virt. eigenvalues --    3.60465   3.61097   3.61496   3.64564   3.65472
 Alpha virt. eigenvalues --    3.66154   3.67590   3.68233   3.68802   3.71520
 Alpha virt. eigenvalues --    3.72000   3.73252   3.73874   3.74657   3.76069
 Alpha virt. eigenvalues --    3.76118   3.76647   3.77660   3.79352   3.80522
 Alpha virt. eigenvalues --    3.81692   3.82157   3.82976   3.83372   3.84132
 Alpha virt. eigenvalues --    3.84809   3.85054   3.87163   3.88977   3.89411
 Alpha virt. eigenvalues --    3.90419   3.91273   3.92089   3.92367   3.94220
 Alpha virt. eigenvalues --    3.95833   3.96412   3.97279   3.98400   3.99720
 Alpha virt. eigenvalues --    4.01012   4.01881   4.03233   4.04418   4.06297
 Alpha virt. eigenvalues --    4.06653   4.06978   4.07227   4.07568   4.10516
 Alpha virt. eigenvalues --    4.11130   4.11774   4.12501   4.13669   4.15085
 Alpha virt. eigenvalues --    4.15705   4.16079   4.16880   4.18319   4.19352
 Alpha virt. eigenvalues --    4.20842   4.21533   4.22809   4.23303   4.24449
 Alpha virt. eigenvalues --    4.25620   4.26436   4.27624   4.28185   4.29582
 Alpha virt. eigenvalues --    4.30172   4.30466   4.32360   4.33870   4.34016
 Alpha virt. eigenvalues --    4.35842   4.36782   4.38597   4.40946   4.42835
 Alpha virt. eigenvalues --    4.44257   4.46090   4.46486   4.47626   4.48808
 Alpha virt. eigenvalues --    4.50706   4.50904   4.53490   4.55156   4.56199
 Alpha virt. eigenvalues --    4.56859   4.58922   4.59731   4.60331   4.60883
 Alpha virt. eigenvalues --    4.63062   4.63299   4.63669   4.65207   4.65736
 Alpha virt. eigenvalues --    4.67866   4.68162   4.69546   4.71148   4.72266
 Alpha virt. eigenvalues --    4.73039   4.73232   4.74717   4.75881   4.77528
 Alpha virt. eigenvalues --    4.78142   4.79332   4.79775   4.80137   4.82426
 Alpha virt. eigenvalues --    4.84809   4.86607   4.89473   4.90762   4.91777
 Alpha virt. eigenvalues --    4.92560   4.93911   4.94756   4.96148   4.96598
 Alpha virt. eigenvalues --    4.97820   4.99344   5.00348   5.01789   5.02449
 Alpha virt. eigenvalues --    5.03104   5.04191   5.05308   5.06793   5.09812
 Alpha virt. eigenvalues --    5.10860   5.11337   5.13399   5.13852   5.15013
 Alpha virt. eigenvalues --    5.17512   5.17771   5.18483   5.19398   5.20868
 Alpha virt. eigenvalues --    5.21627   5.22130   5.23799   5.24451   5.25327
 Alpha virt. eigenvalues --    5.25928   5.26964   5.27915   5.28946   5.30410
 Alpha virt. eigenvalues --    5.32307   5.34847   5.36160   5.38223   5.40308
 Alpha virt. eigenvalues --    5.41319   5.44515   5.45196   5.47461   5.49970
 Alpha virt. eigenvalues --    5.53326   5.54104   5.56410   5.57505   5.57726
 Alpha virt. eigenvalues --    5.61166   5.62034   5.62488   5.64154   5.65808
 Alpha virt. eigenvalues --    5.66182   5.68625   5.69727   5.70594   5.71883
 Alpha virt. eigenvalues --    5.72324   5.74942   5.76534   5.77652   5.78262
 Alpha virt. eigenvalues --    5.79158   5.81225   5.83892   5.84805   5.86663
 Alpha virt. eigenvalues --    5.90799   5.95097   5.97498   6.01034   6.06439
 Alpha virt. eigenvalues --    6.11040   6.18741   6.21504   6.23361   6.26589
 Alpha virt. eigenvalues --    6.52653   6.54283   6.58290   6.62890   6.64923
 Alpha virt. eigenvalues --    6.67470   6.77804   6.81103   6.90492   6.91943
 Alpha virt. eigenvalues --    6.92494   6.95355   7.17937   7.20410   7.24117
 Alpha virt. eigenvalues --    7.27494   8.13193   8.27930   8.66663   8.73484
 Alpha virt. eigenvalues --    8.78314   8.79644   8.82517   8.82974   8.83166
 Alpha virt. eigenvalues --    8.85260   8.87055   8.88496   8.91020   8.91805
 Alpha virt. eigenvalues --    8.93305   8.93811   8.95267   8.99091   9.00256
 Alpha virt. eigenvalues --    9.05004   9.10178   9.11045   9.15333   9.18180
 Alpha virt. eigenvalues --    9.24097   9.59719   9.62376   9.77364   9.83380
 Alpha virt. eigenvalues --    9.89004   9.93538  10.11566  10.12151  10.14974
 Alpha virt. eigenvalues --   10.17985  10.19267  10.20849  10.21578  10.24297
 Alpha virt. eigenvalues --   10.24942  10.28926  10.31472  10.31677  10.34000
 Alpha virt. eigenvalues --   10.40606  11.75487  11.82051  12.03641  12.14662
 Alpha virt. eigenvalues --   12.15041  12.18781  12.21988  12.24568  12.30884
 Alpha virt. eigenvalues --   12.41248  12.43120  12.55504  12.58410  12.83495
 Alpha virt. eigenvalues --   12.93240  14.97026  15.02488  15.24312  15.27283
 Alpha virt. eigenvalues --   15.99641  16.05204  16.84226  16.90352  22.01373
 Alpha virt. eigenvalues --   22.10772  40.17227  40.26131  40.66654  40.68379
 Alpha virt. eigenvalues --   40.69543  40.72242  40.73074  40.74564  40.76172
 Alpha virt. eigenvalues --   40.77908  40.79639  40.81187  40.82301  40.83099
 Alpha virt. eigenvalues --   40.83521  40.84052  40.84630  40.85892  40.86105
 Alpha virt. eigenvalues --   40.86628  40.87686  40.88741  40.90585  40.90988
 Alpha virt. eigenvalues --   40.91894  40.92759  40.95963  46.33763  46.45690
 Alpha virt. eigenvalues --   46.47464  46.50959  46.53934  46.56848  46.63332
 Alpha virt. eigenvalues --   46.74067  46.76613  54.44710  54.46316  55.78334
 Alpha virt. eigenvalues --   55.83980  55.93669  55.97753  56.06092  56.17561
 Alpha virt. eigenvalues --   56.21823  56.24373  56.25494  56.29558  56.34152
 Alpha virt. eigenvalues --   56.44787  56.48231  56.54584  56.57634  56.61738
 Alpha virt. eigenvalues --   57.46461  57.50422  57.99305  58.01969  58.19434
 Alpha virt. eigenvalues --   58.25702  64.71401  64.77071  73.94227  73.97340
 Alpha virt. eigenvalues --   74.10082  74.11295  74.63842  74.66874  86.07149
 Alpha virt. eigenvalues --   86.15643 165.43089 165.53761 165.56595 165.59111
 Alpha virt. eigenvalues --  165.62331 165.64546 165.69862 165.79371 165.82130
 Alpha virt. eigenvalues --  226.53549 226.54613 230.58489 230.63808 235.53772
 Alpha virt. eigenvalues --  235.81131 236.10329 236.30325 236.50883 236.86435
 Alpha virt. eigenvalues --  237.15595 237.42241 237.47392 237.51803 237.66574
 Alpha virt. eigenvalues --  238.08776 238.14771 238.23021 238.28100 238.44946
 Alpha virt. eigenvalues --  308.80733 308.88344 624.54447 624.61231 624.62055
 Alpha virt. eigenvalues --  624.66542 624.68937 624.71205 624.75609 624.82741
 Alpha virt. eigenvalues --  624.84961 794.09149 794.48859 825.91003 827.11106
 Alpha virt. eigenvalues --  827.23510 827.58696 827.88190 829.45590 830.41069
 Alpha virt. eigenvalues --  830.92822 831.07750 831.31513 831.88893 832.70679
 Alpha virt. eigenvalues --  833.12656 833.22994 833.25701 833.82535 868.34433
 Alpha virt. eigenvalues --  868.399031165.934681166.005172484.492902485.19325
 Alpha virt. eigenvalues -- 2588.140182589.530082593.215932596.210162597.39269
 Alpha virt. eigenvalues -- 2597.814802602.031412604.813382604.953262605.34597
 Alpha virt. eigenvalues -- 2606.514892608.307842609.019882610.825242612.21682
 Alpha virt. eigenvalues -- 2613.536962740.319722740.342402740.358842740.39965
 Alpha virt. eigenvalues -- 2740.435212740.515352740.522662740.539612740.56716
 Alpha virt. eigenvalues -- 3787.320893787.378895073.316225073.379818288.82107
 Alpha virt. eigenvalues -- 8295.675488627.498578633.850348637.225318639.53855
 Alpha virt. eigenvalues -- 8641.466598653.076048661.776758664.707398667.64778
 Alpha virt. eigenvalues -- 8669.911818674.788178677.771418683.508818684.44553
 Alpha virt. eigenvalues -- 8685.603148690.27305******************************
 Alpha virt. eigenvalues -- **************************************************
 Alpha virt. eigenvalues -- **************************************************
 Alpha virt. eigenvalues -- **************************************************
 Alpha virt. eigenvalues -- **************************************************
 Alpha virt. eigenvalues -- **************************************************
 Alpha virt. eigenvalues -- **************************************************
 Alpha virt. eigenvalues -- **************************************************
 Alpha virt. eigenvalues -- **********
          Condensed to atoms (all electrons):
               1          2          3          4          5          6
     1  C    4.619106   0.160763  -0.055939   0.000209   0.000016  -0.000270
     2  C    0.160763   5.285718   0.405519   0.001360  -0.000495  -0.000036
     3  H   -0.055939   0.405519   0.495416  -0.000045   0.000026  -0.000068
     4  C    0.000209   0.001360  -0.000045   4.973209   0.408045   0.404650
     5  H    0.000016  -0.000495   0.000026   0.408045   0.542899  -0.012194
     6  H   -0.000270  -0.000036  -0.000068   0.404650  -0.012194   0.551562
     7  H    0.000024   0.001108   0.000025   0.393578  -0.021903  -0.023831
     8  O    0.714438  -0.093301   0.004669   0.000676   0.000027  -0.000029
     9  N   -0.059278   0.326611  -0.030338   0.000168   0.000005  -0.000027
    10  H    0.004769  -0.038621   0.000649  -0.000059   0.000017   0.000001
    11  N    0.340745  -0.107267   0.005416  -0.001495  -0.000035   0.000477
    12  H   -0.021046   0.010235   0.000752  -0.000102  -0.000003   0.000073
    13  C   -0.049729   0.010236  -0.001076  -0.000018   0.000000   0.000038
    14  H    0.001059   0.000852   0.000089   0.000264   0.000014  -0.000045
    15  H   -0.007404  -0.000721  -0.000245  -0.000018  -0.000001   0.000005
    16  H    0.006897   0.000586  -0.000171  -0.000006   0.000000   0.000001
    17  C   -0.007833  -0.056273   0.003798   0.000028  -0.000001   0.000000
    18  C   -0.005656   0.016364   0.001925   0.000002   0.000000   0.000000
    19  H    0.000438  -0.000151  -0.000246  -0.000002   0.000000   0.000000
    20  H   -0.000132  -0.000542   0.000187   0.000000   0.000000   0.000000
    21  H    0.000769  -0.000737  -0.000168   0.000000   0.000000   0.000000
    22  O   -0.004012   0.022610   0.014243   0.000002   0.000000   0.000000
    23  C   -0.014471  -0.018595   0.010224   0.336793  -0.037383  -0.036583
[...]
 Alpha virt. eigenvalues --    4.38126   4.39650   4.40461   4.40802   4.43054
 Alpha virt. eigenvalues --    4.44500   4.46644   4.48242   4.51542   4.51620
 Alpha virt. eigenvalues --    4.54080   4.55050   4.56664   4.57634   4.58780
 Alpha virt. eigenvalues --    4.62540   4.63676   4.66463   4.67214   4.67679
 Alpha virt. eigenvalues --    4.68726   4.68925   4.70185   4.71550   4.73266
 Alpha virt. eigenvalues --    4.73754   4.75142   4.76264   4.76799   4.78276
 Alpha virt. eigenvalues --    4.79735   4.80408   4.81065   4.82965   4.83697
 Alpha virt. eigenvalues --    4.84763   4.86668   4.87773   4.88563   4.90117
 Alpha virt. eigenvalues --    4.91016   4.92966   4.94533   4.95168   4.96331
 Alpha virt. eigenvalues --    4.97852   5.00032   5.00343   5.01135   5.01464
 Alpha virt. eigenvalues --    5.03472   5.03881   5.05439   5.06323   5.06962
 Alpha virt. eigenvalues --    5.08272   5.09691   5.10004   5.11110   5.12913
 Alpha virt. eigenvalues --    5.13580   5.14449   5.14905   5.16935   5.17182
 Alpha virt. eigenvalues --    5.18479   5.19971   5.21116   5.21875   5.23652
 Alpha virt. eigenvalues --    5.24402   5.24777   5.26720   5.27014   5.27550
 Alpha virt. eigenvalues --    5.28388   5.28983   5.31573   5.32992   5.34125
 Alpha virt. eigenvalues --    5.34674   5.35956   5.37705   5.38323   5.39950
 Alpha virt. eigenvalues --    5.42393   5.45907   5.48381   5.50140   5.55665
 Alpha virt. eigenvalues --    5.57780   5.59606   5.61601   5.65376   5.72674
 Alpha virt. eigenvalues --    5.73173   5.75164   5.76356   5.78622   5.79033
 Alpha virt. eigenvalues --    5.81265   5.81660   5.82713   5.84748   5.86614
 Alpha virt. eigenvalues --    5.87728   5.88963   5.89294   5.92011   5.96818
 Alpha virt. eigenvalues --    5.98602   6.00477   6.02609   6.05364   6.08193
 Alpha virt. eigenvalues --    6.21933   6.27067   6.35809   6.40465   6.49407
 Alpha virt. eigenvalues --    6.53256   6.54457   6.57908   6.67412   6.69472
 Alpha virt. eigenvalues --    6.88038   6.89937   6.92526   6.96747   7.09984
 Alpha virt. eigenvalues --    7.13543   7.16671   7.17889   9.47213   9.95400
 Alpha virt. eigenvalues --   11.59333  12.06872  12.39638  12.62297  13.01946
 Alpha virt. eigenvalues --   13.38217  13.56470  13.57738  13.70403  13.76765
 Alpha virt. eigenvalues --   14.01981
          Condensed to atoms (all electrons):
               1          2          3          4          5          6
     1  C    4.799432   0.126486  -0.062666  -0.000511   0.000017  -0.000202
     2  C    0.126486   5.423212   0.444432   0.001273  -0.000596  -0.000023
     3  H   -0.062666   0.444432   0.453959   0.000173   0.000020  -0.000065
     4  C   -0.000511   0.001273   0.000173   5.112564   0.411248   0.402668
     5  H    0.000017  -0.000596   0.000020   0.411248   0.536612  -0.017511
     6  H   -0.000202  -0.000023  -0.000065   0.402668  -0.017511   0.548240
     7  H    0.000024   0.001212   0.000011   0.394114  -0.028415  -0.030139
     8  O    0.706196  -0.089564   0.002788   0.000749   0.000028  -0.000030
     9  N   -0.060235   0.267528  -0.033907   0.000170   0.000007  -0.000027
    10  H    0.005943  -0.035752  -0.000355  -0.000149   0.000018   0.000003
    11  N    0.329440  -0.081873   0.001824  -0.001341  -0.000031   0.000499
    12  H   -0.017566   0.007403  -0.000655  -0.000075  -0.000002   0.000063
    13  C   -0.066097   0.009605  -0.000838  -0.000038   0.000000   0.000030
    14  H    0.000753   0.000657   0.000099   0.000270   0.000016  -0.000053
    15  H   -0.007164  -0.000626  -0.000247  -0.000018  -0.000001   0.000006
    16  H    0.007489   0.000565  -0.000120  -0.000009   0.000000   0.000001
    17  C   -0.006516  -0.068077   0.002834   0.000032  -0.000002   0.000000
    18  C   -0.004319   0.013129   0.001715   0.000002   0.000000   0.000000
    19  H    0.000298   0.000576  -0.000243  -0.000002   0.000000   0.000000
    20  H   -0.000161  -0.000522   0.000160   0.000000   0.000000   0.000000
    21  H    0.000713  -0.000706  -0.000146   0.000000   0.000000   0.000000
    22  O   -0.002162   0.021627   0.013883   0.000002   0.000000   0.000000
    23  C   -0.015366  -0.029357   0.009292   0.276787  -0.039191  -0.033068
    24  H    0.022884  -0.007765  -0.000482  -0.040420  -0.006087  -0.007333
    25  C   -0.004028   0.013463  -0.000650  -0.073481  -0.006319   0.008368
    26  H    0.000775  -0.002200  -0.000055  -0.008233  -0.000493  -0.000157
    27  H   -0.005343   0.002022   0.000686   0.008801  -0.000041  -0.000368
    28  H   -0.000168  -0.000600   0.000045  -0.006363   0.004525  -0.000051
    29  C   -0.042355   0.218976  -0.037628  -0.050647   0.009517  -0.008066
    30  H    0.012059  -0.032613  -0.007170  -0.006388  -0.000274   0.000474
    31  H    0.001481  -0.041935  -0.008964  -0.008084   0.000263   0.004371
               7          8          9         10         11         12
     1  C    0.000024   0.706196  -0.060235   0.005943   0.329440  -0.017566
     2  C    0.001212  -0.089564   0.267528  -0.035752  -0.081873   0.007403
     3  H    0.000011   0.002788  -0.033907  -0.000355   0.001824  -0.000655
     4  C    0.394114   0.000749   0.000170  -0.000149  -0.001341  -0.000075
     5  H   -0.028415   0.000028   0.000007   0.000018  -0.000031  -0.000002
     6  H   -0.030139  -0.000030  -0.000027   0.000003   0.000499   0.000063
     7  H    0.556047  -0.000014  -0.000007  -0.000038  -0.000012   0.000004
     8  O   -0.000014   7.848214   0.003855  -0.003105  -0.120240   0.005232
     9  N   -0.000007   0.003855   6.535396   0.382097   0.005666   0.000591
    10  H   -0.000038  -0.003105   0.382097   0.500586  -0.000568   0.000004
    11  N   -0.000012  -0.120240   0.005666  -0.000568   6.440551   0.376628
    12  H    0.000004   0.005232   0.000591   0.000004   0.376628   0.539528
    13  C    0.000000   0.006784  -0.000302   0.000046   0.300025  -0.032568
    14  H   -0.000002   0.004392  -0.000021   0.000000  -0.054598   0.003165
    15  H    0.000000   0.004993  -0.000033   0.000006  -0.043364   0.002517
    16  H    0.000000   0.001444   0.000007   0.000000  -0.026850  -0.007958
    17  C    0.000004   0.016221   0.333642  -0.021764  -0.000742  -0.000037
    18  C    0.000000  -0.000077  -0.064550  -0.001465  -0.000103   0.000003
    19  H    0.000000   0.000023   0.012581  -0.000931   0.000011   0.000001
    20  H    0.000000   0.000028  -0.000469  -0.000753   0.000005   0.000001
    21  H    0.000000   0.000233  -0.000769   0.000662  -0.000001  -0.000002
    22  O    0.000000  -0.003421  -0.135506   0.004762  -0.003647  -0.000149
    23  C   -0.033939   0.007972   0.005195  -0.002946   0.002907   0.000312
    24  H    0.008012   0.001003  -0.000127   0.000358  -0.006996  -0.000006
    25  C   -0.006303  -0.004337  -0.010349   0.002840   0.000613   0.000008
    26  H    0.003408  -0.000006   0.000232   0.000120  -0.000029  -0.000002
    27  H   -0.000014   0.008187   0.010174  -0.005308   0.000554  -0.000027
    28  H   -0.000227  -0.000010   0.000332   0.000194   0.000022   0.000001
    29  C   -0.008190  -0.004387  -0.055615   0.001013   0.001030  -0.002386
    30  H    0.002079  -0.000634   0.001427   0.003816   0.000032  -0.000140
    31  H   -0.001020  -0.000179   0.003970   0.000444  -0.000374   0.002238
              13         14         15         16         17         18
     1  C   -0.066097   0.000753  -0.007164   0.007489  -0.006516  -0.004319
     2  C    0.009605   0.000657  -0.000626   0.000565  -0.068077   0.013129
     3  H   -0.000838   0.000099  -0.000247  -0.000120   0.002834   0.001715
     4  C   -0.000038   0.000270  -0.000018  -0.000009   0.000032   0.000002
     5  H    0.000000   0.000016  -0.000001   0.000000  -0.000002   0.000000
     6  H    0.000030  -0.000053   0.000006   0.000001   0.000000   0.000000
     7  H    0.000000  -0.000002   0.000000   0.000000   0.000004   0.000000
     8  O    0.006784   0.004392   0.004993   0.001444   0.016221  -0.000077
     9  N   -0.000302  -0.000021  -0.000033   0.000007   0.333642  -0.064550
    10  H    0.000046   0.000000   0.000006   0.000000  -0.021764  -0.001465
    11  N    0.300025  -0.054598  -0.043364  -0.026850  -0.000742  -0.000103
    12  H   -0.032568   0.003165   0.002517  -0.007958  -0.000037   0.000003
    13  C    4.767334   0.393015   0.403263   0.393918  -0.000247  -0.000008
    14  H    0.393015   0.625932  -0.055989  -0.027879  -0.000052  -0.000001
    15  H    0.403263  -0.055989   0.599682  -0.026283   0.000149   0.000003
    16  H    0.393918  -0.027879  -0.026283   0.599596  -0.000011   0.000000
    17  C   -0.000247  -0.000052   0.000149  -0.000011   4.539297   0.278321
    18  C   -0.000008  -0.000001   0.000003   0.000000   0.278321   4.996468
    19  H    0.000000   0.000000   0.000000   0.000000  -0.055429   0.393781
    20  H    0.000000   0.000000   0.000000   0.000000  -0.026007   0.386094
    21  H    0.000002   0.000000   0.000001   0.000000  -0.024552   0.388486
    22  O   -0.000238   0.000008   0.000109  -0.000004   0.719450  -0.069718
    23  C   -0.000773  -0.000302   0.000000  -0.000043   0.000478   0.000029
    24  H    0.000501   0.001016   0.000009   0.000011  -0.000148   0.000002
    25  C    0.000002  -0.000083   0.000012   0.000000   0.000434  -0.000103
    26  H    0.000001   0.000001   0.000000   0.000000  -0.000042   0.000016
    27  H   -0.000069   0.000003  -0.000010  -0.000001   0.001398   0.000208
    28  H   -0.000002  -0.000005   0.000000   0.000000   0.000007   0.000002
    29  C   -0.000202  -0.000076  -0.000055   0.000012   0.007904   0.000312
    30  H    0.000058  -0.000020   0.000011   0.000001  -0.000258  -0.000092
    31  H    0.000073  -0.000106   0.000049   0.000009  -0.000240   0.000032
              19         20         21         22         23         24
     1  C    0.000298  -0.000161   0.000713  -0.002162  -0.015366   0.022884
     2  C    0.000576  -0.000522  -0.000706   0.021627  -0.029357  -0.007765
     3  H   -0.000243   0.000160  -0.000146   0.013883   0.009292  -0.000482
     4  C   -0.000002   0.000000   0.000000   0.000002   0.276787  -0.040420
     5  H    0.000000   0.000000   0.000000   0.000000  -0.039191  -0.006087
     6  H    0.000000   0.000000   0.000000   0.000000  -0.033068  -0.007333
     7  H    0.000000   0.000000   0.000000   0.000000  -0.033939   0.008012
     8  O    0.000023   0.000028   0.000233  -0.003421   0.007972   0.001003
     9  N    0.012581  -0.000469  -0.000769  -0.135506   0.005195  -0.000127
    10  H   -0.000931  -0.000753   0.000662   0.004762  -0.002946   0.000358
    11  N    0.000011   0.000005  -0.000001  -0.003647   0.002907  -0.006996
    12  H    0.000001   0.000001  -0.000002  -0.000149   0.000312  -0.000006
    13  C    0.000000   0.000000   0.000002  -0.000238  -0.000773   0.000501
    14  H    0.000000   0.000000   0.000000   0.000008  -0.000302   0.001016
    15  H    0.000000   0.000000   0.000001   0.000109   0.000000   0.000009
    16  H    0.000000   0.000000   0.000000  -0.000004  -0.000043   0.000011
    17  C   -0.055429  -0.026007  -0.024552   0.719450   0.000478  -0.000148
    18  C    0.393781   0.386094   0.388486  -0.069718   0.000029   0.000002
    19  H    0.603124  -0.026899  -0.024899   0.004612  -0.000032   0.000002
    20  H   -0.026899   0.577098  -0.024982   0.002076   0.000005  -0.000001
    21  H   -0.024899  -0.024982   0.563423   0.001168  -0.000011   0.000001
    22  O    0.004612   0.002076   0.001168   7.852141  -0.000038   0.000015
    23  C   -0.000032   0.000005  -0.000011  -0.000038   5.339749   0.408001
    24  H    0.000002  -0.000001   0.000001   0.000015   0.408001   0.491214
    25  C    0.000141  -0.000011   0.000027   0.000020   0.262208  -0.030317
    26  H    0.000017  -0.000002   0.000000   0.000001  -0.051258   0.007948
    27  H    0.000184   0.000069  -0.000132  -0.000130  -0.022269  -0.008520
    28  H   -0.000006   0.000000  -0.000001   0.000000  -0.036520  -0.005585
    29  C   -0.000278  -0.000009   0.000001   0.002828   0.199015  -0.040496
    30  H   -0.000024  -0.000030   0.000020  -0.000094  -0.045395   0.005305
    31  H   -0.000002  -0.000003  -0.000001   0.000051  -0.054799   0.000727
              25         26         27         28         29         30
     1  C   -0.004028   0.000775  -0.005343  -0.000168  -0.042355   0.012059
     2  C    0.013463  -0.002200   0.002022  -0.000600   0.218976  -0.032613
     3  H   -0.000650  -0.000055   0.000686   0.000045  -0.037628  -0.007170
     4  C   -0.073481  -0.008233   0.008801  -0.006363  -0.050647  -0.006388
     5  H   -0.006319  -0.000493  -0.000041   0.004525   0.009517  -0.000274
     6  H    0.008368  -0.000157  -0.000368  -0.000051  -0.008066   0.000474
     7  H   -0.006303   0.003408  -0.000014  -0.000227  -0.008190   0.002079
     8  O   -0.004337  -0.000006   0.008187  -0.000010  -0.004387  -0.000634
     9  N   -0.010349   0.000232   0.010174   0.000332  -0.055615   0.001427
    10  H    0.002840   0.000120  -0.005308   0.000194   0.001013   0.003816
    11  N    0.000613  -0.000029   0.000554   0.000022   0.001030   0.000032
    12  H    0.000008  -0.000002  -0.000027   0.000001  -0.002386  -0.000140
    13  C    0.000002   0.000001  -0.000069  -0.000002  -0.000202   0.000058
    14  H   -0.000083   0.000001   0.000003  -0.000005  -0.000076  -0.000020
    15  H    0.000012   0.000000  -0.000010   0.000000  -0.000055   0.000011
    16  H    0.000000   0.000000  -0.000001   0.000000   0.000012   0.000001
    17  C    0.000434  -0.000042   0.001398   0.000007   0.007904  -0.000258
    18  C   -0.000103   0.000016   0.000208   0.000002   0.000312  -0.000092
    19  H    0.000141   0.000017   0.000184  -0.000006  -0.000278  -0.000024
    20  H   -0.000011  -0.000002   0.000069   0.000000  -0.000009  -0.000030
    21  H    0.000027   0.000000  -0.000132  -0.000001   0.000001   0.000020
    22  O    0.000020   0.000001  -0.000130   0.000000   0.002828  -0.000094
    23  C    0.262208  -0.051258  -0.022269  -0.036520   0.199015  -0.045395
    24  H   -0.030317   0.007948  -0.008520  -0.005585  -0.040496   0.005305
    25  C    5.196779   0.403273   0.382112   0.402388  -0.066224  -0.001946
    26  H    0.403273   0.543007  -0.034138  -0.021964  -0.002246   0.004723
    27  H    0.382112  -0.034138   0.521216  -0.007523  -0.006578  -0.002262
    28  H    0.402388  -0.021964  -0.007523   0.519624   0.008429  -0.000130
    29  C   -0.066224  -0.002246  -0.006578   0.008429   5.486600   0.397079
    30  H   -0.001946   0.004723  -0.002262  -0.000130   0.397079   0.460508
    31  H    0.007501   0.000295  -0.000645  -0.000345   0.424553   0.000792
              31
     1  C    0.001481
     2  C   -0.041935
     3  H   -0.008964
     4  C   -0.008084
     5  H    0.000263
     6  H    0.004371
     7  H   -0.001020
     8  O   -0.000179
     9  N    0.003970
    10  H    0.000444
    11  N   -0.000374
    12  H    0.002238
    13  C    0.000073
    14  H   -0.000106
    15  H    0.000049
    16  H    0.000009
    17  C   -0.000240
    18  C    0.000032
    19  H   -0.000002
    20  H   -0.000003
    21  H   -0.000001
    22  O    0.000051
    23  C   -0.054799
    24  H    0.000727
    25  C    0.007501
    26  H    0.000295
    27  H   -0.000645
    28  H   -0.000345
    29  C    0.424553
    30  H    0.000792
    31  H    0.467696
 Mulliken charges:
               1
     1  C    0.280870
     2  C   -0.159959
     3  H    0.222271
     4  C   -0.413094
     5  H    0.136690
     6  H    0.132372
     7  H    0.143406
     8  O   -0.392338
     9  N   -0.200956
    10  H    0.170223
    11  N   -0.119039
    12  H    0.123876
    13  C   -0.173273
    14  H    0.109861
    15  H    0.122979
    16  H    0.086106
    17  C    0.303955
    18  C   -0.318169
    19  H    0.093395
    20  H    0.114312
    21  H    0.121467
    22  O   -0.407648
    23  C   -0.146646
    24  H    0.207272
    25  C   -0.476038
    26  H    0.157006
    27  H    0.157764
    28  H    0.143930
    29  C   -0.431831
    30  H    0.209084
    31  H    0.202153
 Sum of Mulliken charges =   0.00000
 Mulliken charges with hydrogens summed into heavy atoms:
               1
     1  C    0.280870
     2  C    0.062312
     4  C   -0.000627
     8  O   -0.392338
     9  N   -0.030733
    11  N    0.004837
    13  C    0.145673
    17  C    0.303955
    18  C    0.011004
    22  O   -0.407648
    23  C    0.060626
    25  C   -0.017337
    29  C   -0.020595
 Electronic spatial extent (au):  <R**2>=           2901.5097
 Charge=              0.0000 electrons
 Dipole moment (field-independent basis, Debye):
    X=             -3.3010    Y=             -1.7330    Z=             -2.2316  Tot=              4.3451
 Quadrupole moment (field-independent basis, Debye-Ang):
   XX=            -83.9086   YY=            -70.4443   ZZ=            -82.0822
   XY=            -10.9646   XZ=              2.9585   YZ=             -3.6879
 Traceless Quadrupole moment (field-independent basis, Debye-Ang):
   XX=             -5.0969   YY=              8.3674   ZZ=             -3.2705
   XY=            -10.9646   XZ=              2.9585   YZ=             -3.6879
 Octapole moment (field-independent basis, Debye-Ang**2):
  XXX=              2.7282  YYY=             34.9186  ZZZ=             -8.0360  XYY=             -3.3234
  XXY=            -18.5105  XXZ=             14.3937  XZZ=              0.2939  YZZ=              4.0938
  YYZ=             -3.1056  XYZ=              4.1622
 Hexadecapole moment (field-independent basis, Debye-Ang**3):
 XXXX=          -2115.4551 YYYY=          -1307.1520 ZZZZ=           -361.1572 XXXY=            -87.2814
 XXXZ=             15.2663 YYYX=            -46.1963 YYYZ=              2.0083 ZZZX=             -2.6643
 ZZZY=            -16.2915 XXYY=           -579.4618 XXZZ=           -398.1887 YYZZ=           -287.9467
 XXYZ=              2.4444 YYXZ=              6.1003 ZZXY=             -8.2045
 N-N= 8.756172867245D+02 E-N=-3.180979635673D+03  KE= 6.091228362564D+02
 Calculating spin-rotation constants.
 Leave Link  601 at Thu Jun 19 02:44:23 2014, MaxMem=  4294967296 cpu:        68.9
 (Enter /home/ztw1e12/g09/l9999.exe)

 Test job not archived.
 1\1\GINC-GREEN0467\SP\RM06\Gen\C9H18N2O2\ROOT\19-Jun-2014\0\\#P Geom=A
 llCheck Guess=TCheck SCRF=Check GenChk RM06/ChkBas NMR=ReadFC IOp(3/6=
 22)\\NMR spin-spin scan\\0,1\C,0,0.658145,0.603981,0.662832\C,0,0.1293
 36,0.258326,-0.722848\H,0,0.53726,0.992296,-1.424314\C,0,-3.535913,0.4
 86579,0.489874\H,0,-4.122853,0.109365,1.329547\H,0,-3.432659,1.567188,
 0.603037\H,0,-4.110016,0.299488,-0.42368\O,0,0.949528,-0.25299,1.49250
 3\N,0,0.583381,-1.050118,-1.134516\H,0,-0.091033,-1.789483,-1.253493\N
 ,0,0.738805,1.912449,0.91963\H,0,0.466336,2.566294,0.202703\C,0,1.1038
 66,2.405534,2.228038\H,0,0.405118,2.05465,2.988797\H,0,2.104507,2.0746
 8,2.506073\H,0,1.08746,3.49092,2.213071\C,0,1.883683,-1.309555,-1.3479
 48\C,0,2.228326,-2.700424,-1.766288\H,0,1.359642,-3.34867,-1.859676\H,
 0,2.753808,-2.661035,-2.720254\H,0,2.914766,-3.125262,-1.03397\O,0,2.7
 46963,-0.442799,-1.211361\C,0,-2.181149,-0.193318,0.419343\H,0,-1.6459
 98,0.066149,1.341053\C,0,-2.329973,-1.702314,0.372235\H,0,-2.806411,-2
 .011842,-0.563422\H,0,-1.369395,-2.216056,0.4483\H,0,-2.952051,-2.0585
 51,1.195862\C,0,-1.395666,0.365697,-0.766208\H,0,-1.750366,-0.090499,-
 1.696862\H,0,-1.621823,1.432615,-0.847718\\Version=EM64L-G09RevD.01\St
 ate=1-A\HF=-613.5822437\RMSD=8.195e-09\Dipole=-1.5453103,0.5132048,-0.
 5206014\Quadrupole=-8.1678895,9.3737604,-1.2058709,-0.2730214,1.076434
 2,5.3893285\PG=C01 [X(C9H18N2O2)]\\@


 THE PROGRESS OF RIVERS TO THE SEA IS NOT AS RAPID
 AS THAT OF MAN TO ERROR.
                                              -- VOLTAIRE
 Job cpu time:       2 days 12 hours 47 minutes 14.4 seconds.
 File lengths (MBytes):  RWF=   2456 Int=      0 D2E=      0 Chk=     48 Scr=      8
 Normal termination of Gaussian 09 at Thu Jun 19 02:44:24 2014.
