 Entering Gaussian System, Link 0=g09
 Input=scan_input_6.gjf
 Output=scan_input_6.log
 Initial command:
 /home/ztw1e12/g09/l1.exe "/home/ztw1e12/leucine_scan/leucine_chi2_scan/Gau-8318.inp" -scrdir="/home/ztw1e12/leucine_scan/leucine_chi2_scan/"
 Default is to use a total of   8 processors:
                                8 via shared-memory
                                1 via Linda
 Entering Link 1 = /home/ztw1e12/g09/l1.exe PID=      8319.
  
 Copyright (c) 1988,1990,1992,1993,1995,1998,2003,2009,2013,
            Gaussian, Inc.  All Rights Reserved.
  
 This is part of the Gaussian(R) 09 program.  It is based on
 the Gaussian(R) 03 system (copyright 2003, Gaussian, Inc.),
 the Gaussian(R) 98 system (copyright 1998, Gaussian, Inc.),
 the Gaussian(R) 94 system (copyright 1995, Gaussian, Inc.),
 the Gaussian 92(TM) system (copyright 1992, Gaussian, Inc.),
 the Gaussian 90(TM) system (copyright 1990, Gaussian, Inc.),
 the Gaussian 88(TM) system (copyright 1988, Gaussian, Inc.),
 the Gaussian 86(TM) system (copyright 1986, Carnegie Mellon
 University), and the Gaussian 82(TM) system (copyright 1983,
 Carnegie Mellon University). Gaussian is a federally registered
 trademark of Gaussian, Inc.
  
 This software contains proprietary and confidential information,
 including trade secrets, belonging to Gaussian, Inc.
  
 This software is provided under written license and may be
 used, copied, transmitted, or stored only in accord with that
 written license.
  
 The following legend is applicable only to US Government
 contracts under FAR:
  
                    RESTRICTED RIGHTS LEGEND
  
 Use, reproduction and disclosure by the US Government is
 subject to restrictions as set forth in subparagraphs (a)
 and (c) of the Commercial Computer Software - Restricted
 Rights clause in FAR 52.227-19.
  
 Gaussian, Inc.
 340 Quinnipiac St., Bldg. 40, Wallingford CT 06492
  
  
 ---------------------------------------------------------------
 Warning -- This program may not be used in any manner that
 competes with the business of Gaussian, Inc. or will provide
 assistance to any competitor of Gaussian, Inc.  The licensee
 of this program is prohibited from giving any competitor of
 Gaussian, Inc. access to this program.  By using this program,
 the user acknowledges that Gaussian, Inc. is engaged in the
 business of creating and licensing software in the field of
 computational chemistry and represents and warrants to the
 licensee that it is not a competitor of Gaussian, Inc. and that
 it will not use this program in any manner prohibited above.
 ---------------------------------------------------------------
  

 Cite this work as:
 Gaussian 09, Revision D.01,
 M. J. Frisch, G. W. Trucks, H. B. Schlegel, G. E. Scuseria, 
 M. A. Robb, J. R. Cheeseman, G. Scalmani, V. Barone, B. Mennucci, 
 G. A. Petersson, H. Nakatsuji, M. Caricato, X. Li, H. P. Hratchian, 
 A. F. Izmaylov, J. Bloino, G. Zheng, J. L. Sonnenberg, M. Hada, 
 M. Ehara, K. Toyota, R. Fukuda, J. Hasegawa, M. Ishida, T. Nakajima, 
 Y. Honda, O. Kitao, H. Nakai, T. Vreven, J. A. Montgomery, Jr., 
 J. E. Peralta, F. Ogliaro, M. Bearpark, J. J. Heyd, E. Brothers, 
 K. N. Kudin, V. N. Staroverov, T. Keith, R. Kobayashi, J. Normand, 
 K. Raghavachari, A. Rendell, J. C. Burant, S. S. Iyengar, J. Tomasi, 
 M. Cossi, N. Rega, J. M. Millam, M. Klene, J. E. Knox, J. B. Cross, 
 V. Bakken, C. Adamo, J. Jaramillo, R. Gomperts, R. E. Stratmann, 
 O. Yazyev, A. J. Austin, R. Cammi, C. Pomelli, J. W. Ochterski, 
 R. L. Martin, K. Morokuma, V. G. Zakrzewski, G. A. Voth, 
 P. Salvador, J. J. Dannenberg, S. Dapprich, A. D. Daniels, 
 O. Farkas, J. B. Foresman, J. V. Ortiz, J. Cioslowski, 
 and D. J. Fox, Gaussian, Inc., Wallingford CT, 2013.
 
 ******************************************
 Gaussian 09:  EM64L-G09RevD.01 24-Apr-2013
                17-Jun-2014 
 ******************************************
 %Mem=32GB
 %NProcShared=16
 Will use up to   16 processors via shared memory.
 Default route:  MaxDisk=100GB
 ----------------------------------------------------------------------
 #p nmr=(giao,mixed,spinspin) m06/cc-pvtz scf=tight integral=(grid=ultr
 afine)
 ----------------------------------------------------------------------
 1/38=1/1;
 2/12=2,17=6,18=5,40=1/2;
 3/5=16,6=1,10=1100000,11=2,16=1,25=1,30=1,74=-54,75=-5/1,2,8,3;
 4//1;
 5/5=2,32=2,38=5/2;
 8/6=1,10=90,11=11/1;
 10/13=100,45=16,47=3/2;
 6/7=2,8=2,9=2,10=2,28=1/1;
 99/9=1/99;
 Leave Link    1 at Tue Jun 17 23:17:56 2014, MaxMem=  4294967296 cpu:         5.8
 (Enter /home/ztw1e12/g09/l101.exe)
 ------------------
 NMR spin-spin scan
 ------------------
 Symbolic Z-matrix:
 Charge =  0 Multiplicity = 1
 C                     0.32555   1.28856   0.23343 
 C                     0.21225   0.10678  -0.72758 
 H                     0.74199   0.43716  -1.62717 
 C                    -3.03337  -1.82682  -0.51962 
 H                    -3.86843  -2.03472   0.15265 
 H                    -3.42765  -1.75347  -1.53545 
 H                    -2.3527   -2.68354  -0.48835 
 O                     1.05      1.26649   1.22405 
 N                     0.92746  -1.04445  -0.23344 
 H                     0.41351  -1.76639   0.24639 
 N                    -0.37868   2.3721   -0.11129 
 H                    -0.96784   2.34061  -0.92704 
 C                    -0.33768   3.58212   0.67716 
 H                    -0.68272   3.39869   1.69556 
 H                     0.67387   3.98589   0.72733 
 H                    -0.98688   4.32155   0.21816 
 C                     2.26114  -1.17487  -0.34292 
 C                     2.85032  -2.41337   0.24877 
 H                     2.10358  -3.11484   0.61541 
 H                     3.47219  -2.90211  -0.50022 
 H                     3.50097  -2.12526   1.07495 
 O                     2.96382  -0.33219  -0.89853 
 C                    -2.2931   -0.56537  -0.11072 
 H                    -3.00321   0.26755  -0.12128 
 C                    -1.82634  -0.72342   1.32807 
 H                    -1.19564  -1.60719   1.45997 
 H                    -1.2827    0.14112   1.71021 
 H                    -2.6946   -0.86537   1.97465 
 C                    -1.20441  -0.25387  -1.16389 
 H                    -1.08584  -1.12434  -1.81609 
 H                    -1.56924   0.53627  -1.82283 
 
 NAtoms=     31 NQM=       31 NQMF=       0 NMMI=      0 NMMIF=      0
                NMic=       0 NMicF=      0.
                    Isotopes and Nuclear Properties:
 (Nuclear quadrupole moments (NQMom) in fm**2, nuclear magnetic moments (NMagM)
  in nuclear magnetons)

  Atom         1           2           3           4           5           6           7           8           9          10
 IAtWgt=          12          12           1          12           1           1           1          16          14           1
 AtmWgt=  12.0000000  12.0000000   1.0078250  12.0000000   1.0078250   1.0078250   1.0078250  15.9949146  14.0030740   1.0078250
 NucSpn=           0           0           1           0           1           1           1           0           2           1
 AtZEff=   0.0000000   0.0000000   0.0000000   0.0000000   0.0000000   0.0000000   0.0000000   0.0000000   0.0000000   0.0000000
 NQMom=    0.0000000   0.0000000   0.0000000   0.0000000   0.0000000   0.0000000   0.0000000   0.0000000   2.0440000   0.0000000
 NMagM=    0.0000000   0.0000000   2.7928460   0.0000000   2.7928460   2.7928460   2.7928460   0.0000000   0.4037610   2.7928460
 AtZNuc=   6.0000000   6.0000000   1.0000000   6.0000000   1.0000000   1.0000000   1.0000000   8.0000000   7.0000000   1.0000000

  Atom        11          12          13          14          15          16          17          18          19          20
 IAtWgt=          14           1          12           1           1           1          12          12           1           1
 AtmWgt=  14.0030740   1.0078250  12.0000000   1.0078250   1.0078250   1.0078250  12.0000000  12.0000000   1.0078250   1.0078250
 NucSpn=           2           1           0           1           1           1           0           0           1           1
 AtZEff=   0.0000000   0.0000000   0.0000000   0.0000000   0.0000000   0.0000000   0.0000000   0.0000000   0.0000000   0.0000000
 NQMom=    2.0440000   0.0000000   0.0000000   0.0000000   0.0000000   0.0000000   0.0000000   0.0000000   0.0000000   0.0000000
 NMagM=    0.4037610   2.7928460   0.0000000   2.7928460   2.7928460   2.7928460   0.0000000   0.0000000   2.7928460   2.7928460
 AtZNuc=   7.0000000   1.0000000   6.0000000   1.0000000   1.0000000   1.0000000   6.0000000   6.0000000   1.0000000   1.0000000

  Atom        21          22          23          24          25          26          27          28          29          30
 IAtWgt=           1          16          12           1          12           1           1           1          12           1
 AtmWgt=   1.0078250  15.9949146  12.0000000   1.0078250  12.0000000   1.0078250   1.0078250   1.0078250  12.0000000   1.0078250
 NucSpn=           1           0           0           1           0           1           1           1           0           1
 AtZEff=   0.0000000   0.0000000   0.0000000   0.0000000   0.0000000   0.0000000   0.0000000   0.0000000   0.0000000   0.0000000
 NQMom=    0.0000000   0.0000000   0.0000000   0.0000000   0.0000000   0.0000000   0.0000000   0.0000000   0.0000000   0.0000000
 NMagM=    2.7928460   0.0000000   0.0000000   2.7928460   0.0000000   2.7928460   2.7928460   2.7928460   0.0000000   2.7928460
 AtZNuc=   1.0000000   8.0000000   6.0000000   1.0000000   6.0000000   1.0000000   1.0000000   1.0000000   6.0000000   1.0000000

  Atom        31
 IAtWgt=           1
 AtmWgt=   1.0078250
 NucSpn=           1
 AtZEff=   0.0000000
 NQMom=    0.0000000
 NMagM=    2.7928460
 AtZNuc=   1.0000000
 Leave Link  101 at Tue Jun 17 23:17:56 2014, MaxMem=  4294967296 cpu:         1.8
 (Enter /home/ztw1e12/g09/l202.exe)
                          Input orientation:                          
 ---------------------------------------------------------------------
 Center     Atomic      Atomic             Coordinates (Angstroms)
 Number     Number       Type             X           Y           Z
 ---------------------------------------------------------------------
      1          6           0        0.325553    1.288560    0.233433
      2          6           0        0.212254    0.106784   -0.727584
      3          1           0        0.741992    0.437158   -1.627168
      4          6           0       -3.033374   -1.826823   -0.519617
      5          1           0       -3.868426   -2.034718    0.152650
      6          1           0       -3.427645   -1.753466   -1.535451
      7          1           0       -2.352695   -2.683539   -0.488348
      8          8           0        1.050004    1.266485    1.224046
      9          7           0        0.927459   -1.044449   -0.233442
     10          1           0        0.413513   -1.766392    0.246394
     11          7           0       -0.378677    2.372103   -0.111287
     12          1           0       -0.967838    2.340612   -0.927042
     13          6           0       -0.337677    3.582116    0.677159
     14          1           0       -0.682723    3.398690    1.695557
     15          1           0        0.673865    3.985890    0.727331
     16          1           0       -0.986883    4.321551    0.218159
     17          6           0        2.261138   -1.174866   -0.342915
     18          6           0        2.850315   -2.413367    0.248767
     19          1           0        2.103582   -3.114843    0.615406
     20          1           0        3.472185   -2.902113   -0.500218
     21          1           0        3.500970   -2.125261    1.074954
     22          8           0        2.963818   -0.332194   -0.898532
     23          6           0       -2.293096   -0.565371   -0.110722
     24          1           0       -3.003208    0.267554   -0.121284
     25          6           0       -1.826339   -0.723418    1.328073
     26          1           0       -1.195639   -1.607193    1.459967
     27          1           0       -1.282701    0.141122    1.710207
     28          1           0       -2.694602   -0.865374    1.974652
     29          6           0       -1.204414   -0.253869   -1.163886
     30          1           0       -1.085845   -1.124344   -1.816085
     31          1           0       -1.569241    0.536269   -1.822834
 ---------------------------------------------------------------------
                    Distance matrix (angstroms):
                    1          2          3          4          5
     1  C    0.000000
     2  C    1.527411   0.000000
     3  H    2.088096   1.094998   0.000000
     4  C    4.642746   3.783674   4.539347   0.000000
     5  H    5.351650   4.691779   5.525747   1.092005   0.000000
     6  H    5.144839   4.166779   4.710957   1.092131   1.767223
     7  H    4.844745   3.797644   4.540126   1.094652   1.768979
     8  O    1.227449   2.419833   2.985310   5.411367   6.019700
     9  N    2.454220   1.442578   2.042555   4.047493   4.912251
    10  H    3.056246   2.120832   2.910973   3.531495   4.291362
    11  N    1.337474   2.420887   2.701445   4.984489   5.627440
    12  H    2.031348   2.534243   2.652703   4.669042   5.359352
    13  C    2.428408   3.788622   4.045537   6.160818   6.655082
    14  H    2.758093   4.184405   4.673434   6.143170   6.484689
    15  H    2.764208   4.168612   4.259320   7.006150   7.563755
    16  H    3.304808   4.482925   4.634949   6.521882   6.979236
    17  C    3.185457   2.447146   2.560416   5.337427   6.209387
    18  C    4.480951   3.776743   4.011191   5.962570   6.730089
    19  H    4.764163   3.969839   4.415855   5.416234   6.086517
    20  H    5.291623   4.442106   4.458105   6.593855   7.420457
    21  H    4.737679   4.364266   4.634589   6.732709   7.427438
    22  O    3.296761   2.791600   2.461569   6.192237   7.119208
    23  C    3.226891   2.666288   3.537857   1.518706   2.170256
    24  H    3.499847   3.276071   4.040170   2.132134   2.474692
    25  C    3.142759   3.011781   4.083713   2.467467   2.696525
    26  H    3.493393   3.115327   4.179018   2.710030   3.005935
    27  H    2.466568   2.859877   3.914727   3.451055   3.721053
    28  H    4.097879   4.086194   5.145860   2.694537   2.462706
    29  C    2.583096   1.525575   2.116753   2.496870   3.464340
    30  H    3.466219   2.094176   2.411424   2.442780   3.528095
    31  H    2.895586   2.134890   2.321617   3.070222   3.974766
                    6          7          8          9         10
     6  H    0.000000
     7  H    1.765497   0.000000
     8  O    6.065004   5.487563   0.000000
     9  N    4.600529   3.675732   2.734905   0.000000
    10  H    4.234340   3.005480   3.249503   1.007762   0.000000
    11  N    5.323981   5.440445   2.246472   3.659746   4.228787
    12  H    4.814799   5.229950   3.138887   3.941049   4.489161
    13  C    6.550724   6.684096   2.754431   4.882097   5.418153
    14  H    6.672235   6.674710   2.787645   5.104430   5.475388
    15  H    7.408291   7.424232   2.789869   5.127544   5.778220
    16  H    6.777780   7.171881   3.807118   5.715121   6.246996
    17  C    5.841162   4.856408   3.143630   1.344505   2.027537
    18  C    6.559854   5.261905   4.211128   2.409115   2.521227
    19  H    6.088843   4.611150   4.547142   2.527912   2.193359
    20  H    7.070980   5.828992   5.120279   3.161916   3.347053
    21  H    7.413377   6.084487   4.187291   3.082696   3.216782
    22  O    6.578486   5.827726   3.274721   2.257523   3.141948
    23  C    2.174540   2.152391   4.039012   3.258305   2.982569
    24  H    2.502906   3.044151   4.385921   4.145368   3.993258
    25  C    3.438742   2.723694   3.499126   3.181948   2.697177
    26  H    3.738419   2.508631   3.654668   2.773420   2.021750
    27  H    4.327187   3.735939   2.635205   3.173036   2.942533
    28  H    3.694169   3.080421   4.373821   4.245830   3.668663
    29  C    2.707325   2.770956   3.618853   2.456751   2.625701
    30  H    2.441020   2.408087   4.418180   2.562135   2.629471
    31  H    2.962961   3.572368   4.083765   3.355346   3.676311
                   11         12         13         14         15
    11  N    0.000000
    12  H    1.006756   0.000000
    13  C    1.444804   2.124122   0.000000
    14  H    2.100240   2.842331   1.090796   0.000000
    15  H    2.101293   2.852907   1.090306   1.767087   0.000000
    16  H    2.068525   2.288224   1.085778   1.768302   1.769183
    17  C    4.427557   4.808958   5.515729   5.808537   5.504386
    18  C    5.784181   6.209761   6.803869   6.953817   6.776168
    19  H    6.065993   6.447849   7.128311   7.166333   7.244103
    20  H    6.542000   6.883469   7.612259   7.860331   7.535387
    21  H    6.056824   6.627387   6.889674   6.957188   6.742368
    22  O    4.370955   4.754222   5.357658   5.826324   5.151035
    23  C    3.506245   3.296578   4.652534   4.644322   5.497196
    24  H    3.364133   3.014887   4.327689   4.299951   5.297833
    25  C    3.708063   3.900109   4.601894   4.293562   5.365584
    26  H    4.355578   4.618968   5.317689   5.037604   5.942590
    27  H    3.018671   3.448475   3.714929   3.312392   4.424527
    28  H    4.493986   4.656167   5.197956   4.723113   6.036319
    29  C    2.947123   2.615988   4.342287   4.667951   5.008013
    30  H    3.953677   3.579140   5.378363   5.740381   5.973277
    31  H    2.777971   2.102328   4.128426   4.621520   4.840945
                   16         17         18         19         20
    16  H    0.000000
    17  C    6.408982   0.000000
    18  C    7.751396   1.493687   0.000000
    19  H    8.062799   2.169496   1.088165   0.000000
    20  H    8.519429   2.115363   1.089300   1.778467   0.000000
    21  H    7.901665   2.109689   1.090386   1.772893   1.756558
    22  O    6.205834   1.229864   2.379172   3.282552   2.649825
    23  C    5.069158   4.600700   5.477134   5.133989   6.233020
    24  H    4.540449   5.462878   6.448876   6.169492   7.219494
    25  C    5.233384   4.438860   5.088411   4.655221   6.013628
    26  H    6.060996   3.922575   4.299612   3.724399   5.225679
    27  H    4.448562   4.301852   5.073760   4.823568   6.062689
    28  H    5.736354   5.479622   6.010080   5.470853   6.950004
    29  C    4.784541   3.678625   4.806230   4.721641   5.415185
    30  H    5.814268   3.657195   4.628018   4.477352   5.066321
    31  H    4.339718   4.448589   5.703013   5.724095   6.244018
                   21         22         23         24         25
    21  H    0.000000
    22  O    2.719976   0.000000
    23  C    6.116395   5.320729   0.000000
    24  H    7.032843   6.047248   1.094593   0.000000
    25  C    5.514477   5.296832   1.520846   2.113689   0.000000
    26  H    4.740756   4.948659   2.181025   3.046693   1.093726
    27  H    5.331374   5.006243   2.199048   2.516046   1.090412
    28  H    6.386070   6.368452   2.144760   2.402439   1.091832
    29  C    5.536709   4.177404   1.546421   2.143493   2.610963
    30  H    5.513512   4.227195   2.162907   2.913076   3.254966
    31  H    6.417784   4.707142   2.160765   2.241370   3.403105
                   26         27         28         29         30
    26  H    0.000000
    27  H    1.768277   0.000000
    28  H    1.749882   1.753975   0.000000
    29  C    2.952316   2.902164   3.527750   0.000000
    30  H    3.313263   3.751652   4.126118   1.094143   0.000000
    31  H    3.938374   3.566599   4.201421   1.091618   1.729553
                   31
    31  H    0.000000
 Stoichiometry    C9H18N2O2
 Framework group  C1[X(C9H18N2O2)]
 Deg. of freedom    87
 Full point group                 C1      NOp   1
 Largest Abelian subgroup         C1      NOp   1
 Largest concise Abelian subgroup C1      NOp   1
                         Standard orientation:                         
 ---------------------------------------------------------------------
 Center     Atomic      Atomic             Coordinates (Angstroms)
 Number     Number       Type             X           Y           Z
 ---------------------------------------------------------------------
      1          6           0       -0.285971    1.303897    0.056805
      2          6           0        0.148546    0.065178   -0.724063
      3          1           0        0.555757    0.463313   -1.659311
      4          6           0       -2.046584   -2.980737   -0.255028
      5          1           0       -2.767483   -3.422454    0.436106
      6          1           0       -2.371634   -3.207390   -1.272732
      7          1           0       -1.081508   -3.472608   -0.097056
      8          8           0        0.321344    1.708499    1.043768
      9          7           0        1.234652   -0.618593   -0.065382
     10          1           0        1.026517   -1.418528    0.511133
     11          7           0       -1.344216    1.950391   -0.444195
     12          1           0       -1.817517    1.575361   -1.249736
     13          6           0       -1.845175    3.162685    0.161481
     14          1           0       -2.150658    2.988188    1.193987
     15          1           0       -1.088064    3.947246    0.157793
     16          1           0       -2.707063    3.505935   -0.402648
     17          6           0        2.511519   -0.205771   -0.148334
     18          6           0        3.511634   -1.007212    0.618846
     19          1           0        3.089946   -1.898451    1.079254
     20          1           0        4.323996   -1.291937   -0.048667
     21          1           0        3.936827   -0.373863    1.397962
     22          8           0        2.847995    0.770507   -0.816340
     23          6           0       -1.905985   -1.485553   -0.028918
     24          1           0       -2.889636   -1.024514   -0.163110
     25          6           0       -1.507416   -1.250902    1.419893
     26          1           0       -0.583417   -1.774577    1.681097
     27          1           0       -1.384398   -0.198123    1.675864
     28          1           0       -2.283612   -1.649947    2.075926
     29          6           0       -0.971253   -0.896054   -1.110668
     30          1           0       -0.470334   -1.718712   -1.629765
     31          1           0       -1.581365   -0.416768   -1.878573
 ---------------------------------------------------------------------
 Rotational constants (GHZ):      0.8020037      0.6471816      0.4240115
 Leave Link  202 at Tue Jun 17 23:17:56 2014, MaxMem=  4294967296 cpu:         2.0
 (Enter /home/ztw1e12/g09/l301.exe)
 Standard basis: CC-pVTZ (5D, 7F)
 Converting basis for Fermi contact spin-spin IFCMod=1.
 AO basis functions are being uncontracted.
 Ernie: Thresh=  0.10000D-02 Tol=  0.10000D-05 Strict=F.
 There are  1119 symmetry adapted cartesian basis functions of A   symmetry.
 There are  1036 symmetry adapted basis functions of A   symmetry.
  1036 basis functions,  1119 primitive gaussians,  1119 cartesian basis functions
    51 alpha electrons       51 beta electrons
       nuclear repulsion energy       876.0632039829 Hartrees.
 IExCor= 4235 DFT=T Ex+Corr=M06 ExCW=0 ScaHFX=  0.270000
 ScaDFX=  1.000000  1.000000  1.000000  1.000000 ScalE2=  1.000000  1.000000
 IRadAn= 199590 IRanWt=     -1 IRanGd=            0 ICorTp=0 IEmpDi=  4
 NAtoms=   31 NActive=   31 NUniq=   31 SFac= 1.00D+00 NAtFMM=   60 NAOKFM=F Big=F
 Integral buffers will be    131072 words long.
 Raffenetti 2 integral format.
 Two-electron integral symmetry is turned on.
 Leave Link  301 at Tue Jun 17 23:17:57 2014, MaxMem=  4294967296 cpu:         5.5
 (Enter /home/ztw1e12/g09/l302.exe)
 NPDir=0 NMtPBC=     1 NCelOv=     1 NCel=       1 NClECP=     1 NCelD=      1
         NCelK=      1 NCelE2=     1 NClLst=     1 CellRange=     0.0.
 One-electron integrals computed using PRISM.
 GSVD:  received Info=                   1 from GESDD.
 NBasis=  1036 RedAO= T EigKep=  1.08D-04  NBF=  1036
 NBsUse=   932 1.00D-06 EigRej=  5.05D-15 NBFU=   932
 Precomputing XC quadrature grid using
 IXCGrd= 4 IRadAn=      199590 IRanWt=          -1 IRanGd=           0 AccXCQ= 0.00D+00.
 Generated NRdTot=       0 NPtTot=           0 NUsed=           0 NTot=          32
 NSgBfM=   881   881   881   882   884 MxSgAt=    31 MxSgA2=    31.
 Leave Link  302 at Tue Jun 17 23:18:02 2014, MaxMem=  4294967296 cpu:        80.7
 (Enter /home/ztw1e12/g09/l308.exe)
 Leave Link  308 at Tue Jun 17 23:18:03 2014, MaxMem=  4294967296 cpu:         5.6
 (Enter /home/ztw1e12/g09/l303.exe)
 DipDrv:  MaxL=1.
 Leave Link  303 at Tue Jun 17 23:18:03 2014, MaxMem=  4294967296 cpu:         3.3
 (Enter /home/ztw1e12/g09/l401.exe)
 ExpMin= 1.03D-01 ExpMax= 1.38D+05 ExpMxC= 1.38D+05 IAcc=4 IRadAn=    199590 AccDes= 0.00D+00
 Harris functional with IExCor= 1009 and IRadAn=  199590 diagonalized for initial guess.
 HarFok:  IExCor= 1009 AccDes= 0.00D+00 IRadAn=    199590 IDoV= 1 UseB2=F ITyADJ=14
 ICtDFT=  3500011 ScaDFX=  1.000000  1.000000  1.000000  1.000000
 FoFCou: FMM=F IPFlag=           0 FMFlag=      100000 FMFlg1=           0
         NFxFlg=           0 DoJE=T BraDBF=F KetDBF=T FulRan=T
         wScrn=  0.000000 ICntrl=     500 IOpCl=  0 I1Cent=   200000004 NGrid=           0
         NMat0=    1 NMatS0=      1 NMatT0=    0 NMatD0=    1 NMtDS0=    0 NMtDT0=    0
 Petite list used in FoFCou.
 Harris En= -613.556612473583    
 JPrj=0 DoOrth=F DoCkMO=F.
 Leave Link  401 at Tue Jun 17 23:18:21 2014, MaxMem=  4294967296 cpu:       263.3
 (Enter /home/ztw1e12/g09/l502.exe)
 Closed shell SCF:
 Using DIIS extrapolation, IDIIS=  1040.
 Integral symmetry usage will be decided dynamically.
 IVT=     3801329 IEndB=     3801329 NGot=  4294967296 MDV=  4292435888
 LenX=  4292435888 LenY=  4291182608
 Requested convergence on RMS density matrix=1.00D-08 within 128 cycles.
 Requested convergence on MAX density matrix=1.00D-06.
 Requested convergence on             energy=1.00D-06.
 No special actions if energy rises.
 Fock matrices will be formed incrementally for  20 cycles.
 Integral accuracy reduced to 1.0D-05 until final iterations.

 Cycle   1  Pass 0  IDiag  1:
 FoFJK:  IHMeth= 1 ICntrl=       0 DoSepK=F KAlg= 0 I1Cent=   0 FoldK=F
 IRaf= 480000000 NMat=   1 IRICut=       1 DoRegI=T DoRafI=F ISym2E= 0.
 FoFCou: FMM=F IPFlag=           0 FMFlag=      100000 FMFlg1=           0
         NFxFlg=           0 DoJE=F BraDBF=F KetDBF=F FulRan=T
         wScrn=  0.000000 ICntrl=       0 IOpCl=  0 I1Cent=           0 NGrid=           0
         NMat0=    1 NMatS0=      1 NMatT0=    0 NMatD0=    1 NMtDS0=    0 NMtDT0=    0
 Symmetry not used in FoFCou.
 E= -613.175350152516    
 DIIS: error= 1.24D-01 at cycle   1 NSaved=   1.
 NSaved= 1 IEnMin= 1 EnMin= -613.175350152516     IErMin= 1 ErrMin= 1.24D-01
 ErrMax= 1.24D-01  0.00D+00 EMaxC= 1.00D-01 BMatC= 1.30D+01 BMatP= 1.30D+01
 IDIUse=3 WtCom= 0.00D+00 WtEn= 1.00D+00
 Coeff-Com:  0.100D+01
 Coeff-En:   0.100D+01
 Coeff:      0.100D+01
 Gap=     0.284 Goal=   None    Shift=    0.000
 GapD=    0.284 DampG=1.000 DampE=0.250 DampFc=0.2500 IDamp=-1.
 Damping current iteration by 2.50D-01
 RMSDP=2.21D-03 MaxDP=3.18D-01              OVMax= 2.88D-01

 Cycle   2  Pass 0  IDiag  1:
 RMSU=  5.51D-04    CP:  1.01D+00
 E= -613.331670019516     Delta-E=       -0.156319867000 Rises=F Damp=T
 DIIS: error= 9.52D-02 at cycle   2 NSaved=   2.
 NSaved= 2 IEnMin= 2 EnMin= -613.331670019516     IErMin= 2 ErrMin= 9.52D-02
 ErrMax= 9.52D-02  0.00D+00 EMaxC= 1.00D-01 BMatC= 7.66D+00 BMatP= 1.30D+01
 IDIUse=3 WtCom= 4.78D-02 WtEn= 9.52D-01
 Coeff-Com: -0.279D+01 0.379D+01
 Coeff-En:   0.000D+00 0.100D+01
 Coeff:     -0.133D+00 0.113D+01
 Gap=     0.227 Goal=   None    Shift=    0.000
 RMSDP=5.37D-04 MaxDP=4.24D-02 DE=-1.56D-01 OVMax= 1.45D-01

 Cycle   3  Pass 0  IDiag  1:
 RMSU=  4.61D-04    CP:  1.03D+00  1.49D+00
 E= -613.554826327595     Delta-E=       -0.223156308079 Rises=F Damp=F
 DIIS: error= 1.26D-02 at cycle   3 NSaved=   3.
 NSaved= 3 IEnMin= 3 EnMin= -613.554826327595     IErMin= 3 ErrMin= 1.26D-02
 ErrMax= 1.26D-02  0.00D+00 EMaxC= 1.00D-01 BMatC= 1.77D-01 BMatP= 7.66D+00
 IDIUse=3 WtCom= 8.74D-01 WtEn= 1.26D-01
 Coeff-Com:  0.736D+00-0.103D+01 0.129D+01
 Coeff-En:   0.312D-01 0.000D+00 0.969D+00
 Coeff:      0.647D+00-0.898D+00 0.125D+01
 Gap=     0.238 Goal=   None    Shift=    0.000
 RMSDP=3.88D-04 MaxDP=3.23D-02 DE=-2.23D-01 OVMax= 7.44D-02

 Cycle   4  Pass 0  IDiag  1:
 RMSU=  3.24D-04    CP:  1.03D+00  1.17D+00  7.46D-01
 E= -613.522630879985     Delta-E=        0.032195447610 Rises=F Damp=F
 DIIS: error= 1.10D-02 at cycle   4 NSaved=   4.
 NSaved= 4 IEnMin= 3 EnMin= -613.554826327595     IErMin= 4 ErrMin= 1.10D-02
 ErrMax= 1.10D-02  0.00D+00 EMaxC= 1.00D-01 BMatC= 1.18D-01 BMatP= 1.77D-01
 IDIUse=3 WtCom= 8.90D-01 WtEn= 1.10D-01
 Coeff-Com:  0.536D+00-0.747D+00 0.701D+00 0.510D+00
 Coeff-En:   0.000D+00 0.000D+00 0.618D+00 0.382D+00
 Coeff:      0.477D+00-0.665D+00 0.692D+00 0.496D+00
 Gap=     0.270 Goal=   None    Shift=    0.000
 RMSDP=3.03D-04 MaxDP=3.37D-02 DE= 3.22D-02 OVMax= 7.83D-02

 Cycle   5  Pass 0  IDiag  1:
 RMSU=  7.64D-05    CP:  1.02D+00  1.06D+00  8.57D-01  1.29D-01
 E= -613.609867116185     Delta-E=       -0.087236236200 Rises=F Damp=F
 DIIS: error= 3.39D-03 at cycle   5 NSaved=   5.
 NSaved= 5 IEnMin= 5 EnMin= -613.609867116185     IErMin= 5 ErrMin= 3.39D-03
 ErrMax= 3.39D-03  0.00D+00 EMaxC= 1.00D-01 BMatC= 1.08D-02 BMatP= 1.18D-01
 IDIUse=3 WtCom= 9.66D-01 WtEn= 3.39D-02
 Coeff-Com:  0.370D-01-0.588D-01 0.719D-01 0.227D+00 0.723D+00
 Coeff-En:   0.000D+00 0.000D+00 0.000D+00 0.297D-01 0.970D+00
 Coeff:      0.358D-01-0.568D-01 0.694D-01 0.220D+00 0.731D+00
 Gap=     0.261 Goal=   None    Shift=    0.000
 RMSDP=1.30D-04 MaxDP=1.97D-02 DE=-8.72D-02 OVMax= 2.43D-02

 Cycle   6  Pass 0  IDiag  1:
 RMSU=  5.70D-05    CP:  1.03D+00  1.12D+00  9.27D-01  4.30D-01  4.34D-01
 E= -613.616108887651     Delta-E=       -0.006241771466 Rises=F Damp=F
 DIIS: error= 7.06D-04 at cycle   6 NSaved=   6.
 NSaved= 6 IEnMin= 6 EnMin= -613.616108887651     IErMin= 6 ErrMin= 7.06D-04
 ErrMax= 7.06D-04  0.00D+00 EMaxC= 1.00D-01 BMatC= 8.57D-04 BMatP= 1.08D-02
 IDIUse=3 WtCom= 9.93D-01 WtEn= 7.06D-03
 Coeff-Com:  0.150D-01-0.211D-01-0.226D-02 0.520D-01 0.266D+00 0.690D+00
 Coeff-En:   0.000D+00 0.000D+00 0.000D+00 0.000D+00 0.141D-01 0.986D+00
 Coeff:      0.149D-01-0.209D-01-0.224D-02 0.516D-01 0.264D+00 0.692D+00
 Gap=     0.260 Goal=   None    Shift=    0.000
 RMSDP=2.75D-05 MaxDP=3.90D-03 DE=-6.24D-03 OVMax= 6.36D-03

 Cycle   7  Pass 0  IDiag  1:
 RMSU=  1.93D-05    CP:  1.03D+00  1.10D+00  9.21D-01  4.19D-01  5.99D-01
                    CP:  9.80D-01
 E= -613.616597382315     Delta-E=       -0.000488494664 Rises=F Damp=F
 DIIS: error= 4.13D-04 at cycle   7 NSaved=   7.
 NSaved= 7 IEnMin= 7 EnMin= -613.616597382315     IErMin= 7 ErrMin= 4.13D-04
 ErrMax= 4.13D-04  0.00D+00 EMaxC= 1.00D-01 BMatC= 1.75D-04 BMatP= 8.57D-04
 IDIUse=3 WtCom= 9.96D-01 WtEn= 4.13D-03
 Coeff-Com:  0.131D-01-0.175D-01-0.100D-02 0.149D-01 0.895D-01 0.381D+00
 Coeff-Com:  0.520D+00
 Coeff-En:   0.000D+00 0.000D+00 0.000D+00 0.000D+00 0.000D+00 0.133D+00
 Coeff-En:   0.867D+00
 Coeff:      0.131D-01-0.174D-01-0.100D-02 0.148D-01 0.891D-01 0.380D+00
 Coeff:      0.521D+00
 Gap=     0.260 Goal=   None    Shift=    0.000
 RMSDP=9.63D-06 MaxDP=1.05D-03 DE=-4.88D-04 OVMax= 2.27D-03

 Cycle   8  Pass 0  IDiag  1:
 RMSU=  5.59D-06    CP:  1.03D+00  1.10D+00  9.23D-01  4.28D-01  5.85D-01
                    CP:  1.03D+00  6.65D-01
 E= -613.616719275245     Delta-E=       -0.000121892931 Rises=F Damp=F
 DIIS: error= 1.28D-04 at cycle   8 NSaved=   8.
 NSaved= 8 IEnMin= 8 EnMin= -613.616719275245     IErMin= 8 ErrMin= 1.28D-04
 ErrMax= 1.28D-04  0.00D+00 EMaxC= 1.00D-01 BMatC= 1.46D-05 BMatP= 1.75D-04
 IDIUse=3 WtCom= 9.99D-01 WtEn= 1.28D-03
 Coeff-Com:  0.749D-02-0.998D-02 0.728D-03 0.351D-02 0.261D-01 0.161D+00
 Coeff-Com:  0.295D+00 0.516D+00
 Coeff-En:   0.000D+00 0.000D+00 0.000D+00 0.000D+00 0.000D+00 0.000D+00
 Coeff-En:   0.000D+00 0.100D+01
 Coeff:      0.748D-02-0.996D-02 0.727D-03 0.350D-02 0.261D-01 0.161D+00
 Coeff:      0.294D+00 0.517D+00
 Gap=     0.260 Goal=   None    Shift=    0.000
 RMSDP=4.02D-06 MaxDP=5.11D-04 DE=-1.22D-04 OVMax= 9.53D-04

 Initial convergence to 1.0D-05 achieved.  Increase integral accuracy.
 Cycle   9  Pass 1  IDiag  1:
 E= -613.616738920914     Delta-E=       -0.000019645669 Rises=F Damp=F
 DIIS: error= 7.93D-05 at cycle   1 NSaved=   1.
 NSaved= 1 IEnMin= 1 EnMin= -613.616738920914     IErMin= 1 ErrMin= 7.93D-05
 ErrMax= 7.93D-05  0.00D+00 EMaxC= 1.00D-01 BMatC= 9.01D-06 BMatP= 9.01D-06
 IDIUse=1 WtCom= 1.00D+00 WtEn= 0.00D+00
 Coeff-Com:  0.100D+01
 Coeff:      0.100D+01
 Gap=     0.260 Goal=   None    Shift=    0.000
 RMSDP=4.02D-06 MaxDP=5.11D-04 DE=-1.96D-05 OVMax= 9.16D-04

 Cycle  10  Pass 1  IDiag  1:
 RMSU=  2.33D-05    CP:  1.00D+00
 E= -613.616737733483     Delta-E=        0.000001187431 Rises=F Damp=F
 DIIS: error= 1.14D-04 at cycle   2 NSaved=   2.
 NSaved= 2 IEnMin= 1 EnMin= -613.616738920914     IErMin= 1 ErrMin= 7.93D-05
 ErrMax= 1.14D-04  0.00D+00 EMaxC= 1.00D-01 BMatC= 9.31D-06 BMatP= 9.01D-06
 IDIUse=3 WtCom= 9.99D-01 WtEn= 1.14D-03
 Coeff-Com:  0.505D+00 0.495D+00
 Coeff-En:   0.560D+00 0.440D+00
 Coeff:      0.506D+00 0.494D+00
 Gap=     0.260 Goal=   None    Shift=    0.000
 RMSDP=3.45D-06 MaxDP=4.48D-04 DE= 1.19D-06 OVMax= 9.23D-04

 Cycle  11  Pass 1  IDiag  1:
 RMSU=  3.43D-06    CP:  1.00D+00  9.86D-01
 E= -613.616742617036     Delta-E=       -0.000004883553 Rises=F Damp=F
 DIIS: error= 6.59D-05 at cycle   3 NSaved=   3.
 NSaved= 3 IEnMin= 3 EnMin= -613.616742617036     IErMin= 3 ErrMin= 6.59D-05
 ErrMax= 6.59D-05  0.00D+00 EMaxC= 1.00D-01 BMatC= 2.52D-06 BMatP= 9.01D-06
 IDIUse=1 WtCom= 1.00D+00 WtEn= 0.00D+00
 Coeff-Com:  0.255D-01 0.339D+00 0.635D+00
 Coeff:      0.255D-01 0.339D+00 0.635D+00
 Gap=     0.260 Goal=   None    Shift=    0.000
 RMSDP=1.26D-06 MaxDP=1.37D-04 DE=-4.88D-06 OVMax= 3.36D-04

 Cycle  12  Pass 1  IDiag  1:
 RMSU=  4.52D-07    CP:  1.00D+00  1.01D+00  6.83D-01
 E= -613.616744350487     Delta-E=       -0.000001733451 Rises=F Damp=F
 DIIS: error= 8.89D-06 at cycle   4 NSaved=   4.
 NSaved= 4 IEnMin= 4 EnMin= -613.616744350487     IErMin= 4 ErrMin= 8.89D-06
 ErrMax= 8.89D-06  0.00D+00 EMaxC= 1.00D-01 BMatC= 8.87D-08 BMatP= 2.52D-06
 IDIUse=1 WtCom= 1.00D+00 WtEn= 0.00D+00
 Coeff-Com: -0.120D-02 0.169D+00 0.346D+00 0.486D+00
 Coeff:     -0.120D-02 0.169D+00 0.346D+00 0.486D+00
 Gap=     0.260 Goal=   None    Shift=    0.000
 RMSDP=2.06D-07 MaxDP=1.93D-05 DE=-1.73D-06 OVMax= 4.28D-05

 Cycle  13  Pass 1  IDiag  1:
 RMSU=  1.55D-07    CP:  1.00D+00  1.01D+00  6.91D-01  7.08D-01
 E= -613.616744416313     Delta-E=       -0.000000065826 Rises=F Damp=F
 DIIS: error= 1.23D-06 at cycle   5 NSaved=   5.
 NSaved= 5 IEnMin= 5 EnMin= -613.616744416313     IErMin= 5 ErrMin= 1.23D-06
 ErrMax= 1.23D-06  0.00D+00 EMaxC= 1.00D-01 BMatC= 2.35D-09 BMatP= 8.87D-08
 IDIUse=1 WtCom= 1.00D+00 WtEn= 0.00D+00
 Coeff-Com: -0.201D-02 0.477D-01 0.101D+00 0.203D+00 0.650D+00
 Coeff:     -0.201D-02 0.477D-01 0.101D+00 0.203D+00 0.650D+00
 Gap=     0.260 Goal=   None    Shift=    0.000
 RMSDP=4.56D-08 MaxDP=5.03D-06 DE=-6.58D-08 OVMax= 6.84D-06

 Cycle  14  Pass 1  IDiag  1:
 RMSU=  2.61D-08    CP:  1.00D+00  1.01D+00  6.92D-01  7.85D-01  9.55D-01
 E= -613.616744417756     Delta-E=       -0.000000001443 Rises=F Damp=F
 DIIS: error= 3.54D-07 at cycle   6 NSaved=   6.
 NSaved= 6 IEnMin= 6 EnMin= -613.616744417756     IErMin= 6 ErrMin= 3.54D-07
 ErrMax= 3.54D-07  0.00D+00 EMaxC= 1.00D-01 BMatC= 1.20D-10 BMatP= 2.35D-09
 IDIUse=1 WtCom= 1.00D+00 WtEn= 0.00D+00
 Coeff-Com: -0.683D-03 0.783D-02 0.173D-01 0.457D-01 0.232D+00 0.698D+00
 Coeff:     -0.683D-03 0.783D-02 0.173D-01 0.457D-01 0.232D+00 0.698D+00
 Gap=     0.260 Goal=   None    Shift=    0.000
 RMSDP=1.44D-08 MaxDP=1.30D-06 DE=-1.44D-09 OVMax= 3.21D-06

 Cycle  15  Pass 1  IDiag  1:
 RMSU=  1.19D-08    CP:  1.00D+00  1.01D+00  6.93D-01  7.98D-01  9.82D-01
                    CP:  8.88D-01
 E= -613.616744417764     Delta-E=       -0.000000000009 Rises=F Damp=F
 DIIS: error= 2.31D-07 at cycle   7 NSaved=   7.
 NSaved= 7 IEnMin= 7 EnMin= -613.616744417764     IErMin= 7 ErrMin= 2.31D-07
 ErrMax= 2.31D-07  0.00D+00 EMaxC= 1.00D-01 BMatC= 5.00D-11 BMatP= 1.20D-10
 IDIUse=1 WtCom= 1.00D+00 WtEn= 0.00D+00
 Coeff-Com: -0.149D-03-0.138D-02-0.251D-02 0.176D-03 0.483D-01 0.417D+00
 Coeff-Com:  0.538D+00
 Coeff:     -0.149D-03-0.138D-02-0.251D-02 0.176D-03 0.483D-01 0.417D+00
 Coeff:      0.538D+00
 Gap=     0.260 Goal=   None    Shift=    0.000
 RMSDP=8.39D-09 MaxDP=1.37D-06 DE=-8.87D-12 OVMax= 1.92D-06

 Cycle  16  Pass 1  IDiag  1:
 RMSU=  4.92D-09    CP:  1.00D+00  1.01D+00  6.93D-01  8.04D-01  1.00D+00
                    CP:  1.03D+00  7.23D-01
 E= -613.616744417821     Delta-E=       -0.000000000056 Rises=F Damp=F
 DIIS: error= 9.18D-08 at cycle   8 NSaved=   8.
 NSaved= 8 IEnMin= 8 EnMin= -613.616744417821     IErMin= 8 ErrMin= 9.18D-08
 ErrMax= 9.18D-08  0.00D+00 EMaxC= 1.00D-01 BMatC= 6.74D-12 BMatP= 5.00D-11
 IDIUse=1 WtCom= 1.00D+00 WtEn= 0.00D+00
 Coeff-Com: -0.102D-04-0.184D-02-0.368D-02-0.523D-02 0.326D-02 0.176D+00
 Coeff-Com:  0.327D+00 0.505D+00
 Coeff:     -0.102D-04-0.184D-02-0.368D-02-0.523D-02 0.326D-02 0.176D+00
 Coeff:      0.327D+00 0.505D+00
 Gap=     0.260 Goal=   None    Shift=    0.000
 RMSDP=2.52D-09 MaxDP=3.02D-07 DE=-5.62D-11 OVMax= 5.90D-07

 SCF Done:  E(RM06) =  -613.616744418     A.U. after   16 cycles
            NFock= 16  Conv=0.25D-08     -V/T= 2.0046
 KE= 6.108033124544D+02 PE=-3.183434703141D+03 EE= 1.082951442286D+03
 Leave Link  502 at Tue Jun 17 23:46:51 2014, MaxMem=  4294967296 cpu:     27284.7
 (Enter /home/ztw1e12/g09/l801.exe)
 DoSCS=F DFT=T ScalE2(SS,OS)=  1.000000  1.000000
 Range of M.O.s used for correlation:     1   932
 NBasis=  1036 NAE=    51 NBE=    51 NFC=     0 NFV=     0
 NROrb=    932 NOA=    51 NOB=    51 NVA=   881 NVB=   881

 **** Warning!!: The largest alpha MO coefficient is  0.11818774D+02

 Leave Link  801 at Tue Jun 17 23:46:51 2014, MaxMem=  4294967296 cpu:         0.4
 (Enter /home/ztw1e12/g09/l1002.exe)
 Minotr:  Closed shell wavefunction.
          IDoAtm=1111111111111111111111111111111
          Direct CPHF calculation.
          Differentiating once with respect to Fermi-contact.
          Electric field/nuclear overlap derivatives assumed to be zero.
          Requested convergence is 1.0D-10 RMS, and 1.0D-09 maximum.
          Secondary convergence is 1.0D-12 RMS, and 1.0D-12 maximum.
          NewPWx=T KeepS1=F KeepF1=F KeepIn=T MapXYZ=F SortEE=F KeepMc=T.
          MDV=    4294966050 using IRadAn=  199590.
 Using stored XC quadrature information.
          Solving linear equations simultaneously, MaxMat=       0.
          There are    31 degrees of freedom in the 1st order CPHF.  IDoFFX=0 NUNeed=    31.
     31 vectors produced by pass  0 Test12= 1.45D-17 3.23D-11 XBig12= 4.16D+01 2.57D+00.
 AX will form    31 AO Fock derivatives at one time.
 FoFJK:  IHMeth= 1 ICntrl=       0 DoSepK=F KAlg= 0 I1Cent=   0 FoldK=F
 IRaf= 510000000 NMat=  31 IRICut=       1 DoRegI=T DoRafI=F ISym2E=-1.
 FoFCou: FMM=F IPFlag=           0 FMFlag=      100000 FMFlg1=           0
         NFxFlg=           0 DoJE=F BraDBF=F KetDBF=F FulRan=T
         wScrn=  0.000000 ICntrl=       0 IOpCl=  0 I1Cent=           0 NGrid=           0
         NMat0=   31 NMatS0=      0 NMatT0=   31 NMatD0=   31 NMtDS0=    0 NMtDT0=    0
 Petite list used in FoFCou.
     31 vectors produced by pass  1 Test12= 1.45D-17 3.23D-11 XBig12= 3.43D-01 1.76D-01.
     31 vectors produced by pass  2 Test12= 1.45D-17 3.23D-11 XBig12= 1.64D-02 4.57D-02.
     31 vectors produced by pass  3 Test12= 1.45D-17 3.23D-11 XBig12= 3.51D-04 6.20D-03.
     31 vectors produced by pass  4 Test12= 1.45D-17 3.23D-11 XBig12= 4.82D-06 8.95D-04.
     31 vectors produced by pass  5 Test12= 1.45D-17 3.23D-11 XBig12= 9.89D-08 1.46D-04.
     31 vectors produced by pass  6 Test12= 1.45D-17 3.23D-11 XBig12= 3.03D-09 1.70D-05.
     31 vectors produced by pass  7 Test12= 1.45D-17 3.23D-11 XBig12= 1.06D-10 4.39D-06.
     31 vectors produced by pass  8 Test12= 1.45D-17 3.23D-11 XBig12= 2.52D-12 3.73D-07.
     31 vectors produced by pass  9 Test12= 1.45D-17 3.23D-11 XBig12= 6.17D-14 8.48D-08.
     31 vectors produced by pass 10 Test12= 1.45D-17 3.23D-11 XBig12= 2.55D-15 9.36D-09.
     30 vectors produced by pass 11 Test12= 1.45D-17 3.23D-11 XBig12= 2.41D-17 7.10D-10.
      4 vectors produced by pass 12 Test12= 1.45D-17 3.23D-11 XBig12= 1.94D-19 4.40D-11.
 InvSVY:  IOpt=1 It=  1 EMax= 7.11D-15
 Solved reduced A of dimension   375 with    31 vectors.
 Max diff in FC couplings:  IJMax=    22    17 Diff= 2.88D-04 IJMaxR=    17    16 DiffR= 4.61D-01
 Fermi Contact (FC) contribution to K (Hz):
                1             2             3             4             5 
      1  0.123400D+11
      2  0.266337D+02  0.123400D+11
      3 -0.132841D+01  0.186240D+02  0.123400D+11
      4  0.116362D-01  0.865429D+00 -0.446272D-01  0.123400D+11
      5 -0.693569D-02  0.123251D+00  0.484005D-02  0.175012D+02  0.123400D+11
      6  0.188339D-02 -0.584694D-03 -0.815245D-03  0.173953D+02 -0.765568D+00
      7  0.253851D-02 -0.167813D-01  0.367270D-02  0.172357D+02 -0.748222D+00
      8 -0.976034D+01  0.282147D+01  0.338311D+00  0.976793D-01  0.208944D-02
      9  0.486771D+00  0.200053D+02 -0.937987D+00 -0.566325D-01 -0.208459D-02
     10 -0.456177D-01  0.248790D+00  0.268987D+00  0.169091D-01  0.212431D-02
     11  0.280597D+02  0.133615D+02 -0.471848D-01  0.200789D-02  0.140506D-02
     12  0.491577D+00  0.696010D-01 -0.204859D-01  0.188530D-03 -0.318375D-03
     13 -0.430634D+00  0.970536D+00 -0.700959D-01 -0.200250D-02  0.581593D-03
     14  0.190686D+00 -0.832265D-01  0.344053D-01  0.109083D-02 -0.128095D-04
     15  0.181457D+00 -0.823524D-01  0.312508D-01  0.669933D-03  0.177146D-03
     16  0.952123D+00 -0.146355D-01  0.687300D-03  0.270218D-03 -0.485778D-05
     17  0.105483D-01 -0.523522D+00  0.463313D+00  0.109600D-01  0.153465D-02
     18 -0.145955D+00  0.931052D+00 -0.882453D-01 -0.355733D-02 -0.187270D-03
     19  0.102235D-02  0.109651D+00 -0.279749D-02 -0.143832D-03 -0.233358D-04
     20  0.428571D-01  0.385480D-01  0.610267D-02 -0.253408D-04 -0.239035D-04
     21  0.966461D-01  0.262997D-01  0.171622D-01  0.238185D-04 -0.206439D-04
     22  0.427266D+00  0.776515D+00  0.957438D-01  0.563043D-02  0.375145D-02
     23  0.665412D+00 -0.573107D+00  0.112259D+01  0.171272D+02 -0.519544D+00
     24 -0.627843D-02  0.137156D+00 -0.187922D-01 -0.722883D+00  0.124002D+00
     25  0.146942D+00  0.164989D+01  0.190817D-01 -0.219221D+00  0.294020D+00
     26  0.780863D-02 -0.733653D-02  0.670608D-02  0.524277D+00 -0.288649D-02
     27 -0.194184D-01  0.428842D-01  0.993498D-02  0.149654D+01  0.690817D-02
     28  0.904158D-02  0.706626D-01  0.315412D-02  0.294946D+00 -0.788599D-02
     29 -0.762845D-01  0.171709D+02 -0.916247D+00  0.361013D+00  0.150178D+01
     30  0.103415D+01 -0.104431D+01  0.106576D+00  0.122931D+01  0.309482D-01
     31  0.211750D-01 -0.470839D+00  0.203486D+00  0.924623D-01 -0.191800D-01
                6             7             8             9            10 
      6  0.123400D+11
      7 -0.759883D+00  0.123400D+11
      8  0.869595D-02 -0.896532D-03  0.123400D+11
      9  0.338129D-02  0.922507D-02  0.546000D+00  0.123400D+11
     10  0.186227D-03  0.238033D-02 -0.110466D-01  0.313764D+02  0.123400D+11
     11  0.761039D-03  0.104469D-01  0.630207D+01  0.889088D+00  0.459791D-01
     12 -0.456612D-04 -0.974203D-04  0.463569D+00  0.369814D-01 -0.157538D-02
     13  0.514436D-03 -0.209511D-03  0.641823D+00  0.272532D+00 -0.470434D-02
     14  0.234867D-03 -0.125958D-04  0.254835D+00 -0.600662D-02  0.124250D-02
     15  0.547514D-04  0.259727D-03  0.233683D+00  0.149767D-02  0.908199D-03
     16  0.474646D-05  0.379204D-04  0.187312D+00  0.354109D-01 -0.347335D-03
     17  0.851410D-04 -0.342152D-03  0.137015D+00  0.266990D+02  0.389307D+00
     18  0.162085D-03 -0.605215D-04  0.609482D-01  0.130733D+02  0.116771D+00
     19  0.412455D-05  0.104845D-04 -0.243165D-03  0.347248D+00 -0.117649D-01
     20  0.268735D-05 -0.273248D-04  0.531161D-02  0.448733D+00 -0.504979D-02
     21 -0.585069D-05 -0.355765D-04  0.301871D-02  0.291152D+00 -0.167266D-01
     22  0.215289D-03  0.105966D-02  0.688559D+00  0.561292D+01  0.359517D+00
     23 -0.605045D+00 -0.733187D+00  0.399596D-01  0.186141D-01  0.157585D-02
     24  0.143136D+00  0.381199D+00  0.813614D-03  0.500968D-01 -0.771136D-03
     25  0.138731D+01  0.501672D+00  0.738887D+00  0.764224D+00 -0.689809D-01
     26 -0.343451D-02 -0.159971D-01 -0.106613D-01  0.537291D+00 -0.352118D-01
     27  0.102137D+00 -0.561761D-02  0.976940D-01  0.204868D-01  0.713758D-02
     28  0.565730D-02 -0.745668D-02  0.581485D-01  0.227545D+00 -0.101793D-01
     29  0.379723D+00  0.422941D+00  0.448391D+00  0.892975D+00  0.374571D+00
     30 -0.610774D-02 -0.187733D-01  0.921741D-01  0.802478D+00 -0.137630D-01
     31 -0.517229D-02 -0.581904D-02 -0.245524D-01  0.185855D+01 -0.209306D-01
               11            12            13            14            15 
     11  0.123400D+11
     12  0.312276D+02  0.123400D+11
     13  0.171379D+02  0.328999D+00  0.123400D+11
     14 -0.572766D+00  0.996075D-01  0.198467D+02  0.123400D+11
     15 -0.568616D+00  0.109125D+00  0.202021D+02 -0.733925D+00  0.123400D+11
     16 -0.378011D+00  0.291039D+00  0.181946D+02 -0.746448D+00 -0.745641D+00
     17 -0.297364D-01 -0.152999D-02 -0.145762D-01  0.103728D-02  0.160216D-02
     18  0.222692D-01  0.198664D-02  0.130955D-01 -0.133617D-03  0.307324D-03
     19  0.545341D-02 -0.285124D-04  0.669394D-04 -0.227219D-04 -0.222487D-04
     20 -0.333799D-02 -0.244682D-04 -0.393960D-03  0.241414D-04  0.000000D+00
     21  0.263053D-01  0.149136D-03  0.438998D-02 -0.129558D-03 -0.175055D-03
     22  0.213062D+00 -0.154980D-02  0.110863D-01  0.329441D-03  0.199477D-02
     23 -0.361166D-01  0.995788D-02 -0.232320D-02  0.676782D-03  0.304032D-02
     24  0.222211D-01  0.718099D-03 -0.146898D-02  0.124906D-02  0.806573D-03
     25  0.103804D+00 -0.280939D-02 -0.304143D-02  0.638380D-02  0.419478D-02
     26  0.420070D-02  0.252223D-03  0.400226D-03  0.472073D-03  0.604110D-04
     27  0.373301D-01  0.623340D-04  0.974290D-02  0.403001D-02  0.164508D-03
     28  0.167106D-01 -0.110670D-03 -0.650408D-03  0.129947D-03  0.633158D-03
     29  0.368904D-01 -0.564680D-01 -0.328003D-01  0.231363D-01  0.711355D-01
     30 -0.301597D-02 -0.153216D-01 -0.238436D-02 -0.472346D-03  0.584258D-02
     31  0.314880D+00 -0.346985D-01  0.218680D-01 -0.148503D-02  0.337287D-02
               16            17            18            19            20 
     16  0.123400D+11
     17  0.358681D-04  0.123400D+11
     18  0.624593D-03  0.274486D+02  0.123400D+11
     19  0.202421D-04 -0.747093D+00  0.169674D+02  0.123400D+11
     20  0.556354D-04 -0.115421D+01  0.180273D+02 -0.709163D+00  0.123400D+11
     21  0.287611D-03 -0.123131D+01  0.178757D+02 -0.755531D+00 -0.919952D+00
     22  0.531242D-03 -0.958746D+01  0.383040D+01  0.824246D+00  0.422556D+00
     23 -0.190108D-03 -0.700479D-01  0.121302D-01 -0.126122D-03 -0.165260D-02
     24  0.285937D-03  0.604951D-04  0.750200D-03  0.580608D-03  0.552868D-03
     25  0.120729D-02  0.289700D-01 -0.500796D-02 -0.128784D-02  0.129866D-02
     26 -0.161950D-04  0.408636D-01  0.279408D-02  0.152533D-02  0.158226D-03
     27  0.323011D-03  0.340559D-02 -0.172582D-03 -0.846730D-04  0.285507D-04
     28  0.220752D-04  0.211705D-01 -0.397716D-03 -0.173304D-04  0.131973D-03
     29  0.578540D-02  0.117236D+01 -0.346799D-01 -0.406402D-02  0.287134D-01
     30  0.189242D-02  0.486373D-02  0.147507D-01  0.237439D-03  0.488711D-03
     31  0.119303D-02  0.893081D-01  0.615005D-01 -0.229630D-03  0.428974D-02
               21            22            23            24            25 
     21  0.123400D+11
     22  0.444045D+00  0.123400D+11
     23 -0.373150D-03  0.123275D+00  0.123400D+11
     24  0.177195D-04 -0.481409D-03  0.173732D+02  0.123400D+11
     25 -0.272954D-03  0.641169D-01  0.170154D+02 -0.740668D+00  0.123400D+11
     26  0.992350D-04  0.687289D-02 -0.655983D+00  0.416450D+00  0.165324D+02
     27  0.828918D-04  0.522585D-03 -0.571231D+00  0.115081D+00  0.180134D+02
     28  0.154889D-03  0.519942D-02 -0.661243D+00  0.165308D+00  0.169918D+02
     29 -0.371716D-02  0.149605D+00  0.172954D+02 -0.756294D+00 -0.363429D+00
     30 -0.124202D-02 -0.170132D-02 -0.632247D+00  0.164131D+00  0.555403D-01
     31 -0.177686D-02  0.130837D-01 -0.603986D+00  0.376727D+00  0.561837D+00
               26            27            28            29            30 
     26  0.123400D+11
     27 -0.763340D+00  0.123400D+11
     28 -0.840242D+00 -0.869031D+00  0.123400D+11
     29  0.223905D+00  0.263177D+00  0.120629D+01  0.123400D+11
     30 -0.755320D-02 -0.618262D-02 -0.140794D-01  0.173327D+02  0.123400D+11
     31 -0.135176D-01 -0.560280D-02 -0.135426D-02  0.168262D+02 -0.966802D+00
               31 
     31  0.123400D+11
 Fermi Contact (FC) contribution to J (Hz):
                1             2             3             4             5 
      1  0.243533D+11
      2  0.525623D+02  0.243533D+11
      3 -0.104239D+02  0.146141D+03  0.385007D+12
      4  0.229643D-01  0.170794D+01 -0.350185D+00  0.243533D+11
      5 -0.544237D-01  0.967140D+00  0.151009D+00  0.137330D+03  0.385007D+12
      6  0.147788D-01 -0.458804D-02 -0.254356D-01  0.136499D+03 -0.238857D+02
      7  0.199195D-01 -0.131681D+00  0.114588D+00  0.135247D+03 -0.233445D+02
      8  0.103868D+02 -0.300255D+01 -0.143149D+01 -0.103948D+00 -0.884097D-02
      9  0.276103D+00  0.113472D+02 -0.211543D+01 -0.321226D-01 -0.470134D-02
     10 -0.357958D+00  0.195223D+01  0.839237D+01  0.132684D+00  0.662783D-01
     11  0.159158D+02  0.757878D+01 -0.106415D+00  0.113890D-02  0.316881D-02
     12  0.385736D+01  0.546152D+00 -0.639158D+00  0.147938D-02 -0.993328D-02
     13 -0.849867D+00  0.191538D+01 -0.550035D+00 -0.395199D-02  0.456370D-02
     14  0.149629D+01 -0.653070D+00  0.107344D+01  0.855967D-02 -0.399655D-03
     15  0.142387D+01 -0.646211D+00  0.975022D+00  0.525690D-02  0.552695D-02
     16  0.747121D+01 -0.114843D+00  0.214437D-01  0.212037D-02 -0.151563D-03
     17  0.208174D-01 -0.103318D+01  0.363557D+01  0.216299D-01  0.120423D-01
     18 -0.288046D+00  0.183745D+01 -0.692453D+00 -0.702049D-02 -0.146949D-02
     19  0.802231D-02  0.860419D+00 -0.872815D-01 -0.112863D-02 -0.728077D-03
     20  0.336296D+00  0.302483D+00  0.190403D+00 -0.198847D-03 -0.745788D-03
     21  0.758372D+00  0.206371D+00  0.535461D+00  0.186902D-03 -0.644090D-03
     22 -0.454689D+00 -0.826352D+00 -0.405118D+00 -0.599180D-02 -0.158734D-01
     23  0.131321D+01 -0.113104D+01  0.880888D+01  0.338010D+02 -0.407681D+01
     24 -0.492662D-01  0.107625D+01 -0.586317D+00 -0.567239D+01  0.386885D+01
     25  0.289994D+00  0.325609D+01  0.149732D+00 -0.432638D+00  0.230714D+01
     26  0.612735D-01 -0.575690D-01  0.209229D+00  0.411395D+01 -0.900585D-01
     27 -0.152374D+00  0.336508D+00  0.309971D+00  0.117432D+02  0.215535D+00
     28  0.709484D-01  0.554483D+00  0.984083D-01  0.231441D+01 -0.246042D+00
     29 -0.150549D+00  0.338873D+02 -0.718970D+01  0.712467D+00  0.117843D+02
     30  0.811486D+01 -0.819461D+01  0.332517D+01  0.964630D+01  0.965584D+00
     31  0.166158D+00 -0.369463D+01  0.634876D+01  0.725543D+00 -0.598415D+00
                6             7             8             9            10 
      6  0.385007D+12
      7 -0.237083D+02  0.385007D+12
      8 -0.367949D-01  0.379347D-02  0.708114D+10
      9  0.762577D-02  0.208052D-01 -0.166998D+00  0.201170D+10
     10  0.581027D-02  0.742662D-01  0.467412D-01  0.707627D+02  0.385007D+12
     11  0.171636D-02  0.235608D-01 -0.192753D+01  0.144942D+00  0.103696D+00
     12 -0.142463D-02 -0.303951D-02 -0.196149D+01  0.834037D-01 -0.491518D-01
     13  0.403673D-02 -0.164401D-02 -0.683016D+00  0.154584D+00 -0.369145D-01
     14  0.732783D-02 -0.392989D-03 -0.107828D+01 -0.135466D-01  0.387660D-01
     15  0.170824D-02  0.810347D-02 -0.988776D+00  0.337768D-02  0.283358D-01
     16  0.148089D-03  0.118311D-02 -0.792570D+00  0.798617D-01 -0.108368D-01
     17  0.668093D-03 -0.268483D-02 -0.145808D+00  0.151440D+02  0.305485D+01
     18  0.127186D-02 -0.474907D-03 -0.648599D-01  0.741534D+01  0.916292D+00
     19  0.128686D-03  0.327117D-03  0.102890D-02  0.783143D+00 -0.367065D+00
     20  0.838452D-04 -0.852534D-03 -0.224749D-01  0.101202D+01 -0.157553D+00
     21 -0.182541D-03 -0.110998D-02 -0.127730D-01  0.656630D+00 -0.521871D+00
     22 -0.910945D-03 -0.448369D-02  0.395121D+00 -0.171675D+01 -0.152121D+01
     23 -0.474773D+01 -0.575325D+01 -0.425242D-01  0.105581D-01  0.123655D-01
     24  0.446583D+01  0.118934D+02 -0.344262D-02  0.112982D+00 -0.240594D-01
     25  0.108861D+02  0.393657D+01 -0.786309D+00  0.433477D+00 -0.541287D+00
     26 -0.107157D+00 -0.499109D+00  0.451110D-01  0.121174D+01 -0.109861D+01
     27  0.318666D+01 -0.175269D+00 -0.413370D+00  0.462035D-01  0.222692D+00
     28  0.176507D+00 -0.232648D+00 -0.246042D+00  0.513178D+00 -0.317595D+00
     29  0.297965D+01  0.331877D+01 -0.477169D+00  0.506506D+00  0.293922D+01
     30 -0.190561D+00 -0.585726D+00 -0.390014D+00  0.180982D+01 -0.429406D+00
     31 -0.161375D+00 -0.181554D+00  0.103888D+00  0.419156D+01 -0.653033D+00
               11            12            13            14            15 
     11  0.201170D+10
     12  0.704272D+02  0.385007D+12
     13  0.972082D+01  0.258162D+01  0.243533D+11
     14 -0.129175D+01  0.310775D+01  0.155735D+03  0.385007D+12
     15 -0.128239D+01  0.340468D+01  0.158524D+03 -0.228984D+02  0.385007D+12
     16 -0.852521D+00  0.908039D+01  0.142771D+03 -0.232891D+02 -0.232640D+02
     17 -0.168669D-01 -0.120057D-01 -0.287664D-01  0.813941D-02  0.125720D-01
     18  0.126314D-01  0.155890D-01  0.258442D-01 -0.104848D-02  0.241154D-02
     19  0.122990D-01 -0.889587D-03  0.525267D-03 -0.708922D-03 -0.694158D-03
     20 -0.752813D-02 -0.763406D-03 -0.309137D-02  0.753210D-03  0.811365D-05
     21  0.593259D-01  0.465303D-02  0.344477D-01 -0.404221D-02 -0.546172D-02
     22 -0.651665D-01  0.655763D-02 -0.117978D-01 -0.139396D-02 -0.844040D-02
     23 -0.204858D-01  0.781385D-01 -0.458489D-02  0.531064D-02  0.238571D-01
     24  0.501149D-01  0.224046D-01 -0.115270D-01  0.389707D-01  0.251650D-01
     25  0.588787D-01 -0.220450D-01 -0.600233D-02  0.500931D-01  0.329160D-01
     26  0.947378D-02  0.786936D-02  0.314053D-02  0.147287D-01  0.188482D-02
     27  0.841899D-01  0.194482D-02  0.764516D-01  0.125736D+00  0.513264D-02
     28  0.376871D-01 -0.345291D-02 -0.510369D-02  0.405434D-02  0.197545D-01
     29  0.209247D-01 -0.443099D+00 -0.647322D-01  0.181549D+00  0.558193D+00
     30 -0.680186D-02 -0.478032D+00 -0.187099D-01 -0.147372D-01  0.182288D+00
     31  0.710143D+00 -0.108259D+01  0.171596D+00 -0.463330D-01  0.105233D+00
               16            17            18            19            20 
     16  0.385007D+12
     17  0.281454D-03  0.243533D+11
     18  0.490112D-02  0.541705D+02  0.243533D+11
     19  0.631553D-03 -0.586236D+01  0.133141D+03  0.385007D+12
     20  0.173582D-02 -0.905695D+01  0.141458D+03 -0.221258D+02  0.385007D+12
     21  0.897344D-02 -0.966196D+01  0.140269D+03 -0.235725D+02 -0.287025D+02
     22 -0.224783D-02  0.102028D+02 -0.407624D+01 -0.348761D+01 -0.178795D+01
     23 -0.149176D-02 -0.138241D+00  0.239392D-01 -0.989669D-03 -0.129678D-01
     24  0.892121D-02  0.474699D-03  0.588674D-02  0.181150D-01  0.172495D-01
     25  0.947352D-02  0.571731D-01 -0.988334D-02 -0.101056D-01  0.101905D-01
     26 -0.505284D-03  0.320652D+00  0.219249D-01  0.475902D-01  0.493663D-02
     27  0.100779D-01  0.267233D-01 -0.135423D-02 -0.264179D-02  0.890781D-03
     28  0.688744D-03  0.166123D+00 -0.312084D-02 -0.540709D-03  0.411755D-02
     29  0.453975D-01  0.231368D+01 -0.684416D-01 -0.318900D-01  0.225311D+00
     30  0.590434D-01  0.381652D-01  0.115747D+00  0.740807D-02  0.152478D-01
     31  0.372224D-01  0.700792D+00  0.482588D+00 -0.716443D-02  0.133840D+00
               21            22            23            24            25 
     21  0.385007D+12
     22 -0.187888D+01  0.708114D+10
     23 -0.292807D-02 -0.131187D+00  0.243533D+11
     24  0.552849D-03  0.203698D-02  0.136326D+03  0.385007D+12
     25 -0.214184D-02 -0.682320D-01  0.335804D+02 -0.581195D+01  0.243533D+11
     26  0.309613D-02 -0.290811D-01 -0.514744D+01  0.129932D+02  0.129728D+03
     27  0.258622D-02 -0.221120D-02 -0.448240D+01  0.359051D+01  0.141349D+03
     28  0.483254D-02 -0.220002D-01 -0.518871D+01  0.515760D+01  0.133333D+03
     29 -0.291682D-01 -0.159207D+00  0.341329D+02 -0.593457D+01 -0.717236D+00
     30 -0.387510D-01  0.719874D-02 -0.496118D+01  0.512089D+01  0.435819D+00
     31 -0.554378D-01 -0.553605D-01 -0.473942D+01  0.117539D+02  0.440868D+01
               26            27            28            29            30 
     26  0.385007D+12
     27 -0.238162D+02  0.385007D+12
     28 -0.262155D+02 -0.271137D+02  0.385007D+12
     29  0.175696D+01  0.206512D+01  0.946560D+01  0.243533D+11
     30 -0.235659D+00 -0.192898D+00 -0.439278D+00  0.136008D+03  0.385007D+12
     31 -0.421747D+00 -0.174807D+00 -0.422529D-01  0.132034D+03 -0.301642D+02
               31 
     31  0.385007D+12
 End of Minotr F.D. properties file   721 does not exist.
 End of Minotr F.D. properties file   722 does not exist.
 End of Minotr F.D. properties file   788 does not exist.
 Leave Link 1002 at Wed Jun 18 06:25:24 2014, MaxMem=  4294967296 cpu:    381676.8
 (Enter /home/ztw1e12/g09/l601.exe)
 Copying SCF densities to generalized density rwf, IOpCl= 0 IROHF=0.

 **********************************************************************

            Population analysis using the SCF density.

 **********************************************************************

 Orbital symmetries:
       Occupied  (A) (A) (A) (A) (A) (A) (A) (A) (A) (A) (A) (A)
                 (A) (A) (A) (A) (A) (A) (A) (A) (A) (A) (A) (A)
                 (A) (A) (A) (A) (A) (A) (A) (A) (A) (A) (A) (A)
                 (A) (A) (A) (A) (A) (A) (A) (A) (A) (A) (A) (A)
                 (A) (A) (A)
       Virtual   (A) (A) (A) (A) (A) (A) (A) (A) (A) (A) (A) (A)
                 (A) (A) (A) (A) (A) (A) (A) (A) (A) (A) (A) (A)
                 (A) (A) (A) (A) (A) (A) (A) (A) (A) (A) (A) (A)
                 (A) (A) (A) (A) (A) (A) (A) (A) (A) (A) (A) (A)
                 (A) (A) (A) (A) (A) (A) (A) (A) (A) (A) (A) (A)
                 (A) (A) (A) (A) (A) (A) (A) (A) (A) (A) (A) (A)
                 (A) (A) (A) (A) (A) (A) (A) (A) (A) (A) (A) (A)
                 (A) (A) (A) (A) (A) (A) (A) (A) (A) (A) (A) (A)
                 (A) (A) (A) (A) (A) (A) (A) (A) (A) (A) (A) (A)
                 (A) (A) (A) (A) (A) (A) (A) (A) (A) (A) (A) (A)
                 (A) (A) (A) (A) (A) (A) (A) (A) (A) (A) (A) (A)
                 (A) (A) (A) (A) (A) (A) (A) (A) (A) (A) (A) (A)
                 (A) (A) (A) (A) (A) (A) (A) (A) (A) (A) (A) (A)
                 (A) (A) (A) (A) (A) (A) (A) (A) (A) (A) (A) (A)
                 (A) (A) (A) (A) (A) (A) (A) (A) (A) (A) (A) (A)
                 (A) (A) (A) (A) (A) (A) (A) (A) (A) (A) (A) (A)
                 (A) (A) (A) (A) (A) (A) (A) (A) (A) (A) (A) (A)
                 (A) (A) (A) (A) (A) (A) (A) (A) (A) (A) (A) (A)
                 (A) (A) (A) (A) (A) (A) (A) (A) (A) (A) (A) (A)
                 (A) (A) (A) (A) (A) (A) (A) (A) (A) (A) (A) (A)
                 (A) (A) (A) (A) (A) (A) (A) (A) (A) (A) (A) (A)
                 (A) (A) (A) (A) (A) (A) (A) (A) (A) (A) (A) (A)
                 (A) (A) (A) (A) (A) (A) (A) (A) (A) (A) (A) (A)
                 (A) (A) (A) (A) (A) (A) (A) (A) (A) (A) (A) (A)
                 (A) (A) (A) (A) (A) (A) (A) (A) (A) (A) (A) (A)
                 (A) (A) (A) (A) (A) (A) (A) (A) (A) (A) (A) (A)
                 (A) (A) (A) (A) (A) (A) (A) (A) (A) (A) (A) (A)
                 (A) (A) (A) (A) (A) (A) (A) (A) (A) (A) (A) (A)
                 (A) (A) (A) (A) (A) (A) (A) (A) (A) (A) (A) (A)
                 (A) (A) (A) (A) (A) (A) (A) (A) (A) (A) (A) (A)
                 (A) (A) (A) (A) (A) (A) (A) (A) (A) (A) (A) (A)
                 (A) (A) (A) (A) (A) (A) (A) (A) (A) (A) (A) (A)
                 (A) (A) (A) (A) (A) (A) (A) (A) (A) (A) (A) (A)
                 (A) (A) (A) (A) (A) (A) (A) (A) (A) (A) (A) (A)
                 (A) (A) (A) (A) (A) (A) (A) (A) (A) (A) (A) (A)
                 (A) (A) (A) (A) (A) (A) (A) (A) (A) (A) (A) (A)
                 (A) (A) (A) (A) (A) (A) (A) (A) (A) (A) (A) (A)
                 (A) (A) (A) (A) (A) (A) (A) (A) (A) (A) (A) (A)
                 (A) (A) (A) (A) (A) (A) (A) (A) (A) (A) (A) (A)
                 (A) (A) (A) (A) (A) (A) (A) (A) (A) (A) (A) (A)
                 (A) (A) (A) (A) (A) (A) (A) (A) (A) (A) (A) (A)
                 (A) (A) (A) (A) (A) (A) (A) (A) (A) (A) (A) (A)
                 (A) (A) (A) (A) (A) (A) (A) (A) (A) (A) (A) (A)
                 (A) (A) (A) (A) (A) (A) (A) (A) (A) (A) (A) (A)
                 (A) (A) (A) (A) (A) (A) (A) (A) (A) (A) (A) (A)
                 (A) (A) (A) (A) (A) (A) (A) (A) (A) (A) (A) (A)
                 (A) (A) (A) (A) (A) (A) (A) (A) (A) (A) (A) (A)
                 (A) (A) (A) (A) (A) (A) (A) (A) (A) (A) (A) (A)
                 (A) (A) (A) (A) (A) (A) (A) (A) (A) (A) (A) (A)
                 (A) (A) (A) (A) (A) (A) (A) (A) (A) (A) (A) (A)
                 (A) (A) (A) (A) (A) (A) (A) (A) (A) (A) (A) (A)
                 (A) (A) (A) (A) (A) (A) (A) (A) (A) (A) (A) (A)
                 (A) (A) (A) (A) (A) (A) (A) (A) (A) (A) (A) (A)
                 (A) (A) (A) (A) (A) (A) (A) (A) (A) (A) (A) (A)
                 (A) (A) (A) (A) (A) (A) (A) (A) (A) (A) (A) (A)
                 (A) (A) (A) (A) (A) (A) (A) (A) (A) (A) (A) (A)
                 (A) (A) (A) (A) (A) (A) (A) (A) (A) (A) (A) (A)
                 (A) (A) (A) (A) (A) (A) (A) (A) (A) (A) (A) (A)
                 (A) (A) (A) (A) (A) (A) (A) (A) (A) (A) (A) (A)
                 (A) (A) (A) (A) (A) (A) (A) (A) (A) (A) (A) (A)
                 (A) (A) (A) (A) (A) (A) (A) (A) (A) (A) (A) (A)
                 (A) (A) (A) (A) (A) (A) (A) (A) (A) (A) (A) (A)
                 (A) (A) (A) (A) (A) (A) (A) (A) (A) (A) (A) (A)
                 (A) (A) (A) (A) (A) (A) (A) (A) (A) (A) (A) (A)
                 (A) (A) (A) (A) (A) (A) (A) (A) (A) (A) (A) (A)
                 (A) (A) (A) (A) (A) (A) (A) (A) (A) (A) (A) (A)
                 (A) (A) (A) (A) (A) (A) (A) (A) (A) (A) (A) (A)
                 (A) (A) (A) (A) (A) (A) (A) (A) (A) (A) (A) (A)
                 (A) (A) (A) (A) (A) (A) (A) (A) (A) (A) (A) (A)
                 (A) (A) (A) (A) (A) (A) (A) (A) (A) (A) (A) (A)
                 (A) (A) (A) (A) (A) (A) (A) (A) (A) (A) (A) (A)
                 (A) (A) (A) (A) (A) (A) (A) (A) (A) (A) (A) (A)
                 (A) (A) (A) (A) (A) (A) (A) (A) (A) (A) (A) (A)
                 (A) (A) (A) (A) (A)
 The electronic state is 1-A.
 Alpha  occ. eigenvalues --  -19.17191 -19.15969 -14.42057 -14.41155 -10.33553
 Alpha  occ. eigenvalues --  -10.33015 -10.29157 -10.27369 -10.26006 -10.25921
 Alpha  occ. eigenvalues --  -10.23990 -10.23721 -10.23499  -1.05363  -1.03747
 Alpha  occ. eigenvalues --   -0.94475  -0.94068  -0.84061  -0.78715  -0.74209
 Alpha  occ. eigenvalues --   -0.72195  -0.70697  -0.66740  -0.60843  -0.59935
 Alpha  occ. eigenvalues --   -0.58594  -0.54931  -0.50446  -0.49238  -0.48843
 Alpha  occ. eigenvalues --   -0.47587  -0.46617  -0.45299  -0.45257  -0.44212
 Alpha  occ. eigenvalues --   -0.43033  -0.41807  -0.41134  -0.40597  -0.39959
 Alpha  occ. eigenvalues --   -0.39652  -0.39062  -0.38456  -0.36526  -0.35380
 Alpha  occ. eigenvalues --   -0.34748  -0.33776  -0.28162  -0.27579  -0.26179
 Alpha  occ. eigenvalues --   -0.25513
 Alpha virt. eigenvalues --    0.00472   0.02009   0.02687   0.03846   0.04493
 Alpha virt. eigenvalues --    0.04831   0.06563   0.07044   0.07574   0.08181
 Alpha virt. eigenvalues --    0.09509   0.09538   0.10353   0.11342   0.11993
 Alpha virt. eigenvalues --    0.12247   0.12597   0.13523   0.14993   0.15524
 Alpha virt. eigenvalues --    0.16181   0.16725   0.18021   0.18543   0.19657
 Alpha virt. eigenvalues --    0.20844   0.22318   0.23389   0.24681   0.24832
 Alpha virt. eigenvalues --    0.25425   0.25521   0.25793   0.26749   0.27746
 Alpha virt. eigenvalues --    0.28291   0.28441   0.29356   0.30257   0.32304
 Alpha virt. eigenvalues --    0.33003   0.33411   0.34375   0.34619   0.35832
 Alpha virt. eigenvalues --    0.36699   0.37068   0.38158   0.38983   0.39619
 Alpha virt. eigenvalues --    0.39954   0.40010   0.40324   0.40866   0.41099
 Alpha virt. eigenvalues --    0.41423   0.41861   0.42259   0.42897   0.43414
 Alpha virt. eigenvalues --    0.43631   0.44013   0.44419   0.44745   0.45192
 Alpha virt. eigenvalues --    0.46185   0.46747   0.47187   0.47604   0.48526
 Alpha virt. eigenvalues --    0.48703   0.50422   0.51059   0.51665   0.52018
 Alpha virt. eigenvalues --    0.53139   0.53938   0.55112   0.55551   0.56729
 Alpha virt. eigenvalues --    0.58013   0.58834   0.59202   0.60423   0.61204
 Alpha virt. eigenvalues --    0.62712   0.63410   0.64825   0.66196   0.67358
 Alpha virt. eigenvalues --    0.67792   0.69810   0.71609   0.73582   0.74187
 Alpha virt. eigenvalues --    0.74676   0.75648   0.75859   0.76893   0.78683
 Alpha virt. eigenvalues --    0.78896   0.80030   0.80546   0.82157   0.82591
 Alpha virt. eigenvalues --    0.83056   0.84910   0.85651   0.86738   0.87380
 Alpha virt. eigenvalues --    0.88060   0.89047   0.89626   0.90628   0.91161
 Alpha virt. eigenvalues --    0.92441   0.93353   0.93838   0.95237   0.95538
 Alpha virt. eigenvalues --    0.96158   0.96671   0.97243   0.97899   0.98250
 Alpha virt. eigenvalues --    0.98822   0.99200   1.00061   1.00793   1.02231
 Alpha virt. eigenvalues --    1.02752   1.03283   1.04156   1.04912   1.06315
 Alpha virt. eigenvalues --    1.06555   1.07314   1.08633   1.09116   1.09742
 Alpha virt. eigenvalues --    1.11013   1.11959   1.12391   1.13861   1.14073
 Alpha virt. eigenvalues --    1.14289   1.16426   1.17005   1.17451   1.17674
 Alpha virt. eigenvalues --    1.18393   1.19210   1.19683   1.20587   1.20742
 Alpha virt. eigenvalues --    1.20946   1.21513   1.22370   1.22720   1.23145
 Alpha virt. eigenvalues --    1.23908   1.24454   1.25512   1.26142   1.26489
 Alpha virt. eigenvalues --    1.27246   1.27422   1.27884   1.28858   1.29283
 Alpha virt. eigenvalues --    1.30679   1.31245   1.31474   1.32549   1.33108
 Alpha virt. eigenvalues --    1.33876   1.33909   1.35109   1.36759   1.37575
 Alpha virt. eigenvalues --    1.39334   1.39897   1.40799   1.42075   1.42400
 Alpha virt. eigenvalues --    1.42714   1.43933   1.46011   1.47232   1.48115
 Alpha virt. eigenvalues --    1.51435   1.51949   1.53036   1.54237   1.56675
 Alpha virt. eigenvalues --    1.57580   1.59618   1.61503   1.63048   1.63622
 Alpha virt. eigenvalues --    1.65174   1.67135   1.68795   1.70568   1.72993
 Alpha virt. eigenvalues --    1.74431   1.76263   1.76992   1.80133   1.84093
 Alpha virt. eigenvalues --    1.85083   1.85779   1.89267   1.89708   1.90573
 Alpha virt. eigenvalues --    1.94912   1.95724   1.96526   1.97203   2.01355
 Alpha virt. eigenvalues --    2.02725   2.03501   2.04724   2.05475   2.07532
 Alpha virt. eigenvalues --    2.07828   2.10321   2.13766   2.14846   2.15971
 Alpha virt. eigenvalues --    2.16237   2.18441   2.19144   2.19760   2.22607
 Alpha virt. eigenvalues --    2.23744   2.24360   2.25894   2.27446   2.29008
 Alpha virt. eigenvalues --    2.30453   2.33177   2.34897   2.37303   2.38333
 Alpha virt. eigenvalues --    2.39140   2.40260   2.41556   2.42041   2.43630
 Alpha virt. eigenvalues --    2.44252   2.45311   2.46862   2.47793   2.49360
 Alpha virt. eigenvalues --    2.50973   2.52442   2.53290   2.53996   2.55287
 Alpha virt. eigenvalues --    2.55455   2.58212   2.58913   2.61141   2.63091
 Alpha virt. eigenvalues --    2.64931   2.66693   2.67771   2.68368   2.69743
 Alpha virt. eigenvalues --    2.70586   2.71071   2.71190   2.72137   2.73264
 Alpha virt. eigenvalues --    2.73837   2.75868   2.76476   2.77213   2.78374
 Alpha virt. eigenvalues --    2.78466   2.78993   2.81400   2.82586   2.82629
 Alpha virt. eigenvalues --    2.83460   2.83890   2.85448   2.86342   2.87039
 Alpha virt. eigenvalues --    2.88035   2.88227   2.89002   2.90440   2.90884
 Alpha virt. eigenvalues --    2.92076   2.92809   2.93041   2.93709   2.94808
 Alpha virt. eigenvalues --    2.96600   2.97139   2.97737   2.97839   2.98458
 Alpha virt. eigenvalues --    2.99323   3.00100   3.01547   3.02433   3.02686
 Alpha virt. eigenvalues --    3.03571   3.04718   3.05261   3.05915   3.07070
 Alpha virt. eigenvalues --    3.08096   3.08423   3.08986   3.09717   3.10978
 Alpha virt. eigenvalues --    3.11339   3.12707   3.12793   3.14138   3.14551
 Alpha virt. eigenvalues --    3.14954   3.17363   3.17869   3.18208   3.19958
 Alpha virt. eigenvalues --    3.20458   3.20935   3.21816   3.22228   3.23934
 Alpha virt. eigenvalues --    3.24371   3.25599   3.26713   3.27730   3.27810
 Alpha virt. eigenvalues --    3.28765   3.29084   3.30416   3.30951   3.31378
 Alpha virt. eigenvalues --    3.32434   3.32774   3.33440   3.35032   3.35341
 Alpha virt. eigenvalues --    3.36361   3.37087   3.37872   3.38143   3.40236
 Alpha virt. eigenvalues --    3.41067   3.42352   3.42625   3.43664   3.44381
 Alpha virt. eigenvalues --    3.44562   3.44901   3.45427   3.46119   3.46899
 Alpha virt. eigenvalues --    3.48743   3.49746   3.51593   3.52408   3.53226
 Alpha virt. eigenvalues --    3.54469   3.55782   3.57694   3.58459   3.59053
 Alpha virt. eigenvalues --    3.62071   3.62177   3.63546   3.65339   3.65959
 Alpha virt. eigenvalues --    3.66084   3.67451   3.69801   3.70902   3.71533
 Alpha virt. eigenvalues --    3.72436   3.72690   3.72939   3.73914   3.75261
 Alpha virt. eigenvalues --    3.76183   3.76978   3.78395   3.78915   3.79696
 Alpha virt. eigenvalues --    3.81031   3.82532   3.83654   3.84408   3.85496
 Alpha virt. eigenvalues --    3.86478   3.86528   3.87960   3.89258   3.89625
 Alpha virt. eigenvalues --    3.90776   3.92586   3.93374   3.93619   3.94966
 Alpha virt. eigenvalues --    3.96074   3.96777   3.97474   3.98589   3.99750
 Alpha virt. eigenvalues --    4.00679   4.01831   4.03609   4.04984   4.05340
 Alpha virt. eigenvalues --    4.06364   4.06721   4.07497   4.08121   4.09652
 Alpha virt. eigenvalues --    4.11147   4.12701   4.12873   4.13993   4.15422
 Alpha virt. eigenvalues --    4.16585   4.17639   4.18264   4.18767   4.19936
 Alpha virt. eigenvalues --    4.21231   4.21401   4.22533   4.23655   4.24296
 Alpha virt. eigenvalues --    4.25560   4.26225   4.27931   4.29036   4.29983
 Alpha virt. eigenvalues --    4.30401   4.31438   4.33379   4.34363   4.35678
 Alpha virt. eigenvalues --    4.37081   4.38509   4.39740   4.41221   4.43044
 Alpha virt. eigenvalues --    4.43358   4.44523   4.46341   4.47989   4.50468
 Alpha virt. eigenvalues --    4.51170   4.52988   4.54953   4.55729   4.56666
 Alpha virt. eigenvalues --    4.58006   4.58540   4.59000   4.60388   4.61890
 Alpha virt. eigenvalues --    4.62409   4.62978   4.63383   4.65206   4.65865
 Alpha virt. eigenvalues --    4.66546   4.68134   4.69465   4.70542   4.71652
 Alpha virt. eigenvalues --    4.72093   4.74762   4.75809   4.76878   4.78179
 Alpha virt. eigenvalues --    4.78994   4.79482   4.80006   4.80911   4.83626
 Alpha virt. eigenvalues --    4.84514   4.88626   4.89124   4.90344   4.91864
 Alpha virt. eigenvalues --    4.92455   4.93007   4.94321   4.95276   4.96952
 Alpha virt. eigenvalues --    4.98380   4.99111   4.99411   5.00772   5.02586
 Alpha virt. eigenvalues --    5.03420   5.04370   5.07257   5.09543   5.10219
 Alpha virt. eigenvalues --    5.11106   5.11457   5.13508   5.13819   5.15261
 Alpha virt. eigenvalues --    5.16037   5.16993   5.18526   5.19612   5.20682
 Alpha virt. eigenvalues --    5.21064   5.22603   5.23254   5.23880   5.25630
 Alpha virt. eigenvalues --    5.26305   5.26856   5.29189   5.29697   5.31067
 Alpha virt. eigenvalues --    5.32620   5.33813   5.36564   5.37648   5.39057
 Alpha virt. eigenvalues --    5.41685   5.42973   5.45278   5.46963   5.50323
 Alpha virt. eigenvalues --    5.53501   5.54204   5.57003   5.58457   5.59455
 Alpha virt. eigenvalues --    5.60588   5.62185   5.63519   5.65254   5.66239
 Alpha virt. eigenvalues --    5.66712   5.69005   5.69974   5.72537   5.72771
 Alpha virt. eigenvalues --    5.73570   5.75463   5.75885   5.78591   5.78889
 Alpha virt. eigenvalues --    5.80128   5.81332   5.82886   5.83331   5.88933
 Alpha virt. eigenvalues --    5.91301   5.94625   5.96538   6.02970   6.04370
 Alpha virt. eigenvalues --    6.12318   6.19325   6.20012   6.23404   6.29073
 Alpha virt. eigenvalues --    6.50531   6.52306   6.58325   6.61166   6.64820
 Alpha virt. eigenvalues --    6.66462   6.78254   6.83941   6.90459   6.92314
 Alpha virt. eigenvalues --    6.93956   6.94871   7.18577   7.19783   7.23631
 Alpha virt. eigenvalues --    7.29039   8.13981   8.26250   8.65985   8.73524
 Alpha virt. eigenvalues --    8.77806   8.78926   8.80857   8.82525   8.83912
 Alpha virt. eigenvalues --    8.84236   8.85684   8.88483   8.89225   8.90694
 Alpha virt. eigenvalues --    8.93384   8.94192   8.95586   8.96775   9.02929
 Alpha virt. eigenvalues --    9.04054   9.07287   9.13540   9.17811   9.19408
 Alpha virt. eigenvalues --    9.22218   9.60698   9.62522   9.77319   9.83461
 Alpha virt. eigenvalues --    9.90688   9.94692  10.08226  10.11487  10.15333
 Alpha virt. eigenvalues --   10.18085  10.19952  10.21181  10.22551  10.23967
 Alpha virt. eigenvalues --   10.27133  10.28850  10.31666  10.33504  10.36610
 Alpha virt. eigenvalues --   10.38463  11.75853  11.83931  12.04143  12.14579
 Alpha virt. eigenvalues --   12.15453  12.18211  12.24748  12.26155  12.28434
 Alpha virt. eigenvalues --   12.40653  12.49163  12.57742  12.60131  12.84419
 Alpha virt. eigenvalues --   12.94129  14.97120  15.00819  15.24493  15.27772
 Alpha virt. eigenvalues --   16.00129  16.04807  16.83772  16.92591  22.01456
 Alpha virt. eigenvalues --   22.08091  40.17687  40.25217  40.65416  40.67557
 Alpha virt. eigenvalues --   40.69210  40.71073  40.73002  40.74921  40.76924
 Alpha virt. eigenvalues --   40.77611  40.79306  40.80218  40.80970  40.82082
 Alpha virt. eigenvalues --   40.82342  40.83518  40.84646  40.85536  40.86351
 Alpha virt. eigenvalues --   40.87279  40.87966  40.89033  40.89980  40.90709
 Alpha virt. eigenvalues --   40.91591  40.93532  40.95693  46.34253  46.45268
 Alpha virt. eigenvalues --   46.47772  46.50501  46.56783  46.57803  46.61274
 Alpha virt. eigenvalues --   46.73884  46.81939  54.48253  54.53659  55.79245
 Alpha virt. eigenvalues --   55.84704  55.92444  55.98392  56.05671  56.12101
 Alpha virt. eigenvalues --   56.19557  56.22854  56.23740  56.28582  56.35785
 Alpha virt. eigenvalues --   56.43013  56.45312  56.52190  56.57313  56.66184
 Alpha virt. eigenvalues --   57.46692  57.51675  57.99847  58.03093  58.19756
 Alpha virt. eigenvalues --   58.26400  64.70821  64.79037  73.94396  73.96195
 Alpha virt. eigenvalues --   74.10028  74.11969  74.64387  74.66643  86.07276
 Alpha virt. eigenvalues --   86.13111 165.43554 165.52999 165.56853 165.59223
 Alpha virt. eigenvalues --  165.64534 165.65457 165.68035 165.79022 165.86684
 Alpha virt. eigenvalues --  226.66141 226.82318 230.58042 230.65507 235.65979
 Alpha virt. eigenvalues --  235.85305 236.00058 236.21622 236.35634 236.44488
 Alpha virt. eigenvalues --  236.84096 237.27653 237.48766 237.60205 237.65161
 Alpha virt. eigenvalues --  237.83067 238.19282 238.26059 238.33966 238.80302
 Alpha virt. eigenvalues --  308.80870 308.86046 624.55122 624.61232 624.63578
 Alpha virt. eigenvalues --  624.65175 624.70618 624.71415 624.73428 624.82945
 Alpha virt. eigenvalues --  624.88842 794.51039 794.73823 826.28729 826.68516
 Alpha virt. eigenvalues --  827.23325 827.26778 827.48895 827.59789 828.79065
 Alpha virt. eigenvalues --  830.76184 831.34319 831.52155 831.70073 831.98030
 Alpha virt. eigenvalues --  833.23369 833.69034 833.98717 834.97297 868.33793
 Alpha virt. eigenvalues --  868.413291165.936581165.986402485.949132487.14643
 Alpha virt. eigenvalues -- 2589.320082589.916072592.302812592.770952596.47322
 Alpha virt. eigenvalues -- 2597.367912598.448142603.154162605.381842606.23879
 Alpha virt. eigenvalues -- 2606.470622606.605692609.276042609.873122611.76378
 Alpha virt. eigenvalues -- 2616.080422740.327832740.341212740.376102740.39922
 Alpha virt. eigenvalues -- 2740.440042740.473022740.524052740.567682740.58795
 Alpha virt. eigenvalues -- 3787.312793787.389005073.318545073.365198293.12918
 Alpha virt. eigenvalues -- 8293.143688626.426808630.653308635.701518637.42454
 Alpha virt. eigenvalues -- 8638.216158638.820418644.662978664.663468670.31386
 Alpha virt. eigenvalues -- 8670.826528672.954118673.015668685.683018687.71061
 Alpha virt. eigenvalues -- 8690.587638699.29373******************************
 Alpha virt. eigenvalues -- **************************************************
 Alpha virt. eigenvalues -- **************************************************
 Alpha virt. eigenvalues -- **************************************************
 Alpha virt. eigenvalues -- **************************************************
 Alpha virt. eigenvalues -- **************************************************
 Alpha virt. eigenvalues -- **************************************************
 Alpha virt. eigenvalues -- **************************************************
 Alpha virt. eigenvalues -- **********
          Condensed to atoms (all electrons):
               1          2          3          4          5          6
     1  C    4.546238   0.196716  -0.049155  -0.000274   0.000008  -0.000060
     2  C    0.196716   5.389859   0.370502   0.006051  -0.000387   0.000525
     3  H   -0.049155   0.370502   0.494361  -0.000180   0.000020   0.000006
     4  C   -0.000274   0.006051  -0.000180   4.980428   0.406636   0.404886
     5  H    0.000008  -0.000387   0.000020   0.406636   0.537393  -0.012344
     6  H   -0.000060   0.000525   0.000006   0.404886  -0.012344   0.548133
     7  H    0.000333  -0.002274  -0.000167   0.399513  -0.019134  -0.023229
     8  O    0.747140  -0.123021   0.003041  -0.000068   0.000000   0.000000
     9  N   -0.044758   0.257098  -0.041210  -0.001655   0.000001   0.000015
    10  H   -0.000108  -0.037265   0.004288  -0.000624   0.000065  -0.000061
    11  N    0.344318  -0.134443   0.008719   0.000741   0.000010  -0.000005
    12  H   -0.027887   0.006964  -0.000679  -0.000003  -0.000002  -0.000001
    13  C   -0.040920   0.010626  -0.000891  -0.000011   0.000000   0.000000
    14  H   -0.004660   0.001568   0.000006  -0.000029  -0.000001   0.000000
    15  H   -0.003966  -0.000512  -0.000106   0.000004   0.000000   0.000000
    16  H    0.008014   0.000677  -0.000062  -0.000001   0.000000   0.000000
    17  C    0.001256  -0.059842   0.002448  -0.000074  -0.000003   0.000004
    18  C   -0.003892   0.019505   0.003402   0.000008   0.000000   0.000001
    19  H    0.000336  -0.000810  -0.000541  -0.000021   0.000000  -0.000001
    20  H   -0.000034  -0.000618   0.000120   0.000003   0.000000   0.000000
    21  H    0.000521  -0.000840  -0.000199  -0.000001   0.000000   0.000000
    22  O   -0.012422   0.014738   0.030563   0.000000   0.000000   0.000000
[...]
 Alpha virt. eigenvalues --    4.38433   4.39053   4.41794   4.43010   4.44618
 Alpha virt. eigenvalues --    4.46029   4.47456   4.49005   4.51106   4.52581
 Alpha virt. eigenvalues --    4.53905   4.55126   4.56278   4.57413   4.60429
 Alpha virt. eigenvalues --    4.61874   4.64213   4.65841   4.66775   4.67127
 Alpha virt. eigenvalues --    4.68312   4.69965   4.70249   4.72121   4.73216
 Alpha virt. eigenvalues --    4.74001   4.75317   4.76326   4.77921   4.78471
 Alpha virt. eigenvalues --    4.80697   4.80874   4.82172   4.82595   4.83989
 Alpha virt. eigenvalues --    4.84409   4.86881   4.87320   4.89463   4.90576
 Alpha virt. eigenvalues --    4.91472   4.94323   4.95503   4.95690   4.96730
 Alpha virt. eigenvalues --    4.97893   4.98416   4.99376   5.00361   5.01935
 Alpha virt. eigenvalues --    5.02141   5.03621   5.04365   5.05044   5.05866
 Alpha virt. eigenvalues --    5.08490   5.09923   5.11046   5.11172   5.12503
 Alpha virt. eigenvalues --    5.13777   5.15824   5.16128   5.16580   5.18320
 Alpha virt. eigenvalues --    5.19541   5.19872   5.20322   5.21336   5.22732
 Alpha virt. eigenvalues --    5.23982   5.24930   5.26299   5.27650   5.28762
 Alpha virt. eigenvalues --    5.29106   5.29965   5.31284   5.32255   5.34355
 Alpha virt. eigenvalues --    5.35829   5.37221   5.37367   5.38384   5.42102
 Alpha virt. eigenvalues --    5.43047   5.46963   5.48128   5.52231   5.54962
 Alpha virt. eigenvalues --    5.59001   5.59625   5.61204   5.64097   5.68807
 Alpha virt. eigenvalues --    5.72813   5.75891   5.77356   5.78803   5.79608
 Alpha virt. eigenvalues --    5.79895   5.82177   5.83921   5.84323   5.86866
 Alpha virt. eigenvalues --    5.87806   5.88480   5.92671   5.95585   5.97828
 Alpha virt. eigenvalues --    5.99778   6.02387   6.04830   6.06172   6.10174
 Alpha virt. eigenvalues --    6.22842   6.25894   6.35871   6.38936   6.49629
 Alpha virt. eigenvalues --    6.50800   6.54206   6.56456   6.68041   6.70078
 Alpha virt. eigenvalues --    6.87653   6.90314   6.92587   6.95998   7.10026
 Alpha virt. eigenvalues --    7.13417   7.16096   7.18300   9.58222  10.04057
 Alpha virt. eigenvalues --   11.51620  12.15005  12.45454  12.48427  12.93588
 Alpha virt. eigenvalues --   13.36125  13.55054  13.62740  13.72015  13.77343
 Alpha virt. eigenvalues --   13.98550
          Condensed to atoms (all electrons):
               1          2          3          4          5          6
     1  C    4.691229   0.166200  -0.055527  -0.000015   0.000019  -0.000063
     2  C    0.166200   5.517408   0.415299   0.005823  -0.000391   0.000862
     3  H   -0.055527   0.415299   0.461872  -0.000176   0.000016  -0.000002
     4  C   -0.000015   0.005823  -0.000176   5.125025   0.408368   0.404209
     5  H    0.000019  -0.000391   0.000016   0.408368   0.530071  -0.017825
     6  H   -0.000063   0.000862  -0.000002   0.404209  -0.017825   0.541016
     7  H    0.000254  -0.002006  -0.000134   0.399276  -0.026118  -0.029832
     8  O    0.741259  -0.112909   0.000793  -0.000063   0.000000   0.000001
     9  N   -0.046699   0.200462  -0.042802  -0.001694  -0.000001   0.000018
    10  H    0.000363  -0.033627   0.002382  -0.000363   0.000057  -0.000085
    11  N    0.351822  -0.102964   0.004126   0.000635   0.000010  -0.000004
    12  H   -0.022242  -0.000234  -0.001055  -0.000027  -0.000001   0.000002
    13  C   -0.059199   0.011071  -0.000699  -0.000011   0.000000   0.000000
    14  H   -0.003925   0.001419   0.000008  -0.000027   0.000000   0.000000
    15  H   -0.004865  -0.000626  -0.000100   0.000003   0.000000   0.000000
    16  H    0.008169   0.000702  -0.000042  -0.000001   0.000000   0.000000
    17  C    0.002530  -0.074345  -0.000983  -0.000061  -0.000003   0.000004
    18  C   -0.002885   0.015879   0.003033   0.000003   0.000000   0.000001
    19  H    0.000146   0.000063  -0.000499  -0.000020   0.000000  -0.000001
    20  H   -0.000057  -0.000572   0.000120   0.000002   0.000000   0.000000
    21  H    0.000497  -0.000821  -0.000181   0.000000   0.000000   0.000000
    22  O   -0.009248   0.013986   0.028964   0.000000   0.000000   0.000000
    23  C   -0.006683  -0.011400   0.002494   0.263337  -0.036576  -0.035094
    24  H    0.000307   0.000055  -0.000299  -0.021307  -0.005785  -0.006432
    25  C   -0.002601  -0.015376   0.000429  -0.073269  -0.006100   0.008141
    26  H   -0.003489   0.003416   0.000068  -0.005808  -0.000604  -0.000002
    27  H    0.012730  -0.002362   0.000210   0.005470   0.000005  -0.000265
    28  H    0.000014  -0.001528   0.000088  -0.008509   0.004190  -0.000081
    29  C   -0.023940   0.196094  -0.023139  -0.064382   0.010112  -0.002792
    30  H    0.006964  -0.037219  -0.008193  -0.006893   0.000788  -0.000698
    31  H    0.005840  -0.043609  -0.009490  -0.000445  -0.000524   0.000733
               7          8          9         10         11         12
     1  C    0.000254   0.741259  -0.046699   0.000363   0.351822  -0.022242
     2  C   -0.002006  -0.112909   0.200462  -0.033627  -0.102964  -0.000234
     3  H   -0.000134   0.000793  -0.042802   0.002382   0.004126  -0.001055
     4  C    0.399276  -0.000063  -0.001694  -0.000363   0.000635  -0.000027
     5  H   -0.026118   0.000000  -0.000001   0.000057   0.000010  -0.000001
     6  H   -0.029832   0.000001   0.000018  -0.000085  -0.000004   0.000002
     7  H    0.554359  -0.000007   0.000521   0.001981  -0.000022  -0.000006
     8  O   -0.000007   7.827367   0.005824   0.000133  -0.125078   0.004912
     9  N    0.000521   0.005824   6.583036   0.386300   0.006048   0.000470
    10  H    0.001981   0.000133   0.386300   0.488823  -0.000078  -0.000044
    11  N   -0.000022  -0.125078   0.006048  -0.000078   6.472070   0.379896
    12  H   -0.000006   0.004912   0.000470  -0.000044   0.379896   0.520191
    13  C    0.000001   0.006251  -0.000345   0.000019   0.293822  -0.032239
    14  H    0.000000   0.004763   0.000021  -0.000001  -0.051957   0.004335
    15  H    0.000000   0.004722  -0.000072   0.000002  -0.044986   0.001639
    16  H    0.000000   0.001522   0.000005  -0.000001  -0.027914  -0.008223
    17  C    0.000028   0.015275   0.347732  -0.019646   0.000644  -0.000138
    18  C   -0.000001  -0.000342  -0.061867  -0.002825   0.000004   0.000002
    19  H    0.000001   0.000006   0.012523  -0.001588   0.000002   0.000000
    20  H   -0.000009   0.000038   0.000219  -0.000220   0.000002   0.000000
    21  H    0.000002   0.000350  -0.001786   0.000504  -0.000001  -0.000001
    22  O    0.000001  -0.002847  -0.138273   0.004332  -0.000428  -0.000015
    23  C   -0.042807  -0.002310  -0.001280  -0.000895   0.008703  -0.002051
    24  H    0.007943  -0.000189  -0.000505   0.000312   0.003403   0.000637
    25  C   -0.006026  -0.000615   0.000817   0.001896  -0.004169   0.000640
    26  H    0.002550  -0.000298  -0.003216   0.001856   0.000513   0.000002
    27  H   -0.000061   0.004715  -0.001028  -0.000468  -0.005598  -0.000002
    28  H   -0.000777   0.000348   0.000728   0.000300   0.000026  -0.000021
    29  C   -0.006043   0.005379  -0.052035   0.000638  -0.003966   0.008393
    30  H    0.001821  -0.000344   0.001578   0.001177  -0.000177   0.000135
    31  H    0.000625  -0.000136   0.005528   0.000350  -0.009452   0.002503
              13         14         15         16         17         18
     1  C   -0.059199  -0.003925  -0.004865   0.008169   0.002530  -0.002885
     2  C    0.011071   0.001419  -0.000626   0.000702  -0.074345   0.015879
     3  H   -0.000699   0.000008  -0.000100  -0.000042  -0.000983   0.003033
     4  C   -0.000011  -0.000027   0.000003  -0.000001  -0.000061   0.000003
     5  H    0.000000   0.000000   0.000000   0.000000  -0.000003   0.000000
     6  H    0.000000   0.000000   0.000000   0.000000   0.000004   0.000001
     7  H    0.000001   0.000000   0.000000   0.000000   0.000028  -0.000001
     8  O    0.006251   0.004763   0.004722   0.001522   0.015275  -0.000342
     9  N   -0.000345   0.000021  -0.000072   0.000005   0.347732  -0.061867
    10  H    0.000019  -0.000001   0.000002  -0.000001  -0.019646  -0.002825
    11  N    0.293822  -0.051957  -0.044986  -0.027914   0.000644   0.000004
    12  H   -0.032239   0.004335   0.001639  -0.008223  -0.000138   0.000002
    13  C    4.765754   0.396853   0.400555   0.393387  -0.000111  -0.000004
    14  H    0.396853   0.618652  -0.055791  -0.027663   0.000000   0.000000
    15  H    0.400555  -0.055791   0.606695  -0.027089   0.000002   0.000000
    16  H    0.393387  -0.027663  -0.027089   0.601485  -0.000002   0.000000
    17  C   -0.000111   0.000000   0.000002  -0.000002   4.522558   0.277821
    18  C   -0.000004   0.000000   0.000000   0.000000   0.277821   4.999811
    19  H    0.000000   0.000000   0.000000   0.000000  -0.053017   0.390404
    20  H    0.000000   0.000000   0.000000   0.000000  -0.024798   0.384156
    21  H    0.000001   0.000000   0.000000   0.000000  -0.025245   0.389358
    22  O   -0.000047   0.000004   0.000002  -0.000001   0.715094  -0.069622
    23  C    0.000229  -0.000614   0.000133   0.000000  -0.000765  -0.000098
    24  H    0.000111  -0.000231   0.000049   0.000014  -0.000016  -0.000001
    25  C   -0.000466   0.000107  -0.000009  -0.000010   0.000678  -0.000048
    26  H   -0.000011  -0.000040   0.000003   0.000001   0.000154   0.000191
    27  H    0.000072   0.001334  -0.000108  -0.000054   0.000270   0.000021
    28  H   -0.000029   0.000032  -0.000005  -0.000003   0.000014   0.000004
    29  C   -0.001534  -0.000191   0.000089  -0.000148   0.006856   0.000228
    30  H    0.000061  -0.000004   0.000009   0.000003  -0.000315  -0.000141
    31  H    0.000256   0.000109  -0.000078   0.000057  -0.000086   0.000029
              19         20         21         22         23         24
     1  C    0.000146  -0.000057   0.000497  -0.009248  -0.006683   0.000307
     2  C    0.000063  -0.000572  -0.000821   0.013986  -0.011400   0.000055
     3  H   -0.000499   0.000120  -0.000181   0.028964   0.002494  -0.000299
     4  C   -0.000020   0.000002   0.000000   0.000000   0.263337  -0.021307
     5  H    0.000000   0.000000   0.000000   0.000000  -0.036576  -0.005785
     6  H   -0.000001   0.000000   0.000000   0.000000  -0.035094  -0.006432
     7  H    0.000001  -0.000009   0.000002   0.000001  -0.042807   0.007943
     8  O    0.000006   0.000038   0.000350  -0.002847  -0.002310  -0.000189
     9  N    0.012523   0.000219  -0.001786  -0.138273  -0.001280  -0.000505
    10  H   -0.001588  -0.000220   0.000504   0.004332  -0.000895   0.000312
    11  N    0.000002   0.000002  -0.000001  -0.000428   0.008703   0.003403
    12  H    0.000000   0.000000  -0.000001  -0.000015  -0.002051   0.000637
    13  C    0.000000   0.000000   0.000001  -0.000047   0.000229   0.000111
    14  H    0.000000   0.000000   0.000000   0.000004  -0.000614  -0.000231
    15  H    0.000000   0.000000   0.000000   0.000002   0.000133   0.000049
    16  H    0.000000   0.000000   0.000000  -0.000001   0.000000   0.000014
    17  C   -0.053017  -0.024798  -0.025245   0.715094  -0.000765  -0.000016
    18  C    0.390404   0.384156   0.389358  -0.069622  -0.000098  -0.000001
    19  H    0.608774  -0.027968  -0.024647   0.004744   0.000110   0.000000
    20  H   -0.027968   0.577120  -0.025435   0.003027  -0.000001   0.000000
    21  H   -0.024647  -0.025435   0.564344   0.000466   0.000005   0.000000
    22  O    0.004744   0.003027   0.000466   7.855499  -0.000096   0.000001
    23  C    0.000110  -0.000001   0.000005  -0.000096   5.301719   0.419027
    24  H    0.000000   0.000000   0.000000   0.000001   0.419027   0.543052
    25  C    0.000054   0.000009  -0.000016  -0.000023   0.251826  -0.044943
    26  H    0.000047   0.000020  -0.000050  -0.000011  -0.037942   0.008254
    27  H   -0.000009  -0.000001   0.000004   0.000010  -0.032454  -0.005999
    28  H   -0.000005   0.000001  -0.000002   0.000000  -0.028172  -0.008727
    29  C   -0.000312   0.000011   0.000000   0.001822   0.197472  -0.045254
    30  H    0.000015  -0.000048   0.000020  -0.000212  -0.051656   0.004994
    31  H   -0.000003  -0.000006   0.000001   0.000062  -0.053920  -0.010957
              25         26         27         28         29         30
     1  C   -0.002601  -0.003489   0.012730   0.000014  -0.023940   0.006964
     2  C   -0.015376   0.003416  -0.002362  -0.001528   0.196094  -0.037219
     3  H    0.000429   0.000068   0.000210   0.000088  -0.023139  -0.008193
     4  C   -0.073269  -0.005808   0.005470  -0.008509  -0.064382  -0.006893
     5  H   -0.006100  -0.000604   0.000005   0.004190   0.010112   0.000788
     6  H    0.008141  -0.000002  -0.000265  -0.000081  -0.002792  -0.000698
     7  H   -0.006026   0.002550  -0.000061  -0.000777  -0.006043   0.001821
     8  O   -0.000615  -0.000298   0.004715   0.000348   0.005379  -0.000344
     9  N    0.000817  -0.003216  -0.001028   0.000728  -0.052035   0.001578
    10  H    0.001896   0.001856  -0.000468   0.000300   0.000638   0.001177
    11  N   -0.004169   0.000513  -0.005598   0.000026  -0.003966  -0.000177
    12  H    0.000640   0.000002  -0.000002  -0.000021   0.008393   0.000135
    13  C   -0.000466  -0.000011   0.000072  -0.000029  -0.001534   0.000061
    14  H    0.000107  -0.000040   0.001334   0.000032  -0.000191  -0.000004
    15  H   -0.000009   0.000003  -0.000108  -0.000005   0.000089   0.000009
    16  H   -0.000010   0.000001  -0.000054  -0.000003  -0.000148   0.000003
    17  C    0.000678   0.000154   0.000270   0.000014   0.006856  -0.000315
    18  C   -0.000048   0.000191   0.000021   0.000004   0.000228  -0.000141
    19  H    0.000054   0.000047  -0.000009  -0.000005  -0.000312   0.000015
    20  H    0.000009   0.000020  -0.000001   0.000001   0.000011  -0.000048
    21  H   -0.000016  -0.000050   0.000004  -0.000002   0.000000   0.000020
    22  O   -0.000023  -0.000011   0.000010   0.000000   0.001822  -0.000212
    23  C    0.251826  -0.037942  -0.032454  -0.028172   0.197472  -0.051656
    24  H   -0.044943   0.008254  -0.005999  -0.008727  -0.045254   0.004994
    25  C    5.219355   0.392755   0.403447   0.395449  -0.037298   0.001398
    26  H    0.392755   0.539757  -0.023568  -0.026715  -0.004725   0.000394
    27  H    0.403447  -0.023568   0.468829  -0.011914  -0.004427  -0.000154
    28  H    0.395449  -0.026715  -0.011914   0.527274   0.009056  -0.000497
    29  C   -0.037298  -0.004725  -0.004427   0.009056   5.482837   0.413126
    30  H    0.001398   0.000394  -0.000154  -0.000497   0.413126   0.455579
    31  H    0.007007  -0.000615   0.000537  -0.000450   0.419170  -0.000936
              31
     1  C    0.005840
     2  C   -0.043609
     3  H   -0.009490
     4  C   -0.000445
     5  H   -0.000524
     6  H    0.000733
     7  H    0.000625
     8  O   -0.000136
     9  N    0.005528
    10  H    0.000350
    11  N   -0.009452
    12  H    0.002503
    13  C    0.000256
    14  H    0.000109
    15  H   -0.000078
    16  H    0.000057
    17  C   -0.000086
    18  C    0.000029
    19  H   -0.000003
    20  H   -0.000006
    21  H    0.000001
    22  O    0.000062
    23  C   -0.053920
    24  H   -0.010957
    25  C    0.007007
    26  H   -0.000615
    27  H    0.000537
    28  H   -0.000450
    29  C    0.419170
    30  H   -0.000936
    31  H    0.494669
 Mulliken charges:
               1
     1  C    0.253095
     2  C   -0.108751
     3  H    0.223418
     4  C   -0.429081
     5  H    0.140292
     6  H    0.138189
     7  H    0.144484
     8  O   -0.378519
     9  N   -0.200231
    10  H    0.168419
    11  N   -0.144931
    12  H    0.142541
    13  C   -0.173748
    14  H    0.112807
    15  H    0.119824
    16  H    0.085807
    17  C    0.309872
    18  C   -0.323111
    19  H    0.091177
    20  H    0.114389
    21  H    0.122633
    22  O   -0.407192
    23  C   -0.100243
    24  H    0.162486
    25  C   -0.493033
    26  H    0.157116
    27  H    0.190816
    28  H    0.149912
    29  C   -0.481096
    30  H    0.219427
    31  H    0.193230
 Sum of Mulliken charges =   0.00000
 Mulliken charges with hydrogens summed into heavy atoms:
               1
     1  C    0.253095
     2  C    0.114667
     4  C   -0.006116
     8  O   -0.378519
     9  N   -0.031812
    11  N   -0.002390
    13  C    0.144690
    17  C    0.309872
    18  C    0.005089
    22  O   -0.407192
    23  C    0.062243
    25  C    0.004812
    29  C   -0.068439
 Electronic spatial extent (au):  <R**2>=           2880.8512
 Charge=              0.0000 electrons
 Dipole moment (field-independent basis, Debye):
    X=             -4.6144    Y=             -2.9722    Z=             -0.8607  Tot=              5.5559
 Quadrupole moment (field-independent basis, Debye-Ang):
   XX=            -80.2219   YY=            -77.7480   ZZ=            -81.3682
   XY=            -12.3670   XZ=              6.5547   YZ=             -3.6927
 Traceless Quadrupole moment (field-independent basis, Debye-Ang):
   XX=             -0.4425   YY=              2.0314   ZZ=             -1.5888
   XY=            -12.3670   XZ=              6.5547   YZ=             -3.6927
 Octapole moment (field-independent basis, Debye-Ang**2):
  XXX=             -9.5483  YYY=             25.0412  ZZZ=             -5.1810  XYY=            -15.0532
  XXY=             -9.1934  XXZ=             15.1888  XZZ=             -5.2653  YZZ=              0.0012
  YYZ=             -2.9328  XYZ=              5.0810
 Hexadecapole moment (field-independent basis, Debye-Ang**3):
 XXXX=          -1872.8764 YYYY=          -1489.1228 ZZZZ=           -399.1969 XXXY=            -87.2221
 XXXZ=             57.7784 YYYX=            -56.3930 YYYZ=             -9.0353 ZZZX=              4.9096
 ZZZY=             -3.5646 XXYY=           -549.1401 XXZZ=           -374.9136 YYZZ=           -328.3870
 XXYZ=              6.4895 YYXZ=              1.3213 ZZXY=            -10.4513
 N-N= 8.760632039829D+02 E-N=-3.181713771231D+03  KE= 6.091223200820D+02
 Calculating spin-rotation constants.
 Leave Link  601 at Wed Jun 18 10:19:36 2014, MaxMem=  4294967296 cpu:        71.2
 (Enter /home/ztw1e12/g09/l9999.exe)

 Test job not archived.
 1\1\GINC-GREEN0728\SP\RM06\Gen\C9H18N2O2\ROOT\18-Jun-2014\0\\#P Geom=A
 llCheck Guess=TCheck SCRF=Check GenChk RM06/ChkBas NMR=ReadFC IOp(3/6=
 22)\\NMR spin-spin scan\\0,1\C,0,0.325553,1.28856,0.233433\C,0,0.21225
 4,0.106784,-0.727584\H,0,0.741992,0.437158,-1.627168\C,0,-3.033374,-1.
 826823,-0.519617\H,0,-3.868426,-2.034718,0.15265\H,0,-3.427645,-1.7534
 66,-1.535451\H,0,-2.352695,-2.683539,-0.488348\O,0,1.050004,1.266485,1
 .224046\N,0,0.927459,-1.044449,-0.233442\H,0,0.413513,-1.766392,0.2463
 94\N,0,-0.378677,2.372103,-0.111287\H,0,-0.967838,2.340612,-0.927042\C
 ,0,-0.337677,3.582116,0.677159\H,0,-0.682723,3.39869,1.695557\H,0,0.67
 3865,3.98589,0.727331\H,0,-0.986883,4.321551,0.218159\C,0,2.261138,-1.
 174866,-0.342915\C,0,2.850315,-2.413367,0.248767\H,0,2.103582,-3.11484
 3,0.615406\H,0,3.472185,-2.902113,-0.500218\H,0,3.50097,-2.125261,1.07
 4954\O,0,2.963818,-0.332194,-0.898532\C,0,-2.293096,-0.565371,-0.11072
 2\H,0,-3.003208,0.267554,-0.121284\C,0,-1.826339,-0.723418,1.328073\H,
 0,-1.195639,-1.607193,1.459967\H,0,-1.282701,0.141122,1.710207\H,0,-2.
 694602,-0.865374,1.974652\C,0,-1.204414,-0.253869,-1.163886\H,0,-1.085
 845,-1.124344,-1.816085\H,0,-1.569241,0.536269,-1.822834\\Version=EM64
 L-G09RevD.01\State=1-A\HF=-613.5730889\RMSD=9.681e-09\Dipole=-2.136412
 5,-0.2748337,-0.3717222\Quadrupole=-6.8464266,9.144391,-2.2979644,-5.8
 884929,2.5305402,-2.958679\PG=C01 [X(C9H18N2O2)]\\@


 Discoveries are often made by not following instructions,
 by going off the main road, by trying the untried.
 -- Frank Tyger
 Job cpu time:       2 days 14 hours  8 minutes 15.4 seconds.
 File lengths (MBytes):  RWF=   2456 Int=      0 D2E=      0 Chk=     48 Scr=      8
 Normal termination of Gaussian 09 at Wed Jun 18 10:19:37 2014.
