 Entering Gaussian System, Link 0=g09
 Input=scan_input_1.gjf
 Output=scan_input_1.log
 Initial command:
 /home/ztw1e12/g09/l1.exe "/home/ztw1e12/leucine_scan/leucine_chi2_scan/Gau-10752.inp" -scrdir="/home/ztw1e12/leucine_scan/leucine_chi2_scan/"
 Default is to use a total of   8 processors:
                                8 via shared-memory
                                1 via Linda
 Entering Link 1 = /home/ztw1e12/g09/l1.exe PID=     10753.
  
 Copyright (c) 1988,1990,1992,1993,1995,1998,2003,2009,2013,
            Gaussian, Inc.  All Rights Reserved.
  
 This is part of the Gaussian(R) 09 program.  It is based on
 the Gaussian(R) 03 system (copyright 2003, Gaussian, Inc.),
 the Gaussian(R) 98 system (copyright 1998, Gaussian, Inc.),
 the Gaussian(R) 94 system (copyright 1995, Gaussian, Inc.),
 the Gaussian 92(TM) system (copyright 1992, Gaussian, Inc.),
 the Gaussian 90(TM) system (copyright 1990, Gaussian, Inc.),
 the Gaussian 88(TM) system (copyright 1988, Gaussian, Inc.),
 the Gaussian 86(TM) system (copyright 1986, Carnegie Mellon
 University), and the Gaussian 82(TM) system (copyright 1983,
 Carnegie Mellon University). Gaussian is a federally registered
 trademark of Gaussian, Inc.
  
 This software contains proprietary and confidential information,
 including trade secrets, belonging to Gaussian, Inc.
  
 This software is provided under written license and may be
 used, copied, transmitted, or stored only in accord with that
 written license.
  
 The following legend is applicable only to US Government
 contracts under FAR:
  
                    RESTRICTED RIGHTS LEGEND
  
 Use, reproduction and disclosure by the US Government is
 subject to restrictions as set forth in subparagraphs (a)
 and (c) of the Commercial Computer Software - Restricted
 Rights clause in FAR 52.227-19.
  
 Gaussian, Inc.
 340 Quinnipiac St., Bldg. 40, Wallingford CT 06492
  
  
 ---------------------------------------------------------------
 Warning -- This program may not be used in any manner that
 competes with the business of Gaussian, Inc. or will provide
 assistance to any competitor of Gaussian, Inc.  The licensee
 of this program is prohibited from giving any competitor of
 Gaussian, Inc. access to this program.  By using this program,
 the user acknowledges that Gaussian, Inc. is engaged in the
 business of creating and licensing software in the field of
 computational chemistry and represents and warrants to the
 licensee that it is not a competitor of Gaussian, Inc. and that
 it will not use this program in any manner prohibited above.
 ---------------------------------------------------------------
  

 Cite this work as:
 Gaussian 09, Revision D.01,
 M. J. Frisch, G. W. Trucks, H. B. Schlegel, G. E. Scuseria, 
 M. A. Robb, J. R. Cheeseman, G. Scalmani, V. Barone, B. Mennucci, 
 G. A. Petersson, H. Nakatsuji, M. Caricato, X. Li, H. P. Hratchian, 
 A. F. Izmaylov, J. Bloino, G. Zheng, J. L. Sonnenberg, M. Hada, 
 M. Ehara, K. Toyota, R. Fukuda, J. Hasegawa, M. Ishida, T. Nakajima, 
 Y. Honda, O. Kitao, H. Nakai, T. Vreven, J. A. Montgomery, Jr., 
 J. E. Peralta, F. Ogliaro, M. Bearpark, J. J. Heyd, E. Brothers, 
 K. N. Kudin, V. N. Staroverov, T. Keith, R. Kobayashi, J. Normand, 
 K. Raghavachari, A. Rendell, J. C. Burant, S. S. Iyengar, J. Tomasi, 
 M. Cossi, N. Rega, J. M. Millam, M. Klene, J. E. Knox, J. B. Cross, 
 V. Bakken, C. Adamo, J. Jaramillo, R. Gomperts, R. E. Stratmann, 
 O. Yazyev, A. J. Austin, R. Cammi, C. Pomelli, J. W. Ochterski, 
 R. L. Martin, K. Morokuma, V. G. Zakrzewski, G. A. Voth, 
 P. Salvador, J. J. Dannenberg, S. Dapprich, A. D. Daniels, 
 O. Farkas, J. B. Foresman, J. V. Ortiz, J. Cioslowski, 
 and D. J. Fox, Gaussian, Inc., Wallingford CT, 2013.
 
 ******************************************
 Gaussian 09:  EM64L-G09RevD.01 24-Apr-2013
                17-Jun-2014 
 ******************************************
 %Mem=32GB
 %NProcShared=16
 Will use up to   16 processors via shared memory.
 Default route:  MaxDisk=100GB
 ----------------------------------------------------------------------
 #p nmr=(giao,mixed,spinspin) m06/cc-pvtz scf=tight integral=(grid=ultr
 afine)
 ----------------------------------------------------------------------
 1/38=1/1;
 2/12=2,17=6,18=5,40=1/2;
 3/5=16,6=1,10=1100000,11=2,16=1,25=1,30=1,74=-54,75=-5/1,2,8,3;
 4//1;
 5/5=2,32=2,38=5/2;
 8/6=1,10=90,11=11/1;
 10/13=100,45=16,47=3/2;
 6/7=2,8=2,9=2,10=2,28=1/1;
 99/9=1/99;
 Leave Link    1 at Tue Jun 17 15:29:05 2014, MaxMem=  4294967296 cpu:         7.2
 (Enter /home/ztw1e12/g09/l101.exe)
 ------------------
 NMR spin-spin scan
 ------------------
 Symbolic Z-matrix:
 Charge =  0 Multiplicity = 1
 C                     0.15762   1.19774   0.17119 
 C                     0.18232  -0.00784  -0.7598 
 H                     0.60129   0.32898  -1.71267 
 C                    -3.54469  -1.09008  -0.38053 
 H                    -4.27335  -1.18002   0.42706 
 H                    -3.93073  -0.37323  -1.10813 
 H                    -3.47661  -2.06363  -0.87597 
 O                     0.36042   1.11246   1.37904 
 N                     1.04015  -1.04988  -0.24799 
 H                     0.63043  -1.91      0.08028 
 N                    -0.14062   2.35404  -0.42915 
 H                    -0.31874   2.3543   -1.4209 
 C                    -0.32221   3.57444   0.32302 
 H                    -1.15248   3.48849   1.02565 
 H                     0.57779   3.82168   0.88589 
 H                    -0.53232   4.38529  -0.3676 
 C                     2.36424  -0.86489  -0.11735 
 C                     3.14407  -1.99975   0.459 
 H                     2.5353   -2.87471   0.67634 
 H                     3.93514  -2.27317  -0.23877 
 H                     3.62345  -1.66062   1.3774 
 O                     2.90836   0.18474  -0.45996 
 C                    -2.18428  -0.67521   0.15045 
 H                    -2.29144   0.29499   0.65169 
 C                    -1.70837  -1.69256   1.17292 
 H                    -1.5251   -2.66031   0.69311 
 H                    -0.79406  -1.38469   1.68138 
 H                    -2.47011  -1.84799   1.93953 
 C                    -1.23724  -0.50368  -1.03308 
 H                    -1.16058  -1.45616  -1.57077 
 H                    -1.69202   0.20456  -1.73094 
 
 NAtoms=     31 NQM=       31 NQMF=       0 NMMI=      0 NMMIF=      0
                NMic=       0 NMicF=      0.
                    Isotopes and Nuclear Properties:
 (Nuclear quadrupole moments (NQMom) in fm**2, nuclear magnetic moments (NMagM)
  in nuclear magnetons)

  Atom         1           2           3           4           5           6           7           8           9          10
 IAtWgt=          12          12           1          12           1           1           1          16          14           1
 AtmWgt=  12.0000000  12.0000000   1.0078250  12.0000000   1.0078250   1.0078250   1.0078250  15.9949146  14.0030740   1.0078250
 NucSpn=           0           0           1           0           1           1           1           0           2           1
 AtZEff=   0.0000000   0.0000000   0.0000000   0.0000000   0.0000000   0.0000000   0.0000000   0.0000000   0.0000000   0.0000000
 NQMom=    0.0000000   0.0000000   0.0000000   0.0000000   0.0000000   0.0000000   0.0000000   0.0000000   2.0440000   0.0000000
 NMagM=    0.0000000   0.0000000   2.7928460   0.0000000   2.7928460   2.7928460   2.7928460   0.0000000   0.4037610   2.7928460
 AtZNuc=   6.0000000   6.0000000   1.0000000   6.0000000   1.0000000   1.0000000   1.0000000   8.0000000   7.0000000   1.0000000

  Atom        11          12          13          14          15          16          17          18          19          20
 IAtWgt=          14           1          12           1           1           1          12          12           1           1
 AtmWgt=  14.0030740   1.0078250  12.0000000   1.0078250   1.0078250   1.0078250  12.0000000  12.0000000   1.0078250   1.0078250
 NucSpn=           2           1           0           1           1           1           0           0           1           1
 AtZEff=   0.0000000   0.0000000   0.0000000   0.0000000   0.0000000   0.0000000   0.0000000   0.0000000   0.0000000   0.0000000
 NQMom=    2.0440000   0.0000000   0.0000000   0.0000000   0.0000000   0.0000000   0.0000000   0.0000000   0.0000000   0.0000000
 NMagM=    0.4037610   2.7928460   0.0000000   2.7928460   2.7928460   2.7928460   0.0000000   0.0000000   2.7928460   2.7928460
 AtZNuc=   7.0000000   1.0000000   6.0000000   1.0000000   1.0000000   1.0000000   6.0000000   6.0000000   1.0000000   1.0000000

  Atom        21          22          23          24          25          26          27          28          29          30
 IAtWgt=           1          16          12           1          12           1           1           1          12           1
 AtmWgt=   1.0078250  15.9949146  12.0000000   1.0078250  12.0000000   1.0078250   1.0078250   1.0078250  12.0000000   1.0078250
 NucSpn=           1           0           0           1           0           1           1           1           0           1
 AtZEff=   0.0000000   0.0000000   0.0000000   0.0000000   0.0000000   0.0000000   0.0000000   0.0000000   0.0000000   0.0000000
 NQMom=    0.0000000   0.0000000   0.0000000   0.0000000   0.0000000   0.0000000   0.0000000   0.0000000   0.0000000   0.0000000
 NMagM=    2.7928460   0.0000000   0.0000000   2.7928460   0.0000000   2.7928460   2.7928460   2.7928460   0.0000000   2.7928460
 AtZNuc=   1.0000000   8.0000000   6.0000000   1.0000000   6.0000000   1.0000000   1.0000000   1.0000000   6.0000000   1.0000000

  Atom        31
 IAtWgt=           1
 AtmWgt=   1.0078250
 NucSpn=           1
 AtZEff=   0.0000000
 NQMom=    0.0000000
 NMagM=    2.7928460
 AtZNuc=   1.0000000
 Leave Link  101 at Tue Jun 17 15:29:05 2014, MaxMem=  4294967296 cpu:         1.6
 (Enter /home/ztw1e12/g09/l202.exe)
                          Input orientation:                          
 ---------------------------------------------------------------------
 Center     Atomic      Atomic             Coordinates (Angstroms)
 Number     Number       Type             X           Y           Z
 ---------------------------------------------------------------------
      1          6           0        0.157621    1.197741    0.171185
      2          6           0        0.182316   -0.007843   -0.759796
      3          1           0        0.601294    0.328983   -1.712672
      4          6           0       -3.544691   -1.090083   -0.380525
      5          1           0       -4.273353   -1.180022    0.427060
      6          1           0       -3.930727   -0.373231   -1.108133
      7          1           0       -3.476611   -2.063630   -0.875965
      8          8           0        0.360420    1.112460    1.379044
      9          7           0        1.040147   -1.049880   -0.247986
     10          1           0        0.630432   -1.909997    0.080279
     11          7           0       -0.140617    2.354036   -0.429145
     12          1           0       -0.318741    2.354303   -1.420900
     13          6           0       -0.322206    3.574436    0.323017
     14          1           0       -1.152481    3.488486    1.025652
     15          1           0        0.577785    3.821681    0.885887
     16          1           0       -0.532323    4.385291   -0.367599
     17          6           0        2.364244   -0.864885   -0.117354
     18          6           0        3.144074   -1.999749    0.458998
     19          1           0        2.535298   -2.874712    0.676342
     20          1           0        3.935139   -2.273170   -0.238773
     21          1           0        3.623450   -1.660618    1.377400
     22          8           0        2.908355    0.184740   -0.459963
     23          6           0       -2.184279   -0.675206    0.150446
     24          1           0       -2.291440    0.294989    0.651691
     25          6           0       -1.708367   -1.692560    1.172924
     26          1           0       -1.525101   -2.660310    0.693107
     27          1           0       -0.794064   -1.384686    1.681382
     28          1           0       -2.470111   -1.847987    1.939528
     29          6           0       -1.237240   -0.503677   -1.033079
     30          1           0       -1.160579   -1.456160   -1.570771
     31          1           0       -1.692020    0.204556   -1.730943
 ---------------------------------------------------------------------
                    Distance matrix (angstroms):
                    1          2          3          4          5
     1  C    0.000000
     2  C    1.523407   0.000000
     3  H    2.121439   1.094060   0.000000
     4  C    4.386985   3.899445   4.580126   0.000000
     5  H    5.035152   4.757690   5.533329   1.091435   0.000000
     6  H    4.562806   4.143908   4.625774   1.091931   1.767801
     7  H    4.994067   4.198512   4.801457   1.094481   1.764493
     8  O    1.227731   2.421040   3.198525   4.816344   5.256767
     9  N    2.450787   1.443490   2.058922   4.586930   5.357789
    10  H    3.144813   2.127140   2.868546   4.279749   4.969932
    11  N    1.336548   2.406676   2.509724   4.842731   5.504740
    12  H    2.024671   2.503568   2.243550   4.832487   5.616526
    13  C    2.429396   3.776208   3.940793   5.712891   6.182820
    14  H    2.773805   4.146544   4.533939   5.353811   5.647400
    15  H    2.751799   4.186875   4.353390   6.536362   6.982915
    16  H    3.305569   4.468126   4.421306   6.249340   6.752740
    17  C    3.034282   2.430651   2.660517   5.919078   6.667338
    18  C    4.384710   3.771625   4.074908   6.802343   7.462653
    19  H    4.742721   3.977179   4.439755   6.424028   7.020815
    20  H    5.146351   4.414391   4.478627   7.574143   8.307686
    21  H    4.651574   4.375006   4.758202   7.402571   7.968288
    22  O    2.998509   2.749232   2.629185   6.578243   7.363852
    23  C    2.998809   2.621962   3.498431   1.518148   2.166930
    24  H    2.654006   2.864170   3.736212   2.134135   2.480745
    25  C    3.583187   3.185649   4.212818   2.479570   2.719956
    26  H    4.241287   3.473008   4.386935   2.774354   3.132878
    27  H    3.139320   2.967889   4.050097   3.450246   3.704141
    28  H    4.394141   4.208070   5.245121   2.666793   2.446511
    29  C    2.508129   1.528291   2.129642   2.468609   3.436194
    30  H    3.437332   2.135104   2.512184   2.689738   3.709035
    31  H    2.832963   2.121644   2.296760   2.632890   3.638312
                    6          7          8          9         10
     6  H    0.000000
     7  H    1.765665   0.000000
     8  O    5.177574   5.467670   0.000000
     9  N    5.089921   4.671525   2.790156   0.000000
    10  H    4.957635   4.219693   3.300749   1.007683   0.000000
    11  N    4.718468   5.553762   2.249910   3.607446   4.363027
    12  H    4.536927   5.457768   3.137375   3.848476   4.619385
    13  C    5.536577   6.570816   2.764507   4.854518   5.571844
    14  H    5.213880   6.312188   2.838883   5.198705   5.763343
    15  H    6.473027   7.360648   2.762305   5.023102   5.788256
    16  H    5.894156   7.107450   3.815649   5.659333   6.417417
    17  C    6.391403   6.010663   3.188167   1.343325   2.034065
    18  C    7.426592   6.754234   4.275636   2.414247   2.543596
    19  H    7.158997   6.261834   4.595805   2.533746   2.216863
    20  H    8.138636   7.442040   5.182513   3.142849   3.339877
    21  H    8.056105   7.459956   4.282211   3.112609   3.271524
    22  O    6.892351   6.782036   3.276367   2.249316   3.141452
    23  C    2.173773   2.156702   3.343755   3.270482   3.074448
    24  H    2.496149   3.049827   2.868739   3.703723   3.704836
    25  C    3.447134   2.731726   3.491490   3.160119   2.590585
    26  H    3.776537   2.574180   4.273113   3.171693   2.363229
    27  H    4.317764   3.767897   2.767667   2.683074   2.206507
    28  H    3.687349   2.997757   4.134041   4.212375   3.615801
    29  C    2.697688   2.733664   3.314024   2.470061   2.589498
    30  H    3.010065   2.493146   4.196743   2.599619   2.477833
    31  H    2.394481   3.010053   3.835208   3.352239   3.625692
                   11         12         13         14         15
    11  N    0.000000
    12  H    1.007624   0.000000
    13  C    1.445025   2.128376   0.000000
    14  H    2.104110   2.822607   1.091073   0.000000
    15  H    2.097473   2.877190   1.089925   1.767590   0.000000
    16  H    2.069594   2.297819   1.085627   1.769182   1.766698
    17  C    4.090598   4.388714   5.207544   5.711887   5.114864
    18  C    5.525707   5.872212   6.565449   6.993011   6.376294
    19  H    5.976824   6.315581   7.062696   7.362881   6.979788
    20  H    6.169203   6.395813   7.255005   7.789694   7.048680
    21  H    5.792172   6.284182   6.639707   7.031822   6.290728
    22  O    3.742062   4.005565   4.747591   5.441707   4.524401
    23  C    3.699836   3.889381   4.642904   4.378005   5.328402
    24  H    3.167636   3.525330   3.839360   3.411085   4.552456
    25  C    4.625949   5.003607   5.512262   5.212863   5.976264
    26  H    5.321646   5.574107   6.360502   6.169046   6.817294
    27  H    4.342736   4.881611   5.163400   4.930137   5.442521
    28  H    5.356692   5.794835   6.052212   5.572186   6.522650
    29  C    3.119911   3.026895   4.394006   4.492541   5.068083
    30  H    4.106242   3.905225   5.440239   5.584891   6.075581
    31  H    2.953268   2.569715   4.177467   4.321356   5.008334
                   16         17         18         19         20
    16  H    0.000000
    17  C    6.001422   0.000000
    18  C    7.414034   1.492727   0.000000
    19  H    7.950330   2.167629   1.087845   0.000000
    20  H    8.019346   2.113225   1.089691   1.777313   0.000000
    21  H    7.541120   2.110232   1.090080   1.774706   1.756242
    22  O    5.430601   1.230914   2.381606   3.284906   2.672926
    23  C    5.348454   4.560346   5.499179   5.233431   6.336581
    24  H    4.567714   4.859232   5.903200   5.774514   6.794016
    25  C    6.379386   4.351554   4.914289   4.433144   5.846294
    26  H    7.193831   4.359748   4.721477   4.066090   5.552702
    27  H    6.128578   3.671587   4.169107   3.783508   5.180903
    28  H    6.923266   5.344927   5.808104   5.263452   6.778864
    29  C    4.984153   3.733592   4.864200   4.772418   5.524087
    30  H    5.997072   3.858290   4.790145   4.552067   5.329922
    31  H    4.547763   4.494513   5.748270   5.757354   6.326975
                   21         22         23         24         25
    21  H    0.000000
    22  O    2.700483   0.000000
    23  C    6.017156   5.200676   0.000000
    24  H    6.271920   5.318439   1.097273   0.000000
    25  C    5.335832   5.244492   1.518869   2.135886   0.000000
    26  H    5.289160   5.392533   2.160934   3.053323   1.095605
    27  H    4.436550   4.555915   2.186281   2.474612   1.090535
    28  H    6.122302   6.230364   2.158224   2.506550   1.091830
    29  C    5.547543   4.241266   1.525463   2.141881   2.549873
    30  H    5.623206   4.525779   2.149521   3.047082   2.807814
    31  H    6.433886   4.772759   2.134461   2.458542   3.468683
                   26         27         28         29         30
    26  H    0.000000
    27  H    1.771530   0.000000
    28  H    1.762520   1.757959   0.000000
    29  C    2.777345   2.888058   3.487626   0.000000
    30  H    2.589980   3.273521   3.767041   1.096455   0.000000
    31  H    3.756506   3.869881   4.276765   1.093359   1.751017
                   31
    31  H    0.000000
 Stoichiometry    C9H18N2O2
 Framework group  C1[X(C9H18N2O2)]
 Deg. of freedom    87
 Full point group                 C1      NOp   1
 Largest Abelian subgroup         C1      NOp   1
 Largest concise Abelian subgroup C1      NOp   1
                         Standard orientation:                         
 ---------------------------------------------------------------------
 Center     Atomic      Atomic             Coordinates (Angstroms)
 Number     Number       Type             X           Y           Z
 ---------------------------------------------------------------------
      1          6           0        0.045273    1.180288    0.158149
      2          6           0        0.152262   -0.006009   -0.791598
      3          1           0        0.525313    0.377456   -1.745932
      4          6           0       -3.466193   -1.396270   -0.367769
      5          1           0       -4.170644   -1.557138    0.450217
      6          1           0       -3.922494   -0.703459   -1.077781
      7          1           0       -3.327297   -2.353879   -0.879221
      8          8           0        0.275693    1.095045    1.361047
      9          7           0        1.101541   -0.981051   -0.310112
     10          1           0        0.769582   -1.876464    0.011546
     11          7           0       -0.357315    2.316446   -0.419283
     12          1           0       -0.552359    2.315971   -1.407850
     13          6           0       -0.625020    3.507114    0.354501
     14          1           0       -1.432908    3.343338    1.069298
     15          1           0        0.261478    3.819612    0.906228
     16          1           0       -0.913075    4.307549   -0.319973
     17          6           0        2.408116   -0.689650   -0.198454
     18          6           0        3.288419   -1.764514    0.347409
     19          1           0        2.757357   -2.689535    0.561222
     20          1           0        4.086782   -1.962148   -0.367423
     21          1           0        3.754534   -1.400023    1.262918
     22          8           0        2.858209    0.405863   -0.533742
     23          6           0       -2.135201   -0.878416    0.147073
     24          1           0       -2.312663    0.072557    0.664920
     25          6           0       -1.559496   -1.867427    1.145765
     26          1           0       -1.306019   -2.810006    0.648125
     27          1           0       -0.664667   -1.492571    1.643792
     28          1           0       -2.292268   -2.095700    1.922315
     29          6           0       -1.226475   -0.613015   -1.049093
     30          1           0       -1.081502   -1.548335   -1.602602
     31          1           0       -1.750045    0.065138   -1.728369
 ---------------------------------------------------------------------
 Rotational constants (GHZ):      0.8516598      0.6247454      0.4233293
 Leave Link  202 at Tue Jun 17 15:29:05 2014, MaxMem=  4294967296 cpu:         2.2
 (Enter /home/ztw1e12/g09/l301.exe)
 Standard basis: CC-pVTZ (5D, 7F)
 Converting basis for Fermi contact spin-spin IFCMod=1.
 AO basis functions are being uncontracted.
 Ernie: Thresh=  0.10000D-02 Tol=  0.10000D-05 Strict=F.
 There are  1119 symmetry adapted cartesian basis functions of A   symmetry.
 There are  1036 symmetry adapted basis functions of A   symmetry.
  1036 basis functions,  1119 primitive gaussians,  1119 cartesian basis functions
    51 alpha electrons       51 beta electrons
       nuclear repulsion energy       877.3977918315 Hartrees.
 IExCor= 4235 DFT=T Ex+Corr=M06 ExCW=0 ScaHFX=  0.270000
 ScaDFX=  1.000000  1.000000  1.000000  1.000000 ScalE2=  1.000000  1.000000
 IRadAn= 199590 IRanWt=     -1 IRanGd=            0 ICorTp=0 IEmpDi=  4
 NAtoms=   31 NActive=   31 NUniq=   31 SFac= 1.00D+00 NAtFMM=   60 NAOKFM=F Big=F
 Integral buffers will be    131072 words long.
 Raffenetti 2 integral format.
 Two-electron integral symmetry is turned on.
 Leave Link  301 at Tue Jun 17 15:29:05 2014, MaxMem=  4294967296 cpu:         5.6
 (Enter /home/ztw1e12/g09/l302.exe)
 NPDir=0 NMtPBC=     1 NCelOv=     1 NCel=       1 NClECP=     1 NCelD=      1
         NCelK=      1 NCelE2=     1 NClLst=     1 CellRange=     0.0.
 One-electron integrals computed using PRISM.
 GSVD:  received Info=                   1 from GESDD.
 NBasis=  1036 RedAO= T EigKep=  1.22D-04  NBF=  1036
 NBsUse=   932 1.00D-06 EigRej=  7.47D-15 NBFU=   932
 Precomputing XC quadrature grid using
 IXCGrd= 4 IRadAn=      199590 IRanWt=          -1 IRanGd=           0 AccXCQ= 0.00D+00.
 Generated NRdTot=       0 NPtTot=           0 NUsed=           0 NTot=          32
 NSgBfM=   879   879   879   879   879 MxSgAt=    31 MxSgA2=    31.
 Leave Link  302 at Tue Jun 17 15:29:09 2014, MaxMem=  4294967296 cpu:        63.8
 (Enter /home/ztw1e12/g09/l308.exe)
 Leave Link  308 at Tue Jun 17 15:29:10 2014, MaxMem=  4294967296 cpu:         5.5
 (Enter /home/ztw1e12/g09/l303.exe)
 DipDrv:  MaxL=1.
 Leave Link  303 at Tue Jun 17 15:29:10 2014, MaxMem=  4294967296 cpu:         3.3
 (Enter /home/ztw1e12/g09/l401.exe)
 ExpMin= 1.03D-01 ExpMax= 1.38D+05 ExpMxC= 1.38D+05 IAcc=4 IRadAn=    199590 AccDes= 0.00D+00
 Harris functional with IExCor= 1009 and IRadAn=  199590 diagonalized for initial guess.
 HarFok:  IExCor= 1009 AccDes= 0.00D+00 IRadAn=    199590 IDoV= 1 UseB2=F ITyADJ=14
 ICtDFT=  3500011 ScaDFX=  1.000000  1.000000  1.000000  1.000000
 FoFCou: FMM=F IPFlag=           0 FMFlag=      100000 FMFlg1=           0
         NFxFlg=           0 DoJE=T BraDBF=F KetDBF=T FulRan=T
         wScrn=  0.000000 ICntrl=     500 IOpCl=  0 I1Cent=   200000004 NGrid=           0
         NMat0=    1 NMatS0=      1 NMatT0=    0 NMatD0=    1 NMtDS0=    0 NMtDT0=    0
 Petite list used in FoFCou.
 Harris En= -613.565360075260    
 JPrj=0 DoOrth=F DoCkMO=F.
 Leave Link  401 at Tue Jun 17 15:29:26 2014, MaxMem=  4294967296 cpu:       254.3
 (Enter /home/ztw1e12/g09/l502.exe)
 Closed shell SCF:
 Using DIIS extrapolation, IDIIS=  1040.
 Integral symmetry usage will be decided dynamically.
 IVT=     3801329 IEndB=     3801329 NGot=  4294967296 MDV=  4292435888
 LenX=  4292435888 LenY=  4291182608
 Requested convergence on RMS density matrix=1.00D-08 within 128 cycles.
 Requested convergence on MAX density matrix=1.00D-06.
 Requested convergence on             energy=1.00D-06.
 No special actions if energy rises.
 Fock matrices will be formed incrementally for  20 cycles.
 Integral accuracy reduced to 1.0D-05 until final iterations.

 Cycle   1  Pass 0  IDiag  1:
 FoFJK:  IHMeth= 1 ICntrl=       0 DoSepK=F KAlg= 0 I1Cent=   0 FoldK=F
 IRaf= 480000000 NMat=   1 IRICut=       1 DoRegI=T DoRafI=F ISym2E= 0.
 FoFCou: FMM=F IPFlag=           0 FMFlag=      100000 FMFlg1=           0
         NFxFlg=           0 DoJE=F BraDBF=F KetDBF=F FulRan=T
         wScrn=  0.000000 ICntrl=       0 IOpCl=  0 I1Cent=           0 NGrid=           0
         NMat0=    1 NMatS0=      1 NMatT0=    0 NMatD0=    1 NMtDS0=    0 NMtDT0=    0
 Symmetry not used in FoFCou.
 E= -613.185092536746    
 DIIS: error= 1.33D-01 at cycle   1 NSaved=   1.
 NSaved= 1 IEnMin= 1 EnMin= -613.185092536746     IErMin= 1 ErrMin= 1.33D-01
 ErrMax= 1.33D-01  0.00D+00 EMaxC= 1.00D-01 BMatC= 1.30D+01 BMatP= 1.30D+01
 IDIUse=3 WtCom= 0.00D+00 WtEn= 1.00D+00
 Coeff-Com:  0.100D+01
 Coeff-En:   0.100D+01
 Coeff:      0.100D+01
 Gap=     0.290 Goal=   None    Shift=    0.000
 GapD=    0.290 DampG=1.000 DampE=0.250 DampFc=0.2500 IDamp=-1.
 Damping current iteration by 2.50D-01
 RMSDP=2.07D-03 MaxDP=3.00D-01              OVMax= 2.84D-01

 Cycle   2  Pass 0  IDiag  1:
 RMSU=  5.17D-04    CP:  1.01D+00
 E= -613.342501348660     Delta-E=       -0.157408811914 Rises=F Damp=T
 DIIS: error= 1.00D-01 at cycle   2 NSaved=   2.
 NSaved= 2 IEnMin= 2 EnMin= -613.342501348660     IErMin= 2 ErrMin= 1.00D-01
 ErrMax= 1.00D-01  0.00D+00 EMaxC= 1.00D-01 BMatC= 7.66D+00 BMatP= 1.30D+01
 IDIUse=3 WtCom= 0.00D+00 WtEn= 1.00D+00
 Coeff-Com: -0.279D+01 0.379D+01
 Coeff-En:   0.000D+00 0.100D+01
 Coeff:      0.000D+00 0.100D+01
 Gap=     0.220 Goal=   None    Shift=    0.000
 RMSDP=5.77D-04 MaxDP=4.85D-02 DE=-1.57D-01 OVMax= 1.33D-01

 Cycle   3  Pass 0  IDiag  1:
 RMSU=  4.28D-04    CP:  1.02D+00  1.74D+00
 E= -613.532477583788     Delta-E=       -0.189976235129 Rises=F Damp=F
 DIIS: error= 1.27D-02 at cycle   3 NSaved=   3.
 NSaved= 3 IEnMin= 3 EnMin= -613.532477583788     IErMin= 3 ErrMin= 1.27D-02
 ErrMax= 1.27D-02  0.00D+00 EMaxC= 1.00D-01 BMatC= 2.31D-01 BMatP= 7.66D+00
 IDIUse=3 WtCom= 8.73D-01 WtEn= 1.27D-01
 Coeff-Com:  0.122D+01-0.167D+01 0.145D+01
 Coeff-En:   0.138D+00 0.000D+00 0.862D+00
 Coeff:      0.108D+01-0.146D+01 0.137D+01
 Gap=     0.250 Goal=   None    Shift=    0.000
 RMSDP=4.17D-04 MaxDP=3.51D-02 DE=-1.90D-01 OVMax= 6.63D-02

 Cycle   4  Pass 0  IDiag  1:
 RMSU=  2.69D-04    CP:  1.02D+00  1.18D+00  6.94D-01
 E= -613.547208204304     Delta-E=       -0.014730620516 Rises=F Damp=F
 DIIS: error= 8.19D-03 at cycle   4 NSaved=   4.
 NSaved= 4 IEnMin= 4 EnMin= -613.547208204304     IErMin= 4 ErrMin= 8.19D-03
 ErrMax= 8.19D-03  0.00D+00 EMaxC= 1.00D-01 BMatC= 1.04D-01 BMatP= 2.31D-01
 IDIUse=3 WtCom= 9.18D-01 WtEn= 8.19D-02
 Coeff-Com:  0.764D+00-0.105D+01 0.750D+00 0.537D+00
 Coeff-En:   0.000D+00 0.000D+00 0.446D+00 0.554D+00
 Coeff:      0.702D+00-0.965D+00 0.725D+00 0.538D+00
 Gap=     0.283 Goal=   None    Shift=    0.000
 RMSDP=2.72D-04 MaxDP=2.19D-02 DE=-1.47D-02 OVMax= 7.62D-02

 Cycle   5  Pass 0  IDiag  1:
 RMSU=  8.83D-05    CP:  1.02D+00  1.12D+00  8.44D-01  8.26D-02
 E= -613.619321809005     Delta-E=       -0.072113604700 Rises=F Damp=F
 DIIS: error= 3.22D-03 at cycle   5 NSaved=   5.
 NSaved= 5 IEnMin= 5 EnMin= -613.619321809005     IErMin= 5 ErrMin= 3.22D-03
 ErrMax= 3.22D-03  0.00D+00 EMaxC= 1.00D-01 BMatC= 1.42D-02 BMatP= 1.04D-01
 IDIUse=3 WtCom= 9.68D-01 WtEn= 3.22D-02
 Coeff-Com:  0.143D+00-0.203D+00 0.139D+00 0.273D+00 0.648D+00
 Coeff-En:   0.000D+00 0.000D+00 0.000D+00 0.803D-01 0.920D+00
 Coeff:      0.138D+00-0.197D+00 0.135D+00 0.267D+00 0.657D+00
 Gap=     0.271 Goal=   None    Shift=    0.000
 RMSDP=1.50D-04 MaxDP=1.51D-02 DE=-7.21D-02 OVMax= 3.00D-02

 Cycle   6  Pass 0  IDiag  1:
 RMSU=  7.80D-05    CP:  1.02D+00  1.16D+00  9.33D-01  4.64D-01  2.97D-01
 E= -613.627246986937     Delta-E=       -0.007925177932 Rises=F Damp=F
 DIIS: error= 1.04D-03 at cycle   6 NSaved=   6.
 NSaved= 6 IEnMin= 6 EnMin= -613.627246986937     IErMin= 6 ErrMin= 1.04D-03
 ErrMax= 1.04D-03  0.00D+00 EMaxC= 1.00D-01 BMatC= 1.11D-03 BMatP= 1.42D-02
 IDIUse=3 WtCom= 9.90D-01 WtEn= 1.04D-02
 Coeff-Com:  0.619D-01-0.841D-01 0.210D-01 0.431D-01 0.201D+00 0.757D+00
 Coeff-En:   0.000D+00 0.000D+00 0.000D+00 0.000D+00 0.168D-01 0.983D+00
 Coeff:      0.613D-01-0.832D-01 0.208D-01 0.426D-01 0.199D+00 0.759D+00
 Gap=     0.270 Goal=   None    Shift=    0.000
 RMSDP=3.15D-05 MaxDP=3.11D-03 DE=-7.93D-03 OVMax= 9.65D-03

 Cycle   7  Pass 0  IDiag  1:
 RMSU=  2.22D-05    CP:  1.02D+00  1.13D+00  9.35D-01  4.59D-01  4.17D-01
                    CP:  1.11D+00
 E= -613.627845515017     Delta-E=       -0.000598528080 Rises=F Damp=F
 DIIS: error= 5.02D-04 at cycle   7 NSaved=   7.
 NSaved= 7 IEnMin= 7 EnMin= -613.627845515017     IErMin= 7 ErrMin= 5.02D-04
 ErrMax= 5.02D-04  0.00D+00 EMaxC= 1.00D-01 BMatC= 2.56D-04 BMatP= 1.11D-03
 IDIUse=3 WtCom= 9.95D-01 WtEn= 5.02D-03
 Coeff-Com:  0.417D-01-0.559D-01 0.136D-01 0.717D-02 0.582D-01 0.427D+00
 Coeff-Com:  0.509D+00
 Coeff-En:   0.000D+00 0.000D+00 0.000D+00 0.000D+00 0.000D+00 0.122D+00
 Coeff-En:   0.878D+00
 Coeff:      0.415D-01-0.556D-01 0.135D-01 0.713D-02 0.579D-01 0.425D+00
 Coeff:      0.510D+00
 Gap=     0.270 Goal=   None    Shift=    0.000
 RMSDP=1.17D-05 MaxDP=1.03D-03 DE=-5.99D-04 OVMax= 3.22D-03

 Cycle   8  Pass 0  IDiag  1:
 RMSU=  7.09D-06    CP:  1.02D+00  1.13D+00  9.40D-01  4.71D-01  4.05D-01
                    CP:  1.17D+00  6.80D-01
 E= -613.628017793329     Delta-E=       -0.000172278312 Rises=F Damp=F
 DIIS: error= 1.50D-04 at cycle   8 NSaved=   8.
 NSaved= 8 IEnMin= 8 EnMin= -613.628017793329     IErMin= 8 ErrMin= 1.50D-04
 ErrMax= 1.50D-04  0.00D+00 EMaxC= 1.00D-01 BMatC= 2.97D-05 BMatP= 2.56D-04
 IDIUse=3 WtCom= 9.99D-01 WtEn= 1.50D-03
 Coeff-Com:  0.228D-01-0.305D-01 0.900D-02-0.353D-02 0.258D-02 0.171D+00
 Coeff-Com:  0.301D+00 0.528D+00
 Coeff-En:   0.000D+00 0.000D+00 0.000D+00 0.000D+00 0.000D+00 0.000D+00
 Coeff-En:   0.000D+00 0.100D+01
 Coeff:      0.228D-01-0.305D-01 0.899D-02-0.352D-02 0.258D-02 0.171D+00
 Coeff:      0.300D+00 0.528D+00
 Gap=     0.270 Goal=   None    Shift=    0.000
 RMSDP=5.77D-06 MaxDP=5.60D-04 DE=-1.72D-04 OVMax= 1.22D-03

 Initial convergence to 1.0D-05 achieved.  Increase integral accuracy.
 Cycle   9  Pass 1  IDiag  1:
 E= -613.628064969886     Delta-E=       -0.000047176557 Rises=F Damp=F
 DIIS: error= 6.70D-05 at cycle   1 NSaved=   1.
 NSaved= 1 IEnMin= 1 EnMin= -613.628064969886     IErMin= 1 ErrMin= 6.70D-05
 ErrMax= 6.70D-05  0.00D+00 EMaxC= 1.00D-01 BMatC= 1.26D-05 BMatP= 1.26D-05
 IDIUse=1 WtCom= 1.00D+00 WtEn= 0.00D+00
 Coeff-Com:  0.100D+01
 Coeff:      0.100D+01
 Gap=     0.270 Goal=   None    Shift=    0.000
 RMSDP=5.77D-06 MaxDP=5.60D-04 DE=-4.72D-05 OVMax= 1.47D-03

 Cycle  10  Pass 1  IDiag  1:
 RMSU=  2.64D-05    CP:  1.00D+00
 E= -613.628062098513     Delta-E=        0.000002871374 Rises=F Damp=F
 DIIS: error= 1.17D-04 at cycle   2 NSaved=   2.
 NSaved= 2 IEnMin= 1 EnMin= -613.628064969886     IErMin= 1 ErrMin= 6.70D-05
 ErrMax= 1.17D-04  0.00D+00 EMaxC= 1.00D-01 BMatC= 1.36D-05 BMatP= 1.26D-05
 IDIUse=3 WtCom= 9.99D-01 WtEn= 1.17D-03
 Coeff-Com:  0.512D+00 0.488D+00
 Coeff-En:   0.600D+00 0.400D+00
 Coeff:      0.512D+00 0.488D+00
 Gap=     0.270 Goal=   None    Shift=    0.000
 RMSDP=4.13D-06 MaxDP=4.84D-04 DE= 2.87D-06 OVMax= 1.43D-03

 Cycle  11  Pass 1  IDiag  1:
 RMSU=  4.05D-06    CP:  1.00D+00  9.75D-01
 E= -613.628069338736     Delta-E=       -0.000007240223 Rises=F Damp=F
 DIIS: error= 6.49D-05 at cycle   3 NSaved=   3.
 NSaved= 3 IEnMin= 3 EnMin= -613.628069338736     IErMin= 3 ErrMin= 6.49D-05
 ErrMax= 6.49D-05  0.00D+00 EMaxC= 1.00D-01 BMatC= 3.45D-06 BMatP= 1.26D-05
 IDIUse=1 WtCom= 1.00D+00 WtEn= 0.00D+00
 Coeff-Com:  0.537D-01 0.332D+00 0.615D+00
 Coeff:      0.537D-01 0.332D+00 0.615D+00
 Gap=     0.270 Goal=   None    Shift=    0.000
 RMSDP=1.45D-06 MaxDP=1.62D-04 DE=-7.24D-06 OVMax= 4.88D-04

 Cycle  12  Pass 1  IDiag  1:
 RMSU=  5.03D-07    CP:  1.00D+00  9.96D-01  6.94D-01
 E= -613.628071722977     Delta-E=       -0.000002384241 Rises=F Damp=F
 DIIS: error= 1.07D-05 at cycle   4 NSaved=   4.
 NSaved= 4 IEnMin= 4 EnMin= -613.628071722977     IErMin= 4 ErrMin= 1.07D-05
 ErrMax= 1.07D-05  0.00D+00 EMaxC= 1.00D-01 BMatC= 1.05D-07 BMatP= 3.45D-06
 IDIUse=1 WtCom= 1.00D+00 WtEn= 0.00D+00
 Coeff-Com:  0.521D-02 0.142D+00 0.300D+00 0.553D+00
 Coeff:      0.521D-02 0.142D+00 0.300D+00 0.553D+00
 Gap=     0.270 Goal=   None    Shift=    0.000
 RMSDP=2.44D-07 MaxDP=2.25D-05 DE=-2.38D-06 OVMax= 6.13D-05

 Cycle  13  Pass 1  IDiag  1:
 RMSU=  2.04D-07    CP:  1.00D+00  9.98D-01  7.01D-01  7.53D-01
 E= -613.628071793091     Delta-E=       -0.000000070114 Rises=F Damp=F
 DIIS: error= 2.53D-06 at cycle   5 NSaved=   5.
 NSaved= 5 IEnMin= 5 EnMin= -613.628071793091     IErMin= 5 ErrMin= 2.53D-06
 ErrMax= 2.53D-06  0.00D+00 EMaxC= 1.00D-01 BMatC= 8.99D-09 BMatP= 1.05D-07
 IDIUse=1 WtCom= 1.00D+00 WtEn= 0.00D+00
 Coeff-Com: -0.253D-02 0.405D-01 0.928D-01 0.277D+00 0.592D+00
 Coeff:     -0.253D-02 0.405D-01 0.928D-01 0.277D+00 0.592D+00
 Gap=     0.270 Goal=   None    Shift=    0.000
 RMSDP=7.82D-08 MaxDP=6.57D-06 DE=-7.01D-08 OVMax= 1.97D-05

 Cycle  14  Pass 1  IDiag  1:
 RMSU=  4.23D-08    CP:  1.00D+00  9.98D-01  7.05D-01  8.68D-01  8.79D-01
 E= -613.628071799235     Delta-E=       -0.000000006144 Rises=F Damp=F
 DIIS: error= 6.69D-07 at cycle   6 NSaved=   6.
 NSaved= 6 IEnMin= 6 EnMin= -613.628071799235     IErMin= 6 ErrMin= 6.69D-07
 ErrMax= 6.69D-07  0.00D+00 EMaxC= 1.00D-01 BMatC= 4.43D-10 BMatP= 8.99D-09
 IDIUse=1 WtCom= 1.00D+00 WtEn= 0.00D+00
 Coeff-Com: -0.136D-02 0.124D-01 0.293D-01 0.106D+00 0.276D+00 0.578D+00
 Coeff:     -0.136D-02 0.124D-01 0.293D-01 0.106D+00 0.276D+00 0.578D+00
 Gap=     0.270 Goal=   None    Shift=    0.000
 RMSDP=2.35D-08 MaxDP=2.53D-06 DE=-6.14D-09 OVMax= 8.59D-06

 Cycle  15  Pass 1  IDiag  1:
 RMSU=  2.02D-08    CP:  1.00D+00  9.98D-01  7.05D-01  8.80D-01  9.08D-01
                    CP:  8.15D-01
 E= -613.628071799432     Delta-E=       -0.000000000197 Rises=F Damp=F
 DIIS: error= 4.92D-07 at cycle   7 NSaved=   7.
 NSaved= 7 IEnMin= 7 EnMin= -613.628071799432     IErMin= 7 ErrMin= 4.92D-07
 ErrMax= 4.92D-07  0.00D+00 EMaxC= 1.00D-01 BMatC= 1.58D-10 BMatP= 4.43D-10
 IDIUse=1 WtCom= 1.00D+00 WtEn= 0.00D+00
 Coeff-Com: -0.341D-03-0.962D-03-0.162D-02 0.625D-02 0.450D-01 0.385D+00
 Coeff-Com:  0.567D+00
 Coeff:     -0.341D-03-0.962D-03-0.162D-02 0.625D-02 0.450D-01 0.385D+00
 Coeff:      0.567D+00
 Gap=     0.270 Goal=   None    Shift=    0.000
 RMSDP=1.54D-08 MaxDP=1.61D-06 DE=-1.97D-10 OVMax= 3.44D-06

 Cycle  16  Pass 1  IDiag  1:
 RMSU=  6.96D-09    CP:  1.00D+00  9.98D-01  7.06D-01  8.95D-01  9.33D-01
                    CP:  1.00D+00  7.44D-01
 E= -613.628071799555     Delta-E=       -0.000000000123 Rises=F Damp=F
 DIIS: error= 1.10D-07 at cycle   8 NSaved=   8.
 NSaved= 8 IEnMin= 8 EnMin= -613.628071799555     IErMin= 8 ErrMin= 1.10D-07
 ErrMax= 1.10D-07  0.00D+00 EMaxC= 1.00D-01 BMatC= 1.23D-11 BMatP= 1.58D-10
 IDIUse=1 WtCom= 1.00D+00 WtEn= 0.00D+00
 Coeff-Com: -0.172D-04-0.203D-02-0.440D-02-0.944D-02-0.963D-02 0.139D+00
 Coeff-Com:  0.300D+00 0.587D+00
 Coeff:     -0.172D-04-0.203D-02-0.440D-02-0.944D-02-0.963D-02 0.139D+00
 Coeff:      0.300D+00 0.587D+00
 Gap=     0.270 Goal=   None    Shift=    0.000
 RMSDP=3.60D-09 MaxDP=3.33D-07 DE=-1.23D-10 OVMax= 6.67D-07

 SCF Done:  E(RM06) =  -613.628071800     A.U. after   16 cycles
            NFock= 16  Conv=0.36D-08     -V/T= 2.0046
 KE= 6.108030349697D+02 PE=-3.186259168484D+03 EE= 1.084430269883D+03
 Leave Link  502 at Tue Jun 17 15:57:53 2014, MaxMem=  4294967296 cpu:     27238.0
 (Enter /home/ztw1e12/g09/l801.exe)
 DoSCS=F DFT=T ScalE2(SS,OS)=  1.000000  1.000000
 Range of M.O.s used for correlation:     1   932
 NBasis=  1036 NAE=    51 NBE=    51 NFC=     0 NFV=     0
 NROrb=    932 NOA=    51 NOB=    51 NVA=   881 NVB=   881

 **** Warning!!: The largest alpha MO coefficient is  0.10712757D+02

 Leave Link  801 at Tue Jun 17 15:57:53 2014, MaxMem=  4294967296 cpu:         0.4
 (Enter /home/ztw1e12/g09/l1002.exe)
 Minotr:  Closed shell wavefunction.
          IDoAtm=1111111111111111111111111111111
          Direct CPHF calculation.
          Differentiating once with respect to Fermi-contact.
          Electric field/nuclear overlap derivatives assumed to be zero.
          Requested convergence is 1.0D-10 RMS, and 1.0D-09 maximum.
          Secondary convergence is 1.0D-12 RMS, and 1.0D-12 maximum.
          NewPWx=T KeepS1=F KeepF1=F KeepIn=T MapXYZ=F SortEE=F KeepMc=T.
          MDV=    4294966050 using IRadAn=  199590.
 Using stored XC quadrature information.
          Solving linear equations simultaneously, MaxMat=       0.
          There are    31 degrees of freedom in the 1st order CPHF.  IDoFFX=0 NUNeed=    31.
     31 vectors produced by pass  0 Test12= 1.45D-17 3.23D-11 XBig12= 4.16D+01 2.57D+00.
 AX will form    31 AO Fock derivatives at one time.
 FoFJK:  IHMeth= 1 ICntrl=       0 DoSepK=F KAlg= 0 I1Cent=   0 FoldK=F
 IRaf= 500000000 NMat=  31 IRICut=       1 DoRegI=T DoRafI=F ISym2E=-1.
 FoFCou: FMM=F IPFlag=           0 FMFlag=      100000 FMFlg1=           0
         NFxFlg=           0 DoJE=F BraDBF=F KetDBF=F FulRan=T
         wScrn=  0.000000 ICntrl=       0 IOpCl=  0 I1Cent=           0 NGrid=           0
         NMat0=   31 NMatS0=      0 NMatT0=   31 NMatD0=   31 NMtDS0=    0 NMtDT0=    0
 Petite list used in FoFCou.
     31 vectors produced by pass  1 Test12= 1.45D-17 3.23D-11 XBig12= 3.48D-01 1.77D-01.
     31 vectors produced by pass  2 Test12= 1.45D-17 3.23D-11 XBig12= 1.73D-02 4.88D-02.
     31 vectors produced by pass  3 Test12= 1.45D-17 3.23D-11 XBig12= 3.91D-04 6.51D-03.
     31 vectors produced by pass  4 Test12= 1.45D-17 3.23D-11 XBig12= 6.70D-06 9.69D-04.
     31 vectors produced by pass  5 Test12= 1.45D-17 3.23D-11 XBig12= 1.50D-07 1.98D-04.
     31 vectors produced by pass  6 Test12= 1.45D-17 3.23D-11 XBig12= 3.33D-09 2.42D-05.
     31 vectors produced by pass  7 Test12= 1.45D-17 3.23D-11 XBig12= 1.10D-10 4.37D-06.
     31 vectors produced by pass  8 Test12= 1.45D-17 3.23D-11 XBig12= 2.59D-12 3.76D-07.
     31 vectors produced by pass  9 Test12= 1.45D-17 3.23D-11 XBig12= 7.24D-14 8.55D-08.
     31 vectors produced by pass 10 Test12= 1.45D-17 3.23D-11 XBig12= 2.72D-15 9.12D-09.
     30 vectors produced by pass 11 Test12= 1.45D-17 3.23D-11 XBig12= 2.43D-17 7.18D-10.
      6 vectors produced by pass 12 Test12= 1.45D-17 3.23D-11 XBig12= 2.28D-19 4.36D-11.
 InvSVY:  IOpt=1 It=  1 EMax= 7.11D-15
 Solved reduced A of dimension   377 with    31 vectors.
 Max diff in FC couplings:  IJMax=    22    17 Diff= 2.87D-04 IJMaxR=    17    15 DiffR= 8.86D-01
 Fermi Contact (FC) contribution to K (Hz):
                1             2             3             4             5 
      1  0.123400D+11
      2  0.272936D+02  0.123400D+11
      3 -0.100055D+01  0.189498D+02  0.123400D+11
      4 -0.840609D-01  0.247659D+01 -0.278254D-01  0.123400D+11
      5 -0.127769D-01  0.216912D+00 -0.303714D-02  0.176082D+02  0.123400D+11
      6 -0.390838D-03  0.151071D-02 -0.201237D-02  0.172485D+02 -0.762785D+00
      7  0.116375D-02 -0.274902D-01 -0.593761D-03  0.170107D+02 -0.765090D+00
      8 -0.966266D+01  0.272509D+01  0.412562D+00  0.669965D-01  0.248164D-02
      9  0.154474D+00  0.190499D+02 -0.649313D+00 -0.131832D-01 -0.124314D-01
     10  0.705197D-01  0.246278D+00  0.156586D+00  0.185563D-01  0.757347D-03
     11  0.290535D+02  0.137814D+02  0.169282D+00  0.108538D-02  0.362558D-03
     12  0.473499D+00  0.122953D+00 -0.217974D-01  0.152330D-03 -0.178864D-03
     13 -0.377446D+00  0.112397D+01  0.125326D-01 -0.245541D-02 -0.437887D-03
     14  0.177836D+00 -0.893862D-01  0.140283D-01  0.141875D-02  0.299596D-03
     15  0.211172D+00 -0.782055D-01  0.751932D-02  0.352423D-03  0.190793D-03
     16  0.962540D+00 -0.269905D-01 -0.710493D-03  0.880349D-04  0.749066D-05
     17  0.149032D+00 -0.413143D+00  0.256281D+00  0.658431D-01  0.304663D-02
     18 -0.162506D+00  0.887144D+00 -0.812546D-01 -0.177966D-02 -0.568493D-03
     19 -0.195022D-02  0.104855D+00 -0.169124D-02  0.930591D-03  0.189981D-04
     20  0.579165D-01  0.207164D-01  0.191381D-01  0.428326D-03  0.576940D-04
     21  0.721308D-01  0.356809D-01  0.261541D-01  0.409002D-03 -0.693108D-04
     22  0.496233D+00  0.837744D+00  0.242276D+00  0.280948D-01  0.625929D-02
     23  0.988722D+00 -0.381259D+00  0.101899D+01  0.170044D+02 -0.522334D+00
     24 -0.343671D-01  0.259480D+00 -0.168886D-01 -0.768522D+00  0.138080D+00
     25 -0.447575D-01  0.176110D+00 -0.868362D-02 -0.128415D+00  0.319925D+00
     26  0.146252D-02 -0.440196D-02  0.597209D-02  0.281452D+00 -0.389007D-02
     27  0.340818D-01  0.931874D-02  0.719000D-02  0.145628D+01  0.488526D-03
     28  0.586251D-02 -0.843454D-02  0.859658D-02  0.478392D+00 -0.122379D-01
     29 -0.428688D+00  0.163430D+02 -0.824165D+00  0.297498D+00  0.139690D+01
     30  0.937793D+00 -0.884333D+00  0.751746D-01  0.343013D+00 -0.753917D-02
     31  0.462101D-01 -0.430323D+00  0.235730D+00  0.362595D+00  0.923186D-02
                6             7             8             9            10 
      6  0.123400D+11
      7 -0.749709D+00  0.123400D+11
      8  0.475554D-02  0.390724D-01  0.123400D+11
      9  0.293776D-02  0.498899D-02  0.321189D+00  0.123400D+11
     10 -0.128539D-03 -0.170666D-03  0.790015D-02  0.318552D+02  0.123400D+11
     11  0.122925D-02  0.135072D-02  0.640057D+01  0.116055D+01  0.190189D+00
     12  0.147530D-04 -0.118653D-03  0.471002D+00  0.490357D-01  0.209284D-03
     13  0.225558D-04  0.142232D-02  0.630657D+00  0.302688D+00  0.173174D-01
     14  0.158968D-04  0.613709D-03  0.237404D+00 -0.706636D-02 -0.133161D-02
     15  0.123791D-04  0.131286D-03  0.245976D+00 -0.289997D-02 -0.116297D-02
     16  0.558279D-05  0.767951D-04  0.178860D+00  0.227790D-01 -0.950235D-03
     17  0.206547D-02 -0.546108D-03  0.412015D-01  0.265240D+02  0.418723D+00
     18  0.630374D-04  0.391234D-04  0.738469D-01  0.126126D+02  0.936255D-01
     19  0.589503D-04 -0.181470D-04 -0.420619D-03  0.342702D+00 -0.973219D-02
     20  0.170652D-04 -0.937145D-05  0.434992D-02  0.369582D+00 -0.723792D-02
     21 -0.163564D-04  0.531198D-05  0.264978D-02  0.371365D+00 -0.161227D-01
     22  0.892746D-04 -0.421483D-03  0.573908D+00  0.575444D+01  0.430754D+00
     23 -0.557803D+00 -0.762052D+00  0.476189D+00 -0.356555D-01 -0.299699D-03
     24  0.121008D+00  0.382347D+00  0.140150D+00  0.618677D-02  0.130649D-02
     25  0.127360D+01  0.380055D+00  0.117326D+01  0.122309D+01 -0.619479D-01
     26 -0.921060D-02 -0.128020D-01  0.127425D-01  0.182387D+00 -0.306842D-01
     27  0.912164D-01 -0.455064D-02  0.354651D-01  0.408751D+00 -0.309909D-01
     28  0.157437D-01 -0.410924D-02  0.144535D-01  0.304826D+00 -0.264569D-01
     29  0.358968D+00  0.378709D+00  0.291141D+00  0.548817D+00  0.481366D+00
     30 -0.299946D-02 -0.149631D-01  0.651414D-01  0.855297D+00 -0.245456D-01
     31 -0.126091D-01 -0.575717D-02 -0.157523D-01  0.177745D+01 -0.223618D-01
               11            12            13            14            15 
     11  0.123400D+11
     12  0.313431D+02  0.123400D+11
     13  0.170671D+02  0.331428D+00  0.123400D+11
     14 -0.578931D+00  0.732674D-01  0.197003D+02  0.123400D+11
     15 -0.551074D+00  0.144309D+00  0.202898D+02 -0.731422D+00  0.123400D+11
     16 -0.399524D+00  0.288818D+00  0.182227D+02 -0.735017D+00 -0.762731D+00
     17 -0.614799D-01  0.513741D-03 -0.794138D-02  0.557694D-03  0.359185D-04
     18  0.165365D-01  0.763593D-03  0.104298D-01  0.163369D-02  0.119475D-02
     19  0.641424D-02  0.689422D-04  0.674365D-04 -0.622107D-04 -0.387483D-04
     20 -0.274010D-02 -0.166479D-03 -0.375804D-03  0.289484D-04 -0.421860D-04
     21  0.133238D-01 -0.844512D-04  0.202319D-02  0.117636D-03 -0.560132D-04
     22  0.168774D+00 -0.158609D-02  0.656132D-02  0.686577D-02  0.400010D-02
     23 -0.107856D+00  0.287807D-02  0.992174D-02  0.852015D-03 -0.197071D-02
     24  0.138958D-01  0.406676D-03  0.897510D-02  0.418053D-02  0.377406D-04
     25  0.606240D-01  0.186204D-02 -0.259272D-03  0.182877D-02 -0.882631D-03
     26  0.235016D-02 -0.694734D-04 -0.353100D-04  0.788172D-03  0.234062D-03
     27 -0.964530D-02 -0.315677D-03  0.127150D-03  0.177625D-03  0.173731D-03
     28  0.609062D-02 -0.919826D-04  0.100009D-03  0.642846D-05  0.464301D-04
     29  0.100083D+00 -0.386114D-01 -0.127486D+00  0.770640D-01  0.984316D-01
     30 -0.292933D-01 -0.622330D-02 -0.927135D-02  0.565783D-02  0.661394D-02
     31  0.512305D-01 -0.520669D-02 -0.655240D-03  0.480349D-03  0.533346D-03
               16            17            18            19            20 
     16  0.123400D+11
     17 -0.155964D-03  0.123400D+11
     18  0.217164D-03  0.272281D+02  0.123400D+11
     19  0.562798D-05 -0.752923D+00  0.170735D+02  0.123400D+11
     20  0.116777D-03 -0.117866D+01  0.178756D+02 -0.720819D+00  0.123400D+11
     21  0.349398D-03 -0.121435D+01  0.179887D+02 -0.744205D+00 -0.923415D+00
     22  0.208997D-02 -0.952596D+01  0.376014D+01  0.834322D+00  0.426171D+00
     23  0.976643D-03 -0.457103D-01  0.329917D-02  0.396617D-03 -0.132214D-02
     24  0.403502D-03  0.129047D-02 -0.484118D-03  0.419401D-04  0.578943D-04
     25  0.600471D-03  0.341017D-01 -0.106747D-01 -0.796058D-03  0.197582D-02
     26  0.598876D-04  0.125731D-01  0.299797D-03  0.692617D-03 -0.455552D-05
     27  0.579400D-04  0.327609D-01  0.170302D-02  0.166571D-02  0.778062D-03
     28  0.422013D-05  0.234524D-01 -0.151635D-02  0.281385D-03  0.477886D-03
     29  0.182907D-02  0.144230D+01 -0.387553D-01 -0.156241D-02  0.100416D-01
     30  0.243455D-03 -0.290694D-02  0.197702D-01 -0.177354D-03 -0.241999D-03
     31  0.230796D-03  0.105401D+00  0.613198D-01 -0.277599D-04  0.165489D-02
               21            22            23            24            25 
     21  0.123400D+11
     22  0.448078D+00  0.123400D+11
     23 -0.137579D-03  0.533154D-01  0.123400D+11
     24  0.242075D-03  0.715547D-02  0.174659D+02  0.123400D+11
     25  0.114958D-02  0.960695D-01  0.170972D+02 -0.616435D+00  0.123400D+11
     26 -0.137423D-03  0.333713D-02 -0.669159D+00  0.353850D+00  0.161509D+02
     27  0.330270D-03  0.448240D-02 -0.634969D+00  0.148973D+00  0.178414D+02
     28  0.257768D-03  0.800005D-02 -0.653206D+00  0.961874D-01  0.173812D+02
     29 -0.409688D-02  0.169649D+00  0.173413D+02 -0.715220D+00 -0.217445D+00
     30 -0.692006D-03  0.460373D-02 -0.640885D+00  0.341217D+00  0.367568D+00
     31 -0.171625D-02 -0.754628D-02 -0.667180D+00  0.126676D+00  0.109069D+01
               26            27            28            29            30 
     26  0.123400D+11
     27 -0.741313D+00  0.123400D+11
     28 -0.803942D+00 -0.851348D+00  0.123400D+11
     29  0.411352D+00  0.111843D+00  0.112731D+01  0.123400D+11
     30 -0.222091D-01 -0.454503D-02 -0.152614D-01  0.172036D+02  0.123400D+11
     31 -0.109507D-01 -0.115607D-01  0.436798D-01  0.171789D+02 -0.887694D+00
               31 
     31  0.123400D+11
 Fermi Contact (FC) contribution to J (Hz):
                1             2             3             4             5 
      1  0.243533D+11
      2  0.538646D+02  0.243533D+11
      3 -0.785121D+01  0.148697D+03  0.385007D+12
      4 -0.165896D+00  0.488762D+01 -0.218343D+00  0.243533D+11
      5 -0.100259D+00  0.170209D+01 -0.947587D-01  0.138170D+03  0.385007D+12
      6 -0.306687D-02  0.118544D-01 -0.627859D-01  0.135347D+03 -0.237989D+02
      7  0.913185D-02 -0.215713D+00 -0.185253D-01  0.133481D+03 -0.238708D+02
      8  0.102828D+02 -0.289998D+01 -0.174566D+01 -0.712964D-01 -0.105005D-01
      9  0.876193D-01  0.108054D+02 -0.146439D+01 -0.747770D-02 -0.280363D-01
     10  0.553361D+00  0.193252D+01  0.488548D+01  0.145610D+00  0.236292D-01
     11  0.164795D+02  0.781700D+01  0.381779D+00  0.615641D-03  0.817671D-03
     12  0.371550D+01  0.964799D+00 -0.680077D+00  0.119532D-02 -0.558054D-02
     13 -0.744899D+00  0.221819D+01  0.983424D-01 -0.484582D-02 -0.343606D-02
     14  0.139546D+01 -0.701405D+00  0.437682D+00  0.111328D-01  0.934740D-02
     15  0.165704D+01 -0.613671D+00  0.234602D+00  0.276543D-02  0.595272D-02
     16  0.755296D+01 -0.211792D+00 -0.221674D-01  0.690801D-03  0.233708D-03
     17  0.294118D+00 -0.815348D+00  0.201101D+01  0.129943D+00  0.239066D-01
     18 -0.320709D+00  0.175080D+01 -0.637597D+00 -0.351220D-02 -0.446091D-02
     19 -0.153032D-01  0.822790D+00 -0.527667D-01  0.730226D-02  0.592739D-03
     20  0.454465D+00  0.162560D+00  0.597109D+00  0.336104D-02  0.180005D-02
     21  0.566003D+00  0.279985D+00  0.816006D+00  0.320940D-02 -0.216249D-02
     22 -0.528081D+00 -0.891511D+00 -0.102514D+01 -0.298980D-01 -0.264847D-01
     23  0.195127D+01 -0.752423D+00  0.799591D+01  0.335586D+02 -0.409871D+01
     24 -0.269676D+00  0.203611D+01 -0.526925D+00 -0.603052D+01  0.430809D+01
     25 -0.883301D-01  0.347557D+00 -0.681396D-01 -0.253430D+00  0.251042D+01
     26  0.114762D-01 -0.345418D-01  0.186329D+00  0.220853D+01 -0.121370D+00
     27  0.267437D+00  0.731233D-01  0.224328D+00  0.114273D+02  0.152420D-01
     28  0.460026D-01 -0.661850D-01  0.268213D+00  0.375390D+01 -0.381821D+00
     29 -0.846026D+00  0.322533D+02 -0.646714D+01  0.587119D+00  0.109613D+02
     30  0.735877D+01 -0.693927D+01  0.234544D+01  0.269159D+01 -0.235222D+00
     31  0.362606D+00 -0.337670D+01  0.735476D+01  0.284525D+01  0.288034D+00
                6             7             8             9            10 
      6  0.385007D+12
      7 -0.233909D+02  0.385007D+12
      8 -0.201220D-01 -0.165326D+00  0.708114D+10
      9  0.662549D-02  0.112516D-01 -0.982380D-01  0.201170D+10
     10 -0.401042D-02 -0.532478D-02 -0.334277D-01  0.718425D+02  0.385007D+12
     11  0.277231D-02  0.304625D-02 -0.195766D+01  0.189196D+00  0.428931D+00
     12  0.460294D-03 -0.370197D-02 -0.199294D+01  0.110589D+00  0.652964D-02
     13  0.176994D-03  0.111608D-01 -0.671133D+00  0.171688D+00  0.135888D+00
     14  0.495979D-03  0.191477D-01 -0.100452D+01 -0.159366D-01 -0.415462D-01
     15  0.386228D-03  0.409612D-02 -0.104079D+01 -0.654026D-02 -0.362846D-01
     16  0.174183D-03  0.239600D-02 -0.756804D+00  0.513732D-01 -0.296473D-01
     17  0.162076D-01 -0.428526D-02 -0.438458D-01  0.150447D+02  0.328568D+01
     18  0.494648D-03  0.306997D-03 -0.785865D-01  0.715405D+01  0.734670D+00
     19  0.183925D-02 -0.566186D-03  0.177975D-02  0.772891D+00 -0.303644D+00
     20  0.532434D-03 -0.292389D-03 -0.184057D-01  0.833512D+00 -0.225823D+00
     21 -0.510320D-03  0.165734D-03 -0.112119D-01  0.837535D+00 -0.503027D+00
     22 -0.377745D-03  0.178341D-02  0.329329D+00 -0.176004D+01 -0.182264D+01
     23 -0.437703D+01 -0.597975D+01 -0.506751D+00 -0.202242D-01 -0.235171D-02
     24  0.377543D+01  0.119292D+02 -0.593015D+00  0.139529D-01  0.407623D-01
     25  0.999385D+01  0.298225D+01 -0.124856D+01  0.693753D+00 -0.486099D+00
     26 -0.287370D+00 -0.399423D+00 -0.539171D-01  0.411334D+00 -0.957344D+00
     27  0.284595D+01 -0.141980D+00 -0.150063D+00  0.921849D+00 -0.966914D+00
     28  0.491203D+00 -0.128208D+00 -0.611567D-01  0.687469D+00 -0.825454D+00
     29  0.281678D+01  0.297169D+01 -0.309826D+00  0.311296D+00  0.377723D+01
     30 -0.935831D-01 -0.466849D+00 -0.275631D+00  0.192894D+01 -0.765822D+00
     31 -0.393403D+00 -0.179623D+00  0.666525D-01  0.400867D+01 -0.697686D+00
               11            12            13            14            15 
     11  0.201170D+10
     12  0.706876D+02  0.385007D+12
     13  0.968066D+01  0.260069D+01  0.243533D+11
     14 -0.130566D+01  0.228594D+01  0.154586D+03  0.385007D+12
     15 -0.124283D+01  0.450244D+01  0.159212D+03 -0.228203D+02  0.385007D+12
     16 -0.901041D+00  0.901112D+01  0.142991D+03 -0.229325D+02 -0.237972D+02
     17 -0.348722D-01  0.403127D-02 -0.156725D-01  0.437617D-02  0.281849D-03
     18  0.937970D-02  0.599184D-02  0.205836D-01  0.128194D-01  0.937511D-02
     19  0.144659D-01  0.215099D-02  0.529167D-03 -0.194097D-02 -0.120895D-02
     20 -0.617970D-02 -0.519414D-02 -0.294890D-02  0.903189D-03 -0.131620D-02
     21  0.300490D-01 -0.263488D-02  0.158758D-01  0.367024D-02 -0.174761D-02
     22 -0.516207D-01  0.671118D-02 -0.698243D-02 -0.290509D-01 -0.169255D-01
     23 -0.611771D-01  0.225840D-01  0.195808D-01  0.668568D-02 -0.154640D-01
     24  0.313389D-01  0.126883D-01  0.704268D-01  0.130432D+00  0.117751D-02
     25  0.343867D-01  0.146113D-01 -0.511679D-03  0.143501D-01 -0.692592D-02
     26  0.530028D-02 -0.216757D-02 -0.277074D-03  0.245909D-01  0.730273D-02
     27 -0.217529D-01 -0.984912D-02  0.997737D-03  0.554188D-02  0.542040D-02
     28  0.137361D-01 -0.286985D-02  0.784759D-03  0.200568D-03  0.144862D-02
     29  0.567682D-01 -0.302980D+00 -0.251596D+00  0.604714D+00  0.772383D+00
     30 -0.660648D-01 -0.194167D+00 -0.727514D-01  0.176524D+00  0.206355D+00
     31  0.115539D+00 -0.162448D+00 -0.514160D-02  0.149869D-01  0.166404D-01
               16            17            18            19            20 
     16  0.385007D+12
     17 -0.122384D-02  0.243533D+11
     18  0.170407D-02  0.537353D+02  0.243533D+11
     19  0.175593D-03 -0.590812D+01  0.133974D+03  0.385007D+12
     20  0.364345D-02 -0.924879D+01  0.140268D+03 -0.224895D+02  0.385007D+12
     21  0.109012D-01 -0.952888D+01  0.141156D+03 -0.232192D+02 -0.288105D+02
     22 -0.884322D-02  0.101373D+02 -0.400147D+01 -0.353025D+01 -0.180325D+01
     23  0.766362D-02 -0.902104D-01  0.651100D-02  0.311221D-02 -0.103747D-01
     24  0.125892D-01  0.101262D-01 -0.379882D-02  0.130853D-02  0.180630D-02
     25  0.471184D-02  0.673005D-01 -0.210668D-01 -0.624659D-02  0.155041D-01
     26  0.186849D-02  0.986601D-01  0.235248D-02  0.216096D-01 -0.142132D-03
     27  0.180773D-02  0.257072D+00  0.133634D-01  0.519702D-01  0.242755D-01
     28  0.131668D-03  0.184029D+00 -0.118987D-01  0.877921D-02  0.149100D-01
     29  0.143525D-01  0.284641D+01 -0.764845D-01 -0.122601D-01  0.787954D-01
     30  0.759579D-02 -0.228105D-01  0.155134D+00 -0.553345D-02 -0.755035D-02
     31  0.720081D-02  0.827075D+00  0.481170D+00 -0.866106D-03  0.516325D-01
               21            22            23            24            25 
     21  0.385007D+12
     22 -0.189594D+01  0.708114D+10
     23 -0.107957D-02 -0.567372D-01  0.243533D+11
     24  0.755273D-02 -0.302767D-01  0.137053D+03  0.385007D+12
     25  0.902064D-02 -0.102235D+00  0.337418D+02 -0.483711D+01  0.243533D+11
     26 -0.428760D-02 -0.141203D-01 -0.525083D+01  0.110401D+02  0.126735D+03
     27  0.103044D-01 -0.189663D-01 -0.498254D+01  0.464795D+01  0.140000D+03
     28  0.804236D-02 -0.338504D-01 -0.512565D+01  0.300104D+01  0.136388D+03
     29 -0.321479D-01 -0.180537D+00  0.342235D+02 -0.561226D+01 -0.429133D+00
     30 -0.215905D-01 -0.194796D-01 -0.502897D+01  0.106460D+02  0.288427D+01
     31 -0.535468D-01  0.319304D-01 -0.523530D+01  0.395230D+01  0.855854D+01
               26            27            28            29            30 
     26  0.385007D+12
     27 -0.231289D+02  0.385007D+12
     28 -0.250830D+02 -0.265620D+02  0.385007D+12
     29  0.322784D+01  0.877619D+00  0.884586D+01  0.243533D+11
     30 -0.692922D+00 -0.141805D+00 -0.476155D+00  0.134995D+03  0.385007D+12
     31 -0.341662D+00 -0.360693D+00  0.136281D+01  0.134801D+03 -0.276960D+02
               31 
     31  0.385007D+12
 End of Minotr F.D. properties file   721 does not exist.
 End of Minotr F.D. properties file   722 does not exist.
 End of Minotr F.D. properties file   788 does not exist.
 Leave Link 1002 at Tue Jun 17 22:35:28 2014, MaxMem=  4294967296 cpu:    380738.5
 (Enter /home/ztw1e12/g09/l601.exe)
 Copying SCF densities to generalized density rwf, IOpCl= 0 IROHF=0.

 **********************************************************************

            Population analysis using the SCF density.

 **********************************************************************

 Orbital symmetries:
       Occupied  (A) (A) (A) (A) (A) (A) (A) (A) (A) (A) (A) (A)
                 (A) (A) (A) (A) (A) (A) (A) (A) (A) (A) (A) (A)
                 (A) (A) (A) (A) (A) (A) (A) (A) (A) (A) (A) (A)
                 (A) (A) (A) (A) (A) (A) (A) (A) (A) (A) (A) (A)
                 (A) (A) (A)
       Virtual   (A) (A) (A) (A) (A) (A) (A) (A) (A) (A) (A) (A)
                 (A) (A) (A) (A) (A) (A) (A) (A) (A) (A) (A) (A)
                 (A) (A) (A) (A) (A) (A) (A) (A) (A) (A) (A) (A)
                 (A) (A) (A) (A) (A) (A) (A) (A) (A) (A) (A) (A)
                 (A) (A) (A) (A) (A) (A) (A) (A) (A) (A) (A) (A)
                 (A) (A) (A) (A) (A) (A) (A) (A) (A) (A) (A) (A)
                 (A) (A) (A) (A) (A) (A) (A) (A) (A) (A) (A) (A)
                 (A) (A) (A) (A) (A) (A) (A) (A) (A) (A) (A) (A)
                 (A) (A) (A) (A) (A) (A) (A) (A) (A) (A) (A) (A)
                 (A) (A) (A) (A) (A) (A) (A) (A) (A) (A) (A) (A)
                 (A) (A) (A) (A) (A) (A) (A) (A) (A) (A) (A) (A)
                 (A) (A) (A) (A) (A) (A) (A) (A) (A) (A) (A) (A)
                 (A) (A) (A) (A) (A) (A) (A) (A) (A) (A) (A) (A)
                 (A) (A) (A) (A) (A) (A) (A) (A) (A) (A) (A) (A)
                 (A) (A) (A) (A) (A) (A) (A) (A) (A) (A) (A) (A)
                 (A) (A) (A) (A) (A) (A) (A) (A) (A) (A) (A) (A)
                 (A) (A) (A) (A) (A) (A) (A) (A) (A) (A) (A) (A)
                 (A) (A) (A) (A) (A) (A) (A) (A) (A) (A) (A) (A)
                 (A) (A) (A) (A) (A) (A) (A) (A) (A) (A) (A) (A)
                 (A) (A) (A) (A) (A) (A) (A) (A) (A) (A) (A) (A)
                 (A) (A) (A) (A) (A) (A) (A) (A) (A) (A) (A) (A)
                 (A) (A) (A) (A) (A) (A) (A) (A) (A) (A) (A) (A)
                 (A) (A) (A) (A) (A) (A) (A) (A) (A) (A) (A) (A)
                 (A) (A) (A) (A) (A) (A) (A) (A) (A) (A) (A) (A)
                 (A) (A) (A) (A) (A) (A) (A) (A) (A) (A) (A) (A)
                 (A) (A) (A) (A) (A) (A) (A) (A) (A) (A) (A) (A)
                 (A) (A) (A) (A) (A) (A) (A) (A) (A) (A) (A) (A)
                 (A) (A) (A) (A) (A) (A) (A) (A) (A) (A) (A) (A)
                 (A) (A) (A) (A) (A) (A) (A) (A) (A) (A) (A) (A)
                 (A) (A) (A) (A) (A) (A) (A) (A) (A) (A) (A) (A)
                 (A) (A) (A) (A) (A) (A) (A) (A) (A) (A) (A) (A)
                 (A) (A) (A) (A) (A) (A) (A) (A) (A) (A) (A) (A)
                 (A) (A) (A) (A) (A) (A) (A) (A) (A) (A) (A) (A)
                 (A) (A) (A) (A) (A) (A) (A) (A) (A) (A) (A) (A)
                 (A) (A) (A) (A) (A) (A) (A) (A) (A) (A) (A) (A)
                 (A) (A) (A) (A) (A) (A) (A) (A) (A) (A) (A) (A)
                 (A) (A) (A) (A) (A) (A) (A) (A) (A) (A) (A) (A)
                 (A) (A) (A) (A) (A) (A) (A) (A) (A) (A) (A) (A)
                 (A) (A) (A) (A) (A) (A) (A) (A) (A) (A) (A) (A)
                 (A) (A) (A) (A) (A) (A) (A) (A) (A) (A) (A) (A)
                 (A) (A) (A) (A) (A) (A) (A) (A) (A) (A) (A) (A)
                 (A) (A) (A) (A) (A) (A) (A) (A) (A) (A) (A) (A)
                 (A) (A) (A) (A) (A) (A) (A) (A) (A) (A) (A) (A)
                 (A) (A) (A) (A) (A) (A) (A) (A) (A) (A) (A) (A)
                 (A) (A) (A) (A) (A) (A) (A) (A) (A) (A) (A) (A)
                 (A) (A) (A) (A) (A) (A) (A) (A) (A) (A) (A) (A)
                 (A) (A) (A) (A) (A) (A) (A) (A) (A) (A) (A) (A)
                 (A) (A) (A) (A) (A) (A) (A) (A) (A) (A) (A) (A)
                 (A) (A) (A) (A) (A) (A) (A) (A) (A) (A) (A) (A)
                 (A) (A) (A) (A) (A) (A) (A) (A) (A) (A) (A) (A)
                 (A) (A) (A) (A) (A) (A) (A) (A) (A) (A) (A) (A)
                 (A) (A) (A) (A) (A) (A) (A) (A) (A) (A) (A) (A)
                 (A) (A) (A) (A) (A) (A) (A) (A) (A) (A) (A) (A)
                 (A) (A) (A) (A) (A) (A) (A) (A) (A) (A) (A) (A)
                 (A) (A) (A) (A) (A) (A) (A) (A) (A) (A) (A) (A)
                 (A) (A) (A) (A) (A) (A) (A) (A) (A) (A) (A) (A)
                 (A) (A) (A) (A) (A) (A) (A) (A) (A) (A) (A) (A)
                 (A) (A) (A) (A) (A) (A) (A) (A) (A) (A) (A) (A)
                 (A) (A) (A) (A) (A) (A) (A) (A) (A) (A) (A) (A)
                 (A) (A) (A) (A) (A) (A) (A) (A) (A) (A) (A) (A)
                 (A) (A) (A) (A) (A) (A) (A) (A) (A) (A) (A) (A)
                 (A) (A) (A) (A) (A) (A) (A) (A) (A) (A) (A) (A)
                 (A) (A) (A) (A) (A) (A) (A) (A) (A) (A) (A) (A)
                 (A) (A) (A) (A) (A) (A) (A) (A) (A) (A) (A) (A)
                 (A) (A) (A) (A) (A) (A) (A) (A) (A) (A) (A) (A)
                 (A) (A) (A) (A) (A) (A) (A) (A) (A) (A) (A) (A)
                 (A) (A) (A) (A) (A) (A) (A) (A) (A) (A) (A) (A)
                 (A) (A) (A) (A) (A) (A) (A) (A) (A) (A) (A) (A)
                 (A) (A) (A) (A) (A) (A) (A) (A) (A) (A) (A) (A)
                 (A) (A) (A) (A) (A) (A) (A) (A) (A) (A) (A) (A)
                 (A) (A) (A) (A) (A) (A) (A) (A) (A) (A) (A) (A)
                 (A) (A) (A) (A) (A) (A) (A) (A) (A) (A) (A) (A)
                 (A) (A) (A) (A) (A) (A) (A) (A) (A) (A) (A) (A)
                 (A) (A) (A) (A) (A)
 The electronic state is 1-A.
 Alpha  occ. eigenvalues --  -19.17124 -19.16370 -14.41828 -14.41354 -10.33395
 Alpha  occ. eigenvalues --  -10.33259 -10.29178 -10.27118 -10.25684 -10.25195
 Alpha  occ. eigenvalues --  -10.23719 -10.23386 -10.23124  -1.05345  -1.04011
 Alpha  occ. eigenvalues --   -0.94308  -0.94122  -0.83942  -0.78565  -0.74305
 Alpha  occ. eigenvalues --   -0.71984  -0.70254  -0.66048  -0.60976  -0.59557
 Alpha  occ. eigenvalues --   -0.58326  -0.54557  -0.50887  -0.49658  -0.48668
 Alpha  occ. eigenvalues --   -0.46817  -0.46320  -0.45352  -0.44834  -0.44418
 Alpha  occ. eigenvalues --   -0.42507  -0.41370  -0.40801  -0.40366  -0.40237
 Alpha  occ. eigenvalues --   -0.40110  -0.38667  -0.37514  -0.36536  -0.35113
 Alpha  occ. eigenvalues --   -0.34665  -0.33921  -0.28190  -0.27525  -0.26101
 Alpha  occ. eigenvalues --   -0.25964
 Alpha virt. eigenvalues --    0.01043   0.02796   0.02864   0.03847   0.04483
 Alpha virt. eigenvalues --    0.04960   0.06350   0.07416   0.07736   0.08537
 Alpha virt. eigenvalues --    0.09436   0.10570   0.10792   0.11853   0.12104
 Alpha virt. eigenvalues --    0.12584   0.12737   0.13614   0.14030   0.14652
 Alpha virt. eigenvalues --    0.16433   0.16702   0.18311   0.18576   0.18642
 Alpha virt. eigenvalues --    0.21755   0.22277   0.22589   0.24101   0.25137
 Alpha virt. eigenvalues --    0.25335   0.26288   0.26695   0.27561   0.28124
 Alpha virt. eigenvalues --    0.28786   0.29183   0.30985   0.31419   0.31919
 Alpha virt. eigenvalues --    0.32704   0.34301   0.34689   0.35731   0.36131
 Alpha virt. eigenvalues --    0.36868   0.37365   0.37749   0.38469   0.38893
 Alpha virt. eigenvalues --    0.39083   0.40318   0.40390   0.40797   0.41348
 Alpha virt. eigenvalues --    0.41603   0.41932   0.42273   0.42638   0.43294
 Alpha virt. eigenvalues --    0.43768   0.44287   0.44571   0.44721   0.45187
 Alpha virt. eigenvalues --    0.46212   0.46455   0.47264   0.47644   0.48297
 Alpha virt. eigenvalues --    0.49031   0.50117   0.50986   0.52516   0.52798
 Alpha virt. eigenvalues --    0.53297   0.54572   0.55846   0.56136   0.57648
 Alpha virt. eigenvalues --    0.57896   0.59043   0.60855   0.60923   0.61603
 Alpha virt. eigenvalues --    0.62503   0.63601   0.64854   0.66605   0.67322
 Alpha virt. eigenvalues --    0.68380   0.71056   0.71486   0.72677   0.73069
 Alpha virt. eigenvalues --    0.74873   0.75467   0.76544   0.77123   0.78052
 Alpha virt. eigenvalues --    0.79499   0.80437   0.81983   0.82494   0.83747
 Alpha virt. eigenvalues --    0.84466   0.85211   0.85621   0.86692   0.87288
 Alpha virt. eigenvalues --    0.88138   0.88717   0.88931   0.89728   0.91352
 Alpha virt. eigenvalues --    0.92232   0.93259   0.94221   0.94723   0.94977
 Alpha virt. eigenvalues --    0.95654   0.96107   0.96652   0.97104   0.98152
 Alpha virt. eigenvalues --    0.98788   1.00430   1.00838   1.01890   1.02621
 Alpha virt. eigenvalues --    1.03170   1.03684   1.04355   1.05334   1.06754
 Alpha virt. eigenvalues --    1.07632   1.08538   1.09000   1.09872   1.10512
 Alpha virt. eigenvalues --    1.11103   1.11412   1.12194   1.12672   1.14217
 Alpha virt. eigenvalues --    1.15373   1.15877   1.17164   1.18195   1.18347
 Alpha virt. eigenvalues --    1.19031   1.19709   1.20739   1.21046   1.21196
 Alpha virt. eigenvalues --    1.21968   1.22014   1.22981   1.23254   1.23763
 Alpha virt. eigenvalues --    1.24456   1.24576   1.25306   1.26327   1.26759
 Alpha virt. eigenvalues --    1.27126   1.27981   1.28253   1.28684   1.29131
 Alpha virt. eigenvalues --    1.29701   1.31091   1.31243   1.31994   1.32931
 Alpha virt. eigenvalues --    1.33822   1.33917   1.35891   1.36426   1.36957
 Alpha virt. eigenvalues --    1.37821   1.39442   1.39920   1.40725   1.41382
 Alpha virt. eigenvalues --    1.43617   1.44712   1.44926   1.45925   1.48363
 Alpha virt. eigenvalues --    1.50047   1.50453   1.53076   1.53470   1.55555
 Alpha virt. eigenvalues --    1.56140   1.58286   1.60739   1.61021   1.63052
 Alpha virt. eigenvalues --    1.64869   1.67726   1.68408   1.69874   1.73413
 Alpha virt. eigenvalues --    1.74801   1.75339   1.77985   1.80189   1.82545
 Alpha virt. eigenvalues --    1.84909   1.88324   1.89190   1.90660   1.92477
 Alpha virt. eigenvalues --    1.93473   1.96364   1.97536   1.97878   1.99257
 Alpha virt. eigenvalues --    2.02180   2.02927   2.05128   2.06200   2.07252
 Alpha virt. eigenvalues --    2.08640   2.09273   2.12290   2.14314   2.14864
 Alpha virt. eigenvalues --    2.17337   2.18630   2.18898   2.19746   2.21476
 Alpha virt. eigenvalues --    2.23940   2.25622   2.27469   2.29832   2.30832
 Alpha virt. eigenvalues --    2.32545   2.34187   2.35483   2.36345   2.39961
 Alpha virt. eigenvalues --    2.40453   2.41811   2.42379   2.42568   2.44310
 Alpha virt. eigenvalues --    2.44808   2.45144   2.47471   2.48772   2.49407
 Alpha virt. eigenvalues --    2.51326   2.51955   2.52285   2.54546   2.55321
 Alpha virt. eigenvalues --    2.56616   2.57051   2.58037   2.59800   2.62217
 Alpha virt. eigenvalues --    2.63870   2.65612   2.67106   2.68814   2.69669
 Alpha virt. eigenvalues --    2.70402   2.70938   2.71280   2.72199   2.72933
 Alpha virt. eigenvalues --    2.73261   2.74324   2.75456   2.76266   2.77284
 Alpha virt. eigenvalues --    2.78775   2.80282   2.81472   2.81757   2.83952
 Alpha virt. eigenvalues --    2.84458   2.85335   2.86028   2.86877   2.87124
 Alpha virt. eigenvalues --    2.87451   2.88900   2.90123   2.91018   2.91628
 Alpha virt. eigenvalues --    2.91980   2.92588   2.93591   2.93930   2.94743
 Alpha virt. eigenvalues --    2.95717   2.96750   2.97071   2.98347   2.99077
 Alpha virt. eigenvalues --    2.99653   3.00798   3.01816   3.02426   3.02925
 Alpha virt. eigenvalues --    3.03347   3.03968   3.05123   3.05436   3.06345
 Alpha virt. eigenvalues --    3.06588   3.07800   3.08310   3.08943   3.10294
 Alpha virt. eigenvalues --    3.11265   3.11887   3.12401   3.14961   3.15187
 Alpha virt. eigenvalues --    3.16889   3.17333   3.17993   3.19365   3.19739
 Alpha virt. eigenvalues --    3.21145   3.21958   3.22337   3.24047   3.24244
 Alpha virt. eigenvalues --    3.25320   3.25922   3.27219   3.27823   3.27946
 Alpha virt. eigenvalues --    3.28947   3.29564   3.29920   3.31759   3.32325
 Alpha virt. eigenvalues --    3.32666   3.33406   3.33912   3.35774   3.36321
 Alpha virt. eigenvalues --    3.36465   3.37409   3.38202   3.38934   3.39781
 Alpha virt. eigenvalues --    3.40443   3.41370   3.42275   3.43181   3.43359
 Alpha virt. eigenvalues --    3.44355   3.44881   3.45756   3.46104   3.46519
 Alpha virt. eigenvalues --    3.47759   3.50213   3.50618   3.51603   3.53691
 Alpha virt. eigenvalues --    3.54237   3.55811   3.56996   3.59079   3.59113
 Alpha virt. eigenvalues --    3.60289   3.61147   3.63141   3.64963   3.65391
 Alpha virt. eigenvalues --    3.67161   3.68212   3.68741   3.69449   3.70670
 Alpha virt. eigenvalues --    3.72489   3.73362   3.73506   3.75179   3.75361
 Alpha virt. eigenvalues --    3.76267   3.77508   3.77785   3.78974   3.79692
 Alpha virt. eigenvalues --    3.81988   3.82370   3.83267   3.83717   3.84202
 Alpha virt. eigenvalues --    3.85016   3.86107   3.86805   3.87147   3.89337
 Alpha virt. eigenvalues --    3.90208   3.91532   3.92257   3.93285   3.94498
 Alpha virt. eigenvalues --    3.94789   3.95648   3.97251   3.98499   3.98819
 Alpha virt. eigenvalues --    4.01276   4.02914   4.03960   4.04808   4.05368
 Alpha virt. eigenvalues --    4.06747   4.07052   4.07566   4.09418   4.09663
 Alpha virt. eigenvalues --    4.11074   4.12259   4.12465   4.12993   4.14395
 Alpha virt. eigenvalues --    4.15987   4.17033   4.17684   4.19265   4.19577
 Alpha virt. eigenvalues --    4.21122   4.21431   4.22256   4.23318   4.25309
 Alpha virt. eigenvalues --    4.26158   4.27082   4.27253   4.28001   4.29481
 Alpha virt. eigenvalues --    4.29984   4.30550   4.31483   4.34257   4.36416
 Alpha virt. eigenvalues --    4.37040   4.38066   4.39788   4.41022   4.43027
 Alpha virt. eigenvalues --    4.43454   4.44784   4.46501   4.46903   4.48198
 Alpha virt. eigenvalues --    4.50294   4.52231   4.53935   4.55794   4.56605
 Alpha virt. eigenvalues --    4.57215   4.58924   4.59866   4.60570   4.60981
 Alpha virt. eigenvalues --    4.61513   4.62773   4.64420   4.64748   4.65807
 Alpha virt. eigenvalues --    4.66683   4.68098   4.69669   4.71157   4.72048
 Alpha virt. eigenvalues --    4.72250   4.73097   4.73900   4.76433   4.77413
 Alpha virt. eigenvalues --    4.78467   4.79441   4.79742   4.80762   4.82013
 Alpha virt. eigenvalues --    4.85161   4.87425   4.88460   4.90332   4.91104
 Alpha virt. eigenvalues --    4.92023   4.93562   4.94850   4.95977   4.96549
 Alpha virt. eigenvalues --    4.98280   4.99506   4.99945   5.02098   5.02436
 Alpha virt. eigenvalues --    5.02601   5.04933   5.05817   5.07583   5.10695
 Alpha virt. eigenvalues --    5.10861   5.12480   5.13384   5.14409   5.15404
 Alpha virt. eigenvalues --    5.17315   5.17993   5.18611   5.19460   5.20242
 Alpha virt. eigenvalues --    5.21537   5.23054   5.23380   5.24597   5.25074
 Alpha virt. eigenvalues --    5.26187   5.27186   5.28673   5.29710   5.30519
 Alpha virt. eigenvalues --    5.32131   5.34938   5.36055   5.39607   5.40378
 Alpha virt. eigenvalues --    5.41524   5.44622   5.45269   5.48280   5.50763
 Alpha virt. eigenvalues --    5.52793   5.53551   5.56210   5.57584   5.58568
 Alpha virt. eigenvalues --    5.60376   5.61894   5.62497   5.64387   5.65491
 Alpha virt. eigenvalues --    5.66572   5.68455   5.69548   5.71602   5.71957
 Alpha virt. eigenvalues --    5.73059   5.75219   5.76084   5.76666   5.79087
 Alpha virt. eigenvalues --    5.79926   5.81299   5.82898   5.86135   5.89016
 Alpha virt. eigenvalues --    5.90831   5.95399   5.98839   6.01655   6.06783
 Alpha virt. eigenvalues --    6.11446   6.18714   6.21736   6.23263   6.26617
 Alpha virt. eigenvalues --    6.52789   6.54279   6.58258   6.62834   6.64870
 Alpha virt. eigenvalues --    6.67222   6.78087   6.81513   6.90456   6.92038
 Alpha virt. eigenvalues --    6.92848   6.94149   7.18255   7.20343   7.24358
 Alpha virt. eigenvalues --    7.27410   8.13221   8.28014   8.66626   8.73271
 Alpha virt. eigenvalues --    8.78657   8.79112   8.82229   8.82625   8.83275
 Alpha virt. eigenvalues --    8.86234   8.88437   8.88824   8.91570   8.92658
 Alpha virt. eigenvalues --    8.93537   8.94576   8.96404   8.99113   9.01060
 Alpha virt. eigenvalues --    9.05193   9.09802   9.11333   9.13832   9.16669
 Alpha virt. eigenvalues --    9.23757   9.59683   9.62169   9.77464   9.83443
 Alpha virt. eigenvalues --    9.90250   9.94753  10.11447  10.12173  10.15034
 Alpha virt. eigenvalues --   10.18034  10.19551  10.20887  10.21685  10.26544
 Alpha virt. eigenvalues --   10.26989  10.29393  10.31801  10.32501  10.34639
 Alpha virt. eigenvalues --   10.40269  11.75354  11.82683  12.04023  12.14277
 Alpha virt. eigenvalues --   12.15540  12.20004  12.23884  12.24513  12.31602
 Alpha virt. eigenvalues --   12.40164  12.45690  12.55648  12.58642  12.83706
 Alpha virt. eigenvalues --   12.92699  14.97170  15.02626  15.24296  15.27152
 Alpha virt. eigenvalues --   15.99705  16.04973  16.83667  16.90090  22.01446
 Alpha virt. eigenvalues --   22.10594  40.17252  40.26179  40.66501  40.68561
 Alpha virt. eigenvalues --   40.69105  40.72461  40.73201  40.74678  40.76647
 Alpha virt. eigenvalues --   40.77985  40.80233  40.81506  40.82481  40.82884
 Alpha virt. eigenvalues --   40.83881  40.83996  40.84673  40.85193  40.86127
 Alpha virt. eigenvalues --   40.87466  40.88339  40.89439  40.90530  40.90832
 Alpha virt. eigenvalues --   40.91146  40.92737  40.94006  46.34176  46.44891
 Alpha virt. eigenvalues --   46.48109  46.52652  46.55545  46.57026  46.63414
 Alpha virt. eigenvalues --   46.72737  46.78950  54.44426  54.45457  55.77399
 Alpha virt. eigenvalues --   55.84074  55.94805  55.98220  56.05844  56.14558
 Alpha virt. eigenvalues --   56.17259  56.22821  56.24547  56.29463  56.34843
 Alpha virt. eigenvalues --   56.43310  56.48905  56.58004  56.62378  56.66485
 Alpha virt. eigenvalues --   57.46390  57.50921  57.99360  58.02204  58.19555
 Alpha virt. eigenvalues --   58.25511  64.70985  64.76777  73.94302  73.97451
 Alpha virt. eigenvalues --   74.10045  74.11200  74.63882  74.66710  86.07210
 Alpha virt. eigenvalues --   86.15455 165.43472 165.52941 165.57031 165.60697
 Alpha virt. eigenvalues --  165.63725 165.64718 165.70012 165.78187 165.84060
 Alpha virt. eigenvalues --  226.46741 226.53096 230.58174 230.63531 235.48862
 Alpha virt. eigenvalues --  235.81499 236.17982 236.34225 236.47095 236.61011
 Alpha virt. eigenvalues --  236.87168 237.13564 237.46474 237.54567 237.74345
 Alpha virt. eigenvalues --  238.05122 238.14667 238.23953 238.38482 238.87210
 Alpha virt. eigenvalues --  308.80784 308.88158 624.54786 624.60888 624.63080
 Alpha virt. eigenvalues --  624.67707 624.70020 624.70947 624.75424 624.81856
 Alpha virt. eigenvalues --  624.86450 793.80522 794.44543 825.75780 827.12252
 Alpha virt. eigenvalues --  827.33257 827.77756 827.82798 828.09754 829.44606
 Alpha virt. eigenvalues --  830.34924 831.21128 831.29395 832.04128 832.93615
 Alpha virt. eigenvalues --  832.98773 833.28752 833.48805 834.98693 868.34048
 Alpha virt. eigenvalues --  868.396521165.934911166.002462483.599072485.02267
 Alpha virt. eigenvalues -- 2587.742462589.546962593.906942596.624122596.63836
 Alpha virt. eigenvalues -- 2597.394822597.483922601.853882605.027902605.69661
 Alpha virt. eigenvalues -- 2607.443822608.345312609.760392611.165622611.93699
 Alpha virt. eigenvalues -- 2617.076802740.321302740.341252740.370882740.40886
 Alpha virt. eigenvalues -- 2740.443282740.509492740.518142740.544702740.57003
 Alpha virt. eigenvalues -- 3787.316773787.375935073.316175073.376408285.65555
 Alpha virt. eigenvalues -- 8295.231088626.185648634.542808637.313948638.73461
 Alpha virt. eigenvalues -- 8638.794218643.532508652.713408661.263028668.95573
 Alpha virt. eigenvalues -- 8669.162868675.793808682.408528683.088238684.14111
 Alpha virt. eigenvalues -- 8686.398758699.51611******************************
 Alpha virt. eigenvalues -- **************************************************
 Alpha virt. eigenvalues -- **************************************************
 Alpha virt. eigenvalues -- **************************************************
 Alpha virt. eigenvalues -- **************************************************
 Alpha virt. eigenvalues -- **************************************************
 Alpha virt. eigenvalues -- **************************************************
 Alpha virt. eigenvalues -- **************************************************
 Alpha virt. eigenvalues -- **********
          Condensed to atoms (all electrons):
               1          2          3          4          5          6
     1  C    4.592629   0.167087  -0.048431  -0.000270   0.000025  -0.000054
     2  C    0.167087   5.297885   0.398377   0.005541  -0.000479   0.000166
     3  H   -0.048431   0.398377   0.489766  -0.000173   0.000024  -0.000014
     4  C   -0.000270   0.005541  -0.000173   4.962669   0.405705   0.406491
     5  H    0.000025  -0.000479   0.000024   0.405705   0.542923  -0.012108
     6  H   -0.000054   0.000166  -0.000014   0.406491  -0.012108   0.551808
     7  H    0.000011   0.000313   0.000017   0.401326  -0.021860  -0.023568
     8  O    0.696013  -0.093674   0.004968   0.000334   0.000011   0.000007
     9  N   -0.061539   0.320466  -0.027938   0.000081   0.000004  -0.000020
    10  H    0.004297  -0.040472   0.001479  -0.000171   0.000028   0.000010
    11  N    0.369470  -0.105008   0.002434  -0.000487  -0.000005  -0.000093
    12  H   -0.023629   0.010348   0.000318  -0.000036  -0.000001   0.000000
    13  C   -0.049954   0.010567  -0.001114  -0.000019   0.000000   0.000006
    14  H    0.000663   0.001343   0.000107   0.000072   0.000001   0.000017
    15  H   -0.008191  -0.001038  -0.000261  -0.000005   0.000000  -0.000001
    16  H    0.006590   0.000579  -0.000178  -0.000002   0.000000   0.000001
    17  C   -0.007314  -0.058016   0.003403   0.000042  -0.000001  -0.000001
    18  C   -0.005756   0.016309   0.001929   0.000005   0.000000   0.000000
    19  H    0.000492  -0.000155  -0.000269  -0.000004   0.000000   0.000000
    20  H   -0.000124  -0.000653   0.000174   0.000000   0.000000   0.000000
    21  H    0.000798  -0.000627  -0.000164   0.000000   0.000000   0.000000
    22  O   -0.003984   0.023068   0.014431   0.000002   0.000000   0.000000
[...]
 Alpha virt. eigenvalues --    4.31915   4.32658   4.34074   4.34757   4.36832
 Alpha virt. eigenvalues --    4.38214   4.39527   4.39701   4.40981   4.43335
 Alpha virt. eigenvalues --    4.44231   4.46605   4.49917   4.51535   4.52714
 Alpha virt. eigenvalues --    4.54090   4.55000   4.55511   4.57838   4.58599
 Alpha virt. eigenvalues --    4.62010   4.62992   4.65024   4.66520   4.68008
 Alpha virt. eigenvalues --    4.69091   4.69431   4.70672   4.71587   4.72859
 Alpha virt. eigenvalues --    4.74295   4.74656   4.75499   4.77934   4.79573
 Alpha virt. eigenvalues --    4.79847   4.80603   4.81760   4.82725   4.84034
 Alpha virt. eigenvalues --    4.85736   4.87427   4.88256   4.88642   4.89649
 Alpha virt. eigenvalues --    4.91128   4.93389   4.93580   4.95818   4.95843
 Alpha virt. eigenvalues --    4.97548   4.99424   5.00214   5.01954   5.02309
 Alpha virt. eigenvalues --    5.02862   5.03010   5.04904   5.06179   5.07652
 Alpha virt. eigenvalues --    5.08320   5.09375   5.10843   5.11419   5.12946
 Alpha virt. eigenvalues --    5.13709   5.14639   5.16120   5.16771   5.18468
 Alpha virt. eigenvalues --    5.19950   5.20334   5.21081   5.21863   5.23321
 Alpha virt. eigenvalues --    5.24558   5.25384   5.26677   5.27405   5.28228
 Alpha virt. eigenvalues --    5.28811   5.30042   5.31508   5.33199   5.34127
 Alpha virt. eigenvalues --    5.34557   5.35612   5.36937   5.37350   5.39548
 Alpha virt. eigenvalues --    5.41389   5.46412   5.50000   5.51282   5.56704
 Alpha virt. eigenvalues --    5.58704   5.59381   5.62090   5.65167   5.72670
 Alpha virt. eigenvalues --    5.73462   5.74805   5.75997   5.78553   5.78976
 Alpha virt. eigenvalues --    5.80466   5.81317   5.81832   5.84178   5.86359
 Alpha virt. eigenvalues --    5.88336   5.88826   5.89940   5.95035   5.96984
 Alpha virt. eigenvalues --    6.00066   6.00586   6.03107   6.05968   6.08173
 Alpha virt. eigenvalues --    6.21955   6.27136   6.36073   6.40656   6.49261
 Alpha virt. eigenvalues --    6.53357   6.54141   6.58693   6.67424   6.69310
 Alpha virt. eigenvalues --    6.88362   6.89734   6.92483   6.95676   7.09850
 Alpha virt. eigenvalues --    7.13470   7.17037   7.18073   9.44928   9.96888
 Alpha virt. eigenvalues --   11.58010  12.11437  12.38854  12.64754  13.09411
 Alpha virt. eigenvalues --   13.42111  13.54753  13.58837  13.65463  13.76964
 Alpha virt. eigenvalues --   13.97210
          Condensed to atoms (all electrons):
               1          2          3          4          5          6
     1  C    4.778490   0.135955  -0.057360  -0.000581   0.000019  -0.000055
     2  C    0.135955   5.408399   0.438550   0.005173  -0.000487   0.000184
     3  H   -0.057360   0.438550   0.453536   0.000050   0.000019  -0.000023
     4  C   -0.000581   0.005173   0.000050   5.110603   0.407882   0.406144
     5  H    0.000019  -0.000487   0.000019   0.407882   0.536392  -0.017412
     6  H   -0.000055   0.000184  -0.000023   0.406144  -0.017412   0.546254
     7  H    0.000004   0.000279   0.000004   0.400563  -0.028327  -0.030311
     8  O    0.689401  -0.089029   0.003068   0.000402   0.000012   0.000006
     9  N   -0.062397   0.267794  -0.033419   0.000081   0.000005  -0.000022
    10  H    0.005625  -0.036690   0.000289  -0.000349   0.000027   0.000011
    11  N    0.357947  -0.081402  -0.000695  -0.000411  -0.000001  -0.000081
    12  H   -0.021001   0.007926  -0.000908  -0.000028  -0.000001   0.000000
    13  C   -0.066066   0.009727  -0.000900  -0.000032   0.000000   0.000007
    14  H    0.000022   0.001125   0.000114   0.000073   0.000002   0.000014
    15  H   -0.007711  -0.000920  -0.000267  -0.000005   0.000000  -0.000001
    16  H    0.007212   0.000556  -0.000126  -0.000003   0.000000   0.000001
    17  C   -0.007040  -0.069590   0.002854   0.000045  -0.000002  -0.000001
    18  C   -0.004356   0.013062   0.001738   0.000004   0.000000   0.000000
    19  H    0.000340   0.000571  -0.000261  -0.000003   0.000000   0.000000
    20  H   -0.000164  -0.000590   0.000156   0.000000   0.000000   0.000000
    21  H    0.000751  -0.000634  -0.000145   0.000000   0.000000   0.000000
    22  O   -0.001712   0.021710   0.014066   0.000002   0.000000   0.000000
    23  C   -0.007875  -0.023523   0.008110   0.293306  -0.037602  -0.036997
    24  H    0.015902  -0.010564  -0.000688  -0.039401  -0.005719  -0.005795
    25  C   -0.005139   0.011006  -0.000452  -0.076775  -0.005705   0.008198
    26  H    0.001636  -0.006231  -0.000159  -0.008062  -0.000456  -0.000080
    27  H   -0.007884   0.003749   0.000747   0.007401  -0.000059  -0.000333
    28  H   -0.000321  -0.000624   0.000067  -0.006186   0.004791  -0.000098
    29  C   -0.042930   0.230021  -0.035591  -0.068562   0.009434  -0.006209
    30  H    0.012388  -0.037076  -0.007590  -0.006892  -0.000042  -0.000769
    31  H    0.000452  -0.037674  -0.008758  -0.005782  -0.000040   0.004879
               7          8          9         10         11         12
     1  C    0.000004   0.689401  -0.062397   0.005625   0.357947  -0.021001
     2  C    0.000279  -0.089029   0.267794  -0.036690  -0.081402   0.007926
     3  H    0.000004   0.003068  -0.033419   0.000289  -0.000695  -0.000908
     4  C    0.400563   0.000402   0.000081  -0.000349  -0.000411  -0.000028
     5  H   -0.028327   0.000012   0.000005   0.000027  -0.000001  -0.000001
     6  H   -0.030311   0.000006  -0.000022   0.000011  -0.000081   0.000000
     7  H    0.552637  -0.000006   0.000012  -0.000134  -0.000011   0.000002
     8  O   -0.000006   7.856969   0.004949  -0.002739  -0.114865   0.005202
     9  N    0.000012   0.004949   6.536972   0.388559   0.005198   0.000613
    10  H   -0.000134  -0.002739   0.388559   0.490512  -0.000452   0.000006
    11  N   -0.000011  -0.114865   0.005198  -0.000452   6.400442   0.380312
    12  H    0.000002   0.005202   0.000613   0.000006   0.380312   0.538398
    13  C    0.000000   0.006982  -0.000321   0.000043   0.300043  -0.031921
    14  H    0.000000   0.004081  -0.000025  -0.000002  -0.054259   0.002710
    15  H    0.000000   0.005525  -0.000033   0.000007  -0.042967   0.002815
    16  H    0.000000   0.001398   0.000008   0.000000  -0.026593  -0.007944
    17  C    0.000003   0.015949   0.332547  -0.021292  -0.000632  -0.000054
    18  C    0.000000  -0.000149  -0.065435  -0.002217  -0.000103   0.000002
    19  H    0.000001   0.000015   0.012536  -0.000807   0.000011   0.000001
    20  H    0.000000   0.000028  -0.000092  -0.000422   0.000004   0.000001
    21  H    0.000000   0.000251  -0.001058   0.000500   0.000001  -0.000002
    22  O    0.000000  -0.003408  -0.136524   0.004566  -0.003622  -0.000195
    23  C   -0.036741   0.010692   0.001037  -0.002079  -0.004419   0.000174
    24  H    0.007538  -0.002686   0.000218   0.000197  -0.001195   0.000052
    25  C   -0.006955  -0.008528  -0.010980   0.002141   0.000037   0.000032
    26  H    0.003540   0.000037  -0.000790   0.001159  -0.000055  -0.000005
    27  H    0.000070   0.018046   0.009530  -0.006849   0.001118  -0.000072
    28  H   -0.000170   0.000061   0.000616   0.000332   0.000023   0.000001
    29  C   -0.009937  -0.004765  -0.051711   0.000253   0.006359  -0.002437
    30  H    0.004122  -0.000675   0.002254   0.003157   0.000188  -0.000134
    31  H   -0.000745  -0.000141   0.003995   0.000382   0.000825   0.002166
              13         14         15         16         17         18
     1  C   -0.066066   0.000022  -0.007711   0.007212  -0.007040  -0.004356
     2  C    0.009727   0.001125  -0.000920   0.000556  -0.069590   0.013062
     3  H   -0.000900   0.000114  -0.000267  -0.000126   0.002854   0.001738
     4  C   -0.000032   0.000073  -0.000005  -0.000003   0.000045   0.000004
     5  H    0.000000   0.000002   0.000000   0.000000  -0.000002   0.000000
     6  H    0.000007   0.000014  -0.000001   0.000001  -0.000001   0.000000
     7  H    0.000000   0.000000   0.000000   0.000000   0.000003   0.000000
     8  O    0.006982   0.004081   0.005525   0.001398   0.015949  -0.000149
     9  N   -0.000321  -0.000025  -0.000033   0.000008   0.332547  -0.065435
    10  H    0.000043  -0.000002   0.000007   0.000000  -0.021292  -0.002217
    11  N    0.300043  -0.054259  -0.042967  -0.026593  -0.000632  -0.000103
    12  H   -0.031921   0.002710   0.002815  -0.007944  -0.000054   0.000002
    13  C    4.766839   0.392611   0.403590   0.394436  -0.000263  -0.000007
    14  H    0.392611   0.631720  -0.056690  -0.029183  -0.000043   0.000000
    15  H    0.403590  -0.056690   0.597529  -0.025163   0.000130   0.000003
    16  H    0.394436  -0.029183  -0.025163   0.599017  -0.000010   0.000000
    17  C   -0.000263  -0.000043   0.000130  -0.000010   4.538232   0.280950
    18  C   -0.000007   0.000000   0.000003   0.000000   0.280950   4.996078
    19  H    0.000000   0.000000   0.000000   0.000000  -0.054769   0.393826
    20  H    0.000000   0.000000   0.000000   0.000000  -0.026306   0.386866
    21  H    0.000002   0.000000   0.000001   0.000000  -0.024758   0.388110
    22  O   -0.000217   0.000009   0.000112  -0.000004   0.721140  -0.069976
    23  C   -0.000552   0.000709  -0.000119  -0.000041  -0.000178   0.000006
    24  H    0.000409  -0.000001   0.000135   0.000003  -0.000074  -0.000006
    25  C    0.000029  -0.000023   0.000008   0.000002   0.000476   0.000011
    26  H    0.000001   0.000004   0.000000   0.000000  -0.000008   0.000034
    27  H   -0.000142   0.000010  -0.000026  -0.000003   0.001714   0.000150
    28  H   -0.000004  -0.000005   0.000000   0.000000   0.000018   0.000006
    29  C   -0.000291  -0.000468   0.000072   0.000004   0.009006   0.000412
    30  H    0.000065  -0.000026   0.000013   0.000001  -0.000223  -0.000107
    31  H    0.000061  -0.000149   0.000055   0.000004  -0.000142   0.000035
              19         20         21         22         23         24
     1  C    0.000340  -0.000164   0.000751  -0.001712  -0.007875   0.015902
     2  C    0.000571  -0.000590  -0.000634   0.021710  -0.023523  -0.010564
     3  H   -0.000261   0.000156  -0.000145   0.014066   0.008110  -0.000688
     4  C   -0.000003   0.000000   0.000000   0.000002   0.293306  -0.039401
     5  H    0.000000   0.000000   0.000000   0.000000  -0.037602  -0.005719
     6  H    0.000000   0.000000   0.000000   0.000000  -0.036997  -0.005795
     7  H    0.000001   0.000000   0.000000   0.000000  -0.036741   0.007538
     8  O    0.000015   0.000028   0.000251  -0.003408   0.010692  -0.002686
     9  N    0.012536  -0.000092  -0.001058  -0.136524   0.001037   0.000218
    10  H   -0.000807  -0.000422   0.000500   0.004566  -0.002079   0.000197
    11  N    0.000011   0.000004   0.000001  -0.003622  -0.004419  -0.001195
    12  H    0.000001   0.000001  -0.000002  -0.000195   0.000174   0.000052
    13  C    0.000000   0.000000   0.000002  -0.000217  -0.000552   0.000409
    14  H    0.000000   0.000000   0.000000   0.000009   0.000709  -0.000001
    15  H    0.000000   0.000000   0.000001   0.000112  -0.000119   0.000135
    16  H    0.000000   0.000000   0.000000  -0.000004  -0.000041   0.000003
    17  C   -0.054769  -0.026306  -0.024758   0.721140  -0.000178  -0.000074
    18  C    0.393826   0.386866   0.388110  -0.069976   0.000006  -0.000006
    19  H    0.601927  -0.026788  -0.024985   0.004581  -0.000006   0.000005
    20  H   -0.026788   0.575511  -0.024969   0.002117   0.000001   0.000000
    21  H   -0.024985  -0.024969   0.564306   0.001071  -0.000005   0.000001
    22  O    0.004581   0.002117   0.001071   7.851458  -0.000012  -0.000007
    23  C   -0.000006   0.000001  -0.000005  -0.000012   5.264617   0.409802
    24  H    0.000005   0.000000   0.000001  -0.000007   0.409802   0.508460
    25  C    0.000162  -0.000004   0.000014   0.000047   0.258860  -0.028693
    26  H    0.000045  -0.000012   0.000004   0.000006  -0.056521   0.007928
    27  H    0.000088   0.000071  -0.000109  -0.000254  -0.018653  -0.007693
    28  H   -0.000011   0.000001  -0.000003   0.000000  -0.037741  -0.005384
    29  C   -0.000286  -0.000005   0.000001   0.002738   0.218036  -0.034105
    30  H   -0.000004  -0.000028   0.000020  -0.000101  -0.042297   0.006574
    31  H   -0.000004  -0.000003  -0.000001   0.000075  -0.051187  -0.002272
              25         26         27         28         29         30
     1  C   -0.005139   0.001636  -0.007884  -0.000321  -0.042930   0.012388
     2  C    0.011006  -0.006231   0.003749  -0.000624   0.230021  -0.037076
     3  H   -0.000452  -0.000159   0.000747   0.000067  -0.035591  -0.007590
     4  C   -0.076775  -0.008062   0.007401  -0.006186  -0.068562  -0.006892
     5  H   -0.005705  -0.000456  -0.000059   0.004791   0.009434  -0.000042
     6  H    0.008198  -0.000080  -0.000333  -0.000098  -0.006209  -0.000769
     7  H   -0.006955   0.003540   0.000070  -0.000170  -0.009937   0.004122
     8  O   -0.008528   0.000037   0.018046   0.000061  -0.004765  -0.000675
     9  N   -0.010980  -0.000790   0.009530   0.000616  -0.051711   0.002254
    10  H    0.002141   0.001159  -0.006849   0.000332   0.000253   0.003157
    11  N    0.000037  -0.000055   0.001118   0.000023   0.006359   0.000188
    12  H    0.000032  -0.000005  -0.000072   0.000001  -0.002437  -0.000134
    13  C    0.000029   0.000001  -0.000142  -0.000004  -0.000291   0.000065
    14  H   -0.000023   0.000004   0.000010  -0.000005  -0.000468  -0.000026
    15  H    0.000008   0.000000  -0.000026   0.000000   0.000072   0.000013
    16  H    0.000002   0.000000  -0.000003   0.000000   0.000004   0.000001
    17  C    0.000476  -0.000008   0.001714   0.000018   0.009006  -0.000223
    18  C    0.000011   0.000034   0.000150   0.000006   0.000412  -0.000107
    19  H    0.000162   0.000045   0.000088  -0.000011  -0.000286  -0.000004
    20  H   -0.000004  -0.000012   0.000071   0.000001  -0.000005  -0.000028
    21  H    0.000014   0.000004  -0.000109  -0.000003   0.000001   0.000020
    22  O    0.000047   0.000006  -0.000254   0.000000   0.002738  -0.000101
    23  C    0.258860  -0.056521  -0.018653  -0.037741   0.218036  -0.042297
    24  H   -0.028693   0.007928  -0.007693  -0.005384  -0.034105   0.006574
    25  C    5.226383   0.402135   0.380823   0.400706  -0.051383  -0.004317
    26  H    0.402135   0.555922  -0.035846  -0.024148   0.004570   0.003522
    27  H    0.380823  -0.035846   0.500097  -0.005283  -0.008962  -0.001212
    28  H    0.400706  -0.024148  -0.005283   0.520259   0.008067  -0.000332
    29  C   -0.051383   0.004570  -0.008962   0.008067   5.429535   0.397028
    30  H   -0.004317   0.003522  -0.001212  -0.000332   0.397028   0.468496
    31  H    0.007382   0.000299  -0.000641  -0.000359   0.422790  -0.002524
              31
     1  C    0.000452
     2  C   -0.037674
     3  H   -0.008758
     4  C   -0.005782
     5  H   -0.000040
     6  H    0.004879
     7  H   -0.000745
     8  O   -0.000141
     9  N    0.003995
    10  H    0.000382
    11  N    0.000825
    12  H    0.002166
    13  C    0.000061
    14  H   -0.000149
    15  H    0.000055
    16  H    0.000004
    17  C   -0.000142
    18  C    0.000035
    19  H   -0.000004
    20  H   -0.000003
    21  H   -0.000001
    22  O    0.000075
    23  C   -0.051187
    24  H   -0.002272
    25  C    0.007382
    26  H    0.000299
    27  H   -0.000641
    28  H   -0.000359
    29  C    0.422790
    30  H   -0.002524
    31  H    0.473912
 Mulliken charges:
               1
     1  C    0.286446
     2  C   -0.160751
     3  H    0.223973
     4  C   -0.418656
     5  H    0.137272
     6  H    0.132491
     7  H    0.144561
     8  O   -0.396084
     9  N   -0.204115
    10  H    0.176267
    11  N   -0.120745
    12  H    0.124289
    13  C   -0.174130
    14  H    0.107670
    15  H    0.123907
    16  H    0.086429
    17  C    0.302322
    18  C   -0.318936
    19  H    0.093815
    20  H    0.114628
    21  H    0.121638
    22  O   -0.407664
    23  C   -0.108802
    24  H    0.187060
    25  C   -0.499496
    26  H    0.151534
    27  H    0.170407
    28  H    0.145723
    29  C   -0.420681
    30  H    0.206521
    31  H    0.193108
 Sum of Mulliken charges =   0.00000
 Mulliken charges with hydrogens summed into heavy atoms:
               1
     1  C    0.286446
     2  C    0.063222
     4  C   -0.004332
     8  O   -0.396084
     9  N   -0.027848
    11  N    0.003544
    13  C    0.143876
    17  C    0.302322
    18  C    0.011145
    22  O   -0.407664
    23  C    0.078258
    25  C   -0.031832
    29  C   -0.021052
 Electronic spatial extent (au):  <R**2>=           2883.6395
 Charge=              0.0000 electrons
 Dipole moment (field-independent basis, Debye):
    X=             -3.4202    Y=             -1.4210    Z=             -2.1486  Tot=              4.2818
 Quadrupole moment (field-independent basis, Debye-Ang):
   XX=            -85.2483   YY=            -69.0849   ZZ=            -82.1257
   XY=             -9.6516   XZ=              3.0426   YZ=             -4.1666
 Traceless Quadrupole moment (field-independent basis, Debye-Ang):
   XX=             -6.4287   YY=              9.7347   ZZ=             -3.3061
   XY=             -9.6516   XZ=              3.0426   YZ=             -4.1666
 Octapole moment (field-independent basis, Debye-Ang**2):
  XXX=             -2.6885  YYY=             37.0858  ZZZ=             -8.2597  XYY=              2.1139
  XXY=            -17.6557  XXZ=             14.7163  XZZ=              0.3353  YZZ=              4.4195
  YYZ=             -3.9831  XYZ=              3.3933
 Hexadecapole moment (field-independent basis, Debye-Ang**3):
 XXXX=          -2054.0668 YYYY=          -1325.5327 ZZZZ=           -378.3087 XXXY=            -81.0589
 XXXZ=             17.4597 YYYX=            -39.3488 YYYZ=             -1.4287 ZZZX=             -3.1111
 ZZZY=            -17.2389 XXYY=           -569.5218 XXZZ=           -389.8141 YYZZ=           -296.8293
 XXYZ=              1.5380 YYXZ=              4.2525 ZZXY=             -8.8891
 N-N= 8.773977918315D+02 E-N=-3.184539091725D+03  KE= 6.091229213384D+02
 Calculating spin-rotation constants.
 Leave Link  601 at Wed Jun 18 02:28:25 2014, MaxMem=  4294967296 cpu:        68.8
 (Enter /home/ztw1e12/g09/l9999.exe)

 Test job not archived.
 1\1\GINC-GREEN0211\SP\RM06\Gen\C9H18N2O2\ROOT\18-Jun-2014\0\\#P Geom=A
 llCheck Guess=TCheck SCRF=Check GenChk RM06/ChkBas NMR=ReadFC IOp(3/6=
 22)\\NMR spin-spin scan\\0,1\C,0,0.157621,1.197741,0.171185\C,0,0.1823
 16,-0.007843,-0.759796\H,0,0.601294,0.328983,-1.712672\C,0,-3.544691,-
 1.090083,-0.380525\H,0,-4.273353,-1.180022,0.42706\H,0,-3.930727,-0.37
 3231,-1.108133\H,0,-3.476611,-2.06363,-0.875965\O,0,0.36042,1.11246,1.
 379044\N,0,1.040147,-1.04988,-0.247986\H,0,0.630432,-1.909997,0.080279
 \N,0,-0.140617,2.354036,-0.429145\H,0,-0.318741,2.354303,-1.4209\C,0,-
 0.322206,3.574436,0.323017\H,0,-1.152481,3.488486,1.025652\H,0,0.57778
 5,3.821681,0.885887\H,0,-0.532323,4.385291,-0.367599\C,0,2.364244,-0.8
 64885,-0.117354\C,0,3.144074,-1.999749,0.458998\H,0,2.535298,-2.874712
 ,0.676342\H,0,3.935139,-2.27317,-0.238773\H,0,3.62345,-1.660618,1.3774
 \O,0,2.908355,0.18474,-0.459963\C,0,-2.184279,-0.675206,0.150446\H,0,-
 2.29144,0.294989,0.651691\C,0,-1.708367,-1.69256,1.172924\H,0,-1.52510
 1,-2.66031,0.693107\H,0,-0.794064,-1.384686,1.681382\H,0,-2.470111,-1.
 847987,1.939528\C,0,-1.23724,-0.503677,-1.033079\H,0,-1.160579,-1.4561
 6,-1.570771\H,0,-1.69202,0.204556,-1.730943\\Version=EM64L-G09RevD.01\
 State=1-A\HF=-613.5844377\RMSD=6.720e-09\Dipole=-1.3729435,-0.4598428,
 -0.8610333\Quadrupole=-5.9394679,8.225936,-2.2864681,-6.0082814,2.0353
 079,-3.5370425\PG=C01 [X(C9H18N2O2)]\\@


 IF YOU'RE NOT PART OF THE SOLUTION,
 THEN YOU'RE PART OF THE PRECIPITATE.
 Job cpu time:       2 days 13 hours 48 minutes 30.9 seconds.
 File lengths (MBytes):  RWF=   2456 Int=      0 D2E=      0 Chk=     48 Scr=      8
 Normal termination of Gaussian 09 at Wed Jun 18 02:28:26 2014.
