 Entering Gaussian System, Link 0=g09
 Input=scan_input_28.gjf
 Output=scan_input_28.log
 Initial command:
 /home/ztw1e12/g09/l1.exe "/home/ztw1e12/leucine_scan/leucine_chi2_scan/Gau-7619.inp" -scrdir="/home/ztw1e12/leucine_scan/leucine_chi2_scan/"
 Default is to use a total of   8 processors:
                                8 via shared-memory
                                1 via Linda
 Entering Link 1 = /home/ztw1e12/g09/l1.exe PID=      7620.
  
 Copyright (c) 1988,1990,1992,1993,1995,1998,2003,2009,2013,
            Gaussian, Inc.  All Rights Reserved.
  
 This is part of the Gaussian(R) 09 program.  It is based on
 the Gaussian(R) 03 system (copyright 2003, Gaussian, Inc.),
 the Gaussian(R) 98 system (copyright 1998, Gaussian, Inc.),
 the Gaussian(R) 94 system (copyright 1995, Gaussian, Inc.),
 the Gaussian 92(TM) system (copyright 1992, Gaussian, Inc.),
 the Gaussian 90(TM) system (copyright 1990, Gaussian, Inc.),
 the Gaussian 88(TM) system (copyright 1988, Gaussian, Inc.),
 the Gaussian 86(TM) system (copyright 1986, Carnegie Mellon
 University), and the Gaussian 82(TM) system (copyright 1983,
 Carnegie Mellon University). Gaussian is a federally registered
 trademark of Gaussian, Inc.
  
 This software contains proprietary and confidential information,
 including trade secrets, belonging to Gaussian, Inc.
  
 This software is provided under written license and may be
 used, copied, transmitted, or stored only in accord with that
 written license.
  
 The following legend is applicable only to US Government
 contracts under FAR:
  
                    RESTRICTED RIGHTS LEGEND
  
 Use, reproduction and disclosure by the US Government is
 subject to restrictions as set forth in subparagraphs (a)
 and (c) of the Commercial Computer Software - Restricted
 Rights clause in FAR 52.227-19.
  
 Gaussian, Inc.
 340 Quinnipiac St., Bldg. 40, Wallingford CT 06492
  
  
 ---------------------------------------------------------------
 Warning -- This program may not be used in any manner that
 competes with the business of Gaussian, Inc. or will provide
 assistance to any competitor of Gaussian, Inc.  The licensee
 of this program is prohibited from giving any competitor of
 Gaussian, Inc. access to this program.  By using this program,
 the user acknowledges that Gaussian, Inc. is engaged in the
 business of creating and licensing software in the field of
 computational chemistry and represents and warrants to the
 licensee that it is not a competitor of Gaussian, Inc. and that
 it will not use this program in any manner prohibited above.
 ---------------------------------------------------------------
  

 Cite this work as:
 Gaussian 09, Revision D.01,
 M. J. Frisch, G. W. Trucks, H. B. Schlegel, G. E. Scuseria, 
 M. A. Robb, J. R. Cheeseman, G. Scalmani, V. Barone, B. Mennucci, 
 G. A. Petersson, H. Nakatsuji, M. Caricato, X. Li, H. P. Hratchian, 
 A. F. Izmaylov, J. Bloino, G. Zheng, J. L. Sonnenberg, M. Hada, 
 M. Ehara, K. Toyota, R. Fukuda, J. Hasegawa, M. Ishida, T. Nakajima, 
 Y. Honda, O. Kitao, H. Nakai, T. Vreven, J. A. Montgomery, Jr., 
 J. E. Peralta, F. Ogliaro, M. Bearpark, J. J. Heyd, E. Brothers, 
 K. N. Kudin, V. N. Staroverov, T. Keith, R. Kobayashi, J. Normand, 
 K. Raghavachari, A. Rendell, J. C. Burant, S. S. Iyengar, J. Tomasi, 
 M. Cossi, N. Rega, J. M. Millam, M. Klene, J. E. Knox, J. B. Cross, 
 V. Bakken, C. Adamo, J. Jaramillo, R. Gomperts, R. E. Stratmann, 
 O. Yazyev, A. J. Austin, R. Cammi, C. Pomelli, J. W. Ochterski, 
 R. L. Martin, K. Morokuma, V. G. Zakrzewski, G. A. Voth, 
 P. Salvador, J. J. Dannenberg, S. Dapprich, A. D. Daniels, 
 O. Farkas, J. B. Foresman, J. V. Ortiz, J. Cioslowski, 
 and D. J. Fox, Gaussian, Inc., Wallingford CT, 2013.
 
 ******************************************
 Gaussian 09:  EM64L-G09RevD.01 24-Apr-2013
                18-Jun-2014 
 ******************************************
 %Mem=32GB
 %NProcShared=16
 Will use up to   16 processors via shared memory.
 Default route:  MaxDisk=100GB
 ----------------------------------------------------------------------
 #p nmr=(giao,mixed,spinspin) m06/cc-pvtz scf=tight integral=(grid=ultr
 afine)
 ----------------------------------------------------------------------
 1/38=1/1;
 2/12=2,17=6,18=5,40=1/2;
 3/5=16,6=1,10=1100000,11=2,16=1,25=1,30=1,74=-54,75=-5/1,2,8,3;
 4//1;
 5/5=2,32=2,38=5/2;
 8/6=1,10=90,11=11/1;
 10/13=100,45=16,47=3/2;
 6/7=2,8=2,9=2,10=2,28=1/1;
 99/9=1/99;
 Leave Link    1 at Wed Jun 18 13:49:39 2014, MaxMem=  4294967296 cpu:         6.1
 (Enter /home/ztw1e12/g09/l101.exe)
 ------------------
 NMR spin-spin scan
 ------------------
 Symbolic Z-matrix:
 Charge =  0 Multiplicity = 1
 C                     0.55998   0.72558   0.61254 
 C                     0.1572    0.15741  -0.74132 
 H                     0.54391   0.83779  -1.50562 
 C                    -2.51215   0.13587   1.34118 
 H                    -3.09337  -0.4497    2.05643 
 H                    -1.6435    0.52651   1.8725 
 H                    -3.12776   0.98531   1.0291 
 O                     0.85458   0.01598   1.57017 
 N                     0.74821  -1.14263  -0.95592 
 H                     0.15016  -1.95411  -0.98574 
 N                     0.54367   2.06086   0.68066 
 H                     0.25487   2.58332  -0.13158 
 C                     0.75683   2.75805   1.92798 
 H                    -0.00637   2.49627   2.66348 
 H                     1.73234   2.51426   2.34788 
 H                     0.71502   3.82749   1.74631 
 C                     2.07755  -1.3089   -1.04835 
 C                     2.56098  -2.70643  -1.25466 
 H                     1.75562  -3.43679  -1.29306 
 H                     3.12916  -2.7475   -2.18371 
 H                     3.24298  -2.96589  -0.44525 
 O                     2.85619  -0.35807  -0.9799 
 C                    -2.14382  -0.70817   0.13254 
 H                    -1.53772  -1.5564    0.47366 
 C                    -3.40992  -1.25103  -0.50482 
 H                    -4.01327  -0.42864  -0.90254 
 H                    -3.18687  -1.92877  -1.33111 
 H                    -4.02183  -1.78945   0.22146 
 C                    -1.35718   0.08492  -0.91289 
 H                    -1.52993  -0.3497   -1.90211 
 H                    -1.74996   1.10583  -0.95696 
 
 NAtoms=     31 NQM=       31 NQMF=       0 NMMI=      0 NMMIF=      0
                NMic=       0 NMicF=      0.
                    Isotopes and Nuclear Properties:
 (Nuclear quadrupole moments (NQMom) in fm**2, nuclear magnetic moments (NMagM)
  in nuclear magnetons)

  Atom         1           2           3           4           5           6           7           8           9          10
 IAtWgt=          12          12           1          12           1           1           1          16          14           1
 AtmWgt=  12.0000000  12.0000000   1.0078250  12.0000000   1.0078250   1.0078250   1.0078250  15.9949146  14.0030740   1.0078250
 NucSpn=           0           0           1           0           1           1           1           0           2           1
 AtZEff=   0.0000000   0.0000000   0.0000000   0.0000000   0.0000000   0.0000000   0.0000000   0.0000000   0.0000000   0.0000000
 NQMom=    0.0000000   0.0000000   0.0000000   0.0000000   0.0000000   0.0000000   0.0000000   0.0000000   2.0440000   0.0000000
 NMagM=    0.0000000   0.0000000   2.7928460   0.0000000   2.7928460   2.7928460   2.7928460   0.0000000   0.4037610   2.7928460
 AtZNuc=   6.0000000   6.0000000   1.0000000   6.0000000   1.0000000   1.0000000   1.0000000   8.0000000   7.0000000   1.0000000

  Atom        11          12          13          14          15          16          17          18          19          20
 IAtWgt=          14           1          12           1           1           1          12          12           1           1
 AtmWgt=  14.0030740   1.0078250  12.0000000   1.0078250   1.0078250   1.0078250  12.0000000  12.0000000   1.0078250   1.0078250
 NucSpn=           2           1           0           1           1           1           0           0           1           1
 AtZEff=   0.0000000   0.0000000   0.0000000   0.0000000   0.0000000   0.0000000   0.0000000   0.0000000   0.0000000   0.0000000
 NQMom=    2.0440000   0.0000000   0.0000000   0.0000000   0.0000000   0.0000000   0.0000000   0.0000000   0.0000000   0.0000000
 NMagM=    0.4037610   2.7928460   0.0000000   2.7928460   2.7928460   2.7928460   0.0000000   0.0000000   2.7928460   2.7928460
 AtZNuc=   7.0000000   1.0000000   6.0000000   1.0000000   1.0000000   1.0000000   6.0000000   6.0000000   1.0000000   1.0000000

  Atom        21          22          23          24          25          26          27          28          29          30
 IAtWgt=           1          16          12           1          12           1           1           1          12           1
 AtmWgt=   1.0078250  15.9949146  12.0000000   1.0078250  12.0000000   1.0078250   1.0078250   1.0078250  12.0000000   1.0078250
 NucSpn=           1           0           0           1           0           1           1           1           0           1
 AtZEff=   0.0000000   0.0000000   0.0000000   0.0000000   0.0000000   0.0000000   0.0000000   0.0000000   0.0000000   0.0000000
 NQMom=    0.0000000   0.0000000   0.0000000   0.0000000   0.0000000   0.0000000   0.0000000   0.0000000   0.0000000   0.0000000
 NMagM=    2.7928460   0.0000000   0.0000000   2.7928460   0.0000000   2.7928460   2.7928460   2.7928460   0.0000000   2.7928460
 AtZNuc=   1.0000000   8.0000000   6.0000000   1.0000000   6.0000000   1.0000000   1.0000000   1.0000000   6.0000000   1.0000000

  Atom        31
 IAtWgt=           1
 AtmWgt=   1.0078250
 NucSpn=           1
 AtZEff=   0.0000000
 NQMom=    0.0000000
 NMagM=    2.7928460
 AtZNuc=   1.0000000
 Leave Link  101 at Wed Jun 18 13:49:39 2014, MaxMem=  4294967296 cpu:         1.6
 (Enter /home/ztw1e12/g09/l202.exe)
                          Input orientation:                          
 ---------------------------------------------------------------------
 Center     Atomic      Atomic             Coordinates (Angstroms)
 Number     Number       Type             X           Y           Z
 ---------------------------------------------------------------------
      1          6           0        0.559977    0.725583    0.612539
      2          6           0        0.157195    0.157412   -0.741316
      3          1           0        0.543914    0.837794   -1.505620
      4          6           0       -2.512147    0.135873    1.341180
      5          1           0       -3.093375   -0.449699    2.056428
      6          1           0       -1.643498    0.526506    1.872496
      7          1           0       -3.127755    0.985313    1.029100
      8          8           0        0.854580    0.015981    1.570166
      9          7           0        0.748209   -1.142628   -0.955917
     10          1           0        0.150163   -1.954108   -0.985739
     11          7           0        0.543670    2.060860    0.680657
     12          1           0        0.254874    2.583320   -0.131578
     13          6           0        0.756830    2.758048    1.927975
     14          1           0       -0.006371    2.496269    2.663481
     15          1           0        1.732337    2.514259    2.347882
     16          1           0        0.715020    3.827487    1.746308
     17          6           0        2.077549   -1.308899   -1.048346
     18          6           0        2.560980   -2.706426   -1.254663
     19          1           0        1.755620   -3.436792   -1.293062
     20          1           0        3.129163   -2.747498   -2.183708
     21          1           0        3.242983   -2.965889   -0.445254
     22          8           0        2.856186   -0.358070   -0.979897
     23          6           0       -2.143821   -0.708167    0.132539
     24          1           0       -1.537716   -1.556404    0.473655
     25          6           0       -3.409917   -1.251027   -0.504815
     26          1           0       -4.013272   -0.428637   -0.902544
     27          1           0       -3.186865   -1.928770   -1.331112
     28          1           0       -4.021826   -1.789445    0.221462
     29          6           0       -1.357176    0.084917   -0.912885
     30          1           0       -1.529927   -0.349697   -1.902113
     31          1           0       -1.749962    1.105830   -0.956960
 ---------------------------------------------------------------------
                    Distance matrix (angstroms):
                    1          2          3          4          5
     1  C    0.000000
     2  C    1.522490   0.000000
     3  H    2.121190   1.093907   0.000000
     4  C    3.211950   3.385652   4.235147   0.000000
     5  H    4.100376   4.331531   5.251257   1.091925   0.000000
     6  H    2.546061   3.195425   4.036501   1.090615   1.757541
     7  H    3.720262   3.822393   4.464048   1.094493   1.765175
     8  O    1.227752   2.418532   3.198804   3.376634   4.004954
     9  N    2.446569   1.444111   2.065425   4.188214   4.930734
    10  H    3.146932   2.125631   2.867060   4.107367   4.694525
    11  N    1.337113   2.407174   2.505134   3.671496   4.628580
    12  H    2.024348   2.503268   2.240178   3.976860   5.019696
    13  C    2.428999   3.774650   3.939833   4.231588   5.013005
    14  H    2.768112   4.133963   4.520482   3.687664   4.310085
    15  H    2.754125   4.192725   4.367192   4.968482   5.670757
    16  H    3.306248   4.468657   4.420699   4.920036   5.735361
    17  C    3.033262   2.435589   2.677579   5.372384   6.092315
    18  C    4.389663   3.774026   4.085710   6.368177   6.930214
    19  H    4.731410   3.972114   4.448089   6.157678   6.607160
    20  H    5.146067   4.399044   4.471871   7.250037   7.872650
    21  H    4.684486   4.400540   4.783028   6.777448   7.262166
    22  O    2.997121   2.758114   2.655763   5.869444   6.680190
    23  C    3.097832   2.609123   3.506776   1.519500   2.160974
    24  H    3.102752   2.699267   3.739371   2.136801   2.479928
    25  C    4.573349   3.842385   4.582310   2.477333   2.702275
    26  H    4.954019   4.214528   4.768175   2.757960   3.098737
    27  H    4.986200   3.985317   4.647907   3.443710   3.697542
    28  H    5.241300   4.709714   5.543571   2.690678   2.454392
    29  C    2.532360   1.525782   2.128920   2.533252   3.480951
    30  H    3.442005   2.109737   2.422428   3.423373   4.257278
    31  H    2.818463   2.140852   2.373760   2.608293   3.647593
                    6          7          8          9         10
     6  H    0.000000
     7  H    1.767722   0.000000
     8  O    2.567573   4.134168   0.000000
     9  N    4.062781   4.846805   2.781148   0.000000
    10  H    4.188099   4.841954   3.303045   1.008488   0.000000
    11  N    2.925479   3.841559   2.251538   3.603130   4.364824
    12  H    3.442472   3.917011   3.137963   3.847805   4.618312
    13  C    3.277870   4.363550   2.767041   4.850998   5.573346
    14  H    2.680636   3.833696   2.844012   5.187582   5.757357
    15  H    3.946317   5.262828   2.759836   5.025576   5.795050
    16  H    4.058942   4.833142   3.818125   5.657311   6.419500
    17  C    5.074073   6.055938   3.179240   1.342883   2.033478
    18  C    6.156997   7.155852   4.278196   2.412644   2.539752
    19  H    6.105939   6.985328   4.575105   2.528188   2.206874
    20  H    7.067545   7.962728   5.186725   3.122823   3.307422
    21  H    6.437894   7.640158   4.319483   3.131925   3.298691
    22  O    5.400535   6.453549   3.263305   2.249372   3.141645
    23  C    2.191390   2.154025   3.403171   3.120470   2.839943
    24  H    2.511267   3.049109   3.065585   2.727699   2.266481
    25  C    3.454196   2.726486   4.908848   4.183928   3.660571
    26  H    3.772131   2.552380   5.477952   4.815011   4.434882
    27  H    4.321281   3.750463   5.341605   4.030335   3.354949
    28  H    3.707558   3.025049   5.371955   4.955585   4.346256
    29  C    2.834665   2.777943   3.325982   2.437491   2.536730
    30  H    3.876636   3.595458   4.228039   2.591125   2.497314
    31  H    2.890116   2.420180   3.789166   3.361015   3.602017
                   11         12         13         14         15
    11  N    0.000000
    12  H    1.008015   0.000000
    13  C    1.444753   2.127028   0.000000
    14  H    2.103263   2.808591   1.091775   0.000000
    15  H    2.097174   2.887107   1.089665   1.767210   0.000000
    16  H    2.070252   2.299161   1.085565   1.770241   1.766746
    17  C    4.086259   4.394539   5.209879   5.709613   5.125434
    18  C    5.526483   5.878848   6.576064   7.000798   6.396916
    19  H    5.965615   6.312134   7.053276   7.345751   6.976534
    20  H    6.165198   6.394560   7.269452   7.798968   7.083256
    21  H    5.815683   6.310381   6.676573   7.075147   6.333694
    22  O    3.735826   4.017243   4.751127   5.442030   4.537337
    23  C    3.897506   4.081346   4.863334   4.608988   5.506031
    24  H    4.178471   4.551593   5.098479   4.854329   5.547636
    25  C    5.291955   5.317162   6.273191   5.971972   6.982695
    26  H    5.428613   5.280468   6.396927   6.109572   7.227581
    27  H    5.820761   5.800294   6.938346   6.756722   7.581164
    28  H    5.989947   6.126653   6.813768   6.360399   7.493592
    29  C    3.171268   3.074274   4.436793   4.519921   5.106799
    30  H    4.096497   3.863017   5.436627   5.591547   6.075119
    31  H    2.975671   2.623661   4.163734   4.252179   5.003205
                   16         17         18         19         20
    16  H    0.000000
    17  C    6.004085   0.000000
    18  C    7.423302   1.493102   0.000000
    19  H    7.942945   2.165976   1.087894   0.000000
    20  H    8.031410   2.112938   1.089791   1.776231   0.000000
    21  H    7.572549   2.113663   1.089767   1.775606   1.755811
    22  O    5.434673   1.230868   2.382733   3.284486   2.689432
    23  C    5.599052   4.424402   5.296463   4.968236   6.109683
    24  H    5.973336   3.930380   4.594447   4.183684   5.500913
    25  C    6.919101   5.514622   6.191290   5.664069   6.915032
    26  H    6.891136   6.155828   6.966570   6.517792   7.617931
    27  H    7.604585   5.308319   5.800717   5.167566   6.425686
    28  H    7.504185   6.248657   6.808314   6.195677   7.605219
    29  C    5.037076   3.709233   4.822899   4.715556   5.455713
    30  H    5.983279   3.829213   4.765384   4.549277   5.247463
    31  H    4.559738   4.526490   5.762477   5.747824   6.337106
                   21         22         23         24         25
    21  H    0.000000
    22  O    2.690014   0.000000
    23  C    5.869311   5.134214   0.000000
    24  H    5.068148   4.780710   1.096918   0.000000
    25  C    6.870617   6.347214   1.517866   2.134431   0.000000
    26  H    7.700649   6.870256   2.155083   3.048632   1.094784
    27  H    6.572922   6.253712   2.172576   2.472960   1.091721
    28  H    7.389586   7.127352   2.168864   2.507730   1.091698
    29  C    5.539635   4.237115   1.529936   2.156159   2.482944
    30  H    5.634498   4.482024   2.155267   2.664672   2.509821
    31  H    6.462990   4.833232   2.152375   3.029719   2.917989
                   26         27         28         29         30
    26  H    0.000000
    27  H    1.765508   0.000000
    28  H    1.765010   1.768349   0.000000
    29  C    2.705308   2.752746   3.449686   0.000000
    30  H    2.678128   2.359016   3.576591   1.094214   0.000000
    31  H    2.734981   3.378384   3.864280   1.094754   1.749368
                   31
    31  H    0.000000
 Stoichiometry    C9H18N2O2
 Framework group  C1[X(C9H18N2O2)]
 Deg. of freedom    87
 Full point group                 C1      NOp   1
 Largest Abelian subgroup         C1      NOp   1
 Largest concise Abelian subgroup C1      NOp   1
                         Standard orientation:                         
 ---------------------------------------------------------------------
 Center     Atomic      Atomic             Coordinates (Angstroms)
 Number     Number       Type             X           Y           Z
 ---------------------------------------------------------------------
      1          6           0        0.036806    1.144371    0.080941
      2          6           0        0.223352   -0.108312   -0.764020
      3          1           0        0.600756    0.212648   -1.739306
      4          6           0       -2.808398   -0.192112    0.740677
      5          1           0       -3.376584   -0.539790    1.605884
      6          1           0       -2.281138    0.713704    1.042235
      7          1           0       -3.525362    0.078311   -0.040828
      8          8           0        0.234154    1.164339    1.292564
      9          7           0        1.199684   -0.993135   -0.172988
     10          1           0        0.896180   -1.880709    0.197344
     11          7           0       -0.382689    2.215579   -0.600534
     12          1           0       -0.562719    2.120992   -1.587821
     13          6           0       -0.748837    3.442771    0.068232
     14          1           0       -1.582369    3.285746    0.755648
     15          1           0        0.091027    3.841291    0.636718
     16          1           0       -1.042929    4.176274   -0.676035
     17          6           0        2.488052   -0.638090   -0.041136
     18          6           0        3.391870   -1.638097    0.601089
     19          1           0        2.878164   -2.548847    0.901348
     20          1           0        4.190474   -1.888351   -0.096942
     21          1           0        3.855917   -1.182424    1.475511
     22          8           0        2.905132    0.448947   -0.440425
     23          6           0       -1.880134   -1.284174    0.236089
     24          1           0       -1.180569   -1.543552    1.040180
     25          6           0       -2.695815   -2.518137   -0.104376
     26          1           0       -3.369088   -2.304973   -0.940926
     27          1           0       -2.058424   -3.355010   -0.396317
     28          1           0       -3.308792   -2.835851    0.741273
     29          6           0       -1.088977   -0.850200   -0.999403
     30          1           0       -0.836077   -1.732334   -1.595378
     31          1           0       -1.729230   -0.228637   -1.633613
 ---------------------------------------------------------------------
 Rotational constants (GHZ):      0.8574590      0.6234034      0.4127657
 Leave Link  202 at Wed Jun 18 13:49:39 2014, MaxMem=  4294967296 cpu:         1.8
 (Enter /home/ztw1e12/g09/l301.exe)
 Standard basis: CC-pVTZ (5D, 7F)
 Converting basis for Fermi contact spin-spin IFCMod=1.
 AO basis functions are being uncontracted.
 Ernie: Thresh=  0.10000D-02 Tol=  0.10000D-05 Strict=F.
 There are  1119 symmetry adapted cartesian basis functions of A   symmetry.
 There are  1036 symmetry adapted basis functions of A   symmetry.
  1036 basis functions,  1119 primitive gaussians,  1119 cartesian basis functions
    51 alpha electrons       51 beta electrons
       nuclear repulsion energy       875.9003217507 Hartrees.
 IExCor= 4235 DFT=T Ex+Corr=M06 ExCW=0 ScaHFX=  0.270000
 ScaDFX=  1.000000  1.000000  1.000000  1.000000 ScalE2=  1.000000  1.000000
 IRadAn= 199590 IRanWt=     -1 IRanGd=            0 ICorTp=0 IEmpDi=  4
 NAtoms=   31 NActive=   31 NUniq=   31 SFac= 1.00D+00 NAtFMM=   60 NAOKFM=F Big=F
 Integral buffers will be    131072 words long.
 Raffenetti 2 integral format.
 Two-electron integral symmetry is turned on.
 Leave Link  301 at Wed Jun 18 13:49:40 2014, MaxMem=  4294967296 cpu:         4.6
 (Enter /home/ztw1e12/g09/l302.exe)
 NPDir=0 NMtPBC=     1 NCelOv=     1 NCel=       1 NClECP=     1 NCelD=      1
         NCelK=      1 NCelE2=     1 NClLst=     1 CellRange=     0.0.
 One-electron integrals computed using PRISM.
 GSVD:  received Info=                   1 from GESDD.
 NBasis=  1036 RedAO= T EigKep=  1.13D-04  NBF=  1036
 NBsUse=   932 1.00D-06 EigRej=  6.62D-15 NBFU=   932
 Precomputing XC quadrature grid using
 IXCGrd= 4 IRadAn=      199590 IRanWt=          -1 IRanGd=           0 AccXCQ= 0.00D+00.
 Generated NRdTot=       0 NPtTot=           0 NUsed=           0 NTot=          32
 NSgBfM=   879   879   879   879   879 MxSgAt=    31 MxSgA2=    31.
 Leave Link  302 at Wed Jun 18 13:49:44 2014, MaxMem=  4294967296 cpu:        63.6
 (Enter /home/ztw1e12/g09/l308.exe)
 Leave Link  308 at Wed Jun 18 13:49:44 2014, MaxMem=  4294967296 cpu:         5.5
 (Enter /home/ztw1e12/g09/l303.exe)
 DipDrv:  MaxL=1.
 Leave Link  303 at Wed Jun 18 13:49:44 2014, MaxMem=  4294967296 cpu:         3.3
 (Enter /home/ztw1e12/g09/l401.exe)
 ExpMin= 1.03D-01 ExpMax= 1.38D+05 ExpMxC= 1.38D+05 IAcc=4 IRadAn=    199590 AccDes= 0.00D+00
 Harris functional with IExCor= 1009 and IRadAn=  199590 diagonalized for initial guess.
 HarFok:  IExCor= 1009 AccDes= 0.00D+00 IRadAn=    199590 IDoV= 1 UseB2=F ITyADJ=14
 ICtDFT=  3500011 ScaDFX=  1.000000  1.000000  1.000000  1.000000
 FoFCou: FMM=F IPFlag=           0 FMFlag=      100000 FMFlg1=           0
         NFxFlg=           0 DoJE=T BraDBF=F KetDBF=T FulRan=T
         wScrn=  0.000000 ICntrl=     500 IOpCl=  0 I1Cent=   200000004 NGrid=           0
         NMat0=    1 NMatS0=      1 NMatT0=    0 NMatD0=    1 NMtDS0=    0 NMtDT0=    0
 Petite list used in FoFCou.
 Harris En= -613.565114610557    
 JPrj=0 DoOrth=F DoCkMO=F.
 Leave Link  401 at Wed Jun 18 13:50:00 2014, MaxMem=  4294967296 cpu:       252.3
 (Enter /home/ztw1e12/g09/l502.exe)
 Closed shell SCF:
 Using DIIS extrapolation, IDIIS=  1040.
 Integral symmetry usage will be decided dynamically.
 IVT=     3801329 IEndB=     3801329 NGot=  4294967296 MDV=  4292435888
 LenX=  4292435888 LenY=  4291182608
 Requested convergence on RMS density matrix=1.00D-08 within 128 cycles.
 Requested convergence on MAX density matrix=1.00D-06.
 Requested convergence on             energy=1.00D-06.
 No special actions if energy rises.
 Fock matrices will be formed incrementally for  20 cycles.
 Integral accuracy reduced to 1.0D-05 until final iterations.

 Cycle   1  Pass 0  IDiag  1:
 FoFJK:  IHMeth= 1 ICntrl=       0 DoSepK=F KAlg= 0 I1Cent=   0 FoldK=F
 IRaf= 480000000 NMat=   1 IRICut=       1 DoRegI=T DoRafI=F ISym2E= 0.
 FoFCou: FMM=F IPFlag=           0 FMFlag=      100000 FMFlg1=           0
         NFxFlg=           0 DoJE=F BraDBF=F KetDBF=F FulRan=T
         wScrn=  0.000000 ICntrl=       0 IOpCl=  0 I1Cent=           0 NGrid=           0
         NMat0=    1 NMatS0=      1 NMatT0=    0 NMatD0=    1 NMtDS0=    0 NMtDT0=    0
 Symmetry not used in FoFCou.
 E= -613.182436184322    
 DIIS: error= 1.28D-01 at cycle   1 NSaved=   1.
 NSaved= 1 IEnMin= 1 EnMin= -613.182436184322     IErMin= 1 ErrMin= 1.28D-01
 ErrMax= 1.28D-01  0.00D+00 EMaxC= 1.00D-01 BMatC= 1.30D+01 BMatP= 1.30D+01
 IDIUse=3 WtCom= 0.00D+00 WtEn= 1.00D+00
 Coeff-Com:  0.100D+01
 Coeff-En:   0.100D+01
 Coeff:      0.100D+01
 Gap=     0.291 Goal=   None    Shift=    0.000
 GapD=    0.291 DampG=1.000 DampE=0.250 DampFc=0.2500 IDamp=-1.
 Damping current iteration by 2.50D-01
 RMSDP=2.13D-03 MaxDP=3.00D-01              OVMax= 2.86D-01

 Cycle   2  Pass 0  IDiag  1:
 RMSU=  5.31D-04    CP:  1.01D+00
 E= -613.340461321365     Delta-E=       -0.158025137043 Rises=F Damp=T
 DIIS: error= 1.03D-01 at cycle   2 NSaved=   2.
 NSaved= 2 IEnMin= 2 EnMin= -613.340461321365     IErMin= 2 ErrMin= 1.03D-01
 ErrMax= 1.03D-01  0.00D+00 EMaxC= 1.00D-01 BMatC= 7.66D+00 BMatP= 1.30D+01
 IDIUse=3 WtCom= 0.00D+00 WtEn= 1.00D+00
 Coeff-Com: -0.279D+01 0.379D+01
 Coeff-En:   0.000D+00 0.100D+01
 Coeff:      0.000D+00 0.100D+01
 Gap=     0.222 Goal=   None    Shift=    0.000
 RMSDP=5.92D-04 MaxDP=5.84D-02 DE=-1.58D-01 OVMax= 1.35D-01

 Cycle   3  Pass 0  IDiag  1:
 RMSU=  4.39D-04    CP:  1.03D+00  1.74D+00
 E= -613.531042500823     Delta-E=       -0.190581179458 Rises=F Damp=F
 DIIS: error= 1.91D-02 at cycle   3 NSaved=   3.
 NSaved= 3 IEnMin= 3 EnMin= -613.531042500823     IErMin= 3 ErrMin= 1.91D-02
 ErrMax= 1.91D-02  0.00D+00 EMaxC= 1.00D-01 BMatC= 2.32D-01 BMatP= 7.66D+00
 IDIUse=3 WtCom= 8.09D-01 WtEn= 1.91D-01
 Coeff-Com:  0.122D+01-0.167D+01 0.145D+01
 Coeff-En:   0.138D+00 0.000D+00 0.862D+00
 Coeff:      0.101D+01-0.135D+01 0.134D+01
 Gap=     0.257 Goal=   None    Shift=    0.000
 RMSDP=4.24D-04 MaxDP=3.52D-02 DE=-1.91D-01 OVMax= 6.65D-02

 Cycle   4  Pass 0  IDiag  1:
 RMSU=  2.60D-04    CP:  1.03D+00  1.16D+00  7.16D-01
 E= -613.554019319616     Delta-E=       -0.022976818792 Rises=F Damp=F
 DIIS: error= 7.28D-03 at cycle   4 NSaved=   4.
 NSaved= 4 IEnMin= 4 EnMin= -613.554019319616     IErMin= 4 ErrMin= 7.28D-03
 ErrMax= 7.28D-03  0.00D+00 EMaxC= 1.00D-01 BMatC= 9.38D-02 BMatP= 2.32D-01
 IDIUse=3 WtCom= 9.27D-01 WtEn= 7.28D-02
 Coeff-Com:  0.707D+00-0.975D+00 0.717D+00 0.551D+00
 Coeff-En:   0.000D+00 0.000D+00 0.414D+00 0.586D+00
 Coeff:      0.655D+00-0.904D+00 0.695D+00 0.553D+00
 Gap=     0.284 Goal=   None    Shift=    0.000
 RMSDP=2.57D-04 MaxDP=1.89D-02 DE=-2.30D-02 OVMax= 6.79D-02

 Cycle   5  Pass 0  IDiag  1:
 RMSU=  8.11D-05    CP:  1.02D+00  1.12D+00  8.59D-01  9.87D-02
 E= -613.618995301442     Delta-E=       -0.064975981826 Rises=F Damp=F
 DIIS: error= 2.95D-03 at cycle   5 NSaved=   5.
 NSaved= 5 IEnMin= 5 EnMin= -613.618995301442     IErMin= 5 ErrMin= 2.95D-03
 ErrMax= 2.95D-03  0.00D+00 EMaxC= 1.00D-01 BMatC= 1.30D-02 BMatP= 9.38D-02
 IDIUse=3 WtCom= 9.71D-01 WtEn= 2.95D-02
 Coeff-Com:  0.115D+00-0.166D+00 0.117D+00 0.273D+00 0.661D+00
 Coeff-En:   0.000D+00 0.000D+00 0.000D+00 0.788D-01 0.921D+00
 Coeff:      0.112D+00-0.161D+00 0.114D+00 0.267D+00 0.668D+00
 Gap=     0.273 Goal=   None    Shift=    0.000
 RMSDP=1.48D-04 MaxDP=1.37D-02 DE=-6.50D-02 OVMax= 2.79D-02

 Cycle   6  Pass 0  IDiag  1:
 RMSU=  7.75D-05    CP:  1.03D+00  1.17D+00  9.45D-01  5.06D-01  3.76D-01
 E= -613.626318200717     Delta-E=       -0.007322899275 Rises=F Damp=F
 DIIS: error= 9.92D-04 at cycle   6 NSaved=   6.
 NSaved= 6 IEnMin= 6 EnMin= -613.626318200717     IErMin= 6 ErrMin= 9.92D-04
 ErrMax= 9.92D-04  0.00D+00 EMaxC= 1.00D-01 BMatC= 1.07D-03 BMatP= 1.30D-02
 IDIUse=3 WtCom= 9.90D-01 WtEn= 9.92D-03
 Coeff-Com:  0.543D-01-0.737D-01 0.159D-01 0.445D-01 0.213D+00 0.745D+00
 Coeff-En:   0.000D+00 0.000D+00 0.000D+00 0.000D+00 0.173D-01 0.983D+00
 Coeff:      0.538D-01-0.730D-01 0.157D-01 0.441D-01 0.212D+00 0.748D+00
 Gap=     0.273 Goal=   None    Shift=    0.000
 RMSDP=3.11D-05 MaxDP=2.87D-03 DE=-7.32D-03 OVMax= 9.22D-03

 Cycle   7  Pass 0  IDiag  1:
 RMSU=  2.09D-05    CP:  1.03D+00  1.14D+00  9.44D-01  4.98D-01  5.24D-01
                    CP:  1.07D+00
 E= -613.626916378961     Delta-E=       -0.000598178244 Rises=F Damp=F
 DIIS: error= 4.24D-04 at cycle   7 NSaved=   7.
 NSaved= 7 IEnMin= 7 EnMin= -613.626916378961     IErMin= 7 ErrMin= 4.24D-04
 ErrMax= 4.24D-04  0.00D+00 EMaxC= 1.00D-01 BMatC= 2.12D-04 BMatP= 1.07D-03
 IDIUse=3 WtCom= 9.96D-01 WtEn= 4.24D-03
 Coeff-Com:  0.371D-01-0.497D-01 0.111D-01 0.820D-02 0.654D-01 0.412D+00
 Coeff-Com:  0.516D+00
 Coeff-En:   0.000D+00 0.000D+00 0.000D+00 0.000D+00 0.000D+00 0.944D-01
 Coeff-En:   0.906D+00
 Coeff:      0.369D-01-0.495D-01 0.111D-01 0.817D-02 0.651D-01 0.411D+00
 Coeff:      0.517D+00
 Gap=     0.273 Goal=   None    Shift=    0.000
 RMSDP=1.09D-05 MaxDP=8.95D-04 DE=-5.98D-04 OVMax= 3.01D-03

 Cycle   8  Pass 0  IDiag  1:
 RMSU=  6.29D-06    CP:  1.03D+00  1.14D+00  9.49D-01  5.10D-01  5.14D-01
                    CP:  1.13D+00  6.77D-01
 E= -613.627061831478     Delta-E=       -0.000145452517 Rises=F Damp=F
 DIIS: error= 1.31D-04 at cycle   8 NSaved=   8.
 NSaved= 8 IEnMin= 8 EnMin= -613.627061831478     IErMin= 8 ErrMin= 1.31D-04
 ErrMax= 1.31D-04  0.00D+00 EMaxC= 1.00D-01 BMatC= 2.45D-05 BMatP= 2.12D-04
 IDIUse=3 WtCom= 9.99D-01 WtEn= 1.31D-03
 Coeff-Com:  0.204D-01-0.273D-01 0.779D-02-0.285D-02 0.650D-02 0.165D+00
 Coeff-Com:  0.301D+00 0.530D+00
 Coeff-En:   0.000D+00 0.000D+00 0.000D+00 0.000D+00 0.000D+00 0.000D+00
 Coeff-En:   0.000D+00 0.100D+01
 Coeff:      0.204D-01-0.272D-01 0.778D-02-0.285D-02 0.649D-02 0.165D+00
 Coeff:      0.301D+00 0.530D+00
 Gap=     0.273 Goal=   None    Shift=    0.000
 RMSDP=5.31D-06 MaxDP=5.11D-04 DE=-1.45D-04 OVMax= 1.19D-03

 Initial convergence to 1.0D-05 achieved.  Increase integral accuracy.
 Cycle   9  Pass 1  IDiag  1:
 E= -613.627020905557     Delta-E=        0.000040925921 Rises=F Damp=F
 DIIS: error= 7.33D-05 at cycle   1 NSaved=   1.
 NSaved= 1 IEnMin= 1 EnMin= -613.627020905557     IErMin= 1 ErrMin= 7.33D-05
 ErrMax= 7.33D-05  0.00D+00 EMaxC= 1.00D-01 BMatC= 1.22D-05 BMatP= 1.22D-05
 IDIUse=1 WtCom= 1.00D+00 WtEn= 0.00D+00
 Coeff-Com:  0.100D+01
 Coeff:      0.100D+01
 Gap=     0.273 Goal=   None    Shift=    0.000
 RMSDP=5.31D-06 MaxDP=5.11D-04 DE= 4.09D-05 OVMax= 1.43D-03

 Cycle  10  Pass 1  IDiag  1:
 RMSU=  2.57D-05    CP:  1.00D+00
 E= -613.627018940363     Delta-E=        0.000001965194 Rises=F Damp=F
 DIIS: error= 1.14D-04 at cycle   2 NSaved=   2.
 NSaved= 2 IEnMin= 1 EnMin= -613.627020905557     IErMin= 1 ErrMin= 7.33D-05
 ErrMax= 1.14D-04  0.00D+00 EMaxC= 1.00D-01 BMatC= 1.26D-05 BMatP= 1.22D-05
 IDIUse=3 WtCom= 9.99D-01 WtEn= 1.14D-03
 Coeff-Com:  0.505D+00 0.495D+00
 Coeff-En:   0.574D+00 0.426D+00
 Coeff:      0.505D+00 0.495D+00
 Gap=     0.273 Goal=   None    Shift=    0.000
 RMSDP=4.07D-06 MaxDP=4.82D-04 DE= 1.97D-06 OVMax= 1.40D-03

 Cycle  11  Pass 1  IDiag  1:
 RMSU=  4.04D-06    CP:  1.00D+00  9.88D-01
 E= -613.627025438291     Delta-E=       -0.000006497927 Rises=F Damp=F
 DIIS: error= 6.10D-05 at cycle   3 NSaved=   3.
 NSaved= 3 IEnMin= 3 EnMin= -613.627025438291     IErMin= 3 ErrMin= 6.10D-05
 ErrMax= 6.10D-05  0.00D+00 EMaxC= 1.00D-01 BMatC= 3.52D-06 BMatP= 1.22D-05
 IDIUse=1 WtCom= 1.00D+00 WtEn= 0.00D+00
 Coeff-Com:  0.466D-01 0.342D+00 0.611D+00
 Coeff:      0.466D-01 0.342D+00 0.611D+00
 Gap=     0.273 Goal=   None    Shift=    0.000
 RMSDP=1.45D-06 MaxDP=1.55D-04 DE=-6.50D-06 OVMax= 4.92D-04

 Cycle  12  Pass 1  IDiag  1:
 RMSU=  5.67D-07    CP:  1.00D+00  1.01D+00  6.93D-01
 E= -613.627027886997     Delta-E=       -0.000002448707 Rises=F Damp=F
 DIIS: error= 1.04D-05 at cycle   4 NSaved=   4.
 NSaved= 4 IEnMin= 4 EnMin= -613.627027886997     IErMin= 4 ErrMin= 1.04D-05
 ErrMax= 1.04D-05  0.00D+00 EMaxC= 1.00D-01 BMatC= 8.84D-08 BMatP= 3.52D-06
 IDIUse=1 WtCom= 1.00D+00 WtEn= 0.00D+00
 Coeff-Com:  0.370D-02 0.147D+00 0.293D+00 0.557D+00
 Coeff:      0.370D-02 0.147D+00 0.293D+00 0.557D+00
 Gap=     0.273 Goal=   None    Shift=    0.000
 RMSDP=2.32D-07 MaxDP=2.12D-05 DE=-2.45D-06 OVMax= 5.13D-05

 Cycle  13  Pass 1  IDiag  1:
 RMSU=  2.07D-07    CP:  1.00D+00  1.01D+00  6.98D-01  8.34D-01
 E= -613.627027946697     Delta-E=       -0.000000059700 Rises=F Damp=F
 DIIS: error= 3.04D-06 at cycle   5 NSaved=   5.
 NSaved= 5 IEnMin= 5 EnMin= -613.627027946697     IErMin= 5 ErrMin= 3.04D-06
 ErrMax= 3.04D-06  0.00D+00 EMaxC= 1.00D-01 BMatC= 7.61D-09 BMatP= 8.84D-08
 IDIUse=1 WtCom= 1.00D+00 WtEn= 0.00D+00
 Coeff-Com: -0.234D-02 0.422D-01 0.900D-01 0.276D+00 0.594D+00
 Coeff:     -0.234D-02 0.422D-01 0.900D-01 0.276D+00 0.594D+00
 Gap=     0.273 Goal=   None    Shift=    0.000
 RMSDP=8.18D-08 MaxDP=6.89D-06 DE=-5.97D-08 OVMax= 1.67D-05

 Cycle  14  Pass 1  IDiag  1:
 RMSU=  4.48D-08    CP:  1.00D+00  1.01D+00  7.03D-01  9.35D-01  8.65D-01
 E= -613.627027952084     Delta-E=       -0.000000005386 Rises=F Damp=F
 DIIS: error= 6.15D-07 at cycle   6 NSaved=   6.
 NSaved= 6 IEnMin= 6 EnMin= -613.627027952084     IErMin= 6 ErrMin= 6.15D-07
 ErrMax= 6.15D-07  0.00D+00 EMaxC= 1.00D-01 BMatC= 4.11D-10 BMatP= 7.61D-09
 IDIUse=1 WtCom= 1.00D+00 WtEn= 0.00D+00
 Coeff-Com: -0.115D-02 0.116D-01 0.255D-01 0.975D-01 0.270D+00 0.597D+00
 Coeff:     -0.115D-02 0.116D-01 0.255D-01 0.975D-01 0.270D+00 0.597D+00
 Gap=     0.273 Goal=   None    Shift=    0.000
 RMSDP=2.39D-08 MaxDP=2.50D-06 DE=-5.39D-09 OVMax= 8.96D-06

 Cycle  15  Pass 1  IDiag  1:
 RMSU=  2.18D-08    CP:  1.00D+00  1.01D+00  7.03D-01  9.43D-01  8.90D-01
                    CP:  8.82D-01
 E= -613.627027952241     Delta-E=       -0.000000000157 Rises=F Damp=F
 DIIS: error= 5.38D-07 at cycle   7 NSaved=   7.
 NSaved= 7 IEnMin= 7 EnMin= -613.627027952241     IErMin= 7 ErrMin= 5.38D-07
 ErrMax= 5.38D-07  0.00D+00 EMaxC= 1.00D-01 BMatC= 1.83D-10 BMatP= 4.11D-10
 IDIUse=1 WtCom= 1.00D+00 WtEn= 0.00D+00
 Coeff-Com: -0.273D-03-0.175D-02-0.327D-02 0.216D-02 0.443D-01 0.416D+00
 Coeff-Com:  0.543D+00
 Coeff:     -0.273D-03-0.175D-02-0.327D-02 0.216D-02 0.443D-01 0.416D+00
 Coeff:      0.543D+00
 Gap=     0.273 Goal=   None    Shift=    0.000
 RMSDP=1.60D-08 MaxDP=1.98D-06 DE=-1.57D-10 OVMax= 3.20D-06

 Cycle  16  Pass 1  IDiag  1:
 RMSU=  6.37D-09    CP:  1.00D+00  1.01D+00  7.04D-01  9.57D-01  9.10D-01
                    CP:  1.08D+00  7.41D-01
 E= -613.627027952359     Delta-E=       -0.000000000118 Rises=F Damp=F
 DIIS: error= 8.89D-08 at cycle   8 NSaved=   8.
 NSaved= 8 IEnMin= 8 EnMin= -613.627027952359     IErMin= 8 ErrMin= 8.89D-08
 ErrMax= 8.89D-08  0.00D+00 EMaxC= 1.00D-01 BMatC= 8.46D-12 BMatP= 1.83D-10
 IDIUse=1 WtCom= 1.00D+00 WtEn= 0.00D+00
 Coeff-Com: -0.154D-04-0.209D-02-0.427D-02-0.900D-02-0.589D-02 0.153D+00
 Coeff-Com:  0.261D+00 0.607D+00
 Coeff:     -0.154D-04-0.209D-02-0.427D-02-0.900D-02-0.589D-02 0.153D+00
 Coeff:      0.261D+00 0.607D+00
 Gap=     0.273 Goal=   None    Shift=    0.000
 RMSDP=3.53D-09 MaxDP=3.78D-07 DE=-1.18D-10 OVMax= 5.63D-07

 SCF Done:  E(RM06) =  -613.627027952     A.U. after   16 cycles
            NFock= 16  Conv=0.35D-08     -V/T= 2.0046
 KE= 6.108017232803D+02 PE=-3.183260447898D+03 EE= 1.082931374914D+03
 Leave Link  502 at Wed Jun 18 14:18:25 2014, MaxMem=  4294967296 cpu:     27203.7
 (Enter /home/ztw1e12/g09/l801.exe)
 DoSCS=F DFT=T ScalE2(SS,OS)=  1.000000  1.000000
 Range of M.O.s used for correlation:     1   932
 NBasis=  1036 NAE=    51 NBE=    51 NFC=     0 NFV=     0
 NROrb=    932 NOA=    51 NOB=    51 NVA=   881 NVB=   881

 **** Warning!!: The largest alpha MO coefficient is  0.12820634D+02

 Leave Link  801 at Wed Jun 18 14:18:25 2014, MaxMem=  4294967296 cpu:         0.4
 (Enter /home/ztw1e12/g09/l1002.exe)
 Minotr:  Closed shell wavefunction.
          IDoAtm=1111111111111111111111111111111
          Direct CPHF calculation.
          Differentiating once with respect to Fermi-contact.
          Electric field/nuclear overlap derivatives assumed to be zero.
          Requested convergence is 1.0D-10 RMS, and 1.0D-09 maximum.
          Secondary convergence is 1.0D-12 RMS, and 1.0D-12 maximum.
          NewPWx=T KeepS1=F KeepF1=F KeepIn=T MapXYZ=F SortEE=F KeepMc=T.
          MDV=    4294966050 using IRadAn=  199590.
 Using stored XC quadrature information.
          Solving linear equations simultaneously, MaxMat=       0.
          There are    31 degrees of freedom in the 1st order CPHF.  IDoFFX=0 NUNeed=    31.
     31 vectors produced by pass  0 Test12= 1.45D-17 3.23D-11 XBig12= 4.16D+01 2.57D+00.
 AX will form    31 AO Fock derivatives at one time.
 FoFJK:  IHMeth= 1 ICntrl=       0 DoSepK=F KAlg= 0 I1Cent=   0 FoldK=F
 IRaf= 500000000 NMat=  31 IRICut=       1 DoRegI=T DoRafI=F ISym2E=-1.
 FoFCou: FMM=F IPFlag=           0 FMFlag=      100000 FMFlg1=           0
         NFxFlg=           0 DoJE=F BraDBF=F KetDBF=F FulRan=T
         wScrn=  0.000000 ICntrl=       0 IOpCl=  0 I1Cent=           0 NGrid=           0
         NMat0=   31 NMatS0=      0 NMatT0=   31 NMatD0=   31 NMtDS0=    0 NMtDT0=    0
 Petite list used in FoFCou.
     31 vectors produced by pass  1 Test12= 1.45D-17 3.23D-11 XBig12= 3.46D-01 1.77D-01.
     31 vectors produced by pass  2 Test12= 1.45D-17 3.23D-11 XBig12= 1.69D-02 4.76D-02.
     31 vectors produced by pass  3 Test12= 1.45D-17 3.23D-11 XBig12= 3.79D-04 6.38D-03.
     31 vectors produced by pass  4 Test12= 1.45D-17 3.23D-11 XBig12= 5.67D-06 9.13D-04.
     31 vectors produced by pass  5 Test12= 1.45D-17 3.23D-11 XBig12= 1.07D-07 1.68D-04.
     31 vectors produced by pass  6 Test12= 1.45D-17 3.23D-11 XBig12= 3.07D-09 1.90D-05.
     31 vectors produced by pass  7 Test12= 1.45D-17 3.23D-11 XBig12= 9.71D-11 4.04D-06.
     31 vectors produced by pass  8 Test12= 1.45D-17 3.23D-11 XBig12= 1.88D-12 3.12D-07.
     31 vectors produced by pass  9 Test12= 1.45D-17 3.23D-11 XBig12= 5.15D-14 7.75D-08.
     31 vectors produced by pass 10 Test12= 1.45D-17 3.23D-11 XBig12= 1.98D-15 7.70D-09.
     30 vectors produced by pass 11 Test12= 1.45D-17 3.23D-11 XBig12= 2.06D-17 5.50D-10.
      4 vectors produced by pass 12 Test12= 1.45D-17 3.23D-11 XBig12= 1.80D-19 4.60D-11.
 InvSVY:  IOpt=1 It=  1 EMax= 7.99D-15
 Solved reduced A of dimension   375 with    31 vectors.
 Max diff in FC couplings:  IJMax=    11     1 Diff= 3.97D-04 IJMaxR=    26    22 DiffR= 7.70D-01
 Fermi Contact (FC) contribution to K (Hz):
                1             2             3             4             5 
      1  0.123400D+11
      2  0.274673D+02  0.123400D+11
      3 -0.968354D+00  0.189370D+02  0.123400D+11
      4  0.812132D-01  0.561827D-01 -0.332632D-01  0.123400D+11
      5 -0.430351D-02 -0.208079D-01  0.241911D-02  0.173294D+02  0.123400D+11
      6 -0.216935D-01  0.218188D-01  0.655981D-03  0.178830D+02 -0.824406D+00
      7  0.191873D-02 -0.923641D-02  0.186761D-02  0.167910D+02 -0.758495D+00
      8 -0.966178D+01  0.273259D+01  0.431673D+00  0.126543D+01  0.169596D-01
      9  0.216948D+00  0.194804D+02 -0.606903D+00 -0.181693D-01 -0.321460D-04
     10  0.799096D-01  0.237526D+00  0.148344D+00 -0.275500D-02  0.442269D-03
     11  0.289582D+02  0.140156D+02  0.182767D+00  0.860901D-01  0.349419D-01
     12  0.454952D+00  0.130171D+00 -0.226996D-01 -0.518473D-02 -0.705224D-03
     13 -0.375837D+00  0.112697D+01  0.182059D-01  0.104454D+00  0.148820D-02
     14  0.189618D+00 -0.949437D-01  0.139353D-01  0.208825D-01  0.126758D-02
     15  0.200125D+00 -0.767746D-01  0.641278D-02  0.885269D-03  0.781497D-03
     16  0.964985D+00 -0.272511D-01 -0.714461D-03  0.525604D-02  0.361475D-04
     17  0.140294D+00 -0.346865D+00  0.238589D+00 -0.107341D-01 -0.533402D-03
     18 -0.158473D+00  0.901415D+00 -0.787780D-01  0.783842D-03  0.427922D-04
     19 -0.229317D-02  0.104143D+00 -0.192397D-02 -0.282652D-04 -0.106163D-04
     20  0.584073D-01  0.914008D-02  0.197827D-01  0.265112D-03 -0.190960D-04
     21  0.661152D-01  0.501177D-01  0.237157D-01 -0.178300D-03 -0.206495D-04
     22  0.484936D+00  0.755770D+00  0.230739D+00  0.236378D-01 -0.123973D-03
     23  0.589177D+00 -0.555382D+00  0.955166D+00  0.174986D+02 -0.598706D+00
     24  0.290189D-02  0.520268D+00 -0.170173D-01 -0.665418D+00  0.114889D+00
     25 -0.540320D-01  0.170620D+01 -0.218082D-01 -0.341167D-01  0.359545D+00
     26  0.252147D-02 -0.124270D-01 -0.349885D-03  0.350298D+00 -0.581255D-02
     27  0.403498D-02 -0.144591D-01 -0.296955D-03  0.124837D+01  0.103465D-01
     28 -0.100945D-01  0.154321D+00  0.823598D-03  0.347536D+00 -0.894938D-02
     29 -0.468835D+00  0.163661D+02 -0.801420D+00 -0.814756D-01  0.126701D+01
     30  0.106227D+01 -0.970922D+00  0.134586D+00  0.825665D+00  0.486938D-01
     31  0.104295D+00 -0.363268D+00  0.163545D+00  0.806376D+00  0.949744D-02
                6             7             8             9            10 
      6  0.123400D+11
      7 -0.739066D+00  0.123400D+11
      8  0.957755D-01  0.135954D-01  0.123400D+11
      9  0.125158D-01  0.628711D-01  0.402818D+00  0.123400D+11
     10 -0.212356D-03 -0.149036D-02  0.216426D-02  0.315669D+02  0.123400D+11
     11  0.598619D-01  0.330571D-02  0.641662D+01  0.115538D+01  0.191064D+00
     12  0.721916D-03  0.509242D-03  0.471352D+00  0.542691D-01  0.198470D-03
     13  0.257901D-01 -0.631631D-02  0.605211D+00  0.323023D+00  0.183572D-01
     14  0.103666D-03  0.806017D-03  0.241503D+00 -0.509443D-02 -0.147333D-02
     15  0.691428D-03  0.482825D-03  0.242866D+00 -0.193753D-02 -0.114412D-02
     16  0.371321D-03 -0.246912D-03  0.177852D+00  0.232662D-01 -0.953673D-03
     17  0.476085D-03  0.720856D-02  0.409692D-01  0.267199D+02  0.400837D+00
     18  0.453275D-04  0.260175D-03  0.752630D-01  0.127470D+02  0.957107D-01
     19 -0.127575D-04  0.165317D-04 -0.454841D-03  0.353497D+00 -0.101314D-01
     20 -0.187276D-04 -0.218189D-04  0.409207D-02  0.330903D+00 -0.948016D-02
     21  0.512826D-04  0.422523D-04  0.239356D-02  0.415411D+00 -0.139506D-01
     22 -0.938188D-03 -0.100106D-03  0.607745D+00  0.588654D+01  0.437027D+00
     23 -0.625065D+00 -0.709957D+00  0.244652D+00  0.735659D+00 -0.192615D-01
     24  0.126609D+00  0.341080D+00  0.723392D-01  0.845272D-01 -0.206834D-01
     25  0.149202D+01  0.424102D+00  0.114703D+00 -0.567319D-01  0.900767D-02
     26 -0.805485D-02 -0.132121D-01  0.220098D-01  0.195733D-01  0.564299D-03
     27  0.937660D-01 -0.540262D-02  0.652385D-02  0.823218D-02  0.170228D-02
     28  0.620969D-02 -0.326365D-02 -0.457722D-03 -0.651086D-02  0.232574D-02
     29  0.178172D+00  0.452020D+00  0.303165D+00  0.803761D+00  0.517878D+00
     30 -0.926660D-02 -0.751188D-02  0.650951D-01  0.702323D+00 -0.177956D-01
     31 -0.101483D-01 -0.188182D-01 -0.147556D-01  0.175674D+01 -0.174517D-01
               11            12            13            14            15 
     11  0.123400D+11
     12  0.312659D+02  0.123400D+11
     13  0.170407D+02  0.320588D+00  0.123400D+11
     14 -0.592556D+00  0.621769D-01  0.195547D+02  0.123400D+11
     15 -0.527071D+00  0.161092D+00  0.203284D+02 -0.733252D+00  0.123400D+11
     16 -0.383514D+00  0.287342D+00  0.182849D+02 -0.732761D+00 -0.763650D+00
     17 -0.624156D-01  0.122406D-03 -0.728564D-02  0.354113D-03 -0.223415D-04
     18  0.164919D-01  0.820456D-03  0.992442D-02  0.191616D-02  0.138370D-02
     19  0.630324D-02  0.615965D-04  0.882183D-04 -0.596827D-04 -0.376211D-04
     20 -0.294299D-02 -0.172369D-03 -0.335684D-03  0.240894D-04 -0.501410D-04
     21  0.126172D-01 -0.326995D-04  0.198729D-02  0.120725D-03 -0.614367D-04
     22  0.174089D+00 -0.172082D-02  0.472556D-02  0.759091D-02  0.407230D-02
     23 -0.303671D-01  0.330549D-02 -0.666206D-02 -0.141721D-02 -0.130455D-02
     24  0.195659D-01 -0.411976D-03  0.672392D-03  0.661601D-03  0.965500D-04
     25  0.121193D-01 -0.216775D-02  0.118694D-01  0.192881D-02  0.899175D-03
     26 -0.868720D-03  0.778027D-04  0.495207D-04 -0.436204D-04 -0.205951D-04
     27  0.418130D-02 -0.118644D-03  0.122286D-02  0.890873D-03  0.451193D-03
     28  0.942341D-03 -0.114864D-03 -0.634025D-03  0.539939D-03  0.430784D-03
     29  0.126104D+00 -0.351806D-01 -0.118090D+00  0.808247D-01  0.916733D-01
     30 -0.316404D-01 -0.507130D-02 -0.229448D-02  0.288564D-02  0.389768D-02
     31  0.277833D-01 -0.432791D-02 -0.119492D-02 -0.874890D-04  0.107491D-03
               16            17            18            19            20 
     16  0.123400D+11
     17 -0.170164D-03  0.123400D+11
     18  0.228180D-03  0.272248D+02  0.123400D+11
     19  0.000000D+00 -0.761322D+00  0.170337D+02  0.123400D+11
     20  0.135731D-03 -0.117933D+01  0.177854D+02 -0.728160D+00  0.123400D+11
     21  0.356732D-03 -0.119956D+01  0.181166D+02 -0.736632D+00 -0.924291D+00
     22  0.214302D-02 -0.956668D+01  0.373771D+01  0.825829D+00  0.426844D+00
     23 -0.137265D-04 -0.522013D-01  0.193247D-01 -0.117256D-02 -0.147594D-02
     24  0.122275D-03 -0.137388D-03 -0.184789D-02  0.234370D-03  0.742250D-03
     25  0.814449D-03  0.165433D-01 -0.451534D-02  0.117546D-03  0.295287D-03
     26  0.199092D-04  0.399402D-02 -0.389252D-04  0.427765D-05  0.196180D-04
     27  0.277839D-04 -0.409867D-03  0.210111D-03 -0.449440D-04 -0.150475D-04
     28 -0.498151D-05  0.271119D-02 -0.395093D-03 -0.615331D-05 -0.107020D-04
     29  0.100766D-02  0.150911D+01 -0.403489D-01 -0.167310D-02  0.796149D-02
     30  0.266386D-03 -0.470554D-02  0.148635D-01 -0.152462D-03 -0.328782D-03
     31  0.340136D-03  0.121899D+00  0.580353D-01 -0.491247D-04  0.174451D-02
               21            22            23            24            25 
     21  0.123400D+11
     22  0.444080D+00  0.123400D+11
     23 -0.124350D-02  0.971399D-01  0.123400D+11
     24  0.195023D-04  0.141063D-01  0.171177D+02  0.123400D+11
     25 -0.234113D-03  0.264313D-01  0.171125D+02 -0.743270D+00  0.123400D+11
     26  0.113522D-03  0.897209D-05 -0.785284D+00  0.405421D+00  0.170524D+02
     27  0.125142D-04  0.664104D-03 -0.552383D+00  0.157185D+00  0.172714D+02
     28  0.177585D-04  0.433930D-02 -0.530715D+00  0.115444D+00  0.175676D+02
     29 -0.385702D-02  0.148651D+00  0.172099D+02 -0.663849D+00  0.225720D+00
     30 -0.687283D-03  0.131931D-02 -0.569806D+00  0.247509D-01  0.836770D+00
     31 -0.193906D-02 -0.732832D-02 -0.686231D+00  0.283648D+00  0.254319D-01
               26            27            28            29            30 
     26  0.123400D+11
     27 -0.753782D+00  0.123400D+11
     28 -0.764473D+00 -0.755613D+00  0.123400D+11
     29  0.439947D+00  0.327364D+00  0.144234D+01  0.123400D+11
     30 -0.312724D-02 -0.146653D-01  0.291240D-01  0.173014D+02  0.123400D+11
     31 -0.769670D-02 -0.529603D-02 -0.221229D-01  0.172541D+02 -0.888190D+00
               31 
     31  0.123400D+11
 Fermi Contact (FC) contribution to J (Hz):
                1             2             3             4             5 
      1  0.243533D+11
      2  0.542074D+02  0.243533D+11
      3 -0.759858D+01  0.148597D+03  0.385007D+12
      4  0.160276D+00  0.110878D+00 -0.261013D+00  0.243533D+11
      5 -0.337692D-01 -0.163278D+00  0.754762D-01  0.135982D+03  0.385007D+12
      6 -0.170227D+00  0.171210D+00  0.204666D-01  0.140326D+03 -0.257214D+02
      7  0.150561D-01 -0.724772D-01  0.582692D-01  0.131757D+03 -0.236650D+02
      8  0.102819D+02 -0.290797D+01 -0.182652D+01 -0.134664D+01 -0.717606D-01
      9  0.123055D+00  0.110495D+02 -0.136874D+01 -0.103058D-01 -0.724984D-04
     10  0.627043D+00  0.186384D+01  0.462834D+01 -0.216182D-01  0.137988D-01
     11  0.164254D+02  0.794980D+01  0.412192D+00  0.488314D-01  0.788040D-01
     12  0.356997D+01  0.102144D+01 -0.708226D+00 -0.406841D-01 -0.220030D-01
     13 -0.741724D+00  0.222411D+01  0.142860D+00  0.206143D+00  0.116778D-01
     14  0.148792D+01 -0.745014D+00  0.434780D+00  0.163863D+00  0.395486D-01
     15  0.157036D+01 -0.602443D+00  0.200078D+00  0.694662D-02  0.243827D-01
     16  0.757215D+01 -0.213837D+00 -0.222912D-01  0.412436D-01  0.112780D-02
     17  0.276873D+00 -0.684547D+00  0.187218D+01 -0.211840D-01 -0.418555D-02
     18 -0.312750D+00  0.177897D+01 -0.618163D+00  0.154693D-02  0.335786D-03
     19 -0.179943D-01  0.817198D+00 -0.600276D-01 -0.221794D-03 -0.331227D-03
     20  0.458316D+00  0.717213D-01  0.617221D+00  0.208031D-02 -0.595793D-03
     21  0.518800D+00  0.393269D+00  0.739930D+00 -0.139910D-02 -0.644264D-03
     22 -0.516060D+00 -0.804276D+00 -0.976318D+00 -0.251549D-01  0.524563D-03
     23  0.116276D+01 -0.109606D+01  0.749510D+01  0.345338D+02 -0.469798D+01
     24  0.227709D-01  0.408250D+01 -0.530940D+00 -0.522147D+01  0.358452D+01
     25 -0.106634D+00  0.336722D+01 -0.171127D+00 -0.673302D-01  0.282131D+01
     26  0.197857D-01 -0.975136D-01 -0.109164D-01  0.274875D+01 -0.181351D+00
     27  0.316621D-01 -0.113459D+00 -0.926499D-02  0.979585D+01  0.322809D+00
     28 -0.792108D-01  0.121094D+01  0.256962D-01  0.272708D+01 -0.279220D+00
     29 -0.925258D+00  0.322990D+02 -0.628867D+01 -0.160794D+00  0.994210D+01
     30  0.833552D+01 -0.761873D+01  0.419907D+01  0.647892D+01  0.151925D+01
     31  0.818392D+00 -0.285053D+01  0.510260D+01  0.632755D+01  0.296320D+00
                6             7             8             9            10 
      6  0.385007D+12
      7 -0.230588D+02  0.385007D+12
      8 -0.405252D+00 -0.575260D-01  0.708114D+10
      9  0.282266D-01  0.141792D+00 -0.123205D+00  0.201170D+10
     10 -0.662549D-02 -0.464992D-01 -0.915758D-02  0.711923D+02  0.385007D+12
     11  0.135006D+00  0.745532D-02 -0.196257D+01  0.188353D+00  0.430903D+00
     12  0.225238D-01  0.158883D-01 -0.199442D+01  0.122392D+00  0.619225D-02
     13  0.202373D+00 -0.495635D-01 -0.644054D+00  0.183223D+00  0.144048D+00
     14  0.323438D-02  0.251477D-01 -0.102187D+01 -0.114894D-01 -0.459677D-01
     15  0.215725D-01  0.150641D-01 -0.102763D+01 -0.436967D-02 -0.356964D-01
     16  0.115852D-01 -0.770365D-02 -0.752541D+00  0.524718D-01 -0.297545D-01
     17  0.373579D-02  0.565649D-01 -0.435986D-01  0.151559D+02  0.314533D+01
     18  0.355681D-03  0.204157D-02 -0.800934D-01  0.723027D+01  0.751032D+00
     19 -0.398032D-03  0.515787D-03  0.192456D-02  0.797237D+00 -0.316100D+00
     20 -0.584302D-03 -0.680749D-03 -0.173147D-01  0.746280D+00 -0.295781D+00
     21  0.160001D-02  0.131827D-02 -0.101278D-01  0.936870D+00 -0.435258D+00
     22  0.396973D-02  0.423578D-03  0.348747D+00 -0.180044D+01 -0.184918D+01
     23 -0.490483D+01 -0.557096D+01 -0.260354D+00  0.417275D+00 -0.151143D+00
     24  0.395019D+01  0.106417D+02 -0.306087D+00  0.190633D+00 -0.645321D+00
     25  0.117077D+02  0.332789D+01 -0.122064D+00 -0.321790D-01  0.706823D-01
     26 -0.251311D+00 -0.412216D+00 -0.931293D-01  0.441433D-01  0.176061D-01
     27  0.292549D+01 -0.168562D+00 -0.276042D-01  0.185659D-01  0.531110D-01
     28  0.193742D+00 -0.101826D+00  0.193675D-02 -0.146838D-01  0.725631D-01
     29  0.139810D+01  0.354696D+01 -0.322622D+00  0.455903D+00  0.406374D+01
     30 -0.289117D+00 -0.234370D+00 -0.275435D+00  0.158394D+01 -0.555223D+00
     31 -0.316627D+00 -0.587127D+00  0.624349D-01  0.396196D+01 -0.544491D+00
               11            12            13            14            15 
     11  0.201170D+10
     12  0.705136D+02  0.385007D+12
     13  0.966570D+01  0.251562D+01  0.243533D+11
     14 -0.133638D+01  0.193992D+01  0.153444D+03  0.385007D+12
     15 -0.118870D+01  0.502607D+01  0.159515D+03 -0.228774D+02  0.385007D+12
     16 -0.864933D+00  0.896505D+01  0.143480D+03 -0.228621D+02 -0.238258D+02
     17 -0.354029D-01  0.960507D-03 -0.143784D-01  0.277869D-02 -0.175311D-03
     18  0.935442D-02  0.643804D-02  0.195861D-01  0.150359D-01  0.108578D-01
     19  0.142156D-01  0.192181D-02  0.692241D-03 -0.186210D-02 -0.117378D-02
     20 -0.663729D-02 -0.537789D-02 -0.263408D-02  0.751589D-03 -0.156440D-02
     21  0.284554D-01 -0.102022D-02  0.155940D-01  0.376662D-02 -0.191682D-02
     22 -0.532465D-01  0.728125D-02 -0.502885D-02 -0.321192D-01 -0.172310D-01
     23 -0.172246D-01  0.259379D-01 -0.131477D-01 -0.111207D-01 -0.102367D-01
     24  0.441266D-01 -0.128536D-01  0.527619D-02  0.206419D-01  0.301235D-02
     25  0.687423D-02 -0.170101D-01  0.234246D-01  0.151352D-01  0.705574D-02
     26 -0.195921D-02  0.242744D-02  0.388584D-03 -0.136096D-02 -0.642568D-03
     27  0.943001D-02 -0.370170D-02  0.959563D-02  0.277952D-01  0.140772D-01
     28  0.212525D-02 -0.358375D-02 -0.497513D-02  0.168461D-01  0.134404D-01
     29  0.715275D-01 -0.276059D+00 -0.233053D+00  0.634224D+00  0.719351D+00
     30 -0.713580D-01 -0.158224D+00 -0.180046D-01  0.900319D-01  0.121607D+00
     31  0.626593D-01 -0.135030D+00 -0.937645D-02 -0.272965D-02  0.335372D-02
               16            17            18            19            20 
     16  0.385007D+12
     17 -0.133526D-02  0.243533D+11
     18  0.179051D-02  0.537289D+02  0.243533D+11
     19  0.222318D-04 -0.597402D+01  0.133662D+03  0.385007D+12
     20  0.423479D-02 -0.925407D+01  0.139560D+03 -0.227186D+02  0.385007D+12
     21  0.111300D-01 -0.941283D+01  0.142159D+03 -0.229829D+02 -0.288378D+02
     22 -0.906768D-02  0.101807D+02 -0.397759D+01 -0.349431D+01 -0.180609D+01
     23 -0.107711D-03 -0.103021D+00  0.381377D-01 -0.920096D-02 -0.115816D-01
     24  0.381498D-02 -0.107807D-02 -0.145002D-01  0.731233D-02  0.231582D-01
     25  0.639090D-02  0.326486D-01 -0.891113D-02  0.922369D-03  0.231709D-02
     26  0.621167D-03  0.313407D-01 -0.305442D-03  0.133463D-03  0.612082D-03
     27  0.866856D-03 -0.321618D-02  0.164872D-02 -0.140225D-02 -0.469481D-03
     28 -0.155423D-03  0.212744D-01 -0.310025D-02 -0.191983D-03 -0.333903D-03
     29  0.790697D-02  0.297826D+01 -0.796295D-01 -0.131286D-01  0.624730D-01
     30  0.831122D-02 -0.369239D-01  0.116632D+00 -0.475682D-02 -0.102580D-01
     31  0.106122D-01  0.956527D+00  0.455397D+00 -0.153269D-02  0.544287D-01
               21            22            23            24            25 
     21  0.385007D+12
     22 -0.187902D+01  0.708114D+10
     23 -0.975766D-02 -0.103374D+00  0.243533D+11
     24  0.608471D-03 -0.596878D-01  0.134321D+03  0.385007D+12
     25 -0.183706D-02 -0.281277D-01  0.337719D+02 -0.583237D+01  0.243533D+11
     26  0.354189D-02 -0.379633D-04 -0.616205D+01  0.126491D+02  0.133808D+03
     27  0.390443D-03 -0.281001D-02 -0.433450D+01  0.490417D+01  0.135527D+03
     28  0.554063D-03 -0.183608D-01 -0.416447D+01  0.360183D+01  0.137852D+03
     29 -0.302657D-01 -0.158192D+00  0.339642D+02 -0.520916D+01  0.445463D+00
     30 -0.214432D-01 -0.558237D-02 -0.447121D+01  0.772228D+00  0.656605D+01
     31 -0.604985D-01  0.310081D-01 -0.538479D+01  0.884981D+01  0.199562D+00
               26            27            28            29            30 
     26  0.385007D+12
     27 -0.235180D+02  0.385007D+12
     28 -0.238515D+02 -0.235751D+02  0.385007D+12
     29  0.345223D+01  0.256879D+01  0.113179D+02  0.243533D+11
     30 -0.975699D-01 -0.457558D+00  0.908668D+00  0.135762D+03  0.385007D+12
     31 -0.240137D+00 -0.165236D+00 -0.690232D+00  0.135391D+03 -0.277115D+02
               31 
     31  0.385007D+12
 End of Minotr F.D. properties file   721 does not exist.
 End of Minotr F.D. properties file   722 does not exist.
 End of Minotr F.D. properties file   788 does not exist.
 Leave Link 1002 at Wed Jun 18 20:50:04 2014, MaxMem=  4294967296 cpu:    375043.2
 (Enter /home/ztw1e12/g09/l601.exe)
 Copying SCF densities to generalized density rwf, IOpCl= 0 IROHF=0.

 **********************************************************************

            Population analysis using the SCF density.

 **********************************************************************

 Orbital symmetries:
       Occupied  (A) (A) (A) (A) (A) (A) (A) (A) (A) (A) (A) (A)
                 (A) (A) (A) (A) (A) (A) (A) (A) (A) (A) (A) (A)
                 (A) (A) (A) (A) (A) (A) (A) (A) (A) (A) (A) (A)
                 (A) (A) (A) (A) (A) (A) (A) (A) (A) (A) (A) (A)
                 (A) (A) (A)
       Virtual   (A) (A) (A) (A) (A) (A) (A) (A) (A) (A) (A) (A)
                 (A) (A) (A) (A) (A) (A) (A) (A) (A) (A) (A) (A)
                 (A) (A) (A) (A) (A) (A) (A) (A) (A) (A) (A) (A)
                 (A) (A) (A) (A) (A) (A) (A) (A) (A) (A) (A) (A)
                 (A) (A) (A) (A) (A) (A) (A) (A) (A) (A) (A) (A)
                 (A) (A) (A) (A) (A) (A) (A) (A) (A) (A) (A) (A)
                 (A) (A) (A) (A) (A) (A) (A) (A) (A) (A) (A) (A)
                 (A) (A) (A) (A) (A) (A) (A) (A) (A) (A) (A) (A)
                 (A) (A) (A) (A) (A) (A) (A) (A) (A) (A) (A) (A)
                 (A) (A) (A) (A) (A) (A) (A) (A) (A) (A) (A) (A)
                 (A) (A) (A) (A) (A) (A) (A) (A) (A) (A) (A) (A)
                 (A) (A) (A) (A) (A) (A) (A) (A) (A) (A) (A) (A)
                 (A) (A) (A) (A) (A) (A) (A) (A) (A) (A) (A) (A)
                 (A) (A) (A) (A) (A) (A) (A) (A) (A) (A) (A) (A)
                 (A) (A) (A) (A) (A) (A) (A) (A) (A) (A) (A) (A)
                 (A) (A) (A) (A) (A) (A) (A) (A) (A) (A) (A) (A)
                 (A) (A) (A) (A) (A) (A) (A) (A) (A) (A) (A) (A)
                 (A) (A) (A) (A) (A) (A) (A) (A) (A) (A) (A) (A)
                 (A) (A) (A) (A) (A) (A) (A) (A) (A) (A) (A) (A)
                 (A) (A) (A) (A) (A) (A) (A) (A) (A) (A) (A) (A)
                 (A) (A) (A) (A) (A) (A) (A) (A) (A) (A) (A) (A)
                 (A) (A) (A) (A) (A) (A) (A) (A) (A) (A) (A) (A)
                 (A) (A) (A) (A) (A) (A) (A) (A) (A) (A) (A) (A)
                 (A) (A) (A) (A) (A) (A) (A) (A) (A) (A) (A) (A)
                 (A) (A) (A) (A) (A) (A) (A) (A) (A) (A) (A) (A)
                 (A) (A) (A) (A) (A) (A) (A) (A) (A) (A) (A) (A)
                 (A) (A) (A) (A) (A) (A) (A) (A) (A) (A) (A) (A)
                 (A) (A) (A) (A) (A) (A) (A) (A) (A) (A) (A) (A)
                 (A) (A) (A) (A) (A) (A) (A) (A) (A) (A) (A) (A)
                 (A) (A) (A) (A) (A) (A) (A) (A) (A) (A) (A) (A)
                 (A) (A) (A) (A) (A) (A) (A) (A) (A) (A) (A) (A)
                 (A) (A) (A) (A) (A) (A) (A) (A) (A) (A) (A) (A)
                 (A) (A) (A) (A) (A) (A) (A) (A) (A) (A) (A) (A)
                 (A) (A) (A) (A) (A) (A) (A) (A) (A) (A) (A) (A)
                 (A) (A) (A) (A) (A) (A) (A) (A) (A) (A) (A) (A)
                 (A) (A) (A) (A) (A) (A) (A) (A) (A) (A) (A) (A)
                 (A) (A) (A) (A) (A) (A) (A) (A) (A) (A) (A) (A)
                 (A) (A) (A) (A) (A) (A) (A) (A) (A) (A) (A) (A)
                 (A) (A) (A) (A) (A) (A) (A) (A) (A) (A) (A) (A)
                 (A) (A) (A) (A) (A) (A) (A) (A) (A) (A) (A) (A)
                 (A) (A) (A) (A) (A) (A) (A) (A) (A) (A) (A) (A)
                 (A) (A) (A) (A) (A) (A) (A) (A) (A) (A) (A) (A)
                 (A) (A) (A) (A) (A) (A) (A) (A) (A) (A) (A) (A)
                 (A) (A) (A) (A) (A) (A) (A) (A) (A) (A) (A) (A)
                 (A) (A) (A) (A) (A) (A) (A) (A) (A) (A) (A) (A)
                 (A) (A) (A) (A) (A) (A) (A) (A) (A) (A) (A) (A)
                 (A) (A) (A) (A) (A) (A) (A) (A) (A) (A) (A) (A)
                 (A) (A) (A) (A) (A) (A) (A) (A) (A) (A) (A) (A)
                 (A) (A) (A) (A) (A) (A) (A) (A) (A) (A) (A) (A)
                 (A) (A) (A) (A) (A) (A) (A) (A) (A) (A) (A) (A)
                 (A) (A) (A) (A) (A) (A) (A) (A) (A) (A) (A) (A)
                 (A) (A) (A) (A) (A) (A) (A) (A) (A) (A) (A) (A)
                 (A) (A) (A) (A) (A) (A) (A) (A) (A) (A) (A) (A)
                 (A) (A) (A) (A) (A) (A) (A) (A) (A) (A) (A) (A)
                 (A) (A) (A) (A) (A) (A) (A) (A) (A) (A) (A) (A)
                 (A) (A) (A) (A) (A) (A) (A) (A) (A) (A) (A) (A)
                 (A) (A) (A) (A) (A) (A) (A) (A) (A) (A) (A) (A)
                 (A) (A) (A) (A) (A) (A) (A) (A) (A) (A) (A) (A)
                 (A) (A) (A) (A) (A) (A) (A) (A) (A) (A) (A) (A)
                 (A) (A) (A) (A) (A) (A) (A) (A) (A) (A) (A) (A)
                 (A) (A) (A) (A) (A) (A) (A) (A) (A) (A) (A) (A)
                 (A) (A) (A) (A) (A) (A) (A) (A) (A) (A) (A) (A)
                 (A) (A) (A) (A) (A) (A) (A) (A) (A) (A) (A) (A)
                 (A) (A) (A) (A) (A) (A) (A) (A) (A) (A) (A) (A)
                 (A) (A) (A) (A) (A) (A) (A) (A) (A) (A) (A) (A)
                 (A) (A) (A) (A) (A) (A) (A) (A) (A) (A) (A) (A)
                 (A) (A) (A) (A) (A) (A) (A) (A) (A) (A) (A) (A)
                 (A) (A) (A) (A) (A) (A) (A) (A) (A) (A) (A) (A)
                 (A) (A) (A) (A) (A) (A) (A) (A) (A) (A) (A) (A)
                 (A) (A) (A) (A) (A) (A) (A) (A) (A) (A) (A) (A)
                 (A) (A) (A) (A) (A) (A) (A) (A) (A) (A) (A) (A)
                 (A) (A) (A) (A) (A) (A) (A) (A) (A) (A) (A) (A)
                 (A) (A) (A) (A) (A) (A) (A) (A) (A) (A) (A) (A)
                 (A) (A) (A) (A) (A)
 The electronic state is 1-A.
 Alpha  occ. eigenvalues --  -19.17078 -19.16406 -14.41832 -14.41473 -10.33386
 Alpha  occ. eigenvalues --  -10.33320 -10.29234 -10.27134 -10.25652 -10.25275
 Alpha  occ. eigenvalues --  -10.23779 -10.23478 -10.22810  -1.05346  -1.04022
 Alpha  occ. eigenvalues --   -0.94355  -0.94182  -0.83904  -0.78588  -0.74257
 Alpha  occ. eigenvalues --   -0.72055  -0.70058  -0.66073  -0.60673  -0.59805
 Alpha  occ. eigenvalues --   -0.58576  -0.54492  -0.50904  -0.49786  -0.47696
 Alpha  occ. eigenvalues --   -0.47387  -0.46879  -0.45401  -0.44755  -0.44205
 Alpha  occ. eigenvalues --   -0.42222  -0.41867  -0.40630  -0.40363  -0.40171
 Alpha  occ. eigenvalues --   -0.39752  -0.38596  -0.37890  -0.36558  -0.35129
 Alpha  occ. eigenvalues --   -0.34594  -0.33720  -0.28188  -0.27540  -0.26118
 Alpha  occ. eigenvalues --   -0.26012
 Alpha virt. eigenvalues --    0.01283   0.02144   0.02750   0.03675   0.04676
 Alpha virt. eigenvalues --    0.05150   0.06449   0.07062   0.08044   0.08324
 Alpha virt. eigenvalues --    0.09864   0.10197   0.10690   0.11110   0.12146
 Alpha virt. eigenvalues --    0.12460   0.13221   0.13338   0.14275   0.15301
 Alpha virt. eigenvalues --    0.16013   0.17503   0.17946   0.18612   0.19888
 Alpha virt. eigenvalues --    0.20400   0.22799   0.23389   0.24459   0.24888
 Alpha virt. eigenvalues --    0.25172   0.26058   0.26721   0.27449   0.28047
 Alpha virt. eigenvalues --    0.28930   0.29889   0.30721   0.30946   0.32361
 Alpha virt. eigenvalues --    0.32566   0.33377   0.33813   0.34880   0.36168
 Alpha virt. eigenvalues --    0.36759   0.37491   0.37842   0.38659   0.39183
 Alpha virt. eigenvalues --    0.39358   0.39947   0.40041   0.40363   0.40780
 Alpha virt. eigenvalues --    0.41516   0.42122   0.42532   0.42823   0.43136
 Alpha virt. eigenvalues --    0.43417   0.44229   0.44658   0.45157   0.45729
 Alpha virt. eigenvalues --    0.46066   0.46881   0.47687   0.48129   0.48526
 Alpha virt. eigenvalues --    0.49134   0.50292   0.51671   0.52346   0.52643
 Alpha virt. eigenvalues --    0.53197   0.53456   0.54779   0.55208   0.56029
 Alpha virt. eigenvalues --    0.57064   0.58702   0.59615   0.60865   0.61297
 Alpha virt. eigenvalues --    0.62963   0.63793   0.64727   0.66288   0.67298
 Alpha virt. eigenvalues --    0.69335   0.70779   0.71021   0.72283   0.73478
 Alpha virt. eigenvalues --    0.74679   0.75573   0.76641   0.77612   0.78400
 Alpha virt. eigenvalues --    0.80022   0.80799   0.81653   0.82512   0.83041
 Alpha virt. eigenvalues --    0.84494   0.84879   0.86399   0.86546   0.88116
 Alpha virt. eigenvalues --    0.88809   0.89414   0.89886   0.90532   0.90671
 Alpha virt. eigenvalues --    0.92388   0.93016   0.93883   0.94958   0.95202
 Alpha virt. eigenvalues --    0.96071   0.96483   0.96804   0.97414   0.98214
 Alpha virt. eigenvalues --    0.98396   0.99848   1.00664   1.00894   1.02018
 Alpha virt. eigenvalues --    1.02737   1.03413   1.03514   1.04558   1.04926
 Alpha virt. eigenvalues --    1.07185   1.08095   1.08404   1.10393   1.11016
 Alpha virt. eigenvalues --    1.11457   1.12640   1.13280   1.15124   1.15461
 Alpha virt. eigenvalues --    1.16418   1.16821   1.17552   1.17972   1.18488
 Alpha virt. eigenvalues --    1.19021   1.20267   1.20609   1.21420   1.21809
 Alpha virt. eigenvalues --    1.22204   1.22553   1.22962   1.23309   1.23767
 Alpha virt. eigenvalues --    1.24133   1.24748   1.25687   1.26148   1.26449
 Alpha virt. eigenvalues --    1.27145   1.27974   1.28247   1.28528   1.29229
 Alpha virt. eigenvalues --    1.29956   1.30302   1.31259   1.31650   1.32953
 Alpha virt. eigenvalues --    1.33541   1.34712   1.34985   1.35842   1.37208
 Alpha virt. eigenvalues --    1.38460   1.39026   1.40695   1.41218   1.41363
 Alpha virt. eigenvalues --    1.44248   1.44343   1.45133   1.47239   1.47754
 Alpha virt. eigenvalues --    1.48621   1.49275   1.51138   1.54858   1.56434
 Alpha virt. eigenvalues --    1.57186   1.58267   1.59419   1.60987   1.63074
 Alpha virt. eigenvalues --    1.63893   1.67001   1.68741   1.70541   1.73591
 Alpha virt. eigenvalues --    1.74555   1.76033   1.77910   1.79685   1.82039
 Alpha virt. eigenvalues --    1.84413   1.87864   1.88654   1.90923   1.91768
 Alpha virt. eigenvalues --    1.93241   1.95856   1.98719   1.99211   1.99725
 Alpha virt. eigenvalues --    2.00840   2.02408   2.04330   2.06490   2.07201
 Alpha virt. eigenvalues --    2.07587   2.09082   2.12543   2.13912   2.16393
 Alpha virt. eigenvalues --    2.17835   2.19314   2.20528   2.20792   2.21703
 Alpha virt. eigenvalues --    2.24844   2.25663   2.26597   2.28903   2.29427
 Alpha virt. eigenvalues --    2.32432   2.34009   2.36465   2.37175   2.38101
 Alpha virt. eigenvalues --    2.40032   2.41878   2.42471   2.43223   2.44695
 Alpha virt. eigenvalues --    2.45222   2.45738   2.47502   2.47743   2.49394
 Alpha virt. eigenvalues --    2.51495   2.51932   2.52445   2.53969   2.54822
 Alpha virt. eigenvalues --    2.55564   2.56490   2.59229   2.59947   2.60636
 Alpha virt. eigenvalues --    2.64924   2.66459   2.67578   2.67775   2.69148
 Alpha virt. eigenvalues --    2.70274   2.71034   2.71515   2.72381   2.73087
 Alpha virt. eigenvalues --    2.73699   2.74663   2.75704   2.76079   2.78213
 Alpha virt. eigenvalues --    2.79418   2.79785   2.81984   2.82567   2.83344
 Alpha virt. eigenvalues --    2.83977   2.84490   2.85088   2.87255   2.87493
 Alpha virt. eigenvalues --    2.88047   2.88375   2.89158   2.89653   2.90929
 Alpha virt. eigenvalues --    2.91912   2.93016   2.93364   2.94554   2.95216
 Alpha virt. eigenvalues --    2.95880   2.96484   2.97704   2.97870   2.98913
 Alpha virt. eigenvalues --    2.99092   3.00284   3.01066   3.01447   3.02794
 Alpha virt. eigenvalues --    3.03021   3.03817   3.03862   3.05673   3.06824
 Alpha virt. eigenvalues --    3.07918   3.08337   3.08796   3.09214   3.10240
 Alpha virt. eigenvalues --    3.11761   3.12481   3.13437   3.14407   3.15426
 Alpha virt. eigenvalues --    3.17008   3.17578   3.18498   3.18993   3.20543
 Alpha virt. eigenvalues --    3.21042   3.21660   3.22764   3.23420   3.24785
 Alpha virt. eigenvalues --    3.25374   3.25648   3.27468   3.27758   3.28504
 Alpha virt. eigenvalues --    3.28757   3.29116   3.29801   3.30627   3.31206
 Alpha virt. eigenvalues --    3.32864   3.33994   3.34783   3.34926   3.36207
 Alpha virt. eigenvalues --    3.36793   3.38381   3.38547   3.39141   3.39872
 Alpha virt. eigenvalues --    3.40674   3.40880   3.41980   3.42601   3.43299
 Alpha virt. eigenvalues --    3.43672   3.44294   3.45342   3.46701   3.47883
 Alpha virt. eigenvalues --    3.49051   3.49927   3.50618   3.52268   3.54615
 Alpha virt. eigenvalues --    3.55322   3.56718   3.57515   3.58538   3.60011
 Alpha virt. eigenvalues --    3.60412   3.62332   3.63309   3.64135   3.66001
 Alpha virt. eigenvalues --    3.66550   3.66994   3.69136   3.70240   3.71592
 Alpha virt. eigenvalues --    3.72333   3.72703   3.74037   3.74190   3.74679
 Alpha virt. eigenvalues --    3.76068   3.76649   3.77753   3.78229   3.79309
 Alpha virt. eigenvalues --    3.81056   3.81255   3.82922   3.83552   3.84150
 Alpha virt. eigenvalues --    3.84947   3.86335   3.87204   3.88868   3.89826
 Alpha virt. eigenvalues --    3.89932   3.91637   3.92622   3.93703   3.94672
 Alpha virt. eigenvalues --    3.95395   3.96094   3.97949   3.99161   3.99887
 Alpha virt. eigenvalues --    4.00764   4.02197   4.04362   4.05113   4.05859
 Alpha virt. eigenvalues --    4.06251   4.06921   4.07519   4.10065   4.10721
 Alpha virt. eigenvalues --    4.11241   4.11917   4.12487   4.13828   4.14037
 Alpha virt. eigenvalues --    4.15405   4.16304   4.17963   4.18833   4.19936
 Alpha virt. eigenvalues --    4.20580   4.21041   4.22295   4.23123   4.24237
 Alpha virt. eigenvalues --    4.25225   4.26994   4.27157   4.27550   4.28956
 Alpha virt. eigenvalues --    4.29612   4.30659   4.31542   4.33269   4.33534
 Alpha virt. eigenvalues --    4.35330   4.37019   4.37708   4.40558   4.41679
 Alpha virt. eigenvalues --    4.44605   4.45518   4.46205   4.48769   4.50210
 Alpha virt. eigenvalues --    4.51453   4.52659   4.53297   4.55042   4.56297
 Alpha virt. eigenvalues --    4.56981   4.59328   4.60085   4.61049   4.61849
 Alpha virt. eigenvalues --    4.62925   4.63580   4.63814   4.64766   4.65580
 Alpha virt. eigenvalues --    4.66373   4.68138   4.69478   4.70891   4.71906
 Alpha virt. eigenvalues --    4.72151   4.74365   4.75075   4.76207   4.77175
 Alpha virt. eigenvalues --    4.78964   4.79492   4.79761   4.81937   4.83528
 Alpha virt. eigenvalues --    4.84029   4.85706   4.88642   4.90065   4.91663
 Alpha virt. eigenvalues --    4.92950   4.93407   4.94806   4.95846   4.97231
 Alpha virt. eigenvalues --    4.97858   4.98906   5.00218   5.01391   5.02606
 Alpha virt. eigenvalues --    5.02927   5.03133   5.04996   5.07462   5.10680
 Alpha virt. eigenvalues --    5.11055   5.11880   5.13281   5.14434   5.15659
 Alpha virt. eigenvalues --    5.16071   5.17663   5.18424   5.19705   5.21467
 Alpha virt. eigenvalues --    5.21996   5.23222   5.24069   5.24693   5.24969
 Alpha virt. eigenvalues --    5.25987   5.27514   5.28845   5.29385   5.30554
 Alpha virt. eigenvalues --    5.31194   5.34545   5.36305   5.38431   5.39745
 Alpha virt. eigenvalues --    5.42328   5.42968   5.45640   5.48362   5.49757
 Alpha virt. eigenvalues --    5.52855   5.53951   5.55227   5.57276   5.58626
 Alpha virt. eigenvalues --    5.60939   5.62209   5.62603   5.64141   5.65410
 Alpha virt. eigenvalues --    5.65894   5.68947   5.69109   5.70332   5.72217
 Alpha virt. eigenvalues --    5.73227   5.75399   5.75881   5.76538   5.78892
 Alpha virt. eigenvalues --    5.80398   5.81277   5.84090   5.85998   5.86603
 Alpha virt. eigenvalues --    5.91089   5.94830   5.96819   6.00921   6.06015
 Alpha virt. eigenvalues --    6.11778   6.18673   6.21658   6.22882   6.26690
 Alpha virt. eigenvalues --    6.52706   6.54209   6.57978   6.63570   6.65478
 Alpha virt. eigenvalues --    6.67050   6.78413   6.81228   6.90386   6.92283
 Alpha virt. eigenvalues --    6.92540   6.95159   7.18110   7.20357   7.24019
 Alpha virt. eigenvalues --    7.27003   8.13109   8.32785   8.67674   8.73829
 Alpha virt. eigenvalues --    8.78247   8.80258   8.81609   8.82864   8.83260
 Alpha virt. eigenvalues --    8.85465   8.86758   8.88434   8.91632   8.93206
 Alpha virt. eigenvalues --    8.94172   8.94751   8.96988   8.99244   9.02126
 Alpha virt. eigenvalues --    9.04776   9.06795   9.10337   9.14775   9.18069
 Alpha virt. eigenvalues --    9.23329   9.59805   9.62433   9.77471   9.83330
 Alpha virt. eigenvalues --    9.89415   9.95908  10.11246  10.12213  10.14930
 Alpha virt. eigenvalues --   10.18331  10.20241  10.21400  10.22461  10.24210
 Alpha virt. eigenvalues --   10.25097  10.28276  10.29466  10.32305  10.35122
 Alpha virt. eigenvalues --   10.41439  11.76232  11.80873  12.03428  12.14573
 Alpha virt. eigenvalues --   12.15806  12.20399  12.23424  12.25960  12.32714
 Alpha virt. eigenvalues --   12.41253  12.44202  12.55649  12.57915  12.83229
 Alpha virt. eigenvalues --   12.92979  14.97138  15.04417  15.24241  15.27353
 Alpha virt. eigenvalues --   15.99462  16.05325  16.83896  16.89809  22.01125
 Alpha virt. eigenvalues --   22.13015  40.17117  40.29872  40.67068  40.68098
 Alpha virt. eigenvalues --   40.68843  40.72440  40.73578  40.75208  40.77403
 Alpha virt. eigenvalues --   40.78016  40.80554  40.81033  40.82343  40.82744
 Alpha virt. eigenvalues --   40.83488  40.84088  40.84171  40.85542  40.86367
 Alpha virt. eigenvalues --   40.86736  40.87407  40.89177  40.90515  40.90745
 Alpha virt. eigenvalues --   40.91361  40.93249  40.95657  46.33634  46.45450
 Alpha virt. eigenvalues --   46.48234  46.52792  46.55691  46.57184  46.64399
 Alpha virt. eigenvalues --   46.75267  46.77050  54.45261  54.47563  55.77562
 Alpha virt. eigenvalues --   55.83722  55.96998  55.97875  56.06088  56.17744
 Alpha virt. eigenvalues --   56.20914  56.24250  56.25543  56.29783  56.35727
 Alpha virt. eigenvalues --   56.43307  56.46961  56.54641  56.59838  56.61875
 Alpha virt. eigenvalues --   57.46949  57.49651  57.99353  58.01563  58.19293
 Alpha virt. eigenvalues --   58.25478  64.71188  64.76599  73.94266  73.98531
 Alpha virt. eigenvalues --   74.09981  74.11333  74.63692  74.66986  86.06939
 Alpha virt. eigenvalues --   86.17643 165.42963 165.53460 165.57295 165.61023
 Alpha virt. eigenvalues --  165.63931 165.64742 165.70609 165.80448 165.82489
 Alpha virt. eigenvalues --  226.56379 226.61847 230.58266 230.63425 235.43922
 Alpha virt. eigenvalues --  235.78796 236.25908 236.33333 236.51775 236.84443
 Alpha virt. eigenvalues --  237.00213 237.16842 237.46290 237.61022 237.79685
 Alpha virt. eigenvalues --  238.01964 238.12740 238.22681 238.39857 238.47674
 Alpha virt. eigenvalues --  308.80548 308.90128 624.54383 624.61390 624.63129
 Alpha virt. eigenvalues --  624.67497 624.69099 624.72263 624.76611 624.83876
 Alpha virt. eigenvalues --  624.85101 794.48749 794.55808 825.59549 827.03527
 Alpha virt. eigenvalues --  827.13132 827.89572 828.24529 829.28044 829.40345
 Alpha virt. eigenvalues --  830.45673 831.23280 831.56929 832.28521 832.71533
 Alpha virt. eigenvalues --  832.88939 833.16641 833.71533 834.05939 868.34333
 Alpha virt. eigenvalues --  868.394811165.933221166.020772485.410582485.63857
 Alpha virt. eigenvalues -- 2587.170522589.307272595.333892595.763272597.22210
 Alpha virt. eigenvalues -- 2597.909292600.124652602.137812605.079302606.21866
 Alpha virt. eigenvalues -- 2607.689892608.450192610.019402611.053522611.77223
 Alpha virt. eigenvalues -- 2613.031632740.319772740.345082740.373782740.41107
 Alpha virt. eigenvalues -- 2740.430242740.515912740.530532740.557702740.56633
 Alpha virt. eigenvalues -- 3787.321013787.374025073.315135073.392958293.75841
 Alpha virt. eigenvalues -- 8296.279218624.736448633.096588636.575838639.55969
 Alpha virt. eigenvalues -- 8646.901828649.021428652.690818662.178948669.27709
 Alpha virt. eigenvalues -- 8671.664438678.052638679.799268682.585218683.99768
 Alpha virt. eigenvalues -- 8689.435988690.36854******************************
 Alpha virt. eigenvalues -- **************************************************
 Alpha virt. eigenvalues -- **************************************************
 Alpha virt. eigenvalues -- **************************************************
 Alpha virt. eigenvalues -- **************************************************
 Alpha virt. eigenvalues -- **************************************************
 Alpha virt. eigenvalues -- **************************************************
 Alpha virt. eigenvalues -- **************************************************
 Alpha virt. eigenvalues -- **********
          Condensed to atoms (all electrons):
               1          2          3          4          5          6
     1  C    4.681432   0.176741  -0.063802   0.002460  -0.000484   0.017555
     2  C    0.176741   5.216875   0.406981  -0.012609  -0.000114  -0.001361
     3  H   -0.063802   0.406981   0.500932  -0.000453   0.000034  -0.000125
     4  C    0.002460  -0.012609  -0.000453   5.048024   0.402360   0.392439
     5  H   -0.000484  -0.000114   0.000034   0.402360   0.536617  -0.009019
     6  H    0.017555  -0.001361  -0.000125   0.392439  -0.009019   0.473141
     7  H   -0.000726   0.000823  -0.000064   0.400817  -0.019930  -0.020084
     8  O    0.711252  -0.084903   0.004731  -0.012839  -0.000204   0.008438
     9  N   -0.060937   0.343511  -0.034330   0.000160   0.000007   0.000304
    10  H    0.001809  -0.037598   0.002584   0.000366   0.000028  -0.000014
    11  N    0.303865  -0.112532   0.007690   0.006794   0.000431  -0.013123
    12  H   -0.018641   0.009923   0.000424   0.000432  -0.000001   0.000200
    13  C   -0.043439   0.010247  -0.001078  -0.001375  -0.000027  -0.000265
    14  H    0.003220   0.000613   0.000090  -0.001966  -0.000195   0.004485
    15  H   -0.010206  -0.000683  -0.000289   0.000353   0.000010  -0.000420
    16  H    0.006676   0.000546  -0.000174  -0.000044  -0.000003   0.000097
    17  C   -0.007336  -0.060709   0.002975   0.000042   0.000005  -0.000041
    18  C   -0.005601   0.016108   0.001750  -0.000003   0.000000   0.000003
    19  H    0.000486  -0.000087  -0.000236  -0.000001   0.000000  -0.000002
    20  H   -0.000151  -0.000479   0.000200   0.000000   0.000000   0.000000
    21  H    0.000797  -0.000784  -0.000180   0.000001   0.000000  -0.000001
    22  O   -0.001991   0.019086   0.014266  -0.000001   0.000000   0.000016
[...]
 Alpha virt. eigenvalues --    4.68862   4.69869   4.71226   4.71400   4.72988
 Alpha virt. eigenvalues --    4.73340   4.75908   4.76232   4.77706   4.79239
 Alpha virt. eigenvalues --    4.79905   4.80162   4.81609   4.82377   4.83300
 Alpha virt. eigenvalues --    4.84832   4.85982   4.86640   4.89523   4.89971
 Alpha virt. eigenvalues --    4.91920   4.93254   4.93678   4.95238   4.96126
 Alpha virt. eigenvalues --    4.97931   4.99233   4.99746   5.01287   5.01563
 Alpha virt. eigenvalues --    5.03030   5.03703   5.04558   5.06261   5.07717
 Alpha virt. eigenvalues --    5.08187   5.09343   5.09565   5.11972   5.12623
 Alpha virt. eigenvalues --    5.14205   5.14564   5.15577   5.17092   5.18314
 Alpha virt. eigenvalues --    5.19241   5.19804   5.20802   5.21781   5.23091
 Alpha virt. eigenvalues --    5.24597   5.25175   5.26408   5.27968   5.28245
 Alpha virt. eigenvalues --    5.29031   5.29622   5.30892   5.33558   5.33906
 Alpha virt. eigenvalues --    5.34978   5.35934   5.36417   5.37220   5.39937
 Alpha virt. eigenvalues --    5.42908   5.46313   5.46794   5.49596   5.54208
 Alpha virt. eigenvalues --    5.58432   5.59590   5.61789   5.65307   5.72583
 Alpha virt. eigenvalues --    5.73040   5.75127   5.76526   5.78038   5.78815
 Alpha virt. eigenvalues --    5.80123   5.81206   5.82565   5.84481   5.85402
 Alpha virt. eigenvalues --    5.88421   5.89454   5.90040   5.94314   5.94939
 Alpha virt. eigenvalues --    5.98261   6.00004   6.02161   6.05277   6.08702
 Alpha virt. eigenvalues --    6.21932   6.27227   6.35536   6.40327   6.49232
 Alpha virt. eigenvalues --    6.53412   6.54034   6.57430   6.67051   6.70002
 Alpha virt. eigenvalues --    6.88385   6.89699   6.92496   6.96620   7.10223
 Alpha virt. eigenvalues --    7.14667   7.16262   7.18259   9.48254   9.95261
 Alpha virt. eigenvalues --   11.63941  12.15178  12.35982  12.67212  13.05478
 Alpha virt. eigenvalues --   13.41616  13.56385  13.63775  13.70180  13.74299
 Alpha virt. eigenvalues --   13.99697
          Condensed to atoms (all electrons):
               1          2          3          4          5          6
     1  C    4.852409   0.141717  -0.065824   0.004564  -0.000225   0.017754
     2  C    0.141717   5.355241   0.441885  -0.003173  -0.000685  -0.001171
     3  H   -0.065824   0.441885   0.460312  -0.000614   0.000027  -0.000042
     4  C    0.004564  -0.003173  -0.000614   5.179386   0.406193   0.387064
     5  H   -0.000225  -0.000685   0.000027   0.406193   0.529276  -0.014833
     6  H    0.017754  -0.001171  -0.000042   0.387064  -0.014833   0.482690
     7  H   -0.001574   0.001875  -0.000069   0.401453  -0.027113  -0.024861
     8  O    0.702972  -0.083816   0.002795  -0.013332  -0.000252   0.008520
     9  N   -0.062378   0.285625  -0.036255  -0.000125   0.000017   0.000312
    10  H    0.003110  -0.034341   0.000950   0.000416   0.000025  -0.000035
    11  N    0.296943  -0.087963   0.001989   0.004801   0.000418  -0.012993
    12  H   -0.014186   0.007685  -0.000825   0.000341   0.000002   0.000231
    13  C   -0.064922   0.009555  -0.000899  -0.001330  -0.000032  -0.000210
    14  H    0.002767   0.000535   0.000104  -0.001995  -0.000199   0.004310
    15  H   -0.009799  -0.000612  -0.000281   0.000326   0.000011  -0.000336
    16  H    0.007773   0.000555  -0.000126  -0.000041  -0.000003   0.000065
    17  C   -0.006367  -0.070863   0.002336   0.000100   0.000002  -0.000044
    18  C   -0.004226   0.013086   0.001593   0.000000   0.000000   0.000003
    19  H    0.000330   0.000674  -0.000228  -0.000001   0.000000  -0.000002
    20  H   -0.000183  -0.000463   0.000173   0.000000   0.000000   0.000000
    21  H    0.000742  -0.000752  -0.000157   0.000001   0.000000  -0.000001
    22  O   -0.000165   0.018439   0.013817   0.000000   0.000000   0.000016
    23  C   -0.018401  -0.018212   0.010315   0.261489  -0.035266  -0.022321
    24  H   -0.011033   0.007985   0.000909  -0.025648  -0.005160  -0.003832
    25  C   -0.000007   0.001382   0.000156  -0.077134  -0.005766   0.006145
    26  H   -0.000118   0.001330  -0.000021  -0.007584  -0.000554   0.000047
    27  H    0.000010  -0.000591  -0.000006   0.008843  -0.000074  -0.000284
    28  H    0.000021  -0.000542   0.000019  -0.006429   0.004605   0.000011
    29  C   -0.025078   0.226662  -0.033181  -0.053077   0.008297  -0.003303
    30  H    0.011099  -0.037833  -0.010577   0.007626  -0.000331  -0.000195
    31  H   -0.003179  -0.027986  -0.007158  -0.004293   0.000406  -0.000304
               7          8          9         10         11         12
     1  C   -0.001574   0.702972  -0.062378   0.003110   0.296943  -0.014186
     2  C    0.001875  -0.083816   0.285625  -0.034341  -0.087963   0.007685
     3  H   -0.000069   0.002795  -0.036255   0.000950   0.001989  -0.000825
     4  C    0.401453  -0.013332  -0.000125   0.000416   0.004801   0.000341
     5  H   -0.027113  -0.000252   0.000017   0.000025   0.000418   0.000002
     6  H   -0.024861   0.008520   0.000312  -0.000035  -0.012993   0.000231
     7  H    0.548897   0.000360  -0.000119  -0.000008  -0.000200  -0.000039
     8  O    0.000360   7.845460   0.002616  -0.001980  -0.122008   0.005377
     9  N   -0.000119   0.002616   6.515796   0.382876   0.005559   0.000694
    10  H   -0.000008  -0.001980   0.382876   0.508809  -0.000379   0.000005
    11  N   -0.000200  -0.122008   0.005559  -0.000379   6.467273   0.373361
    12  H   -0.000039   0.005377   0.000694   0.000005   0.373361   0.540355
    13  C    0.000171   0.008750  -0.000311   0.000034   0.297482  -0.032485
    14  H    0.000197   0.001695  -0.000028  -0.000005  -0.056316   0.002186
    15  H   -0.000019   0.005706  -0.000029   0.000006  -0.040492   0.003243
    16  H    0.000005   0.001469   0.000007   0.000000  -0.026785  -0.007700
    17  C   -0.000003   0.014722   0.332158  -0.020063  -0.000622  -0.000041
    18  C    0.000000  -0.000063  -0.065051   0.000321  -0.000101   0.000001
    19  H    0.000000   0.000038   0.012824  -0.000678   0.000014   0.000001
    20  H    0.000000   0.000031  -0.001050  -0.000392   0.000005   0.000001
    21  H    0.000000   0.000179  -0.000432   0.000205  -0.000002  -0.000002
    22  O    0.000000  -0.003152  -0.133741   0.004931  -0.004017  -0.000226
    23  C   -0.048247   0.010965  -0.004213   0.002377  -0.002160   0.000017
    24  H    0.007422   0.008362   0.004776  -0.000277   0.001133  -0.000078
    25  C   -0.009346   0.000360   0.001158  -0.001376   0.000035  -0.000020
    26  H    0.004324   0.000001  -0.000070  -0.000014  -0.000035   0.000003
    27  H   -0.000019   0.000000   0.000035   0.000530   0.000000  -0.000001
    28  H   -0.000887   0.000003   0.000008   0.000072   0.000004   0.000000
    29  C   -0.009256  -0.006254  -0.060683  -0.002801   0.005859  -0.003101
    30  H    0.000350  -0.000650   0.002223   0.002517   0.000080  -0.000142
    31  H    0.004535  -0.000100   0.003966   0.000501   0.003263   0.002151
              13         14         15         16         17         18
     1  C   -0.064922   0.002767  -0.009799   0.007773  -0.006367  -0.004226
     2  C    0.009555   0.000535  -0.000612   0.000555  -0.070863   0.013086
     3  H   -0.000899   0.000104  -0.000281  -0.000126   0.002336   0.001593
     4  C   -0.001330  -0.001995   0.000326  -0.000041   0.000100   0.000000
     5  H   -0.000032  -0.000199   0.000011  -0.000003   0.000002   0.000000
     6  H   -0.000210   0.004310  -0.000336   0.000065  -0.000044   0.000003
     7  H    0.000171   0.000197  -0.000019   0.000005  -0.000003   0.000000
     8  O    0.008750   0.001695   0.005706   0.001469   0.014722  -0.000063
     9  N   -0.000311  -0.000028  -0.000029   0.000007   0.332158  -0.065051
    10  H    0.000034  -0.000005   0.000006   0.000000  -0.020063   0.000321
    11  N    0.297482  -0.056316  -0.040492  -0.026785  -0.000622  -0.000101
    12  H   -0.032485   0.002186   0.003243  -0.007700  -0.000041   0.000001
    13  C    4.776757   0.393469   0.403327   0.394008  -0.000239  -0.000007
    14  H    0.393469   0.621376  -0.054539  -0.028273  -0.000032  -0.000001
    15  H    0.403327  -0.054539   0.591928  -0.025399   0.000120   0.000002
    16  H    0.394008  -0.028273  -0.025399   0.597140  -0.000011   0.000000
    17  C   -0.000239  -0.000032   0.000120  -0.000011   4.538516   0.280340
    18  C   -0.000007  -0.000001   0.000002   0.000000   0.280340   4.995087
    19  H    0.000000   0.000000   0.000000   0.000000  -0.055403   0.392673
    20  H    0.000000   0.000000   0.000000   0.000000  -0.024784   0.383713
    21  H    0.000002   0.000000   0.000001   0.000000  -0.025659   0.389543
    22  O   -0.000232   0.000004   0.000109  -0.000003   0.720911  -0.070535
    23  C   -0.000397   0.000505  -0.000136  -0.000038   0.000645  -0.000094
    24  H   -0.000107   0.000039  -0.000028  -0.000002   0.000707   0.000120
    25  C   -0.000023   0.000010  -0.000001  -0.000001   0.000123   0.000012
    26  H    0.000001   0.000003   0.000000   0.000000   0.000000   0.000000
    27  H    0.000000   0.000000   0.000000   0.000000   0.000008   0.000002
    28  H    0.000000  -0.000001   0.000000   0.000000  -0.000003   0.000000
    29  C   -0.000246  -0.000354   0.000092   0.000017   0.009467   0.000361
    30  H    0.000074  -0.000027   0.000011   0.000002  -0.000702  -0.000111
    31  H    0.000065  -0.000173   0.000058  -0.000007  -0.000082   0.000035
              19         20         21         22         23         24
     1  C    0.000330  -0.000183   0.000742  -0.000165  -0.018401  -0.011033
     2  C    0.000674  -0.000463  -0.000752   0.018439  -0.018212   0.007985
     3  H   -0.000228   0.000173  -0.000157   0.013817   0.010315   0.000909
     4  C   -0.000001   0.000000   0.000001   0.000000   0.261489  -0.025648
     5  H    0.000000   0.000000   0.000000   0.000000  -0.035266  -0.005160
     6  H   -0.000002   0.000000  -0.000001   0.000016  -0.022321  -0.003832
     7  H    0.000000   0.000000   0.000000   0.000000  -0.048247   0.007422
     8  O    0.000038   0.000031   0.000179  -0.003152   0.010965   0.008362
     9  N    0.012824  -0.001050  -0.000432  -0.133741  -0.004213   0.004776
    10  H   -0.000678  -0.000392   0.000205   0.004931   0.002377  -0.000277
    11  N    0.000014   0.000005  -0.000002  -0.004017  -0.002160   0.001133
    12  H    0.000001   0.000001  -0.000002  -0.000226   0.000017  -0.000078
    13  C    0.000000   0.000000   0.000002  -0.000232  -0.000397  -0.000107
    14  H    0.000000   0.000000   0.000000   0.000004   0.000505   0.000039
    15  H    0.000000   0.000000   0.000001   0.000109  -0.000136  -0.000028
    16  H    0.000000   0.000000   0.000000  -0.000003  -0.000038  -0.000002
    17  C   -0.055403  -0.024784  -0.025659   0.720911   0.000645   0.000707
    18  C    0.392673   0.383713   0.389543  -0.070535  -0.000094   0.000120
    19  H    0.604300  -0.026745  -0.024846   0.004638   0.000025   0.000090
    20  H   -0.026745   0.579083  -0.025638   0.001948   0.000007   0.000021
    21  H   -0.024846  -0.025638   0.564108   0.001565  -0.000009  -0.000052
    22  O    0.004638   0.001948   0.001565   7.850423   0.000001  -0.000059
    23  C    0.000025   0.000007  -0.000009   0.000001   5.333947   0.418348
    24  H    0.000090   0.000021  -0.000052  -0.000059   0.418348   0.504300
    25  C   -0.000016   0.000001  -0.000001   0.000001   0.278551  -0.032325
    26  H    0.000000   0.000000   0.000000   0.000000  -0.032522   0.007172
    27  H   -0.000005   0.000000   0.000000   0.000001  -0.037212  -0.007384
    28  H    0.000000   0.000000   0.000000   0.000000  -0.040374  -0.004840
    29  C   -0.000268   0.000018   0.000009   0.002242   0.196218  -0.062159
    30  H   -0.000012  -0.000036   0.000022  -0.000153  -0.060894  -0.002249
    31  H   -0.000005  -0.000003   0.000000   0.000075  -0.040602   0.004017
              25         26         27         28         29         30
     1  C   -0.000007  -0.000118   0.000010   0.000021  -0.025078   0.011099
     2  C    0.001382   0.001330  -0.000591  -0.000542   0.226662  -0.037833
     3  H    0.000156  -0.000021  -0.000006   0.000019  -0.033181  -0.010577
     4  C   -0.077134  -0.007584   0.008843  -0.006429  -0.053077   0.007626
     5  H   -0.005766  -0.000554  -0.000074   0.004605   0.008297  -0.000331
     6  H    0.006145   0.000047  -0.000284   0.000011  -0.003303  -0.000195
     7  H   -0.009346   0.004324  -0.000019  -0.000887  -0.009256   0.000350
     8  O    0.000360   0.000001   0.000000   0.000003  -0.006254  -0.000650
     9  N    0.001158  -0.000070   0.000035   0.000008  -0.060683   0.002223
    10  H   -0.001376  -0.000014   0.000530   0.000072  -0.002801   0.002517
    11  N    0.000035  -0.000035   0.000000   0.000004   0.005859   0.000080
    12  H   -0.000020   0.000003  -0.000001   0.000000  -0.003101  -0.000142
    13  C   -0.000023   0.000001   0.000000   0.000000  -0.000246   0.000074
    14  H    0.000010   0.000003   0.000000  -0.000001  -0.000354  -0.000027
    15  H   -0.000001   0.000000   0.000000   0.000000   0.000092   0.000011
    16  H   -0.000001   0.000000   0.000000   0.000000   0.000017   0.000002
    17  C    0.000123   0.000000   0.000008  -0.000003   0.009467  -0.000702
    18  C    0.000012   0.000000   0.000002   0.000000   0.000361  -0.000111
    19  H   -0.000016   0.000000  -0.000005   0.000000  -0.000268  -0.000012
    20  H    0.000001   0.000000   0.000000   0.000000   0.000018  -0.000036
    21  H   -0.000001   0.000000   0.000000   0.000000   0.000009   0.000022
    22  O    0.000001   0.000000   0.000001   0.000000   0.002242  -0.000153
    23  C    0.278551  -0.032522  -0.037212  -0.040374   0.196218  -0.060894
    24  H   -0.032325   0.007172  -0.007384  -0.004840  -0.062159  -0.002249
    25  C    5.116853   0.393247   0.405148   0.411307  -0.060730  -0.012036
    26  H    0.393247   0.554746  -0.029640  -0.028302  -0.006470  -0.000557
    27  H    0.405148  -0.029640   0.546565  -0.017361  -0.005582   0.003131
    28  H    0.411307  -0.028302  -0.017361   0.535249   0.009697   0.000156
    29  C   -0.060730  -0.006470  -0.005582   0.009697   5.482183   0.418334
    30  H   -0.012036  -0.000557   0.003131   0.000156   0.418334   0.469344
    31  H   -0.002106   0.001249   0.000255  -0.000190   0.406918  -0.000060
              31
     1  C   -0.003179
     2  C   -0.027986
     3  H   -0.007158
     4  C   -0.004293
     5  H    0.000406
     6  H   -0.000304
     7  H    0.004535
     8  O   -0.000100
     9  N    0.003966
    10  H    0.000501
    11  N    0.003263
    12  H    0.002151
    13  C    0.000065
    14  H   -0.000173
    15  H    0.000058
    16  H   -0.000007
    17  C   -0.000082
    18  C    0.000035
    19  H   -0.000005
    20  H   -0.000003
    21  H    0.000000
    22  O    0.000075
    23  C   -0.040602
    24  H    0.004017
    25  C   -0.002106
    26  H    0.001249
    27  H    0.000255
    28  H   -0.000190
    29  C    0.406918
    30  H   -0.000060
    31  H    0.452474
 Mulliken charges:
               1
     1  C    0.245454
     2  C   -0.145229
     3  H    0.218879
     4  C   -0.467831
     5  H    0.141211
     6  H    0.177599
     7  H    0.152170
     8  O   -0.388775
     9  N   -0.186167
    10  H    0.154661
    11  N   -0.104146
    12  H    0.123191
    13  C   -0.182256
    14  H    0.114744
    15  H    0.126727
    16  H    0.087349
    17  C    0.304762
    18  C   -0.316704
    19  H    0.092602
    20  H    0.114294
    21  H    0.121173
    22  O   -0.406839
    23  C   -0.152315
    24  H    0.189830
    25  C   -0.413602
    26  H    0.143764
    27  H    0.133629
    28  H    0.137778
    29  C   -0.433831
    30  H    0.211599
    31  H    0.206278
 Sum of Mulliken charges =   0.00000
 Mulliken charges with hydrogens summed into heavy atoms:
               1
     1  C    0.245454
     2  C    0.073650
     4  C    0.003149
     8  O   -0.388775
     9  N   -0.031506
    11  N    0.019045
    13  C    0.146563
    17  C    0.304762
    18  C    0.011365
    22  O   -0.406839
    23  C    0.037515
    25  C    0.001569
    29  C   -0.015954
 Electronic spatial extent (au):  <R**2>=           2913.0445
 Charge=              0.0000 electrons
 Dipole moment (field-independent basis, Debye):
    X=             -3.1723    Y=             -1.9345    Z=             -2.1808  Tot=              4.3084
 Quadrupole moment (field-independent basis, Debye-Ang):
   XX=            -85.4281   YY=            -70.1060   ZZ=            -81.1941
   XY=             -9.7939   XZ=              3.7635   YZ=             -5.3161
 Traceless Quadrupole moment (field-independent basis, Debye-Ang):
   XX=             -6.5187   YY=              8.8034   ZZ=             -2.2847
   XY=             -9.7939   XZ=              3.7635   YZ=             -5.3161
 Octapole moment (field-independent basis, Debye-Ang**2):
  XXX=              0.8082  YYY=             32.7923  ZZZ=             -9.2146  XYY=              1.5271
  XXY=            -18.9564  XXZ=             14.5280  XZZ=              1.1647  YZZ=              3.6310
  YYZ=             -3.5393  XYZ=              3.1623
 Hexadecapole moment (field-independent basis, Debye-Ang**3):
 XXXX=          -2107.0972 YYYY=          -1374.2306 ZZZZ=           -325.8655 XXXY=            -80.2065
 XXXZ=             32.6260 YYYX=            -42.6195 YYYZ=            -16.7641 ZZZX=              1.1681
 ZZZY=            -20.9822 XXYY=           -586.7475 XXZZ=           -386.6555 YYZZ=           -295.4448
 XXYZ=             -0.9222 YYXZ=              3.7267 ZZXY=             -7.5126
 N-N= 8.759003217507D+02 E-N=-3.181541931597D+03  KE= 6.091222125965D+02
 Calculating spin-rotation constants.
 Leave Link  601 at Thu Jun 19 00:41:49 2014, MaxMem=  4294967296 cpu:        69.3
 (Enter /home/ztw1e12/g09/l9999.exe)

 Test job not archived.
 1\1\GINC-GREEN0684\SP\RM06\Gen\C9H18N2O2\ROOT\19-Jun-2014\0\\#P Geom=A
 llCheck Guess=TCheck SCRF=Check GenChk RM06/ChkBas NMR=ReadFC IOp(3/6=
 22)\\NMR spin-spin scan\\0,1\C,0,0.559977,0.725583,0.612539\C,0,0.1571
 95,0.157412,-0.741316\H,0,0.543914,0.837794,-1.50562\C,0,-2.512147,0.1
 35873,1.34118\H,0,-3.093375,-0.449699,2.056428\H,0,-1.643498,0.526506,
 1.872496\H,0,-3.127755,0.985313,1.0291\O,0,0.85458,0.015981,1.570166\N
 ,0,0.748209,-1.142628,-0.955917\H,0,0.150163,-1.954108,-0.985739\N,0,0
 .54367,2.06086,0.680657\H,0,0.254874,2.58332,-0.131578\C,0,0.75683,2.7
 58048,1.927975\H,0,-0.006371,2.496269,2.663481\H,0,1.732337,2.514259,2
 .347882\H,0,0.71502,3.827487,1.746308\C,0,2.077549,-1.308899,-1.048346
 \C,0,2.56098,-2.706426,-1.254663\H,0,1.75562,-3.436792,-1.293062\H,0,3
 .129163,-2.747498,-2.183708\H,0,3.242983,-2.965889,-0.445254\O,0,2.856
 186,-0.35807,-0.979897\C,0,-2.143821,-0.708167,0.132539\H,0,-1.537716,
 -1.556404,0.473655\C,0,-3.409917,-1.251027,-0.504815\H,0,-4.013272,-0.
 428637,-0.902544\H,0,-3.186865,-1.92877,-1.331112\H,0,-4.021826,-1.789
 445,0.221462\C,0,-1.357176,0.084917,-0.912885\H,0,-1.529927,-0.349697,
 -1.902113\H,0,-1.749962,1.10583,-0.95696\\Version=EM64L-G09RevD.01\Sta
 te=1-A\HF=-613.5834042\RMSD=8.287e-09\Dipole=-1.5180746,0.2373772,-0.7
 157317\Quadrupole=-8.1385579,10.6789062,-2.5403483,-1.8532838,0.632213
 2,3.7254292\PG=C01 [X(C9H18N2O2)]\\@


 WE'RE IN THE POSITION OF A VISITOR FROM ANOTHER
 DIMENSION WHO COMES TO EARTH AND SEES A CHESS MATCH.
 ASSUMING HE KNOWS IT'S A GAME, HE'S GOT TWO PROBLEMS:
 FIRST, FIGURE OUT THE RULES, AND SECOND, FIGURE OUT HOW TO WIN.
 NINETY PERCENT OF SCIENCE (INCLUDING VIRTUALLY ALL OF CHEMISRY)
 IS IN THAT SECOND CATEGORY.  THEY'RE TRYING TO APPLY
 THE LAWS THAT ARE ALREADY KNOWN.

                     -- SHELDON GLASHOW, 1979
 Job cpu time:       2 days 13 hours 29 minutes 23.1 seconds.
 File lengths (MBytes):  RWF=   2456 Int=      0 D2E=      0 Chk=     48 Scr=      8
 Normal termination of Gaussian 09 at Thu Jun 19 00:41:49 2014.
