 Entering Gaussian System, Link 0=g09
 Input=scan_input_33.gjf
 Output=scan_input_33.log
 Initial command:
 /home/ztw1e12/g09/l1.exe "/home/ztw1e12/leucine_scan/leucine_chi2_scan/Gau-9690.inp" -scrdir="/home/ztw1e12/leucine_scan/leucine_chi2_scan/"
 Default is to use a total of   8 processors:
                                8 via shared-memory
                                1 via Linda
 Entering Link 1 = /home/ztw1e12/g09/l1.exe PID=      9691.
  
 Copyright (c) 1988,1990,1992,1993,1995,1998,2003,2009,2013,
            Gaussian, Inc.  All Rights Reserved.
  
 This is part of the Gaussian(R) 09 program.  It is based on
 the Gaussian(R) 03 system (copyright 2003, Gaussian, Inc.),
 the Gaussian(R) 98 system (copyright 1998, Gaussian, Inc.),
 the Gaussian(R) 94 system (copyright 1995, Gaussian, Inc.),
 the Gaussian 92(TM) system (copyright 1992, Gaussian, Inc.),
 the Gaussian 90(TM) system (copyright 1990, Gaussian, Inc.),
 the Gaussian 88(TM) system (copyright 1988, Gaussian, Inc.),
 the Gaussian 86(TM) system (copyright 1986, Carnegie Mellon
 University), and the Gaussian 82(TM) system (copyright 1983,
 Carnegie Mellon University). Gaussian is a federally registered
 trademark of Gaussian, Inc.
  
 This software contains proprietary and confidential information,
 including trade secrets, belonging to Gaussian, Inc.
  
 This software is provided under written license and may be
 used, copied, transmitted, or stored only in accord with that
 written license.
  
 The following legend is applicable only to US Government
 contracts under FAR:
  
                    RESTRICTED RIGHTS LEGEND
  
 Use, reproduction and disclosure by the US Government is
 subject to restrictions as set forth in subparagraphs (a)
 and (c) of the Commercial Computer Software - Restricted
 Rights clause in FAR 52.227-19.
  
 Gaussian, Inc.
 340 Quinnipiac St., Bldg. 40, Wallingford CT 06492
  
  
 ---------------------------------------------------------------
 Warning -- This program may not be used in any manner that
 competes with the business of Gaussian, Inc. or will provide
 assistance to any competitor of Gaussian, Inc.  The licensee
 of this program is prohibited from giving any competitor of
 Gaussian, Inc. access to this program.  By using this program,
 the user acknowledges that Gaussian, Inc. is engaged in the
 business of creating and licensing software in the field of
 computational chemistry and represents and warrants to the
 licensee that it is not a competitor of Gaussian, Inc. and that
 it will not use this program in any manner prohibited above.
 ---------------------------------------------------------------
  

 Cite this work as:
 Gaussian 09, Revision D.01,
 M. J. Frisch, G. W. Trucks, H. B. Schlegel, G. E. Scuseria, 
 M. A. Robb, J. R. Cheeseman, G. Scalmani, V. Barone, B. Mennucci, 
 G. A. Petersson, H. Nakatsuji, M. Caricato, X. Li, H. P. Hratchian, 
 A. F. Izmaylov, J. Bloino, G. Zheng, J. L. Sonnenberg, M. Hada, 
 M. Ehara, K. Toyota, R. Fukuda, J. Hasegawa, M. Ishida, T. Nakajima, 
 Y. Honda, O. Kitao, H. Nakai, T. Vreven, J. A. Montgomery, Jr., 
 J. E. Peralta, F. Ogliaro, M. Bearpark, J. J. Heyd, E. Brothers, 
 K. N. Kudin, V. N. Staroverov, T. Keith, R. Kobayashi, J. Normand, 
 K. Raghavachari, A. Rendell, J. C. Burant, S. S. Iyengar, J. Tomasi, 
 M. Cossi, N. Rega, J. M. Millam, M. Klene, J. E. Knox, J. B. Cross, 
 V. Bakken, C. Adamo, J. Jaramillo, R. Gomperts, R. E. Stratmann, 
 O. Yazyev, A. J. Austin, R. Cammi, C. Pomelli, J. W. Ochterski, 
 R. L. Martin, K. Morokuma, V. G. Zakrzewski, G. A. Voth, 
 P. Salvador, J. J. Dannenberg, S. Dapprich, A. D. Daniels, 
 O. Farkas, J. B. Foresman, J. V. Ortiz, J. Cioslowski, 
 and D. J. Fox, Gaussian, Inc., Wallingford CT, 2013.
 
 ******************************************
 Gaussian 09:  EM64L-G09RevD.01 24-Apr-2013
                18-Jun-2014 
 ******************************************
 %Mem=32GB
 %NProcShared=16
 Will use up to   16 processors via shared memory.
 Default route:  MaxDisk=100GB
 ----------------------------------------------------------------------
 #p nmr=(giao,mixed,spinspin) m06/cc-pvtz scf=tight integral=(grid=ultr
 afine)
 ----------------------------------------------------------------------
 1/38=1/1;
 2/12=2,17=6,18=5,40=1/2;
 3/5=16,6=1,10=1100000,11=2,16=1,25=1,30=1,74=-54,75=-5/1,2,8,3;
 4//1;
 5/5=2,32=2,38=5/2;
 8/6=1,10=90,11=11/1;
 10/13=100,45=16,47=3/2;
 6/7=2,8=2,9=2,10=2,28=1/1;
 99/9=1/99;
 Leave Link    1 at Wed Jun 18 15:11:01 2014, MaxMem=  4294967296 cpu:         5.1
 (Enter /home/ztw1e12/g09/l101.exe)
 ------------------
 NMR spin-spin scan
 ------------------
 Symbolic Z-matrix:
 Charge =  0 Multiplicity = 1
 C                     0.68006   0.74128   0.65821 
 C                     0.13772   0.26753  -0.68894 
 H                     0.53911   0.93863  -1.45285 
 C                    -3.25669   0.31932   0.93606 
 H                    -3.8287   -0.28115   1.64626 
 H                    -2.86603   1.19209   1.46515 
 H                    -3.94858   0.67723   0.16751 
 O                     1.04268  -0.03426   1.53863 
 N                     0.59276  -1.06767  -0.9858 
 H                    -0.02566  -1.84529  -0.81654 
 N                     0.71032   2.06869   0.81263 
 H                     0.37905   2.6517    0.06043 
 C                     1.12947   2.6843    2.05118 
 H                     0.44953   2.44126   2.86904 
 H                     2.12954   2.35217   2.32908 
 H                     1.14542   3.76188   1.92021 
 C                     1.8917   -1.32747  -1.22254 
 C                     2.25599  -2.76023  -1.42942 
 H                     1.4104   -3.43679  -1.32736 
 H                     2.68574  -2.87259  -2.42468 
 H                     3.02647  -3.03429  -0.70923 
 O                     2.73135  -0.43116  -1.28848 
 C                    -2.13863  -0.48811   0.30213 
 H                    -1.44475  -0.79264   1.09416 
 C                    -2.72389  -1.73879  -0.33404 
 H                    -3.46374  -1.46087  -1.09082 
 H                    -1.97733  -2.36393  -0.82918 
 H                    -3.22778  -2.357     0.41149 
 C                    -1.38248   0.37344  -0.71992 
 H                    -1.71998   0.12863  -1.73191 
 H                    -1.62742   1.42739  -0.57011 
 
 NAtoms=     31 NQM=       31 NQMF=       0 NMMI=      0 NMMIF=      0
                NMic=       0 NMicF=      0.
                    Isotopes and Nuclear Properties:
 (Nuclear quadrupole moments (NQMom) in fm**2, nuclear magnetic moments (NMagM)
  in nuclear magnetons)

  Atom         1           2           3           4           5           6           7           8           9          10
 IAtWgt=          12          12           1          12           1           1           1          16          14           1
 AtmWgt=  12.0000000  12.0000000   1.0078250  12.0000000   1.0078250   1.0078250   1.0078250  15.9949146  14.0030740   1.0078250
 NucSpn=           0           0           1           0           1           1           1           0           2           1
 AtZEff=   0.0000000   0.0000000   0.0000000   0.0000000   0.0000000   0.0000000   0.0000000   0.0000000   0.0000000   0.0000000
 NQMom=    0.0000000   0.0000000   0.0000000   0.0000000   0.0000000   0.0000000   0.0000000   0.0000000   2.0440000   0.0000000
 NMagM=    0.0000000   0.0000000   2.7928460   0.0000000   2.7928460   2.7928460   2.7928460   0.0000000   0.4037610   2.7928460
 AtZNuc=   6.0000000   6.0000000   1.0000000   6.0000000   1.0000000   1.0000000   1.0000000   8.0000000   7.0000000   1.0000000

  Atom        11          12          13          14          15          16          17          18          19          20
 IAtWgt=          14           1          12           1           1           1          12          12           1           1
 AtmWgt=  14.0030740   1.0078250  12.0000000   1.0078250   1.0078250   1.0078250  12.0000000  12.0000000   1.0078250   1.0078250
 NucSpn=           2           1           0           1           1           1           0           0           1           1
 AtZEff=   0.0000000   0.0000000   0.0000000   0.0000000   0.0000000   0.0000000   0.0000000   0.0000000   0.0000000   0.0000000
 NQMom=    2.0440000   0.0000000   0.0000000   0.0000000   0.0000000   0.0000000   0.0000000   0.0000000   0.0000000   0.0000000
 NMagM=    0.4037610   2.7928460   0.0000000   2.7928460   2.7928460   2.7928460   0.0000000   0.0000000   2.7928460   2.7928460
 AtZNuc=   7.0000000   1.0000000   6.0000000   1.0000000   1.0000000   1.0000000   6.0000000   6.0000000   1.0000000   1.0000000

  Atom        21          22          23          24          25          26          27          28          29          30
 IAtWgt=           1          16          12           1          12           1           1           1          12           1
 AtmWgt=   1.0078250  15.9949146  12.0000000   1.0078250  12.0000000   1.0078250   1.0078250   1.0078250  12.0000000   1.0078250
 NucSpn=           1           0           0           1           0           1           1           1           0           1
 AtZEff=   0.0000000   0.0000000   0.0000000   0.0000000   0.0000000   0.0000000   0.0000000   0.0000000   0.0000000   0.0000000
 NQMom=    0.0000000   0.0000000   0.0000000   0.0000000   0.0000000   0.0000000   0.0000000   0.0000000   0.0000000   0.0000000
 NMagM=    2.7928460   0.0000000   0.0000000   2.7928460   0.0000000   2.7928460   2.7928460   2.7928460   0.0000000   2.7928460
 AtZNuc=   1.0000000   8.0000000   6.0000000   1.0000000   6.0000000   1.0000000   1.0000000   1.0000000   6.0000000   1.0000000

  Atom        31
 IAtWgt=           1
 AtmWgt=   1.0078250
 NucSpn=           1
 AtZEff=   0.0000000
 NQMom=    0.0000000
 NMagM=    2.7928460
 AtZNuc=   1.0000000
 Leave Link  101 at Wed Jun 18 15:11:02 2014, MaxMem=  4294967296 cpu:         1.8
 (Enter /home/ztw1e12/g09/l202.exe)
                          Input orientation:                          
 ---------------------------------------------------------------------
 Center     Atomic      Atomic             Coordinates (Angstroms)
 Number     Number       Type             X           Y           Z
 ---------------------------------------------------------------------
      1          6           0        0.680060    0.741277    0.658211
      2          6           0        0.137721    0.267527   -0.688938
      3          1           0        0.539108    0.938625   -1.452847
      4          6           0       -3.256690    0.319323    0.936055
      5          1           0       -3.828703   -0.281146    1.646257
      6          1           0       -2.866027    1.192086    1.465146
      7          1           0       -3.948578    0.677226    0.167505
      8          8           0        1.042675   -0.034258    1.538632
      9          7           0        0.592755   -1.067669   -0.985795
     10          1           0       -0.025655   -1.845290   -0.816538
     11          7           0        0.710320    2.068688    0.812632
     12          1           0        0.379046    2.651700    0.060427
     13          6           0        1.129470    2.684296    2.051185
     14          1           0        0.449527    2.441261    2.869038
     15          1           0        2.129535    2.352170    2.329084
     16          1           0        1.145422    3.761881    1.920208
     17          6           0        1.891703   -1.327466   -1.222540
     18          6           0        2.255987   -2.760228   -1.429423
     19          1           0        1.410395   -3.436790   -1.327356
     20          1           0        2.685735   -2.872593   -2.424683
     21          1           0        3.026473   -3.034291   -0.709227
     22          8           0        2.731347   -0.431161   -1.288482
     23          6           0       -2.138633   -0.488107    0.302130
     24          1           0       -1.444754   -0.792644    1.094159
     25          6           0       -2.723889   -1.738794   -0.334037
     26          1           0       -3.463735   -1.460865   -1.090823
     27          1           0       -1.977330   -2.363934   -0.829181
     28          1           0       -3.227782   -2.356995    0.411486
     29          6           0       -1.382477    0.373444   -0.719919
     30          1           0       -1.719982    0.128631   -1.731914
     31          1           0       -1.627418    1.427392   -0.570112
 ---------------------------------------------------------------------
                    Distance matrix (angstroms):
                    1          2          3          4          5
     1  C    0.000000
     2  C    1.527541   0.000000
     3  H    2.124942   1.093179   0.000000
     4  C    3.969036   3.763683   4.527524   0.000000
     5  H    4.727634   4.635375   5.492728   1.091856   0.000000
     6  H    3.664574   3.810169   4.491533   1.092827   1.769169
     7  H    4.655017   4.195139   4.778409   1.094291   1.766226
     8  O    1.228041   2.423238   3.185754   4.355761   4.878818
     9  N    2.445948   1.441502   2.060639   4.520562   5.205344
    10  H    3.059942   2.122962   2.911019   4.265761   4.793233
    11  N    1.336705   2.413869   2.537469   4.337359   5.178743
    12  H    2.024271   2.510790   2.291341   4.407412   5.368575
    13  C    2.432626   3.785844   3.959057   5.106370   5.791484
    14  H    2.798365   4.181093   4.576530   4.687759   5.216315
    15  H    2.736379   4.173909   4.339420   5.923210   6.549901
    16  H    3.306546   4.475893   4.440258   5.674359   6.415843
    17  C    3.047130   2.430059   2.649099   5.820429   6.484430
    18  C    4.370618   3.768643   4.077957   6.743050   7.254592
    19  H    4.683173   3.968531   4.463087   6.404147   6.800633
    20  H    5.156261   4.400629   4.480832   7.536266   8.107161
    21  H    4.650855   4.387175   4.745947   7.309707   7.753809
    22  O    3.061373   2.752183   2.590220   6.431825   7.188147
    23  C    3.095676   2.595185   3.505111   1.517846   2.169296
    24  H    2.656652   2.609143   3.663365   2.131802   2.499931
    25  C    4.326913   3.512846   4.366630   2.476460   2.695722
    26  H    5.007952   4.014889   4.680958   2.705582   3.002756
    27  H    4.349298   3.379008   4.198609   3.457266   3.727383
    28  H    4.993134   4.407455   5.341003   2.727396   2.488959
    29  C    2.507709   1.524198   2.132862   2.501570   3.465732
    30  H    3.442126   2.134983   2.416083   3.084784   4.003331
    31  H    2.702589   2.115448   2.389968   2.480097   3.560484
                    6          7          8          9         10
     6  H    0.000000
     7  H    1.766598   0.000000
     8  O    4.097227   5.224826   0.000000
     9  N    4.803829   4.999846   2.764615   0.000000
    10  H    4.743358   4.766629   3.157213   1.007856   0.000000
    11  N    3.739581   4.904863   2.249426   3.617305   4.302915
    12  H    3.825468   4.757977   3.136856   3.869620   4.599540
    13  C    4.305128   5.776084   2.767811   4.856805   5.484095
    14  H    3.811069   5.454670   2.872281   5.214676   5.673076
    15  H    5.200752   6.664932   2.738817   5.004539   5.670842
    16  H    4.785671   6.207729   3.816651   5.663466   6.348351
    17  C    6.017291   6.329289   3.165013   1.345663   2.027126
    18  C    7.087619   7.270687   4.208609   2.414105   2.533501
    19  H    6.892920   6.919417   4.463892   2.529414   2.203644
    20  H    7.904078   7.958314   5.144284   3.115881   3.315587
    21  H    7.570450   7.949551   4.241288   3.141190   3.277304
    22  O    6.445773   6.926025   3.316884   2.251741   3.134255
    23  C    2.169045   2.156856   3.443202   3.074918   2.749189
    24  H    2.469170   3.047678   2.638183   2.924601   2.602435
    25  C    3.441994   2.754734   4.538649   3.446059   2.743103
    26  H    3.732075   2.527824   5.408971   4.076855   3.470361
    27  H    4.324234   3.758704   4.489361   2.882736   2.019452
    28  H    3.719817   3.128190   4.990227   4.267465   3.467492
    29  C    2.765069   2.732157   3.338957   2.459479   2.602515
    30  H    3.558869   2.979159   4.284306   2.708612   2.757720
    31  H    2.394117   2.548453   3.703055   3.365604   3.651961
                   11         12         13         14         15
    11  N    0.000000
    12  H    1.007699   0.000000
    13  C    1.445224   2.127749   0.000000
    14  H    2.106093   2.817365   1.090996   0.000000
    15  H    2.096225   2.881100   1.089801   1.766894   0.000000
    16  H    2.069527   2.297525   1.085633   1.768781   1.767185
    17  C    4.131761   4.446110   5.233785   5.746667   5.119601
    18  C    5.543855   5.918744   6.559460   6.985381   6.346572
    19  H    5.948104   6.329244   6.997225   7.285909   6.884677
    20  H    6.228863   6.481852   7.303038   7.826950   7.085606
    21  H    5.806980   6.319156   6.627272   7.030384   6.248983
    22  O    3.840374   4.105716   4.839985   5.544590   4.603900
    23  C    3.861910   4.031813   4.878917   4.676407   5.512982
    24  H    3.593163   4.032165   4.430761   4.146883   4.918377
    25  C    5.254099   5.390756   6.332565   6.148424   6.883598
    26  H    5.788231   5.745044   6.939172   6.798581   7.584172
    27  H    5.437568   5.612530   6.590398   6.531183   7.005899
    28  H    5.937696   6.182190   6.862133   6.525751   7.386086
    29  C    3.098768   2.983681   4.396468   4.529097   5.054306
    30  H    4.018072   3.739556   5.381695   5.587825   6.021180
    31  H    2.790746   2.433600   4.006424   4.143595   4.834796
                   16         17         18         19         20
    16  H    0.000000
    17  C    6.027873   0.000000
    18  C    7.415611   1.492753   0.000000
    19  H    7.901756   2.166077   1.087741   0.000000
    20  H    8.078792   2.112594   1.089886   1.774524   0.000000
    21  H    7.525971   2.112923   1.089698   1.776456   1.756428
    22  O    5.512935   1.229924   2.381257   3.283326   2.693255
    23  C    5.609420   4.390074   5.241516   4.893420   6.032894
    24  H    5.304250   4.096959   4.892375   4.583352   5.811142
    25  C    7.092998   4.718296   5.200227   4.578447   5.909343
    26  H    7.588657   5.358718   5.875220   5.264729   6.448887
    27  H    7.405156   4.024725   4.293986   3.588298   4.954648
    28  H    7.670841   5.471663   5.798557   5.069735   6.578706
    29  C    4.984180   3.723705   4.854041   4.763087   5.476616
    30  H    5.894832   3.927334   4.923955   4.761844   5.375650
    31  H    4.397746   4.516538   5.775414   5.784634   6.366521
                   21         22         23         24         25
    21  H    0.000000
    22  O    2.683081   0.000000
    23  C    5.846727   5.123475   0.000000
    24  H    5.316865   4.821563   1.096139   0.000000
    25  C    5.906415   5.690384   1.520346   2.138020   0.000000
    26  H    6.689102   6.283184   2.154640   3.049090   1.094231
    27  H    5.049932   5.110598   2.196500   2.540045   1.092391
    28  H    6.389870   6.489218   2.165859   2.468284   1.091735
    29  C    5.572397   4.230154   1.535782   2.157433   2.531766
    30  H    5.794722   4.508251   2.166326   2.985161   2.539521
    31  H    6.448618   4.792610   2.165937   2.780598   3.358975
                   26         27         28         29         30
    26  H    0.000000
    27  H    1.758804   0.000000
    28  H    1.765122   1.761514   0.000000
    29  C    2.798909   2.803396   3.484326   0.000000
    30  H    2.445030   2.663463   3.611919   1.094521   0.000000
    31  H    3.461969   3.816243   4.224486   1.092357   1.745031
                   31
    31  H    0.000000
 Stoichiometry    C9H18N2O2
 Framework group  C1[X(C9H18N2O2)]
 Deg. of freedom    87
 Full point group                 C1      NOp   1
 Largest Abelian subgroup         C1      NOp   1
 Largest concise Abelian subgroup C1      NOp   1
                         Standard orientation:                         
 ---------------------------------------------------------------------
 Center     Atomic      Atomic             Coordinates (Angstroms)
 Number     Number       Type             X           Y           Z
 ---------------------------------------------------------------------
      1          6           0        0.046360    1.233407    0.157342
      2          6           0        0.172684    0.019790   -0.761656
      3          1           0        0.568339    0.377056   -1.716045
      4          6           0       -3.393866   -0.745994    0.164954
      5          1           0       -3.945188   -1.149861    1.016473
      6          1           0       -3.507835    0.340861    0.170051
      7          1           0       -3.862836   -1.126321   -0.747675
      8          8           0        0.321108    1.192776    1.353565
      9          7           0        1.105885   -0.938015   -0.223443
     10          1           0        0.752687   -1.741704    0.271642
     11          7           0       -0.407059    2.340639   -0.438669
     12          1           0       -0.635114    2.304239   -1.419548
     13          6           0       -0.651592    3.559483    0.298418
     14          1           0       -1.449934    3.430908    1.030806
     15          1           0        0.246806    3.879264    0.825947
     16          1           0       -0.941042    4.339692   -0.398784
     17          6           0        2.418544   -0.657790   -0.127474
     18          6           0        3.272658   -1.691607    0.528288
     19          1           0        2.708477   -2.549992    0.886136
     20          1           0        4.024000   -2.029736   -0.185158
     21          1           0        3.800387   -1.232720    1.363971
     22          8           0        2.894416    0.383667   -0.576500
     23          6           0       -1.930927   -1.147906    0.211119
     24          1           0       -1.485312   -0.714985    1.114185
     25          6           0       -1.831164   -2.662252    0.301985
     26          1           0       -2.320721   -3.120694   -0.562599
     27          1           0       -0.802397   -3.029153    0.320407
     28          1           0       -2.328385   -3.033224    1.200337
     29          6           0       -1.195986   -0.598970   -1.020610
     30          1           0       -1.075076   -1.393357   -1.763784
     31          1           0       -1.803104    0.170848   -1.502307
 ---------------------------------------------------------------------
 Rotational constants (GHZ):      0.8150346      0.6420931      0.4079131
 Leave Link  202 at Wed Jun 18 15:11:02 2014, MaxMem=  4294967296 cpu:         2.2
 (Enter /home/ztw1e12/g09/l301.exe)
 Standard basis: CC-pVTZ (5D, 7F)
 Converting basis for Fermi contact spin-spin IFCMod=1.
 AO basis functions are being uncontracted.
 Ernie: Thresh=  0.10000D-02 Tol=  0.10000D-05 Strict=F.
 There are  1119 symmetry adapted cartesian basis functions of A   symmetry.
 There are  1036 symmetry adapted basis functions of A   symmetry.
  1036 basis functions,  1119 primitive gaussians,  1119 cartesian basis functions
    51 alpha electrons       51 beta electrons
       nuclear repulsion energy       872.2393978761 Hartrees.
 IExCor= 4235 DFT=T Ex+Corr=M06 ExCW=0 ScaHFX=  0.270000
 ScaDFX=  1.000000  1.000000  1.000000  1.000000 ScalE2=  1.000000  1.000000
 IRadAn= 199590 IRanWt=     -1 IRanGd=            0 ICorTp=0 IEmpDi=  4
 NAtoms=   31 NActive=   31 NUniq=   31 SFac= 1.00D+00 NAtFMM=   60 NAOKFM=F Big=F
 Integral buffers will be    131072 words long.
 Raffenetti 2 integral format.
 Two-electron integral symmetry is turned on.
 Leave Link  301 at Wed Jun 18 15:11:02 2014, MaxMem=  4294967296 cpu:         6.3
 (Enter /home/ztw1e12/g09/l302.exe)
 NPDir=0 NMtPBC=     1 NCelOv=     1 NCel=       1 NClECP=     1 NCelD=      1
         NCelK=      1 NCelE2=     1 NClLst=     1 CellRange=     0.0.
 One-electron integrals computed using PRISM.
 GSVD:  received Info=                   1 from GESDD.
 NBasis=  1036 RedAO= T EigKep=  1.32D-04  NBF=  1036
 NBsUse=   932 1.00D-06 EigRej=  5.73D-15 NBFU=   932
 Precomputing XC quadrature grid using
 IXCGrd= 4 IRadAn=      199590 IRanWt=          -1 IRanGd=           0 AccXCQ= 0.00D+00.
 Generated NRdTot=       0 NPtTot=           0 NUsed=           0 NTot=          32
 NSgBfM=   879   880   880   880   880 MxSgAt=    31 MxSgA2=    31.
 Leave Link  302 at Wed Jun 18 15:11:07 2014, MaxMem=  4294967296 cpu:        64.5
 (Enter /home/ztw1e12/g09/l308.exe)
 Leave Link  308 at Wed Jun 18 15:11:07 2014, MaxMem=  4294967296 cpu:         5.7
 (Enter /home/ztw1e12/g09/l303.exe)
 DipDrv:  MaxL=1.
 Leave Link  303 at Wed Jun 18 15:11:07 2014, MaxMem=  4294967296 cpu:         3.3
 (Enter /home/ztw1e12/g09/l401.exe)
 ExpMin= 1.03D-01 ExpMax= 1.38D+05 ExpMxC= 1.38D+05 IAcc=4 IRadAn=    199590 AccDes= 0.00D+00
 Harris functional with IExCor= 1009 and IRadAn=  199590 diagonalized for initial guess.
 HarFok:  IExCor= 1009 AccDes= 0.00D+00 IRadAn=    199590 IDoV= 1 UseB2=F ITyADJ=14
 ICtDFT=  3500011 ScaDFX=  1.000000  1.000000  1.000000  1.000000
 FoFCou: FMM=F IPFlag=           0 FMFlag=      100000 FMFlg1=           0
         NFxFlg=           0 DoJE=T BraDBF=F KetDBF=T FulRan=T
         wScrn=  0.000000 ICntrl=     500 IOpCl=  0 I1Cent=   200000004 NGrid=           0
         NMat0=    1 NMatS0=      1 NMatT0=    0 NMatD0=    1 NMtDS0=    0 NMtDT0=    0
 Petite list used in FoFCou.
 Harris En= -613.562950055200    
 JPrj=0 DoOrth=F DoCkMO=F.
 Leave Link  401 at Wed Jun 18 15:11:25 2014, MaxMem=  4294967296 cpu:       260.3
 (Enter /home/ztw1e12/g09/l502.exe)
 Closed shell SCF:
 Using DIIS extrapolation, IDIIS=  1040.
 Integral symmetry usage will be decided dynamically.
 IVT=     3801329 IEndB=     3801329 NGot=  4294967296 MDV=  4292435888
 LenX=  4292435888 LenY=  4291182608
 Requested convergence on RMS density matrix=1.00D-08 within 128 cycles.
 Requested convergence on MAX density matrix=1.00D-06.
 Requested convergence on             energy=1.00D-06.
 No special actions if energy rises.
 Fock matrices will be formed incrementally for  20 cycles.
 Integral accuracy reduced to 1.0D-05 until final iterations.

 Cycle   1  Pass 0  IDiag  1:
 FoFJK:  IHMeth= 1 ICntrl=       0 DoSepK=F KAlg= 0 I1Cent=   0 FoldK=F
 IRaf= 480000000 NMat=   1 IRICut=       1 DoRegI=T DoRafI=F ISym2E= 0.
 FoFCou: FMM=F IPFlag=           0 FMFlag=      100000 FMFlg1=           0
         NFxFlg=           0 DoJE=F BraDBF=F KetDBF=F FulRan=T
         wScrn=  0.000000 ICntrl=       0 IOpCl=  0 I1Cent=           0 NGrid=           0
         NMat0=    1 NMatS0=      1 NMatT0=    0 NMatD0=    1 NMtDS0=    0 NMtDT0=    0
 Symmetry not used in FoFCou.
 E= -613.183824842276    
 DIIS: error= 1.37D-01 at cycle   1 NSaved=   1.
 NSaved= 1 IEnMin= 1 EnMin= -613.183824842276     IErMin= 1 ErrMin= 1.37D-01
 ErrMax= 1.37D-01  0.00D+00 EMaxC= 1.00D-01 BMatC= 1.30D+01 BMatP= 1.30D+01
 IDIUse=3 WtCom= 0.00D+00 WtEn= 1.00D+00
 Coeff-Com:  0.100D+01
 Coeff-En:   0.100D+01
 Coeff:      0.100D+01
 Gap=     0.287 Goal=   None    Shift=    0.000
 GapD=    0.287 DampG=1.000 DampE=0.250 DampFc=0.2500 IDamp=-1.
 Damping current iteration by 2.50D-01
 RMSDP=2.10D-03 MaxDP=2.95D-01              OVMax= 2.80D-01

 Cycle   2  Pass 0  IDiag  1:
 RMSU=  5.23D-04    CP:  1.01D+00
 E= -613.340864802776     Delta-E=       -0.157039960500 Rises=F Damp=T
 DIIS: error= 1.04D-01 at cycle   2 NSaved=   2.
 NSaved= 2 IEnMin= 2 EnMin= -613.340864802776     IErMin= 2 ErrMin= 1.04D-01
 ErrMax= 1.04D-01  0.00D+00 EMaxC= 1.00D-01 BMatC= 7.66D+00 BMatP= 1.30D+01
 IDIUse=3 WtCom= 0.00D+00 WtEn= 1.00D+00
 Coeff-Com: -0.279D+01 0.379D+01
 Coeff-En:   0.000D+00 0.100D+01
 Coeff:      0.000D+00 0.100D+01
 Gap=     0.221 Goal=   None    Shift=    0.000
 RMSDP=5.77D-04 MaxDP=4.95D-02 DE=-1.57D-01 OVMax= 1.31D-01

 Cycle   3  Pass 0  IDiag  1:
 RMSU=  4.28D-04    CP:  1.03D+00  1.74D+00
 E= -613.529314634753     Delta-E=       -0.188449831977 Rises=F Damp=F
 DIIS: error= 1.42D-02 at cycle   3 NSaved=   3.
 NSaved= 3 IEnMin= 3 EnMin= -613.529314634753     IErMin= 3 ErrMin= 1.42D-02
 ErrMax= 1.42D-02  0.00D+00 EMaxC= 1.00D-01 BMatC= 2.32D-01 BMatP= 7.66D+00
 IDIUse=3 WtCom= 8.58D-01 WtEn= 1.42D-01
 Coeff-Com:  0.124D+01-0.169D+01 0.145D+01
 Coeff-En:   0.139D+00 0.000D+00 0.861D+00
 Coeff:      0.108D+01-0.145D+01 0.137D+01
 Gap=     0.254 Goal=   None    Shift=    0.000
 RMSDP=4.16D-04 MaxDP=3.49D-02 DE=-1.88D-01 OVMax= 6.66D-02

 Cycle   4  Pass 0  IDiag  1:
 RMSU=  2.67D-04    CP:  1.03D+00  1.17D+00  7.25D-01
 E= -613.547375185321     Delta-E=       -0.018060550569 Rises=F Damp=F
 DIIS: error= 9.39D-03 at cycle   4 NSaved=   4.
 NSaved= 4 IEnMin= 4 EnMin= -613.547375185321     IErMin= 4 ErrMin= 9.39D-03
 ErrMax= 9.39D-03  0.00D+00 EMaxC= 1.00D-01 BMatC= 1.00D-01 BMatP= 2.32D-01
 IDIUse=3 WtCom= 9.06D-01 WtEn= 9.39D-02
 Coeff-Com:  0.757D+00-0.104D+01 0.743D+00 0.542D+00
 Coeff-En:   0.000D+00 0.000D+00 0.433D+00 0.567D+00
 Coeff:      0.686D+00-0.943D+00 0.713D+00 0.544D+00
 Gap=     0.285 Goal=   None    Shift=    0.000
 RMSDP=2.69D-04 MaxDP=2.10D-02 DE=-1.81D-02 OVMax= 7.47D-02

 Cycle   5  Pass 0  IDiag  1:
 RMSU=  8.60D-05    CP:  1.02D+00  1.11D+00  8.70D-01  8.31D-02
 E= -613.615978371469     Delta-E=       -0.068603186148 Rises=F Damp=F
 DIIS: error= 3.18D-03 at cycle   5 NSaved=   5.
 NSaved= 5 IEnMin= 5 EnMin= -613.615978371469     IErMin= 5 ErrMin= 3.18D-03
 ErrMax= 3.18D-03  0.00D+00 EMaxC= 1.00D-01 BMatC= 1.46D-02 BMatP= 1.00D-01
 IDIUse=3 WtCom= 9.68D-01 WtEn= 3.18D-02
 Coeff-Com:  0.128D+00-0.184D+00 0.132D+00 0.278D+00 0.646D+00
 Coeff-En:   0.000D+00 0.000D+00 0.000D+00 0.919D-01 0.908D+00
 Coeff:      0.124D+00-0.178D+00 0.128D+00 0.272D+00 0.654D+00
 Gap=     0.271 Goal=   None    Shift=    0.000
 RMSDP=1.50D-04 MaxDP=1.45D-02 DE=-6.86D-02 OVMax= 3.15D-02

 Cycle   6  Pass 0  IDiag  1:
 RMSU=  7.78D-05    CP:  1.03D+00  1.16D+00  9.57D-01  4.87D-01  4.06D-01
 E= -613.624283596078     Delta-E=       -0.008305224609 Rises=F Damp=F
 DIIS: error= 9.95D-04 at cycle   6 NSaved=   6.
 NSaved= 6 IEnMin= 6 EnMin= -613.624283596078     IErMin= 6 ErrMin= 9.95D-04
 ErrMax= 9.95D-04  0.00D+00 EMaxC= 1.00D-01 BMatC= 1.11D-03 BMatP= 1.46D-02
 IDIUse=3 WtCom= 9.90D-01 WtEn= 9.95D-03
 Coeff-Com:  0.567D-01-0.770D-01 0.179D-01 0.441D-01 0.203D+00 0.755D+00
 Coeff-En:   0.000D+00 0.000D+00 0.000D+00 0.000D+00 0.149D-01 0.985D+00
 Coeff:      0.561D-01-0.763D-01 0.177D-01 0.437D-01 0.201D+00 0.758D+00
 Gap=     0.271 Goal=   None    Shift=    0.000
 RMSDP=3.21D-05 MaxDP=2.97D-03 DE=-8.31D-03 OVMax= 1.02D-02

 Cycle   7  Pass 0  IDiag  1:
 RMSU=  2.15D-05    CP:  1.03D+00  1.12D+00  9.58D-01  4.81D-01  5.47D-01
                    CP:  1.09D+00
 E= -613.624893551841     Delta-E=       -0.000609955763 Rises=F Damp=F
 DIIS: error= 4.39D-04 at cycle   7 NSaved=   7.
 NSaved= 7 IEnMin= 7 EnMin= -613.624893551841     IErMin= 7 ErrMin= 4.39D-04
 ErrMax= 4.39D-04  0.00D+00 EMaxC= 1.00D-01 BMatC= 2.35D-04 BMatP= 1.11D-03
 IDIUse=3 WtCom= 9.96D-01 WtEn= 4.39D-03
 Coeff-Com:  0.390D-01-0.523D-01 0.121D-01 0.846D-02 0.626D-01 0.423D+00
 Coeff-Com:  0.507D+00
 Coeff-En:   0.000D+00 0.000D+00 0.000D+00 0.000D+00 0.000D+00 0.108D+00
 Coeff-En:   0.892D+00
 Coeff:      0.388D-01-0.521D-01 0.120D-01 0.842D-02 0.623D-01 0.422D+00
 Coeff:      0.509D+00
 Gap=     0.271 Goal=   None    Shift=    0.000
 RMSDP=1.13D-05 MaxDP=9.53D-04 DE=-6.10D-04 OVMax= 3.48D-03

 Cycle   8  Pass 0  IDiag  1:
 RMSU=  6.73D-06    CP:  1.03D+00  1.12D+00  9.63D-01  4.92D-01  5.38D-01
                    CP:  1.14D+00  6.59D-01
 E= -613.625054214846     Delta-E=       -0.000160663005 Rises=F Damp=F
 DIIS: error= 1.44D-04 at cycle   8 NSaved=   8.
 NSaved= 8 IEnMin= 8 EnMin= -613.625054214846     IErMin= 8 ErrMin= 1.44D-04
 ErrMax= 1.44D-04  0.00D+00 EMaxC= 1.00D-01 BMatC= 2.68D-05 BMatP= 2.35D-04
 IDIUse=3 WtCom= 9.99D-01 WtEn= 1.44D-03
 Coeff-Com:  0.212D-01-0.284D-01 0.819D-02-0.302D-02 0.462D-02 0.166D+00
 Coeff-Com:  0.296D+00 0.535D+00
 Coeff-En:   0.000D+00 0.000D+00 0.000D+00 0.000D+00 0.000D+00 0.000D+00
 Coeff-En:   0.000D+00 0.100D+01
 Coeff:      0.212D-01-0.284D-01 0.818D-02-0.302D-02 0.461D-02 0.165D+00
 Coeff:      0.296D+00 0.536D+00
 Gap=     0.271 Goal=   None    Shift=    0.000
 RMSDP=5.54D-06 MaxDP=5.68D-04 DE=-1.61D-04 OVMax= 1.22D-03

 Initial convergence to 1.0D-05 achieved.  Increase integral accuracy.
 Cycle   9  Pass 1  IDiag  1:
 E= -613.625100427910     Delta-E=       -0.000046213064 Rises=F Damp=F
 DIIS: error= 8.83D-05 at cycle   1 NSaved=   1.
 NSaved= 1 IEnMin= 1 EnMin= -613.625100427910     IErMin= 1 ErrMin= 8.83D-05
 ErrMax= 8.83D-05  0.00D+00 EMaxC= 1.00D-01 BMatC= 1.16D-05 BMatP= 1.16D-05
 IDIUse=1 WtCom= 1.00D+00 WtEn= 0.00D+00
 Coeff-Com:  0.100D+01
 Coeff:      0.100D+01
 Gap=     0.271 Goal=   None    Shift=    0.000
 RMSDP=5.54D-06 MaxDP=5.68D-04 DE=-4.62D-05 OVMax= 1.46D-03

 Cycle  10  Pass 1  IDiag  1:
 RMSU=  2.57D-05    CP:  1.00D+00
 E= -613.625097211572     Delta-E=        0.000003216338 Rises=F Damp=F
 DIIS: error= 9.31D-05 at cycle   2 NSaved=   2.
 NSaved= 2 IEnMin= 1 EnMin= -613.625100427910     IErMin= 1 ErrMin= 8.83D-05
 ErrMax= 9.31D-05  0.00D+00 EMaxC= 1.00D-01 BMatC= 1.34D-05 BMatP= 1.16D-05
 IDIUse=1 WtCom= 1.00D+00 WtEn= 0.00D+00
 Coeff-Com:  0.523D+00 0.477D+00
 Coeff:      0.523D+00 0.477D+00
 Gap=     0.271 Goal=   None    Shift=    0.000
 RMSDP=3.98D-06 MaxDP=4.99D-04 DE= 3.22D-06 OVMax= 1.38D-03

 Cycle  11  Pass 1  IDiag  1:
 RMSU=  3.94D-06    CP:  1.00D+00  9.85D-01
 E= -613.625104672676     Delta-E=       -0.000007461104 Rises=F Damp=F
 DIIS: error= 4.89D-05 at cycle   3 NSaved=   3.
 NSaved= 3 IEnMin= 3 EnMin= -613.625104672676     IErMin= 3 ErrMin= 4.89D-05
 ErrMax= 4.89D-05  0.00D+00 EMaxC= 1.00D-01 BMatC= 2.95D-06 BMatP= 1.16D-05
 IDIUse=1 WtCom= 1.00D+00 WtEn= 0.00D+00
 Coeff-Com:  0.569D-01 0.317D+00 0.626D+00
 Coeff:      0.569D-01 0.317D+00 0.626D+00
 Gap=     0.271 Goal=   None    Shift=    0.000
 RMSDP=1.34D-06 MaxDP=1.42D-04 DE=-7.46D-06 OVMax= 4.50D-04

 Cycle  12  Pass 1  IDiag  1:
 RMSU=  4.98D-07    CP:  1.00D+00  1.00D+00  7.09D-01
 E= -613.625106691407     Delta-E=       -0.000002018731 Rises=F Damp=F
 DIIS: error= 1.22D-05 at cycle   4 NSaved=   4.
 NSaved= 4 IEnMin= 4 EnMin= -613.625106691407     IErMin= 4 ErrMin= 1.22D-05
 ErrMax= 1.22D-05  0.00D+00 EMaxC= 1.00D-01 BMatC= 1.06D-07 BMatP= 2.95D-06
 IDIUse=1 WtCom= 1.00D+00 WtEn= 0.00D+00
 Coeff-Com:  0.655D-02 0.139D+00 0.314D+00 0.540D+00
 Coeff:      0.655D-02 0.139D+00 0.314D+00 0.540D+00
 Gap=     0.271 Goal=   None    Shift=    0.000
 RMSDP=2.37D-07 MaxDP=2.22D-05 DE=-2.02D-06 OVMax= 6.59D-05

 Cycle  13  Pass 1  IDiag  1:
 RMSU=  1.89D-07    CP:  1.00D+00  1.01D+00  7.18D-01  7.31D-01
 E= -613.625106764469     Delta-E=       -0.000000073062 Rises=F Damp=F
 DIIS: error= 2.74D-06 at cycle   5 NSaved=   5.
 NSaved= 5 IEnMin= 5 EnMin= -613.625106764469     IErMin= 5 ErrMin= 2.74D-06
 ErrMax= 2.74D-06  0.00D+00 EMaxC= 1.00D-01 BMatC= 7.56D-09 BMatP= 1.06D-07
 IDIUse=1 WtCom= 1.00D+00 WtEn= 0.00D+00
 Coeff-Com: -0.193D-02 0.404D-01 0.990D-01 0.266D+00 0.597D+00
 Coeff:     -0.193D-02 0.404D-01 0.990D-01 0.266D+00 0.597D+00
 Gap=     0.271 Goal=   None    Shift=    0.000
 RMSDP=7.38D-08 MaxDP=6.61D-06 DE=-7.31D-08 OVMax= 2.03D-05

 Cycle  14  Pass 1  IDiag  1:
 RMSU=  3.95D-08    CP:  1.00D+00  1.01D+00  7.21D-01  8.43D-01  9.00D-01
 E= -613.625106769545     Delta-E=       -0.000000005076 Rises=F Damp=F
 DIIS: error= 5.84D-07 at cycle   6 NSaved=   6.
 NSaved= 6 IEnMin= 6 EnMin= -613.625106769545     IErMin= 6 ErrMin= 5.84D-07
 ErrMax= 5.84D-07  0.00D+00 EMaxC= 1.00D-01 BMatC= 3.94D-10 BMatP= 7.56D-09
 IDIUse=1 WtCom= 1.00D+00 WtEn= 0.00D+00
 Coeff-Com: -0.115D-02 0.138D-01 0.347D-01 0.107D+00 0.288D+00 0.558D+00
 Coeff:     -0.115D-02 0.138D-01 0.347D-01 0.107D+00 0.288D+00 0.558D+00
 Gap=     0.271 Goal=   None    Shift=    0.000
 RMSDP=2.11D-08 MaxDP=2.21D-06 DE=-5.08D-09 OVMax= 8.25D-06

 Cycle  15  Pass 1  IDiag  1:
 RMSU=  1.87D-08    CP:  1.00D+00  1.01D+00  7.22D-01  8.51D-01  9.21D-01
                    CP:  8.13D-01
 E= -613.625106769690     Delta-E=       -0.000000000145 Rises=F Damp=F
 DIIS: error= 4.26D-07 at cycle   7 NSaved=   7.
 NSaved= 7 IEnMin= 7 EnMin= -613.625106769690     IErMin= 7 ErrMin= 4.26D-07
 ErrMax= 4.26D-07  0.00D+00 EMaxC= 1.00D-01 BMatC= 1.23D-10 BMatP= 3.94D-10
 IDIUse=1 WtCom= 1.00D+00 WtEn= 0.00D+00
 Coeff-Com: -0.342D-03 0.610D-04 0.767D-03 0.102D-01 0.529D-01 0.366D+00
 Coeff-Com:  0.570D+00
 Coeff:     -0.342D-03 0.610D-04 0.767D-03 0.102D-01 0.529D-01 0.366D+00
 Coeff:      0.570D+00
 Gap=     0.271 Goal=   None    Shift=    0.000
 RMSDP=1.43D-08 MaxDP=1.60D-06 DE=-1.45D-10 OVMax= 3.01D-06

 Cycle  16  Pass 1  IDiag  1:
 RMSU=  6.17D-09    CP:  1.00D+00  1.01D+00  7.22D-01  8.65D-01  9.47D-01
                    CP:  9.98D-01  7.70D-01
 E= -613.625106769813     Delta-E=       -0.000000000123 Rises=F Damp=F
 DIIS: error= 1.03D-07 at cycle   8 NSaved=   8.
 NSaved= 8 IEnMin= 8 EnMin= -613.625106769813     IErMin= 8 ErrMin= 1.03D-07
 ErrMax= 1.03D-07  0.00D+00 EMaxC= 1.00D-01 BMatC= 1.01D-11 BMatP= 1.23D-10
 IDIUse=1 WtCom= 1.00D+00 WtEn= 0.00D+00
 Coeff-Com: -0.335D-04-0.174D-02-0.399D-02-0.822D-02-0.914D-02 0.127D+00
 Coeff-Com:  0.300D+00 0.597D+00
 Coeff:     -0.335D-04-0.174D-02-0.399D-02-0.822D-02-0.914D-02 0.127D+00
 Coeff:      0.300D+00 0.597D+00
 Gap=     0.271 Goal=   None    Shift=    0.000
 RMSDP=3.48D-09 MaxDP=4.94D-07 DE=-1.23D-10 OVMax= 5.64D-07

 SCF Done:  E(RM06) =  -613.625106770     A.U. after   16 cycles
            NFock= 16  Conv=0.35D-08     -V/T= 2.0046
 KE= 6.108048372158D+02 PE=-3.175861112819D+03 EE= 1.079191770957D+03
 Leave Link  502 at Wed Jun 18 15:39:33 2014, MaxMem=  4294967296 cpu:     26945.6
 (Enter /home/ztw1e12/g09/l801.exe)
 DoSCS=F DFT=T ScalE2(SS,OS)=  1.000000  1.000000
 Range of M.O.s used for correlation:     1   932
 NBasis=  1036 NAE=    51 NBE=    51 NFC=     0 NFV=     0
 NROrb=    932 NOA=    51 NOB=    51 NVA=   881 NVB=   881

 **** Warning!!: The largest alpha MO coefficient is  0.10619685D+02

 Leave Link  801 at Wed Jun 18 15:39:33 2014, MaxMem=  4294967296 cpu:         0.4
 (Enter /home/ztw1e12/g09/l1002.exe)
 Minotr:  Closed shell wavefunction.
          IDoAtm=1111111111111111111111111111111
          Direct CPHF calculation.
          Differentiating once with respect to Fermi-contact.
          Electric field/nuclear overlap derivatives assumed to be zero.
          Requested convergence is 1.0D-10 RMS, and 1.0D-09 maximum.
          Secondary convergence is 1.0D-12 RMS, and 1.0D-12 maximum.
          NewPWx=T KeepS1=F KeepF1=F KeepIn=T MapXYZ=F SortEE=F KeepMc=T.
          MDV=    4294966050 using IRadAn=  199590.
 Using stored XC quadrature information.
          Solving linear equations simultaneously, MaxMat=       0.
          There are    31 degrees of freedom in the 1st order CPHF.  IDoFFX=0 NUNeed=    31.
     31 vectors produced by pass  0 Test12= 1.45D-17 3.23D-11 XBig12= 4.16D+01 2.55D+00.
 AX will form    31 AO Fock derivatives at one time.
 FoFJK:  IHMeth= 1 ICntrl=       0 DoSepK=F KAlg= 0 I1Cent=   0 FoldK=F
 IRaf= 500000000 NMat=  31 IRICut=       1 DoRegI=T DoRafI=F ISym2E=-1.
 FoFCou: FMM=F IPFlag=           0 FMFlag=      100000 FMFlg1=           0
         NFxFlg=           0 DoJE=F BraDBF=F KetDBF=F FulRan=T
         wScrn=  0.000000 ICntrl=       0 IOpCl=  0 I1Cent=           0 NGrid=           0
         NMat0=   31 NMatS0=      0 NMatT0=   31 NMatD0=   31 NMtDS0=    0 NMtDT0=    0
 Petite list used in FoFCou.
     31 vectors produced by pass  1 Test12= 1.45D-17 3.23D-11 XBig12= 3.44D-01 1.76D-01.
     31 vectors produced by pass  2 Test12= 1.45D-17 3.23D-11 XBig12= 1.67D-02 4.49D-02.
     31 vectors produced by pass  3 Test12= 1.45D-17 3.23D-11 XBig12= 3.68D-04 6.25D-03.
     31 vectors produced by pass  4 Test12= 1.45D-17 3.23D-11 XBig12= 5.14D-06 8.82D-04.
     31 vectors produced by pass  5 Test12= 1.45D-17 3.23D-11 XBig12= 1.10D-07 1.52D-04.
     31 vectors produced by pass  6 Test12= 1.45D-17 3.23D-11 XBig12= 3.29D-09 1.69D-05.
     31 vectors produced by pass  7 Test12= 1.45D-17 3.23D-11 XBig12= 9.35D-11 4.00D-06.
     31 vectors produced by pass  8 Test12= 1.45D-17 3.23D-11 XBig12= 2.09D-12 3.29D-07.
     31 vectors produced by pass  9 Test12= 1.45D-17 3.23D-11 XBig12= 5.20D-14 6.47D-08.
     31 vectors produced by pass 10 Test12= 1.45D-17 3.23D-11 XBig12= 2.12D-15 6.41D-09.
     30 vectors produced by pass 11 Test12= 1.45D-17 3.23D-11 XBig12= 2.28D-17 6.35D-10.
      3 vectors produced by pass 12 Test12= 1.45D-17 3.23D-11 XBig12= 1.62D-19 4.82D-11.
 InvSVY:  IOpt=1 It=  1 EMax= 6.22D-15
 Solved reduced A of dimension   374 with    31 vectors.
 Max diff in FC couplings:  IJMax=    18    17 Diff= 1.96D-04 IJMaxR=    18     6 DiffR= 3.76D-01
 Fermi Contact (FC) contribution to K (Hz):
                1             2             3             4             5 
      1  0.123400D+11
      2  0.269194D+02  0.123400D+11
      3 -0.980518D+00  0.191318D+02  0.123400D+11
      4 -0.515528D-01  0.141596D+01 -0.223139D-01  0.123400D+11
      5  0.736295D-03  0.995878D-01  0.926110D-03  0.175141D+02  0.123400D+11
      6  0.537324D-02 -0.114905D-01  0.472656D-03  0.175032D+02 -0.761822D+00
      7  0.399605D-02 -0.151028D-01  0.240716D-03  0.170857D+02 -0.752507D+00
      8 -0.975520D+01  0.249891D+01  0.367445D+00 -0.324252D-01  0.744642D-02
      9 -0.819641D-01  0.189451D+02 -0.584359D+00  0.487345D-01 -0.752839D-02
     10 -0.189434D-01  0.187019D+00  0.224294D+00 -0.386573D-02  0.100809D-02
     11  0.287263D+02  0.133814D+02  0.116043D+00  0.191744D-01  0.105425D-02
     12  0.461696D+00  0.110578D+00 -0.225325D-01 -0.283124D-02 -0.185743D-03
     13 -0.402310D+00  0.108110D+01 -0.486793D-02 -0.620457D-02 -0.139068D-03
     14  0.159978D+00 -0.847440D-01  0.185662D-01  0.583587D-04  0.204274D-03
     15  0.231003D+00 -0.780078D-01  0.956719D-02  0.479490D-03  0.161732D-03
     16  0.953264D+00 -0.235449D-01 -0.462947D-03  0.374866D-03  0.187340D-04
     17  0.163337D+00 -0.475309D+00  0.260557D+00  0.246547D-01  0.267599D-02
     18 -0.169726D+00  0.879722D+00 -0.741520D-01 -0.106263D-02 -0.221889D-03
     19 -0.229961D-02  0.106486D+00 -0.212669D-02  0.132994D-02  0.168345D-04
     20  0.688686D-01 -0.758800D-02  0.155065D-01  0.201452D-02  0.277923D-04
     21  0.751077D-01  0.704050D-01  0.183154D-01 -0.786249D-03 -0.290957D-04
     22  0.456707D+00  0.885272D+00  0.226014D+00  0.303727D-01  0.350043D-02
     23  0.598168D+00 -0.493537D+00  0.105755D+01  0.170859D+02 -0.543486D+00
     24 -0.149515D-01  0.777898D+00 -0.105664D-01 -0.786830D+00  0.115352D+00
     25 -0.122572D-01  0.160635D+00  0.714125D-02  0.751786D-01  0.334254D+00
     26  0.112870D-01 -0.698820D-02  0.592487D-03  0.516676D+00 -0.374346D-02
     27  0.895275D-03 -0.246028D-02  0.690055D-02  0.141383D+01  0.504863D-02
     28 -0.178111D-03 -0.198164D-01  0.627542D-02  0.271127D+00 -0.733344D-02
     29 -0.352371D+00  0.164689D+02 -0.810784D+00  0.104878D+00  0.144779D+01
     30  0.108734D+01 -0.902750D+00  0.164200D+00  0.321141D-01 -0.109383D-01
     31  0.222432D+00 -0.466518D+00  0.126727D+00  0.104985D+01  0.376963D-01
                6             7             8             9            10 
      6  0.123400D+11
      7 -0.752864D+00  0.123400D+11
      8  0.654541D-02  0.321096D-01  0.123400D+11
      9 -0.144601D-02  0.290111D-01  0.417066D+00  0.123400D+11
     10  0.106210D-04 -0.218864D-03  0.342540D-02  0.314595D+02  0.123400D+11
     11  0.542469D-02 -0.242307D-02  0.642114D+01  0.773056D+00  0.140967D+00
     12  0.296390D-03  0.175683D-03  0.476997D+00  0.461706D-01 -0.934770D-03
     13 -0.153585D-02 -0.942587D-04  0.621060D+00  0.262266D+00  0.759314D-02
     14  0.108649D-02 -0.603483D-05  0.233282D+00 -0.934380D-02 -0.476187D-03
     15  0.392902D-03 -0.375565D-04  0.246323D+00 -0.476028D-02 -0.824328D-03
     16  0.997460D-04 -0.485722D-05  0.172262D+00  0.215556D-01 -0.957338D-03
     17 -0.995202D-04  0.453894D-02  0.516399D-01  0.257945D+02  0.324746D+00
     18  0.271845D-04  0.376958D-03  0.755312D-01  0.127040D+02  0.992366D-01
     19  0.751770D-04 -0.138724D-04  0.125610D-03  0.352078D+00 -0.988189D-02
     20 -0.219126D-04 -0.404191D-04  0.540183D-02  0.236918D+00 -0.435985D-02
     21 -0.214639D-04  0.830577D-04  0.294386D-02  0.520255D+00 -0.178995D-01
     22  0.498550D-03 -0.794365D-03  0.445454D+00  0.583959D+01  0.430742D+00
     23 -0.569591D+00 -0.789728D+00  0.644874D+00  0.728698D+00 -0.356196D-01
     24  0.165616D+00  0.403234D+00  0.544682D-01  0.273664D-01 -0.840003D-02
     25  0.139156D+01  0.422993D+00  0.284915D-01  0.492662D+00 -0.940343D-01
     26 -0.400972D-02 -0.144088D-01  0.392949D-01  0.426959D-01 -0.187352D-02
     27  0.864051D-01 -0.103775D-01  0.367808D-02  0.275818D+00 -0.371890D-01
     28  0.502320D-02 -0.569182D-02  0.247400D-02  0.684566D-02 -0.253740D-02
     29  0.326033D+00  0.454660D+00  0.186405D+00  0.676356D+00  0.432107D+00
     30 -0.132775D-02 -0.354258D-02  0.986825D-01  0.414048D+00 -0.146615D-01
     31 -0.117076D-01 -0.861703D-02 -0.155428D-01  0.189650D+01 -0.223384D-01
               11            12            13            14            15 
     11  0.123400D+11
     12  0.312654D+02  0.123400D+11
     13  0.170891D+02  0.326625D+00  0.123400D+11
     14 -0.560533D+00  0.665852D-01  0.197158D+02  0.123400D+11
     15 -0.578663D+00  0.152468D+00  0.202748D+02 -0.732140D+00  0.123400D+11
     16 -0.397672D+00  0.288160D+00  0.182482D+02 -0.733354D+00 -0.762989D+00
     17 -0.639451D-01  0.390386D-03 -0.871693D-02  0.106696D-02  0.521102D-03
     18  0.816907D-02  0.104880D-02  0.112266D-01  0.826247D-03  0.487645D-03
     19  0.455751D-02  0.479072D-04 -0.469361D-04 -0.230809D-04 -0.938310D-05
     20 -0.600068D-03 -0.168138D-03 -0.234927D-03  0.301263D-04 -0.302576D-04
     21  0.186997D-01 -0.675557D-04  0.264231D-02  0.544535D-04 -0.663440D-04
     22  0.184479D+00 -0.135841D-02  0.981710D-02  0.406759D-02  0.186206D-02
     23 -0.526063D-01  0.699983D-02  0.104219D-01 -0.287590D-02 -0.259605D-02
     24  0.219829D-01 -0.763022D-03 -0.814701D-03  0.783054D-03  0.389923D-03
     25  0.751033D-02 -0.215503D-03 -0.211731D-02 -0.504622D-03  0.587249D-03
     26  0.105626D-02 -0.100894D-03  0.348213D-03  0.376626D-04  0.856052D-04
     27  0.631551D-03  0.424945D-04 -0.127883D-03  0.128647D-03  0.676345D-04
     28  0.353015D-02 -0.286128D-03 -0.399710D-03  0.118403D-03  0.339897D-03
     29  0.139831D+00 -0.350255D-01 -0.142248D+00  0.808128D-01  0.107530D+00
     30 -0.280748D-01 -0.618916D-02 -0.749145D-02  0.488424D-02  0.538463D-02
     31  0.649225D-01 -0.110051D-01 -0.370765D-02  0.132548D-02  0.135204D-02
               16            17            18            19            20 
     16  0.123400D+11
     17 -0.101075D-03  0.123400D+11
     18  0.174206D-03  0.273345D+02  0.123400D+11
     19  0.000000D+00 -0.763602D+00  0.170604D+02  0.123400D+11
     20  0.157237D-03 -0.119432D+01  0.177490D+02 -0.735860D+00  0.123400D+11
     21  0.372458D-03 -0.118743D+01  0.181210D+02 -0.731043D+00 -0.923480D+00
     22  0.189841D-02 -0.943197D+01  0.375922D+01  0.834610D+00  0.439003D+00
     23  0.457196D-03 -0.478922D-01  0.266879D-01 -0.150570D-02 -0.166031D-02
     24  0.564343D-04  0.742151D-02 -0.201584D-02  0.128212D-03  0.472968D-03
     25  0.130429D-03  0.715666D-01 -0.572023D-02 -0.509949D-03 -0.475297D-03
     26  0.395214D-04  0.226023D-02  0.497569D-03  0.201990D-03 -0.147991D-04
     27  0.000000D+00  0.147562D-01  0.141985D-02  0.231380D-02  0.448765D-04
     28  0.277787D-04  0.321202D-02 -0.703959D-04 -0.110974D-03 -0.369397D-04
     29  0.191778D-02  0.145998D+01 -0.388316D-01 -0.131906D-02  0.140422D-01
     30  0.666857D-04 -0.247125D-01  0.884848D-02 -0.912212D-04 -0.692800D-03
     31  0.465986D-03  0.113432D+00  0.642545D-01  0.952042D-04  0.121848D-02
               21            22            23            24            25 
     21  0.123400D+11
     22  0.443737D+00  0.123400D+11
     23 -0.121266D-02  0.107756D+00  0.123400D+11
     24 -0.131278D-03  0.983356D-02  0.177919D+02  0.123400D+11
     25 -0.702749D-03 -0.338718D-03  0.170780D+02 -0.664742D+00  0.123400D+11
     26  0.142964D-04  0.378832D-03 -0.787573D+00  0.390329D+00  0.172632D+02
     27  0.913447D-05  0.364586D-02 -0.508457D+00  0.126173D+00  0.167217D+02
     28 -0.273443D-04 -0.587216D-03 -0.550421D+00  0.130288D+00  0.175823D+02
     29 -0.572166D-02  0.165221D+00  0.171723D+02 -0.681274D+00 -0.151897D-01
     30 -0.164009D-03 -0.306887D-02 -0.590998D+00  0.189795D+00  0.104296D+01
     31 -0.175325D-02 -0.705389D-02 -0.638400D+00  0.250072D-01  0.572210D+00
               26            27            28            29            30 
     26  0.123400D+11
     27 -0.760749D+00  0.123400D+11
     28 -0.762854D+00 -0.770501D+00  0.123400D+11
     29  0.420260D+00  0.221597D+00  0.130897D+01  0.123400D+11
     30 -0.167670D-01 -0.820205D-02  0.206353D-01  0.174623D+02  0.123400D+11
     31 -0.835100D-02 -0.330819D-02  0.292673D-01  0.172125D+02 -0.896078D+00
               31 
     31  0.123400D+11
 Fermi Contact (FC) contribution to J (Hz):
                1             2             3             4             5 
      1  0.243533D+11
      2  0.531262D+02  0.243533D+11
      3 -0.769403D+01  0.150126D+03  0.385007D+12
      4 -0.101741D+00  0.279444D+01 -0.175095D+00  0.243533D+11
      5  0.577764D-02  0.781456D+00  0.288946D-01  0.137431D+03  0.385007D+12
      6  0.421633D-01 -0.901648D-01  0.147468D-01  0.137346D+03 -0.237688D+02
      7  0.313566D-01 -0.118510D+00  0.751032D-02  0.134070D+03 -0.234782D+02
      8  0.103813D+02 -0.265929D+01 -0.155476D+01  0.345062D-01 -0.315079D-01
      9 -0.464910D-01  0.107459D+02 -0.131790D+01  0.276428D-01 -0.169787D-01
     10 -0.148647D+00  0.146752D+01  0.699798D+01 -0.303340D-01  0.314524D-01
     11  0.162939D+02  0.759008D+01  0.261710D+00  0.108759D-01  0.237764D-02
     12  0.362288D+01  0.867695D+00 -0.703012D+00 -0.222165D-01 -0.579518D-02
     13 -0.793970D+00  0.213357D+01 -0.381982D-01 -0.122449D-01 -0.109125D-02
     14  0.125533D+01 -0.664978D+00  0.579264D+00  0.457935D-03  0.637335D-02
     15  0.181266D+01 -0.612119D+00  0.298496D+00  0.376251D-02  0.504603D-02
     16  0.748017D+01 -0.184754D+00 -0.144439D-01  0.294154D-02  0.584500D-03
     17  0.322349D+00 -0.938034D+00  0.204457D+01  0.486566D-01  0.209982D-01
     18 -0.334959D+00  0.173615D+01 -0.581864D+00 -0.209712D-02 -0.174114D-02
     19 -0.180448D-01  0.835587D+00 -0.663525D-01  0.104359D-01  0.525237D-03
     20  0.540406D+00 -0.595423D-01  0.483801D+00  0.158078D-01  0.867118D-03
     21  0.589363D+00  0.552461D+00  0.571439D+00 -0.616962D-02 -0.907784D-03
     22 -0.486018D+00 -0.942089D+00 -0.956328D+00 -0.323221D-01 -0.148113D-01
     23  0.118050D+01 -0.974007D+00  0.829852D+01  0.337195D+02 -0.426468D+01
     24 -0.117323D+00  0.610409D+01 -0.329671D+00 -0.617418D+01  0.359899D+01
     25 -0.241899D-01  0.317018D+00  0.560367D-01  0.148367D+00  0.262286D+01
     26  0.885679D-01 -0.548357D-01  0.184856D-01  0.405431D+01 -0.116796D+00
     27  0.702513D-02 -0.193056D-01  0.215297D+00  0.110942D+02  0.157517D+00
     28 -0.139762D-02 -0.155497D+00  0.195793D+00  0.212751D+01 -0.228803D+00
     29 -0.695412D+00  0.325017D+02 -0.636214D+01  0.206980D+00  0.113607D+02
     30  0.853223D+01 -0.708379D+01  0.512302D+01  0.251997D+00 -0.341274D+00
     31  0.174540D+01 -0.366072D+01  0.395388D+01  0.823808D+01  0.117612D+01
                6             7             8             9            10 
      6  0.385007D+12
      7 -0.234893D+02  0.385007D+12
      8 -0.276954D-01 -0.135865D+00  0.708114D+10
      9 -0.326116D-02  0.654283D-01 -0.127562D+00  0.201170D+10
     10  0.331373D-03 -0.682855D-02 -0.144938D-01  0.709502D+02  0.385007D+12
     11  0.122342D-01 -0.546470D-02 -0.196395D+01  0.126026D+00  0.317920D+00
     12  0.924736D-02  0.548132D-02 -0.201830D+01  0.104128D+00 -0.291648D-01
     13 -0.120516D-01 -0.739639D-03 -0.660920D+00  0.148761D+00  0.595826D-01
     14  0.338984D-01 -0.188286D-03 -0.987081D+00 -0.210729D-01 -0.148570D-01
     15  0.122585D-01 -0.117176D-02 -0.104226D+01 -0.107358D-01 -0.257190D-01
     16  0.311207D-02 -0.151545D-03 -0.728886D+00  0.486140D-01 -0.298689D-01
     17 -0.780925D-03  0.356166D-01 -0.549542D-01  0.146310D+02  0.254825D+01
     18  0.213314D-03  0.295795D-02 -0.803788D-01  0.720589D+01  0.778700D+00
     19  0.234552D-02 -0.432820D-03 -0.531491D-03  0.794036D+00 -0.308315D+00
     20 -0.683671D-03 -0.126108D-02 -0.228566D-01  0.534318D+00 -0.136027D+00
     21 -0.669674D-03  0.259140D-02 -0.124563D-01  0.117332D+01 -0.558465D+00
     22 -0.210950D-02  0.336118D-02  0.255618D+00 -0.178608D+01 -0.182259D+01
     23 -0.446952D+01 -0.619692D+01 -0.686262D+00  0.413327D+00 -0.279504D+00
     24  0.516721D+01  0.125809D+02 -0.230470D+00  0.617189D-01 -0.262081D+00
     25  0.109195D+02  0.331919D+01 -0.303201D-01  0.279444D+00 -0.737878D+00
     26 -0.125103D+00 -0.449553D+00 -0.166267D+00  0.962914D-01 -0.584539D-01
     27  0.269584D+01 -0.323776D+00 -0.155630D-01  0.622047D+00 -0.116029D+01
     28  0.156724D+00 -0.177584D+00 -0.104682D-01  0.154389D-01 -0.791668D-01
     29  0.255835D+01  0.356768D+01 -0.198368D+00  0.383637D+00  0.339071D+01
     30 -0.414258D-01 -0.110528D+00 -0.417553D+00  0.933797D+00 -0.457437D+00
     31 -0.365276D+00 -0.268851D+00  0.657660D-01  0.427714D+01 -0.696958D+00
               11            12            13            14            15 
     11  0.201170D+10
     12  0.705125D+02  0.385007D+12
     13  0.969317D+01  0.256299D+01  0.243533D+11
     14 -0.126416D+01  0.207745D+01  0.154708D+03  0.385007D+12
     15 -0.130505D+01  0.475700D+01  0.159094D+03 -0.228427D+02  0.385007D+12
     16 -0.896864D+00  0.899058D+01  0.143192D+03 -0.228806D+02 -0.238052D+02
     17 -0.362704D-01  0.306332D-02 -0.172031D-01  0.837230D-02  0.408904D-02
     18  0.463360D-02  0.822984D-02  0.221560D-01  0.648348D-02  0.382650D-02
     19  0.102785D-01  0.149470D-02 -0.368303D-03 -0.720123D-03 -0.292752D-03
     20 -0.135332D-02 -0.524588D-02 -0.184345D-02  0.939940D-03 -0.944037D-03
     21  0.421732D-01 -0.210774D-02  0.207339D-01  0.169895D-02 -0.206993D-02
     22 -0.564242D-01  0.574781D-02 -0.104472D-01 -0.172111D-01 -0.787889D-02
     23 -0.298389D-01  0.549270D-01  0.205678D-01 -0.225669D-01 -0.203710D-01
     24  0.495778D-01 -0.238063D-01 -0.639288D-02  0.244312D-01  0.121656D-01
     25  0.425995D-02 -0.169103D-02 -0.417857D-02 -0.395972D-02  0.460808D-02
     26  0.238216D-02 -0.314789D-02  0.273240D-02  0.117507D-02  0.267088D-02
     27  0.142433D-02  0.132583D-02 -0.100349D-02  0.401377D-02  0.211019D-02
     28  0.796149D-02 -0.892720D-02 -0.313649D-02  0.369417D-02  0.106048D-01
     29  0.793136D-01 -0.274842D+00 -0.280731D+00  0.634130D+00  0.843777D+00
     30 -0.633167D-01 -0.193101D+00 -0.587847D-01  0.152388D+00  0.168000D+00
     31  0.146419D+00 -0.343359D+00 -0.290936D-01  0.413549D-01  0.421837D-01
               16            17            18            19            20 
     16  0.385007D+12
     17 -0.793123D-03  0.243533D+11
     18  0.136698D-02  0.539454D+02  0.243533D+11
     19  0.200577D-04 -0.599191D+01  0.133871D+03  0.385007D+12
     20  0.490579D-02 -0.937169D+01  0.139274D+03 -0.229588D+02  0.385007D+12
     21  0.116207D-01 -0.931768D+01  0.142194D+03 -0.228085D+02 -0.288125D+02
     22 -0.803270D-02  0.100373D+02 -0.400049D+01 -0.353146D+01 -0.185754D+01
     23  0.358757D-02 -0.945164D-01  0.526693D-01 -0.118151D-01 -0.130283D-01
     24  0.176075D-02  0.582359D-01 -0.158181D-01  0.400022D-02  0.147566D-01
     25  0.102346D-02  0.141239D+00 -0.112890D-01 -0.400152D-02 -0.372961D-02
     26  0.123306D-02  0.177358D-01  0.390438D-02  0.630208D-02 -0.461731D-03
     27 -0.153559D-04  0.115791D+00  0.111414D-01  0.721903D-01  0.140014D-02
     28  0.866695D-03  0.252044D-01 -0.552389D-03 -0.346239D-02 -0.115252D-02
     29  0.150487D-01  0.288131D+01 -0.766352D-01 -0.103505D-01  0.110188D+00
     30  0.208059D-02 -0.193917D+00  0.694332D-01 -0.284610D-02 -0.216153D-01
     31  0.145387D-01  0.890089D+00  0.504199D+00  0.297037D-02  0.380167D-01
               21            22            23            24            25 
     21  0.385007D+12
     22 -0.187757D+01  0.708114D+10
     23 -0.951564D-02 -0.114672D+00  0.243533D+11
     24 -0.409586D-02 -0.416085D-01  0.139611D+03  0.385007D+12
     25 -0.551440D-02  0.360457D-03  0.337039D+02 -0.521617D+01  0.243533D+11
     26  0.446047D-03 -0.160294D-02 -0.618001D+01  0.121782D+02  0.135462D+03
     27  0.284995D-03 -0.154266D-01 -0.398981D+01  0.393660D+01  0.131213D+03
     28 -0.853141D-03  0.248467D-02 -0.431910D+01  0.406497D+01  0.137967D+03
     29 -0.448973D-01 -0.175825D+00  0.338900D+02 -0.534589D+01 -0.299773D-01
     30 -0.511707D-02  0.129852D-01 -0.463750D+01  0.592160D+01  0.818399D+01
     31 -0.547013D-01  0.298470D-01 -0.500947D+01  0.780225D+00  0.449008D+01
               26            27            28            29            30 
     26  0.385007D+12
     27 -0.237353D+02  0.385007D+12
     28 -0.238010D+02 -0.240396D+02  0.385007D+12
     29  0.329774D+01  0.173885D+01  0.102713D+02  0.243533D+11
     30 -0.523130D+00 -0.255904D+00  0.643821D+00  0.137025D+03  0.385007D+12
     31 -0.260551D+00 -0.103215D+00  0.913138D+00  0.135065D+03 -0.279576D+02
               31 
     31  0.385007D+12
 End of Minotr F.D. properties file   721 does not exist.
 End of Minotr F.D. properties file   722 does not exist.
 End of Minotr F.D. properties file   788 does not exist.
 Leave Link 1002 at Wed Jun 18 22:03:45 2014, MaxMem=  4294967296 cpu:    367915.0
 (Enter /home/ztw1e12/g09/l601.exe)
 Copying SCF densities to generalized density rwf, IOpCl= 0 IROHF=0.

 **********************************************************************

            Population analysis using the SCF density.

 **********************************************************************

 Orbital symmetries:
       Occupied  (A) (A) (A) (A) (A) (A) (A) (A) (A) (A) (A) (A)
                 (A) (A) (A) (A) (A) (A) (A) (A) (A) (A) (A) (A)
                 (A) (A) (A) (A) (A) (A) (A) (A) (A) (A) (A) (A)
                 (A) (A) (A) (A) (A) (A) (A) (A) (A) (A) (A) (A)
                 (A) (A) (A)
       Virtual   (A) (A) (A) (A) (A) (A) (A) (A) (A) (A) (A) (A)
                 (A) (A) (A) (A) (A) (A) (A) (A) (A) (A) (A) (A)
                 (A) (A) (A) (A) (A) (A) (A) (A) (A) (A) (A) (A)
                 (A) (A) (A) (A) (A) (A) (A) (A) (A) (A) (A) (A)
                 (A) (A) (A) (A) (A) (A) (A) (A) (A) (A) (A) (A)
                 (A) (A) (A) (A) (A) (A) (A) (A) (A) (A) (A) (A)
                 (A) (A) (A) (A) (A) (A) (A) (A) (A) (A) (A) (A)
                 (A) (A) (A) (A) (A) (A) (A) (A) (A) (A) (A) (A)
                 (A) (A) (A) (A) (A) (A) (A) (A) (A) (A) (A) (A)
                 (A) (A) (A) (A) (A) (A) (A) (A) (A) (A) (A) (A)
                 (A) (A) (A) (A) (A) (A) (A) (A) (A) (A) (A) (A)
                 (A) (A) (A) (A) (A) (A) (A) (A) (A) (A) (A) (A)
                 (A) (A) (A) (A) (A) (A) (A) (A) (A) (A) (A) (A)
                 (A) (A) (A) (A) (A) (A) (A) (A) (A) (A) (A) (A)
                 (A) (A) (A) (A) (A) (A) (A) (A) (A) (A) (A) (A)
                 (A) (A) (A) (A) (A) (A) (A) (A) (A) (A) (A) (A)
                 (A) (A) (A) (A) (A) (A) (A) (A) (A) (A) (A) (A)
                 (A) (A) (A) (A) (A) (A) (A) (A) (A) (A) (A) (A)
                 (A) (A) (A) (A) (A) (A) (A) (A) (A) (A) (A) (A)
                 (A) (A) (A) (A) (A) (A) (A) (A) (A) (A) (A) (A)
                 (A) (A) (A) (A) (A) (A) (A) (A) (A) (A) (A) (A)
                 (A) (A) (A) (A) (A) (A) (A) (A) (A) (A) (A) (A)
                 (A) (A) (A) (A) (A) (A) (A) (A) (A) (A) (A) (A)
                 (A) (A) (A) (A) (A) (A) (A) (A) (A) (A) (A) (A)
                 (A) (A) (A) (A) (A) (A) (A) (A) (A) (A) (A) (A)
                 (A) (A) (A) (A) (A) (A) (A) (A) (A) (A) (A) (A)
                 (A) (A) (A) (A) (A) (A) (A) (A) (A) (A) (A) (A)
                 (A) (A) (A) (A) (A) (A) (A) (A) (A) (A) (A) (A)
                 (A) (A) (A) (A) (A) (A) (A) (A) (A) (A) (A) (A)
                 (A) (A) (A) (A) (A) (A) (A) (A) (A) (A) (A) (A)
                 (A) (A) (A) (A) (A) (A) (A) (A) (A) (A) (A) (A)
                 (A) (A) (A) (A) (A) (A) (A) (A) (A) (A) (A) (A)
                 (A) (A) (A) (A) (A) (A) (A) (A) (A) (A) (A) (A)
                 (A) (A) (A) (A) (A) (A) (A) (A) (A) (A) (A) (A)
                 (A) (A) (A) (A) (A) (A) (A) (A) (A) (A) (A) (A)
                 (A) (A) (A) (A) (A) (A) (A) (A) (A) (A) (A) (A)
                 (A) (A) (A) (A) (A) (A) (A) (A) (A) (A) (A) (A)
                 (A) (A) (A) (A) (A) (A) (A) (A) (A) (A) (A) (A)
                 (A) (A) (A) (A) (A) (A) (A) (A) (A) (A) (A) (A)
                 (A) (A) (A) (A) (A) (A) (A) (A) (A) (A) (A) (A)
                 (A) (A) (A) (A) (A) (A) (A) (A) (A) (A) (A) (A)
                 (A) (A) (A) (A) (A) (A) (A) (A) (A) (A) (A) (A)
                 (A) (A) (A) (A) (A) (A) (A) (A) (A) (A) (A) (A)
                 (A) (A) (A) (A) (A) (A) (A) (A) (A) (A) (A) (A)
                 (A) (A) (A) (A) (A) (A) (A) (A) (A) (A) (A) (A)
                 (A) (A) (A) (A) (A) (A) (A) (A) (A) (A) (A) (A)
                 (A) (A) (A) (A) (A) (A) (A) (A) (A) (A) (A) (A)
                 (A) (A) (A) (A) (A) (A) (A) (A) (A) (A) (A) (A)
                 (A) (A) (A) (A) (A) (A) (A) (A) (A) (A) (A) (A)
                 (A) (A) (A) (A) (A) (A) (A) (A) (A) (A) (A) (A)
                 (A) (A) (A) (A) (A) (A) (A) (A) (A) (A) (A) (A)
                 (A) (A) (A) (A) (A) (A) (A) (A) (A) (A) (A) (A)
                 (A) (A) (A) (A) (A) (A) (A) (A) (A) (A) (A) (A)
                 (A) (A) (A) (A) (A) (A) (A) (A) (A) (A) (A) (A)
                 (A) (A) (A) (A) (A) (A) (A) (A) (A) (A) (A) (A)
                 (A) (A) (A) (A) (A) (A) (A) (A) (A) (A) (A) (A)
                 (A) (A) (A) (A) (A) (A) (A) (A) (A) (A) (A) (A)
                 (A) (A) (A) (A) (A) (A) (A) (A) (A) (A) (A) (A)
                 (A) (A) (A) (A) (A) (A) (A) (A) (A) (A) (A) (A)
                 (A) (A) (A) (A) (A) (A) (A) (A) (A) (A) (A) (A)
                 (A) (A) (A) (A) (A) (A) (A) (A) (A) (A) (A) (A)
                 (A) (A) (A) (A) (A) (A) (A) (A) (A) (A) (A) (A)
                 (A) (A) (A) (A) (A) (A) (A) (A) (A) (A) (A) (A)
                 (A) (A) (A) (A) (A) (A) (A) (A) (A) (A) (A) (A)
                 (A) (A) (A) (A) (A) (A) (A) (A) (A) (A) (A) (A)
                 (A) (A) (A) (A) (A) (A) (A) (A) (A) (A) (A) (A)
                 (A) (A) (A) (A) (A) (A) (A) (A) (A) (A) (A) (A)
                 (A) (A) (A) (A) (A) (A) (A) (A) (A) (A) (A) (A)
                 (A) (A) (A) (A) (A) (A) (A) (A) (A) (A) (A) (A)
                 (A) (A) (A) (A) (A) (A) (A) (A) (A) (A) (A) (A)
                 (A) (A) (A) (A) (A) (A) (A) (A) (A) (A) (A) (A)
                 (A) (A) (A) (A) (A) (A) (A) (A) (A) (A) (A) (A)
                 (A) (A) (A) (A) (A) (A) (A) (A) (A) (A) (A) (A)
                 (A) (A) (A) (A) (A)
 The electronic state is 1-A.
 Alpha  occ. eigenvalues --  -19.17227 -19.16405 -14.41897 -14.41284 -10.33413
 Alpha  occ. eigenvalues --  -10.33272 -10.29107 -10.27178 -10.25502 -10.25252
 Alpha  occ. eigenvalues --  -10.24008 -10.23680 -10.23502  -1.05400  -1.04055
 Alpha  occ. eigenvalues --   -0.94329  -0.94163  -0.83949  -0.78668  -0.74308
 Alpha  occ. eigenvalues --   -0.72002  -0.70608  -0.65939  -0.60507  -0.59835
 Alpha  occ. eigenvalues --   -0.58811  -0.54845  -0.50636  -0.49542  -0.48290
 Alpha  occ. eigenvalues --   -0.46944  -0.46285  -0.45437  -0.45178  -0.44624
 Alpha  occ. eigenvalues --   -0.43136  -0.41626  -0.41106  -0.40574  -0.40269
 Alpha  occ. eigenvalues --   -0.40185  -0.38149  -0.37770  -0.36432  -0.35424
 Alpha  occ. eigenvalues --   -0.34721  -0.34124  -0.28273  -0.27532  -0.26240
 Alpha  occ. eigenvalues --   -0.25896
 Alpha virt. eigenvalues --    0.01217   0.02335   0.02584   0.03658   0.04332
 Alpha virt. eigenvalues --    0.04962   0.06723   0.07103   0.07464   0.08458
 Alpha virt. eigenvalues --    0.09933   0.10474   0.10747   0.11267   0.12036
 Alpha virt. eigenvalues --    0.12396   0.12788   0.13467   0.13648   0.14359
 Alpha virt. eigenvalues --    0.16304   0.16548   0.18048   0.18843   0.19588
 Alpha virt. eigenvalues --    0.20453   0.22810   0.23316   0.23874   0.24514
 Alpha virt. eigenvalues --    0.25573   0.26080   0.26703   0.27017   0.27490
 Alpha virt. eigenvalues --    0.28592   0.29587   0.30345   0.31041   0.31775
 Alpha virt. eigenvalues --    0.32296   0.33580   0.34437   0.34669   0.36082
 Alpha virt. eigenvalues --    0.36965   0.37758   0.38479   0.38687   0.38845
 Alpha virt. eigenvalues --    0.39827   0.39991   0.40577   0.40959   0.41197
 Alpha virt. eigenvalues --    0.41365   0.41705   0.41764   0.41933   0.42592
 Alpha virt. eigenvalues --    0.43421   0.43776   0.44312   0.44709   0.45551
 Alpha virt. eigenvalues --    0.45849   0.46481   0.46997   0.48527   0.49017
 Alpha virt. eigenvalues --    0.49685   0.50130   0.51328   0.52288   0.52488
 Alpha virt. eigenvalues --    0.53437   0.53887   0.54255   0.55268   0.56105
 Alpha virt. eigenvalues --    0.56840   0.58293   0.60094   0.60628   0.60815
 Alpha virt. eigenvalues --    0.62207   0.63653   0.64717   0.65475   0.66784
 Alpha virt. eigenvalues --    0.68918   0.70513   0.71373   0.73144   0.73741
 Alpha virt. eigenvalues --    0.74623   0.75913   0.76921   0.77611   0.77985
 Alpha virt. eigenvalues --    0.78930   0.80151   0.81212   0.82417   0.82620
 Alpha virt. eigenvalues --    0.84346   0.84864   0.85535   0.86625   0.87276
 Alpha virt. eigenvalues --    0.87879   0.88721   0.89529   0.90384   0.90823
 Alpha virt. eigenvalues --    0.91628   0.92266   0.93649   0.93945   0.94758
 Alpha virt. eigenvalues --    0.94948   0.95906   0.96162   0.96815   0.97564
 Alpha virt. eigenvalues --    0.98672   0.98948   0.99494   1.00353   1.00881
 Alpha virt. eigenvalues --    1.02004   1.03039   1.03799   1.04160   1.04979
 Alpha virt. eigenvalues --    1.05473   1.07387   1.07916   1.09426   1.10450
 Alpha virt. eigenvalues --    1.11378   1.12826   1.13694   1.13949   1.14509
 Alpha virt. eigenvalues --    1.15528   1.15769   1.16609   1.17591   1.18166
 Alpha virt. eigenvalues --    1.19008   1.19493   1.20140   1.20496   1.21171
 Alpha virt. eigenvalues --    1.21535   1.21923   1.22373   1.22853   1.23282
 Alpha virt. eigenvalues --    1.23916   1.24463   1.25452   1.25570   1.25876
 Alpha virt. eigenvalues --    1.26777   1.27134   1.27499   1.28448   1.29026
 Alpha virt. eigenvalues --    1.29642   1.30855   1.31613   1.32361   1.32452
 Alpha virt. eigenvalues --    1.33064   1.33895   1.34395   1.35404   1.37071
 Alpha virt. eigenvalues --    1.37542   1.38681   1.39033   1.40595   1.42532
 Alpha virt. eigenvalues --    1.43368   1.44455   1.45988   1.47586   1.47869
 Alpha virt. eigenvalues --    1.49443   1.50463   1.51931   1.53222   1.55632
 Alpha virt. eigenvalues --    1.56039   1.57117   1.59965   1.62118   1.63784
 Alpha virt. eigenvalues --    1.64653   1.67505   1.68928   1.69312   1.73148
 Alpha virt. eigenvalues --    1.73465   1.75034   1.76845   1.79367   1.81769
 Alpha virt. eigenvalues --    1.84349   1.87217   1.88175   1.90683   1.92126
 Alpha virt. eigenvalues --    1.92986   1.94823   1.97509   1.98209   1.99442
 Alpha virt. eigenvalues --    2.00037   2.01325   2.03199   2.04524   2.07221
 Alpha virt. eigenvalues --    2.07706   2.08713   2.10209   2.13026   2.16223
 Alpha virt. eigenvalues --    2.16527   2.18528   2.19809   2.19965   2.21484
 Alpha virt. eigenvalues --    2.22890   2.24726   2.26257   2.27537   2.30479
 Alpha virt. eigenvalues --    2.30630   2.33361   2.34582   2.38021   2.39418
 Alpha virt. eigenvalues --    2.39938   2.40763   2.41850   2.43410   2.43945
 Alpha virt. eigenvalues --    2.44693   2.44909   2.46594   2.47054   2.50026
 Alpha virt. eigenvalues --    2.51552   2.52281   2.52710   2.54713   2.54842
 Alpha virt. eigenvalues --    2.55581   2.56315   2.57230   2.60328   2.62626
 Alpha virt. eigenvalues --    2.63039   2.65662   2.67446   2.68156   2.69329
 Alpha virt. eigenvalues --    2.70748   2.71140   2.71472   2.72190   2.72519
 Alpha virt. eigenvalues --    2.74305   2.74522   2.75248   2.75488   2.78025
 Alpha virt. eigenvalues --    2.78712   2.80135   2.80927   2.81197   2.83719
 Alpha virt. eigenvalues --    2.84185   2.84873   2.85182   2.86666   2.87052
 Alpha virt. eigenvalues --    2.87808   2.88356   2.88566   2.88920   2.91250
 Alpha virt. eigenvalues --    2.91880   2.92148   2.93388   2.93774   2.94912
 Alpha virt. eigenvalues --    2.95242   2.96043   2.96468   2.97304   2.97385
 Alpha virt. eigenvalues --    2.98952   2.99624   3.00275   3.01088   3.02241
 Alpha virt. eigenvalues --    3.02562   3.03748   3.04997   3.05093   3.06193
 Alpha virt. eigenvalues --    3.07503   3.08204   3.08514   3.09473   3.10125
 Alpha virt. eigenvalues --    3.11357   3.11867   3.13376   3.14544   3.15167
 Alpha virt. eigenvalues --    3.15865   3.16791   3.18374   3.19433   3.20137
 Alpha virt. eigenvalues --    3.21557   3.21880   3.22427   3.23660   3.24395
 Alpha virt. eigenvalues --    3.24995   3.25541   3.26018   3.26649   3.28123
 Alpha virt. eigenvalues --    3.28445   3.28942   3.29533   3.30387   3.31475
 Alpha virt. eigenvalues --    3.32811   3.33024   3.34286   3.34514   3.35157
 Alpha virt. eigenvalues --    3.36647   3.37305   3.38165   3.38872   3.39399
 Alpha virt. eigenvalues --    3.40143   3.41450   3.41729   3.42331   3.43250
 Alpha virt. eigenvalues --    3.43659   3.44650   3.45212   3.45791   3.46983
 Alpha virt. eigenvalues --    3.47637   3.48754   3.49815   3.51146   3.53922
 Alpha virt. eigenvalues --    3.54628   3.55494   3.56738   3.57178   3.59518
 Alpha virt. eigenvalues --    3.60260   3.61616   3.63731   3.64321   3.65623
 Alpha virt. eigenvalues --    3.66714   3.67660   3.69066   3.69751   3.71078
 Alpha virt. eigenvalues --    3.71874   3.72834   3.73122   3.74479   3.75140
 Alpha virt. eigenvalues --    3.76295   3.77236   3.77808   3.79007   3.79742
 Alpha virt. eigenvalues --    3.80439   3.82062   3.83595   3.83855   3.84490
 Alpha virt. eigenvalues --    3.85081   3.86026   3.86592   3.88161   3.88399
 Alpha virt. eigenvalues --    3.90132   3.92300   3.92625   3.94083   3.94455
 Alpha virt. eigenvalues --    3.96247   3.97117   3.98104   3.99240   3.99708
 Alpha virt. eigenvalues --    4.00233   4.01537   4.02636   4.03268   4.05560
 Alpha virt. eigenvalues --    4.06290   4.06824   4.06922   4.08235   4.08900
 Alpha virt. eigenvalues --    4.10369   4.11955   4.12609   4.12713   4.14416
 Alpha virt. eigenvalues --    4.15342   4.16144   4.16582   4.17841   4.19132
 Alpha virt. eigenvalues --    4.20445   4.21399   4.22033   4.23473   4.24894
 Alpha virt. eigenvalues --    4.25314   4.26611   4.26937   4.27937   4.29012
 Alpha virt. eigenvalues --    4.29525   4.30146   4.30642   4.33141   4.33873
 Alpha virt. eigenvalues --    4.35522   4.38182   4.40017   4.41984   4.43113
 Alpha virt. eigenvalues --    4.43211   4.45590   4.47763   4.48601   4.49229
 Alpha virt. eigenvalues --    4.50316   4.51316   4.54130   4.54666   4.55560
 Alpha virt. eigenvalues --    4.56522   4.58862   4.59697   4.60360   4.61118
 Alpha virt. eigenvalues --    4.62082   4.62660   4.64326   4.64723   4.65923
 Alpha virt. eigenvalues --    4.67574   4.68323   4.69804   4.70566   4.71636
 Alpha virt. eigenvalues --    4.71870   4.73548   4.74306   4.75838   4.77908
 Alpha virt. eigenvalues --    4.78280   4.78794   4.80328   4.80787   4.81413
 Alpha virt. eigenvalues --    4.83977   4.86341   4.87991   4.90129   4.92127
 Alpha virt. eigenvalues --    4.93106   4.93949   4.95010   4.95292   4.96077
 Alpha virt. eigenvalues --    4.97793   4.99697   5.00688   5.01081   5.01819
 Alpha virt. eigenvalues --    5.02676   5.03693   5.04869   5.07411   5.09874
 Alpha virt. eigenvalues --    5.10225   5.11606   5.13486   5.14752   5.15189
 Alpha virt. eigenvalues --    5.15660   5.16869   5.17997   5.19060   5.19918
 Alpha virt. eigenvalues --    5.21053   5.22857   5.23517   5.23815   5.24716
 Alpha virt. eigenvalues --    5.25291   5.26010   5.27389   5.29092   5.30198
 Alpha virt. eigenvalues --    5.30686   5.33100   5.36660   5.37684   5.38714
 Alpha virt. eigenvalues --    5.39900   5.44182   5.44726   5.45461   5.49657
 Alpha virt. eigenvalues --    5.52181   5.52818   5.55519   5.57084   5.59449
 Alpha virt. eigenvalues --    5.60465   5.63032   5.63864   5.64723   5.65429
 Alpha virt. eigenvalues --    5.67853   5.68586   5.68909   5.70797   5.72743
 Alpha virt. eigenvalues --    5.73561   5.74749   5.75197   5.76923   5.78111
 Alpha virt. eigenvalues --    5.78998   5.80356   5.83158   5.85538   5.86607
 Alpha virt. eigenvalues --    5.90281   5.95527   5.96613   6.02322   6.05442
 Alpha virt. eigenvalues --    6.12397   6.19148   6.21580   6.23273   6.26722
 Alpha virt. eigenvalues --    6.51877   6.52925   6.57734   6.61114   6.64427
 Alpha virt. eigenvalues --    6.65478   6.77333   6.82160   6.90126   6.91694
 Alpha virt. eigenvalues --    6.93225   6.94223   7.17905   7.19770   7.24178
 Alpha virt. eigenvalues --    7.26874   8.13958   8.26971   8.66363   8.73409
 Alpha virt. eigenvalues --    8.78333   8.78560   8.81557   8.82762   8.83216
 Alpha virt. eigenvalues --    8.84734   8.85881   8.88577   8.90488   8.92838
 Alpha virt. eigenvalues --    8.93597   8.94897   8.96335   8.97666   9.01231
 Alpha virt. eigenvalues --    9.04038   9.06242   9.10780   9.14398   9.19108
 Alpha virt. eigenvalues --    9.23557   9.59932   9.61905   9.77197   9.83562
 Alpha virt. eigenvalues --    9.88173   9.94678  10.10404  10.11631  10.15147
 Alpha virt. eigenvalues --   10.17919  10.18819  10.20863  10.21929  10.22657
 Alpha virt. eigenvalues --   10.24938  10.28343  10.30066  10.30529  10.36711
 Alpha virt. eigenvalues --   10.38518  11.75024  11.81457  12.03840  12.13989
 Alpha virt. eigenvalues --   12.16629  12.18135  12.21678  12.24740  12.31555
 Alpha virt. eigenvalues --   12.38542  12.44629  12.55441  12.60130  12.83583
 Alpha virt. eigenvalues --   12.93091  14.97350  15.01766  15.23997  15.26690
 Alpha virt. eigenvalues --   15.99758  16.03920  16.84260  16.89643  22.00897
 Alpha virt. eigenvalues --   22.09455  40.17587  40.25317  40.66515  40.68763
 Alpha virt. eigenvalues --   40.70232  40.72199  40.73609  40.75577  40.76275
 Alpha virt. eigenvalues --   40.77864  40.79683  40.80074  40.82085  40.82347
 Alpha virt. eigenvalues --   40.83436  40.84020  40.84301  40.85019  40.85286
 Alpha virt. eigenvalues --   40.86357  40.87795  40.88825  40.89918  40.90577
 Alpha virt. eigenvalues --   40.91180  40.93987  40.96908  46.33940  46.44606
 Alpha virt. eigenvalues --   46.49097  46.49639  46.53871  46.57175  46.64012
 Alpha virt. eigenvalues --   46.73650  46.77067  54.44997  54.50966  55.76044
 Alpha virt. eigenvalues --   55.83740  55.94839  55.97167  56.06767  56.15473
 Alpha virt. eigenvalues --   56.17236  56.22041  56.24698  56.31271  56.38204
 Alpha virt. eigenvalues --   56.42684  56.44661  56.47098  56.53613  56.55239
 Alpha virt. eigenvalues --   57.46055  57.50235  57.99107  58.03124  58.19364
 Alpha virt. eigenvalues --   58.25735  64.71424  64.76466  73.94384  73.96851
 Alpha virt. eigenvalues --   74.09806  74.10873  74.63924  74.66023  86.06731
 Alpha virt. eigenvalues --   86.14355 165.43243 165.52555 165.57477 165.58531
 Alpha virt. eigenvalues --  165.62468 165.64838 165.70357 165.79294 165.82365
 Alpha virt. eigenvalues --  226.54507 226.72821 230.58542 230.63282 235.44320
 Alpha virt. eigenvalues --  235.80326 236.18805 236.25117 236.50177 236.55145
 Alpha virt. eigenvalues --  237.13271 237.35336 237.48293 237.56066 237.71501
 Alpha virt. eigenvalues --  237.91945 237.94614 238.01632 238.13878 238.57845
 Alpha virt. eigenvalues --  308.80362 308.87152 624.54751 624.60624 624.63879
 Alpha virt. eigenvalues --  624.66637 624.67732 624.71131 624.76009 624.83038
 Alpha virt. eigenvalues --  624.84583 794.42773 794.48564 825.61992 827.09107
 Alpha virt. eigenvalues --  827.11795 827.87432 827.96373 828.30563 830.34748
 Alpha virt. eigenvalues --  830.90065 830.96968 831.31789 831.93083 832.39506
 Alpha virt. eigenvalues --  832.42574 832.70538 832.94208 834.58584 868.34352
 Alpha virt. eigenvalues --  868.395381165.930891165.993942485.189992486.19276
 Alpha virt. eigenvalues -- 2587.398742589.452582593.921012594.239632595.63814
 Alpha virt. eigenvalues -- 2598.258052601.761272603.626322604.073962605.31329
 Alpha virt. eigenvalues -- 2607.337372607.417272608.120112609.318822610.79373
 Alpha virt. eigenvalues -- 2614.556022740.322272740.339182740.375402740.40845
 Alpha virt. eigenvalues -- 2740.432222740.508342740.524232740.546132740.55451
 Alpha virt. eigenvalues -- 3787.318753787.375805073.312345073.369488290.01903
 Alpha virt. eigenvalues -- 8295.590808624.974528633.033048637.075478640.00040
 Alpha virt. eigenvalues -- 8643.297298643.969228661.208118662.352938666.58864
 Alpha virt. eigenvalues -- 8669.954938675.311358677.727638678.520398679.48802
 Alpha virt. eigenvalues -- 8683.060638696.68815******************************
 Alpha virt. eigenvalues -- **************************************************
 Alpha virt. eigenvalues -- **************************************************
 Alpha virt. eigenvalues -- **************************************************
 Alpha virt. eigenvalues -- **************************************************
 Alpha virt. eigenvalues -- **************************************************
 Alpha virt. eigenvalues -- **************************************************
 Alpha virt. eigenvalues -- **************************************************
 Alpha virt. eigenvalues -- **********
          Condensed to atoms (all electrons):
               1          2          3          4          5          6
     1  C    4.636940   0.199617  -0.055369   0.000335  -0.000030  -0.000476
     2  C    0.199617   5.238891   0.387418   0.000208  -0.000466  -0.001286
     3  H   -0.055369   0.387418   0.502628  -0.000082   0.000028  -0.000048
     4  C    0.000335   0.000208  -0.000082   4.964855   0.406268   0.396886
     5  H   -0.000030  -0.000466   0.000028   0.406268   0.540990  -0.008634
     6  H   -0.000476  -0.001286  -0.000048   0.396886  -0.008634   0.548969
     7  H    0.000009   0.001534  -0.000023   0.404913  -0.023585  -0.024775
     8  O    0.709039  -0.096783   0.004350   0.000459   0.000047  -0.000300
     9  N   -0.067106   0.319801  -0.030119   0.000464   0.000001   0.000040
    10  H   -0.006264  -0.033860   0.006824   0.000353   0.000035   0.000006
    11  N    0.329423  -0.123392   0.007116  -0.001744  -0.000030   0.002266
    12  H   -0.021235   0.011846   0.000292  -0.000022  -0.000002   0.000104
    13  C   -0.051369   0.010470  -0.001193  -0.000025  -0.000001   0.000071
    14  H   -0.000931   0.001405   0.000089   0.000355   0.000010  -0.000232
    15  H   -0.006353  -0.000715  -0.000298  -0.000021  -0.000001   0.000041
    16  H    0.006691   0.000562  -0.000157   0.000002   0.000000  -0.000022
    17  C    0.000055  -0.051412   0.000418   0.000011  -0.000001   0.000003
    18  C   -0.005254   0.017580   0.001722  -0.000001   0.000000   0.000000
    19  H    0.000632  -0.000666  -0.000393   0.000000   0.000000   0.000000
    20  H   -0.000084  -0.000583   0.000160   0.000000   0.000000   0.000000
    21  H    0.000765  -0.000693  -0.000192   0.000000   0.000000   0.000000
    22  O   -0.005705   0.019627   0.018095   0.000001   0.000000   0.000000
    23  C   -0.015024  -0.012047   0.010675   0.338030  -0.036746  -0.037580
[...]
 Alpha virt. eigenvalues --    4.37671   4.39386   4.39698   4.40856   4.44157
 Alpha virt. eigenvalues --    4.46042   4.48931   4.50153   4.51519   4.52681
 Alpha virt. eigenvalues --    4.53813   4.55847   4.56531   4.57236   4.59866
 Alpha virt. eigenvalues --    4.60907   4.63413   4.64872   4.65751   4.68995
 Alpha virt. eigenvalues --    4.69114   4.70299   4.70673   4.71693   4.72646
 Alpha virt. eigenvalues --    4.73633   4.74529   4.76059   4.77228   4.78211
 Alpha virt. eigenvalues --    4.79628   4.80523   4.81735   4.83801   4.84132
 Alpha virt. eigenvalues --    4.85009   4.86485   4.86891   4.88309   4.89637
 Alpha virt. eigenvalues --    4.91696   4.92985   4.93500   4.95350   4.96206
 Alpha virt. eigenvalues --    4.97280   4.99403   4.99464   5.01458   5.02075
 Alpha virt. eigenvalues --    5.02627   5.03272   5.04504   5.05069   5.06682
 Alpha virt. eigenvalues --    5.07192   5.07856   5.10255   5.11510   5.13180
 Alpha virt. eigenvalues --    5.13894   5.14358   5.16051   5.16091   5.17694
 Alpha virt. eigenvalues --    5.18727   5.19104   5.20250   5.22065   5.22821
 Alpha virt. eigenvalues --    5.23333   5.24133   5.24514   5.27114   5.27253
 Alpha virt. eigenvalues --    5.28409   5.28818   5.30098   5.31981   5.33016
 Alpha virt. eigenvalues --    5.34174   5.34757   5.36736   5.38118   5.40166
 Alpha virt. eigenvalues --    5.43024   5.46126   5.47553   5.50383   5.54137
 Alpha virt. eigenvalues --    5.57417   5.58683   5.62024   5.62885   5.70237
 Alpha virt. eigenvalues --    5.72645   5.74801   5.76424   5.78330   5.78937
 Alpha virt. eigenvalues --    5.80219   5.81438   5.82680   5.82889   5.85189
 Alpha virt. eigenvalues --    5.87404   5.88218   5.88957   5.91521   5.98007
 Alpha virt. eigenvalues --    5.98320   6.01664   6.03188   6.06215   6.07839
 Alpha virt. eigenvalues --    6.22332   6.26766   6.35301   6.39629   6.49126
 Alpha virt. eigenvalues --    6.51827   6.53342   6.57498   6.66131   6.68348
 Alpha virt. eigenvalues --    6.88175   6.89419   6.92223   6.95067   7.09367
 Alpha virt. eigenvalues --    7.13701   7.16176   7.17745   9.42588   9.92048
 Alpha virt. eigenvalues --   11.73765  12.14486  12.35831  12.69076  12.97183
 Alpha virt. eigenvalues --   13.43610  13.51640  13.61408  13.66635  13.77532
 Alpha virt. eigenvalues --   13.92926
          Condensed to atoms (all electrons):
               1          2          3          4          5          6
     1  C    4.792447   0.169404  -0.059743  -0.000288   0.000026  -0.000308
     2  C    0.169404   5.358748   0.431028   0.001329  -0.000705  -0.001304
     3  H   -0.059743   0.431028   0.457756   0.000021   0.000019  -0.000052
     4  C   -0.000288   0.001329   0.000021   5.103505   0.411189   0.395746
     5  H    0.000026  -0.000705   0.000019   0.411189   0.532608  -0.014389
     6  H   -0.000308  -0.001304  -0.000052   0.395746  -0.014389   0.546807
     7  H   -0.000008   0.001950  -0.000018   0.404327  -0.029839  -0.031052
     8  O    0.704287  -0.090532   0.002478   0.000489   0.000040  -0.000311
     9  N   -0.068606   0.269598  -0.034025   0.000310   0.000016   0.000038
    10  H   -0.004313  -0.032594   0.004214   0.000440   0.000028  -0.000005
    11  N    0.335350  -0.096712   0.002278  -0.001803  -0.000028   0.002342
    12  H   -0.019392   0.009253  -0.000655  -0.000005  -0.000002   0.000100
    13  C   -0.066143   0.009852  -0.000980  -0.000019  -0.000001   0.000028
    14  H   -0.001352   0.001249   0.000104   0.000381   0.000009  -0.000288
    15  H   -0.006534  -0.000650  -0.000295  -0.000021  -0.000001   0.000043
    16  H    0.007203   0.000551  -0.000110   0.000002   0.000000  -0.000023
    17  C   -0.000631  -0.061701   0.000087   0.000021  -0.000002   0.000003
    18  C   -0.003806   0.014249   0.001603   0.000000   0.000000   0.000000
    19  H    0.000445   0.000209  -0.000352   0.000000   0.000000   0.000000
    20  H   -0.000125  -0.000548   0.000144   0.000000   0.000000   0.000000
    21  H    0.000724  -0.000701  -0.000167   0.000000   0.000000   0.000000
    22  O   -0.002783   0.018209   0.017270   0.000001   0.000000   0.000000
    23  C   -0.018552  -0.012057   0.009617   0.273898  -0.038546  -0.034788
    24  H   -0.002434   0.002912   0.001171  -0.027122  -0.004579  -0.007631
    25  C    0.000551   0.000933  -0.000760  -0.072447  -0.006278   0.009084
    26  H   -0.000195   0.002166   0.000052  -0.008655  -0.000740   0.000013
    27  H    0.000919  -0.002383  -0.000354   0.007949   0.000015  -0.000412
    28  H    0.000058  -0.000690   0.000020  -0.007140   0.003833  -0.000016
    29  C   -0.043907   0.207693  -0.032805  -0.046359   0.009419  -0.001997
    30  H    0.008806  -0.024007  -0.007980  -0.001713  -0.000338   0.000712
    31  H    0.001993  -0.041019  -0.008381  -0.009954   0.000533   0.000219
               7          8          9         10         11         12
     1  C   -0.000008   0.704287  -0.068606  -0.004313   0.335350  -0.019392
     2  C    0.001950  -0.090532   0.269598  -0.032594  -0.096712   0.009253
     3  H   -0.000018   0.002478  -0.034025   0.004214   0.002278  -0.000655
     4  C    0.404327   0.000489   0.000310   0.000440  -0.001803  -0.000005
     5  H   -0.029839   0.000040   0.000016   0.000028  -0.000028  -0.000002
     6  H   -0.031052  -0.000311   0.000038  -0.000005   0.002342   0.000100
     7  H    0.554982  -0.000017  -0.000056  -0.000019  -0.000035   0.000010
     8  O   -0.000017   7.850654   0.003748   0.003166  -0.121899   0.005199
     9  N   -0.000056   0.003748   6.555055   0.393935   0.007317   0.000622
    10  H   -0.000019   0.003166   0.393935   0.474232   0.000486  -0.000031
    11  N   -0.000035  -0.121899   0.007317   0.000486   6.433196   0.380256
    12  H    0.000010   0.005199   0.000622  -0.000031   0.380256   0.535320
    13  C    0.000002   0.005718  -0.000320  -0.000014   0.300603  -0.032950
    14  H   -0.000006   0.004373  -0.000036  -0.000010  -0.053163   0.003094
    15  H    0.000000   0.006268  -0.000055   0.000001  -0.043509   0.002491
    16  H    0.000001   0.001357   0.000009  -0.000001  -0.026987  -0.007999
    17  C    0.000003   0.011977   0.321030  -0.019156  -0.001587  -0.000026
    18  C    0.000000  -0.000486  -0.065220  -0.004730  -0.000121   0.000000
    19  H    0.000000  -0.000103   0.013261  -0.001805   0.000008   0.000001
    20  H    0.000000   0.000038  -0.001207   0.001343   0.000005   0.000000
    21  H    0.000000   0.000210  -0.000198  -0.000533  -0.000004  -0.000002
    22  O    0.000000  -0.002595  -0.139154   0.002982  -0.003143  -0.000218
    23  C   -0.037585  -0.005419  -0.005416   0.007510  -0.001402   0.000632
    24  H    0.006517   0.018504   0.000863   0.000753   0.000418  -0.000250
    25  C   -0.009346  -0.000313  -0.002604  -0.001629  -0.000048   0.000012
    26  H    0.004663  -0.000016  -0.000259  -0.000001  -0.000003   0.000004
    27  H   -0.000020  -0.000232   0.000477   0.002072  -0.000057  -0.000002
    28  H   -0.000303  -0.000002   0.000106   0.000336   0.000005  -0.000001
    29  C   -0.009458  -0.002322  -0.041768  -0.007090   0.012329  -0.003971
    30  H    0.000622  -0.000461   0.000606  -0.000139   0.000428  -0.000293
    31  H    0.000515  -0.000454   0.004599  -0.000048   0.001602   0.003136
              13         14         15         16         17         18
     1  C   -0.066143  -0.001352  -0.006534   0.007203  -0.000631  -0.003806
     2  C    0.009852   0.001249  -0.000650   0.000551  -0.061701   0.014249
     3  H   -0.000980   0.000104  -0.000295  -0.000110   0.000087   0.001603
     4  C   -0.000019   0.000381  -0.000021   0.000002   0.000021   0.000000
     5  H   -0.000001   0.000009  -0.000001   0.000000  -0.000002   0.000000
     6  H    0.000028  -0.000288   0.000043  -0.000023   0.000003   0.000000
     7  H    0.000002  -0.000006   0.000000   0.000001   0.000003   0.000000
     8  O    0.005718   0.004373   0.006268   0.001357   0.011977  -0.000486
     9  N   -0.000320  -0.000036  -0.000055   0.000009   0.321030  -0.065220
    10  H   -0.000014  -0.000010   0.000001  -0.000001  -0.019156  -0.004730
    11  N    0.300603  -0.053163  -0.043509  -0.026987  -0.001587  -0.000121
    12  H   -0.032950   0.003094   0.002491  -0.007999  -0.000026   0.000000
    13  C    4.765014   0.393791   0.402067   0.394970  -0.000170  -0.000005
    14  H    0.393791   0.632934  -0.056114  -0.030917  -0.000029   0.000000
    15  H    0.402067  -0.056114   0.596224  -0.023929   0.000125   0.000002
    16  H    0.394970  -0.030917  -0.023929   0.599392  -0.000008   0.000000
    17  C   -0.000170  -0.000029   0.000125  -0.000008   4.534130   0.279476
    18  C   -0.000005   0.000000   0.000002   0.000000   0.279476   5.001854
    19  H    0.000001   0.000000   0.000000   0.000000  -0.054877   0.394922
    20  H    0.000000   0.000000   0.000000   0.000000  -0.019458   0.380586
    21  H    0.000002   0.000000   0.000002   0.000000  -0.028843   0.391509
    22  O   -0.000189   0.000008   0.000086  -0.000004   0.728252  -0.070332
    23  C    0.000092  -0.000125   0.000024  -0.000007  -0.000203  -0.000057
    24  H   -0.000232   0.000432  -0.000124  -0.000013   0.000440   0.000084
    25  C    0.000006   0.000001   0.000001   0.000000  -0.000033  -0.000156
    26  H    0.000000   0.000000   0.000000   0.000000  -0.000004   0.000007
    27  H    0.000003   0.000001   0.000000   0.000000   0.000368   0.000335
    28  H    0.000000  -0.000001   0.000000   0.000000  -0.000007  -0.000004
    29  C   -0.000467  -0.000319  -0.000026  -0.000028   0.008015   0.000234
    30  H    0.000062  -0.000025   0.000013   0.000002  -0.000005  -0.000016
    31  H    0.000084  -0.000281   0.000110   0.000005  -0.000100   0.000041
              19         20         21         22         23         24
     1  C    0.000445  -0.000125   0.000724  -0.002783  -0.018552  -0.002434
     2  C    0.000209  -0.000548  -0.000701   0.018209  -0.012057   0.002912
     3  H   -0.000352   0.000144  -0.000167   0.017270   0.009617   0.001171
     4  C    0.000000   0.000000   0.000000   0.000001   0.273898  -0.027122
     5  H    0.000000   0.000000   0.000000   0.000000  -0.038546  -0.004579
     6  H    0.000000   0.000000   0.000000   0.000000  -0.034788  -0.007631
     7  H    0.000000   0.000000   0.000000   0.000000  -0.037585   0.006517
     8  O   -0.000103   0.000038   0.000210  -0.002595  -0.005419   0.018504
     9  N    0.013261  -0.001207  -0.000198  -0.139154  -0.005416   0.000863
    10  H   -0.001805   0.001343  -0.000533   0.002982   0.007510   0.000753
    11  N    0.000008   0.000005  -0.000004  -0.003143  -0.001402   0.000418
    12  H    0.000001   0.000000  -0.000002  -0.000218   0.000632  -0.000250
    13  C    0.000001   0.000000   0.000002  -0.000189   0.000092  -0.000232
    14  H    0.000000   0.000000   0.000000   0.000008  -0.000125   0.000432
    15  H    0.000000   0.000000   0.000002   0.000086   0.000024  -0.000124
    16  H    0.000000   0.000000   0.000000  -0.000004  -0.000007  -0.000013
    17  C   -0.054877  -0.019458  -0.028843   0.728252  -0.000203   0.000440
    18  C    0.394922   0.380586   0.391509  -0.070332  -0.000057   0.000084
    19  H    0.601227  -0.028082  -0.024057   0.004589   0.000088  -0.000072
    20  H   -0.028082   0.577284  -0.025853   0.001232   0.000020   0.000005
    21  H   -0.024057  -0.025853   0.565463   0.001772  -0.000031  -0.000018
    22  O    0.004589   0.001232   0.001772   7.847721  -0.000043   0.000007
    23  C    0.000088   0.000020  -0.000031  -0.000043   5.393111   0.406778
    24  H   -0.000072   0.000005  -0.000018   0.000007   0.406778   0.477973
    25  C    0.000062   0.000009  -0.000001  -0.000007   0.272797  -0.032335
    26  H   -0.000005   0.000000   0.000000   0.000000  -0.036929   0.006785
    27  H    0.000432  -0.000084   0.000022   0.000034  -0.042536  -0.006875
    28  H    0.000002   0.000000   0.000000   0.000000  -0.035389  -0.005119
    29  C   -0.000216  -0.000020   0.000035   0.001971   0.179041  -0.058932
    30  H    0.000014  -0.000017   0.000012  -0.000094  -0.051375   0.002979
    31  H   -0.000002  -0.000003   0.000000   0.000060  -0.051214   0.001339
              25         26         27         28         29         30
     1  C    0.000551  -0.000195   0.000919   0.000058  -0.043907   0.008806
     2  C    0.000933   0.002166  -0.002383  -0.000690   0.207693  -0.024007
     3  H   -0.000760   0.000052  -0.000354   0.000020  -0.032805  -0.007980
     4  C   -0.072447  -0.008655   0.007949  -0.007140  -0.046359  -0.001713
     5  H   -0.006278  -0.000740   0.000015   0.003833   0.009419  -0.000338
     6  H    0.009084   0.000013  -0.000412  -0.000016  -0.001997   0.000712
     7  H   -0.009346   0.004663  -0.000020  -0.000303  -0.009458   0.000622
     8  O   -0.000313  -0.000016  -0.000232  -0.000002  -0.002322  -0.000461
     9  N   -0.002604  -0.000259   0.000477   0.000106  -0.041768   0.000606
    10  H   -0.001629  -0.000001   0.002072   0.000336  -0.007090  -0.000139
    11  N   -0.000048  -0.000003  -0.000057   0.000005   0.012329   0.000428
    12  H    0.000012   0.000004  -0.000002  -0.000001  -0.003971  -0.000293
    13  C    0.000006   0.000000   0.000003   0.000000  -0.000467   0.000062
    14  H    0.000001   0.000000   0.000001  -0.000001  -0.000319  -0.000025
    15  H    0.000001   0.000000   0.000000   0.000000  -0.000026   0.000013
    16  H    0.000000   0.000000   0.000000   0.000000  -0.000028   0.000002
    17  C   -0.000033  -0.000004   0.000368  -0.000007   0.008015  -0.000005
    18  C   -0.000156   0.000007   0.000335  -0.000004   0.000234  -0.000016
    19  H    0.000062  -0.000005   0.000432   0.000002  -0.000216   0.000014
    20  H    0.000009   0.000000  -0.000084   0.000000  -0.000020  -0.000017
    21  H   -0.000001   0.000000   0.000022   0.000000   0.000035   0.000012
    22  O   -0.000007   0.000000   0.000034   0.000000   0.001971  -0.000094
    23  C    0.272797  -0.036929  -0.042536  -0.035389   0.179041  -0.051375
    24  H   -0.032335   0.006785  -0.006875  -0.005119  -0.058932   0.002979
    25  C    5.120490   0.402916   0.399487   0.406721  -0.054350  -0.003101
    26  H    0.402916   0.549792  -0.030391  -0.027949  -0.012878   0.004212
    27  H    0.399487  -0.030391   0.547033  -0.015584   0.006505  -0.001264
    28  H    0.406721  -0.027949  -0.015584   0.529772   0.008988   0.000461
    29  C   -0.054350  -0.012878   0.006505   0.008988   5.492819   0.399526
    30  H   -0.003101   0.004212  -0.001264   0.000461   0.399526   0.469776
    31  H    0.005709  -0.000148   0.000090  -0.000288   0.419864  -0.002925
              31
     1  C    0.001993
     2  C   -0.041019
     3  H   -0.008381
     4  C   -0.009954
     5  H    0.000533
     6  H    0.000219
     7  H    0.000515
     8  O   -0.000454
     9  N    0.004599
    10  H   -0.000048
    11  N    0.001602
    12  H    0.003136
    13  C    0.000084
    14  H   -0.000281
    15  H    0.000110
    16  H    0.000005
    17  C   -0.000100
    18  C    0.000041
    19  H   -0.000002
    20  H   -0.000003
    21  H    0.000000
    22  O    0.000060
    23  C   -0.051214
    24  H    0.001339
    25  C    0.005709
    26  H   -0.000148
    27  H    0.000090
    28  H   -0.000288
    29  C    0.419864
    30  H   -0.002925
    31  H    0.469820
 Mulliken charges:
               1
     1  C    0.276906
     2  C   -0.133730
     3  H    0.218816
     4  C   -0.424082
     5  H    0.137712
     6  H    0.137441
     7  H    0.144167
     8  O   -0.393342
     9  N   -0.212663
    10  H    0.180621
    11  N   -0.126121
    12  H    0.125665
    13  C   -0.170802
    14  H    0.106288
    15  H    0.123802
    16  H    0.086534
    17  C    0.302913
    18  C   -0.319966
    19  H    0.094309
    20  H    0.114733
    21  H    0.120658
    22  O   -0.405632
    23  C   -0.171936
    24  H    0.217776
    25  C   -0.435371
    26  H    0.147564
    27  H    0.134453
    28  H    0.142191
    29  C   -0.429524
    30  H    0.205521
    31  H    0.205098
 Sum of Mulliken charges =   0.00000
 Mulliken charges with hydrogens summed into heavy atoms:
               1
     1  C    0.276906
     2  C    0.085087
     4  C   -0.004762
     8  O   -0.393342
     9  N   -0.032042
    11  N   -0.000457
    13  C    0.145821
    17  C    0.302913
    18  C    0.009734
    22  O   -0.405632
    23  C    0.045840
    25  C   -0.011162
    29  C   -0.018904
 Electronic spatial extent (au):  <R**2>=           2934.5105
 Charge=              0.0000 electrons
 Dipole moment (field-independent basis, Debye):
    X=             -3.6157    Y=             -1.4605    Z=             -1.8079  Tot=              4.2983
 Quadrupole moment (field-independent basis, Debye-Ang):
   XX=            -85.6670   YY=            -69.3849   ZZ=            -82.0276
   XY=             -8.9608   XZ=              3.9784   YZ=             -5.0799
 Traceless Quadrupole moment (field-independent basis, Debye-Ang):
   XX=             -6.6405   YY=              9.6416   ZZ=             -3.0011
   XY=             -8.9608   XZ=              3.9784   YZ=             -5.0799
 Octapole moment (field-independent basis, Debye-Ang**2):
  XXX=             -2.9146  YYY=             39.8656  ZZZ=             -8.7249  XYY=             -0.4588
  XXY=            -18.6633  XXZ=             15.9291  XZZ=             -0.5177  YZZ=              2.4719
  YYZ=             -2.7731  XYZ=              2.5448
 Hexadecapole moment (field-independent basis, Debye-Ang**3):
 XXXX=          -2066.3016 YYYY=          -1464.8607 ZZZZ=           -315.5353 XXXY=            -71.6500
 XXXZ=             33.1937 YYYX=            -38.1524 YYYZ=            -10.7904 ZZZX=             -1.3813
 ZZZY=            -16.5673 XXYY=           -582.6626 XXZZ=           -379.3433 YYZZ=           -306.1883
 XXYZ=              4.5362 YYXZ=              4.3404 ZZXY=             -5.8929
 N-N= 8.722393978761D+02 E-N=-3.174141014606D+03  KE= 6.091240777690D+02
 Calculating spin-rotation constants.
 Leave Link  601 at Thu Jun 19 01:51:12 2014, MaxMem=  4294967296 cpu:        69.9
 (Enter /home/ztw1e12/g09/l9999.exe)

 Test job not archived.
 1\1\GINC-GREEN0219\SP\RM06\Gen\C9H18N2O2\ROOT\19-Jun-2014\0\\#P Geom=A
 llCheck Guess=TCheck SCRF=Check GenChk RM06/ChkBas NMR=ReadFC IOp(3/6=
 22)\\NMR spin-spin scan\\0,1\C,0,0.68006,0.741277,0.658211\C,0,0.13772
 1,0.267527,-0.688938\H,0,0.539108,0.938625,-1.452847\C,0,-3.25669,0.31
 9323,0.936055\H,0,-3.828703,-0.281146,1.646257\H,0,-2.866027,1.192086,
 1.465146\H,0,-3.948578,0.677226,0.167505\O,0,1.042675,-0.034258,1.5386
 32\N,0,0.592755,-1.067669,-0.985795\H,0,-0.025655,-1.84529,-0.816538\N
 ,0,0.71032,2.068688,0.812632\H,0,0.379046,2.6517,0.060427\C,0,1.12947,
 2.684296,2.051185\H,0,0.449527,2.441261,2.869038\H,0,2.129535,2.35217,
 2.329084\H,0,1.145422,3.761881,1.920208\C,0,1.891703,-1.327466,-1.2225
 4\C,0,2.255987,-2.760228,-1.429423\H,0,1.410395,-3.43679,-1.327356\H,0
 ,2.685735,-2.872593,-2.424683\H,0,3.026473,-3.034291,-0.709227\O,0,2.7
 31347,-0.431161,-1.288482\C,0,-2.138633,-0.488107,0.30213\H,0,-1.44475
 4,-0.792644,1.094159\C,0,-2.723889,-1.738794,-0.334037\H,0,-3.463735,-
 1.460865,-1.090823\H,0,-1.97733,-2.363934,-0.829181\H,0,-3.227782,-2.3
 56995,0.411486\C,0,-1.382477,0.373444,-0.719919\H,0,-1.719982,0.128631
 ,-1.731914\H,0,-1.627418,1.427392,-0.570112\\Version=EM64L-G09RevD.01\
 State=1-A\HF=-613.581432\RMSD=9.477e-09\Dipole=-1.6000627,0.4052496,-0
 .3678621\Quadrupole=-7.5458074,10.6434774,-3.0976699,-0.4744091,1.5252
 056,3.9121848\PG=C01 [X(C9H18N2O2)]\\@


 THE ... SCIENTISTS WERE WRONG ... THE MOST PERSISTENT PRINCIPLES 
 OF THE UNIVERSE WERE ACCIDENT AND ERROR.

                          -- FRANK HERBERT IN DUNE
 Job cpu time:       2 days 12 hours 20 minutes 40.1 seconds.
 File lengths (MBytes):  RWF=   2456 Int=      0 D2E=      0 Chk=     48 Scr=      8
 Normal termination of Gaussian 09 at Thu Jun 19 01:51:13 2014.
