 Entering Gaussian System, Link 0=g09
 Input=scan_input_17.gjf
 Output=scan_input_17.log
 Initial command:
 /home/ztw1e12/g09/l1.exe "/home/ztw1e12/leucine_scan/leucine_chi2_scan/Gau-22004.inp" -scrdir="/home/ztw1e12/leucine_scan/leucine_chi2_scan/"
 Default is to use a total of   8 processors:
                                8 via shared-memory
                                1 via Linda
 Entering Link 1 = /home/ztw1e12/g09/l1.exe PID=     22005.
  
 Copyright (c) 1988,1990,1992,1993,1995,1998,2003,2009,2013,
            Gaussian, Inc.  All Rights Reserved.
  
 This is part of the Gaussian(R) 09 program.  It is based on
 the Gaussian(R) 03 system (copyright 2003, Gaussian, Inc.),
 the Gaussian(R) 98 system (copyright 1998, Gaussian, Inc.),
 the Gaussian(R) 94 system (copyright 1995, Gaussian, Inc.),
 the Gaussian 92(TM) system (copyright 1992, Gaussian, Inc.),
 the Gaussian 90(TM) system (copyright 1990, Gaussian, Inc.),
 the Gaussian 88(TM) system (copyright 1988, Gaussian, Inc.),
 the Gaussian 86(TM) system (copyright 1986, Carnegie Mellon
 University), and the Gaussian 82(TM) system (copyright 1983,
 Carnegie Mellon University). Gaussian is a federally registered
 trademark of Gaussian, Inc.
  
 This software contains proprietary and confidential information,
 including trade secrets, belonging to Gaussian, Inc.
  
 This software is provided under written license and may be
 used, copied, transmitted, or stored only in accord with that
 written license.
  
 The following legend is applicable only to US Government
 contracts under FAR:
  
                    RESTRICTED RIGHTS LEGEND
  
 Use, reproduction and disclosure by the US Government is
 subject to restrictions as set forth in subparagraphs (a)
 and (c) of the Commercial Computer Software - Restricted
 Rights clause in FAR 52.227-19.
  
 Gaussian, Inc.
 340 Quinnipiac St., Bldg. 40, Wallingford CT 06492
  
  
 ---------------------------------------------------------------
 Warning -- This program may not be used in any manner that
 competes with the business of Gaussian, Inc. or will provide
 assistance to any competitor of Gaussian, Inc.  The licensee
 of this program is prohibited from giving any competitor of
 Gaussian, Inc. access to this program.  By using this program,
 the user acknowledges that Gaussian, Inc. is engaged in the
 business of creating and licensing software in the field of
 computational chemistry and represents and warrants to the
 licensee that it is not a competitor of Gaussian, Inc. and that
 it will not use this program in any manner prohibited above.
 ---------------------------------------------------------------
  

 Cite this work as:
 Gaussian 09, Revision D.01,
 M. J. Frisch, G. W. Trucks, H. B. Schlegel, G. E. Scuseria, 
 M. A. Robb, J. R. Cheeseman, G. Scalmani, V. Barone, B. Mennucci, 
 G. A. Petersson, H. Nakatsuji, M. Caricato, X. Li, H. P. Hratchian, 
 A. F. Izmaylov, J. Bloino, G. Zheng, J. L. Sonnenberg, M. Hada, 
 M. Ehara, K. Toyota, R. Fukuda, J. Hasegawa, M. Ishida, T. Nakajima, 
 Y. Honda, O. Kitao, H. Nakai, T. Vreven, J. A. Montgomery, Jr., 
 J. E. Peralta, F. Ogliaro, M. Bearpark, J. J. Heyd, E. Brothers, 
 K. N. Kudin, V. N. Staroverov, T. Keith, R. Kobayashi, J. Normand, 
 K. Raghavachari, A. Rendell, J. C. Burant, S. S. Iyengar, J. Tomasi, 
 M. Cossi, N. Rega, J. M. Millam, M. Klene, J. E. Knox, J. B. Cross, 
 V. Bakken, C. Adamo, J. Jaramillo, R. Gomperts, R. E. Stratmann, 
 O. Yazyev, A. J. Austin, R. Cammi, C. Pomelli, J. W. Ochterski, 
 R. L. Martin, K. Morokuma, V. G. Zakrzewski, G. A. Voth, 
 P. Salvador, J. J. Dannenberg, S. Dapprich, A. D. Daniels, 
 O. Farkas, J. B. Foresman, J. V. Ortiz, J. Cioslowski, 
 and D. J. Fox, Gaussian, Inc., Wallingford CT, 2013.
 
 ******************************************
 Gaussian 09:  EM64L-G09RevD.01 24-Apr-2013
                18-Jun-2014 
 ******************************************
 %Mem=32GB
 %NProcShared=16
 Will use up to   16 processors via shared memory.
 Default route:  MaxDisk=100GB
 ----------------------------------------------------------------------
 #p nmr=(giao,mixed,spinspin) m06/cc-pvtz scf=tight integral=(grid=ultr
 afine)
 ----------------------------------------------------------------------
 1/38=1/1;
 2/12=2,17=6,18=5,40=1/2;
 3/5=16,6=1,10=1100000,11=2,16=1,25=1,30=1,74=-54,75=-5/1,2,8,3;
 4//1;
 5/5=2,32=2,38=5/2;
 8/6=1,10=90,11=11/1;
 10/13=100,45=16,47=3/2;
 6/7=2,8=2,9=2,10=2,28=1/1;
 99/9=1/99;
 Leave Link    1 at Wed Jun 18 02:25:43 2014, MaxMem=  4294967296 cpu:         5.1
 (Enter /home/ztw1e12/g09/l101.exe)
 ------------------
 NMR spin-spin scan
 ------------------
 Symbolic Z-matrix:
 Charge =  0 Multiplicity = 1
 C                     0.27542   0.89704   0.40874 
 C                     0.09552   0.03384  -0.83793 
 H                     0.54905   0.5986   -1.65887 
 C                    -1.82564  -1.76376   0.78075 
 H                    -2.64642  -2.14878   1.38961 
 H                    -1.32519  -2.63579   0.3529 
 H                    -1.12869  -1.2587    1.44924 
 O                     0.53194   0.44013   1.51872 
 N                     0.80531  -1.2163   -0.73316 
 H                     0.28558  -2.075    -0.65152 
 N                     0.12298   2.20905   0.19368 
 H                    -0.12224   2.52583  -0.73103 
 C                     0.11391   3.15551   1.28515 
 H                    -0.69426   2.9418    1.98743 
 H                     1.05635   3.129     1.83191 
 H                    -0.02579   4.15477   0.88439 
 C                     2.14557  -1.25382  -0.64393 
 C                     2.76701  -2.6032   -0.49319 
 H                     2.04666  -3.41622  -0.55096 
 H                     3.52332  -2.73183  -1.26661 
 H                     3.27538  -2.64596   0.47027 
 O                     2.82785  -0.23047  -0.68768 
 C                    -2.38542  -0.81742  -0.26925 
 H                    -3.07233  -1.38434  -0.90335 
 C                    -3.19845   0.25118   0.45187 
 H                    -2.558     0.83962   1.11834 
 H                    -3.67146   0.94091  -0.24992 
 H                    -3.9828   -0.19586   1.06636 
 C                    -1.37423  -0.14399  -1.22186 
 H                    -1.35157  -0.70675  -2.15967 
 H                    -1.75374   0.8442   -1.4901 
 
 NAtoms=     31 NQM=       31 NQMF=       0 NMMI=      0 NMMIF=      0
                NMic=       0 NMicF=      0.
                    Isotopes and Nuclear Properties:
 (Nuclear quadrupole moments (NQMom) in fm**2, nuclear magnetic moments (NMagM)
  in nuclear magnetons)

  Atom         1           2           3           4           5           6           7           8           9          10
 IAtWgt=          12          12           1          12           1           1           1          16          14           1
 AtmWgt=  12.0000000  12.0000000   1.0078250  12.0000000   1.0078250   1.0078250   1.0078250  15.9949146  14.0030740   1.0078250
 NucSpn=           0           0           1           0           1           1           1           0           2           1
 AtZEff=   0.0000000   0.0000000   0.0000000   0.0000000   0.0000000   0.0000000   0.0000000   0.0000000   0.0000000   0.0000000
 NQMom=    0.0000000   0.0000000   0.0000000   0.0000000   0.0000000   0.0000000   0.0000000   0.0000000   2.0440000   0.0000000
 NMagM=    0.0000000   0.0000000   2.7928460   0.0000000   2.7928460   2.7928460   2.7928460   0.0000000   0.4037610   2.7928460
 AtZNuc=   6.0000000   6.0000000   1.0000000   6.0000000   1.0000000   1.0000000   1.0000000   8.0000000   7.0000000   1.0000000

  Atom        11          12          13          14          15          16          17          18          19          20
 IAtWgt=          14           1          12           1           1           1          12          12           1           1
 AtmWgt=  14.0030740   1.0078250  12.0000000   1.0078250   1.0078250   1.0078250  12.0000000  12.0000000   1.0078250   1.0078250
 NucSpn=           2           1           0           1           1           1           0           0           1           1
 AtZEff=   0.0000000   0.0000000   0.0000000   0.0000000   0.0000000   0.0000000   0.0000000   0.0000000   0.0000000   0.0000000
 NQMom=    2.0440000   0.0000000   0.0000000   0.0000000   0.0000000   0.0000000   0.0000000   0.0000000   0.0000000   0.0000000
 NMagM=    0.4037610   2.7928460   0.0000000   2.7928460   2.7928460   2.7928460   0.0000000   0.0000000   2.7928460   2.7928460
 AtZNuc=   7.0000000   1.0000000   6.0000000   1.0000000   1.0000000   1.0000000   6.0000000   6.0000000   1.0000000   1.0000000

  Atom        21          22          23          24          25          26          27          28          29          30
 IAtWgt=           1          16          12           1          12           1           1           1          12           1
 AtmWgt=   1.0078250  15.9949146  12.0000000   1.0078250  12.0000000   1.0078250   1.0078250   1.0078250  12.0000000   1.0078250
 NucSpn=           1           0           0           1           0           1           1           1           0           1
 AtZEff=   0.0000000   0.0000000   0.0000000   0.0000000   0.0000000   0.0000000   0.0000000   0.0000000   0.0000000   0.0000000
 NQMom=    0.0000000   0.0000000   0.0000000   0.0000000   0.0000000   0.0000000   0.0000000   0.0000000   0.0000000   0.0000000
 NMagM=    2.7928460   0.0000000   0.0000000   2.7928460   0.0000000   2.7928460   2.7928460   2.7928460   0.0000000   2.7928460
 AtZNuc=   1.0000000   8.0000000   6.0000000   1.0000000   6.0000000   1.0000000   1.0000000   1.0000000   6.0000000   1.0000000

  Atom        31
 IAtWgt=           1
 AtmWgt=   1.0078250
 NucSpn=           1
 AtZEff=   0.0000000
 NQMom=    0.0000000
 NMagM=    2.7928460
 AtZNuc=   1.0000000
 Leave Link  101 at Wed Jun 18 02:25:43 2014, MaxMem=  4294967296 cpu:         1.9
 (Enter /home/ztw1e12/g09/l202.exe)
                          Input orientation:                          
 ---------------------------------------------------------------------
 Center     Atomic      Atomic             Coordinates (Angstroms)
 Number     Number       Type             X           Y           Z
 ---------------------------------------------------------------------
      1          6           0        0.275424    0.897044    0.408740
      2          6           0        0.095515    0.033838   -0.837930
      3          1           0        0.549046    0.598602   -1.658868
      4          6           0       -1.825637   -1.763761    0.780749
      5          1           0       -2.646418   -2.148777    1.389614
      6          1           0       -1.325190   -2.635789    0.352895
      7          1           0       -1.128688   -1.258695    1.449242
      8          8           0        0.531936    0.440134    1.518719
      9          7           0        0.805313   -1.216301   -0.733164
     10          1           0        0.285583   -2.075005   -0.651515
     11          7           0        0.122976    2.209050    0.193676
     12          1           0       -0.122238    2.525831   -0.731030
     13          6           0        0.113913    3.155505    1.285146
     14          1           0       -0.694260    2.941803    1.987434
     15          1           0        1.056349    3.129000    1.831906
     16          1           0       -0.025787    4.154765    0.884391
     17          6           0        2.145570   -1.253820   -0.643927
     18          6           0        2.767014   -2.603198   -0.493187
     19          1           0        2.046658   -3.416221   -0.550957
     20          1           0        3.523315   -2.731830   -1.266610
     21          1           0        3.275378   -2.645955    0.470265
     22          8           0        2.827847   -0.230469   -0.687679
     23          6           0       -2.385422   -0.817422   -0.269253
     24          1           0       -3.072329   -1.384335   -0.903347
     25          6           0       -3.198447    0.251182    0.451873
     26          1           0       -2.558002    0.839616    1.118344
     27          1           0       -3.671457    0.940911   -0.249916
     28          1           0       -3.982804   -0.195862    1.066361
     29          6           0       -1.374225   -0.143993   -1.221856
     30          1           0       -1.351572   -0.706753   -2.159674
     31          1           0       -1.753736    0.844199   -1.490104
 ---------------------------------------------------------------------
                    Distance matrix (angstroms):
                    1          2          3          4          5
     1  C    0.000000
     2  C    1.526983   0.000000
     3  H    2.106879   1.094800   0.000000
     4  C    3.410679   3.089063   4.143864   0.000000
     5  H    4.333163   4.152584   5.201185   1.092078   0.000000
     6  H    3.878916   3.250135   4.245143   1.092675   1.748602
     7  H    2.775137   2.898356   3.990575   1.089822   1.760485
     8  O    1.227444   2.430912   3.181582   3.310574   4.101349
     9  N    2.459869   1.441401   2.053405   3.084403   4.158142
    10  H    3.155522   2.125581   2.869207   2.570117   3.573273
    11  N    1.338227   2.407595   2.491385   4.463740   5.300044
    12  H    2.027352   2.503772   2.241811   4.856711   5.720190
    13  C    2.427925   3.775261   3.923559   5.311822   5.980447
    14  H    2.759275   4.130701   4.509093   4.987829   5.484735
    15  H    2.759868   4.198959   4.341172   5.774936   6.462278
    16  H    3.306012   4.468013   4.409637   6.187015   6.845261
    17  C    3.038383   2.428667   2.647728   4.249733   5.281987
    18  C    4.390124   3.769577   4.065676   4.839423   5.749494
    19  H    4.760519   3.973943   4.425959   4.415737   5.234233
    20  H    5.150177   4.425212   4.482401   5.808625   6.742483
    21  H    4.642882   4.359380   4.742704   5.186041   6.013323
    22  O    2.998047   2.749195   2.612183   5.114898   6.161382
    23  C    3.237155   2.683856   3.542211   1.520336   2.143004
    24  H    4.258370   3.471416   4.197286   2.129409   2.454270
    25  C    3.533664   3.544152   4.315047   2.460236   2.635128
    26  H    2.921496   3.393735   4.174295   2.725418   3.001982
    27  H    4.001702   3.919008   4.462619   3.432867   3.644851
    28  H    4.445156   4.506858   5.347496   2.682024   2.388367
    29  C    2.542429   1.529431   2.107462   2.614928   3.529506
    30  H    3.437445   2.095124   2.359472   3.160394   4.043947
    31  H    2.779549   2.121732   2.321983   3.458815   4.248242
                    6          7          8          9         10
     6  H    0.000000
     7  H    1.771152   0.000000
     8  O    3.777481   2.376661   0.000000
     9  N    2.780920   2.916342   2.808823   0.000000
    10  H    1.979371   2.660771   3.331145   1.007054   0.000000
    11  N    5.059150   3.894658   2.247677   3.613536   4.369659
    12  H    5.409650   4.482094   3.136789   3.855374   4.619560
    13  C    6.039801   4.588698   2.757270   4.864596   5.580176
    14  H    5.846308   4.257060   2.825172   5.190395   5.752609
    15  H    6.410304   4.916573   2.757371   5.052152   5.817485
    16  H    6.934159   5.553467   3.809450   5.670587   6.423861
    17  C    3.866480   3.886148   3.185959   1.343748   2.033213
    18  C    4.178881   4.556008   4.278459   2.414403   2.541959
    19  H    3.577063   4.328803   4.631351   2.532545   2.215933
    20  H    5.112731   5.584542   5.173757   3.157361   3.360457
    21  H    4.602076   4.720030   4.260244   3.097317   3.243956
    22  O    4.910812   4.612792   3.254091   2.250462   3.141135
    23  C    2.194907   2.174242   3.645445   3.248863   2.976896
    24  H    2.489332   3.054210   4.710182   3.885010   3.437443
    25  C    3.442890   2.749250   3.884536   4.425823   4.332098
    26  H    3.766189   2.560340   3.141274   4.355085   4.439977
    27  H    4.319853   3.767105   4.587740   4.992851   4.991512
    28  H    3.677661   3.069559   4.581702   5.215904   4.970051
    29  C    2.948100   2.904757   3.389012   2.477711   2.609417
    30  H    3.167788   3.657676   4.288768   2.635664   2.612840
    31  H    3.961138   3.667779   3.800076   3.371550   3.658388
                   11         12         13         14         15
    11  N    0.000000
    12  H    1.007751   0.000000
    13  C    1.444703   2.125376   0.000000
    14  H    2.102943   2.808966   1.091797   0.000000
    15  H    2.097925   2.884705   1.089878   1.767445   0.000000
    16  H    2.070030   2.296152   1.085652   1.770547   1.766634
    17  C    4.096820   4.408662   5.224088   5.708936   5.150268
    18  C    5.533575   5.891628   6.585140   6.991490   6.417985
    19  H    5.991553   6.328074   7.091852   7.374316   7.035529
    20  H    6.173090   6.420273   7.266099   7.782471   7.073617
    21  H    5.795275   6.303513   6.657014   7.020176   6.334687
    22  O    3.747581   4.037582   4.766791   5.442865   4.557691
    23  C    3.958017   4.063567   4.944389   4.699408   5.642243
    24  H    4.932124   4.901237   5.962532   5.720778   6.700581
    25  C    3.864164   4.004541   4.483432   3.983509   5.318798
    26  H    3.149286   3.492342   3.539816   2.940755   4.337509
    27  H    4.025254   3.916682   4.646490   4.227648   5.610157
    28  H    4.837624   5.053929   5.297416   4.637654   6.085543
    29  C    3.127643   2.989371   4.402988   4.503780   5.093686
    30  H    4.026718   3.741909   5.378798   5.562601   6.036870
    31  H    2.867051   2.462898   4.065988   4.197106   4.914534
                   16         17         18         19         20
    16  H    0.000000
    17  C    6.025225   0.000000
    18  C    7.440936   1.493230   0.000000
    19  H    7.979667   2.166658   1.087776   0.000000
    20  H    8.040406   2.114339   1.089367   1.777939   0.000000
    21  H    7.570930   2.110907   1.090184   1.773685   1.756582
    22  O    5.463049   1.230717   2.381464   3.282981   2.660008
    23  C    5.623292   4.567353   5.457723   5.145527   6.290696
    24  H    6.569555   5.225974   5.979280   5.518765   6.741678
    25  C    5.048842   5.659004   6.680370   6.478166   7.552061
    26  H    4.178165   5.441660   6.542614   6.488575   7.444840
    27  H    4.990633   6.229759   7.353489   7.195281   8.141710
    28  H    5.883796   6.449909   7.333996   7.024304   8.259280
    29  C    4.973317   3.735596   4.871192   4.781216   5.539386
    30  H    5.887138   3.850555   4.830780   4.634345   5.353786
    31  H    4.425368   4.508025   5.771964   5.785860   6.378495
                   21         22         23         24         25
    21  H    0.000000
    22  O    2.715822   0.000000
    23  C    5.994587   5.262867   0.000000
    24  H    6.616032   6.015812   1.093301   0.000000
    25  C    7.092542   6.151974   1.524122   2.127779   0.000000
    26  H    6.826239   5.780499   2.168175   3.049217   1.095723
    27  H    7.851292   6.618513   2.178530   2.488513   1.091775
    28  H    7.683716   7.032981   2.172977   2.474102   1.092090
    29  C    5.544537   4.236771   1.543852   2.126841   2.507054
    30  H    5.664428   4.456586   2.157495   2.235728   3.338977
    31  H    6.427769   4.773856   2.156499   2.655058   2.492014
                   26         27         28         29         30
    26  H    0.000000
    27  H    1.766969   0.000000
    28  H    1.762095   1.766855   0.000000
    29  C    2.800955   2.720103   3.470348   0.000000
    30  H    3.819965   3.426928   4.194245   1.093945   0.000000
    31  H    2.729627   2.285842   3.547673   1.092021   1.736523
                   31
    31  H    0.000000
 Stoichiometry    C9H18N2O2
 Framework group  C1[X(C9H18N2O2)]
 Deg. of freedom    87
 Full point group                 C1      NOp   1
 Largest Abelian subgroup         C1      NOp   1
 Largest concise Abelian subgroup C1      NOp   1
                         Standard orientation:                         
 ---------------------------------------------------------------------
 Center     Atomic      Atomic             Coordinates (Angstroms)
 Number     Number       Type             X           Y           Z
 ---------------------------------------------------------------------
      1          6           0       -0.310783    1.033058    0.141732
      2          6           0        0.191066   -0.030515   -0.832249
      3          1           0        0.488882    0.510610   -1.736173
      4          6           0       -0.963810   -2.188189    1.052694
      5          1           0       -1.617817   -2.803552    1.674175
      6          1           0       -0.040089   -2.756977    0.921703
      7          1           0       -0.735040   -1.281638    1.612641
      8          8           0       -0.106241    0.995400    1.351427
      9          7           0        1.360951   -0.708071   -0.332326
     10          1           0        1.294544   -1.675939   -0.062178
     11          7           0       -1.006385    2.020077   -0.435141
     12          1           0       -1.174326    1.981843   -1.428064
     13          6           0       -1.677748    3.028571    0.351866
     14          1           0       -2.419567    2.582339    1.017149
     15          1           0       -0.965852    3.586009    0.960390
     16          1           0       -2.179107    3.721749   -0.316553
     17          6           0        2.514912   -0.050982   -0.126739
     18          6           0        3.645226   -0.847350    0.437109
     19          1           0        3.413439   -1.904683    0.544712
     20          1           0        4.515755   -0.729653   -0.207133
     21          1           0        3.904866   -0.438751    1.413908
     22          8           0        2.637229    1.144523   -0.392201
     23          6           0       -1.669020   -1.878054   -0.257999
     24          1           0       -1.867532   -2.824917   -0.767265
     25          6           0       -3.013614   -1.242245    0.074809
     26          1           0       -2.871783   -0.294121    0.605426
     27          1           0       -3.596690   -1.036236   -0.824943
     28          1           0       -3.608623   -1.890539    0.721601
     29          6           0       -0.913957   -0.992082   -1.272105
     30          1           0       -0.440455   -1.640069   -2.015490
     31          1           0       -1.644099   -0.402169   -1.830141
 ---------------------------------------------------------------------
 Rotational constants (GHZ):      0.9232476      0.6318651      0.4462580
 Leave Link  202 at Wed Jun 18 02:25:44 2014, MaxMem=  4294967296 cpu:         2.2
 (Enter /home/ztw1e12/g09/l301.exe)
 Standard basis: CC-pVTZ (5D, 7F)
 Converting basis for Fermi contact spin-spin IFCMod=1.
 AO basis functions are being uncontracted.
 Ernie: Thresh=  0.10000D-02 Tol=  0.10000D-05 Strict=F.
 There are  1119 symmetry adapted cartesian basis functions of A   symmetry.
 There are  1036 symmetry adapted basis functions of A   symmetry.
  1036 basis functions,  1119 primitive gaussians,  1119 cartesian basis functions
    51 alpha electrons       51 beta electrons
       nuclear repulsion energy       884.7909417289 Hartrees.
 IExCor= 4235 DFT=T Ex+Corr=M06 ExCW=0 ScaHFX=  0.270000
 ScaDFX=  1.000000  1.000000  1.000000  1.000000 ScalE2=  1.000000  1.000000
 IRadAn= 199590 IRanWt=     -1 IRanGd=            0 ICorTp=0 IEmpDi=  4
 NAtoms=   31 NActive=   31 NUniq=   31 SFac= 1.00D+00 NAtFMM=   60 NAOKFM=F Big=F
 Integral buffers will be    131072 words long.
 Raffenetti 2 integral format.
 Two-electron integral symmetry is turned on.
 Leave Link  301 at Wed Jun 18 02:25:44 2014, MaxMem=  4294967296 cpu:         5.5
 (Enter /home/ztw1e12/g09/l302.exe)
 NPDir=0 NMtPBC=     1 NCelOv=     1 NCel=       1 NClECP=     1 NCelD=      1
         NCelK=      1 NCelE2=     1 NClLst=     1 CellRange=     0.0.
 One-electron integrals computed using PRISM.
 GSVD:  received Info=                   1 from GESDD.
 NBasis=  1036 RedAO= T EigKep=  1.22D-04  NBF=  1036
 NBsUse=   932 1.00D-06 EigRej=  6.45D-15 NBFU=   932
 Precomputing XC quadrature grid using
 IXCGrd= 4 IRadAn=      199590 IRanWt=          -1 IRanGd=           0 AccXCQ= 0.00D+00.
 Generated NRdTot=       0 NPtTot=           0 NUsed=           0 NTot=          32
 NSgBfM=   880   880   880   882   882 MxSgAt=    31 MxSgA2=    31.
 Leave Link  302 at Wed Jun 18 02:25:48 2014, MaxMem=  4294967296 cpu:        64.3
 (Enter /home/ztw1e12/g09/l308.exe)
 Leave Link  308 at Wed Jun 18 02:25:49 2014, MaxMem=  4294967296 cpu:         5.7
 (Enter /home/ztw1e12/g09/l303.exe)
 DipDrv:  MaxL=1.
 Leave Link  303 at Wed Jun 18 02:25:49 2014, MaxMem=  4294967296 cpu:         3.3
 (Enter /home/ztw1e12/g09/l401.exe)
 ExpMin= 1.03D-01 ExpMax= 1.38D+05 ExpMxC= 1.38D+05 IAcc=4 IRadAn=    199590 AccDes= 0.00D+00
 Harris functional with IExCor= 1009 and IRadAn=  199590 diagonalized for initial guess.
 HarFok:  IExCor= 1009 AccDes= 0.00D+00 IRadAn=    199590 IDoV= 1 UseB2=F ITyADJ=14
 ICtDFT=  3500011 ScaDFX=  1.000000  1.000000  1.000000  1.000000
 FoFCou: FMM=F IPFlag=           0 FMFlag=      100000 FMFlg1=           0
         NFxFlg=           0 DoJE=T BraDBF=F KetDBF=T FulRan=T
         wScrn=  0.000000 ICntrl=     500 IOpCl=  0 I1Cent=   200000004 NGrid=           0
         NMat0=    1 NMatS0=      1 NMatT0=    0 NMatD0=    1 NMtDS0=    0 NMtDT0=    0
 Petite list used in FoFCou.
 Harris En= -613.557506435640    
 JPrj=0 DoOrth=F DoCkMO=F.
 Leave Link  401 at Wed Jun 18 02:26:06 2014, MaxMem=  4294967296 cpu:       262.8
 (Enter /home/ztw1e12/g09/l502.exe)
 Closed shell SCF:
 Using DIIS extrapolation, IDIIS=  1040.
 Integral symmetry usage will be decided dynamically.
 IVT=     3801329 IEndB=     3801329 NGot=  4294967296 MDV=  4292435888
 LenX=  4292435888 LenY=  4291182608
 Requested convergence on RMS density matrix=1.00D-08 within 128 cycles.
 Requested convergence on MAX density matrix=1.00D-06.
 Requested convergence on             energy=1.00D-06.
 No special actions if energy rises.
 Fock matrices will be formed incrementally for  20 cycles.
 Integral accuracy reduced to 1.0D-05 until final iterations.

 Cycle   1  Pass 0  IDiag  1:
 FoFJK:  IHMeth= 1 ICntrl=       0 DoSepK=F KAlg= 0 I1Cent=   0 FoldK=F
 IRaf= 490000000 NMat=   1 IRICut=       1 DoRegI=T DoRafI=F ISym2E= 0.
 FoFCou: FMM=F IPFlag=           0 FMFlag=      100000 FMFlg1=           0
         NFxFlg=           0 DoJE=F BraDBF=F KetDBF=F FulRan=T
         wScrn=  0.000000 ICntrl=       0 IOpCl=  0 I1Cent=           0 NGrid=           0
         NMat0=    1 NMatS0=      1 NMatT0=    0 NMatD0=    1 NMtDS0=    0 NMtDT0=    0
 Symmetry not used in FoFCou.
 E= -613.180288823032    
 DIIS: error= 1.25D-01 at cycle   1 NSaved=   1.
 NSaved= 1 IEnMin= 1 EnMin= -613.180288823032     IErMin= 1 ErrMin= 1.25D-01
 ErrMax= 1.25D-01  0.00D+00 EMaxC= 1.00D-01 BMatC= 1.30D+01 BMatP= 1.30D+01
 IDIUse=3 WtCom= 0.00D+00 WtEn= 1.00D+00
 Coeff-Com:  0.100D+01
 Coeff-En:   0.100D+01
 Coeff:      0.100D+01
 Gap=     0.286 Goal=   None    Shift=    0.000
 GapD=    0.286 DampG=1.000 DampE=0.250 DampFc=0.2500 IDamp=-1.
 Damping current iteration by 2.50D-01
 RMSDP=2.11D-03 MaxDP=3.18D-01              OVMax= 2.85D-01

 Cycle   2  Pass 0  IDiag  1:
 RMSU=  5.26D-04    CP:  1.01D+00
 E= -613.336603499073     Delta-E=       -0.156314676041 Rises=F Damp=T
 DIIS: error= 9.72D-02 at cycle   2 NSaved=   2.
 NSaved= 2 IEnMin= 2 EnMin= -613.336603499073     IErMin= 2 ErrMin= 9.72D-02
 ErrMax= 9.72D-02  0.00D+00 EMaxC= 1.00D-01 BMatC= 7.66D+00 BMatP= 1.30D+01
 IDIUse=3 WtCom= 2.80D-02 WtEn= 9.72D-01
 Coeff-Com: -0.279D+01 0.379D+01
 Coeff-En:   0.000D+00 0.100D+01
 Coeff:     -0.782D-01 0.108D+01
 Gap=     0.230 Goal=   None    Shift=    0.000
 RMSDP=5.45D-04 MaxDP=4.72D-02 DE=-1.56D-01 OVMax= 1.38D-01

 Cycle   3  Pass 0  IDiag  1:
 RMSU=  4.37D-04    CP:  1.02D+00  1.61D+00
 E= -613.546656169891     Delta-E=       -0.210052670819 Rises=F Damp=F
 DIIS: error= 1.42D-02 at cycle   3 NSaved=   3.
 NSaved= 3 IEnMin= 3 EnMin= -613.546656169891     IErMin= 3 ErrMin= 1.42D-02
 ErrMax= 1.42D-02  0.00D+00 EMaxC= 1.00D-01 BMatC= 1.97D-01 BMatP= 7.66D+00
 IDIUse=3 WtCom= 8.58D-01 WtEn= 1.42D-01
 Coeff-Com:  0.950D+00-0.131D+01 0.136D+01
 Coeff-En:   0.779D-01 0.000D+00 0.922D+00
 Coeff:      0.826D+00-0.113D+01 0.130D+01
 Gap=     0.252 Goal=   None    Shift=    0.000
 RMSDP=3.81D-04 MaxDP=3.29D-02 DE=-2.10D-01 OVMax= 6.58D-02

 Cycle   4  Pass 0  IDiag  1:
 RMSU=  2.81D-04    CP:  1.02D+00  1.18D+00  7.30D-01
 E= -613.539564842673     Delta-E=        0.007091327219 Rises=F Damp=F
 DIIS: error= 7.71D-03 at cycle   4 NSaved=   4.
 NSaved= 4 IEnMin= 3 EnMin= -613.546656169891     IErMin= 4 ErrMin= 7.71D-03
 ErrMax= 7.71D-03  0.00D+00 EMaxC= 1.00D-01 BMatC= 1.03D-01 BMatP= 1.97D-01
 IDIUse=3 WtCom= 9.23D-01 WtEn= 7.71D-02
 Coeff-Com:  0.613D+00-0.850D+00 0.708D+00 0.529D+00
 Coeff-En:   0.000D+00 0.000D+00 0.528D+00 0.472D+00
 Coeff:      0.566D+00-0.784D+00 0.694D+00 0.524D+00
 Gap=     0.281 Goal=   None    Shift=    0.000
 RMSDP=2.73D-04 MaxDP=1.93D-02 DE= 7.09D-03 OVMax= 7.40D-02

 Cycle   5  Pass 0  IDiag  1:
 RMSU=  7.96D-05    CP:  1.02D+00  1.11D+00  8.57D-01  1.03D-01
 E= -613.612476575690     Delta-E=       -0.072911733017 Rises=F Damp=F
 DIIS: error= 2.97D-03 at cycle   5 NSaved=   5.
 NSaved= 5 IEnMin= 5 EnMin= -613.612476575690     IErMin= 5 ErrMin= 2.97D-03
 ErrMax= 2.97D-03  0.00D+00 EMaxC= 1.00D-01 BMatC= 1.25D-02 BMatP= 1.03D-01
 IDIUse=3 WtCom= 9.70D-01 WtEn= 2.97D-02
 Coeff-Com:  0.832D-01-0.121D+00 0.993D-01 0.258D+00 0.681D+00
 Coeff-En:   0.000D+00 0.000D+00 0.000D+00 0.672D-01 0.933D+00
 Coeff:      0.807D-01-0.118D+00 0.964D-01 0.253D+00 0.688D+00
 Gap=     0.270 Goal=   None    Shift=    0.000
 RMSDP=1.36D-04 MaxDP=1.31D-02 DE=-7.29D-02 OVMax= 2.60D-02

 Cycle   6  Pass 0  IDiag  1:
 RMSU=  6.48D-05    CP:  1.02D+00  1.15D+00  9.37D-01  4.54D-01  3.34D-01
 E= -613.619719234059     Delta-E=       -0.007242658369 Rises=F Damp=F
 DIIS: error= 8.45D-04 at cycle   6 NSaved=   6.
 NSaved= 6 IEnMin= 6 EnMin= -613.619719234059     IErMin= 6 ErrMin= 8.45D-04
 ErrMax= 8.45D-04  0.00D+00 EMaxC= 1.00D-01 BMatC= 8.81D-04 BMatP= 1.25D-02
 IDIUse=3 WtCom= 9.92D-01 WtEn= 8.45D-03
 Coeff-Com:  0.357D-01-0.488D-01 0.813D-02 0.522D-01 0.230D+00 0.722D+00
 Coeff-En:   0.000D+00 0.000D+00 0.000D+00 0.000D+00 0.000D+00 0.100D+01
 Coeff:      0.354D-01-0.484D-01 0.806D-02 0.518D-01 0.228D+00 0.725D+00
 Gap=     0.270 Goal=   None    Shift=    0.000
 RMSDP=2.76D-05 MaxDP=2.85D-03 DE=-7.24D-03 OVMax= 6.78D-03

 Cycle   7  Pass 0  IDiag  1:
 RMSU=  2.03D-05    CP:  1.02D+00  1.13D+00  9.33D-01  4.49D-01  4.94D-01
                    CP:  1.02D+00
 E= -613.620209151519     Delta-E=       -0.000489917460 Rises=F Damp=F
 DIIS: error= 3.62D-04 at cycle   7 NSaved=   7.
 NSaved= 7 IEnMin= 7 EnMin= -613.620209151519     IErMin= 7 ErrMin= 3.62D-04
 ErrMax= 3.62D-04  0.00D+00 EMaxC= 1.00D-01 BMatC= 1.81D-04 BMatP= 8.81D-04
 IDIUse=3 WtCom= 9.96D-01 WtEn= 3.62D-03
 Coeff-Com:  0.246D-01-0.330D-01 0.539D-02 0.124D-01 0.704D-01 0.393D+00
 Coeff-Com:  0.527D+00
 Coeff-En:   0.000D+00 0.000D+00 0.000D+00 0.000D+00 0.000D+00 0.121D+00
 Coeff-En:   0.879D+00
 Coeff:      0.246D-01-0.329D-01 0.537D-02 0.124D-01 0.702D-01 0.392D+00
 Coeff:      0.528D+00
 Gap=     0.269 Goal=   None    Shift=    0.000
 RMSDP=9.80D-06 MaxDP=1.03D-03 DE=-4.90D-04 OVMax= 2.37D-03

 Cycle   8  Pass 0  IDiag  1:
 RMSU=  5.69D-06    CP:  1.02D+00  1.12D+00  9.37D-01  4.60D-01  4.76D-01
                    CP:  1.08D+00  7.24D-01
 E= -613.620338127315     Delta-E=       -0.000128975796 Rises=F Damp=F
 DIIS: error= 1.19D-04 at cycle   8 NSaved=   8.
 NSaved= 8 IEnMin= 8 EnMin= -613.620338127315     IErMin= 8 ErrMin= 1.19D-04
 ErrMax= 1.19D-04  0.00D+00 EMaxC= 1.00D-01 BMatC= 1.70D-05 BMatP= 1.81D-04
 IDIUse=3 WtCom= 9.99D-01 WtEn= 1.19D-03
 Coeff-Com:  0.135D-01-0.180D-01 0.436D-02 0.502D-03 0.129D-01 0.158D+00
 Coeff-Com:  0.297D+00 0.532D+00
 Coeff-En:   0.000D+00 0.000D+00 0.000D+00 0.000D+00 0.000D+00 0.000D+00
 Coeff-En:   0.000D+00 0.100D+01
 Coeff:      0.135D-01-0.180D-01 0.435D-02 0.501D-03 0.129D-01 0.158D+00
 Coeff:      0.296D+00 0.533D+00
 Gap=     0.269 Goal=   None    Shift=    0.000
 RMSDP=4.40D-06 MaxDP=4.52D-04 DE=-1.29D-04 OVMax= 1.01D-03

 Initial convergence to 1.0D-05 achieved.  Increase integral accuracy.
 Cycle   9  Pass 1  IDiag  1:
 E= -613.620383082309     Delta-E=       -0.000044954994 Rises=F Damp=F
 DIIS: error= 8.56D-05 at cycle   1 NSaved=   1.
 NSaved= 1 IEnMin= 1 EnMin= -613.620383082309     IErMin= 1 ErrMin= 8.56D-05
 ErrMax= 8.56D-05  0.00D+00 EMaxC= 1.00D-01 BMatC= 1.07D-05 BMatP= 1.07D-05
 IDIUse=1 WtCom= 1.00D+00 WtEn= 0.00D+00
 Coeff-Com:  0.100D+01
 Coeff:      0.100D+01
 Gap=     0.269 Goal=   None    Shift=    0.000
 RMSDP=4.40D-06 MaxDP=4.52D-04 DE=-4.50D-05 OVMax= 1.25D-03

 Cycle  10  Pass 1  IDiag  1:
 RMSU=  2.62D-05    CP:  1.00D+00
 E= -613.620381736599     Delta-E=        0.000001345710 Rises=F Damp=F
 DIIS: error= 1.12D-04 at cycle   2 NSaved=   2.
 NSaved= 2 IEnMin= 1 EnMin= -613.620383082309     IErMin= 1 ErrMin= 8.56D-05
 ErrMax= 1.12D-04  0.00D+00 EMaxC= 1.00D-01 BMatC= 1.12D-05 BMatP= 1.07D-05
 IDIUse=3 WtCom= 9.99D-01 WtEn= 1.12D-03
 Coeff-Com:  0.508D+00 0.492D+00
 Coeff-En:   0.557D+00 0.443D+00
 Coeff:      0.508D+00 0.492D+00
 Gap=     0.269 Goal=   None    Shift=    0.000
 RMSDP=3.89D-06 MaxDP=4.26D-04 DE= 1.35D-06 OVMax= 1.24D-03

 Cycle  11  Pass 1  IDiag  1:
 RMSU=  3.88D-06    CP:  1.00D+00  9.96D-01
 E= -613.620387560271     Delta-E=       -0.000005823672 Rises=F Damp=F
 DIIS: error= 6.28D-05 at cycle   3 NSaved=   3.
 NSaved= 3 IEnMin= 3 EnMin= -613.620387560271     IErMin= 3 ErrMin= 6.28D-05
 ErrMax= 6.28D-05  0.00D+00 EMaxC= 1.00D-01 BMatC= 3.09D-06 BMatP= 1.07D-05
 IDIUse=1 WtCom= 1.00D+00 WtEn= 0.00D+00
 Coeff-Com:  0.277D-01 0.341D+00 0.631D+00
 Coeff:      0.277D-01 0.341D+00 0.631D+00
 Gap=     0.269 Goal=   None    Shift=    0.000
 RMSDP=1.40D-06 MaxDP=1.44D-04 DE=-5.82D-06 OVMax= 4.31D-04

 Cycle  12  Pass 1  IDiag  1:
 RMSU=  6.52D-07    CP:  1.00D+00  1.02D+00  7.18D-01
 E= -613.620389713262     Delta-E=       -0.000002152992 Rises=F Damp=F
 DIIS: error= 8.22D-06 at cycle   4 NSaved=   4.
 NSaved= 4 IEnMin= 4 EnMin= -613.620389713262     IErMin= 4 ErrMin= 8.22D-06
 ErrMax= 8.22D-06  0.00D+00 EMaxC= 1.00D-01 BMatC= 7.35D-08 BMatP= 3.09D-06
 IDIUse=1 WtCom= 1.00D+00 WtEn= 0.00D+00
 Coeff-Com: -0.113D-02 0.154D+00 0.311D+00 0.536D+00
 Coeff:     -0.113D-02 0.154D+00 0.311D+00 0.536D+00
 Gap=     0.269 Goal=   None    Shift=    0.000
 RMSDP=2.28D-07 MaxDP=2.18D-05 DE=-2.15D-06 OVMax= 4.41D-05

 Cycle  13  Pass 1  IDiag  1:
 RMSU=  2.20D-07    CP:  1.00D+00  1.02D+00  7.19D-01  9.44D-01
 E= -613.620389765933     Delta-E=       -0.000000052670 Rises=F Damp=F
 DIIS: error= 2.25D-06 at cycle   5 NSaved=   5.
 NSaved= 5 IEnMin= 5 EnMin= -613.620389765933     IErMin= 5 ErrMin= 2.25D-06
 ErrMax= 2.25D-06  0.00D+00 EMaxC= 1.00D-01 BMatC= 4.62D-09 BMatP= 7.35D-08
 IDIUse=1 WtCom= 1.00D+00 WtEn= 0.00D+00
 Coeff-Com: -0.281D-02 0.443D-01 0.928D-01 0.252D+00 0.614D+00
 Coeff:     -0.281D-02 0.443D-01 0.928D-01 0.252D+00 0.614D+00
 Gap=     0.269 Goal=   None    Shift=    0.000
 RMSDP=6.85D-08 MaxDP=7.28D-06 DE=-5.27D-08 OVMax= 1.19D-05

 Cycle  14  Pass 1  IDiag  1:
 RMSU=  3.79D-08    CP:  1.00D+00  1.02D+00  7.23D-01  1.01D+00  8.76D-01
 E= -613.620389769140     Delta-E=       -0.000000003207 Rises=F Damp=F
 DIIS: error= 4.74D-07 at cycle   6 NSaved=   6.
 NSaved= 6 IEnMin= 6 EnMin= -613.620389769140     IErMin= 6 ErrMin= 4.74D-07
 ErrMax= 4.74D-07  0.00D+00 EMaxC= 1.00D-01 BMatC= 2.79D-10 BMatP= 4.62D-09
 IDIUse=1 WtCom= 1.00D+00 WtEn= 0.00D+00
 Coeff-Com: -0.104D-02 0.892D-02 0.192D-01 0.741D-01 0.256D+00 0.643D+00
 Coeff:     -0.104D-02 0.892D-02 0.192D-01 0.741D-01 0.256D+00 0.643D+00
 Gap=     0.269 Goal=   None    Shift=    0.000
 RMSDP=2.36D-08 MaxDP=2.45D-06 DE=-3.21D-09 OVMax= 7.37D-06

 Cycle  15  Pass 1  IDiag  1:
 RMSU=  1.79D-08    CP:  1.00D+00  1.02D+00  7.24D-01  1.03D+00  9.01D-01
                    CP:  8.49D-01
 E= -613.620389769287     Delta-E=       -0.000000000147 Rises=F Damp=F
 DIIS: error= 4.73D-07 at cycle   7 NSaved=   7.
 NSaved= 7 IEnMin= 7 EnMin= -613.620389769287     IErMin= 7 ErrMin= 4.73D-07
 ErrMax= 4.73D-07  0.00D+00 EMaxC= 1.00D-01 BMatC= 1.50D-10 BMatP= 2.79D-10
 IDIUse=1 WtCom= 1.00D+00 WtEn= 0.00D+00
 Coeff-Com: -0.167D-03-0.278D-02-0.557D-02-0.945D-03 0.455D-01 0.446D+00
 Coeff-Com:  0.518D+00
 Coeff:     -0.167D-03-0.278D-02-0.557D-02-0.945D-03 0.455D-01 0.446D+00
 Coeff:      0.518D+00
 Gap=     0.269 Goal=   None    Shift=    0.000
 RMSDP=1.38D-08 MaxDP=1.53D-06 DE=-1.47D-10 OVMax= 3.00D-06

 Cycle  16  Pass 1  IDiag  1:
 RMSU=  6.68D-09    CP:  1.00D+00  1.02D+00  7.25D-01  1.04D+00  9.12D-01
                    CP:  1.05D+00  7.04D-01
 E= -613.620389769375     Delta-E=       -0.000000000088 Rises=F Damp=F
 DIIS: error= 7.59D-08 at cycle   8 NSaved=   8.
 NSaved= 8 IEnMin= 8 EnMin= -613.620389769375     IErMin= 8 ErrMin= 7.59D-08
 ErrMax= 7.59D-08  0.00D+00 EMaxC= 1.00D-01 BMatC= 7.56D-12 BMatP= 1.50D-10
 IDIUse=1 WtCom= 1.00D+00 WtEn= 0.00D+00
 Coeff-Com:  0.248D-04-0.245D-02-0.502D-02-0.814D-02-0.321D-02 0.173D+00
 Coeff-Com:  0.266D+00 0.580D+00
 Coeff:      0.248D-04-0.245D-02-0.502D-02-0.814D-02-0.321D-02 0.173D+00
 Coeff:      0.266D+00 0.580D+00
 Gap=     0.269 Goal=   None    Shift=    0.000
 RMSDP=3.06D-09 MaxDP=2.75D-07 DE=-8.75D-11 OVMax= 5.60D-07

 SCF Done:  E(RM06) =  -613.620389769     A.U. after   16 cycles
            NFock= 16  Conv=0.31D-08     -V/T= 2.0046
 KE= 6.107894599732D+02 PE=-3.201050326143D+03 EE= 1.091849534672D+03
 Leave Link  502 at Wed Jun 18 02:55:53 2014, MaxMem=  4294967296 cpu:     28504.8
 (Enter /home/ztw1e12/g09/l801.exe)
 DoSCS=F DFT=T ScalE2(SS,OS)=  1.000000  1.000000
 Range of M.O.s used for correlation:     1   932
 NBasis=  1036 NAE=    51 NBE=    51 NFC=     0 NFV=     0
 NROrb=    932 NOA=    51 NOB=    51 NVA=   881 NVB=   881

 **** Warning!!: The largest alpha MO coefficient is  0.12658458D+02

 Leave Link  801 at Wed Jun 18 02:55:53 2014, MaxMem=  4294967296 cpu:         0.4
 (Enter /home/ztw1e12/g09/l1002.exe)
 Minotr:  Closed shell wavefunction.
          IDoAtm=1111111111111111111111111111111
          Direct CPHF calculation.
          Differentiating once with respect to Fermi-contact.
          Electric field/nuclear overlap derivatives assumed to be zero.
          Requested convergence is 1.0D-10 RMS, and 1.0D-09 maximum.
          Secondary convergence is 1.0D-12 RMS, and 1.0D-12 maximum.
          NewPWx=T KeepS1=F KeepF1=F KeepIn=T MapXYZ=F SortEE=F KeepMc=T.
          MDV=    4294966050 using IRadAn=  199590.
 Using stored XC quadrature information.
          Solving linear equations simultaneously, MaxMat=       0.
          There are    31 degrees of freedom in the 1st order CPHF.  IDoFFX=0 NUNeed=    31.
     31 vectors produced by pass  0 Test12= 1.45D-17 3.23D-11 XBig12= 4.16D+01 2.57D+00.
 AX will form    31 AO Fock derivatives at one time.
 FoFJK:  IHMeth= 1 ICntrl=       0 DoSepK=F KAlg= 0 I1Cent=   0 FoldK=F
 IRaf= 510000000 NMat=  31 IRICut=       1 DoRegI=T DoRafI=F ISym2E=-1.
 FoFCou: FMM=F IPFlag=           0 FMFlag=      100000 FMFlg1=           0
         NFxFlg=           0 DoJE=F BraDBF=F KetDBF=F FulRan=T
         wScrn=  0.000000 ICntrl=       0 IOpCl=  0 I1Cent=           0 NGrid=           0
         NMat0=   31 NMatS0=      0 NMatT0=   31 NMatD0=   31 NMtDS0=    0 NMtDT0=    0
 Petite list used in FoFCou.
     31 vectors produced by pass  1 Test12= 1.45D-17 3.23D-11 XBig12= 3.46D-01 1.77D-01.
     31 vectors produced by pass  2 Test12= 1.45D-17 3.23D-11 XBig12= 1.71D-02 5.15D-02.
     31 vectors produced by pass  3 Test12= 1.45D-17 3.23D-11 XBig12= 3.99D-04 6.51D-03.
     31 vectors produced by pass  4 Test12= 1.45D-17 3.23D-11 XBig12= 6.65D-06 9.43D-04.
     31 vectors produced by pass  5 Test12= 1.45D-17 3.23D-11 XBig12= 1.57D-07 1.94D-04.
     31 vectors produced by pass  6 Test12= 1.45D-17 3.23D-11 XBig12= 3.67D-09 2.42D-05.
     31 vectors produced by pass  7 Test12= 1.45D-17 3.23D-11 XBig12= 1.20D-10 4.76D-06.
     31 vectors produced by pass  8 Test12= 1.45D-17 3.23D-11 XBig12= 2.63D-12 4.08D-07.
     31 vectors produced by pass  9 Test12= 1.45D-17 3.23D-11 XBig12= 6.43D-14 8.93D-08.
     31 vectors produced by pass 10 Test12= 1.45D-17 3.23D-11 XBig12= 2.53D-15 9.53D-09.
     30 vectors produced by pass 11 Test12= 1.45D-17 3.23D-11 XBig12= 2.67D-17 7.61D-10.
      7 vectors produced by pass 12 Test12= 1.45D-17 3.23D-11 XBig12= 2.29D-19 4.96D-11.
 InvSVY:  IOpt=1 It=  1 EMax= 4.44D-15
 Solved reduced A of dimension   378 with    31 vectors.
 Max diff in FC couplings:  IJMax=    11     1 Diff= 3.72D-04 IJMaxR=    26    17 DiffR= 3.71D-01
 Fermi Contact (FC) contribution to K (Hz):
                1             2             3             4             5 
      1  0.123400D+11
      2  0.270587D+02  0.123400D+11
      3 -0.112688D+01  0.186819D+02  0.123400D+11
      4  0.381258D-01  0.903288D+00  0.676310D-02  0.123400D+11
      5  0.143425D-01  0.129409D-01  0.875561D-02  0.169324D+02  0.123400D+11
      6  0.155694D-02 -0.140544D-01  0.585207D-02  0.160859D+02 -0.829992D+00
      7  0.433852D-01  0.169910D-01  0.662310D-02  0.188478D+02 -0.849111D+00
      8 -0.964672D+01  0.271960D+01  0.430642D+00  0.234453D+01  0.327902D-01
      9  0.294572D+00  0.195459D+02 -0.728713D+00  0.124942D+01  0.320470D+00
     10  0.644601D-01  0.226232D+00  0.168990D+00 -0.977608D-01 -0.155114D-01
     11  0.288405D+02  0.139179D+02  0.217803D+00  0.178860D+00  0.488148D-02
     12  0.463065D+00  0.115348D+00 -0.240306D-01  0.285610D-02 -0.150553D-03
     13 -0.379856D+00  0.107636D+01  0.165880D-01 -0.291326D-02  0.209471D-03
     14  0.202607D+00 -0.921889D-01  0.160893D-01  0.392811D-02 -0.795224D-04
     15  0.186488D+00 -0.749830D-01  0.840539D-02 -0.116033D-02  0.496799D-04
     16  0.961744D+00 -0.259766D-01 -0.769678D-03  0.479113D-03  0.742901D-04
     17  0.135959D+00 -0.410492D+00  0.277452D+00  0.178608D-01  0.203692D-01
     18 -0.156790D+00  0.904949D+00 -0.840229D-01 -0.508010D-02 -0.176789D-02
     19 -0.138459D-02  0.106745D+00 -0.157469D-02 -0.678343D-03  0.218560D-03
     20  0.524073D-01  0.313719D-01  0.167859D-01  0.158912D-02  0.683408D-03
     21  0.767793D-01  0.268334D-01  0.271036D-01  0.841500D-03  0.520024D-03
     22  0.496591D+00  0.845480D+00  0.235492D+00  0.106042D+00  0.134001D-01
     23  0.599409D+00 -0.721998D+00  0.114338D+01  0.168960D+02 -0.684725D+00
     24 -0.299305D-01  0.663136D+00 -0.281238D-01 -0.854947D+00  0.132914D+00
     25  0.134768D+00  0.883291D-01 -0.312261D-01  0.245023D+00  0.440677D+00
     26  0.192416D-01  0.105432D-01  0.234294D-02  0.426403D+00 -0.666873D-02
     27  0.812069D-03 -0.720215D-02 -0.274664D-04  0.128009D+01  0.190661D-01
     28  0.769419D-02  0.279432D-02  0.127502D-02  0.316118D+00 -0.967425D-02
     29 -0.333884D+00  0.164556D+02 -0.887124D+00 -0.298046D+00  0.115554D+01
     30  0.115148D+01 -0.105733D+01  0.163637D+00  0.259304D-01 -0.236473D-01
     31  0.138417D+00 -0.397543D+00  0.156068D+00  0.627326D+00  0.156898D-01
                6             7             8             9            10 
      6  0.123400D+11
      7 -0.752553D+00  0.123400D+11
      8 -0.502021D-01 -0.144863D+00  0.123400D+11
      9  0.566278D+00  0.100846D+00  0.224252D+00  0.123400D+11
     10 -0.433191D-01  0.116468D-01  0.154943D-02  0.317937D+02  0.123400D+11
     11 -0.179807D-02 -0.104091D-01  0.651775D+01  0.118226D+01  0.177633D+00
     12 -0.110364D-03 -0.101336D-02  0.490538D+00  0.469998D-01  0.252753D-03
     13 -0.257211D-03  0.180299D-02  0.679309D+00  0.305089D+00  0.182988D-01
     14  0.328008D-04  0.110656D-03  0.243621D+00 -0.727881D-02 -0.130841D-02
     15  0.942041D-04  0.402299D-03  0.242814D+00 -0.332802D-02 -0.111155D-02
     16 -0.193939D-04  0.168461D-03  0.185929D+00  0.237449D-01 -0.898658D-03
     17  0.253463D-01  0.124644D-01  0.452131D-01  0.265499D+02  0.404559D+00
     18  0.221163D-02 -0.491637D-03  0.765255D-01  0.126801D+02  0.958203D-01
     19  0.322197D-02  0.298585D-04 -0.643031D-03  0.343226D+00 -0.975933D-02
     20  0.693808D-03  0.413776D-03  0.419538D-02  0.407265D+00 -0.496504D-02
     21  0.467376D-04  0.353848D-03  0.320771D-02  0.330310D+00 -0.172981D-01
     22  0.147406D-01  0.367910D-02  0.673893D+00  0.568759D+01  0.424266D+00
     23 -0.498747D+00 -0.790671D+00 -0.417871D-01  0.117050D+00 -0.108208D-02
     24  0.141553D+00  0.429467D+00  0.638300D-01 -0.875532D-02  0.510232D-02
     25  0.145086D+01  0.364669D+00  0.234711D+00  0.203407D+00 -0.676315D-02
     26 -0.776175D-02 -0.229407D-01  0.884367D-01  0.434417D-02  0.825480D-05
     27  0.876024D-01 -0.955677D-02  0.410087D-02  0.506080D-02 -0.365883D-03
     28  0.300088D-02 -0.535751D-02  0.115539D-01 -0.357423D-02 -0.339046D-03
     29  0.115206D+00  0.355793D+00  0.278263D+00  0.468619D+00  0.462325D+00
     30 -0.316657D-02 -0.646907D-02  0.714602D-01  0.607458D+00 -0.165057D-01
     31 -0.961705D-02 -0.106397D-01 -0.197264D-01  0.186643D+01 -0.220235D-01
               11            12            13            14            15 
     11  0.123400D+11
     12  0.312430D+02  0.123400D+11
     13  0.170328D+02  0.313744D+00  0.123400D+11
     14 -0.605584D+00  0.632063D-01  0.195986D+02  0.123400D+11
     15 -0.527688D+00  0.156919D+00  0.203265D+02 -0.733255D+00  0.123400D+11
     16 -0.378633D+00  0.287022D+00  0.182600D+02 -0.731167D+00 -0.763423D+00
     17 -0.622485D-01  0.227873D-03 -0.689352D-02  0.581054D-03  0.139527D-03
     18  0.132153D-01  0.102236D-02  0.107222D-01  0.157337D-02  0.106749D-02
     19  0.710336D-02  0.528125D-04  0.117731D-03 -0.700397D-04 -0.404633D-04
     20 -0.296834D-02 -0.164830D-03 -0.422232D-03  0.432647D-04 -0.309548D-04
     21  0.130696D-01 -0.120755D-03  0.174450D-02  0.145580D-03 -0.449881D-04
     22  0.185947D+00 -0.178071D-02  0.692906D-02  0.713320D-02  0.345812D-02
     23 -0.233204D-01  0.176205D-02 -0.720373D-02 -0.270046D-02 -0.114003D-02
     24  0.330136D-02 -0.461072D-03  0.392452D-02  0.760401D-03  0.723703D-04
     25  0.172392D+00 -0.126767D-01  0.157803D-01  0.161324D-01  0.712983D-02
     26  0.578847D-01 -0.138138D-02  0.193074D-01  0.965333D-02  0.299269D-02
     27 -0.130795D-02  0.859094D-03 -0.223034D-02 -0.400338D-03  0.463111D-04
     28  0.264666D-01 -0.863166D-03  0.393908D-03  0.198014D-02  0.126131D-02
     29  0.166469D+00 -0.338344D-01 -0.138245D+00  0.833852D-01  0.105836D+00
     30 -0.423506D-01 -0.595635D-02 -0.408853D-02  0.257750D-02  0.392701D-02
     31  0.525574D-01 -0.934911D-02 -0.231304D-02  0.507050D-03  0.474048D-03
               16            17            18            19            20 
     16  0.123400D+11
     17 -0.111911D-03  0.123400D+11
     18  0.264173D-03  0.272363D+02  0.123400D+11
     19  0.108928D-04 -0.760304D+00  0.170329D+02  0.123400D+11
     20  0.983483D-04 -0.117154D+01  0.179912D+02 -0.714396D+00  0.123400D+11
     21  0.351736D-03 -0.121749D+01  0.179325D+02 -0.751296D+00 -0.921797D+00
     22  0.193882D-02 -0.955666D+01  0.376914D+01  0.833782D+00  0.427084D+00
     23 -0.156145D-03 -0.620793D-01  0.974446D-02 -0.258597D-03 -0.103456D-02
     24  0.215592D-03  0.648951D-02 -0.154255D-02  0.294637D-04 -0.136998D-04
     25  0.208167D-02  0.856593D-02  0.657852D-02  0.106635D-02  0.803201D-03
     26  0.925990D-03 -0.200611D-03  0.992365D-04 -0.297410D-04 -0.259200D-04
     27 -0.751054D-04  0.949158D-03  0.112520D-03  0.108376D-03 -0.708065D-05
     28  0.130142D-03 -0.130398D-02 -0.167761D-03 -0.150063D-04  0.253141D-04
     29  0.190458D-02  0.143318D+01 -0.357417D-01 -0.174524D-02  0.112896D-01
     30  0.349660D-03 -0.130888D-01  0.123984D-01 -0.435223D-04 -0.410938D-03
     31  0.438662D-03  0.107235D+00  0.626381D-01  0.395195D-05  0.233544D-02
               21            22            23            24            25 
     21  0.123400D+11
     22  0.448175D+00  0.123400D+11
     23 -0.264330D-03  0.668230D-01  0.123400D+11
     24  0.625914D-04  0.101988D-01  0.177087D+02  0.123400D+11
     25 -0.214411D-03  0.107355D-01  0.165697D+02 -0.819959D+00  0.123400D+11
     26  0.572426D-04  0.899218D-03 -0.723675D+00  0.433728D+00  0.171052D+02
     27 -0.277345D-04  0.100956D-03 -0.539098D+00  0.140600D+00  0.173102D+02
     28 -0.641697D-04  0.294408D-02 -0.520316D+00  0.131216D+00  0.174111D+02
     29 -0.433753D-02  0.169592D+00  0.173485D+02 -0.653907D+00  0.558277D-01
     30 -0.606523D-03 -0.114648D-02 -0.577043D+00  0.338988D+00  0.780059D+00
     31 -0.200929D-02 -0.690264D-02 -0.642487D+00  0.187415D-01  0.100930D+01
               26            27            28            29            30 
     26  0.123400D+11
     27 -0.742245D+00  0.123400D+11
     28 -0.795957D+00 -0.755135D+00  0.123400D+11
     29  0.343546D+00  0.429048D+00  0.141156D+01  0.123400D+11
     30 -0.115720D-01 -0.314525D-02  0.311703D-01  0.168052D+02  0.123400D+11
     31 -0.129599D-01 -0.160949D-01  0.339086D-01  0.175402D+02 -0.936948D+00
               31 
     31  0.123400D+11
 Fermi Contact (FC) contribution to J (Hz):
                1             2             3             4             5 
      1  0.243533D+11
      2  0.534009D+02  0.243533D+11
      3 -0.884255D+01  0.146595D+03  0.385007D+12
      4  0.752423D-01  0.178266D+01  0.530694D-01  0.243533D+11
      5  0.112544D+00  0.101546D+00  0.273175D+00  0.132867D+03  0.385007D+12
      6  0.122172D-01 -0.110284D+00  0.182584D+00  0.126225D+03 -0.258957D+02
      7  0.340439D+00  0.133327D+00  0.206640D+00  0.147897D+03 -0.264922D+02
      8  0.102659D+02 -0.289415D+01 -0.182217D+01 -0.249500D+01 -0.138744D+00
      9  0.167085D+00  0.110867D+02 -0.164345D+01  0.708684D+00  0.722750D+00
     10  0.505812D+00  0.177522D+01  0.527248D+01 -0.767120D+00 -0.483955D+00
     11  0.163587D+02  0.789442D+01  0.491209D+00  0.101452D+00  0.110091D-01
     12  0.363362D+01  0.905125D+00 -0.749754D+00  0.224115D-01 -0.469725D-02
     13 -0.749655D+00  0.212422D+01  0.130164D+00 -0.574939D-02  0.164370D-02
     14  0.158984D+01 -0.723397D+00  0.501985D+00  0.308235D-01 -0.248110D-02
     15  0.146335D+01 -0.588385D+00  0.262248D+00 -0.910502D-02  0.155001D-02
     16  0.754671D+01 -0.203836D+00 -0.240139D-01  0.375955D-02  0.231785D-02
     17  0.268318D+00 -0.810117D+00  0.217714D+01  0.352488D-01  0.159835D+00
     18 -0.309428D+00  0.178594D+01 -0.659320D+00 -0.100257D-01 -0.138724D-01
     19 -0.108647D-01  0.837619D+00 -0.491302D-01 -0.532289D-02  0.681906D-02
     20  0.411235D+00  0.246172D+00  0.523720D+00  0.124697D-01  0.213223D-01
     21  0.602480D+00  0.210559D+00  0.845632D+00  0.660317D-02  0.162247D-01
     22 -0.528463D+00 -0.899744D+00 -0.996432D+00 -0.112848D+00 -0.566993D-01
     23  0.118295D+01 -0.142488D+01  0.897199D+01  0.333447D+02 -0.537297D+01
     24 -0.234862D+00  0.520357D+01 -0.877462D+00 -0.670869D+01  0.414691D+01
     25  0.265968D+00  0.174320D+00 -0.245028D+00  0.483558D+00  0.345795D+01
     26  0.150987D+00  0.827315D-01  0.730996D-01  0.334594D+01 -0.208064D+00
     27  0.637223D-02 -0.565146D-01 -0.856950D-03  0.100447D+02  0.594861D+00
     28  0.603756D-01  0.219268D-01  0.397805D-01  0.248055D+01 -0.301836D+00
     29 -0.658929D+00  0.324756D+02 -0.696118D+01 -0.588202D+00  0.906739D+01
     30  0.903556D+01 -0.829674D+01  0.510548D+01  0.203473D+00 -0.737794D+00
     31  0.108615D+01 -0.311948D+01  0.486932D+01  0.492256D+01  0.489521D+00
                6             7             8             9            10 
      6  0.385007D+12
      7 -0.234796D+02  0.385007D+12
      8  0.212419D+00  0.612953D+00  0.708114D+10
      9  0.127712D+01  0.227436D+00 -0.685891D-01  0.201170D+10
     10 -0.135156D+01  0.363379D+00 -0.655606D-02  0.717038D+02  0.385007D+12
     11 -0.405515D-02 -0.234755D-01 -0.199350D+01  0.192736D+00  0.400613D+00
     12 -0.344335D-02 -0.316169D-01 -0.207560D+01  0.105998D+00  0.788587D-02
     13 -0.201831D-02  0.141479D-01 -0.722907D+00  0.173050D+00  0.143589D+00
     14  0.102338D-02  0.345247D-02 -0.103083D+01 -0.164158D-01 -0.408224D-01
     15  0.293916D-02  0.125517D-01 -0.102741D+01 -0.750563D-02 -0.346803D-01
     16 -0.605087D-03  0.525599D-02 -0.786714D+00  0.535515D-01 -0.280381D-01
     17  0.198890D+00  0.978071D-01 -0.481149D-01  0.150595D+02  0.317453D+01
     18  0.173544D-01 -0.385783D-02 -0.814370D-01  0.719229D+01  0.751893D+00
     19  0.100525D+00  0.931583D-03  0.272084D-02  0.774072D+00 -0.304491D+00
     20  0.216468D-01  0.129098D-01 -0.177518D-01  0.918499D+00 -0.154909D+00
     21  0.145821D-02  0.110400D-01 -0.135727D-01  0.744943D+00 -0.539699D+00
     22 -0.623716D-01 -0.155673D-01  0.386705D+00 -0.173959D+01 -0.179518D+01
     23 -0.391362D+01 -0.620432D+01  0.444690D-01  0.663923D-01 -0.849101D-02
     24  0.441644D+01  0.133994D+02 -0.270082D+00 -0.197457D-01  0.159192D+00
     25  0.113848D+02  0.286152D+01 -0.249774D+00  0.115375D+00 -0.530698D-01
     26 -0.242166D+00 -0.715747D+00 -0.374200D+00  0.979733D-02  0.257549D-03
     27  0.273319D+01 -0.298171D+00 -0.173519D-01  0.114135D-01 -0.114155D-01
     28  0.936273D-01 -0.167154D+00 -0.488877D-01 -0.806090D-02 -0.105782D-01
     29  0.904014D+00  0.279187D+01 -0.296122D+00  0.265807D+00  0.362782D+01
     30 -0.987968D-01 -0.201835D+00 -0.302368D+00  0.136999D+01 -0.514976D+00
     31 -0.300052D+00 -0.331958D+00  0.834677D-01  0.420934D+01 -0.687132D+00
               11            12            13            14            15 
     11  0.201170D+10
     12  0.704618D+02  0.385007D+12
     13  0.966123D+01  0.246192D+01  0.243533D+11
     14 -0.136576D+01  0.197203D+01  0.153788D+03  0.385007D+12
     15 -0.119009D+01  0.489587D+01  0.159500D+03 -0.228775D+02  0.385007D+12
     16 -0.853926D+00  0.895508D+01  0.143285D+03 -0.228124D+02 -0.238188D+02
     17 -0.353081D-01  0.178810D-02 -0.136045D-01  0.455947D-02  0.109485D-02
     18  0.749589D-02  0.802239D-02  0.211604D-01  0.123461D-01  0.837649D-02
     19  0.160201D-01  0.164775D-02  0.923827D-03 -0.218523D-02 -0.126245D-02
     20 -0.669445D-02 -0.514268D-02 -0.331321D-02  0.134986D-02 -0.965789D-03
     21  0.294758D-01 -0.376756D-02  0.136889D-01  0.454208D-02 -0.140363D-02
     22 -0.568732D-01  0.753468D-02 -0.737377D-02 -0.301825D-01 -0.146323D-01
     23 -0.132276D-01  0.138266D-01 -0.142167D-01 -0.211903D-01 -0.894569D-02
     24  0.744550D-02 -0.143854D-01  0.307954D-01  0.237245D-01  0.225795D-02
     25  0.977828D-01 -0.994730D-01  0.311428D-01  0.126589D+00  0.559471D-01
     26  0.130546D+00 -0.430990D-01  0.151503D+00  0.301184D+00  0.933717D-01
     27 -0.294980D-02  0.268037D-01 -0.175013D-01 -0.124905D-01  0.144490D-02
     28  0.596897D-01 -0.269307D-01  0.309096D-02  0.617803D-01  0.393529D-01
     29  0.944231D-01 -0.265495D+00 -0.272829D+00  0.654315D+00  0.830483D+00
     30 -0.955126D-01 -0.185838D+00 -0.320823D-01  0.804179D-01  0.122523D+00
     31  0.118532D+00 -0.291692D+00 -0.181502D-01  0.158200D-01  0.147903D-01
               16            17            18            19            20 
     16  0.385007D+12
     17 -0.878157D-03  0.243533D+11
     18  0.207294D-02  0.537516D+02  0.243533D+11
     19  0.339854D-03 -0.596603D+01  0.133655D+03  0.385007D+12
     20  0.306846D-02 -0.919297D+01  0.141175D+03 -0.222891D+02  0.385007D+12
     21  0.109741D-01 -0.955350D+01  0.140715D+03 -0.234404D+02 -0.287600D+02
     22 -0.820367D-02  0.101700D+02 -0.401105D+01 -0.352796D+01 -0.180711D+01
     23 -0.122526D-02 -0.122515D+00  0.192309D-01 -0.202919D-02 -0.811808D-02
     24  0.672645D-02  0.509226D-01 -0.121043D-01  0.919265D-03 -0.427433D-03
     25  0.163347D-01  0.169051D-01  0.129829D-01  0.836751D-02  0.630264D-02
     26  0.288908D-01 -0.157418D-02  0.778699D-03 -0.927916D-03 -0.808702D-03
     27 -0.234328D-02  0.744795D-02  0.882930D-03  0.338133D-02 -0.220916D-03
     28  0.406042D-02 -0.102322D-01 -0.131640D-02 -0.468197D-03  0.789799D-03
     29  0.149451D-01  0.282843D+01 -0.705372D-01 -0.136947D-01  0.885882D-01
     30  0.109094D-01 -0.102706D+00  0.972889D-01 -0.135789D-02 -0.128212D-01
     31  0.136862D-01  0.841466D+00  0.491515D+00  0.123301D-03  0.728656D-01
               21            22            23            24            25 
     21  0.385007D+12
     22 -0.189635D+01  0.708114D+10
     23 -0.207417D-02 -0.711118D-01  0.243533D+11
     24  0.195285D-02 -0.431539D-01  0.138958D+03  0.385007D+12
     25 -0.168246D-02 -0.114245D-01  0.327007D+02 -0.643414D+01  0.243533D+11
     26  0.178597D-02 -0.380484D-02 -0.567861D+01  0.135323D+02  0.134223D+03
     27 -0.865315D-03 -0.427171D-03 -0.423025D+01  0.438671D+01  0.135831D+03
     28 -0.200209D-02 -0.124572D-01 -0.408287D+01  0.409394D+01  0.136623D+03
     29 -0.340362D-01 -0.180477D+00  0.342378D+02 -0.513115D+01  0.110177D+00
     30 -0.189235D-01  0.485107D-02 -0.452800D+01  0.105764D+02  0.612104D+01
     31 -0.626896D-01  0.292069D-01 -0.504154D+01  0.584734D+00  0.791991D+01
               26            27            28            29            30 
     26  0.385007D+12
     27 -0.231580D+02  0.385007D+12
     28 -0.248338D+02 -0.235602D+02  0.385007D+12
     29  0.269577D+01  0.336670D+01  0.110764D+02  0.243533D+11
     30 -0.361046D+00 -0.981317D-01  0.972512D+00  0.131869D+03  0.385007D+12
     31 -0.404349D+00 -0.502161D+00  0.105795D+01  0.137636D+03 -0.292327D+02
               31 
     31  0.385007D+12
 End of Minotr F.D. properties file   721 does not exist.
 End of Minotr F.D. properties file   722 does not exist.
 End of Minotr F.D. properties file   788 does not exist.
 Leave Link 1002 at Wed Jun 18 09:43:11 2014, MaxMem=  4294967296 cpu:    390047.9
 (Enter /home/ztw1e12/g09/l601.exe)
 Copying SCF densities to generalized density rwf, IOpCl= 0 IROHF=0.

 **********************************************************************

            Population analysis using the SCF density.

 **********************************************************************

 Orbital symmetries:
       Occupied  (A) (A) (A) (A) (A) (A) (A) (A) (A) (A) (A) (A)
                 (A) (A) (A) (A) (A) (A) (A) (A) (A) (A) (A) (A)
                 (A) (A) (A) (A) (A) (A) (A) (A) (A) (A) (A) (A)
                 (A) (A) (A) (A) (A) (A) (A) (A) (A) (A) (A) (A)
                 (A) (A) (A)
       Virtual   (A) (A) (A) (A) (A) (A) (A) (A) (A) (A) (A) (A)
                 (A) (A) (A) (A) (A) (A) (A) (A) (A) (A) (A) (A)
                 (A) (A) (A) (A) (A) (A) (A) (A) (A) (A) (A) (A)
                 (A) (A) (A) (A) (A) (A) (A) (A) (A) (A) (A) (A)
                 (A) (A) (A) (A) (A) (A) (A) (A) (A) (A) (A) (A)
                 (A) (A) (A) (A) (A) (A) (A) (A) (A) (A) (A) (A)
                 (A) (A) (A) (A) (A) (A) (A) (A) (A) (A) (A) (A)
                 (A) (A) (A) (A) (A) (A) (A) (A) (A) (A) (A) (A)
                 (A) (A) (A) (A) (A) (A) (A) (A) (A) (A) (A) (A)
                 (A) (A) (A) (A) (A) (A) (A) (A) (A) (A) (A) (A)
                 (A) (A) (A) (A) (A) (A) (A) (A) (A) (A) (A) (A)
                 (A) (A) (A) (A) (A) (A) (A) (A) (A) (A) (A) (A)
                 (A) (A) (A) (A) (A) (A) (A) (A) (A) (A) (A) (A)
                 (A) (A) (A) (A) (A) (A) (A) (A) (A) (A) (A) (A)
                 (A) (A) (A) (A) (A) (A) (A) (A) (A) (A) (A) (A)
                 (A) (A) (A) (A) (A) (A) (A) (A) (A) (A) (A) (A)
                 (A) (A) (A) (A) (A) (A) (A) (A) (A) (A) (A) (A)
                 (A) (A) (A) (A) (A) (A) (A) (A) (A) (A) (A) (A)
                 (A) (A) (A) (A) (A) (A) (A) (A) (A) (A) (A) (A)
                 (A) (A) (A) (A) (A) (A) (A) (A) (A) (A) (A) (A)
                 (A) (A) (A) (A) (A) (A) (A) (A) (A) (A) (A) (A)
                 (A) (A) (A) (A) (A) (A) (A) (A) (A) (A) (A) (A)
                 (A) (A) (A) (A) (A) (A) (A) (A) (A) (A) (A) (A)
                 (A) (A) (A) (A) (A) (A) (A) (A) (A) (A) (A) (A)
                 (A) (A) (A) (A) (A) (A) (A) (A) (A) (A) (A) (A)
                 (A) (A) (A) (A) (A) (A) (A) (A) (A) (A) (A) (A)
                 (A) (A) (A) (A) (A) (A) (A) (A) (A) (A) (A) (A)
                 (A) (A) (A) (A) (A) (A) (A) (A) (A) (A) (A) (A)
                 (A) (A) (A) (A) (A) (A) (A) (A) (A) (A) (A) (A)
                 (A) (A) (A) (A) (A) (A) (A) (A) (A) (A) (A) (A)
                 (A) (A) (A) (A) (A) (A) (A) (A) (A) (A) (A) (A)
                 (A) (A) (A) (A) (A) (A) (A) (A) (A) (A) (A) (A)
                 (A) (A) (A) (A) (A) (A) (A) (A) (A) (A) (A) (A)
                 (A) (A) (A) (A) (A) (A) (A) (A) (A) (A) (A) (A)
                 (A) (A) (A) (A) (A) (A) (A) (A) (A) (A) (A) (A)
                 (A) (A) (A) (A) (A) (A) (A) (A) (A) (A) (A) (A)
                 (A) (A) (A) (A) (A) (A) (A) (A) (A) (A) (A) (A)
                 (A) (A) (A) (A) (A) (A) (A) (A) (A) (A) (A) (A)
                 (A) (A) (A) (A) (A) (A) (A) (A) (A) (A) (A) (A)
                 (A) (A) (A) (A) (A) (A) (A) (A) (A) (A) (A) (A)
                 (A) (A) (A) (A) (A) (A) (A) (A) (A) (A) (A) (A)
                 (A) (A) (A) (A) (A) (A) (A) (A) (A) (A) (A) (A)
                 (A) (A) (A) (A) (A) (A) (A) (A) (A) (A) (A) (A)
                 (A) (A) (A) (A) (A) (A) (A) (A) (A) (A) (A) (A)
                 (A) (A) (A) (A) (A) (A) (A) (A) (A) (A) (A) (A)
                 (A) (A) (A) (A) (A) (A) (A) (A) (A) (A) (A) (A)
                 (A) (A) (A) (A) (A) (A) (A) (A) (A) (A) (A) (A)
                 (A) (A) (A) (A) (A) (A) (A) (A) (A) (A) (A) (A)
                 (A) (A) (A) (A) (A) (A) (A) (A) (A) (A) (A) (A)
                 (A) (A) (A) (A) (A) (A) (A) (A) (A) (A) (A) (A)
                 (A) (A) (A) (A) (A) (A) (A) (A) (A) (A) (A) (A)
                 (A) (A) (A) (A) (A) (A) (A) (A) (A) (A) (A) (A)
                 (A) (A) (A) (A) (A) (A) (A) (A) (A) (A) (A) (A)
                 (A) (A) (A) (A) (A) (A) (A) (A) (A) (A) (A) (A)
                 (A) (A) (A) (A) (A) (A) (A) (A) (A) (A) (A) (A)
                 (A) (A) (A) (A) (A) (A) (A) (A) (A) (A) (A) (A)
                 (A) (A) (A) (A) (A) (A) (A) (A) (A) (A) (A) (A)
                 (A) (A) (A) (A) (A) (A) (A) (A) (A) (A) (A) (A)
                 (A) (A) (A) (A) (A) (A) (A) (A) (A) (A) (A) (A)
                 (A) (A) (A) (A) (A) (A) (A) (A) (A) (A) (A) (A)
                 (A) (A) (A) (A) (A) (A) (A) (A) (A) (A) (A) (A)
                 (A) (A) (A) (A) (A) (A) (A) (A) (A) (A) (A) (A)
                 (A) (A) (A) (A) (A) (A) (A) (A) (A) (A) (A) (A)
                 (A) (A) (A) (A) (A) (A) (A) (A) (A) (A) (A) (A)
                 (A) (A) (A) (A) (A) (A) (A) (A) (A) (A) (A) (A)
                 (A) (A) (A) (A) (A) (A) (A) (A) (A) (A) (A) (A)
                 (A) (A) (A) (A) (A) (A) (A) (A) (A) (A) (A) (A)
                 (A) (A) (A) (A) (A) (A) (A) (A) (A) (A) (A) (A)
                 (A) (A) (A) (A) (A) (A) (A) (A) (A) (A) (A) (A)
                 (A) (A) (A) (A) (A) (A) (A) (A) (A) (A) (A) (A)
                 (A) (A) (A) (A) (A) (A) (A) (A) (A) (A) (A) (A)
                 (A) (A) (A) (A) (A) (A) (A) (A) (A) (A) (A) (A)
                 (A) (A) (A) (A) (A) (A) (A) (A) (A) (A) (A) (A)
                 (A) (A) (A) (A) (A)
 The electronic state is 1-A.
 Alpha  occ. eigenvalues --  -19.17256 -19.16379 -14.41816 -14.41358 -10.33504
 Alpha  occ. eigenvalues --  -10.33279 -10.29327 -10.27124 -10.25715 -10.25439
 Alpha  occ. eigenvalues --  -10.23722 -10.23178 -10.22802  -1.05430  -1.04059
 Alpha  occ. eigenvalues --   -0.94359  -0.94132  -0.83538  -0.78540  -0.74311
 Alpha  occ. eigenvalues --   -0.72055  -0.69914  -0.66410  -0.60780  -0.59603
 Alpha  occ. eigenvalues --   -0.58052  -0.54780  -0.50729  -0.49491  -0.48084
 Alpha  occ. eigenvalues --   -0.46827  -0.46472  -0.45364  -0.45080  -0.44443
 Alpha  occ. eigenvalues --   -0.42519  -0.41413  -0.40961  -0.40570  -0.40114
 Alpha  occ. eigenvalues --   -0.39642  -0.38589  -0.37744  -0.36536  -0.35235
 Alpha  occ. eigenvalues --   -0.34167  -0.33154  -0.28332  -0.27546  -0.26109
 Alpha  occ. eigenvalues --   -0.25918
 Alpha virt. eigenvalues --    0.00993   0.02378   0.02579   0.03710   0.04733
 Alpha virt. eigenvalues --    0.04853   0.06869   0.07420   0.07749   0.08335
 Alpha virt. eigenvalues --    0.10051   0.10726   0.10800   0.11681   0.12241
 Alpha virt. eigenvalues --    0.12390   0.12918   0.14341   0.15226   0.15766
 Alpha virt. eigenvalues --    0.16678   0.17289   0.17974   0.18934   0.20353
 Alpha virt. eigenvalues --    0.20863   0.23126   0.23231   0.24161   0.24316
 Alpha virt. eigenvalues --    0.25283   0.25963   0.26757   0.27220   0.27920
 Alpha virt. eigenvalues --    0.28921   0.29759   0.30493   0.31300   0.32092
 Alpha virt. eigenvalues --    0.33234   0.34122   0.34315   0.35115   0.35874
 Alpha virt. eigenvalues --    0.36606   0.37424   0.38102   0.38863   0.39315
 Alpha virt. eigenvalues --    0.39558   0.39973   0.40544   0.40898   0.41140
 Alpha virt. eigenvalues --    0.41933   0.42496   0.42767   0.43068   0.43377
 Alpha virt. eigenvalues --    0.43700   0.44111   0.44787   0.45208   0.45620
 Alpha virt. eigenvalues --    0.46006   0.46692   0.47491   0.48027   0.48779
 Alpha virt. eigenvalues --    0.50163   0.50724   0.50919   0.51816   0.52287
 Alpha virt. eigenvalues --    0.53568   0.54089   0.54414   0.55612   0.56608
 Alpha virt. eigenvalues --    0.58092   0.59383   0.59434   0.61127   0.61736
 Alpha virt. eigenvalues --    0.63142   0.64562   0.64903   0.65842   0.67153
 Alpha virt. eigenvalues --    0.69186   0.70452   0.71449   0.72599   0.74654
 Alpha virt. eigenvalues --    0.75434   0.75943   0.76405   0.77715   0.79669
 Alpha virt. eigenvalues --    0.79947   0.80658   0.81253   0.82710   0.83113
 Alpha virt. eigenvalues --    0.84017   0.85606   0.86266   0.86392   0.87849
 Alpha virt. eigenvalues --    0.88497   0.88603   0.89929   0.91481   0.91993
 Alpha virt. eigenvalues --    0.92962   0.94049   0.94441   0.94585   0.95327
 Alpha virt. eigenvalues --    0.95655   0.96658   0.96941   0.97478   0.98473
 Alpha virt. eigenvalues --    0.99108   1.00086   1.00877   1.01424   1.02977
 Alpha virt. eigenvalues --    1.03788   1.04373   1.05129   1.05675   1.06498
 Alpha virt. eigenvalues --    1.07675   1.08360   1.09157   1.10078   1.10316
 Alpha virt. eigenvalues --    1.10988   1.11862   1.12201   1.12894   1.14634
 Alpha virt. eigenvalues --    1.15285   1.16133   1.16655   1.16883   1.17496
 Alpha virt. eigenvalues --    1.18639   1.19650   1.20302   1.20478   1.21040
 Alpha virt. eigenvalues --    1.21763   1.22468   1.22967   1.23371   1.24309
 Alpha virt. eigenvalues --    1.24654   1.24921   1.25738   1.25965   1.26791
 Alpha virt. eigenvalues --    1.26910   1.28499   1.28778   1.29386   1.30192
 Alpha virt. eigenvalues --    1.30446   1.31204   1.31845   1.32447   1.32972
 Alpha virt. eigenvalues --    1.34731   1.35291   1.35920   1.36594   1.37375
 Alpha virt. eigenvalues --    1.37902   1.39235   1.39901   1.40446   1.41701
 Alpha virt. eigenvalues --    1.42515   1.43939   1.45509   1.47041   1.48624
 Alpha virt. eigenvalues --    1.49597   1.50614   1.52637   1.53120   1.56600
 Alpha virt. eigenvalues --    1.57111   1.59049   1.60853   1.62068   1.62951
 Alpha virt. eigenvalues --    1.65825   1.68169   1.69669   1.71331   1.74139
 Alpha virt. eigenvalues --    1.74781   1.75779   1.78288   1.80267   1.82748
 Alpha virt. eigenvalues --    1.84419   1.87902   1.89472   1.92410   1.92636
 Alpha virt. eigenvalues --    1.93725   1.97427   1.97629   1.98134   2.00037
 Alpha virt. eigenvalues --    2.01674   2.01778   2.04360   2.05292   2.05981
 Alpha virt. eigenvalues --    2.08954   2.09390   2.11773   2.13389   2.15776
 Alpha virt. eigenvalues --    2.17539   2.19667   2.20243   2.20693   2.23459
 Alpha virt. eigenvalues --    2.23677   2.24242   2.26522   2.28484   2.30138
 Alpha virt. eigenvalues --    2.32095   2.34802   2.35753   2.38395   2.38724
 Alpha virt. eigenvalues --    2.40785   2.41579   2.42656   2.43580   2.44668
 Alpha virt. eigenvalues --    2.45408   2.46007   2.46791   2.47909   2.49353
 Alpha virt. eigenvalues --    2.51033   2.51609   2.53288   2.53922   2.55074
 Alpha virt. eigenvalues --    2.55508   2.57030   2.58752   2.59243   2.62205
 Alpha virt. eigenvalues --    2.64528   2.66714   2.67693   2.68314   2.68494
 Alpha virt. eigenvalues --    2.70445   2.71061   2.71949   2.72604   2.74061
 Alpha virt. eigenvalues --    2.74404   2.75199   2.76467   2.77557   2.77816
 Alpha virt. eigenvalues --    2.80508   2.80842   2.81421   2.82074   2.82847
 Alpha virt. eigenvalues --    2.84413   2.85076   2.85509   2.86681   2.87444
 Alpha virt. eigenvalues --    2.88557   2.89190   2.89756   2.90582   2.91821
 Alpha virt. eigenvalues --    2.92567   2.92989   2.93930   2.94869   2.95211
 Alpha virt. eigenvalues --    2.96333   2.96985   2.97345   2.97929   2.98447
 Alpha virt. eigenvalues --    2.99466   3.00686   3.00947   3.01508   3.02263
 Alpha virt. eigenvalues --    3.03784   3.03890   3.05051   3.06114   3.07095
 Alpha virt. eigenvalues --    3.07878   3.08472   3.09102   3.09785   3.11677
 Alpha virt. eigenvalues --    3.11785   3.12776   3.13739   3.14944   3.15749
 Alpha virt. eigenvalues --    3.16101   3.16674   3.17624   3.19135   3.20187
 Alpha virt. eigenvalues --    3.20699   3.21543   3.22112   3.22681   3.24717
 Alpha virt. eigenvalues --    3.25545   3.25766   3.26734   3.27106   3.28600
 Alpha virt. eigenvalues --    3.28641   3.30082   3.30662   3.30980   3.32307
 Alpha virt. eigenvalues --    3.32723   3.33007   3.34439   3.35729   3.36747
 Alpha virt. eigenvalues --    3.37318   3.37654   3.38817   3.38917   3.40241
 Alpha virt. eigenvalues --    3.40475   3.41220   3.42132   3.42824   3.43679
 Alpha virt. eigenvalues --    3.43856   3.45278   3.45877   3.46877   3.47568
 Alpha virt. eigenvalues --    3.50080   3.50773   3.51479   3.51972   3.53357
 Alpha virt. eigenvalues --    3.54912   3.56311   3.57944   3.58629   3.59144
 Alpha virt. eigenvalues --    3.59699   3.62115   3.63546   3.64047   3.65396
 Alpha virt. eigenvalues --    3.66300   3.66693   3.68441   3.69354   3.71390
 Alpha virt. eigenvalues --    3.71854   3.72942   3.73805   3.74298   3.76923
 Alpha virt. eigenvalues --    3.77181   3.78032   3.78424   3.79736   3.80013
 Alpha virt. eigenvalues --    3.80950   3.82280   3.83626   3.84663   3.85314
 Alpha virt. eigenvalues --    3.85818   3.86418   3.87954   3.89417   3.90081
 Alpha virt. eigenvalues --    3.90644   3.91840   3.93539   3.93728   3.94349
 Alpha virt. eigenvalues --    3.95839   3.97226   3.97828   3.98501   4.00201
 Alpha virt. eigenvalues --    4.01101   4.02146   4.02715   4.04762   4.05366
 Alpha virt. eigenvalues --    4.06712   4.06862   4.07435   4.08859   4.09534
 Alpha virt. eigenvalues --    4.10030   4.12679   4.13288   4.14332   4.15188
 Alpha virt. eigenvalues --    4.16697   4.16858   4.17885   4.18654   4.19753
 Alpha virt. eigenvalues --    4.21504   4.22073   4.22736   4.23832   4.24998
 Alpha virt. eigenvalues --    4.25601   4.26762   4.27548   4.28445   4.29782
 Alpha virt. eigenvalues --    4.31176   4.32431   4.33110   4.34424   4.35228
 Alpha virt. eigenvalues --    4.35857   4.37008   4.38637   4.39053   4.41666
 Alpha virt. eigenvalues --    4.43835   4.44974   4.46222   4.48701   4.48889
 Alpha virt. eigenvalues --    4.50170   4.52388   4.53316   4.53761   4.55096
 Alpha virt. eigenvalues --    4.57831   4.58522   4.59758   4.60703   4.61874
 Alpha virt. eigenvalues --    4.62105   4.62815   4.63545   4.64075   4.65939
 Alpha virt. eigenvalues --    4.66670   4.68330   4.70138   4.71218   4.73081
 Alpha virt. eigenvalues --    4.73701   4.74384   4.75860   4.76529   4.77076
 Alpha virt. eigenvalues --    4.78171   4.79284   4.80982   4.81475   4.82780
 Alpha virt. eigenvalues --    4.84197   4.85284   4.89201   4.91215   4.92360
 Alpha virt. eigenvalues --    4.92671   4.93762   4.94815   4.95196   4.95613
 Alpha virt. eigenvalues --    4.98120   4.98717   4.99999   5.01707   5.02785
 Alpha virt. eigenvalues --    5.03356   5.04848   5.07155   5.07362   5.09635
 Alpha virt. eigenvalues --    5.11191   5.12570   5.13312   5.14235   5.15429
 Alpha virt. eigenvalues --    5.16000   5.17449   5.18809   5.19172   5.21579
 Alpha virt. eigenvalues --    5.22083   5.22878   5.23411   5.24924   5.25724
 Alpha virt. eigenvalues --    5.27166   5.27390   5.29831   5.30589   5.30708
 Alpha virt. eigenvalues --    5.31977   5.33373   5.36679   5.38348   5.40435
 Alpha virt. eigenvalues --    5.42012   5.43797   5.45354   5.46367   5.49767
 Alpha virt. eigenvalues --    5.52913   5.53203   5.56642   5.58537   5.59756
 Alpha virt. eigenvalues --    5.60525   5.62183   5.63541   5.65421   5.65690
 Alpha virt. eigenvalues --    5.66980   5.68555   5.69087   5.69504   5.72471
 Alpha virt. eigenvalues --    5.73980   5.75181   5.76347   5.78640   5.81067
 Alpha virt. eigenvalues --    5.81694   5.83257   5.83732   5.88098   5.89258
 Alpha virt. eigenvalues --    5.90936   5.94740   5.97298   6.02757   6.06152
 Alpha virt. eigenvalues --    6.11358   6.18803   6.21692   6.23500   6.27419
 Alpha virt. eigenvalues --    6.53020   6.56307   6.58315   6.61773   6.64538
 Alpha virt. eigenvalues --    6.67094   6.77327   6.82304   6.90543   6.92172
 Alpha virt. eigenvalues --    6.93319   6.94806   7.18601   7.20371   7.24369
 Alpha virt. eigenvalues --    7.28175   8.13463   8.30803   8.67142   8.73493
 Alpha virt. eigenvalues --    8.78742   8.78972   8.80571   8.83002   8.83144
 Alpha virt. eigenvalues --    8.85766   8.86991   8.88357   8.89107   8.90782
 Alpha virt. eigenvalues --    8.92712   8.95043   8.96971   8.98170   9.00232
 Alpha virt. eigenvalues --    9.04111   9.07455   9.14255   9.15426   9.17686
 Alpha virt. eigenvalues --    9.23788   9.59630   9.62145   9.77366   9.83415
 Alpha virt. eigenvalues --    9.91047   9.95881  10.08739  10.11749  10.15088
 Alpha virt. eigenvalues --   10.18253  10.19461  10.21810  10.22195  10.24889
 Alpha virt. eigenvalues --   10.27786  10.29234  10.30101  10.31605  10.34662
 Alpha virt. eigenvalues --   10.40531  11.75472  11.82998  12.04354  12.14125
 Alpha virt. eigenvalues --   12.16605  12.21963  12.24933  12.25149  12.31517
 Alpha virt. eigenvalues --   12.41496  12.47544  12.56246  12.59761  12.83745
 Alpha virt. eigenvalues --   12.92852  14.97289  15.04498  15.24219  15.27956
 Alpha virt. eigenvalues --   15.99723  16.06146  16.83375  16.91551  22.01358
 Alpha virt. eigenvalues --   22.10383  40.17375  40.27793  40.66249  40.68056
 Alpha virt. eigenvalues --   40.69689  40.70921  40.72007  40.74417  40.76420
 Alpha virt. eigenvalues --   40.77887  40.79264  40.81179  40.82217  40.82606
 Alpha virt. eigenvalues --   40.82856  40.84176  40.85005  40.85713  40.85792
 Alpha virt. eigenvalues --   40.87041  40.87945  40.88520  40.90549  40.90636
 Alpha virt. eigenvalues --   40.92034  40.93463  40.96024  46.34591  46.44145
 Alpha virt. eigenvalues --   46.48727  46.54448  46.57246  46.57673  46.63215
 Alpha virt. eigenvalues --   46.74573  46.79972  54.45853  54.47680  55.77800
 Alpha virt. eigenvalues --   55.83963  55.97585  55.97940  56.05197  56.06391
 Alpha virt. eigenvalues --   56.17593  56.23497  56.27177  56.32256  56.37447
 Alpha virt. eigenvalues --   56.43040  56.45980  56.47414  56.56618  56.63955
 Alpha virt. eigenvalues --   57.46617  57.51320  57.99604  58.02853  58.19554
 Alpha virt. eigenvalues --   58.25613  64.70654  64.78064  73.94366  73.98598
 Alpha virt. eigenvalues --   74.09960  74.11655  74.63879  74.67410  86.07152
 Alpha virt. eigenvalues --   86.15164 165.43860 165.52074 165.57483 165.62668
 Alpha virt. eigenvalues --  165.64902 165.65635 165.69590 165.79780 165.84968
 Alpha virt. eigenvalues --  226.56659 226.58734 230.57859 230.64616 235.47692
 Alpha virt. eigenvalues --  235.80771 235.88215 236.31883 236.35042 236.42075
 Alpha virt. eigenvalues --  236.96314 237.15270 237.61533 237.73312 237.84336
 Alpha virt. eigenvalues --  237.89157 237.98943 238.02617 238.14790 238.97555
 Alpha virt. eigenvalues --  308.80737 308.87854 624.55111 624.60686 624.64489
 Alpha virt. eigenvalues --  624.68714 624.70280 624.71543 624.75448 624.83020
 Alpha virt. eigenvalues --  624.87416 793.97991 794.54006 825.42701 825.72792
 Alpha virt. eigenvalues --  827.09805 827.40387 827.59243 828.20255 829.60577
 Alpha virt. eigenvalues --  830.40319 831.66175 831.86559 832.33293 832.38664
 Alpha virt. eigenvalues --  832.47791 832.73413 833.49350 835.73769 868.33879
 Alpha virt. eigenvalues --  868.405621165.934751165.999002484.700372485.35853
 Alpha virt. eigenvalues -- 2587.578502589.499032589.803812595.247852596.60748
 Alpha virt. eigenvalues -- 2596.999652598.398182601.978602606.346082606.62958
 Alpha virt. eigenvalues -- 2607.293942607.385042608.124442608.167512610.13004
 Alpha virt. eigenvalues -- 2617.509752740.323202740.341612740.392602740.42201
 Alpha virt. eigenvalues -- 2740.435132740.504552740.533172740.546462740.57887
 Alpha virt. eigenvalues -- 3787.316423787.382265073.316285073.372648285.72376
 Alpha virt. eigenvalues -- 8295.937468612.822908625.949008635.025298637.10804
 Alpha virt. eigenvalues -- 8637.314658646.617808653.565498661.682988672.66314
 Alpha virt. eigenvalues -- 8673.618478676.954868677.069908679.399218679.93892
 Alpha virt. eigenvalues -- 8686.257868705.78682******************************
 Alpha virt. eigenvalues -- **************************************************
 Alpha virt. eigenvalues -- **************************************************
 Alpha virt. eigenvalues -- **************************************************
 Alpha virt. eigenvalues -- **************************************************
 Alpha virt. eigenvalues -- **************************************************
 Alpha virt. eigenvalues -- **************************************************
 Alpha virt. eigenvalues -- **************************************************
 Alpha virt. eigenvalues -- **********
          Condensed to atoms (all electrons):
               1          2          3          4          5          6
     1  C    4.658293   0.169855  -0.044164  -0.009070  -0.000106  -0.000297
     2  C    0.169855   5.318743   0.390503   0.006973  -0.001246  -0.001108
     3  H   -0.044164   0.390503   0.485469   0.000524   0.000095  -0.000066
     4  C   -0.009070   0.006973   0.000524   5.054551   0.386426   0.406285
     5  H   -0.000106  -0.001246   0.000095   0.386426   0.547734  -0.013692
     6  H   -0.000297  -0.001108  -0.000066   0.406285  -0.013692   0.552959
     7  H   -0.002960   0.000799   0.000584   0.392141  -0.010471  -0.022872
     8  O    0.687111  -0.100214   0.004778  -0.012743   0.000547  -0.000382
     9  N   -0.059063   0.311035  -0.028917   0.000538   0.001247  -0.005566
    10  H    0.004827  -0.042762   0.001587   0.003619  -0.000140   0.005231
    11  N    0.344399  -0.113095   0.002458   0.000487   0.000038  -0.000062
    12  H   -0.026001   0.010029  -0.000108   0.000150  -0.000002  -0.000001
    13  C   -0.049935   0.011031  -0.001164  -0.000011  -0.000009   0.000000
    14  H    0.004548   0.001429   0.000132  -0.000145  -0.000002  -0.000001
    15  H   -0.011905  -0.000753  -0.000300   0.000036  -0.000001   0.000000
    16  H    0.006345   0.000633  -0.000174   0.000003   0.000000   0.000000
    17  C   -0.008773  -0.058415   0.003737  -0.000222   0.000038   0.000349
    18  C   -0.005810   0.015886   0.002197  -0.000109   0.000011   0.000282
    19  H    0.000492  -0.000135  -0.000311   0.000143  -0.000007   0.000166
    20  H   -0.000100  -0.000698   0.000183   0.000034   0.000001  -0.000015
    21  H    0.000745  -0.000502  -0.000167  -0.000044  -0.000006  -0.000028
    22  O   -0.003285   0.020182   0.016202  -0.000078  -0.000001   0.000015
[...]
 Alpha virt. eigenvalues --    4.32919   4.34571   4.35462   4.36133   4.36563
 Alpha virt. eigenvalues --    4.37458   4.39591   4.40026   4.42789   4.43864
 Alpha virt. eigenvalues --    4.44526   4.46842   4.50207   4.50646   4.53049
 Alpha virt. eigenvalues --    4.54064   4.54524   4.56372   4.57644   4.58147
 Alpha virt. eigenvalues --    4.59347   4.63824   4.66321   4.67395   4.68208
 Alpha virt. eigenvalues --    4.69197   4.70349   4.70972   4.72208   4.73389
 Alpha virt. eigenvalues --    4.74193   4.75228   4.77004   4.78876   4.79378
 Alpha virt. eigenvalues --    4.80125   4.80886   4.82077   4.82777   4.83616
 Alpha virt. eigenvalues --    4.85192   4.85451   4.86563   4.89213   4.89698
 Alpha virt. eigenvalues --    4.91666   4.94203   4.94873   4.94989   4.96258
 Alpha virt. eigenvalues --    4.97092   4.98107   4.99671   5.00282   5.02312
 Alpha virt. eigenvalues --    5.03196   5.03897   5.04958   5.05493   5.07325
 Alpha virt. eigenvalues --    5.07659   5.09449   5.10596   5.12582   5.13927
 Alpha virt. eigenvalues --    5.14135   5.14921   5.15243   5.16631   5.17634
 Alpha virt. eigenvalues --    5.19218   5.19441   5.20636   5.22088   5.24240
 Alpha virt. eigenvalues --    5.24613   5.25748   5.26689   5.28063   5.28510
 Alpha virt. eigenvalues --    5.29449   5.30244   5.30979   5.32395   5.34381
 Alpha virt. eigenvalues --    5.35487   5.36683   5.38060   5.39936   5.41344
 Alpha virt. eigenvalues --    5.44048   5.46799   5.48378   5.51352   5.55278
 Alpha virt. eigenvalues --    5.58568   5.59046   5.61586   5.63187   5.70164
 Alpha virt. eigenvalues --    5.72798   5.74856   5.75357   5.78475   5.78662
 Alpha virt. eigenvalues --    5.81148   5.81754   5.83901   5.84930   5.86372
 Alpha virt. eigenvalues --    5.89680   5.91593   5.92881   5.95842   5.98283
 Alpha virt. eigenvalues --    5.99805   6.01615   6.04120   6.07011   6.08951
 Alpha virt. eigenvalues --    6.22032   6.27425   6.36337   6.41099   6.50677
 Alpha virt. eigenvalues --    6.53423   6.56189   6.59384   6.66617   6.68546
 Alpha virt. eigenvalues --    6.88392   6.89855   6.92511   6.96020   7.10217
 Alpha virt. eigenvalues --    7.13814   7.17677   7.17773   9.48172  10.04295
 Alpha virt. eigenvalues --   11.55837  12.08924  12.34985  12.65963  12.93734
 Alpha virt. eigenvalues --   13.40661  13.54572  13.57166  13.72014  13.74810
 Alpha virt. eigenvalues --   13.93364
          Condensed to atoms (all electrons):
               1          2          3          4          5          6
     1  C    4.828712   0.137235  -0.052233  -0.004806  -0.000201  -0.000104
     2  C    0.137235   5.444459   0.428939  -0.006713  -0.001295  -0.001336
     3  H   -0.052233   0.428939   0.455535   0.000393   0.000093  -0.000069
     4  C   -0.004806  -0.006713   0.000393   5.221493   0.393680   0.399792
     5  H   -0.000201  -0.001295   0.000093   0.393680   0.537426  -0.018988
     6  H   -0.000104  -0.001336  -0.000069   0.399792  -0.018988   0.553995
     7  H   -0.001681  -0.000906   0.000441   0.391440  -0.017806  -0.027435
     8  O    0.684793  -0.095369   0.002866  -0.011451   0.000553  -0.000355
     9  N   -0.062868   0.269046  -0.034403   0.000335   0.001162  -0.005051
    10  H    0.005734  -0.040104   0.000199   0.001944  -0.000010   0.004905
    11  N    0.341769  -0.087112  -0.001654   0.000281   0.000040  -0.000057
    12  H   -0.021438   0.007085  -0.001127   0.000147  -0.000002  -0.000001
    13  C   -0.068884   0.010399  -0.001004  -0.000023  -0.000011  -0.000001
    14  H    0.003702   0.001278   0.000136  -0.000109  -0.000002   0.000000
    15  H   -0.010956  -0.000689  -0.000294   0.000029  -0.000001   0.000000
    16  H    0.007117   0.000632  -0.000125   0.000001   0.000000   0.000000
    17  C   -0.008050  -0.070303   0.002602  -0.000014   0.000048   0.000253
    18  C   -0.004316   0.012298   0.001953   0.000014   0.000009   0.000255
    19  H    0.000321   0.000758  -0.000293   0.000096  -0.000009   0.000140
    20  H   -0.000150  -0.000606   0.000174   0.000028   0.000001  -0.000013
    21  H    0.000710  -0.000540  -0.000151  -0.000041  -0.000005  -0.000026
    22  O   -0.000303   0.017998   0.015511  -0.000062  -0.000001   0.000016
    23  C   -0.001482  -0.008403   0.004486   0.250157  -0.032694  -0.044326
    24  H   -0.000115   0.005677  -0.000156  -0.036906  -0.005944  -0.005190
    25  C    0.002126  -0.001084  -0.000527  -0.066470  -0.009558   0.008841
    26  H    0.009831  -0.002119  -0.000139  -0.004854  -0.000916   0.000143
    27  H   -0.000645   0.000766  -0.000023   0.008159  -0.000052  -0.000414
    28  H   -0.000144  -0.000376   0.000019  -0.006746   0.005301  -0.000233
    29  C   -0.032991   0.199650  -0.028644  -0.040748   0.008975   0.000179
    30  H    0.010092  -0.042995  -0.012035   0.000529  -0.000726   0.001077
    31  H   -0.003638  -0.043063  -0.008568   0.006512  -0.000323  -0.000262
               7          8          9         10         11         12
     1  C   -0.001681   0.684793  -0.062868   0.005734   0.341769  -0.021438
     2  C   -0.000906  -0.095369   0.269046  -0.040104  -0.087112   0.007085
     3  H    0.000441   0.002866  -0.034403   0.000199  -0.001654  -0.001127
     4  C    0.391440  -0.011451   0.000335   0.001944   0.000281   0.000147
     5  H   -0.017806   0.000553   0.001162  -0.000010   0.000040  -0.000002
     6  H   -0.027435  -0.000355  -0.005051   0.004905  -0.000057  -0.000001
     7  H    0.473369   0.025436  -0.000427  -0.003472   0.000424  -0.000187
     8  O    0.025436   7.856085   0.005881  -0.001402  -0.113514   0.004959
     9  N   -0.000427   0.005881   6.538010   0.391019   0.005478   0.000662
    10  H   -0.003472  -0.001402   0.391019   0.489118  -0.000270  -0.000025
    11  N    0.000424  -0.113514   0.005478  -0.000270   6.400300   0.384476
    12  H   -0.000187   0.004959   0.000662  -0.000025   0.384476   0.534296
    13  C   -0.000157   0.006467  -0.000312   0.000038   0.302562  -0.032278
    14  H    0.000400   0.004271  -0.000032  -0.000003  -0.060576   0.002121
    15  H   -0.000119   0.005006  -0.000032   0.000006  -0.038217   0.003127
    16  H   -0.000004   0.001412   0.000007   0.000000  -0.026872  -0.008017
    17  C    0.000865   0.014560   0.330001  -0.021115  -0.000548  -0.000092
    18  C    0.000072  -0.000205  -0.065529  -0.003765  -0.000112  -0.000001
    19  H   -0.000037   0.000016   0.012731  -0.000937   0.000013   0.000001
    20  H    0.000008   0.000034   0.000237  -0.000449   0.000004   0.000001
    21  H    0.000003   0.000259  -0.001598   0.000632   0.000002  -0.000002
    22  O   -0.000034  -0.003511  -0.136056   0.004289  -0.004434  -0.000251
    23  C   -0.029790   0.002455  -0.003253  -0.000152  -0.004069  -0.000044
    24  H    0.005080  -0.000021   0.000105  -0.001129  -0.000169   0.000021
    25  C   -0.006553  -0.003006  -0.000106   0.000200   0.001760   0.000096
    26  H    0.001312   0.000585   0.000093  -0.000016  -0.004169   0.000520
    27  H    0.000148   0.000064  -0.000047  -0.000002  -0.000297  -0.000019
    28  H   -0.000566  -0.000052   0.000010   0.000018   0.000228  -0.000002
    29  C   -0.004384  -0.000369  -0.049629   0.000208   0.007158  -0.001878
    30  H   -0.000421  -0.000539   0.000819   0.002498   0.000460  -0.000191
    31  H   -0.000201  -0.000118   0.004483   0.000431   0.001529   0.002754
              13         14         15         16         17         18
     1  C   -0.068884   0.003702  -0.010956   0.007117  -0.008050  -0.004316
     2  C    0.010399   0.001278  -0.000689   0.000632  -0.070303   0.012298
     3  H   -0.001004   0.000136  -0.000294  -0.000125   0.002602   0.001953
     4  C   -0.000023  -0.000109   0.000029   0.000001  -0.000014   0.000014
     5  H   -0.000011  -0.000002  -0.000001   0.000000   0.000048   0.000009
     6  H   -0.000001   0.000000   0.000000   0.000000   0.000253   0.000255
     7  H   -0.000157   0.000400  -0.000119  -0.000004   0.000865   0.000072
     8  O    0.006467   0.004271   0.005006   0.001412   0.014560  -0.000205
     9  N   -0.000312  -0.000032  -0.000032   0.000007   0.330001  -0.065529
    10  H    0.000038  -0.000003   0.000006   0.000000  -0.021115  -0.003765
    11  N    0.302562  -0.060576  -0.038217  -0.026872  -0.000548  -0.000112
    12  H   -0.032278   0.002121   0.003127  -0.008017  -0.000092  -0.000001
    13  C    4.778697   0.388525   0.406387   0.394422  -0.000255  -0.000008
    14  H    0.388525   0.633184  -0.056867  -0.027639  -0.000032   0.000000
    15  H    0.406387  -0.056867   0.590070  -0.025635   0.000093   0.000002
    16  H    0.394422  -0.027639  -0.025635   0.597266  -0.000009   0.000000
    17  C   -0.000255  -0.000032   0.000093  -0.000009   4.539044   0.281721
    18  C   -0.000008   0.000000   0.000002   0.000000   0.281721   5.002658
    19  H    0.000000   0.000000   0.000000   0.000000  -0.054495   0.392141
    20  H    0.000000   0.000000   0.000000   0.000000  -0.026773   0.384871
    21  H    0.000002   0.000000   0.000001   0.000000  -0.024455   0.388037
    22  O   -0.000262   0.000007   0.000108  -0.000003   0.725119  -0.071612
    23  C    0.000171   0.000375  -0.000067  -0.000004  -0.000865  -0.000145
    24  H   -0.000005   0.000011   0.000000   0.000000   0.000061   0.000007
    25  C   -0.000292  -0.000692   0.000077   0.000007   0.000028   0.000000
    26  H   -0.000423   0.001070   0.000062  -0.000057   0.000009   0.000000
    27  H    0.000076   0.000113  -0.000007   0.000008  -0.000004   0.000000
    28  H   -0.000015  -0.000097   0.000004  -0.000002   0.000000   0.000000
    29  C   -0.000628  -0.000447   0.000073  -0.000024   0.009893   0.000398
    30  H    0.000075  -0.000030   0.000012   0.000002  -0.000699  -0.000129
    31  H    0.000086  -0.000150   0.000060  -0.000001  -0.000140   0.000036
              19         20         21         22         23         24
     1  C    0.000321  -0.000150   0.000710  -0.000303  -0.001482  -0.000115
     2  C    0.000758  -0.000606  -0.000540   0.017998  -0.008403   0.005677
     3  H   -0.000293   0.000174  -0.000151   0.015511   0.004486  -0.000156
     4  C    0.000096   0.000028  -0.000041  -0.000062   0.250157  -0.036906
     5  H   -0.000009   0.000001  -0.000005  -0.000001  -0.032694  -0.005944
     6  H    0.000140  -0.000013  -0.000026   0.000016  -0.044326  -0.005190
     7  H   -0.000037   0.000008   0.000003  -0.000034  -0.029790   0.005080
     8  O    0.000016   0.000034   0.000259  -0.003511   0.002455  -0.000021
     9  N    0.012731   0.000237  -0.001598  -0.136056  -0.003253   0.000105
    10  H   -0.000937  -0.000449   0.000632   0.004289  -0.000152  -0.001129
    11  N    0.000013   0.000004   0.000002  -0.004434  -0.004069  -0.000169
    12  H    0.000001   0.000001  -0.000002  -0.000251  -0.000044   0.000021
    13  C    0.000000   0.000000   0.000002  -0.000262   0.000171  -0.000005
    14  H    0.000000   0.000000   0.000000   0.000007   0.000375   0.000011
    15  H    0.000000   0.000000   0.000001   0.000108  -0.000067   0.000000
    16  H    0.000000   0.000000   0.000000  -0.000003  -0.000004   0.000000
    17  C   -0.054495  -0.026773  -0.024455   0.725119  -0.000865   0.000061
    18  C    0.392141   0.384871   0.388037  -0.071612  -0.000145   0.000007
    19  H    0.603389  -0.026849  -0.024831   0.004584   0.000077  -0.000001
    20  H   -0.026849   0.578115  -0.025324   0.002709  -0.000002   0.000000
    21  H   -0.024831  -0.025324   0.564622   0.000851   0.000007   0.000000
    22  O    0.004584   0.002709   0.000851   7.849898  -0.000069   0.000001
    23  C    0.000077  -0.000002   0.000007  -0.000069   5.205734   0.445978
    24  H   -0.000001   0.000000   0.000000   0.000001   0.445978   0.539104
    25  C    0.000002   0.000000   0.000000  -0.000001   0.267415  -0.036419
    26  H    0.000000   0.000000   0.000000   0.000003  -0.034012   0.006787
    27  H    0.000000   0.000000   0.000000   0.000000  -0.035372  -0.005873
    28  H    0.000000   0.000000   0.000000   0.000000  -0.035702  -0.006318
    29  C   -0.000275   0.000012  -0.000005   0.002122   0.233927  -0.051276
    30  H   -0.000002  -0.000029   0.000017  -0.000124  -0.048447  -0.009366
    31  H   -0.000006  -0.000003  -0.000001   0.000103  -0.046713  -0.000852
              25         26         27         28         29         30
     1  C    0.002126   0.009831  -0.000645  -0.000144  -0.032991   0.010092
     2  C   -0.001084  -0.002119   0.000766  -0.000376   0.199650  -0.042995
     3  H   -0.000527  -0.000139  -0.000023   0.000019  -0.028644  -0.012035
     4  C   -0.066470  -0.004854   0.008159  -0.006746  -0.040748   0.000529
     5  H   -0.009558  -0.000916  -0.000052   0.005301   0.008975  -0.000726
     6  H    0.008841   0.000143  -0.000414  -0.000233   0.000179   0.001077
     7  H   -0.006553   0.001312   0.000148  -0.000566  -0.004384  -0.000421
     8  O   -0.003006   0.000585   0.000064  -0.000052  -0.000369  -0.000539
     9  N   -0.000106   0.000093  -0.000047   0.000010  -0.049629   0.000819
    10  H    0.000200  -0.000016  -0.000002   0.000018   0.000208   0.002498
    11  N    0.001760  -0.004169  -0.000297   0.000228   0.007158   0.000460
    12  H    0.000096   0.000520  -0.000019  -0.000002  -0.001878  -0.000191
    13  C   -0.000292  -0.000423   0.000076  -0.000015  -0.000628   0.000075
    14  H   -0.000692   0.001070   0.000113  -0.000097  -0.000447  -0.000030
    15  H    0.000077   0.000062  -0.000007   0.000004   0.000073   0.000012
    16  H    0.000007  -0.000057   0.000008  -0.000002  -0.000024   0.000002
    17  C    0.000028   0.000009  -0.000004   0.000000   0.009893  -0.000699
    18  C    0.000000   0.000000   0.000000   0.000000   0.000398  -0.000129
    19  H    0.000002   0.000000   0.000000   0.000000  -0.000275  -0.000002
    20  H    0.000000   0.000000   0.000000   0.000000   0.000012  -0.000029
    21  H    0.000000   0.000000   0.000000   0.000000  -0.000005   0.000017
    22  O   -0.000001   0.000003   0.000000   0.000000   0.002122  -0.000124
    23  C    0.267415  -0.034012  -0.035372  -0.035702   0.233927  -0.048447
    24  H   -0.036419   0.006787  -0.005873  -0.006318  -0.051276  -0.009366
    25  C    5.149281   0.395704   0.400437   0.407889  -0.057496   0.008029
    26  H    0.395704   0.526258  -0.031859  -0.025127  -0.004507  -0.000025
    27  H    0.400437  -0.031859   0.548835  -0.016800  -0.007580   0.000315
    28  H    0.407889  -0.025127  -0.016800   0.526646   0.009367  -0.000384
    29  C   -0.057496  -0.004507  -0.007580   0.009367   5.396956   0.410008
    30  H    0.008029  -0.000025   0.000315  -0.000384   0.410008   0.492656
    31  H   -0.011010  -0.000569   0.004148   0.000639   0.422668  -0.001239
              31
     1  C   -0.003638
     2  C   -0.043063
     3  H   -0.008568
     4  C    0.006512
     5  H   -0.000323
     6  H   -0.000262
     7  H   -0.000201
     8  O   -0.000118
     9  N    0.004483
    10  H    0.000431
    11  N    0.001529
    12  H    0.002754
    13  C    0.000086
    14  H   -0.000150
    15  H    0.000060
    16  H   -0.000001
    17  C   -0.000140
    18  C    0.000036
    19  H   -0.000006
    20  H   -0.000003
    21  H   -0.000001
    22  O    0.000103
    23  C   -0.046713
    24  H   -0.000852
    25  C   -0.011010
    26  H   -0.000569
    27  H    0.004148
    28  H    0.000639
    29  C    0.422668
    30  H   -0.001239
    31  H    0.480698
 Mulliken charges:
               1
     1  C    0.242864
     2  C   -0.133207
     3  H    0.228103
     4  C   -0.496087
     5  H    0.141256
     6  H    0.134262
     7  H    0.195183
     8  O   -0.385788
     9  N   -0.200738
    10  H    0.171613
    11  N   -0.104414
    12  H    0.125287
    13  C   -0.183349
    14  H    0.111485
    15  H    0.127770
    16  H    0.087519
    17  C    0.303552
    18  C   -0.318651
    19  H    0.093467
    20  H    0.114004
    21  H    0.121837
    22  O   -0.406598
    23  C   -0.085170
    24  H    0.156909
    25  C   -0.448680
    26  H    0.166413
    27  H    0.135926
    28  H    0.142442
    29  C   -0.420710
    30  H    0.190792
    31  H    0.192710
 Sum of Mulliken charges =   0.00000
 Mulliken charges with hydrogens summed into heavy atoms:
               1
     1  C    0.242864
     2  C    0.094896
     4  C   -0.025387
     8  O   -0.385788
     9  N   -0.029126
    11  N    0.020872
    13  C    0.143425
    17  C    0.303552
    18  C    0.010657
    22  O   -0.406598
    23  C    0.071739
    25  C   -0.003899
    29  C   -0.037208
 Electronic spatial extent (au):  <R**2>=           2759.8707
 Charge=              0.0000 electrons
 Dipole moment (field-independent basis, Debye):
    X=             -2.7356    Y=             -2.4478    Z=             -2.4849  Tot=              4.4328
 Quadrupole moment (field-independent basis, Debye-Ang):
   XX=            -79.0910   YY=            -74.9799   ZZ=            -81.5978
   XY=            -12.0415   XZ=              4.0838   YZ=             -2.7685
 Traceless Quadrupole moment (field-independent basis, Debye-Ang):
   XX=             -0.5348   YY=              3.5763   ZZ=             -3.0415
   XY=            -12.0415   XZ=              4.0838   YZ=             -2.7685
 Octapole moment (field-independent basis, Debye-Ang**2):
  XXX=             12.0964  YYY=             22.6821  ZZZ=             -9.3208  XYY=            -17.4433
  XXY=            -14.3196  XXZ=              9.1535  XZZ=              0.4692  YZZ=              4.6765
  YYZ=             -0.8773  XYZ=              5.4926
 Hexadecapole moment (field-independent basis, Debye-Ang**3):
 XXXX=          -1943.5864 YYYY=          -1234.2727 ZZZZ=           -388.3629 XXXY=            -73.1688
 XXXZ=             19.0276 YYYX=            -55.9013 YYYZ=              2.3477 ZZZX=              7.4458
 ZZZY=            -12.0481 XXYY=           -545.6185 XXZZ=           -382.0412 YYZZ=           -275.1689
 XXYZ=              2.1526 YYXZ=              5.7792 ZZXY=             -5.0410
 N-N= 8.847909417289D+02 E-N=-3.199328143832D+03  KE= 6.091066182927D+02
 Calculating spin-rotation constants.
 Leave Link  601 at Wed Jun 18 13:41:56 2014, MaxMem=  4294967296 cpu:        70.2
 (Enter /home/ztw1e12/g09/l9999.exe)

 Test job not archived.
 1\1\GINC-GREEN0616\SP\RM06\Gen\C9H18N2O2\ROOT\18-Jun-2014\0\\#P Geom=A
 llCheck Guess=TCheck SCRF=Check GenChk RM06/ChkBas NMR=ReadFC IOp(3/6=
 22)\\NMR spin-spin scan\\0,1\C,0,0.275424,0.897044,0.40874\C,0,0.09551
 5,0.033838,-0.83793\H,0,0.549046,0.598602,-1.658868\C,0,-1.825637,-1.7
 63761,0.780749\H,0,-2.646418,-2.148777,1.389614\H,0,-1.32519,-2.635789
 ,0.352895\H,0,-1.128688,-1.258695,1.449242\O,0,0.531936,0.440134,1.518
 719\N,0,0.805313,-1.216301,-0.733164\H,0,0.285583,-2.075005,-0.651515\
 N,0,0.122976,2.20905,0.193676\H,0,-0.122238,2.525831,-0.73103\C,0,0.11
 3913,3.155505,1.285146\H,0,-0.69426,2.941803,1.987434\H,0,1.056349,3.1
 29,1.831906\H,0,-0.025787,4.154765,0.884391\C,0,2.14557,-1.25382,-0.64
 3927\C,0,2.767014,-2.603198,-0.493187\H,0,2.046658,-3.416221,-0.550957
 \H,0,3.523315,-2.73183,-1.26661\H,0,3.275378,-2.645955,0.470265\O,0,2.
 827847,-0.230469,-0.687679\C,0,-2.385422,-0.817422,-0.269253\H,0,-3.07
 2329,-1.384335,-0.903347\C,0,-3.198447,0.251182,0.451873\H,0,-2.558002
 ,0.839616,1.118344\H,0,-3.671457,0.940911,-0.249916\H,0,-3.982804,-0.1
 95862,1.066361\C,0,-1.374225,-0.143993,-1.221856\H,0,-1.351572,-0.7067
 53,-2.159674\H,0,-1.753736,0.844199,-1.490104\\Version=EM64L-G09RevD.0
 1\State=1-A\HF=-613.5767105\RMSD=6.672e-09\Dipole=-1.4897504,-0.045570
 6,-0.9055793\Quadrupole=-7.1097565,10.349905,-3.2401485,-3.7818031,0.9
 91489,0.6368234\PG=C01 [X(C9H18N2O2)]\\@


 SILVERMAN'S PARADOX - IF MURPHY'S LAW CAN GO WRONG, IT WILL.
 Job cpu time:       2 days 15 hours 20 minutes 25.9 seconds.
 File lengths (MBytes):  RWF=   2456 Int=      0 D2E=      0 Chk=     48 Scr=      8
 Normal termination of Gaussian 09 at Wed Jun 18 13:41:57 2014.
