 Entering Gaussian System, Link 0=g09
 Input=scan_input_14.gjf
 Output=scan_input_14.log
 Initial command:
 /home/ztw1e12/g09/l1.exe "/home/ztw1e12/leucine_scan/leucine_chi2_scan/Gau-32201.inp" -scrdir="/home/ztw1e12/leucine_scan/leucine_chi2_scan/"
 Default is to use a total of   8 processors:
                                8 via shared-memory
                                1 via Linda
 Entering Link 1 = /home/ztw1e12/g09/l1.exe PID=     32202.
  
 Copyright (c) 1988,1990,1992,1993,1995,1998,2003,2009,2013,
            Gaussian, Inc.  All Rights Reserved.
  
 This is part of the Gaussian(R) 09 program.  It is based on
 the Gaussian(R) 03 system (copyright 2003, Gaussian, Inc.),
 the Gaussian(R) 98 system (copyright 1998, Gaussian, Inc.),
 the Gaussian(R) 94 system (copyright 1995, Gaussian, Inc.),
 the Gaussian 92(TM) system (copyright 1992, Gaussian, Inc.),
 the Gaussian 90(TM) system (copyright 1990, Gaussian, Inc.),
 the Gaussian 88(TM) system (copyright 1988, Gaussian, Inc.),
 the Gaussian 86(TM) system (copyright 1986, Carnegie Mellon
 University), and the Gaussian 82(TM) system (copyright 1983,
 Carnegie Mellon University). Gaussian is a federally registered
 trademark of Gaussian, Inc.
  
 This software contains proprietary and confidential information,
 including trade secrets, belonging to Gaussian, Inc.
  
 This software is provided under written license and may be
 used, copied, transmitted, or stored only in accord with that
 written license.
  
 The following legend is applicable only to US Government
 contracts under FAR:
  
                    RESTRICTED RIGHTS LEGEND
  
 Use, reproduction and disclosure by the US Government is
 subject to restrictions as set forth in subparagraphs (a)
 and (c) of the Commercial Computer Software - Restricted
 Rights clause in FAR 52.227-19.
  
 Gaussian, Inc.
 340 Quinnipiac St., Bldg. 40, Wallingford CT 06492
  
  
 ---------------------------------------------------------------
 Warning -- This program may not be used in any manner that
 competes with the business of Gaussian, Inc. or will provide
 assistance to any competitor of Gaussian, Inc.  The licensee
 of this program is prohibited from giving any competitor of
 Gaussian, Inc. access to this program.  By using this program,
 the user acknowledges that Gaussian, Inc. is engaged in the
 business of creating and licensing software in the field of
 computational chemistry and represents and warrants to the
 licensee that it is not a competitor of Gaussian, Inc. and that
 it will not use this program in any manner prohibited above.
 ---------------------------------------------------------------
  

 Cite this work as:
 Gaussian 09, Revision D.01,
 M. J. Frisch, G. W. Trucks, H. B. Schlegel, G. E. Scuseria, 
 M. A. Robb, J. R. Cheeseman, G. Scalmani, V. Barone, B. Mennucci, 
 G. A. Petersson, H. Nakatsuji, M. Caricato, X. Li, H. P. Hratchian, 
 A. F. Izmaylov, J. Bloino, G. Zheng, J. L. Sonnenberg, M. Hada, 
 M. Ehara, K. Toyota, R. Fukuda, J. Hasegawa, M. Ishida, T. Nakajima, 
 Y. Honda, O. Kitao, H. Nakai, T. Vreven, J. A. Montgomery, Jr., 
 J. E. Peralta, F. Ogliaro, M. Bearpark, J. J. Heyd, E. Brothers, 
 K. N. Kudin, V. N. Staroverov, T. Keith, R. Kobayashi, J. Normand, 
 K. Raghavachari, A. Rendell, J. C. Burant, S. S. Iyengar, J. Tomasi, 
 M. Cossi, N. Rega, J. M. Millam, M. Klene, J. E. Knox, J. B. Cross, 
 V. Bakken, C. Adamo, J. Jaramillo, R. Gomperts, R. E. Stratmann, 
 O. Yazyev, A. J. Austin, R. Cammi, C. Pomelli, J. W. Ochterski, 
 R. L. Martin, K. Morokuma, V. G. Zakrzewski, G. A. Voth, 
 P. Salvador, J. J. Dannenberg, S. Dapprich, A. D. Daniels, 
 O. Farkas, J. B. Foresman, J. V. Ortiz, J. Cioslowski, 
 and D. J. Fox, Gaussian, Inc., Wallingford CT, 2013.
 
 ******************************************
 Gaussian 09:  EM64L-G09RevD.01 24-Apr-2013
                18-Jun-2014 
 ******************************************
 %Mem=32GB
 %NProcShared=16
 Will use up to   16 processors via shared memory.
 Default route:  MaxDisk=100GB
 ----------------------------------------------------------------------
 #p nmr=(giao,mixed,spinspin) m06/cc-pvtz scf=tight integral=(grid=ultr
 afine)
 ----------------------------------------------------------------------
 1/38=1/1;
 2/12=2,17=6,18=5,40=1/2;
 3/5=16,6=1,10=1100000,11=2,16=1,25=1,30=1,74=-54,75=-5/1,2,8,3;
 4//1;
 5/5=2,32=2,38=5/2;
 8/6=1,10=90,11=11/1;
 10/13=100,45=16,47=3/2;
 6/7=2,8=2,9=2,10=2,28=1/1;
 99/9=1/99;
 Leave Link    1 at Wed Jun 18 02:02:11 2014, MaxMem=  4294967296 cpu:         4.9
 (Enter /home/ztw1e12/g09/l101.exe)
 ------------------
 NMR spin-spin scan
 ------------------
 Symbolic Z-matrix:
 Charge =  0 Multiplicity = 1
 C                     0.22148   0.92105   0.37303 
 C                     0.08749   0.02318  -0.85033 
 H                     0.55385   0.56126  -1.68132 
 C                    -1.98472  -1.96014   0.51616 
 H                    -2.81325  -2.32358   1.12735 
 H                    -1.69824  -2.77039  -0.15987 
 H                    -1.14954  -1.76294   1.19296 
 O                     0.47639   0.48987   1.4938 
 N                     0.81973  -1.20924  -0.67506 
 H                     0.31279  -2.06923  -0.53924 
 N                     0.03054   2.22161   0.12691 
 H                    -0.22026   2.50428  -0.80752 
 C                    -0.04381   3.19171   1.19497 
 H                    -0.86589   2.96692   1.87778 
 H                     0.8818    3.21068   1.76996 
 H                    -0.20625   4.17574   0.76573 
 C                     2.15973  -1.22143  -0.58215 
 C                     2.80194  -2.5545   -0.38129 
 H                     2.08737  -3.37305  -0.32843 
 H                     3.49701  -2.73521  -1.20106 
 H                     3.38501  -2.52662   0.53917 
 O                     2.82616  -0.19042  -0.67205 
 C                    -2.39654  -0.71005  -0.24081 
 H                    -3.27167  -0.97325  -0.84561 
 C                    -2.84606   0.3735    0.72668 
 H                    -2.06225   0.63978   1.43924 
 H                    -3.15161   1.28066   0.20055 
 H                    -3.69979   0.02417   1.3114 
 C                    -1.36605  -0.22663  -1.26414 
 H                    -1.32271  -0.94878  -2.08504 
 H                    -1.73703   0.70433  -1.70143 
 
 NAtoms=     31 NQM=       31 NQMF=       0 NMMI=      0 NMMIF=      0
                NMic=       0 NMicF=      0.
                    Isotopes and Nuclear Properties:
 (Nuclear quadrupole moments (NQMom) in fm**2, nuclear magnetic moments (NMagM)
  in nuclear magnetons)

  Atom         1           2           3           4           5           6           7           8           9          10
 IAtWgt=          12          12           1          12           1           1           1          16          14           1
 AtmWgt=  12.0000000  12.0000000   1.0078250  12.0000000   1.0078250   1.0078250   1.0078250  15.9949146  14.0030740   1.0078250
 NucSpn=           0           0           1           0           1           1           1           0           2           1
 AtZEff=   0.0000000   0.0000000   0.0000000   0.0000000   0.0000000   0.0000000   0.0000000   0.0000000   0.0000000   0.0000000
 NQMom=    0.0000000   0.0000000   0.0000000   0.0000000   0.0000000   0.0000000   0.0000000   0.0000000   2.0440000   0.0000000
 NMagM=    0.0000000   0.0000000   2.7928460   0.0000000   2.7928460   2.7928460   2.7928460   0.0000000   0.4037610   2.7928460
 AtZNuc=   6.0000000   6.0000000   1.0000000   6.0000000   1.0000000   1.0000000   1.0000000   8.0000000   7.0000000   1.0000000

  Atom        11          12          13          14          15          16          17          18          19          20
 IAtWgt=          14           1          12           1           1           1          12          12           1           1
 AtmWgt=  14.0030740   1.0078250  12.0000000   1.0078250   1.0078250   1.0078250  12.0000000  12.0000000   1.0078250   1.0078250
 NucSpn=           2           1           0           1           1           1           0           0           1           1
 AtZEff=   0.0000000   0.0000000   0.0000000   0.0000000   0.0000000   0.0000000   0.0000000   0.0000000   0.0000000   0.0000000
 NQMom=    2.0440000   0.0000000   0.0000000   0.0000000   0.0000000   0.0000000   0.0000000   0.0000000   0.0000000   0.0000000
 NMagM=    0.4037610   2.7928460   0.0000000   2.7928460   2.7928460   2.7928460   0.0000000   0.0000000   2.7928460   2.7928460
 AtZNuc=   7.0000000   1.0000000   6.0000000   1.0000000   1.0000000   1.0000000   6.0000000   6.0000000   1.0000000   1.0000000

  Atom        21          22          23          24          25          26          27          28          29          30
 IAtWgt=           1          16          12           1          12           1           1           1          12           1
 AtmWgt=   1.0078250  15.9949146  12.0000000   1.0078250  12.0000000   1.0078250   1.0078250   1.0078250  12.0000000   1.0078250
 NucSpn=           1           0           0           1           0           1           1           1           0           1
 AtZEff=   0.0000000   0.0000000   0.0000000   0.0000000   0.0000000   0.0000000   0.0000000   0.0000000   0.0000000   0.0000000
 NQMom=    0.0000000   0.0000000   0.0000000   0.0000000   0.0000000   0.0000000   0.0000000   0.0000000   0.0000000   0.0000000
 NMagM=    2.7928460   0.0000000   0.0000000   2.7928460   0.0000000   2.7928460   2.7928460   2.7928460   0.0000000   2.7928460
 AtZNuc=   1.0000000   8.0000000   6.0000000   1.0000000   6.0000000   1.0000000   1.0000000   1.0000000   6.0000000   1.0000000

  Atom        31
 IAtWgt=           1
 AtmWgt=   1.0078250
 NucSpn=           1
 AtZEff=   0.0000000
 NQMom=    0.0000000
 NMagM=    2.7928460
 AtZNuc=   1.0000000
 Leave Link  101 at Wed Jun 18 02:02:11 2014, MaxMem=  4294967296 cpu:         2.0
 (Enter /home/ztw1e12/g09/l202.exe)
                          Input orientation:                          
 ---------------------------------------------------------------------
 Center     Atomic      Atomic             Coordinates (Angstroms)
 Number     Number       Type             X           Y           Z
 ---------------------------------------------------------------------
      1          6           0        0.221475    0.921052    0.373027
      2          6           0        0.087488    0.023177   -0.850333
      3          1           0        0.553848    0.561256   -1.681315
      4          6           0       -1.984723   -1.960138    0.516157
      5          1           0       -2.813250   -2.323580    1.127354
      6          1           0       -1.698235   -2.770386   -0.159871
      7          1           0       -1.149540   -1.762942    1.192957
      8          8           0        0.476392    0.489872    1.493804
      9          7           0        0.819732   -1.209242   -0.675055
     10          1           0        0.312785   -2.069227   -0.539244
     11          7           0        0.030536    2.221612    0.126914
     12          1           0       -0.220256    2.504277   -0.807521
     13          6           0       -0.043810    3.191706    1.194966
     14          1           0       -0.865886    2.966919    1.877776
     15          1           0        0.881797    3.210681    1.769959
     16          1           0       -0.206245    4.175741    0.765730
     17          6           0        2.159729   -1.221429   -0.582152
     18          6           0        2.801942   -2.554496   -0.381286
     19          1           0        2.087367   -3.373051   -0.328432
     20          1           0        3.497006   -2.735210   -1.201055
     21          1           0        3.385011   -2.526621    0.539172
     22          8           0        2.826156   -0.190421   -0.672049
     23          6           0       -2.396536   -0.710046   -0.240813
     24          1           0       -3.271670   -0.973248   -0.845613
     25          6           0       -2.846056    0.373503    0.726684
     26          1           0       -2.062247    0.639783    1.439241
     27          1           0       -3.151607    1.280657    0.200554
     28          1           0       -3.699791    0.024171    1.311396
     29          6           0       -1.366049   -0.226625   -1.264141
     30          1           0       -1.322708   -0.948780   -2.085038
     31          1           0       -1.737031    0.704334   -1.701432
 ---------------------------------------------------------------------
                    Distance matrix (angstroms):
                    1          2          3          4          5
     1  C    0.000000
     2  C    1.523398   0.000000
     3  H    2.111929   1.094327   0.000000
     4  C    3.631673   3.177246   4.198887   0.000000
     5  H    4.506240   4.222889   5.248643   1.091837   0.000000
     6  H    4.194756   3.386671   4.299594   1.093431   1.760637
     7  H    3.123426   2.982531   4.069996   1.092920   1.756858
     8  O    1.227616   2.421576   3.176866   3.607690   4.344139
     9  N    2.448375   1.444216   2.053757   3.138120   4.205828
    10  H    3.127674   2.127367   2.877825   2.530675   3.551667
    11  N    1.337343   2.406527   2.510046   4.658306   5.454060
    12  H    2.023715   2.500479   2.266734   4.979605   5.811675
    13  C    2.429368   3.773601   3.943280   5.547019   6.171932
    14  H    2.762643   4.125181   4.524377   5.232752   5.687244
    15  H    2.762217   4.202028   4.363290   6.043701   6.685384
    16  H    3.306079   4.465616   4.430606   6.393300   7.012020
    17  C    3.042930   2.432108   2.639125   4.350685   5.372864
    18  C    4.394000   3.772620   4.056096   4.906203   5.818909
    19  H    4.734228   3.975709   4.434044   4.392217   5.218884
    20  H    5.155103   4.399604   4.445168   5.796456   6.738713
    21  H    4.682095   4.393843   4.741417   5.399581   6.229416
    22  O    3.018596   2.752764   2.597503   5.261966   6.292147
    23  C    3.145038   2.660734   3.520798   1.518329   2.156159
    24  H    4.156383   3.503830   4.205673   2.117688   2.434367
    25  C    3.136021   3.348939   4.170498   2.496417   2.726879
    26  H    2.536003   3.200580   4.072836   2.760015   3.072914
    27  H    3.396578   3.630063   4.217744   3.458898   3.736839
    28  H    4.130528   4.360798   5.228597   2.740683   2.516299
    29  C    2.552981   1.531799   2.116789   2.560720   3.494404
    30  H    3.452949   2.111362   2.442266   2.868331   3.798849
    31  H    2.861135   2.125374   2.295431   3.475408   4.281185
                    6          7          8          9         10
     6  H    0.000000
     7  H    1.773740   0.000000
     8  O    4.253578   2.794519   0.000000
     9  N    3.007115   2.770214   2.776476   0.000000
    10  H    2.163273   2.287515   3.272467   1.007479   0.000000
    11  N    5.290646   4.290186   2.250800   3.610643   4.351406
    12  H    5.515972   4.803607   3.136757   3.858671   4.612271
    13  C    6.333976   5.076532   2.767638   4.859118   5.550861
    14  H    6.145037   4.787590   2.843397   5.176734   5.709117
    15  H    6.793671   5.403350   2.764673   5.051501   5.790822
    16  H    7.164597   6.028290   3.818601   5.668027   6.400935
    17  C    4.178693   3.794141   3.173605   1.343269   2.032684
    18  C    4.510790   4.326547   4.265246   2.413538   2.540933
    19  H    3.836978   3.922326   4.564861   2.531623   2.212135
    20  H    5.298663   5.316671   5.175667   3.126188   3.319758
    21  H    5.136874   4.644652   4.297746   3.128976   3.287972
    22  O    5.233418   4.664464   3.267278   2.250276   3.140793
    23  C    2.176965   2.172392   3.564045   3.283617   3.045793
    24  H    2.485084   3.046772   4.654198   4.101750   3.760764
    25  C    3.462298   2.767666   3.411843   4.231779   4.189007
    26  H    3.784034   2.582010   2.543647   4.024294   4.110221
    27  H    4.318929   3.775795   3.931948   4.768419   4.875555
    28  H    3.739038   3.116341   4.206026   5.088554   4.889576
    29  C    2.792934   2.905938   3.393261   2.467832   2.595986
    30  H    2.676852   3.382026   4.256124   2.577972   2.513905
    31  H    3.801525   3.848387   3.892913   3.354439   3.639377
                   11         12         13         14         15
    11  N    0.000000
    12  H    1.007951   0.000000
    13  C    1.444765   2.124534   0.000000
    14  H    2.103467   2.800303   1.092047   0.000000
    15  H    2.098213   2.890836   1.089828   1.767891   0.000000
    16  H    2.069486   2.295454   1.085796   1.770035   1.767386
    17  C    4.109838   4.426738   5.243042   5.722574   5.177754
    18  C    5.545283   5.908176   6.603159   7.003024   6.446090
    19  H    5.978139   6.332269   7.068146   7.333776   7.014426
    20  H    6.192738   6.436236   7.307984   7.812061   7.142819
    21  H    5.828222   6.334151   6.699712   7.073964   6.379463
    22  O    3.777795   4.069444   4.812612   5.486490   4.616430
    23  C    3.823679   3.922910   4.777075   4.511250   5.492064
    24  H    4.696542   4.626636   5.650653   5.359996   6.449633
    25  C    3.471313   3.713328   4.001767   3.460042   4.799468
    26  H    2.933279   3.452131   3.262831   2.653141   3.922536
    27  H    3.319165   3.332609   3.781450   3.298647   4.738816
    28  H    4.488550   4.769476   4.838701   4.124508   5.599560
    29  C    3.143143   2.996526   4.413673   4.507830   5.106236
    30  H    4.095777   3.843313   5.434853   5.589748   6.084567
    31  H    2.961296   2.517832   4.176498   4.323068   5.019023
                   16         17         18         19         20
    16  H    0.000000
    17  C    6.045169   0.000000
    18  C    7.460625   1.493269   0.000000
    19  H    7.965055   2.167738   1.087862   0.000000
    20  H    8.083536   2.112554   1.089859   1.776343   0.000000
    21  H    7.607240   2.112394   1.089949   1.775686   1.756258
    22  O    5.506908   1.230928   2.382012   3.285273   2.684369
    23  C    5.448066   4.597562   5.517781   5.215809   6.305330
    24  H    6.205267   5.443446   6.293227   5.894558   7.003272
    25  C    4.628946   5.414309   6.457605   6.283995   7.322207
    26  H    4.049859   5.037382   6.097382   6.037119   7.019048
    27  H    4.168464   5.923120   7.105750   7.027352   7.892766
    28  H    5.453270   6.282596   7.196334   6.908064   8.106817
    29  C    4.984611   3.726373   4.854953   4.764623   5.472320
    30  H    5.969429   3.802679   4.742766   4.537771   5.215592
    31  H    4.525578   4.488440   5.741518   5.756407   6.282992
                   21         22         23         24         25
    21  H    0.000000
    22  O    2.690206   0.000000
    23  C    6.110205   5.266164   0.000000
    24  H    6.974382   6.150319   1.095864   0.000000
    25  C    6.875469   5.869280   1.520591   2.113529   0.000000
    26  H    6.364657   5.389181   2.180910   3.047151   1.092245
    27  H    7.572147   6.217649   2.174359   2.487764   1.092292
    28  H    7.569497   6.824081   2.155667   2.414709   1.092147
    29  C    5.578036   4.233966   1.530621   2.089020   2.552246
    30  H    5.615931   4.448002   2.147386   2.309811   3.460463
    31  H    6.457143   4.762656   2.137481   2.429367   2.689820
                   26         27         28         29         30
    26  H    0.000000
    27  H    1.769681   0.000000
    28  H    1.754102   1.764436   0.000000
    29  C    2.922949   2.757798   3.484629   0.000000
    30  H    3.935860   3.679564   4.258277   1.094193   0.000000
    31  H    3.158126   2.439411   3.659533   1.093406   1.746884
                   31
    31  H    0.000000
 Stoichiometry    C9H18N2O2
 Framework group  C1[X(C9H18N2O2)]
 Deg. of freedom    87
 Full point group                 C1      NOp   1
 Largest Abelian subgroup         C1      NOp   1
 Largest concise Abelian subgroup C1      NOp   1
                         Standard orientation:                         
 ---------------------------------------------------------------------
 Center     Atomic      Atomic             Coordinates (Angstroms)
 Number     Number       Type             X           Y           Z
 ---------------------------------------------------------------------
      1          6           0        0.410749    0.987312   -0.124162
      2          6           0       -0.201859   -0.020276    0.840317
      3          1           0       -0.487389    0.541991    1.734677
      4          6           0        0.783060   -2.563356   -0.789889
      5          1           0        1.412495   -3.218089   -1.395896
      6          1           0       -0.016747   -3.178444   -0.368503
      7          1           0        0.335970   -1.831535   -1.467403
      8          8           0        0.214787    0.957245   -1.335663
      9          7           0       -1.408544   -0.596687    0.294954
     10          1           0       -1.403354   -1.557814   -0.007077
     11          7           0        1.188566    1.906350    0.457951
     12          1           0        1.344001    1.847459    1.452102
     13          6           0        1.978278    2.832942   -0.319948
     14          1           0        2.689198    2.306880   -0.960588
     15          1           0        1.342495    3.452203   -0.952420
     16          1           0        2.530048    3.478883    0.356266
     17          6           0       -2.506614    0.147094    0.081871
     18          6           0       -3.685166   -0.557149   -0.505419
     19          1           0       -3.503981   -1.612313   -0.698406
     20          1           0       -4.529278   -0.455215    0.176399
     21          1           0       -3.958799   -0.063239   -1.437711
     22          8           0       -2.546000    1.343555    0.368428
     23          6           0        1.609453   -1.890451    0.291590
     24          1           0        2.070891   -2.686600    0.886685
     25          6           0        2.747599   -1.094173   -0.327088
     26          1           0        2.386405   -0.328322   -1.017023
     27          1           0        3.357781   -0.605796    0.435977
     28          1           0        3.399603   -1.755562   -0.901753
     29          6           0        0.786873   -1.093231    1.306776
     30          1           0        0.203467   -1.793818    1.911815
     31          1           0        1.482505   -0.606992    1.996126
 ---------------------------------------------------------------------
 Rotational constants (GHZ):      0.9345379      0.6438305      0.4510649
 Leave Link  202 at Wed Jun 18 02:02:11 2014, MaxMem=  4294967296 cpu:         1.6
 (Enter /home/ztw1e12/g09/l301.exe)
 Standard basis: CC-pVTZ (5D, 7F)
 Converting basis for Fermi contact spin-spin IFCMod=1.
 AO basis functions are being uncontracted.
 Ernie: Thresh=  0.10000D-02 Tol=  0.10000D-05 Strict=F.
 There are  1119 symmetry adapted cartesian basis functions of A   symmetry.
 There are  1036 symmetry adapted basis functions of A   symmetry.
  1036 basis functions,  1119 primitive gaussians,  1119 cartesian basis functions
    51 alpha electrons       51 beta electrons
       nuclear repulsion energy       888.2709350029 Hartrees.
 IExCor= 4235 DFT=T Ex+Corr=M06 ExCW=0 ScaHFX=  0.270000
 ScaDFX=  1.000000  1.000000  1.000000  1.000000 ScalE2=  1.000000  1.000000
 IRadAn= 199590 IRanWt=     -1 IRanGd=            0 ICorTp=0 IEmpDi=  4
 NAtoms=   31 NActive=   31 NUniq=   31 SFac= 1.00D+00 NAtFMM=   60 NAOKFM=F Big=F
 Integral buffers will be    131072 words long.
 Raffenetti 2 integral format.
 Two-electron integral symmetry is turned on.
 Leave Link  301 at Wed Jun 18 02:02:11 2014, MaxMem=  4294967296 cpu:         5.0
 (Enter /home/ztw1e12/g09/l302.exe)
 NPDir=0 NMtPBC=     1 NCelOv=     1 NCel=       1 NClECP=     1 NCelD=      1
         NCelK=      1 NCelE2=     1 NClLst=     1 CellRange=     0.0.
 One-electron integrals computed using PRISM.
 GSVD:  received Info=                   1 from GESDD.
 NBasis=  1036 RedAO= T EigKep=  1.09D-04  NBF=  1036
 NBsUse=   932 1.00D-06 EigRej=  5.87D-15 NBFU=   932
 Precomputing XC quadrature grid using
 IXCGrd= 4 IRadAn=      199590 IRanWt=          -1 IRanGd=           0 AccXCQ= 0.00D+00.
 Generated NRdTot=       0 NPtTot=           0 NUsed=           0 NTot=          32
 NSgBfM=   883   883   883   883   883 MxSgAt=    31 MxSgA2=    31.
 Leave Link  302 at Wed Jun 18 02:02:16 2014, MaxMem=  4294967296 cpu:        63.9
 (Enter /home/ztw1e12/g09/l308.exe)
 Leave Link  308 at Wed Jun 18 02:02:16 2014, MaxMem=  4294967296 cpu:         5.3
 (Enter /home/ztw1e12/g09/l303.exe)
 DipDrv:  MaxL=1.
 Leave Link  303 at Wed Jun 18 02:02:16 2014, MaxMem=  4294967296 cpu:         3.3
 (Enter /home/ztw1e12/g09/l401.exe)
 ExpMin= 1.03D-01 ExpMax= 1.38D+05 ExpMxC= 1.38D+05 IAcc=4 IRadAn=    199590 AccDes= 0.00D+00
 Harris functional with IExCor= 1009 and IRadAn=  199590 diagonalized for initial guess.
 HarFok:  IExCor= 1009 AccDes= 0.00D+00 IRadAn=    199590 IDoV= 1 UseB2=F ITyADJ=14
 ICtDFT=  3500011 ScaDFX=  1.000000  1.000000  1.000000  1.000000
 FoFCou: FMM=F IPFlag=           0 FMFlag=      100000 FMFlg1=           0
         NFxFlg=           0 DoJE=T BraDBF=F KetDBF=T FulRan=T
         wScrn=  0.000000 ICntrl=     500 IOpCl=  0 I1Cent=   200000004 NGrid=           0
         NMat0=    1 NMatS0=      1 NMatT0=    0 NMatD0=    1 NMtDS0=    0 NMtDT0=    0
 Petite list used in FoFCou.
 Harris En= -613.561268453174    
 JPrj=0 DoOrth=F DoCkMO=F.
 Leave Link  401 at Wed Jun 18 02:02:33 2014, MaxMem=  4294967296 cpu:       261.1
 (Enter /home/ztw1e12/g09/l502.exe)
 Closed shell SCF:
 Using DIIS extrapolation, IDIIS=  1040.
 Integral symmetry usage will be decided dynamically.
 IVT=     3801329 IEndB=     3801329 NGot=  4294967296 MDV=  4292435888
 LenX=  4292435888 LenY=  4291182608
 Requested convergence on RMS density matrix=1.00D-08 within 128 cycles.
 Requested convergence on MAX density matrix=1.00D-06.
 Requested convergence on             energy=1.00D-06.
 No special actions if energy rises.
 Fock matrices will be formed incrementally for  20 cycles.
 Integral accuracy reduced to 1.0D-05 until final iterations.

 Cycle   1  Pass 0  IDiag  1:
 FoFJK:  IHMeth= 1 ICntrl=       0 DoSepK=F KAlg= 0 I1Cent=   0 FoldK=F
 IRaf= 490000000 NMat=   1 IRICut=       1 DoRegI=T DoRafI=F ISym2E= 0.
 FoFCou: FMM=F IPFlag=           0 FMFlag=      100000 FMFlg1=           0
         NFxFlg=           0 DoJE=F BraDBF=F KetDBF=F FulRan=T
         wScrn=  0.000000 ICntrl=       0 IOpCl=  0 I1Cent=           0 NGrid=           0
         NMat0=    1 NMatS0=      1 NMatT0=    0 NMatD0=    1 NMtDS0=    0 NMtDT0=    0
 Symmetry not used in FoFCou.
 E= -613.185673686389    
 DIIS: error= 1.23D-01 at cycle   1 NSaved=   1.
 NSaved= 1 IEnMin= 1 EnMin= -613.185673686389     IErMin= 1 ErrMin= 1.23D-01
 ErrMax= 1.23D-01  0.00D+00 EMaxC= 1.00D-01 BMatC= 1.30D+01 BMatP= 1.30D+01
 IDIUse=3 WtCom= 0.00D+00 WtEn= 1.00D+00
 Coeff-Com:  0.100D+01
 Coeff-En:   0.100D+01
 Coeff:      0.100D+01
 Gap=     0.289 Goal=   None    Shift=    0.000
 GapD=    0.289 DampG=1.000 DampE=0.250 DampFc=0.2500 IDamp=-1.
 Damping current iteration by 2.50D-01
 RMSDP=2.09D-03 MaxDP=3.10D-01              OVMax= 2.81D-01

 Cycle   2  Pass 0  IDiag  1:
 RMSU=  5.22D-04    CP:  1.01D+00
 E= -613.342044059706     Delta-E=       -0.156370373317 Rises=F Damp=T
 DIIS: error= 9.61D-02 at cycle   2 NSaved=   2.
 NSaved= 2 IEnMin= 2 EnMin= -613.342044059706     IErMin= 2 ErrMin= 9.61D-02
 ErrMax= 9.61D-02  0.00D+00 EMaxC= 1.00D-01 BMatC= 7.66D+00 BMatP= 1.30D+01
 IDIUse=3 WtCom= 3.95D-02 WtEn= 9.61D-01
 Coeff-Com: -0.279D+01 0.379D+01
 Coeff-En:   0.000D+00 0.100D+01
 Coeff:     -0.110D+00 0.111D+01
 Gap=     0.231 Goal=   None    Shift=    0.000
 RMSDP=5.47D-04 MaxDP=5.09D-02 DE=-1.56D-01 OVMax= 1.40D-01

 Cycle   3  Pass 0  IDiag  1:
 RMSU=  4.46D-04    CP:  1.02D+00  1.60D+00
 E= -613.559249829869     Delta-E=       -0.217205770163 Rises=F Damp=F
 DIIS: error= 1.44D-02 at cycle   3 NSaved=   3.
 NSaved= 3 IEnMin= 3 EnMin= -613.559249829869     IErMin= 3 ErrMin= 1.44D-02
 ErrMax= 1.44D-02  0.00D+00 EMaxC= 1.00D-01 BMatC= 1.85D-01 BMatP= 7.66D+00
 IDIUse=3 WtCom= 8.56D-01 WtEn= 1.44D-01
 Coeff-Com:  0.853D+00-0.118D+01 0.133D+01
 Coeff-En:   0.533D-01 0.000D+00 0.947D+00
 Coeff:      0.738D+00-0.101D+01 0.128D+01
 Gap=     0.250 Goal=   None    Shift=    0.000
 RMSDP=3.74D-04 MaxDP=3.20D-02 DE=-2.17D-01 OVMax= 6.88D-02

 Cycle   4  Pass 0  IDiag  1:
 RMSU=  2.82D-04    CP:  1.02D+00  1.20D+00  7.23D-01
 E= -613.544574014476     Delta-E=        0.014675815393 Rises=F Damp=F
 DIIS: error= 8.81D-03 at cycle   4 NSaved=   4.
 NSaved= 4 IEnMin= 3 EnMin= -613.559249829869     IErMin= 4 ErrMin= 8.81D-03
 ErrMax= 8.81D-03  0.00D+00 EMaxC= 1.00D-01 BMatC= 1.03D-01 BMatP= 1.85D-01
 IDIUse=3 WtCom= 9.12D-01 WtEn= 8.81D-02
 Coeff-Com:  0.562D+00-0.782D+00 0.694D+00 0.525D+00
 Coeff-En:   0.000D+00 0.000D+00 0.558D+00 0.442D+00
 Coeff:      0.513D+00-0.713D+00 0.682D+00 0.518D+00
 Gap=     0.281 Goal=   None    Shift=    0.000
 RMSDP=2.71D-04 MaxDP=1.89D-02 DE= 1.47D-02 OVMax= 7.44D-02

 Cycle   5  Pass 0  IDiag  1:
 RMSU=  8.20D-05    CP:  1.02D+00  1.13D+00  8.41D-01  1.13D-01
 E= -613.617981295810     Delta-E=       -0.073407281334 Rises=F Damp=F
 DIIS: error= 3.07D-03 at cycle   5 NSaved=   5.
 NSaved= 5 IEnMin= 5 EnMin= -613.617981295810     IErMin= 5 ErrMin= 3.07D-03
 ErrMax= 3.07D-03  0.00D+00 EMaxC= 1.00D-01 BMatC= 1.21D-02 BMatP= 1.03D-01
 IDIUse=3 WtCom= 9.69D-01 WtEn= 3.07D-02
 Coeff-Com:  0.599D-01-0.899D-01 0.857D-01 0.253D+00 0.691D+00
 Coeff-En:   0.000D+00 0.000D+00 0.000D+00 0.651D-01 0.935D+00
 Coeff:      0.581D-01-0.871D-01 0.831D-01 0.247D+00 0.698D+00
 Gap=     0.270 Goal=   None    Shift=    0.000
 RMSDP=1.34D-04 MaxDP=1.37D-02 DE=-7.34D-02 OVMax= 2.52D-02

 Cycle   6  Pass 0  IDiag  1:
 RMSU=  6.00D-05    CP:  1.02D+00  1.17D+00  9.27D-01  4.42D-01  2.81D-01
 E= -613.625123977427     Delta-E=       -0.007142681617 Rises=F Damp=F
 DIIS: error= 8.15D-04 at cycle   6 NSaved=   6.
 NSaved= 6 IEnMin= 6 EnMin= -613.625123977427     IErMin= 6 ErrMin= 8.15D-04
 ErrMax= 8.15D-04  0.00D+00 EMaxC= 1.00D-01 BMatC= 8.71D-04 BMatP= 1.21D-02
 IDIUse=3 WtCom= 9.92D-01 WtEn= 8.15D-03
 Coeff-Com:  0.248D-01-0.342D-01 0.270D-02 0.563D-01 0.247D+00 0.703D+00
 Coeff-En:   0.000D+00 0.000D+00 0.000D+00 0.000D+00 0.000D+00 0.100D+01
 Coeff:      0.246D-01-0.339D-01 0.268D-02 0.558D-01 0.245D+00 0.705D+00
 Gap=     0.268 Goal=   None    Shift=    0.000
 RMSDP=2.80D-05 MaxDP=2.78D-03 DE=-7.14D-03 OVMax= 6.21D-03

 Cycle   7  Pass 0  IDiag  1:
 RMSU=  2.02D-05    CP:  1.02D+00  1.15D+00  9.19D-01  4.36D-01  4.51D-01
                    CP:  9.84D-01
 E= -613.625614217931     Delta-E=       -0.000490240504 Rises=F Damp=F
 DIIS: error= 3.64D-04 at cycle   7 NSaved=   7.
 NSaved= 7 IEnMin= 7 EnMin= -613.625614217931     IErMin= 7 ErrMin= 3.64D-04
 ErrMax= 3.64D-04  0.00D+00 EMaxC= 1.00D-01 BMatC= 1.74D-04 BMatP= 8.71D-04
 IDIUse=3 WtCom= 9.96D-01 WtEn= 3.64D-03
 Coeff-Com:  0.185D-01-0.248D-01 0.209D-02 0.148D-01 0.791D-01 0.383D+00
 Coeff-Com:  0.527D+00
 Coeff-En:   0.000D+00 0.000D+00 0.000D+00 0.000D+00 0.000D+00 0.125D+00
 Coeff-En:   0.875D+00
 Coeff:      0.185D-01-0.247D-01 0.208D-02 0.148D-01 0.788D-01 0.382D+00
 Coeff:      0.528D+00
 Gap=     0.268 Goal=   None    Shift=    0.000
 RMSDP=9.45D-06 MaxDP=9.43D-04 DE=-4.90D-04 OVMax= 2.40D-03

 Initial convergence to 1.0D-05 achieved.  Increase integral accuracy.
 Cycle   8  Pass 1  IDiag  1:
 E= -613.625735643880     Delta-E=       -0.000121425949 Rises=F Damp=F
 DIIS: error= 1.26D-04 at cycle   1 NSaved=   1.
 NSaved= 1 IEnMin= 1 EnMin= -613.625735643880     IErMin= 1 ErrMin= 1.26D-04
 ErrMax= 1.26D-04  0.00D+00 EMaxC= 1.00D-01 BMatC= 2.20D-05 BMatP= 2.20D-05
 IDIUse=3 WtCom= 9.99D-01 WtEn= 1.26D-03
 Coeff-Com:  0.100D+01
 Coeff-En:   0.100D+01
 Coeff:      0.100D+01
 Gap=     0.268 Goal=   None    Shift=    0.000
 RMSDP=9.45D-06 MaxDP=9.43D-04 DE=-1.21D-04 OVMax= 2.23D-03

 Cycle   9  Pass 1  IDiag  1:
 RMSU=  2.56D-05    CP:  1.00D+00
 E= -613.625709709688     Delta-E=        0.000025934192 Rises=F Damp=F
 DIIS: error= 2.68D-04 at cycle   2 NSaved=   2.
 NSaved= 2 IEnMin= 1 EnMin= -613.625735643880     IErMin= 1 ErrMin= 1.26D-04
 ErrMax= 2.68D-04  0.00D+00 EMaxC= 1.00D-01 BMatC= 5.57D-05 BMatP= 2.20D-05
 IDIUse=3 WtCom= 3.79D-01 WtEn= 6.21D-01
 Coeff-Com:  0.628D+00 0.372D+00
 Coeff-En:   0.722D+00 0.278D+00
 Coeff:      0.686D+00 0.314D+00
 Gap=     0.268 Goal=   None    Shift=    0.000
 RMSDP=5.16D-06 MaxDP=4.38D-04 DE= 2.59D-05 OVMax= 1.51D-03

 Cycle  10  Pass 1  IDiag  1:
 RMSU=  5.01D-06    CP:  1.00D+00  9.51D-01
 E= -613.625749025249     Delta-E=       -0.000039315561 Rises=F Damp=F
 DIIS: error= 1.58D-05 at cycle   3 NSaved=   3.
 NSaved= 3 IEnMin= 3 EnMin= -613.625749025249     IErMin= 3 ErrMin= 1.58D-05
 ErrMax= 1.58D-05  0.00D+00 EMaxC= 1.00D-01 BMatC= 2.87D-07 BMatP= 2.20D-05
 IDIUse=1 WtCom= 1.00D+00 WtEn= 0.00D+00
 Coeff-Com:  0.783D-01 0.165D-01 0.905D+00
 Coeff:      0.783D-01 0.165D-01 0.905D+00
 Gap=     0.268 Goal=   None    Shift=    0.000
 RMSDP=8.67D-07 MaxDP=7.38D-05 DE=-3.93D-05 OVMax= 1.15D-04

 Cycle  11  Pass 1  IDiag  1:
 RMSU=  7.74D-07    CP:  1.00D+00  9.61D-01  1.06D+00
 E= -613.625749065229     Delta-E=       -0.000000039980 Rises=F Damp=F
 DIIS: error= 1.09D-05 at cycle   4 NSaved=   4.
 NSaved= 4 IEnMin= 4 EnMin= -613.625749065229     IErMin= 4 ErrMin= 1.09D-05
 ErrMax= 1.09D-05  0.00D+00 EMaxC= 1.00D-01 BMatC= 1.59D-07 BMatP= 2.87D-07
 IDIUse=1 WtCom= 1.00D+00 WtEn= 0.00D+00
 Coeff-Com:  0.752D-02-0.906D-02 0.449D+00 0.552D+00
 Coeff:      0.752D-02-0.906D-02 0.449D+00 0.552D+00
 Gap=     0.268 Goal=   None    Shift=    0.000
 RMSDP=3.61D-07 MaxDP=3.98D-05 DE=-4.00D-08 OVMax= 8.16D-05

 Cycle  12  Pass 1  IDiag  1:
 RMSU=  2.33D-07    CP:  1.00D+00  9.63D-01  1.06D+00  6.52D-01
 E= -613.625749176631     Delta-E=       -0.000000111403 Rises=F Damp=F
 DIIS: error= 3.38D-06 at cycle   5 NSaved=   5.
 NSaved= 5 IEnMin= 5 EnMin= -613.625749176631     IErMin= 5 ErrMin= 3.38D-06
 ErrMax= 3.38D-06  0.00D+00 EMaxC= 1.00D-01 BMatC= 1.34D-08 BMatP= 1.59D-07
 IDIUse=1 WtCom= 1.00D+00 WtEn= 0.00D+00
 Coeff-Com: -0.202D-02-0.547D-02 0.163D+00 0.290D+00 0.555D+00
 Coeff:     -0.202D-02-0.547D-02 0.163D+00 0.290D+00 0.555D+00
 Gap=     0.268 Goal=   None    Shift=    0.000
 RMSDP=8.84D-08 MaxDP=9.75D-06 DE=-1.11D-07 OVMax= 2.13D-05

 Cycle  13  Pass 1  IDiag  1:
 RMSU=  7.38D-08    CP:  1.00D+00  9.64D-01  1.06D+00  6.90D-01  8.58D-01
 E= -613.625749186402     Delta-E=       -0.000000009771 Rises=F Damp=F
 DIIS: error= 4.96D-07 at cycle   6 NSaved=   6.
 NSaved= 6 IEnMin= 6 EnMin= -613.625749186402     IErMin= 6 ErrMin= 4.96D-07
 ErrMax= 4.96D-07  0.00D+00 EMaxC= 1.00D-01 BMatC= 4.42D-10 BMatP= 1.34D-08
 IDIUse=1 WtCom= 1.00D+00 WtEn= 0.00D+00
 Coeff-Com: -0.129D-02-0.186D-02 0.420D-01 0.872D-01 0.225D+00 0.649D+00
 Coeff:     -0.129D-02-0.186D-02 0.420D-01 0.872D-01 0.225D+00 0.649D+00
 Gap=     0.268 Goal=   None    Shift=    0.000
 RMSDP=2.58D-08 MaxDP=2.47D-06 DE=-9.77D-09 OVMax= 3.63D-06

 Cycle  14  Pass 1  IDiag  1:
 RMSU=  1.16D-08    CP:  1.00D+00  9.64D-01  1.06D+00  7.08D-01  9.18D-01
                    CP:  8.73D-01
 E= -613.625749186641     Delta-E=       -0.000000000238 Rises=F Damp=F
 DIIS: error= 2.59D-07 at cycle   7 NSaved=   7.
 NSaved= 7 IEnMin= 7 EnMin= -613.625749186641     IErMin= 7 ErrMin= 2.59D-07
 ErrMax= 2.59D-07  0.00D+00 EMaxC= 1.00D-01 BMatC= 4.79D-11 BMatP= 4.42D-10
 IDIUse=1 WtCom= 1.00D+00 WtEn= 0.00D+00
 Coeff-Com: -0.307D-03-0.158D-03 0.702D-04 0.507D-02 0.329D-01 0.262D+00
 Coeff-Com:  0.700D+00
 Coeff:     -0.307D-03-0.158D-03 0.702D-04 0.507D-02 0.329D-01 0.262D+00
 Coeff:      0.700D+00
 Gap=     0.268 Goal=   None    Shift=    0.000
 RMSDP=1.24D-08 MaxDP=1.50D-06 DE=-2.38D-10 OVMax= 1.34D-06

 Cycle  15  Pass 1  IDiag  1:
 RMSU=  7.45D-09    CP:  1.00D+00  9.64D-01  1.06D+00  7.11D-01  9.46D-01
                    CP:  9.54D-01  8.33D-01
 E= -613.625749186697     Delta-E=       -0.000000000057 Rises=F Damp=F
 DIIS: error= 9.74D-08 at cycle   8 NSaved=   8.
 NSaved= 8 IEnMin= 8 EnMin= -613.625749186697     IErMin= 8 ErrMin= 9.74D-08
 ErrMax= 9.74D-08  0.00D+00 EMaxC= 1.00D-01 BMatC= 1.23D-11 BMatP= 4.79D-11
 IDIUse=1 WtCom= 1.00D+00 WtEn= 0.00D+00
 Coeff-Com: -0.329D-05 0.182D-03-0.611D-02-0.895D-02-0.106D-01 0.627D-01
 Coeff-Com:  0.389D+00 0.574D+00
 Coeff:     -0.329D-05 0.182D-03-0.611D-02-0.895D-02-0.106D-01 0.627D-01
 Coeff:      0.389D+00 0.574D+00
 Gap=     0.268 Goal=   None    Shift=    0.000
 RMSDP=3.20D-09 MaxDP=2.26D-07 DE=-5.66D-11 OVMax= 7.47D-07

 SCF Done:  E(RM06) =  -613.625749187     A.U. after   15 cycles
            NFock= 15  Conv=0.32D-08     -V/T= 2.0046
 KE= 6.107958120494D+02 PE=-3.208012331923D+03 EE= 1.095319835685D+03
 Leave Link  502 at Wed Jun 18 02:30:30 2014, MaxMem=  4294967296 cpu:     26761.2
 (Enter /home/ztw1e12/g09/l801.exe)
 DoSCS=F DFT=T ScalE2(SS,OS)=  1.000000  1.000000
 Range of M.O.s used for correlation:     1   932
 NBasis=  1036 NAE=    51 NBE=    51 NFC=     0 NFV=     0
 NROrb=    932 NOA=    51 NOB=    51 NVA=   881 NVB=   881

 **** Warning!!: The largest alpha MO coefficient is  0.13253070D+02

 Leave Link  801 at Wed Jun 18 02:30:30 2014, MaxMem=  4294967296 cpu:         0.4
 (Enter /home/ztw1e12/g09/l1002.exe)
 Minotr:  Closed shell wavefunction.
          IDoAtm=1111111111111111111111111111111
          Direct CPHF calculation.
          Differentiating once with respect to Fermi-contact.
          Electric field/nuclear overlap derivatives assumed to be zero.
          Requested convergence is 1.0D-10 RMS, and 1.0D-09 maximum.
          Secondary convergence is 1.0D-12 RMS, and 1.0D-12 maximum.
          NewPWx=T KeepS1=F KeepF1=F KeepIn=T MapXYZ=F SortEE=F KeepMc=T.
          MDV=    4294966050 using IRadAn=  199590.
 Using stored XC quadrature information.
          Solving linear equations simultaneously, MaxMat=       0.
          There are    31 degrees of freedom in the 1st order CPHF.  IDoFFX=0 NUNeed=    31.
     31 vectors produced by pass  0 Test12= 1.45D-17 3.23D-11 XBig12= 4.16D+01 2.57D+00.
 AX will form    31 AO Fock derivatives at one time.
 FoFJK:  IHMeth= 1 ICntrl=       0 DoSepK=F KAlg= 0 I1Cent=   0 FoldK=F
 IRaf= 510000000 NMat=  31 IRICut=       1 DoRegI=T DoRafI=F ISym2E=-1.
 FoFCou: FMM=F IPFlag=           0 FMFlag=      100000 FMFlg1=           0
         NFxFlg=           0 DoJE=F BraDBF=F KetDBF=F FulRan=T
         wScrn=  0.000000 ICntrl=       0 IOpCl=  0 I1Cent=           0 NGrid=           0
         NMat0=   31 NMatS0=      0 NMatT0=   31 NMatD0=   31 NMtDS0=    0 NMtDT0=    0
 Petite list used in FoFCou.
     31 vectors produced by pass  1 Test12= 1.45D-17 3.23D-11 XBig12= 3.49D-01 1.77D-01.
     31 vectors produced by pass  2 Test12= 1.45D-17 3.23D-11 XBig12= 1.75D-02 4.77D-02.
     31 vectors produced by pass  3 Test12= 1.45D-17 3.23D-11 XBig12= 4.01D-04 6.58D-03.
     31 vectors produced by pass  4 Test12= 1.45D-17 3.23D-11 XBig12= 6.68D-06 9.61D-04.
     31 vectors produced by pass  5 Test12= 1.45D-17 3.23D-11 XBig12= 1.52D-07 1.89D-04.
     31 vectors produced by pass  6 Test12= 1.45D-17 3.23D-11 XBig12= 4.87D-09 2.32D-05.
     31 vectors produced by pass  7 Test12= 1.45D-17 3.23D-11 XBig12= 1.46D-10 5.05D-06.
     31 vectors produced by pass  8 Test12= 1.45D-17 3.23D-11 XBig12= 3.40D-12 4.57D-07.
     31 vectors produced by pass  9 Test12= 1.45D-17 3.23D-11 XBig12= 8.15D-14 9.89D-08.
     31 vectors produced by pass 10 Test12= 1.45D-17 3.23D-11 XBig12= 3.45D-15 1.21D-08.
     30 vectors produced by pass 11 Test12= 1.45D-17 3.23D-11 XBig12= 3.53D-17 8.63D-10.
      7 vectors produced by pass 12 Test12= 1.45D-17 3.23D-11 XBig12= 2.52D-19 5.72D-11.
 InvSVY:  IOpt=1 It=  1 EMax= 7.99D-15
 Solved reduced A of dimension   378 with    31 vectors.
 Max diff in FC couplings:  IJMax=    11     1 Diff= 7.55D-04 IJMaxR=    27    18 DiffR= 5.83D-01
 Fermi Contact (FC) contribution to K (Hz):
                1             2             3             4             5 
      1  0.123400D+11
      2  0.272612D+02  0.123400D+11
      3 -0.109479D+01  0.187695D+02  0.123400D+11
      4 -0.172182D-01  0.500077D+00 -0.544921D-02  0.123400D+11
      5  0.745946D-02 -0.138416D-01  0.877391D-02  0.172879D+02  0.123400D+11
      6  0.154227D-02 -0.907017D-02  0.672840D-02  0.163026D+02 -0.815289D+00
      7  0.355495D-01  0.161249D-01  0.705215D-02  0.176870D+02 -0.849194D+00
      8 -0.948362D+01  0.288671D+01  0.438349D+00  0.110495D+01  0.255902D-01
      9  0.191009D+00  0.189372D+02 -0.739819D+00  0.126537D+01  0.367675D+00
     10  0.371006D-01  0.230989D+00  0.180058D+00 -0.122733D+00 -0.343276D-01
     11  0.287891D+02  0.139300D+02  0.191724D+00  0.857587D-01  0.231320D-02
     12  0.453731D+00  0.122879D+00 -0.224536D-01  0.184309D-02 -0.232968D-04
     13 -0.409216D+00  0.108268D+01  0.114705D-01  0.249352D-02  0.156457D-03
     14  0.201689D+00 -0.945495D-01  0.167433D-01  0.169530D-02 -0.371336D-04
     15  0.187080D+00 -0.760711D-01  0.869626D-02 -0.107615D-02  0.487208D-04
     16  0.966206D+00 -0.263277D-01 -0.646291D-03  0.592275D-03  0.251237D-04
     17  0.121664D+00 -0.434770D+00  0.287125D+00  0.363193D-01  0.309952D-01
     18 -0.159677D+00  0.883719D+00 -0.831079D-01 -0.882704D-02 -0.168522D-02
     19 -0.198409D-02  0.105364D+00 -0.196493D-02 -0.979189D-03  0.266108D-03
     20  0.594231D-01  0.109935D-01  0.179286D-01  0.185809D-02  0.416905D-03
     21  0.718068D-01  0.483597D-01  0.237611D-01  0.470266D-03  0.246607D-03
     22  0.472216D+00  0.873266D+00  0.231845D+00  0.906940D-01  0.854387D-02
     23  0.740947D+00 -0.688956D+00  0.108362D+01  0.169256D+02 -0.662841D+00
     24 -0.431097D-01  0.107015D+01 -0.275935D-01 -0.943176D+00  0.174327D+00
     25  0.133846D+00  0.230104D+00 -0.234049D-01  0.401036D+00  0.254768D+00
     26 -0.425929D-02  0.144187D-01  0.276409D-03  0.417442D+00 -0.360650D-02
     27  0.107302D-01 -0.450654D-04  0.105288D-02  0.126742D+01  0.784964D-02
     28  0.231948D-02 -0.829877D-02  0.106120D-02  0.234613D+00 -0.907337D-02
     29 -0.260267D+00  0.163771D+02 -0.885111D+00 -0.215987D+00  0.117113D+01
     30  0.101823D+01 -0.959604D+00  0.999392D-01  0.116456D+00 -0.131074D-01
     31  0.480491D-01 -0.399776D+00  0.219939D+00  0.105138D+01  0.359318D-01
                6             7             8             9            10 
      6  0.123400D+11
      7 -0.731821D+00  0.123400D+11
      8 -0.679935D-02  0.530887D-01  0.123400D+11
      9  0.356985D+00  0.385749D+00  0.337173D+00  0.123400D+11
     10 -0.522231D-01 -0.255844D-01  0.498814D-02  0.318752D+02  0.123400D+11
     11  0.143198D-02 -0.690618D-02  0.645666D+01  0.113817D+01  0.171298D+00
     12 -0.121161D-03 -0.359401D-03  0.486651D+00  0.524800D-01 -0.188761D-03
     13  0.109354D-03  0.907021D-03  0.597254D+00  0.312389D+00  0.162227D-01
     14  0.440002D-03  0.123641D-03  0.239145D+00 -0.551241D-02 -0.122283D-02
     15  0.320037D-03  0.200871D-03  0.240062D+00 -0.236079D-02 -0.107145D-02
     16 -0.120363D-04  0.802357D-04  0.174894D+00  0.243470D-01 -0.933297D-03
     17  0.204244D-01  0.357480D-01  0.576644D-01  0.265048D+02  0.413448D+00
     18  0.482198D-03  0.994706D-03  0.727504D-01  0.126697D+02  0.971847D-01
     19  0.148810D-02  0.954455D-03 -0.223326D-03  0.345723D+00 -0.968665D-02
     20  0.496999D-04  0.444384D-03  0.459612D-02  0.319830D+00 -0.752921D-02
     21 -0.188362D-03  0.326945D-03  0.217253D-02  0.423712D+00 -0.159047D-01
     22  0.730277D-02  0.427712D-02  0.597387D+00  0.573287D+01  0.423995D+00
     23 -0.533477D+00 -0.775750D+00  0.739400D-02 -0.169983D-01  0.129622D-02
     24  0.110856D+00  0.436252D+00  0.755607D-01 -0.383213D-01  0.512456D-02
     25  0.126195D+01  0.392961D+00  0.116107D+01  0.845898D-01 -0.329580D-02
     26 -0.757508D-02 -0.232811D-01  0.858080D-01  0.888557D-02 -0.159631D-03
     27  0.779678D-01 -0.816754D-02 -0.243498D-01 -0.109713D-03  0.178132D-03
     28  0.115013D-02 -0.455333D-02  0.428958D-01 -0.187164D-02 -0.266830D-03
     29  0.228191D+00  0.242406D+00  0.299357D+00  0.628512D+00  0.456953D+00
     30 -0.137795D-01 -0.515073D-02  0.625558D-01  0.795455D+00 -0.228112D-01
     31 -0.970421D-03 -0.150424D-01 -0.182152D-01  0.178358D+01 -0.220760D-01
               11            12            13            14            15 
     11  0.123400D+11
     12  0.311808D+02  0.123400D+11
     13  0.169390D+02  0.306238D+00  0.123400D+11
     14 -0.606589D+00  0.573681D-01  0.195485D+02  0.123400D+11
     15 -0.510326D+00  0.168285D+00  0.203522D+02 -0.731440D+00  0.123400D+11
     16 -0.380918D+00  0.287510D+00  0.182664D+02 -0.733367D+00 -0.763175D+00
     17 -0.659493D-01 -0.258306D-03 -0.814934D-02  0.821702D-03  0.335034D-03
     18  0.173820D-01  0.114616D-02  0.105395D-01  0.159381D-02  0.106400D-02
     19  0.622413D-02  0.416505D-04  0.614809D-04 -0.551723D-04 -0.323033D-04
     20 -0.275073D-02 -0.163708D-03 -0.359943D-03  0.457437D-04 -0.354841D-04
     21  0.141998D-01 -0.334284D-04  0.205975D-02  0.139714D-03 -0.474140D-04
     22  0.175944D+00 -0.168182D-02  0.710235D-02  0.645541D-02  0.286799D-02
     23 -0.182657D-01  0.213526D-02 -0.754063D-02  0.793149D-03 -0.492872D-03
     24 -0.752021D-03 -0.325246D-04  0.104778D-01  0.119529D-03 -0.104945D-03
     25  0.263386D+00 -0.687313D-02  0.149513D+00  0.309978D-01  0.414934D-02
     26  0.111685D+00 -0.170287D-02  0.348295D-01 -0.217299D-02  0.133568D-02
     27  0.451777D-01  0.154309D-02 -0.182715D-02  0.458352D-02  0.239465D-02
     28  0.876133D-01 -0.172355D-02  0.683624D-02  0.247353D-02  0.173224D-02
     29  0.111712D+00 -0.297974D-01 -0.119233D+00  0.795570D-01  0.939448D-01
     30 -0.399782D-01 -0.579844D-02 -0.393332D-02  0.243206D-02  0.396612D-02
     31  0.536793D-01 -0.675096D-02 -0.384580D-03 -0.279935D-03 -0.555028D-04
               16            17            18            19            20 
     16  0.123400D+11
     17 -0.123794D-03  0.123400D+11
     18  0.257618D-03  0.272400D+02  0.123400D+11
     19  0.210731D-05 -0.753873D+00  0.170744D+02  0.123400D+11
     20  0.130491D-03 -0.118300D+01  0.177973D+02 -0.727510D+00  0.123400D+11
     21  0.360339D-03 -0.120600D+01  0.180616D+02 -0.736686D+00 -0.922919D+00
     22  0.193060D-02 -0.956190D+01  0.376515D+01  0.830554D+00  0.428665D+00
     23 -0.488347D-03 -0.515979D-01  0.362370D-02  0.269136D-03 -0.131349D-02
     24  0.277138D-03  0.136447D-01 -0.140707D-02  0.252168D-03  0.116195D-03
     25  0.673308D-02 -0.760864D-02  0.315292D-02  0.157862D-03 -0.881098D-05
     26  0.805718D-03 -0.218237D-03 -0.435794D-04 -0.298632D-04 -0.685542D-05
     27  0.536408D-03  0.119777D-03  0.340770D-04  0.602917D-04 -0.160245D-04
     28  0.444174D-03 -0.183530D-02 -0.640521D-04 -0.196874D-04 -0.176343D-04
     29  0.131872D-02  0.141019D+01 -0.391055D-01 -0.142352D-02  0.125644D-01
     30  0.499023D-03 -0.231509D-02  0.170787D-01 -0.103704D-03 -0.194071D-03
     31  0.343616D-03  0.103584D+00  0.614206D-01  0.235689D-04  0.210681D-02
               21            22            23            24            25 
     21  0.123400D+11
     22  0.440846D+00  0.123400D+11
     23 -0.939025D-04  0.575894D-01  0.123400D+11
     24  0.481519D-04  0.128690D-01  0.168871D+02  0.123400D+11
     25  0.831996D-04  0.343295D-01  0.172710D+02 -0.931978D+00  0.123400D+11
     26  0.532459D-04 -0.859015D-03 -0.768971D+00  0.433623D+00  0.176545D+02
     27 -0.384780D-05 -0.947153D-04 -0.552863D+00  0.109708D+00  0.169675D+02
     28 -0.841918D-05  0.137102D-02 -0.626851D+00  0.180551D+00  0.170060D+02
     29 -0.540064D-02  0.178944D+00  0.172167D+02 -0.859596D+00 -0.248403D+00
     30 -0.768472D-03 -0.311398D-03 -0.588540D+00  0.201774D+00  0.102233D+01
     31 -0.179847D-02 -0.570729D-02 -0.666487D+00  0.900447D-01  0.456139D+00
               26            27            28            29            30 
     26  0.123400D+11
     27 -0.752450D+00  0.123400D+11
     28 -0.848647D+00 -0.794851D+00  0.123400D+11
     29  0.191203D+00  0.382088D+00  0.124971D+01  0.123400D+11
     30 -0.199697D-01  0.239800D-02  0.329734D-01  0.172767D+02  0.123400D+11
     31 -0.917793D-02 -0.183013D-01  0.287547D-02  0.170890D+02 -0.913835D+00
               31 
     31  0.123400D+11
 Fermi Contact (FC) contribution to J (Hz):
                1             2             3             4             5 
      1  0.243533D+11
      2  0.538007D+02  0.243533D+11
      3 -0.859075D+01  0.147282D+03  0.385007D+12
      4 -0.339805D-01  0.986915D+00 -0.427594D-01  0.243533D+11
      5  0.585337D-01 -0.108614D+00  0.273745D+00  0.135657D+03  0.385007D+12
      6  0.121020D-01 -0.711728D-01  0.209926D+00  0.127925D+03 -0.254370D+02
      7  0.278953D+00  0.126531D+00  0.220027D+00  0.138788D+03 -0.264948D+02
      8  0.100923D+02 -0.307198D+01 -0.185478D+01 -0.117586D+01 -0.108279D+00
      9  0.108343D+00  0.107414D+02 -0.166850D+01  0.717735D+00  0.829211D+00
     10  0.291125D+00  0.181255D+01  0.561779D+01 -0.963077D+00 -0.107102D+01
     11  0.163295D+02  0.790129D+01  0.432393D+00  0.486434D-01  0.521692D-02
     12  0.356038D+01  0.964222D+00 -0.700550D+00  0.144626D-01 -0.726858D-03
     13 -0.807599D+00  0.213671D+01  0.900079D-01  0.492102D-02  0.122770D-02
     14  0.158264D+01 -0.741921D+00  0.522391D+00  0.133028D-01 -0.115857D-02
     15  0.146799D+01 -0.596923D+00  0.271323D+00 -0.844444D-02  0.152009D-02
     16  0.758173D+01 -0.206591D+00 -0.201643D-01  0.464753D-02  0.783859D-03
     17  0.240107D+00 -0.858030D+00  0.225304D+01  0.716770D-01  0.243216D+00
     18 -0.315127D+00  0.174404D+01 -0.652140D+00 -0.174204D-01 -0.132238D-01
     19 -0.155690D-01  0.826783D+00 -0.613058D-01 -0.768360D-02  0.830256D-02
     20  0.466287D+00  0.862647D-01  0.559371D+00  0.145802D-01  0.130074D-01
     21  0.563461D+00  0.379474D+00  0.741345D+00  0.369013D-02  0.769413D-02
     22 -0.502523D+00 -0.929313D+00 -0.981000D+00 -0.965148D-01 -0.361515D-01
     23  0.146228D+01 -0.135967D+01  0.850302D+01  0.334031D+02 -0.520125D+01
     24 -0.338277D+00  0.839737D+01 -0.860917D+00 -0.740101D+01  0.543899D+01
     25  0.264148D+00  0.454115D+00 -0.183656D+00  0.791454D+00  0.199914D+01
     26 -0.334223D-01  0.113142D+00  0.862394D-02  0.327563D+01 -0.112522D+00
     27  0.841991D-01 -0.353624D-03  0.328498D-01  0.994536D+01  0.244908D+00
     28  0.182008D-01 -0.651196D-01  0.331094D-01  0.184098D+01 -0.283089D+00
     29 -0.513644D+00  0.323207D+02 -0.694538D+01 -0.426256D+00  0.918974D+01
     30  0.798997D+01 -0.752992D+01  0.311810D+01  0.913815D+00 -0.408950D+00
     31  0.377037D+00 -0.313700D+01  0.686209D+01  0.825004D+01  0.112107D+01
                6             7             8             9            10 
      6  0.385007D+12
      7 -0.228328D+02  0.385007D+12
      8  0.287699D-01 -0.224633D+00  0.708114D+10
      9  0.805102D+00  0.869973D+00 -0.103127D+00  0.201170D+10
     10 -0.162936D+01 -0.798233D+00 -0.211062D-01  0.718876D+02  0.385007D+12
     11  0.322953D-02 -0.155754D-01 -0.197482D+01  0.185548D+00  0.386326D+00
     12 -0.378021D-02 -0.112133D-01 -0.205915D+01  0.118357D+00 -0.588932D-02
     13  0.858091D-03  0.711730D-02 -0.635587D+00  0.177191D+00  0.127298D+00
     14  0.137280D-01  0.385760D-02 -0.101189D+01 -0.124320D-01 -0.381522D-01
     15  0.998513D-02  0.626718D-02 -0.101577D+01 -0.532425D-02 -0.334291D-01
     16 -0.375534D-03  0.250335D-02 -0.740025D+00  0.549095D-01 -0.291188D-01
     17  0.160268D+00  0.280511D+00 -0.613654D-01  0.150338D+02  0.324428D+01
     18  0.378376D-02  0.780536D-02 -0.774196D-01  0.718640D+01  0.762599D+00
     19  0.464287D-01  0.297789D-01  0.944951D-03  0.779703D+00 -0.302223D+00
     20  0.155063D-02  0.138648D-01 -0.194475D-01  0.721307D+00 -0.234911D+00
     21 -0.587689D-02  0.102007D-01 -0.919258D-02  0.955590D+00 -0.496227D+00
     22 -0.309000D-01 -0.180977D-01  0.342803D+00 -0.175344D+01 -0.179404D+01
     23 -0.418614D+01 -0.608724D+01 -0.786855D-02 -0.964165D-02  0.101713D-01
     24  0.345869D+01  0.136110D+02 -0.319718D+00 -0.864254D-01  0.159886D+00
     25  0.990238D+01  0.308352D+01 -0.123559D+01  0.479804D-01 -0.258618D-01
     26 -0.236342D+00 -0.726370D+00 -0.363077D+00  0.200395D-01 -0.498048D-02
     27  0.243259D+01 -0.254827D+00  0.103031D+00 -0.247435D-03  0.555772D-02
     28  0.358841D-01 -0.142064D+00 -0.181504D+00 -0.422108D-02 -0.832509D-02
     29  0.179059D+01  0.190214D+01 -0.318570D+00  0.356500D+00  0.358567D+01
     30 -0.429919D+00 -0.160702D+00 -0.264691D+00  0.179398D+01 -0.711707D+00
     31 -0.302771D-01 -0.469322D+00  0.770733D-01  0.402249D+01 -0.688771D+00
               11            12            13            14            15 
     11  0.201170D+10
     12  0.703216D+02  0.385007D+12
     13  0.960801D+01  0.240302D+01  0.243533D+11
     14 -0.136803D+01  0.178988D+01  0.153395D+03  0.385007D+12
     15 -0.115093D+01  0.525048D+01  0.159702D+03 -0.228209D+02  0.385007D+12
     16 -0.859078D+00  0.897030D+01  0.143335D+03 -0.228810D+02 -0.238110D+02
     17 -0.374072D-01 -0.202690D-02 -0.160829D-01  0.644781D-02  0.262898D-02
     18  0.985928D-02  0.899379D-02  0.208000D-01  0.125064D-01  0.834912D-02
     19  0.140372D-01  0.129949D-02  0.482434D-03 -0.172137D-02 -0.100786D-02
     20 -0.620368D-02 -0.510767D-02 -0.282444D-02  0.142720D-02 -0.110710D-02
     21  0.320246D-01 -0.104296D-02  0.161626D-01  0.435908D-02 -0.147932D-02
     22 -0.538137D-01  0.711625D-02 -0.755819D-02 -0.273146D-01 -0.121353D-01
     23 -0.103605D-01  0.167552D-01 -0.148816D-01  0.622377D-02 -0.386752D-02
     24 -0.169602D-02 -0.101477D-02  0.822184D-01  0.372929D-02 -0.327429D-02
     25  0.149396D+00 -0.539328D-01  0.295068D+00  0.243236D+00  0.325595D-01
     26  0.251882D+00 -0.531296D-01  0.273304D+00 -0.677973D-01  0.416732D-01
     27  0.101889D+00  0.481444D-01 -0.143374D-01  0.143006D+00  0.747131D-01
     28  0.197593D+00 -0.537748D-01  0.536433D-01  0.771741D-01  0.540459D-01
     29  0.633644D-01 -0.233817D+00 -0.235309D+00  0.624276D+00  0.737176D+00
     30 -0.901623D-01 -0.180911D+00 -0.308644D-01  0.758803D-01  0.123743D+00
     31  0.121062D+00 -0.210630D+00 -0.301776D-02 -0.873397D-02 -0.173168D-02
               16            17            18            19            20 
     16  0.385007D+12
     17 -0.971399D-03  0.243533D+11
     18  0.202150D-02  0.537587D+02  0.243533D+11
     19  0.657480D-04 -0.591557D+01  0.133981D+03  0.385007D+12
     20  0.407132D-02 -0.928289D+01  0.139654D+03 -0.226983D+02  0.385007D+12
     21  0.112426D-01 -0.946335D+01  0.141727D+03 -0.229846D+02 -0.287950D+02
     22 -0.816888D-02  0.101756D+02 -0.400680D+01 -0.351430D+01 -0.181380D+01
     23 -0.383201D-02 -0.101830D+00  0.715146D-02  0.211188D-02 -0.103068D-01
     24  0.864669D-02  0.107069D+00 -0.110411D-01  0.786764D-02  0.362527D-02
     25  0.528338D-01 -0.150158D-01  0.622237D-02  0.123873D-02 -0.691389D-04
     26  0.251384D-01 -0.171248D-02 -0.341963D-03 -0.931730D-03 -0.213889D-03
     27  0.167359D-01  0.939881D-03  0.267399D-03  0.188110D-02 -0.499962D-03
     28  0.138582D-01 -0.144014D-01 -0.502611D-03 -0.614246D-03 -0.550188D-03
     29  0.103478D-01  0.278304D+01 -0.771756D-01 -0.111702D-01  0.985917D-01
     30  0.155695D-01 -0.181663D-01  0.134015D+00 -0.323557D-02 -0.605501D-02
     31  0.107208D-01  0.812814D+00  0.481962D+00  0.735349D-03  0.657323D-01
               21            22            23            24            25 
     21  0.385007D+12
     22 -0.186534D+01  0.708114D+10
     23 -0.736843D-03 -0.612855D-01  0.243533D+11
     24  0.150234D-02 -0.544521D-01  0.132512D+03  0.385007D+12
     25  0.652860D-03 -0.365328D-01  0.340847D+02 -0.731314D+01  0.243533D+11
     26  0.166127D-02  0.363473D-02 -0.603404D+01  0.135290D+02  0.138533D+03
     27 -0.120051D-03  0.400766D-03 -0.433826D+01  0.342289D+01  0.133143D+03
     28 -0.262678D-03 -0.580115D-02 -0.491884D+01  0.563319D+01  0.133445D+03
     29 -0.423783D-01 -0.190429D+00  0.339775D+02 -0.674517D+01 -0.490229D+00
     30 -0.239763D-01  0.131761D-02 -0.461822D+01  0.629533D+01  0.802211D+01
     31 -0.561122D-01  0.241491D-01 -0.522986D+01  0.280939D+01  0.357928D+01
               26            27            28            29            30 
     26  0.385007D+12
     27 -0.234764D+02  0.385007D+12
     28 -0.264778D+02 -0.247993D+02  0.385007D+12
     29  0.150035D+01  0.299821D+01  0.980634D+01  0.243533D+11
     30 -0.623055D+00  0.748176D-01  0.102877D+01  0.135568D+03  0.385007D+12
     31 -0.286351D+00 -0.571001D+00  0.897146D-01  0.134096D+03 -0.285116D+02
               31 
     31  0.385007D+12
 End of Minotr F.D. properties file   721 does not exist.
 End of Minotr F.D. properties file   722 does not exist.
 End of Minotr F.D. properties file   788 does not exist.
 Leave Link 1002 at Wed Jun 18 09:23:44 2014, MaxMem=  4294967296 cpu:    395742.6
 (Enter /home/ztw1e12/g09/l601.exe)
 Copying SCF densities to generalized density rwf, IOpCl= 0 IROHF=0.

 **********************************************************************

            Population analysis using the SCF density.

 **********************************************************************

 Orbital symmetries:
       Occupied  (A) (A) (A) (A) (A) (A) (A) (A) (A) (A) (A) (A)
                 (A) (A) (A) (A) (A) (A) (A) (A) (A) (A) (A) (A)
                 (A) (A) (A) (A) (A) (A) (A) (A) (A) (A) (A) (A)
                 (A) (A) (A) (A) (A) (A) (A) (A) (A) (A) (A) (A)
                 (A) (A) (A)
       Virtual   (A) (A) (A) (A) (A) (A) (A) (A) (A) (A) (A) (A)
                 (A) (A) (A) (A) (A) (A) (A) (A) (A) (A) (A) (A)
                 (A) (A) (A) (A) (A) (A) (A) (A) (A) (A) (A) (A)
                 (A) (A) (A) (A) (A) (A) (A) (A) (A) (A) (A) (A)
                 (A) (A) (A) (A) (A) (A) (A) (A) (A) (A) (A) (A)
                 (A) (A) (A) (A) (A) (A) (A) (A) (A) (A) (A) (A)
                 (A) (A) (A) (A) (A) (A) (A) (A) (A) (A) (A) (A)
                 (A) (A) (A) (A) (A) (A) (A) (A) (A) (A) (A) (A)
                 (A) (A) (A) (A) (A) (A) (A) (A) (A) (A) (A) (A)
                 (A) (A) (A) (A) (A) (A) (A) (A) (A) (A) (A) (A)
                 (A) (A) (A) (A) (A) (A) (A) (A) (A) (A) (A) (A)
                 (A) (A) (A) (A) (A) (A) (A) (A) (A) (A) (A) (A)
                 (A) (A) (A) (A) (A) (A) (A) (A) (A) (A) (A) (A)
                 (A) (A) (A) (A) (A) (A) (A) (A) (A) (A) (A) (A)
                 (A) (A) (A) (A) (A) (A) (A) (A) (A) (A) (A) (A)
                 (A) (A) (A) (A) (A) (A) (A) (A) (A) (A) (A) (A)
                 (A) (A) (A) (A) (A) (A) (A) (A) (A) (A) (A) (A)
                 (A) (A) (A) (A) (A) (A) (A) (A) (A) (A) (A) (A)
                 (A) (A) (A) (A) (A) (A) (A) (A) (A) (A) (A) (A)
                 (A) (A) (A) (A) (A) (A) (A) (A) (A) (A) (A) (A)
                 (A) (A) (A) (A) (A) (A) (A) (A) (A) (A) (A) (A)
                 (A) (A) (A) (A) (A) (A) (A) (A) (A) (A) (A) (A)
                 (A) (A) (A) (A) (A) (A) (A) (A) (A) (A) (A) (A)
                 (A) (A) (A) (A) (A) (A) (A) (A) (A) (A) (A) (A)
                 (A) (A) (A) (A) (A) (A) (A) (A) (A) (A) (A) (A)
                 (A) (A) (A) (A) (A) (A) (A) (A) (A) (A) (A) (A)
                 (A) (A) (A) (A) (A) (A) (A) (A) (A) (A) (A) (A)
                 (A) (A) (A) (A) (A) (A) (A) (A) (A) (A) (A) (A)
                 (A) (A) (A) (A) (A) (A) (A) (A) (A) (A) (A) (A)
                 (A) (A) (A) (A) (A) (A) (A) (A) (A) (A) (A) (A)
                 (A) (A) (A) (A) (A) (A) (A) (A) (A) (A) (A) (A)
                 (A) (A) (A) (A) (A) (A) (A) (A) (A) (A) (A) (A)
                 (A) (A) (A) (A) (A) (A) (A) (A) (A) (A) (A) (A)
                 (A) (A) (A) (A) (A) (A) (A) (A) (A) (A) (A) (A)
                 (A) (A) (A) (A) (A) (A) (A) (A) (A) (A) (A) (A)
                 (A) (A) (A) (A) (A) (A) (A) (A) (A) (A) (A) (A)
                 (A) (A) (A) (A) (A) (A) (A) (A) (A) (A) (A) (A)
                 (A) (A) (A) (A) (A) (A) (A) (A) (A) (A) (A) (A)
                 (A) (A) (A) (A) (A) (A) (A) (A) (A) (A) (A) (A)
                 (A) (A) (A) (A) (A) (A) (A) (A) (A) (A) (A) (A)
                 (A) (A) (A) (A) (A) (A) (A) (A) (A) (A) (A) (A)
                 (A) (A) (A) (A) (A) (A) (A) (A) (A) (A) (A) (A)
                 (A) (A) (A) (A) (A) (A) (A) (A) (A) (A) (A) (A)
                 (A) (A) (A) (A) (A) (A) (A) (A) (A) (A) (A) (A)
                 (A) (A) (A) (A) (A) (A) (A) (A) (A) (A) (A) (A)
                 (A) (A) (A) (A) (A) (A) (A) (A) (A) (A) (A) (A)
                 (A) (A) (A) (A) (A) (A) (A) (A) (A) (A) (A) (A)
                 (A) (A) (A) (A) (A) (A) (A) (A) (A) (A) (A) (A)
                 (A) (A) (A) (A) (A) (A) (A) (A) (A) (A) (A) (A)
                 (A) (A) (A) (A) (A) (A) (A) (A) (A) (A) (A) (A)
                 (A) (A) (A) (A) (A) (A) (A) (A) (A) (A) (A) (A)
                 (A) (A) (A) (A) (A) (A) (A) (A) (A) (A) (A) (A)
                 (A) (A) (A) (A) (A) (A) (A) (A) (A) (A) (A) (A)
                 (A) (A) (A) (A) (A) (A) (A) (A) (A) (A) (A) (A)
                 (A) (A) (A) (A) (A) (A) (A) (A) (A) (A) (A) (A)
                 (A) (A) (A) (A) (A) (A) (A) (A) (A) (A) (A) (A)
                 (A) (A) (A) (A) (A) (A) (A) (A) (A) (A) (A) (A)
                 (A) (A) (A) (A) (A) (A) (A) (A) (A) (A) (A) (A)
                 (A) (A) (A) (A) (A) (A) (A) (A) (A) (A) (A) (A)
                 (A) (A) (A) (A) (A) (A) (A) (A) (A) (A) (A) (A)
                 (A) (A) (A) (A) (A) (A) (A) (A) (A) (A) (A) (A)
                 (A) (A) (A) (A) (A) (A) (A) (A) (A) (A) (A) (A)
                 (A) (A) (A) (A) (A) (A) (A) (A) (A) (A) (A) (A)
                 (A) (A) (A) (A) (A) (A) (A) (A) (A) (A) (A) (A)
                 (A) (A) (A) (A) (A) (A) (A) (A) (A) (A) (A) (A)
                 (A) (A) (A) (A) (A) (A) (A) (A) (A) (A) (A) (A)
                 (A) (A) (A) (A) (A) (A) (A) (A) (A) (A) (A) (A)
                 (A) (A) (A) (A) (A) (A) (A) (A) (A) (A) (A) (A)
                 (A) (A) (A) (A) (A) (A) (A) (A) (A) (A) (A) (A)
                 (A) (A) (A) (A) (A) (A) (A) (A) (A) (A) (A) (A)
                 (A) (A) (A) (A) (A) (A) (A) (A) (A) (A) (A) (A)
                 (A) (A) (A) (A) (A) (A) (A) (A) (A) (A) (A) (A)
                 (A) (A) (A) (A) (A) (A) (A) (A) (A) (A) (A) (A)
                 (A) (A) (A) (A) (A)
 The electronic state is 1-A.
 Alpha  occ. eigenvalues --  -19.17225 -19.16286 -14.41874 -14.41242 -10.33491
 Alpha  occ. eigenvalues --  -10.33184 -10.29196 -10.27176 -10.25744 -10.25416
 Alpha  occ. eigenvalues --  -10.23666 -10.23356 -10.22865  -1.05403  -1.03966
 Alpha  occ. eigenvalues --   -0.94350  -0.94082  -0.83696  -0.78449  -0.74233
 Alpha  occ. eigenvalues --   -0.72121  -0.70228  -0.66569  -0.60805  -0.59581
 Alpha  occ. eigenvalues --   -0.57856  -0.54798  -0.50572  -0.49410  -0.47990
 Alpha  occ. eigenvalues --   -0.47109  -0.46473  -0.45413  -0.45321  -0.44543
 Alpha  occ. eigenvalues --   -0.42357  -0.41417  -0.40961  -0.40527  -0.40313
 Alpha  occ. eigenvalues --   -0.39514  -0.38419  -0.38133  -0.36463  -0.35296
 Alpha  occ. eigenvalues --   -0.34767  -0.32866  -0.28142  -0.27633  -0.26131
 Alpha  occ. eigenvalues --   -0.25905
 Alpha virt. eigenvalues --    0.00886   0.02567   0.02587   0.03739   0.04586
 Alpha virt. eigenvalues --    0.05131   0.06927   0.07397   0.07954   0.08607
 Alpha virt. eigenvalues --    0.09939   0.10720   0.11390   0.11681   0.12126
 Alpha virt. eigenvalues --    0.12485   0.12669   0.12904   0.13911   0.14903
 Alpha virt. eigenvalues --    0.15907   0.17285   0.18224   0.19648   0.20138
 Alpha virt. eigenvalues --    0.21521   0.23190   0.23429   0.24478   0.25285
 Alpha virt. eigenvalues --    0.25666   0.26456   0.26784   0.27520   0.27817
 Alpha virt. eigenvalues --    0.28834   0.29156   0.30219   0.31004   0.31333
 Alpha virt. eigenvalues --    0.32687   0.34068   0.34488   0.34781   0.35703
 Alpha virt. eigenvalues --    0.37014   0.37394   0.37757   0.38391   0.38818
 Alpha virt. eigenvalues --    0.39244   0.40341   0.40797   0.41164   0.41383
 Alpha virt. eigenvalues --    0.41823   0.42282   0.42532   0.43094   0.43299
 Alpha virt. eigenvalues --    0.43531   0.44729   0.45156   0.45779   0.45923
 Alpha virt. eigenvalues --    0.46187   0.47170   0.47867   0.48422   0.49539
 Alpha virt. eigenvalues --    0.50013   0.50550   0.51457   0.52421   0.52996
 Alpha virt. eigenvalues --    0.53651   0.54293   0.55559   0.55929   0.57044
 Alpha virt. eigenvalues --    0.57311   0.59343   0.60002   0.60981   0.61807
 Alpha virt. eigenvalues --    0.63045   0.64169   0.65243   0.66516   0.67097
 Alpha virt. eigenvalues --    0.70087   0.70339   0.71793   0.72873   0.73656
 Alpha virt. eigenvalues --    0.74440   0.75676   0.76769   0.77787   0.78290
 Alpha virt. eigenvalues --    0.79358   0.80213   0.82845   0.83443   0.83822
 Alpha virt. eigenvalues --    0.85166   0.86059   0.86332   0.86840   0.87383
 Alpha virt. eigenvalues --    0.88813   0.89523   0.90245   0.90803   0.91717
 Alpha virt. eigenvalues --    0.93052   0.93752   0.94529   0.95410   0.95781
 Alpha virt. eigenvalues --    0.96015   0.96405   0.96973   0.97579   0.98152
 Alpha virt. eigenvalues --    0.99559   1.00565   1.01741   1.02951   1.03224
 Alpha virt. eigenvalues --    1.04014   1.04434   1.05488   1.06199   1.06347
 Alpha virt. eigenvalues --    1.07476   1.08358   1.08911   1.10261   1.10790
 Alpha virt. eigenvalues --    1.11410   1.11674   1.12865   1.13647   1.14618
 Alpha virt. eigenvalues --    1.14976   1.16289   1.17372   1.18916   1.19419
 Alpha virt. eigenvalues --    1.19845   1.20520   1.20695   1.21366   1.21786
 Alpha virt. eigenvalues --    1.22123   1.22477   1.23411   1.23661   1.24138
 Alpha virt. eigenvalues --    1.25177   1.25629   1.26133   1.26454   1.27324
 Alpha virt. eigenvalues --    1.27751   1.27948   1.28819   1.29594   1.30177
 Alpha virt. eigenvalues --    1.30846   1.31047   1.31915   1.32874   1.33651
 Alpha virt. eigenvalues --    1.34759   1.35694   1.36276   1.36931   1.37953
 Alpha virt. eigenvalues --    1.38313   1.38795   1.39975   1.41586   1.42409
 Alpha virt. eigenvalues --    1.43398   1.44411   1.45172   1.47448   1.48289
 Alpha virt. eigenvalues --    1.49469   1.50213   1.53000   1.54285   1.55966
 Alpha virt. eigenvalues --    1.57042   1.60836   1.61356   1.62536   1.64163
 Alpha virt. eigenvalues --    1.66565   1.67547   1.69460   1.71176   1.72881
 Alpha virt. eigenvalues --    1.74721   1.76599   1.77779   1.80478   1.82661
 Alpha virt. eigenvalues --    1.84246   1.88339   1.90406   1.91258   1.92570
 Alpha virt. eigenvalues --    1.94076   1.96707   1.98285   1.98735   2.00162
 Alpha virt. eigenvalues --    2.00944   2.03721   2.04241   2.05678   2.07828
 Alpha virt. eigenvalues --    2.09584   2.11109   2.13347   2.14910   2.17902
 Alpha virt. eigenvalues --    2.18637   2.18851   2.20966   2.22366   2.24184
 Alpha virt. eigenvalues --    2.24655   2.26868   2.29382   2.30058   2.31789
 Alpha virt. eigenvalues --    2.33261   2.35280   2.36743   2.36870   2.40238
 Alpha virt. eigenvalues --    2.40638   2.41548   2.42864   2.43361   2.45780
 Alpha virt. eigenvalues --    2.45960   2.46580   2.46979   2.47388   2.49433
 Alpha virt. eigenvalues --    2.50481   2.51775   2.54416   2.55010   2.55527
 Alpha virt. eigenvalues --    2.56578   2.57049   2.58237   2.60048   2.63253
 Alpha virt. eigenvalues --    2.64457   2.65916   2.67346   2.67706   2.69224
 Alpha virt. eigenvalues --    2.69714   2.71106   2.71608   2.72445   2.73350
 Alpha virt. eigenvalues --    2.73960   2.75167   2.76879   2.77116   2.78195
 Alpha virt. eigenvalues --    2.79457   2.80587   2.80843   2.83040   2.83371
 Alpha virt. eigenvalues --    2.84436   2.85458   2.85825   2.86443   2.87011
 Alpha virt. eigenvalues --    2.88475   2.89387   2.89620   2.90888   2.91786
 Alpha virt. eigenvalues --    2.93150   2.93648   2.94412   2.95132   2.95543
 Alpha virt. eigenvalues --    2.96573   2.97160   2.97954   2.98607   2.98990
 Alpha virt. eigenvalues --    2.99594   2.99962   3.01755   3.02538   3.03185
 Alpha virt. eigenvalues --    3.03471   3.04908   3.05029   3.06331   3.06598
 Alpha virt. eigenvalues --    3.07225   3.08205   3.08622   3.09771   3.10305
 Alpha virt. eigenvalues --    3.11128   3.12112   3.14008   3.14477   3.15588
 Alpha virt. eigenvalues --    3.16481   3.18165   3.18726   3.19187   3.20770
 Alpha virt. eigenvalues --    3.21088   3.22115   3.23713   3.24525   3.25599
 Alpha virt. eigenvalues --    3.25959   3.26521   3.27623   3.28235   3.28450
 Alpha virt. eigenvalues --    3.29038   3.30168   3.30590   3.31343   3.32126
 Alpha virt. eigenvalues --    3.32742   3.33743   3.34163   3.36106   3.37027
 Alpha virt. eigenvalues --    3.37502   3.38216   3.38837   3.39469   3.41082
 Alpha virt. eigenvalues --    3.41605   3.42386   3.42423   3.43498   3.44340
 Alpha virt. eigenvalues --    3.45485   3.46629   3.47996   3.48058   3.48325
 Alpha virt. eigenvalues --    3.48845   3.50242   3.50535   3.51554   3.53011
 Alpha virt. eigenvalues --    3.54527   3.56359   3.57673   3.58355   3.59394
 Alpha virt. eigenvalues --    3.60460   3.61908   3.62632   3.64782   3.65026
 Alpha virt. eigenvalues --    3.66499   3.67498   3.68349   3.70112   3.70724
 Alpha virt. eigenvalues --    3.72421   3.73299   3.73699   3.74480   3.76489
 Alpha virt. eigenvalues --    3.76769   3.78191   3.78520   3.79860   3.80846
 Alpha virt. eigenvalues --    3.81363   3.81432   3.83076   3.84228   3.85813
 Alpha virt. eigenvalues --    3.86066   3.86924   3.87723   3.89069   3.90104
 Alpha virt. eigenvalues --    3.91602   3.92650   3.93239   3.93880   3.94949
 Alpha virt. eigenvalues --    3.95351   3.97137   3.98209   3.98362   4.00400
 Alpha virt. eigenvalues --    4.00841   4.01279   4.02955   4.04219   4.05641
 Alpha virt. eigenvalues --    4.06525   4.07666   4.08191   4.09179   4.10474
 Alpha virt. eigenvalues --    4.11410   4.12542   4.13743   4.14877   4.15342
 Alpha virt. eigenvalues --    4.15999   4.16872   4.17717   4.18396   4.19719
 Alpha virt. eigenvalues --    4.20274   4.21402   4.23244   4.23973   4.24923
 Alpha virt. eigenvalues --    4.25486   4.26687   4.27178   4.28823   4.29352
 Alpha virt. eigenvalues --    4.30154   4.30717   4.33133   4.34702   4.35210
 Alpha virt. eigenvalues --    4.36362   4.37484   4.39374   4.41659   4.42882
 Alpha virt. eigenvalues --    4.43745   4.46067   4.46955   4.47821   4.49967
 Alpha virt. eigenvalues --    4.51225   4.52349   4.53392   4.53893   4.54851
 Alpha virt. eigenvalues --    4.57223   4.57984   4.60087   4.60515   4.61444
 Alpha virt. eigenvalues --    4.61613   4.63158   4.63493   4.64204   4.65605
 Alpha virt. eigenvalues --    4.67208   4.68236   4.69040   4.70794   4.72622
 Alpha virt. eigenvalues --    4.73351   4.74847   4.75631   4.75994   4.78638
 Alpha virt. eigenvalues --    4.79073   4.79865   4.81437   4.82361   4.84025
 Alpha virt. eigenvalues --    4.84257   4.86594   4.89769   4.90551   4.91707
 Alpha virt. eigenvalues --    4.92100   4.93707   4.94835   4.96460   4.96767
 Alpha virt. eigenvalues --    4.98224   4.99848   5.01283   5.02045   5.03444
 Alpha virt. eigenvalues --    5.04377   5.05763   5.07302   5.07482   5.09374
 Alpha virt. eigenvalues --    5.09600   5.12818   5.13376   5.14470   5.15228
 Alpha virt. eigenvalues --    5.16797   5.17560   5.18578   5.19315   5.21624
 Alpha virt. eigenvalues --    5.22166   5.22469   5.22968   5.25309   5.26186
 Alpha virt. eigenvalues --    5.27602   5.28039   5.28579   5.30082   5.30372
 Alpha virt. eigenvalues --    5.32239   5.33619   5.36366   5.38362   5.39893
 Alpha virt. eigenvalues --    5.42067   5.42919   5.45714   5.47806   5.50571
 Alpha virt. eigenvalues --    5.52487   5.53177   5.55932   5.57862   5.58772
 Alpha virt. eigenvalues --    5.60940   5.62541   5.63953   5.65509   5.66147
 Alpha virt. eigenvalues --    5.66491   5.68713   5.69401   5.72219   5.72567
 Alpha virt. eigenvalues --    5.75176   5.76217   5.78341   5.80820   5.81277
 Alpha virt. eigenvalues --    5.81411   5.83949   5.85799   5.87597   5.89193
 Alpha virt. eigenvalues --    5.91398   5.92726   5.96700   6.02559   6.06086
 Alpha virt. eigenvalues --    6.11577   6.18794   6.21580   6.23228   6.27169
 Alpha virt. eigenvalues --    6.52640   6.53905   6.58407   6.63385   6.65623
 Alpha virt. eigenvalues --    6.66808   6.78136   6.82283   6.90601   6.92610
 Alpha virt. eigenvalues --    6.93464   6.96379   7.18814   7.20340   7.24808
 Alpha virt. eigenvalues --    7.27788   8.13402   8.34146   8.67855   8.73925
 Alpha virt. eigenvalues --    8.78584   8.79625   8.81429   8.83196   8.84144
 Alpha virt. eigenvalues --    8.87586   8.88306   8.89042   8.89199   8.91612
 Alpha virt. eigenvalues --    8.93637   8.96458   8.98274   8.98967   9.01581
 Alpha virt. eigenvalues --    9.03728   9.10003   9.12349   9.15391   9.15565
 Alpha virt. eigenvalues --    9.23228   9.59965   9.62247   9.77494   9.83580
 Alpha virt. eigenvalues --    9.92606   9.94897  10.10730  10.12385  10.15052
 Alpha virt. eigenvalues --   10.18097  10.19392  10.20958  10.21744  10.24024
 Alpha virt. eigenvalues --   10.28622  10.30294  10.31594  10.35403  10.35619
 Alpha virt. eigenvalues --   10.42117  11.76377  11.82697  12.03899  12.14339
 Alpha virt. eigenvalues --   12.16011  12.23232  12.23478  12.26325  12.32344
 Alpha virt. eigenvalues --   12.39288  12.48778  12.56165  12.59316  12.83440
 Alpha virt. eigenvalues --   12.93459  14.97275  15.04408  15.24391  15.27781
 Alpha virt. eigenvalues --   15.99873  16.06191  16.83785  16.90717  22.01528
 Alpha virt. eigenvalues --   22.13051  40.17339  40.30493  40.66829  40.68578
 Alpha virt. eigenvalues --   40.69602  40.71294  40.72104  40.74299  40.76470
 Alpha virt. eigenvalues --   40.77972  40.80622  40.82204  40.82814  40.82984
 Alpha virt. eigenvalues --   40.83357  40.83935  40.84635  40.85056  40.86914
 Alpha virt. eigenvalues --   40.87596  40.87875  40.89695  40.90547  40.90992
 Alpha virt. eigenvalues --   40.91362  40.91790  40.93495  46.34106  46.44197
 Alpha virt. eigenvalues --   46.48294  46.55627  46.56191  46.58141  46.63683
 Alpha virt. eigenvalues --   46.73625  46.80566  54.45792  54.46369  55.78121
 Alpha virt. eigenvalues --   55.84399  55.97937  55.98607  56.06640  56.17467
 Alpha virt. eigenvalues --   56.21726  56.22042  56.26249  56.30487  56.36646
 Alpha virt. eigenvalues --   56.44553  56.47048  56.55860  56.58489  56.63918
 Alpha virt. eigenvalues --   57.47272  57.51003  57.99553  58.02773  58.19391
 Alpha virt. eigenvalues --   58.25791  64.71027  64.77335  73.94394  73.98478
 Alpha virt. eigenvalues --   74.10096  74.11610  74.64017  74.67436  86.07295
 Alpha virt. eigenvalues --   86.17672 165.43395 165.52065 165.57337 165.63583
 Alpha virt. eigenvalues --  165.64115 165.65668 165.70105 165.79059 165.85321
 Alpha virt. eigenvalues --  226.52023 226.57434 230.58132 230.64050 235.45961
 Alpha virt. eigenvalues --  235.81840 236.30682 236.36066 236.53099 236.82251
 Alpha virt. eigenvalues --  236.87463 237.09170 237.14594 237.55971 237.77405
 Alpha virt. eigenvalues --  237.97108 238.06998 238.17014 238.53844 238.61245
 Alpha virt. eigenvalues --  308.80868 308.90148 624.54758 624.60988 624.63261
 Alpha virt. eigenvalues --  624.68508 624.69392 624.72579 624.75788 624.83042
 Alpha virt. eigenvalues --  624.87417 793.85103 794.58071 825.65084 827.11305
 Alpha virt. eigenvalues --  827.25874 827.92904 828.30626 828.66525 829.17745
 Alpha virt. eigenvalues --  829.32087 830.38346 831.34297 832.01632 832.57831
 Alpha virt. eigenvalues --  832.97925 833.25035 834.41787 834.67455 868.34232
 Alpha virt. eigenvalues --  868.401371165.935781166.020252484.038862485.44529
 Alpha virt. eigenvalues -- 2587.375322589.609372595.619792596.216832597.11564
 Alpha virt. eigenvalues -- 2598.024222599.214432600.960042601.928042605.87237
 Alpha virt. eigenvalues -- 2607.638972607.900392609.023532609.765032611.62545
 Alpha virt. eigenvalues -- 2614.558092740.322232740.344522740.377482740.41191
 Alpha virt. eigenvalues -- 2740.431122740.511652740.517212740.570452740.57372
 Alpha virt. eigenvalues -- 3787.320563787.380255073.317065073.391848285.08790
 Alpha virt. eigenvalues -- 8296.515988625.201618634.121148637.193058639.84481
 Alpha virt. eigenvalues -- 8643.287518647.389718648.458388650.006088661.55836
 Alpha virt. eigenvalues -- 8669.572078675.219458679.009468683.831558684.76342
 Alpha virt. eigenvalues -- 8694.727508695.92322******************************
 Alpha virt. eigenvalues -- **************************************************
 Alpha virt. eigenvalues -- **************************************************
 Alpha virt. eigenvalues -- **************************************************
 Alpha virt. eigenvalues -- **************************************************
 Alpha virt. eigenvalues -- **************************************************
 Alpha virt. eigenvalues -- **************************************************
 Alpha virt. eigenvalues -- **************************************************
 Alpha virt. eigenvalues -- **********
          Condensed to atoms (all electrons):
               1          2          3          4          5          6
     1  C    4.654962   0.178699  -0.051651  -0.006955  -0.000054   0.001170
     2  C    0.178699   5.307239   0.402444   0.008405  -0.000576  -0.005001
     3  H   -0.051651   0.402444   0.489513  -0.000024   0.000069  -0.000183
     4  C   -0.006955   0.008405  -0.000024   5.030694   0.392635   0.407442
     5  H   -0.000054  -0.000576   0.000069   0.392635   0.536192  -0.009937
     6  H    0.001170  -0.005001  -0.000183   0.407442  -0.009937   0.560103
     7  H   -0.005151   0.004380   0.000811   0.386845  -0.009559  -0.031221
     8  O    0.698669  -0.086722   0.004728  -0.006539   0.000147  -0.000057
     9  N   -0.065193   0.321868  -0.032071  -0.009888   0.000753  -0.003033
    10  H    0.003330  -0.040990   0.002372   0.004803   0.000182   0.003384
    11  N    0.324175  -0.110093   0.005151  -0.000196   0.000014  -0.000044
    12  H   -0.024936   0.008180   0.000109   0.000067  -0.000001  -0.000007
    13  C   -0.041626   0.010336  -0.001149   0.000033  -0.000004   0.000003
    14  H    0.003330   0.000502   0.000117   0.000012  -0.000002   0.000000
    15  H   -0.011288  -0.000180  -0.000293   0.000007   0.000000   0.000000
    16  H    0.006996   0.000508  -0.000160   0.000001   0.000000   0.000000
    17  C   -0.007782  -0.054794   0.002090   0.000223   0.000030   0.000094
    18  C   -0.005427   0.016376   0.002225  -0.000102   0.000005   0.000055
    19  H    0.000433  -0.000166  -0.000298   0.000143  -0.000008   0.000099
    20  H   -0.000132  -0.000563   0.000172   0.000010   0.000001  -0.000023
    21  H    0.000738  -0.000645  -0.000190  -0.000008  -0.000003   0.000010
    22  O   -0.002238   0.017806   0.017464   0.000028   0.000000   0.000010
    23  C    0.001382   0.002046   0.006478   0.329260  -0.035505  -0.051759
    24  H   -0.000124   0.007979  -0.000289  -0.040093  -0.006452  -0.005583
    25  C    0.002570  -0.017269  -0.000156  -0.050296  -0.004071   0.007685
    26  H    0.020792   0.000965  -0.000218  -0.001431  -0.001192   0.000275
    27  H   -0.001835  -0.000927  -0.000058   0.007840  -0.000141  -0.000511
    28  H   -0.000626   0.000089   0.000033  -0.004427   0.004636  -0.000254
    29  C   -0.014491   0.270533  -0.035777  -0.038094   0.008392   0.003311
    30  H    0.009999  -0.054459  -0.010414  -0.004794  -0.000687   0.003460
    31  H   -0.001540  -0.047388  -0.006816   0.007291  -0.000496   0.000278
               7          8          9         10         11         12
     1  C   -0.005151   0.698669  -0.065193   0.003330   0.324175  -0.024936
     2  C    0.004380  -0.086722   0.321868  -0.040990  -0.110093   0.008180
[...]
 Alpha virt. eigenvalues --    4.37711   4.39064   4.41089   4.42781   4.45028
 Alpha virt. eigenvalues --    4.45953   4.47744   4.49082   4.50642   4.51844
 Alpha virt. eigenvalues --    4.53268   4.55733   4.56977   4.58434   4.58478
 Alpha virt. eigenvalues --    4.60752   4.63409   4.65098   4.66290   4.67895
 Alpha virt. eigenvalues --    4.69242   4.69488   4.71041   4.71929   4.73036
 Alpha virt. eigenvalues --    4.73787   4.75643   4.76898   4.77720   4.79567
 Alpha virt. eigenvalues --    4.80233   4.81860   4.82311   4.83405   4.84338
 Alpha virt. eigenvalues --    4.85961   4.86157   4.88425   4.89899   4.91946
 Alpha virt. eigenvalues --    4.92537   4.93199   4.94593   4.95476   4.95568
 Alpha virt. eigenvalues --    4.96264   4.97306   5.00343   5.01635   5.02051
 Alpha virt. eigenvalues --    5.03306   5.03948   5.05255   5.05917   5.08195
 Alpha virt. eigenvalues --    5.08866   5.09634   5.11088   5.12914   5.13328
 Alpha virt. eigenvalues --    5.14040   5.14651   5.16018   5.17220   5.17327
 Alpha virt. eigenvalues --    5.19563   5.20610   5.21437   5.22312   5.22885
 Alpha virt. eigenvalues --    5.24088   5.24802   5.27606   5.28116   5.29160
 Alpha virt. eigenvalues --    5.29925   5.30145   5.32160   5.33146   5.34082
 Alpha virt. eigenvalues --    5.35228   5.36414   5.37089   5.38120   5.40012
 Alpha virt. eigenvalues --    5.42639   5.46569   5.49960   5.51613   5.54884
 Alpha virt. eigenvalues --    5.58247   5.59265   5.63319   5.64438   5.71721
 Alpha virt. eigenvalues --    5.73123   5.75640   5.76309   5.78435   5.78764
 Alpha virt. eigenvalues --    5.80747   5.81716   5.83005   5.84389   5.89401
 Alpha virt. eigenvalues --    5.90721   5.91775   5.93731   5.96894   5.98190
 Alpha virt. eigenvalues --    5.99968   6.01114   6.03593   6.06346   6.08838
 Alpha virt. eigenvalues --    6.22069   6.27623   6.36195   6.41012   6.48946
 Alpha virt. eigenvalues --    6.53299   6.54253   6.58822   6.67833   6.70217
 Alpha virt. eigenvalues --    6.88566   6.89813   6.92642   6.97649   7.10353
 Alpha virt. eigenvalues --    7.15175   7.17032   7.18266   9.49508   9.99287
 Alpha virt. eigenvalues --   11.65279  12.12784  12.39924  12.66514  12.99198
 Alpha virt. eigenvalues --   13.39865  13.57380  13.59952  13.68767  13.76819
 Alpha virt. eigenvalues --   13.97401
          Condensed to atoms (all electrons):
               1          2          3          4          5          6
     1  C    4.824959   0.136949  -0.059704  -0.004559  -0.000119   0.001227
     2  C    0.136949   5.441417   0.442627   0.001982  -0.000637  -0.005099
     3  H   -0.059704   0.442627   0.450821  -0.000138   0.000067  -0.000206
     4  C   -0.004559   0.001982  -0.000138   5.205109   0.399429   0.402540
     5  H   -0.000119  -0.000637   0.000067   0.399429   0.519883  -0.014591
     6  H    0.001227  -0.005099  -0.000206   0.402540  -0.014591   0.554982
     7  H   -0.004981   0.004338   0.000695   0.385153  -0.015781  -0.037472
     8  O    0.689708  -0.080433   0.002745  -0.006270   0.000136  -0.000080
     9  N   -0.064041   0.270348  -0.036585  -0.007851   0.000674  -0.002713
    10  H    0.004444  -0.039592   0.000850   0.002776   0.000422   0.002617
    11  N    0.318570  -0.082449   0.000968  -0.000330   0.000016  -0.000043
    12  H   -0.020470   0.005858  -0.001175   0.000074   0.000000  -0.000006
    13  C   -0.064166   0.009589  -0.000963   0.000032  -0.000004   0.000003
    14  H    0.002976   0.000379   0.000125   0.000021  -0.000002   0.000000
    15  H   -0.010950  -0.000192  -0.000279   0.000004   0.000000   0.000000
    16  H    0.008124   0.000495  -0.000125   0.000001   0.000000   0.000000
    17  C   -0.007584  -0.065937   0.001579   0.000271   0.000026   0.000043
    18  C   -0.004035   0.013016   0.002025   0.000025   0.000005   0.000067
    19  H    0.000257   0.000636  -0.000284   0.000121  -0.000011   0.000093
    20  H   -0.000171  -0.000508   0.000158   0.000006   0.000001  -0.000023
    21  H    0.000691  -0.000654  -0.000168  -0.000010  -0.000003   0.000010
    22  O    0.000793   0.015650   0.016841   0.000042   0.000000   0.000011
    23  C   -0.004479  -0.005268   0.005968   0.247756  -0.034928  -0.050452
    24  H   -0.000351   0.009409  -0.000100  -0.038041  -0.006769  -0.006058
    25  C    0.001114  -0.009172  -0.000368  -0.061009  -0.005175   0.007954
    26  H    0.019521   0.002331  -0.000145  -0.001580  -0.000995   0.000202
    27  H   -0.002849  -0.000346  -0.000090   0.007760  -0.000190  -0.000390
    28  H   -0.000290  -0.000364   0.000030  -0.005563   0.004483  -0.000269
    29  C   -0.024978   0.196920  -0.036342  -0.042659   0.008784   0.004441
    30  H    0.010586  -0.051945  -0.009498  -0.004407  -0.000634   0.002871
    31  H    0.001342  -0.050894  -0.008971   0.007173  -0.000342   0.000296
               7          8          9         10         11         12
     1  C   -0.004981   0.689708  -0.064041   0.004444   0.318570  -0.020470
     2  C    0.004338  -0.080433   0.270348  -0.039592  -0.082449   0.005858
     3  H    0.000695   0.002745  -0.036585   0.000850   0.000968  -0.001175
     4  C    0.385153  -0.006270  -0.007851   0.002776  -0.000330   0.000074
     5  H   -0.015781   0.000136   0.000674   0.000422   0.000016   0.000000
     6  H   -0.037472  -0.000080  -0.002713   0.002617  -0.000043  -0.000006
     7  H    0.515190   0.016754   0.005266  -0.006728   0.000988  -0.000086
     8  O    0.016754   7.846334   0.001851  -0.001990  -0.114858   0.005152
     9  N    0.005266   0.001851   6.540356   0.394018   0.005560   0.000633
    10  H   -0.006728  -0.001990   0.394018   0.481084  -0.000325  -0.000001
    11  N    0.000988  -0.114858   0.005560  -0.000325   6.434383   0.381547
    12  H   -0.000086   0.005152   0.000633  -0.000001   0.381547   0.537535
    13  C   -0.000168   0.008898  -0.000307   0.000039   0.293256  -0.032230
    14  H    0.000062   0.001677  -0.000015  -0.000006  -0.057296   0.002020
    15  H   -0.000036   0.005579  -0.000040   0.000007  -0.037180   0.003369
    16  H   -0.000004   0.001414   0.000009   0.000000  -0.027238  -0.007964
    17  C    0.001434   0.013929   0.331351  -0.021846  -0.000447  -0.000093
    18  C    0.000115  -0.000135  -0.065390  -0.002849  -0.000101   0.000001
    19  H    0.000069   0.000021   0.012465  -0.000953   0.000013   0.000001
    20  H    0.000045   0.000031  -0.000764  -0.000170   0.000004   0.000001
    21  H   -0.000069   0.000204  -0.000643   0.000484   0.000000  -0.000002
    22  O   -0.000156  -0.003312  -0.137097   0.004202  -0.003867  -0.000189
    23  C   -0.024619   0.006202   0.000002  -0.001966  -0.006669  -0.000338
    24  H    0.006335   0.000013  -0.000167  -0.000687  -0.000238   0.000007
    25  C   -0.005709  -0.014744   0.000255   0.000104   0.010928   0.000698
    26  H    0.001071   0.010833  -0.000097  -0.000096  -0.018893   0.000118
    27  H   -0.000053  -0.000054  -0.000038   0.000002   0.002008   0.000402
    28  H   -0.000170  -0.000019   0.000000   0.000014   0.000614  -0.000001
    29  C   -0.011560  -0.004257  -0.051124   0.001882   0.005700  -0.001042
    30  H   -0.001119  -0.000620   0.002556   0.003005   0.000148  -0.000092
    31  H   -0.000647  -0.000072   0.004611   0.000315  -0.001035   0.002370
              13         14         15         16         17         18
     1  C   -0.064166   0.002976  -0.010950   0.008124  -0.007584  -0.004035
     2  C    0.009589   0.000379  -0.000192   0.000495  -0.065937   0.013016
     3  H   -0.000963   0.000125  -0.000279  -0.000125   0.001579   0.002025
     4  C    0.000032   0.000021   0.000004   0.000001   0.000271   0.000025
     5  H   -0.000004  -0.000002   0.000000   0.000000   0.000026   0.000005
     6  H    0.000003   0.000000   0.000000   0.000000   0.000043   0.000067
     7  H   -0.000168   0.000062  -0.000036  -0.000004   0.001434   0.000115
     8  O    0.008898   0.001677   0.005579   0.001414   0.013929  -0.000135
     9  N   -0.000307  -0.000015  -0.000040   0.000009   0.331351  -0.065390
    10  H    0.000039  -0.000006   0.000007   0.000000  -0.021846  -0.002849
    11  N    0.293256  -0.057296  -0.037180  -0.027238  -0.000447  -0.000101
    12  H   -0.032230   0.002020   0.003369  -0.007964  -0.000093   0.000001
    13  C    4.786130   0.394663   0.405548   0.393951  -0.000245  -0.000007
    14  H    0.394663   0.616428  -0.051804  -0.029510  -0.000027   0.000000
    15  H    0.405548  -0.051804   0.580645  -0.024389   0.000085   0.000002
    16  H    0.393951  -0.029510  -0.024389   0.596365  -0.000009   0.000000
    17  C   -0.000245  -0.000027   0.000085  -0.000009   4.536296   0.280349
    18  C   -0.000007   0.000000   0.000002   0.000000   0.280349   4.999954
    19  H    0.000000   0.000000   0.000000   0.000000  -0.054164   0.393426
    20  H    0.000000   0.000000   0.000000   0.000000  -0.024741   0.384624
    21  H    0.000002   0.000000   0.000001   0.000000  -0.025502   0.389096
    22  O   -0.000220   0.000002   0.000088  -0.000002   0.724518  -0.070648
    23  C    0.000198   0.000730  -0.000138  -0.000008  -0.000844  -0.000092
    24  H   -0.000019   0.000021  -0.000001   0.000000   0.000076   0.000003
    25  C   -0.002467  -0.003919   0.000512  -0.000151   0.000133   0.000004
    26  H    0.000109   0.005677  -0.000608   0.000174  -0.000048   0.000002
    27  H    0.000312  -0.000539   0.000049   0.000006  -0.000004   0.000000
    28  H   -0.000049  -0.000175   0.000010  -0.000009   0.000001   0.000000
    29  C   -0.000236  -0.000413   0.000099   0.000014   0.008961   0.000192
    30  H    0.000075  -0.000027   0.000010   0.000002  -0.000779  -0.000127
    31  H    0.000119  -0.000063   0.000029   0.000009  -0.000272   0.000031
              19         20         21         22         23         24
     1  C    0.000257  -0.000171   0.000691   0.000793  -0.004479  -0.000351
     2  C    0.000636  -0.000508  -0.000654   0.015650  -0.005268   0.009409
     3  H   -0.000284   0.000158  -0.000168   0.016841   0.005968  -0.000100
     4  C    0.000121   0.000006  -0.000010   0.000042   0.247756  -0.038041
     5  H   -0.000011   0.000001  -0.000003   0.000000  -0.034928  -0.006769
     6  H    0.000093  -0.000023   0.000010   0.000011  -0.050452  -0.006058
     7  H    0.000069   0.000045  -0.000069  -0.000156  -0.024619   0.006335
     8  O    0.000021   0.000031   0.000204  -0.003312   0.006202   0.000013
     9  N    0.012465  -0.000764  -0.000643  -0.137097   0.000002  -0.000167
    10  H   -0.000953  -0.000170   0.000484   0.004202  -0.001966  -0.000687
    11  N    0.000013   0.000004   0.000000  -0.003867  -0.006669  -0.000238
    12  H    0.000001   0.000001  -0.000002  -0.000189  -0.000338   0.000007
    13  C    0.000000   0.000000   0.000002  -0.000220   0.000198  -0.000019
    14  H    0.000000   0.000000   0.000000   0.000002   0.000730   0.000021
    15  H    0.000000   0.000000   0.000001   0.000088  -0.000138  -0.000001
    16  H    0.000000   0.000000   0.000000  -0.000002  -0.000008   0.000000
    17  C   -0.054164  -0.024741  -0.025502   0.724518  -0.000844   0.000076
    18  C    0.393426   0.384624   0.389096  -0.070648  -0.000092   0.000003
    19  H    0.602090  -0.026881  -0.024947   0.004549   0.000041   0.000000
    20  H   -0.026881   0.577793  -0.025553   0.001852   0.000003   0.000000
    21  H   -0.024947  -0.025553   0.564681   0.001424   0.000000   0.000000
    22  O    0.004549   0.001852   0.001424   7.851265  -0.000093   0.000001
    23  C    0.000041   0.000003   0.000000  -0.000093   5.212830   0.454982
    24  H    0.000000   0.000000   0.000000   0.000001   0.454982   0.544566
    25  C    0.000003   0.000000   0.000000  -0.000007   0.256425  -0.041389
    26  H   -0.000001   0.000000   0.000000   0.000022  -0.020251   0.006119
    27  H    0.000000   0.000000   0.000000   0.000001  -0.047477  -0.005514
    28  H    0.000000   0.000000   0.000000   0.000000  -0.038248  -0.008279
    29  C   -0.000235   0.000004   0.000008   0.002029   0.233516  -0.060428
    30  H   -0.000029  -0.000038   0.000021  -0.000123  -0.048359  -0.009517
    31  H   -0.000004  -0.000004   0.000000   0.000069  -0.044458  -0.006316
              25         26         27         28         29         30
     1  C    0.001114   0.019521  -0.002849  -0.000290  -0.024978   0.010586
     2  C   -0.009172   0.002331  -0.000346  -0.000364   0.196920  -0.051945
     3  H   -0.000368  -0.000145  -0.000090   0.000030  -0.036342  -0.009498
     4  C   -0.061009  -0.001580   0.007760  -0.005563  -0.042659  -0.004407
     5  H   -0.005175  -0.000995  -0.000190   0.004483   0.008784  -0.000634
     6  H    0.007954   0.000202  -0.000390  -0.000269   0.004441   0.002871
     7  H   -0.005709   0.001071  -0.000053  -0.000170  -0.011560  -0.001119
     8  O   -0.014744   0.010833  -0.000054  -0.000019  -0.004257  -0.000620
     9  N    0.000255  -0.000097  -0.000038   0.000000  -0.051124   0.002556
    10  H    0.000104  -0.000096   0.000002   0.000014   0.001882   0.003005
    11  N    0.010928  -0.018893   0.002008   0.000614   0.005700   0.000148
    12  H    0.000698   0.000118   0.000402  -0.000001  -0.001042  -0.000092
    13  C   -0.002467   0.000109   0.000312  -0.000049  -0.000236   0.000075
    14  H   -0.003919   0.005677  -0.000539  -0.000175  -0.000413  -0.000027
    15  H    0.000512  -0.000608   0.000049   0.000010   0.000099   0.000010
    16  H   -0.000151   0.000174   0.000006  -0.000009   0.000014   0.000002
    17  C    0.000133  -0.000048  -0.000004   0.000001   0.008961  -0.000779
    18  C    0.000004   0.000002   0.000000   0.000000   0.000192  -0.000127
    19  H    0.000003  -0.000001   0.000000   0.000000  -0.000235  -0.000029
    20  H    0.000000   0.000000   0.000000   0.000000   0.000004  -0.000038
    21  H    0.000000   0.000000   0.000000   0.000000   0.000008   0.000021
    22  O   -0.000007   0.000022   0.000001   0.000000   0.002029  -0.000123
    23  C    0.256425  -0.020251  -0.047477  -0.038248   0.233516  -0.048359
    24  H   -0.041389   0.006119  -0.005514  -0.008279  -0.060428  -0.009517
    25  C    5.200791   0.370164   0.402469   0.413597  -0.047023   0.007315
    26  H    0.370164   0.524529  -0.030804  -0.028030  -0.009119  -0.000224
    27  H    0.402469  -0.030804   0.535125  -0.010571  -0.000926   0.000457
    28  H    0.413597  -0.028030  -0.010571   0.515046   0.008935  -0.000303
    29  C   -0.047023  -0.009119  -0.000926   0.008935   5.382519   0.421427
    30  H    0.007315  -0.000224   0.000457  -0.000303   0.421427   0.480154
    31  H   -0.006542   0.000576   0.003201   0.000011   0.429460   0.002510
              31
     1  C    0.001342
     2  C   -0.050894
     3  H   -0.008971
     4  C    0.007173
     5  H   -0.000342
     6  H    0.000296
     7  H   -0.000647
     8  O   -0.000072
     9  N    0.004611
    10  H    0.000315
    11  N   -0.001035
    12  H    0.002370
    13  C    0.000119
    14  H   -0.000063
    15  H    0.000029
    16  H    0.000009
    17  C   -0.000272
    18  C    0.000031
    19  H   -0.000004
    20  H   -0.000004
    21  H    0.000000
    22  O    0.000069
    23  C   -0.044458
    24  H   -0.006316
    25  C   -0.006542
    26  H    0.000576
    27  H    0.003201
    28  H    0.000011
    29  C    0.429460
    30  H    0.002510
    31  H    0.472545
 Mulliken charges:
               1
     1  C    0.252466
     2  C   -0.158457
     3  H    0.229642
     4  C   -0.487862
     5  H    0.146257
     6  H    0.140045
     7  H    0.171842
     8  O   -0.384637
     9  N   -0.203082
    10  H    0.180943
    11  N   -0.103732
    12  H    0.123905
    13  C   -0.191842
    14  H    0.119013
    15  H    0.129578
    16  H    0.088844
    17  C    0.303490
    18  C   -0.319552
    19  H    0.093724
    20  H    0.114333
    21  H    0.120929
    22  O   -0.407644
    23  C   -0.089966
    24  H    0.162345
    25  C   -0.474789
    26  H    0.169443
    27  H    0.148054
    28  H    0.149599
    29  C   -0.414552
    30  H    0.196706
    31  H    0.194956
 Sum of Mulliken charges =   0.00000
 Mulliken charges with hydrogens summed into heavy atoms:
               1
     1  C    0.252466
     2  C    0.071185
     4  C   -0.029717
     8  O   -0.384637
     9  N   -0.022139
    11  N    0.020173
    13  C    0.145592
    17  C    0.303490
    18  C    0.009434
    22  O   -0.407644
    23  C    0.072378
    25  C   -0.007692
    29  C   -0.022890
 Electronic spatial extent (au):  <R**2>=           2725.0841
 Charge=              0.0000 electrons
 Dipole moment (field-independent basis, Debye):
    X=              2.6307    Y=             -2.7089    Z=              2.4620  Tot=              4.5078
 Quadrupole moment (field-independent basis, Debye-Ang):
   XX=            -77.1621   YY=            -76.9633   ZZ=            -81.3981
   XY=             12.1263   XZ=              4.5062   YZ=              2.5946
 Traceless Quadrupole moment (field-independent basis, Debye-Ang):
   XX=              1.3458   YY=              1.5445   ZZ=             -2.8903
   XY=             12.1263   XZ=              4.5062   YZ=              2.5946
 Octapole moment (field-independent basis, Debye-Ang**2):
  XXX=            -12.2847  YYY=             16.9531  ZZZ=              9.2927  XYY=             21.5271
  XXY=            -10.1739  XXZ=             -8.5630  XZZ=             -0.3445  YZZ=              4.9080
  YYZ=             -0.3359  XYZ=              6.4698
 Hexadecapole moment (field-independent basis, Debye-Ang**3):
 XXXX=          -1891.0864 YYYY=          -1252.2774 ZZZZ=           -374.0980 XXXY=             69.3603
 XXXZ=             19.7895 YYYX=             57.4687 YYYZ=             -2.8954 ZZZX=              9.3183
 ZZZY=             12.1154 XXYY=           -540.5159 XXZZ=           -373.7098 YYZZ=           -272.5330
 XXYZ=             -1.9814 YYXZ=              5.9941 ZZXY=              4.4195
 N-N= 8.882709350029D+02 E-N=-3.206292415409D+03  KE= 6.091152941203D+02
 Calculating spin-rotation constants.
 Leave Link  601 at Wed Jun 18 13:25:39 2014, MaxMem=  4294967296 cpu:        70.5
 (Enter /home/ztw1e12/g09/l9999.exe)

 Test job not archived.
 1\1\GINC-GREEN0621\SP\RM06\Gen\C9H18N2O2\ROOT\18-Jun-2014\0\\#P Geom=A
 llCheck Guess=TCheck SCRF=Check GenChk RM06/ChkBas NMR=ReadFC IOp(3/6=
 22)\\NMR spin-spin scan\\0,1\C,0,0.221475,0.921052,0.373027\C,0,0.0874
 88,0.023177,-0.850333\H,0,0.553848,0.561256,-1.681315\C,0,-1.984723,-1
 .960138,0.516157\H,0,-2.81325,-2.32358,1.127354\H,0,-1.698235,-2.77038
 6,-0.159871\H,0,-1.14954,-1.762942,1.192957\O,0,0.476392,0.489872,1.49
 3804\N,0,0.819732,-1.209242,-0.675055\H,0,0.312785,-2.069227,-0.539244
 \N,0,0.030536,2.221612,0.126914\H,0,-0.220256,2.504277,-0.807521\C,0,-
 0.04381,3.191706,1.194966\H,0,-0.865886,2.966919,1.877776\H,0,0.881797
 ,3.210681,1.769959\H,0,-0.206245,4.175741,0.76573\C,0,2.159729,-1.2214
 29,-0.582152\C,0,2.801942,-2.554496,-0.381286\H,0,2.087367,-3.373051,-
 0.328432\H,0,3.497006,-2.73521,-1.201055\H,0,3.385011,-2.526621,0.5391
 72\O,0,2.826156,-0.190421,-0.672049\C,0,-2.396536,-0.710046,-0.240813\
 H,0,-3.27167,-0.973248,-0.845613\C,0,-2.846056,0.373503,0.726684\H,0,-
 2.062247,0.639783,1.439241\H,0,-3.151607,1.280657,0.200554\H,0,-3.6997
 91,0.024171,1.311396\C,0,-1.366049,-0.226625,-1.264141\H,0,-1.322708,-
 0.94878,-2.085038\H,0,-1.737031,0.704334,-1.701432\\Version=EM64L-G09R
 evD.01\State=1-A\HF=-613.5821179\RMSD=7.557e-09\Dipole=-1.5330925,-0.0
 934441,-0.8866502\Quadrupole=-6.9161018,10.1889468,-3.272845,-4.145081
 9,1.1412594,0.1800484\PG=C01 [X(C9H18N2O2)]\\@


 THE POLHOLDE ROLLS WITHOUT SLIPPING ON THE HERPOLHOLDE LYING IN
 THE INVARIABLE PLANE.
 H.GOLDSTEIN, "CLASSICAL MECHANICS", PG 161
 Job cpu time:       2 days 16 hours 11 minutes 14.7 seconds.
 File lengths (MBytes):  RWF=   2456 Int=      0 D2E=      0 Chk=     48 Scr=      8
 Normal termination of Gaussian 09 at Wed Jun 18 13:25:40 2014.
