 Entering Gaussian System, Link 0=g09
 Input=scan_input_5.gjf
 Output=scan_input_5.log
 Initial command:
 /home/ztw1e12/g09/l1.exe "/home/ztw1e12/leucine_scan/leucine_chi2_scan/Gau-10247.inp" -scrdir="/home/ztw1e12/leucine_scan/leucine_chi2_scan/"
 Default is to use a total of   8 processors:
                                8 via shared-memory
                                1 via Linda
 Entering Link 1 = /home/ztw1e12/g09/l1.exe PID=     10248.
  
 Copyright (c) 1988,1990,1992,1993,1995,1998,2003,2009,2013,
            Gaussian, Inc.  All Rights Reserved.
  
 This is part of the Gaussian(R) 09 program.  It is based on
 the Gaussian(R) 03 system (copyright 2003, Gaussian, Inc.),
 the Gaussian(R) 98 system (copyright 1998, Gaussian, Inc.),
 the Gaussian(R) 94 system (copyright 1995, Gaussian, Inc.),
 the Gaussian 92(TM) system (copyright 1992, Gaussian, Inc.),
 the Gaussian 90(TM) system (copyright 1990, Gaussian, Inc.),
 the Gaussian 88(TM) system (copyright 1988, Gaussian, Inc.),
 the Gaussian 86(TM) system (copyright 1986, Carnegie Mellon
 University), and the Gaussian 82(TM) system (copyright 1983,
 Carnegie Mellon University). Gaussian is a federally registered
 trademark of Gaussian, Inc.
  
 This software contains proprietary and confidential information,
 including trade secrets, belonging to Gaussian, Inc.
  
 This software is provided under written license and may be
 used, copied, transmitted, or stored only in accord with that
 written license.
  
 The following legend is applicable only to US Government
 contracts under FAR:
  
                    RESTRICTED RIGHTS LEGEND
  
 Use, reproduction and disclosure by the US Government is
 subject to restrictions as set forth in subparagraphs (a)
 and (c) of the Commercial Computer Software - Restricted
 Rights clause in FAR 52.227-19.
  
 Gaussian, Inc.
 340 Quinnipiac St., Bldg. 40, Wallingford CT 06492
  
  
 ---------------------------------------------------------------
 Warning -- This program may not be used in any manner that
 competes with the business of Gaussian, Inc. or will provide
 assistance to any competitor of Gaussian, Inc.  The licensee
 of this program is prohibited from giving any competitor of
 Gaussian, Inc. access to this program.  By using this program,
 the user acknowledges that Gaussian, Inc. is engaged in the
 business of creating and licensing software in the field of
 computational chemistry and represents and warrants to the
 licensee that it is not a competitor of Gaussian, Inc. and that
 it will not use this program in any manner prohibited above.
 ---------------------------------------------------------------
  

 Cite this work as:
 Gaussian 09, Revision D.01,
 M. J. Frisch, G. W. Trucks, H. B. Schlegel, G. E. Scuseria, 
 M. A. Robb, J. R. Cheeseman, G. Scalmani, V. Barone, B. Mennucci, 
 G. A. Petersson, H. Nakatsuji, M. Caricato, X. Li, H. P. Hratchian, 
 A. F. Izmaylov, J. Bloino, G. Zheng, J. L. Sonnenberg, M. Hada, 
 M. Ehara, K. Toyota, R. Fukuda, J. Hasegawa, M. Ishida, T. Nakajima, 
 Y. Honda, O. Kitao, H. Nakai, T. Vreven, J. A. Montgomery, Jr., 
 J. E. Peralta, F. Ogliaro, M. Bearpark, J. J. Heyd, E. Brothers, 
 K. N. Kudin, V. N. Staroverov, T. Keith, R. Kobayashi, J. Normand, 
 K. Raghavachari, A. Rendell, J. C. Burant, S. S. Iyengar, J. Tomasi, 
 M. Cossi, N. Rega, J. M. Millam, M. Klene, J. E. Knox, J. B. Cross, 
 V. Bakken, C. Adamo, J. Jaramillo, R. Gomperts, R. E. Stratmann, 
 O. Yazyev, A. J. Austin, R. Cammi, C. Pomelli, J. W. Ochterski, 
 R. L. Martin, K. Morokuma, V. G. Zakrzewski, G. A. Voth, 
 P. Salvador, J. J. Dannenberg, S. Dapprich, A. D. Daniels, 
 O. Farkas, J. B. Foresman, J. V. Ortiz, J. Cioslowski, 
 and D. J. Fox, Gaussian, Inc., Wallingford CT, 2013.
 
 ******************************************
 Gaussian 09:  EM64L-G09RevD.01 24-Apr-2013
                17-Jun-2014 
 ******************************************
 %Mem=32GB
 %NProcShared=16
 Will use up to   16 processors via shared memory.
 Default route:  MaxDisk=100GB
 ----------------------------------------------------------------------
 #p nmr=(giao,mixed,spinspin) m06/cc-pvtz scf=tight integral=(grid=ultr
 afine)
 ----------------------------------------------------------------------
 1/38=1/1;
 2/12=2,17=6,18=5,40=1/2;
 3/5=16,6=1,10=1100000,11=2,16=1,25=1,30=1,74=-54,75=-5/1,2,8,3;
 4//1;
 5/5=2,32=2,38=5/2;
 8/6=1,10=90,11=11/1;
 10/13=100,45=16,47=3/2;
 6/7=2,8=2,9=2,10=2,28=1/1;
 99/9=1/99;
 Leave Link    1 at Tue Jun 17 15:29:05 2014, MaxMem=  4294967296 cpu:         6.9
 (Enter /home/ztw1e12/g09/l101.exe)
 ------------------
 NMR spin-spin scan
 ------------------
 Symbolic Z-matrix:
 Charge =  0 Multiplicity = 1
 C                     0.25939   1.27875   0.24238 
 C                     0.16743   0.09244  -0.71945 
 H                     0.65301   0.43437  -1.63904 
 C                    -3.20278  -1.73012  -0.53542 
 H                    -4.01655  -1.93985   0.16166 
 H                    -3.64468  -1.48341  -1.50371 
 H                    -2.61889  -2.6466   -0.65967 
 O                     0.79152   1.21011   1.34615 
 N                     0.92109  -1.04113  -0.24431 
 H                     0.42883  -1.817     0.16972 
 N                    -0.26829   2.41579  -0.22527 
 H                    -0.65105   2.4329   -1.15686 
 C                    -0.23758   3.6393    0.54367 
 H                    -0.74462   3.51316   1.50022 
 H                     0.78729   3.95739   0.73925 
 H                    -0.74304   4.41956  -0.01722 
 C                     2.26545  -1.05657  -0.24845 
 C                     2.91439  -2.28039   0.30977 
 H                     2.20098  -3.03057   0.64371 
 H                     3.56384  -2.71372  -0.45039 
 H                     3.54515  -1.98777   1.14911 
 O                     2.93008  -0.12261  -0.69492 
 C                    -2.30785  -0.61545  -0.02135 
 H                    -2.91612   0.28012   0.14186 
 C                    -1.76346  -1.04049   1.33461 
 H                    -1.25268  -2.00677   1.27536 
 H                    -1.0802   -0.31713   1.77846 
 H                    -2.59457  -1.17492   2.02996 
 C                    -1.26217  -0.28452  -1.10445 
 H                    -1.15715  -1.15573  -1.76031 
 H                    -1.66113   0.50415  -1.74473 
 
 NAtoms=     31 NQM=       31 NQMF=       0 NMMI=      0 NMMIF=      0
                NMic=       0 NMicF=      0.
                    Isotopes and Nuclear Properties:
 (Nuclear quadrupole moments (NQMom) in fm**2, nuclear magnetic moments (NMagM)
  in nuclear magnetons)

  Atom         1           2           3           4           5           6           7           8           9          10
 IAtWgt=          12          12           1          12           1           1           1          16          14           1
 AtmWgt=  12.0000000  12.0000000   1.0078250  12.0000000   1.0078250   1.0078250   1.0078250  15.9949146  14.0030740   1.0078250
 NucSpn=           0           0           1           0           1           1           1           0           2           1
 AtZEff=   0.0000000   0.0000000   0.0000000   0.0000000   0.0000000   0.0000000   0.0000000   0.0000000   0.0000000   0.0000000
 NQMom=    0.0000000   0.0000000   0.0000000   0.0000000   0.0000000   0.0000000   0.0000000   0.0000000   2.0440000   0.0000000
 NMagM=    0.0000000   0.0000000   2.7928460   0.0000000   2.7928460   2.7928460   2.7928460   0.0000000   0.4037610   2.7928460
 AtZNuc=   6.0000000   6.0000000   1.0000000   6.0000000   1.0000000   1.0000000   1.0000000   8.0000000   7.0000000   1.0000000

  Atom        11          12          13          14          15          16          17          18          19          20
 IAtWgt=          14           1          12           1           1           1          12          12           1           1
 AtmWgt=  14.0030740   1.0078250  12.0000000   1.0078250   1.0078250   1.0078250  12.0000000  12.0000000   1.0078250   1.0078250
 NucSpn=           2           1           0           1           1           1           0           0           1           1
 AtZEff=   0.0000000   0.0000000   0.0000000   0.0000000   0.0000000   0.0000000   0.0000000   0.0000000   0.0000000   0.0000000
 NQMom=    2.0440000   0.0000000   0.0000000   0.0000000   0.0000000   0.0000000   0.0000000   0.0000000   0.0000000   0.0000000
 NMagM=    0.4037610   2.7928460   0.0000000   2.7928460   2.7928460   2.7928460   0.0000000   0.0000000   2.7928460   2.7928460
 AtZNuc=   7.0000000   1.0000000   6.0000000   1.0000000   1.0000000   1.0000000   6.0000000   6.0000000   1.0000000   1.0000000

  Atom        21          22          23          24          25          26          27          28          29          30
 IAtWgt=           1          16          12           1          12           1           1           1          12           1
 AtmWgt=   1.0078250  15.9949146  12.0000000   1.0078250  12.0000000   1.0078250   1.0078250   1.0078250  12.0000000   1.0078250
 NucSpn=           1           0           0           1           0           1           1           1           0           1
 AtZEff=   0.0000000   0.0000000   0.0000000   0.0000000   0.0000000   0.0000000   0.0000000   0.0000000   0.0000000   0.0000000
 NQMom=    0.0000000   0.0000000   0.0000000   0.0000000   0.0000000   0.0000000   0.0000000   0.0000000   0.0000000   0.0000000
 NMagM=    2.7928460   0.0000000   0.0000000   2.7928460   0.0000000   2.7928460   2.7928460   2.7928460   0.0000000   2.7928460
 AtZNuc=   1.0000000   8.0000000   6.0000000   1.0000000   6.0000000   1.0000000   1.0000000   1.0000000   6.0000000   1.0000000

  Atom        31
 IAtWgt=           1
 AtmWgt=   1.0078250
 NucSpn=           1
 AtZEff=   0.0000000
 NQMom=    0.0000000
 NMagM=    2.7928460
 AtZNuc=   1.0000000
 Leave Link  101 at Tue Jun 17 15:29:05 2014, MaxMem=  4294967296 cpu:         1.8
 (Enter /home/ztw1e12/g09/l202.exe)
                          Input orientation:                          
 ---------------------------------------------------------------------
 Center     Atomic      Atomic             Coordinates (Angstroms)
 Number     Number       Type             X           Y           Z
 ---------------------------------------------------------------------
      1          6           0        0.259388    1.278749    0.242375
      2          6           0        0.167430    0.092440   -0.719447
      3          1           0        0.653007    0.434365   -1.639036
      4          6           0       -3.202785   -1.730122   -0.535416
      5          1           0       -4.016546   -1.939849    0.161664
      6          1           0       -3.644680   -1.483405   -1.503709
      7          1           0       -2.618887   -2.646595   -0.659670
      8          8           0        0.791518    1.210114    1.346149
      9          7           0        0.921085   -1.041132   -0.244309
     10          1           0        0.428829   -1.817002    0.169715
     11          7           0       -0.268294    2.415789   -0.225268
     12          1           0       -0.651048    2.432899   -1.156864
     13          6           0       -0.237583    3.639299    0.543665
     14          1           0       -0.744620    3.513156    1.500218
     15          1           0        0.787290    3.957390    0.739245
     16          1           0       -0.743039    4.419556   -0.017217
     17          6           0        2.265452   -1.056568   -0.248450
     18          6           0        2.914387   -2.280387    0.309769
     19          1           0        2.200979   -3.030572    0.643706
     20          1           0        3.563837   -2.713717   -0.450387
     21          1           0        3.545150   -1.987765    1.149105
     22          8           0        2.930077   -0.122610   -0.694918
     23          6           0       -2.307846   -0.615445   -0.021350
     24          1           0       -2.916116    0.280115    0.141860
     25          6           0       -1.763462   -1.040492    1.334612
     26          1           0       -1.252679   -2.006772    1.275360
     27          1           0       -1.080200   -0.317131    1.778462
     28          1           0       -2.594574   -1.174915    2.029961
     29          6           0       -1.262168   -0.284516   -1.104447
     30          1           0       -1.157149   -1.155734   -1.760310
     31          1           0       -1.661129    0.504153   -1.744732
 ---------------------------------------------------------------------
                    Distance matrix (angstroms):
                    1          2          3          4          5
     1  C    0.000000
     2  C    1.529996   0.000000
     3  H    2.099435   1.094688   0.000000
     4  C    4.652409   3.835877   4.557424   0.000000
     5  H    5.352523   4.734154   5.539326   1.091839   0.000000
     6  H    5.091174   4.198873   4.708107   1.092580   1.766378
     7  H    4.950402   3.907614   4.599648   1.093754   1.768482
     8  O    1.227269   2.430096   3.087443   5.304690   5.868795
     9  N    2.461006   1.441783   2.047980   4.191152   5.035147
    10  H    3.101236   2.122477   2.896634   3.700456   4.447079
    11  N    1.337908   2.414957   2.602610   5.088812   5.759400
    12  H    2.029489   2.517735   2.434582   4.922225   5.673272
    13  C    2.431039   3.786779   3.978560   6.227963   6.749324
    14  H    2.753684   4.178522   4.613809   6.138269   6.498653
    15  H    2.775010   4.177301   4.252759   7.063516   7.628097
    16  H    3.307101   4.477277   4.523382   6.643600   7.154710
    17  C    3.117516   2.437982   2.599344   5.517032   6.357034
    18  C    4.440834   3.772978   4.035041   6.199752   6.940874
    19  H    4.743531   3.968213   4.428647   5.681740   6.330850
    20  H    5.228679   4.413897   4.449296   6.838265   7.644324
    21  H    4.721070   4.384944   4.690942   6.959786   7.626046
    22  O    3.158307   2.771113   2.527178   6.342045   7.231297
    23  C    3.201283   2.667477   3.533505   1.519106   2.169607
    24  H    3.330345   3.207075   3.991744   2.140545   2.477817
    25  C    3.265545   3.038262   4.105741   2.458505   2.694631
    26  H    3.761390   3.225315   4.252587   2.675511   2.980563
    27  H    2.588608   2.822034   3.904875   3.443246   3.724161
    28  H    4.166657   4.098060   5.157335   2.694315   2.469344
    29  C    2.563759   1.527767   2.114349   2.485874   3.453949
    30  H    3.456014   2.096627   2.412423   2.452532   3.533408
    31  H    2.870014   2.136433   2.317599   2.971722   3.893004
                    6          7          8          9         10
     6  H    0.000000
     7  H    1.765691   0.000000
     8  O    5.920860   5.525249   0.000000
     9  N    4.756880   3.909148   2.759430   0.000000
    10  H    4.416459   3.265682   3.267870   1.007822   0.000000
    11  N    5.313954   5.598368   2.246376   3.655857   4.307959
    12  H    4.941616   5.469996   3.137080   3.920874   4.581223
    13  C    6.483992   6.828696   2.757530   4.885678   5.509552
    14  H    6.511493   6.791209   2.772627   5.153590   5.617633
    15  H    7.367187   7.561192   2.813517   5.096126   5.813472
    16  H    6.743451   7.339076   3.809744   5.713142   6.348454
    17  C    6.057023   5.153063   3.138961   1.344462   2.031331
    18  C    6.851660   5.629480   4.214766   2.411640   2.532260
    19  H    6.416919   5.007728   4.523652   2.526771   2.199531
    20  H    7.388225   6.186629   5.129302   3.134350   3.319171
    21  H    7.680199   6.457637   4.224659   3.118242   3.271058
    22  O    6.762643   6.096125   3.242768   2.254502   3.142419
    23  C    2.176664   2.151690   3.848217   3.264493   2.994935
    24  H    2.519664   3.049004   4.007713   4.076632   3.948080
    25  C    3.433834   2.699718   3.404891   3.114448   2.601171
    26  H    3.703891   2.453618   3.812100   2.822606   2.021369
    27  H    4.325436   3.706541   2.454119   2.936141   2.667367
    28  H    3.699285   3.066031   4.197807   4.189279   3.607458
    29  C    2.696870   2.760060   3.529443   2.465542   2.613709
    30  H    2.522107   2.360244   4.364015   2.574966   2.584105
    31  H    2.818325   3.467257   4.008417   3.362589   3.663440
                   11         12         13         14         15
    11  N    0.000000
    12  H    1.007306   0.000000
    13  C    1.445399   2.125595   0.000000
    14  H    2.099620   2.869808   1.089951   0.000000
    15  H    2.102636   2.826326   1.090779   1.767250   0.000000
    16  H    2.069722   2.292174   1.085760   1.767533   1.768541
    17  C    4.298566   4.637625   5.379944   5.744628   5.319801
    18  C    5.698227   6.089204   6.710611   6.954901   6.604457
    19  H    6.042787   6.420718   7.102378   7.227070   7.130165
    20  H    6.406851   6.689695   7.469923   7.819310   7.323121
    21  H    5.985194   6.516735   6.807310   6.984665   6.566479
    22  O    4.110185   4.423627   5.071500   5.616121   4.826465
    23  C    3.659199   3.650585   4.765299   4.669496   5.573974
    24  H    3.421527   3.384035   4.315102   4.124692   5.253041
    25  C    4.076105   4.416940   4.985413   4.669173   5.642661
    26  H    4.772834   5.097877   5.783071   5.547819   6.326146
    27  H    3.484677   4.045117   4.229428   3.855014   4.779019
    28  H    4.836403   5.191288   5.562476   5.067639   6.280407
    29  C    3.008719   2.785778   4.377485   4.634053   5.058977
    30  H    3.987755   3.674040   5.398726   5.709620   6.014371
    31  H    2.811247   2.255197   4.134294   4.519269   4.908130
                   16         17         18         19         20
    16  H    0.000000
    17  C    6.252393   0.000000
    18  C    7.640217   1.493472   0.000000
    19  H    8.037939   2.167208   1.087769   0.000000
    20  H    8.343884   2.114882   1.089678   1.776181   0.000000
    21  H    7.797604   2.111377   1.089942   1.774731   1.756625
    22  O    5.880674   1.230178   2.380261   3.283252   2.678672
    23  C    5.272558   4.600132   5.491210   5.157969   6.250078
    24  H    4.677878   5.365418   6.370175   6.115322   7.162652
    25  C    5.716715   4.328798   4.946707   4.489383   5.862254
    26  H    6.574814   3.949953   4.286219   3.657172   5.164959
    27  H    5.076844   3.981021   4.687020   4.406424   5.681415
    28  H    6.238367   5.368893   5.876205   5.325645   6.815135
    29  C    4.855910   3.711186   4.840157   4.752920   5.442347
    30  H    5.856084   3.742960   4.703985   4.535563   5.141101
    31  H    4.376937   4.482494   5.736722   5.754546   6.271386
                   21         22         23         24         25
    21  H    0.000000
    22  O    2.693982   0.000000
    23  C    6.124605   5.304000   0.000000
    24  H    6.921400   5.919490   1.094832   0.000000
    25  C    5.395656   5.195268   1.521727   2.120206   0.000000
    26  H    4.799528   4.992746   2.175000   3.046588   1.094581
    27  H    4.957920   4.715694   2.198961   2.530960   1.089542
    28  H    6.255625   6.249326   2.145483   2.405291   1.091937
    29  C    5.575828   4.215311   1.541446   2.146540   2.602269
    30  H    5.591832   4.348313   2.154065   2.962073   3.155858
    31  H    6.456724   4.751222   2.154481   2.276931   3.446558
                   26         27         28         29         30
    26  H    0.000000
    27  H    1.771369   0.000000
    28  H    1.749883   1.758515   0.000000
    29  C    2.937641   2.888830   3.520317   0.000000
    30  H    3.154153   3.637593   4.053728   1.095539   0.000000
    31  H    3.948738   3.663998   4.235433   1.091391   1.734780
                   31
    31  H    0.000000
 Stoichiometry    C9H18N2O2
 Framework group  C1[X(C9H18N2O2)]
 Deg. of freedom    87
 Full point group                 C1      NOp   1
 Largest Abelian subgroup         C1      NOp   1
 Largest concise Abelian subgroup C1      NOp   1
                         Standard orientation:                         
 ---------------------------------------------------------------------
 Center     Atomic      Atomic             Coordinates (Angstroms)
 Number     Number       Type             X           Y           Z
 ---------------------------------------------------------------------
      1          6           0        0.000551    1.298565    0.110057
      2          6           0        0.122372    0.031195   -0.738365
      3          1           0        0.545937    0.366648   -1.690419
      4          6           0       -2.879055   -2.326116   -0.353047
      5          1           0       -3.647596   -2.609576    0.368831
      6          1           0       -3.351831   -2.250110   -1.335105
      7          1           0       -2.143505   -3.134281   -0.399234
      8          8           0        0.530346    1.425313    1.209803
      9          7           0        1.059623   -0.905221   -0.169664
     10          1           0        0.708018   -1.713682    0.318672
     11          7           0       -0.714845    2.278451   -0.453886
     12          1           0       -1.089525    2.143022   -1.379055
     13          6           0       -0.902391    3.553916    0.199714
     14          1           0       -1.384948    3.429671    1.169092
     15          1           0        0.050144    4.062335    0.354586
     16          1           0       -1.533123    4.179324   -0.424720
     17          6           0        2.386058   -0.686447   -0.186577
     18          6           0        3.235484   -1.721967    0.474203
     19          1           0        2.662087   -2.551138    0.882780
     20          1           0        3.954805   -2.103392   -0.250014
     21          1           0        3.800826   -1.248120    1.276593
     22          8           0        2.879977    0.304067   -0.723480
     23          6           0       -2.195238   -1.030130    0.047577
     24          1           0       -2.951353   -0.243140    0.134722
     25          6           0       -1.592584   -1.227532    1.430867
     26          1           0       -0.920696   -2.091305    1.454728
     27          1           0       -1.048516   -0.358530    1.799550
     28          1           0       -2.391341   -1.440345    2.144327
     29          6           0       -1.217346   -0.622853   -1.072204
     30          1           0       -0.958260   -1.518896   -1.646823
     31          1           0       -1.744245    0.022074   -1.777597
 ---------------------------------------------------------------------
 Rotational constants (GHZ):      0.7885610      0.6523272      0.4242907
 Leave Link  202 at Tue Jun 17 15:29:06 2014, MaxMem=  4294967296 cpu:         4.0
 (Enter /home/ztw1e12/g09/l301.exe)
 Standard basis: CC-pVTZ (5D, 7F)
 Converting basis for Fermi contact spin-spin IFCMod=1.
 AO basis functions are being uncontracted.
 Ernie: Thresh=  0.10000D-02 Tol=  0.10000D-05 Strict=F.
 There are  1119 symmetry adapted cartesian basis functions of A   symmetry.
 There are  1036 symmetry adapted basis functions of A   symmetry.
  1036 basis functions,  1119 primitive gaussians,  1119 cartesian basis functions
    51 alpha electrons       51 beta electrons
       nuclear repulsion energy       875.6096766334 Hartrees.
 IExCor= 4235 DFT=T Ex+Corr=M06 ExCW=0 ScaHFX=  0.270000
 ScaDFX=  1.000000  1.000000  1.000000  1.000000 ScalE2=  1.000000  1.000000
 IRadAn= 199590 IRanWt=     -1 IRanGd=            0 ICorTp=0 IEmpDi=  4
 NAtoms=   31 NActive=   31 NUniq=   31 SFac= 1.00D+00 NAtFMM=   60 NAOKFM=F Big=F
 Integral buffers will be    131072 words long.
 Raffenetti 2 integral format.
 Two-electron integral symmetry is turned on.
 Leave Link  301 at Tue Jun 17 15:29:06 2014, MaxMem=  4294967296 cpu:         6.4
 (Enter /home/ztw1e12/g09/l302.exe)
 NPDir=0 NMtPBC=     1 NCelOv=     1 NCel=       1 NClECP=     1 NCelD=      1
         NCelK=      1 NCelE2=     1 NClLst=     1 CellRange=     0.0.
 One-electron integrals computed using PRISM.
 GSVD:  received Info=                   1 from GESDD.
 NBasis=  1036 RedAO= T EigKep=  1.18D-04  NBF=  1036
 NBsUse=   932 1.00D-06 EigRej=  6.85D-15 NBFU=   932
 Precomputing XC quadrature grid using
 IXCGrd= 4 IRadAn=      199590 IRanWt=          -1 IRanGd=           0 AccXCQ= 0.00D+00.
 Generated NRdTot=       0 NPtTot=           0 NUsed=           0 NTot=          32
 NSgBfM=   874   874   874   876   879 MxSgAt=    31 MxSgA2=    31.
 Leave Link  302 at Tue Jun 17 15:29:10 2014, MaxMem=  4294967296 cpu:        65.8
 (Enter /home/ztw1e12/g09/l308.exe)
 Leave Link  308 at Tue Jun 17 15:29:11 2014, MaxMem=  4294967296 cpu:         5.7
 (Enter /home/ztw1e12/g09/l303.exe)
 DipDrv:  MaxL=1.
 Leave Link  303 at Tue Jun 17 15:29:11 2014, MaxMem=  4294967296 cpu:         3.8
 (Enter /home/ztw1e12/g09/l401.exe)
 ExpMin= 1.03D-01 ExpMax= 1.38D+05 ExpMxC= 1.38D+05 IAcc=4 IRadAn=    199590 AccDes= 0.00D+00
 Harris functional with IExCor= 1009 and IRadAn=  199590 diagonalized for initial guess.
 HarFok:  IExCor= 1009 AccDes= 0.00D+00 IRadAn=    199590 IDoV= 1 UseB2=F ITyADJ=14
 ICtDFT=  3500011 ScaDFX=  1.000000  1.000000  1.000000  1.000000
 FoFCou: FMM=F IPFlag=           0 FMFlag=      100000 FMFlg1=           0
         NFxFlg=           0 DoJE=T BraDBF=F KetDBF=T FulRan=T
         wScrn=  0.000000 ICntrl=     500 IOpCl=  0 I1Cent=   200000004 NGrid=           0
         NMat0=    1 NMatS0=      1 NMatT0=    0 NMatD0=    1 NMtDS0=    0 NMtDT0=    0
 Petite list used in FoFCou.
 Harris En= -613.558552511713    
 JPrj=0 DoOrth=F DoCkMO=F.
 Leave Link  401 at Tue Jun 17 15:29:28 2014, MaxMem=  4294967296 cpu:       258.7
 (Enter /home/ztw1e12/g09/l502.exe)
 Closed shell SCF:
 Using DIIS extrapolation, IDIIS=  1040.
 Integral symmetry usage will be decided dynamically.
 IVT=     3801329 IEndB=     3801329 NGot=  4294967296 MDV=  4292435888
 LenX=  4292435888 LenY=  4291182608
 Requested convergence on RMS density matrix=1.00D-08 within 128 cycles.
 Requested convergence on MAX density matrix=1.00D-06.
 Requested convergence on             energy=1.00D-06.
 No special actions if energy rises.
 Fock matrices will be formed incrementally for  20 cycles.
 Integral accuracy reduced to 1.0D-05 until final iterations.

 Cycle   1  Pass 0  IDiag  1:
 FoFJK:  IHMeth= 1 ICntrl=       0 DoSepK=F KAlg= 0 I1Cent=   0 FoldK=F
 IRaf= 480000000 NMat=   1 IRICut=       1 DoRegI=T DoRafI=F ISym2E= 0.
 FoFCou: FMM=F IPFlag=           0 FMFlag=      100000 FMFlg1=           0
         NFxFlg=           0 DoJE=F BraDBF=F KetDBF=F FulRan=T
         wScrn=  0.000000 ICntrl=       0 IOpCl=  0 I1Cent=           0 NGrid=           0
         NMat0=    1 NMatS0=      1 NMatT0=    0 NMatD0=    1 NMtDS0=    0 NMtDT0=    0
 Symmetry not used in FoFCou.
 E= -613.178728689561    
 DIIS: error= 1.36D-01 at cycle   1 NSaved=   1.
 NSaved= 1 IEnMin= 1 EnMin= -613.178728689561     IErMin= 1 ErrMin= 1.36D-01
 ErrMax= 1.36D-01  0.00D+00 EMaxC= 1.00D-01 BMatC= 1.30D+01 BMatP= 1.30D+01
 IDIUse=3 WtCom= 0.00D+00 WtEn= 1.00D+00
 Coeff-Com:  0.100D+01
 Coeff-En:   0.100D+01
 Coeff:      0.100D+01
 Gap=     0.287 Goal=   None    Shift=    0.000
 GapD=    0.287 DampG=1.000 DampE=0.250 DampFc=0.2500 IDamp=-1.
 Damping current iteration by 2.50D-01
 RMSDP=2.14D-03 MaxDP=3.17D-01              OVMax= 2.86D-01

 Cycle   2  Pass 0  IDiag  1:
 RMSU=  5.35D-04    CP:  1.01D+00
 E= -613.335035884905     Delta-E=       -0.156307195344 Rises=F Damp=T
 DIIS: error= 1.02D-01 at cycle   2 NSaved=   2.
 NSaved= 2 IEnMin= 2 EnMin= -613.335035884905     IErMin= 2 ErrMin= 1.02D-01
 ErrMax= 1.02D-01  0.00D+00 EMaxC= 1.00D-01 BMatC= 7.66D+00 BMatP= 1.30D+01
 IDIUse=3 WtCom= 0.00D+00 WtEn= 1.00D+00
 Coeff-Com: -0.279D+01 0.379D+01
 Coeff-En:   0.000D+00 0.100D+01
 Coeff:      0.000D+00 0.100D+01
 Gap=     0.214 Goal=   None    Shift=    0.000
 RMSDP=5.81D-04 MaxDP=4.94D-02 DE=-1.56D-01 OVMax= 1.34D-01

 Cycle   3  Pass 0  IDiag  1:
 RMSU=  4.39D-04    CP:  1.03D+00  1.71D+00
 E= -613.524812592876     Delta-E=       -0.189776707972 Rises=F Damp=F
 DIIS: error= 1.30D-02 at cycle   3 NSaved=   3.
 NSaved= 3 IEnMin= 3 EnMin= -613.524812592876     IErMin= 3 ErrMin= 1.30D-02
 ErrMax= 1.30D-02  0.00D+00 EMaxC= 1.00D-01 BMatC= 2.30D-01 BMatP= 7.66D+00
 IDIUse=3 WtCom= 8.70D-01 WtEn= 1.30D-01
 Coeff-Com:  0.121D+01-0.165D+01 0.144D+01
 Coeff-En:   0.135D+00 0.000D+00 0.865D+00
 Coeff:      0.107D+01-0.144D+01 0.137D+01
 Gap=     0.240 Goal=   None    Shift=    0.000
 RMSDP=4.25D-04 MaxDP=3.47D-02 DE=-1.90D-01 OVMax= 6.54D-02

 Cycle   4  Pass 0  IDiag  1:
 RMSU=  2.82D-04    CP:  1.03D+00  1.17D+00  7.05D-01
 E= -613.534529101008     Delta-E=       -0.009716508132 Rises=F Damp=F
 DIIS: error= 8.48D-03 at cycle   4 NSaved=   4.
 NSaved= 4 IEnMin= 4 EnMin= -613.534529101008     IErMin= 4 ErrMin= 8.48D-03
 ErrMax= 8.48D-03  0.00D+00 EMaxC= 1.00D-01 BMatC= 1.09D-01 BMatP= 2.30D-01
 IDIUse=3 WtCom= 9.15D-01 WtEn= 8.48D-02
 Coeff-Com:  0.768D+00-0.106D+01 0.756D+00 0.532D+00
 Coeff-En:   0.000D+00 0.000D+00 0.465D+00 0.535D+00
 Coeff:      0.703D+00-0.967D+00 0.731D+00 0.533D+00
 Gap=     0.272 Goal=   None    Shift=    0.000
 RMSDP=2.84D-04 MaxDP=1.97D-02 DE=-9.72D-03 OVMax= 7.80D-02

 Cycle   5  Pass 0  IDiag  1:
 RMSU=  8.94D-05    CP:  1.02D+00  1.09D+00  8.53D-01  8.38D-02
 E= -613.610501702804     Delta-E=       -0.075972601795 Rises=F Damp=F
 DIIS: error= 2.81D-03 at cycle   5 NSaved=   5.
 NSaved= 5 IEnMin= 5 EnMin= -613.610501702804     IErMin= 5 ErrMin= 2.81D-03
 ErrMax= 2.81D-03  0.00D+00 EMaxC= 1.00D-01 BMatC= 1.43D-02 BMatP= 1.09D-01
 IDIUse=3 WtCom= 9.72D-01 WtEn= 2.81D-02
 Coeff-Com:  0.138D+00-0.197D+00 0.137D+00 0.269D+00 0.653D+00
 Coeff-En:   0.000D+00 0.000D+00 0.000D+00 0.761D-01 0.924D+00
 Coeff:      0.135D+00-0.192D+00 0.133D+00 0.264D+00 0.660D+00
 Gap=     0.264 Goal=   None    Shift=    0.000
 RMSDP=1.50D-04 MaxDP=1.78D-02 DE=-7.60D-02 OVMax= 2.83D-02

 Cycle   6  Pass 0  IDiag  1:
 RMSU=  7.92D-05    CP:  1.03D+00  1.14D+00  9.31D-01  4.61D-01  3.71D-01
 E= -613.618509047245     Delta-E=       -0.008007344441 Rises=F Damp=F
 DIIS: error= 9.01D-04 at cycle   6 NSaved=   6.
 NSaved= 6 IEnMin= 6 EnMin= -613.618509047245     IErMin= 6 ErrMin= 9.01D-04
 ErrMax= 9.01D-04  0.00D+00 EMaxC= 1.00D-01 BMatC= 1.08D-03 BMatP= 1.43D-02
 IDIUse=3 WtCom= 9.91D-01 WtEn= 9.01D-03
 Coeff-Com:  0.593D-01-0.806D-01 0.198D-01 0.438D-01 0.201D+00 0.756D+00
 Coeff-En:   0.000D+00 0.000D+00 0.000D+00 0.000D+00 0.136D-01 0.986D+00
 Coeff:      0.588D-01-0.799D-01 0.197D-01 0.434D-01 0.200D+00 0.758D+00
 Gap=     0.263 Goal=   None    Shift=    0.000
 RMSDP=3.16D-05 MaxDP=3.21D-03 DE=-8.01D-03 OVMax= 8.69D-03

 Cycle   7  Pass 0  IDiag  1:
 RMSU=  2.24D-05    CP:  1.02D+00  1.11D+00  9.33D-01  4.56D-01  4.90D-01
                    CP:  1.11D+00
 E= -613.619091110469     Delta-E=       -0.000582063224 Rises=F Damp=F
 DIIS: error= 4.61D-04 at cycle   7 NSaved=   7.
 NSaved= 7 IEnMin= 7 EnMin= -613.619091110469     IErMin= 7 ErrMin= 4.61D-04
 ErrMax= 4.61D-04  0.00D+00 EMaxC= 1.00D-01 BMatC= 2.57D-04 BMatP= 1.08D-03
 IDIUse=3 WtCom= 9.95D-01 WtEn= 4.61D-03
 Coeff-Com:  0.403D-01-0.540D-01 0.128D-01 0.795D-02 0.583D-01 0.426D+00
 Coeff-Com:  0.509D+00
 Coeff-En:   0.000D+00 0.000D+00 0.000D+00 0.000D+00 0.000D+00 0.129D+00
 Coeff-En:   0.871D+00
 Coeff:      0.401D-01-0.537D-01 0.127D-01 0.791D-02 0.581D-01 0.424D+00
 Coeff:      0.511D+00
 Gap=     0.264 Goal=   None    Shift=    0.000
 RMSDP=1.18D-05 MaxDP=1.00D-03 DE=-5.82D-04 OVMax= 3.00D-03

 Cycle   8  Pass 0  IDiag  1:
 RMSU=  7.17D-06    CP:  1.03D+00  1.11D+00  9.38D-01  4.67D-01  4.79D-01
                    CP:  1.16D+00  6.84D-01
 E= -613.619263803392     Delta-E=       -0.000172692922 Rises=F Damp=F
 DIIS: error= 1.45D-04 at cycle   8 NSaved=   8.
 NSaved= 8 IEnMin= 8 EnMin= -613.619263803392     IErMin= 8 ErrMin= 1.45D-04
 ErrMax= 1.45D-04  0.00D+00 EMaxC= 1.00D-01 BMatC= 2.84D-05 BMatP= 2.57D-04
 IDIUse=3 WtCom= 9.99D-01 WtEn= 1.45D-03
 Coeff-Com:  0.220D-01-0.295D-01 0.859D-02-0.293D-02 0.276D-02 0.169D+00
 Coeff-Com:  0.297D+00 0.534D+00
 Coeff-En:   0.000D+00 0.000D+00 0.000D+00 0.000D+00 0.000D+00 0.000D+00
 Coeff-En:   0.000D+00 0.100D+01
 Coeff:      0.220D-01-0.294D-01 0.858D-02-0.292D-02 0.276D-02 0.168D+00
 Coeff:      0.296D+00 0.534D+00
 Gap=     0.263 Goal=   None    Shift=    0.000
 RMSDP=5.69D-06 MaxDP=5.72D-04 DE=-1.73D-04 OVMax= 1.18D-03

 Initial convergence to 1.0D-05 achieved.  Increase integral accuracy.
 Cycle   9  Pass 1  IDiag  1:
 E= -613.619219089760     Delta-E=        0.000044713632 Rises=F Damp=F
 DIIS: error= 7.16D-05 at cycle   1 NSaved=   1.
 NSaved= 1 IEnMin= 1 EnMin= -613.619219089760     IErMin= 1 ErrMin= 7.16D-05
 ErrMax= 7.16D-05  0.00D+00 EMaxC= 1.00D-01 BMatC= 1.19D-05 BMatP= 1.19D-05
 IDIUse=1 WtCom= 1.00D+00 WtEn= 0.00D+00
 Coeff-Com:  0.100D+01
 Coeff:      0.100D+01
 Gap=     0.264 Goal=   None    Shift=    0.000
 RMSDP=5.69D-06 MaxDP=5.72D-04 DE= 4.47D-05 OVMax= 1.30D-03

 Cycle  10  Pass 1  IDiag  1:
 RMSU=  2.31D-05    CP:  1.00D+00
 E= -613.619215383696     Delta-E=        0.000003706064 Rises=F Damp=F
 DIIS: error= 1.16D-04 at cycle   2 NSaved=   2.
 NSaved= 2 IEnMin= 1 EnMin= -613.619219089760     IErMin= 1 ErrMin= 7.16D-05
 ErrMax= 1.16D-04  0.00D+00 EMaxC= 1.00D-01 BMatC= 1.40D-05 BMatP= 1.19D-05
 IDIUse=3 WtCom= 4.81D-01 WtEn= 5.19D-01
 Coeff-Com:  0.527D+00 0.473D+00
 Coeff-En:   0.624D+00 0.376D+00
 Coeff:      0.577D+00 0.423D+00
 Gap=     0.264 Goal=   None    Shift=    0.000
 RMSDP=3.69D-06 MaxDP=4.64D-04 DE= 3.71D-06 OVMax= 1.10D-03

 Cycle  11  Pass 1  IDiag  1:
 RMSU=  3.63D-06    CP:  1.00D+00  9.79D-01
 E= -613.619224488558     Delta-E=       -0.000009104862 Rises=F Damp=F
 DIIS: error= 3.99D-05 at cycle   3 NSaved=   3.
 NSaved= 3 IEnMin= 3 EnMin= -613.619224488558     IErMin= 3 ErrMin= 3.99D-05
 ErrMax= 3.99D-05  0.00D+00 EMaxC= 1.00D-01 BMatC= 1.35D-06 BMatP= 1.19D-05
 IDIUse=1 WtCom= 1.00D+00 WtEn= 0.00D+00
 Coeff-Com:  0.575D-01 0.236D+00 0.706D+00
 Coeff:      0.575D-01 0.236D+00 0.706D+00
 Gap=     0.264 Goal=   None    Shift=    0.000
 RMSDP=9.73D-07 MaxDP=9.94D-05 DE=-9.10D-06 OVMax= 2.67D-04

 Cycle  12  Pass 1  IDiag  1:
 RMSU=  5.29D-07    CP:  1.00D+00  9.98D-01  8.10D-01
 E= -613.619225349788     Delta-E=       -0.000000861229 Rises=F Damp=F
 DIIS: error= 9.00D-06 at cycle   4 NSaved=   4.
 NSaved= 4 IEnMin= 4 EnMin= -613.619225349788     IErMin= 4 ErrMin= 9.00D-06
 ErrMax= 9.00D-06  0.00D+00 EMaxC= 1.00D-01 BMatC= 1.05D-07 BMatP= 1.35D-06
 IDIUse=1 WtCom= 1.00D+00 WtEn= 0.00D+00
 Coeff-Com:  0.632D-02 0.972D-01 0.349D+00 0.548D+00
 Coeff:      0.632D-02 0.972D-01 0.349D+00 0.548D+00
 Gap=     0.264 Goal=   None    Shift=    0.000
 RMSDP=2.43D-07 MaxDP=2.23D-05 DE=-8.61D-07 OVMax= 5.33D-05

 Cycle  13  Pass 1  IDiag  1:
 RMSU=  2.10D-07    CP:  1.00D+00  9.99D-01  8.21D-01  7.93D-01
 E= -613.619225420600     Delta-E=       -0.000000070812 Rises=F Damp=F
 DIIS: error= 2.25D-06 at cycle   5 NSaved=   5.
 NSaved= 5 IEnMin= 5 EnMin= -613.619225420600     IErMin= 5 ErrMin= 2.25D-06
 ErrMax= 2.25D-06  0.00D+00 EMaxC= 1.00D-01 BMatC= 8.12D-09 BMatP= 1.05D-07
 IDIUse=1 WtCom= 1.00D+00 WtEn= 0.00D+00
 Coeff-Com: -0.245D-02 0.253D-01 0.103D+00 0.269D+00 0.605D+00
 Coeff:     -0.245D-02 0.253D-01 0.103D+00 0.269D+00 0.605D+00
 Gap=     0.264 Goal=   None    Shift=    0.000
 RMSDP=7.98D-08 MaxDP=7.24D-06 DE=-7.08D-08 OVMax= 1.44D-05

 Cycle  14  Pass 1  IDiag  1:
 RMSU=  4.40D-08    CP:  1.00D+00  1.00D+00  8.25D-01  9.03D-01  9.03D-01
 E= -613.619225426115     Delta-E=       -0.000000005515 Rises=F Damp=F
 DIIS: error= 4.14D-07 at cycle   6 NSaved=   6.
 NSaved= 6 IEnMin= 6 EnMin= -613.619225426115     IErMin= 6 ErrMin= 4.14D-07
 ErrMax= 4.14D-07  0.00D+00 EMaxC= 1.00D-01 BMatC= 2.98D-10 BMatP= 8.12D-09
 IDIUse=1 WtCom= 1.00D+00 WtEn= 0.00D+00
 Coeff-Com: -0.123D-02 0.581D-02 0.251D-01 0.842D-01 0.241D+00 0.645D+00
 Coeff:     -0.123D-02 0.581D-02 0.251D-01 0.842D-01 0.241D+00 0.645D+00
 Gap=     0.264 Goal=   None    Shift=    0.000
 RMSDP=2.29D-08 MaxDP=1.92D-06 DE=-5.52D-09 OVMax= 6.77D-06

 Cycle  15  Pass 1  IDiag  1:
 RMSU=  1.93D-08    CP:  1.00D+00  1.00D+00  8.26D-01  9.21D-01  9.31D-01
                    CP:  9.25D-01
 E= -613.619225426195     Delta-E=       -0.000000000080 Rises=F Damp=F
 DIIS: error= 3.98D-07 at cycle   7 NSaved=   7.
 NSaved= 7 IEnMin= 7 EnMin= -613.619225426195     IErMin= 7 ErrMin= 3.98D-07
 ErrMax= 3.98D-07  0.00D+00 EMaxC= 1.00D-01 BMatC= 1.38D-10 BMatP= 2.98D-10
 IDIUse=1 WtCom= 1.00D+00 WtEn= 0.00D+00
 Coeff-Com: -0.379D-03-0.704D-03-0.190D-02 0.618D-02 0.449D-01 0.419D+00
 Coeff-Com:  0.533D+00
 Coeff:     -0.379D-03-0.704D-03-0.190D-02 0.618D-02 0.449D-01 0.419D+00
 Coeff:      0.533D+00
 Gap=     0.264 Goal=   None    Shift=    0.000
 RMSDP=1.50D-08 MaxDP=2.02D-06 DE=-7.98D-11 OVMax= 3.13D-06

 Cycle  16  Pass 1  IDiag  1:
 RMSU=  7.22D-09    CP:  1.00D+00  1.00D+00  8.27D-01  9.34D-01  9.54D-01
                    CP:  1.09D+00  7.34D-01
 E= -613.619225426255     Delta-E=       -0.000000000060 Rises=F Damp=F
 DIIS: error= 1.37D-07 at cycle   8 NSaved=   8.
 NSaved= 8 IEnMin= 8 EnMin= -613.619225426255     IErMin= 8 ErrMin= 1.37D-07
 ErrMax= 1.37D-07  0.00D+00 EMaxC= 1.00D-01 BMatC= 1.39D-11 BMatP= 1.38D-10
 IDIUse=1 WtCom= 1.00D+00 WtEn= 0.00D+00
 Coeff-Com: -0.439D-04-0.125D-02-0.466D-02-0.819D-02-0.824D-02 0.155D+00
 Coeff-Com:  0.303D+00 0.564D+00
 Coeff:     -0.439D-04-0.125D-02-0.466D-02-0.819D-02-0.824D-02 0.155D+00
 Coeff:      0.303D+00 0.564D+00
 Gap=     0.264 Goal=   None    Shift=    0.000
 RMSDP=3.82D-09 MaxDP=3.48D-07 DE=-6.05D-11 OVMax= 8.65D-07

 SCF Done:  E(RM06) =  -613.619225426     A.U. after   16 cycles
            NFock= 16  Conv=0.38D-08     -V/T= 2.0046
 KE= 6.107946566048D+02 PE=-3.182604404916D+03 EE= 1.082580846252D+03
 Leave Link  502 at Tue Jun 17 15:57:27 2014, MaxMem=  4294967296 cpu:     26793.3
 (Enter /home/ztw1e12/g09/l801.exe)
 DoSCS=F DFT=T ScalE2(SS,OS)=  1.000000  1.000000
 Range of M.O.s used for correlation:     1   932
 NBasis=  1036 NAE=    51 NBE=    51 NFC=     0 NFV=     0
 NROrb=    932 NOA=    51 NOB=    51 NVA=   881 NVB=   881

 **** Warning!!: The largest alpha MO coefficient is  0.13521423D+02

 Leave Link  801 at Tue Jun 17 15:57:27 2014, MaxMem=  4294967296 cpu:         0.4
 (Enter /home/ztw1e12/g09/l1002.exe)
 Minotr:  Closed shell wavefunction.
          IDoAtm=1111111111111111111111111111111
          Direct CPHF calculation.
          Differentiating once with respect to Fermi-contact.
          Electric field/nuclear overlap derivatives assumed to be zero.
          Requested convergence is 1.0D-10 RMS, and 1.0D-09 maximum.
          Secondary convergence is 1.0D-12 RMS, and 1.0D-12 maximum.
          NewPWx=T KeepS1=F KeepF1=F KeepIn=T MapXYZ=F SortEE=F KeepMc=T.
          MDV=    4294966050 using IRadAn=  199590.
 Using stored XC quadrature information.
          Solving linear equations simultaneously, MaxMat=       0.
          There are    31 degrees of freedom in the 1st order CPHF.  IDoFFX=0 NUNeed=    31.
     31 vectors produced by pass  0 Test12= 1.45D-17 3.23D-11 XBig12= 4.16D+01 2.57D+00.
 AX will form    31 AO Fock derivatives at one time.
 FoFJK:  IHMeth= 1 ICntrl=       0 DoSepK=F KAlg= 0 I1Cent=   0 FoldK=F
 IRaf= 500000000 NMat=  31 IRICut=       1 DoRegI=T DoRafI=F ISym2E=-1.
 FoFCou: FMM=F IPFlag=           0 FMFlag=      100000 FMFlg1=           0
         NFxFlg=           0 DoJE=F BraDBF=F KetDBF=F FulRan=T
         wScrn=  0.000000 ICntrl=       0 IOpCl=  0 I1Cent=           0 NGrid=           0
         NMat0=   31 NMatS0=      0 NMatT0=   31 NMatD0=   31 NMtDS0=    0 NMtDT0=    0
 Petite list used in FoFCou.
     31 vectors produced by pass  1 Test12= 1.45D-17 3.23D-11 XBig12= 3.44D-01 1.76D-01.
     31 vectors produced by pass  2 Test12= 1.45D-17 3.23D-11 XBig12= 1.68D-02 5.13D-02.
     31 vectors produced by pass  3 Test12= 1.45D-17 3.23D-11 XBig12= 3.66D-04 6.31D-03.
     31 vectors produced by pass  4 Test12= 1.45D-17 3.23D-11 XBig12= 5.09D-06 8.86D-04.
     31 vectors produced by pass  5 Test12= 1.45D-17 3.23D-11 XBig12= 1.05D-07 1.53D-04.
     31 vectors produced by pass  6 Test12= 1.45D-17 3.23D-11 XBig12= 3.35D-09 1.69D-05.
     31 vectors produced by pass  7 Test12= 1.45D-17 3.23D-11 XBig12= 1.09D-10 4.30D-06.
     31 vectors produced by pass  8 Test12= 1.45D-17 3.23D-11 XBig12= 3.13D-12 4.15D-07.
     31 vectors produced by pass  9 Test12= 1.45D-17 3.23D-11 XBig12= 7.25D-14 7.80D-08.
     31 vectors produced by pass 10 Test12= 1.45D-17 3.23D-11 XBig12= 2.32D-15 7.84D-09.
     31 vectors produced by pass 11 Test12= 1.45D-17 3.23D-11 XBig12= 2.41D-17 6.61D-10.
      6 vectors produced by pass 12 Test12= 1.45D-17 3.23D-11 XBig12= 1.64D-19 4.08D-11.
 InvSVY:  IOpt=1 It=  1 EMax= 5.33D-15
 Solved reduced A of dimension   378 with    31 vectors.
 Max diff in FC couplings:  IJMax=    22     9 Diff= 2.42D-04 IJMaxR=    14     4 DiffR= 6.75D-01
 Fermi Contact (FC) contribution to K (Hz):
                1             2             3             4             5 
      1  0.123400D+11
      2  0.265385D+02  0.123400D+11
      3 -0.122173D+01  0.186349D+02  0.123400D+11
      4 -0.315726D-01  0.134926D+01 -0.468883D-01  0.123400D+11
      5 -0.865490D-02  0.157055D+00  0.164070D-02  0.175095D+02  0.123400D+11
      6  0.104985D-02 -0.265308D-02 -0.111020D-02  0.171727D+02 -0.768899D+00
      7  0.478059D-02 -0.215098D-01  0.146448D-02  0.174119D+02 -0.750472D+00
      8 -0.975633D+01  0.269899D+01  0.346006D+00  0.102481D+00  0.312077D-02
      9  0.370207D+00  0.201118D+02 -0.828056D+00 -0.696877D-01 -0.818274D-03
     10 -0.139255D-01  0.224587D+00  0.227723D+00  0.160294D-01  0.173066D-02
     11  0.283439D+02  0.136999D+02  0.136917D-01 -0.135407D-01  0.163815D-02
     12  0.478372D+00  0.808541D-01 -0.216187D-01 -0.753855D-05 -0.346807D-03
     13 -0.414574D+00  0.101365D+01 -0.525488D-01 -0.116142D-02 -0.377616D-03
     14  0.190745D+00 -0.796893D-01  0.270133D-01 -0.830278D-05  0.212627D-03
     15  0.193708D+00 -0.806849D-01  0.260474D-01 -0.266656D-03  0.458812D-03
     16  0.956499D+00 -0.189353D-01  0.793798D-03  0.175318D-03  0.101661D-04
     17  0.421295D-01 -0.480983D+00  0.366684D+00  0.193391D-01  0.145526D-02
     18 -0.154765D+00  0.936171D+00 -0.857861D-01 -0.386905D-02 -0.237091D-03
     19 -0.146750D-02  0.108928D+00 -0.238951D-02  0.270657D-05 -0.156281D-04
     20  0.576118D-01  0.132049D-01  0.122823D-01  0.108108D-04 -0.103878D-04
     21  0.843294D-01  0.502527D-01  0.198780D-01  0.135521D-03 -0.328670D-04
     22  0.469769D+00  0.764677D+00  0.185298D+00  0.135342D-01  0.505691D-02
     23  0.704163D+00 -0.555936D+00  0.112566D+01  0.171404D+02 -0.512200D+00
     24 -0.876654D-02  0.380602D-01 -0.217582D-01 -0.674186D+00  0.126050D+00
     25  0.114024D+00  0.121847D+01  0.209790D-01 -0.295269D+00  0.288204D+00
     26  0.125623D-02 -0.794191D-02  0.659513D-02  0.557404D+00 -0.253518D-02
     27  0.142111D-01  0.253579D-01  0.847042D-02  0.151170D+01  0.725633D-02
     28  0.150558D-01  0.436579D-01  0.651353D-02  0.286405D+00 -0.832325D-02
     29 -0.245417D+00  0.168596D+02 -0.930068D+00  0.410814D+00  0.149670D+01
     30  0.105633D+01 -0.103428D+01  0.112403D+00  0.111471D+01  0.282473D-01
     31  0.499691D-01 -0.422150D+00  0.202329D+00  0.735143D-02 -0.230629D-01
                6             7             8             9            10 
      6  0.123400D+11
      7 -0.756625D+00  0.123400D+11
      8  0.138931D-01  0.100498D-02  0.123400D+11
      9  0.108800D-02  0.393774D-02  0.356738D+00  0.123400D+11
     10  0.255618D-03  0.222105D-02 -0.567640D-02  0.316176D+02  0.123400D+11
     11  0.130666D-02  0.740738D-02  0.641442D+01  0.101465D+01  0.946191D-01
     12 -0.685948D-04 -0.151784D-03  0.474971D+00  0.437077D-01 -0.847502D-03
     13  0.209946D-04 -0.439500D-03  0.643352D+00  0.281863D+00  0.270277D-02
     14  0.121352D-03  0.166122D-03  0.248447D+00 -0.844043D-02  0.362740D-03
     15  0.801247D-04  0.378990D-03  0.234127D+00 -0.585729D-02 -0.822449D-04
     16  0.000000D+00  0.385336D-04  0.181408D+00  0.299583D-01 -0.506897D-03
     17  0.531811D-03 -0.886955D-03  0.110179D+00  0.265946D+02  0.393835D+00
     18  0.787444D-04  0.218856D-04  0.717035D-01  0.129088D+02  0.106502D+00
     19  0.101024D-05 -0.675469D-04 -0.496039D-05  0.354005D+00 -0.104977D-01
     20  0.316653D-05 -0.305249D-04  0.539155D-02  0.342821D+00 -0.683190D-02
     21 -0.425393D-05 -0.418127D-05  0.221135D-02  0.393642D+00 -0.155933D-01
     22  0.122774D-03  0.560866D-03  0.767548D+00  0.563835D+01  0.391811D+00
     23 -0.599202D+00 -0.722289D+00 -0.228293D-01  0.115717D-01  0.640847D-03
     24  0.129345D+00  0.359258D+00  0.234203D-02  0.488736D-01 -0.133506D-02
     25  0.136293D+01  0.513698D+00  0.154767D+01  0.104342D+01 -0.882369D-01
     26  0.550727D-03 -0.150406D-01 -0.361542D-01  0.585447D+00 -0.425805D-01
     27  0.109173D+00 -0.262176D-02 -0.349450D-01  0.108585D+00  0.759000D-02
     28  0.425886D-02 -0.747060D-02  0.337490D-01  0.334312D+00 -0.167471D-01
     29  0.363423D+00  0.430984D+00  0.353818D+00  0.748864D+00  0.421115D+00
     30 -0.185062D-02 -0.194474D-01  0.822061D-01  0.806912D+00 -0.167120D-01
     31 -0.509941D-02 -0.630529D-02 -0.265674D-01  0.184401D+01 -0.217746D-01
               11            12            13            14            15 
     11  0.123400D+11
     12  0.311677D+02  0.123400D+11
     13  0.171534D+02  0.319385D+00  0.123400D+11
     14 -0.561038D+00  0.133540D+00  0.199531D+02  0.123400D+11
     15 -0.586155D+00  0.788523D-01  0.201307D+02 -0.732862D+00  0.123400D+11
     16 -0.385770D+00  0.288883D+00  0.181909D+02 -0.752535D+00 -0.743604D+00
     17 -0.710487D-01 -0.585129D-03 -0.155876D-01  0.141489D-02  0.182485D-02
     18  0.204297D-01  0.176580D-02  0.149164D-01 -0.105541D-03  0.179756D-04
     19  0.472447D-02 -0.132331D-04 -0.130871D-03 -0.104097D-04  0.124204D-05
     20 -0.206722D-02 -0.788794D-04 -0.312891D-03  0.292948D-04 -0.716525D-05
     21  0.235884D-01  0.115013D-04  0.348375D-02 -0.261391D-04 -0.101459D-03
     22  0.179750D+00 -0.124907D-02  0.142406D-01  0.759967D-03  0.805945D-03
     23 -0.395283D-01  0.263208D-02  0.293277D-02  0.459523D-03  0.784503D-03
     24  0.171439D-01 -0.872231D-03 -0.797387D-03  0.146403D-02  0.714379D-03
     25  0.427526D-01  0.126472D-02  0.639029D-02  0.860706D-03 -0.249934D-02
     26  0.716023D-03  0.483127D-04 -0.368659D-03  0.105356D-03  0.102398D-03
     27  0.171873D-01 -0.408065D-03  0.168898D-02  0.531072D-03  0.453375D-03
     28  0.111960D-01 -0.743046D-04 -0.322762D-04 -0.539043D-04  0.188091D-03
     29  0.103290D+00 -0.378144D-01 -0.979164D-01  0.407873D-01  0.102185D+00
     30 -0.316604D-01 -0.936501D-02 -0.901824D-02  0.156506D-02  0.659574D-02
     31  0.188922D+00 -0.194994D-01  0.957715D-02 -0.426710D-03  0.242849D-02
               16            17            18            19            20 
     16  0.123400D+11
     17  0.875847D-04  0.123400D+11
     18  0.360493D-03  0.273682D+02  0.123400D+11
     19  0.101301D-04 -0.758398D+00  0.169968D+02  0.123400D+11
     20  0.897891D-04 -0.116854D+01  0.178490D+02 -0.723356D+00  0.123400D+11
     21  0.280805D-03 -0.121482D+01  0.180553D+02 -0.741081D+00 -0.921790D+00
     22  0.102044D-02 -0.954159D+01  0.379155D+01  0.827790D+00  0.424379D+00
     23 -0.352346D-03 -0.646355D-01  0.965576D-02 -0.780831D-04 -0.141594D-02
     24  0.213367D-03 -0.784298D-03  0.826217D-03  0.615867D-03  0.473426D-03
     25  0.740646D-03  0.302995D-01 -0.541391D-02 -0.114637D-02  0.173282D-02
     26  0.745211D-05  0.369080D-01  0.227452D-02  0.223635D-02  0.249547D-03
     27  0.222587D-03  0.131547D-01 -0.417055D-03 -0.398379D-04  0.247849D-03
     28  0.644625D-04  0.263408D-01 -0.969626D-03  0.127318D-03  0.365998D-03
     29  0.690660D-02  0.133603D+01 -0.337263D-01 -0.246820D-02  0.206982D-01
     30  0.138511D-02  0.281593D-02  0.156453D-01  0.945300D-04 -0.850160D-04
     31  0.737113D-03  0.100276D+00  0.625401D-01 -0.264673D-04  0.308091D-02
               21            22            23            24            25 
     21  0.123400D+11
     22  0.446999D+00  0.123400D+11
     23 -0.189161D-03  0.998337D-01  0.123400D+11
     24 -0.693777D-05 -0.342406D-03  0.175755D+02  0.123400D+11
     25  0.185209D-03  0.843086D-01  0.166458D+02 -0.664826D+00  0.123400D+11
     26  0.772897D-04  0.110698D-01 -0.653989D+00  0.402668D+00  0.162064D+02
     27  0.181580D-03  0.266350D-02 -0.564133D+00  0.105380D+00  0.184806D+02
     28  0.295733D-03  0.981748D-02 -0.678066D+00  0.166946D+00  0.169804D+02
     29 -0.669103D-02  0.158564D+00  0.173909D+02 -0.725062D+00 -0.365493D+00
     30 -0.892957D-03 -0.307789D-02 -0.647804D+00  0.229819D+00  0.110531D-01
     31 -0.189726D-02  0.430614D-02 -0.630121D+00  0.333936D+00  0.737136D+00
               26            27            28            29            30 
     26  0.123400D+11
     27 -0.751030D+00  0.123400D+11
     28 -0.830554D+00 -0.865591D+00  0.123400D+11
     29  0.196916D+00  0.279933D+00  0.118334D+01  0.123400D+11
     30 -0.593961D-02 -0.476634D-02 -0.195245D-01  0.169892D+02  0.123400D+11
     31 -0.148897D-01 -0.655022D-02  0.911936D-02  0.171988D+02 -0.943875D+00
               31 
     31  0.123400D+11
 Fermi Contact (FC) contribution to J (Hz):
                1             2             3             4             5 
      1  0.243533D+11
      2  0.523745D+02  0.243533D+11
      3 -0.958681D+01  0.146226D+03  0.385007D+12
      4 -0.623093D-01  0.266280D+01 -0.367928D+00  0.243533D+11
      5 -0.679141D-01  0.123239D+01  0.511897D-01  0.137396D+03  0.385007D+12
      6  0.823809D-02 -0.208184D-01 -0.346382D-01  0.134753D+03 -0.239896D+02
      7  0.375128D-01 -0.168785D+00  0.456918D-01  0.136629D+03 -0.234147D+02
      8  0.103825D+02 -0.287221D+01 -0.146404D+01 -0.109058D+00 -0.132048D-01
      9  0.209986D+00  0.114077D+02 -0.186750D+01 -0.395277D-01 -0.184544D-02
     10 -0.109272D+00  0.176231D+01  0.710496D+01  0.125781D+00  0.539966D-01
     11  0.160770D+02  0.777074D+01  0.308787D-01 -0.768046D-02  0.369450D-02
     12  0.375374D+01  0.634455D+00 -0.674502D+00 -0.591543D-04 -0.108204D-01
     13 -0.818172D+00  0.200047D+01 -0.412345D+00 -0.229209D-02 -0.296312D-02
     14  0.149675D+01 -0.625314D+00  0.842815D+00 -0.651511D-04  0.663395D-02
     15  0.152001D+01 -0.633126D+00  0.812678D+00 -0.209243D-02  0.143149D-01
     16  0.750556D+01 -0.148584D+00  0.247665D-01  0.137571D-02  0.317181D-03
     17  0.831437D-01 -0.949232D+00  0.287734D+01  0.381662D-01  0.114192D-01
     18 -0.305433D+00  0.184756D+01 -0.673155D+00 -0.763567D-02 -0.186043D-02
     19 -0.115153D-01  0.854751D+00 -0.745526D-01  0.212382D-04 -0.487597D-03
     20  0.452074D+00  0.103617D+00  0.383208D+00  0.848316D-04 -0.324098D-03
     21  0.661725D+00  0.394328D+00  0.620192D+00  0.106342D-02 -0.102545D-02
     22 -0.499919D+00 -0.813754D+00 -0.784048D+00 -0.144028D-01 -0.213972D-01
     23  0.138968D+01 -0.109715D+01  0.883291D+01  0.338270D+02 -0.401918D+01
     24 -0.687902D-01  0.298655D+00 -0.678853D+00 -0.529028D+01  0.393275D+01
     25  0.225030D+00  0.240468D+01  0.164620D+00 -0.582721D+00  0.226150D+01
     26  0.985752D-02 -0.623194D-01  0.205768D+00  0.437389D+01 -0.790976D-01
     27  0.111513D+00  0.198981D+00  0.264277D+00  0.118622D+02  0.226397D+00
     28  0.118141D+00  0.342579D+00  0.203222D+00  0.224739D+01 -0.259685D+00
     29 -0.484337D+00  0.332728D+02 -0.729815D+01  0.810753D+00  0.117445D+02
     30  0.828893D+01 -0.811589D+01  0.350696D+01  0.874703D+01  0.881315D+00
     31  0.392103D+00 -0.331257D+01  0.631266D+01  0.576859D-01 -0.719562D+00
                6             7             8             9            10 
      6  0.385007D+12
      7 -0.236067D+02  0.385007D+12
      8 -0.587855D-01 -0.425233D-02  0.708114D+10
      9  0.245376D-02  0.888071D-02 -0.109111D+00  0.201170D+10
     10  0.797526D-02  0.692966D-01  0.240184D-01  0.713067D+02  0.385007D+12
     11  0.294690D-02  0.167057D-01 -0.196190D+01  0.165411D+00  0.213393D+00
     12 -0.214015D-02 -0.473566D-02 -0.200973D+01  0.985733D-01 -0.264420D-01
     13  0.164743D-03 -0.344871D-02 -0.684643D+00  0.159876D+00  0.212084D-01
     14  0.378619D-02  0.518300D-02 -0.105125D+01 -0.190356D-01  0.113175D-01
     15  0.249989D-02  0.118245D-01 -0.990654D+00 -0.132099D-01 -0.256604D-02
     16 -0.242443D-04  0.120225D-02 -0.767587D+00  0.675645D-01 -0.158152D-01
     17  0.417307D-02 -0.695985D-02 -0.117250D+00  0.150848D+02  0.309038D+01
     18  0.617900D-03  0.171734D-03 -0.763055D-01  0.732201D+01  0.835708D+00
     19  0.315193D-04 -0.210746D-02  0.209887D-04  0.798381D+00 -0.327526D+00
     20  0.987955D-04 -0.952374D-03 -0.228131D-01  0.773159D+00 -0.213155D+00
     21 -0.132723D-03 -0.130456D-03 -0.935684D-02  0.887775D+00 -0.486509D+00
     22 -0.519491D-03 -0.237318D-02  0.440447D+00 -0.172453D+01 -0.165786D+01
     23 -0.470188D+01 -0.566773D+01  0.242945D-01  0.656358D-02  0.502867D-02
     24  0.403557D+01  0.112088D+02 -0.990976D-02  0.110224D+00 -0.416538D-01
     25  0.106948D+02  0.403094D+01 -0.164700D+01  0.591839D+00 -0.692386D+00
     26  0.171827D-01 -0.469267D+00  0.152978D+00  0.132035D+01 -0.132851D+01
     27  0.340619D+01 -0.817987D-01  0.147862D+00  0.244891D+00  0.236808D+00
     28  0.132876D+00 -0.233082D+00 -0.142801D+00  0.753969D+00 -0.522509D+00
     29  0.285175D+01  0.338189D+01 -0.376526D+00  0.424765D+00  0.330445D+01
     30 -0.577392D-01 -0.606759D+00 -0.347837D+00  0.181982D+01 -0.521413D+00
     31 -0.159101D+00 -0.196725D+00  0.112414D+00  0.415876D+01 -0.679367D+00
               11            12            13            14            15 
     11  0.201170D+10
     12  0.702920D+02  0.385007D+12
     13  0.972964D+01  0.250619D+01  0.243533D+11
     14 -0.126530D+01  0.416643D+01  0.156570D+03  0.385007D+12
     15 -0.132195D+01  0.246019D+01  0.157964D+03 -0.228653D+02  0.385007D+12
     16 -0.870022D+00  0.901313D+01  0.142742D+03 -0.234791D+02 -0.232004D+02
     17 -0.402997D-01 -0.459145D-02 -0.307625D-01  0.111025D-01  0.143194D-01
     18  0.115880D-01  0.138561D-01  0.294379D-01 -0.828171D-03  0.141053D-03
     19  0.106550D-01 -0.412872D-03 -0.102693D-02 -0.324781D-03  0.387514D-04
     20 -0.466216D-02 -0.246103D-02 -0.245522D-02  0.913996D-03 -0.223556D-03
     21  0.531986D-01  0.358841D-03  0.273367D-01 -0.815538D-03 -0.316552D-02
     22 -0.549778D-01  0.528514D-02 -0.151546D-01 -0.321563D-02 -0.341017D-02
     23 -0.224209D-01  0.206537D-01  0.578790D-02  0.360583D-02  0.615592D-02
     24  0.386645D-01 -0.272136D-01 -0.625702D-02  0.456777D-01  0.222886D-01
     25  0.242498D-01  0.992413D-02  0.126114D-01  0.675388D-02 -0.196121D-01
     26  0.161484D-02  0.150735D-02 -0.289283D-02  0.328709D-02  0.319483D-02
     27  0.387623D-01 -0.127316D-01  0.132533D-01  0.165694D-01  0.141453D-01
     28  0.252502D-01 -0.231830D-02 -0.253268D-03 -0.168181D-02  0.586843D-02
     29  0.585871D-01 -0.296726D+00 -0.193240D+00  0.320054D+00  0.801834D+00
     30 -0.714032D-01 -0.292188D+00 -0.707653D-01  0.488298D-01  0.205787D+00
     31  0.426072D+00 -0.608381D+00  0.751510D-01 -0.133133D-01  0.757688D-01
               16            17            18            19            20 
     16  0.385007D+12
     17  0.687269D-03  0.243533D+11
     18  0.282875D-02  0.540117D+02  0.243533D+11
     19  0.316059D-03 -0.595107D+01  0.133373D+03  0.385007D+12
     20  0.280142D-02 -0.916944D+01  0.140060D+03 -0.225687D+02  0.385007D+12
     21  0.876109D-02 -0.953260D+01  0.141678D+03 -0.231217D+02 -0.287598D+02
     22 -0.431775D-02  0.101540D+02 -0.403490D+01 -0.350261D+01 -0.179566D+01
     23 -0.276483D-02 -0.127560D+00  0.190559D-01 -0.612710D-03 -0.111108D-01
     24  0.665704D-02 -0.615431D-02  0.648324D-02  0.192150D-01  0.147709D-01
     25  0.581178D-02  0.597968D-01 -0.106845D-01 -0.899544D-02  0.135973D-01
     26  0.232506D-03  0.289613D+00  0.178480D-01  0.697741D-01  0.778586D-02
     27  0.694472D-02  0.103224D+00 -0.327259D-02 -0.124294D-02  0.773289D-02
     28  0.201123D-02  0.206693D+00 -0.760856D-02  0.397232D-02  0.114191D-01
     29  0.541954D-01  0.263669D+01 -0.665597D-01 -0.193677D-01  0.162416D+00
     30  0.432154D-01  0.220963D-01  0.122767D+00  0.294933D-02 -0.265250D-02
     31  0.229979D-01  0.786852D+00  0.490746D+00 -0.825778D-03  0.961243D-01
               21            22            23            24            25 
     21  0.385007D+12
     22 -0.189137D+01  0.708114D+10
     23 -0.148433D-02 -0.106241D+00  0.243533D+11
     24 -0.216458D-03  0.144881D-02  0.137913D+03  0.385007D+12
     25  0.145332D-02 -0.897196D-01  0.328508D+02 -0.521682D+01  0.243533D+11
     26  0.241143D-02 -0.468393D-01 -0.513179D+01  0.125632D+02  0.127170D+03
     27  0.566529D-02 -0.112700D-01 -0.442669D+01  0.328784D+01  0.145015D+03
     28  0.922687D-02 -0.415405D-01 -0.532072D+01  0.520871D+01  0.133243D+03
     29 -0.525038D-01 -0.168741D+00  0.343214D+02 -0.568949D+01 -0.721310D+00
     30 -0.278602D-01  0.130234D-01 -0.508325D+01  0.717034D+01  0.867329D-01
     31 -0.591945D-01 -0.182205D-01 -0.494450D+01  0.104188D+02  0.578424D+01
               26            27            28            29            30 
     26  0.385007D+12
     27 -0.234321D+02  0.385007D+12
     28 -0.259132D+02 -0.270064D+02  0.385007D+12
     29  0.154518D+01  0.219661D+01  0.928553D+01  0.243533D+11
     30 -0.185316D+00 -0.148709D+00 -0.609163D+00  0.133313D+03  0.385007D+12
     31 -0.464558D+00 -0.204366D+00  0.284524D+00  0.134958D+03 -0.294489D+02
               31 
     31  0.385007D+12
 End of Minotr F.D. properties file   721 does not exist.
 End of Minotr F.D. properties file   722 does not exist.
 End of Minotr F.D. properties file   788 does not exist.
 Leave Link 1002 at Tue Jun 17 22:32:50 2014, MaxMem=  4294967296 cpu:    378637.4
 (Enter /home/ztw1e12/g09/l601.exe)
 Copying SCF densities to generalized density rwf, IOpCl= 0 IROHF=0.

 **********************************************************************

            Population analysis using the SCF density.

 **********************************************************************

 Orbital symmetries:
       Occupied  (A) (A) (A) (A) (A) (A) (A) (A) (A) (A) (A) (A)
                 (A) (A) (A) (A) (A) (A) (A) (A) (A) (A) (A) (A)
                 (A) (A) (A) (A) (A) (A) (A) (A) (A) (A) (A) (A)
                 (A) (A) (A) (A) (A) (A) (A) (A) (A) (A) (A) (A)
                 (A) (A) (A)
       Virtual   (A) (A) (A) (A) (A) (A) (A) (A) (A) (A) (A) (A)
                 (A) (A) (A) (A) (A) (A) (A) (A) (A) (A) (A) (A)
                 (A) (A) (A) (A) (A) (A) (A) (A) (A) (A) (A) (A)
                 (A) (A) (A) (A) (A) (A) (A) (A) (A) (A) (A) (A)
                 (A) (A) (A) (A) (A) (A) (A) (A) (A) (A) (A) (A)
                 (A) (A) (A) (A) (A) (A) (A) (A) (A) (A) (A) (A)
                 (A) (A) (A) (A) (A) (A) (A) (A) (A) (A) (A) (A)
                 (A) (A) (A) (A) (A) (A) (A) (A) (A) (A) (A) (A)
                 (A) (A) (A) (A) (A) (A) (A) (A) (A) (A) (A) (A)
                 (A) (A) (A) (A) (A) (A) (A) (A) (A) (A) (A) (A)
                 (A) (A) (A) (A) (A) (A) (A) (A) (A) (A) (A) (A)
                 (A) (A) (A) (A) (A) (A) (A) (A) (A) (A) (A) (A)
                 (A) (A) (A) (A) (A) (A) (A) (A) (A) (A) (A) (A)
                 (A) (A) (A) (A) (A) (A) (A) (A) (A) (A) (A) (A)
                 (A) (A) (A) (A) (A) (A) (A) (A) (A) (A) (A) (A)
                 (A) (A) (A) (A) (A) (A) (A) (A) (A) (A) (A) (A)
                 (A) (A) (A) (A) (A) (A) (A) (A) (A) (A) (A) (A)
                 (A) (A) (A) (A) (A) (A) (A) (A) (A) (A) (A) (A)
                 (A) (A) (A) (A) (A) (A) (A) (A) (A) (A) (A) (A)
                 (A) (A) (A) (A) (A) (A) (A) (A) (A) (A) (A) (A)
                 (A) (A) (A) (A) (A) (A) (A) (A) (A) (A) (A) (A)
                 (A) (A) (A) (A) (A) (A) (A) (A) (A) (A) (A) (A)
                 (A) (A) (A) (A) (A) (A) (A) (A) (A) (A) (A) (A)
                 (A) (A) (A) (A) (A) (A) (A) (A) (A) (A) (A) (A)
                 (A) (A) (A) (A) (A) (A) (A) (A) (A) (A) (A) (A)
                 (A) (A) (A) (A) (A) (A) (A) (A) (A) (A) (A) (A)
                 (A) (A) (A) (A) (A) (A) (A) (A) (A) (A) (A) (A)
                 (A) (A) (A) (A) (A) (A) (A) (A) (A) (A) (A) (A)
                 (A) (A) (A) (A) (A) (A) (A) (A) (A) (A) (A) (A)
                 (A) (A) (A) (A) (A) (A) (A) (A) (A) (A) (A) (A)
                 (A) (A) (A) (A) (A) (A) (A) (A) (A) (A) (A) (A)
                 (A) (A) (A) (A) (A) (A) (A) (A) (A) (A) (A) (A)
                 (A) (A) (A) (A) (A) (A) (A) (A) (A) (A) (A) (A)
                 (A) (A) (A) (A) (A) (A) (A) (A) (A) (A) (A) (A)
                 (A) (A) (A) (A) (A) (A) (A) (A) (A) (A) (A) (A)
                 (A) (A) (A) (A) (A) (A) (A) (A) (A) (A) (A) (A)
                 (A) (A) (A) (A) (A) (A) (A) (A) (A) (A) (A) (A)
                 (A) (A) (A) (A) (A) (A) (A) (A) (A) (A) (A) (A)
                 (A) (A) (A) (A) (A) (A) (A) (A) (A) (A) (A) (A)
                 (A) (A) (A) (A) (A) (A) (A) (A) (A) (A) (A) (A)
                 (A) (A) (A) (A) (A) (A) (A) (A) (A) (A) (A) (A)
                 (A) (A) (A) (A) (A) (A) (A) (A) (A) (A) (A) (A)
                 (A) (A) (A) (A) (A) (A) (A) (A) (A) (A) (A) (A)
                 (A) (A) (A) (A) (A) (A) (A) (A) (A) (A) (A) (A)
                 (A) (A) (A) (A) (A) (A) (A) (A) (A) (A) (A) (A)
                 (A) (A) (A) (A) (A) (A) (A) (A) (A) (A) (A) (A)
                 (A) (A) (A) (A) (A) (A) (A) (A) (A) (A) (A) (A)
                 (A) (A) (A) (A) (A) (A) (A) (A) (A) (A) (A) (A)
                 (A) (A) (A) (A) (A) (A) (A) (A) (A) (A) (A) (A)
                 (A) (A) (A) (A) (A) (A) (A) (A) (A) (A) (A) (A)
                 (A) (A) (A) (A) (A) (A) (A) (A) (A) (A) (A) (A)
                 (A) (A) (A) (A) (A) (A) (A) (A) (A) (A) (A) (A)
                 (A) (A) (A) (A) (A) (A) (A) (A) (A) (A) (A) (A)
                 (A) (A) (A) (A) (A) (A) (A) (A) (A) (A) (A) (A)
                 (A) (A) (A) (A) (A) (A) (A) (A) (A) (A) (A) (A)
                 (A) (A) (A) (A) (A) (A) (A) (A) (A) (A) (A) (A)
                 (A) (A) (A) (A) (A) (A) (A) (A) (A) (A) (A) (A)
                 (A) (A) (A) (A) (A) (A) (A) (A) (A) (A) (A) (A)
                 (A) (A) (A) (A) (A) (A) (A) (A) (A) (A) (A) (A)
                 (A) (A) (A) (A) (A) (A) (A) (A) (A) (A) (A) (A)
                 (A) (A) (A) (A) (A) (A) (A) (A) (A) (A) (A) (A)
                 (A) (A) (A) (A) (A) (A) (A) (A) (A) (A) (A) (A)
                 (A) (A) (A) (A) (A) (A) (A) (A) (A) (A) (A) (A)
                 (A) (A) (A) (A) (A) (A) (A) (A) (A) (A) (A) (A)
                 (A) (A) (A) (A) (A) (A) (A) (A) (A) (A) (A) (A)
                 (A) (A) (A) (A) (A) (A) (A) (A) (A) (A) (A) (A)
                 (A) (A) (A) (A) (A) (A) (A) (A) (A) (A) (A) (A)
                 (A) (A) (A) (A) (A) (A) (A) (A) (A) (A) (A) (A)
                 (A) (A) (A) (A) (A) (A) (A) (A) (A) (A) (A) (A)
                 (A) (A) (A) (A) (A) (A) (A) (A) (A) (A) (A) (A)
                 (A) (A) (A) (A) (A) (A) (A) (A) (A) (A) (A) (A)
                 (A) (A) (A) (A) (A) (A) (A) (A) (A) (A) (A) (A)
                 (A) (A) (A) (A) (A) (A) (A) (A) (A) (A) (A) (A)
                 (A) (A) (A) (A) (A)
 The electronic state is 1-A.
 Alpha  occ. eigenvalues --  -19.17272 -19.16096 -14.41997 -14.41196 -10.33574
 Alpha  occ. eigenvalues --  -10.33088 -10.29236 -10.27268 -10.25835 -10.25685
 Alpha  occ. eigenvalues --  -10.23735 -10.23553 -10.23209  -1.05408  -1.03852
 Alpha  occ. eigenvalues --   -0.94412  -0.94080  -0.83891  -0.78646  -0.74238
 Alpha  occ. eigenvalues --   -0.72081  -0.70347  -0.66444  -0.60934  -0.59801
 Alpha  occ. eigenvalues --   -0.58329  -0.54775  -0.50504  -0.49325  -0.48836
 Alpha  occ. eigenvalues --   -0.47199  -0.46586  -0.45252  -0.45097  -0.44174
 Alpha  occ. eigenvalues --   -0.42824  -0.41619  -0.40869  -0.40539  -0.39874
 Alpha  occ. eigenvalues --   -0.39694  -0.39253  -0.38216  -0.36469  -0.35066
 Alpha  occ. eigenvalues --   -0.34634  -0.33669  -0.28260  -0.27516  -0.26173
 Alpha  occ. eigenvalues --   -0.25658
 Alpha virt. eigenvalues --    0.00703   0.02276   0.02672   0.03755   0.04485
 Alpha virt. eigenvalues --    0.04929   0.06554   0.06964   0.07672   0.08338
 Alpha virt. eigenvalues --    0.09449   0.10335   0.10739   0.11300   0.12083
 Alpha virt. eigenvalues --    0.12387   0.12744   0.13672   0.14715   0.15677
 Alpha virt. eigenvalues --    0.16099   0.16669   0.18354   0.18755   0.19785
 Alpha virt. eigenvalues --    0.20536   0.22863   0.23054   0.24187   0.25098
 Alpha virt. eigenvalues --    0.25357   0.25511   0.26284   0.26837   0.27896
 Alpha virt. eigenvalues --    0.28446   0.29197   0.29351   0.30295   0.32293
 Alpha virt. eigenvalues --    0.33157   0.34151   0.34676   0.35255   0.35630
 Alpha virt. eigenvalues --    0.36655   0.36862   0.38226   0.39098   0.39535
 Alpha virt. eigenvalues --    0.39822   0.40026   0.40614   0.40784   0.41071
 Alpha virt. eigenvalues --    0.41416   0.41774   0.41846   0.42719   0.42966
 Alpha virt. eigenvalues --    0.43641   0.44065   0.44492   0.44725   0.45173
 Alpha virt. eigenvalues --    0.45843   0.46050   0.47132   0.47919   0.48047
 Alpha virt. eigenvalues --    0.49624   0.50472   0.51272   0.51357   0.52524
 Alpha virt. eigenvalues --    0.53209   0.53742   0.54434   0.55409   0.56851
 Alpha virt. eigenvalues --    0.57924   0.58778   0.59565   0.60280   0.61600
 Alpha virt. eigenvalues --    0.62286   0.62791   0.63881   0.66612   0.67568
 Alpha virt. eigenvalues --    0.68362   0.69476   0.71616   0.72998   0.74674
 Alpha virt. eigenvalues --    0.75347   0.75738   0.76534   0.78149   0.79182
 Alpha virt. eigenvalues --    0.79879   0.80548   0.81399   0.81995   0.82975
 Alpha virt. eigenvalues --    0.83942   0.85149   0.85799   0.86290   0.86959
 Alpha virt. eigenvalues --    0.88068   0.88550   0.89186   0.90102   0.91461
 Alpha virt. eigenvalues --    0.92459   0.93336   0.93730   0.94870   0.95415
 Alpha virt. eigenvalues --    0.95586   0.96136   0.96903   0.97474   0.98372
 Alpha virt. eigenvalues --    0.99106   0.99620   1.00073   1.01041   1.02047
 Alpha virt. eigenvalues --    1.03386   1.04196   1.04448   1.04709   1.05239
 Alpha virt. eigenvalues --    1.06544   1.07985   1.08988   1.09499   1.09849
 Alpha virt. eigenvalues --    1.11583   1.12385   1.13161   1.13460   1.13739
 Alpha virt. eigenvalues --    1.14089   1.15712   1.15914   1.17178   1.17560
 Alpha virt. eigenvalues --    1.18044   1.19390   1.19664   1.20370   1.21190
 Alpha virt. eigenvalues --    1.21349   1.21949   1.22228   1.22402   1.23529
 Alpha virt. eigenvalues --    1.23839   1.24804   1.25354   1.25685   1.26801
 Alpha virt. eigenvalues --    1.26944   1.27120   1.27901   1.28970   1.29436
 Alpha virt. eigenvalues --    1.30331   1.31119   1.31383   1.32677   1.33015
 Alpha virt. eigenvalues --    1.33675   1.33914   1.34806   1.36201   1.37166
 Alpha virt. eigenvalues --    1.38527   1.38689   1.40473   1.40564   1.41384
 Alpha virt. eigenvalues --    1.43168   1.45847   1.46560   1.46653   1.47392
 Alpha virt. eigenvalues --    1.48431   1.50507   1.52227   1.54187   1.56007
 Alpha virt. eigenvalues --    1.58352   1.60307   1.60765   1.61865   1.64378
 Alpha virt. eigenvalues --    1.65955   1.67397   1.69283   1.69788   1.72454
 Alpha virt. eigenvalues --    1.73397   1.75892   1.77004   1.79323   1.82879
 Alpha virt. eigenvalues --    1.84780   1.86051   1.88777   1.90089   1.90411
 Alpha virt. eigenvalues --    1.94172   1.96135   1.97634   1.98112   2.01586
 Alpha virt. eigenvalues --    2.01876   2.03050   2.03911   2.06541   2.07356
 Alpha virt. eigenvalues --    2.08340   2.09708   2.12815   2.15210   2.15945
 Alpha virt. eigenvalues --    2.17019   2.18355   2.18952   2.20443   2.22060
 Alpha virt. eigenvalues --    2.23546   2.24138   2.27472   2.27759   2.29340
 Alpha virt. eigenvalues --    2.32025   2.34081   2.35094   2.37938   2.38852
 Alpha virt. eigenvalues --    2.39473   2.40547   2.41457   2.43151   2.43487
 Alpha virt. eigenvalues --    2.45285   2.46123   2.47260   2.47313   2.49101
 Alpha virt. eigenvalues --    2.50654   2.51972   2.52971   2.53917   2.54966
 Alpha virt. eigenvalues --    2.55629   2.58036   2.58915   2.60001   2.62040
 Alpha virt. eigenvalues --    2.65374   2.66690   2.67311   2.69102   2.69648
 Alpha virt. eigenvalues --    2.70654   2.71013   2.71741   2.72066   2.73123
 Alpha virt. eigenvalues --    2.73738   2.75053   2.75575   2.77891   2.77941
 Alpha virt. eigenvalues --    2.79106   2.79854   2.80999   2.81097   2.82087
 Alpha virt. eigenvalues --    2.82659   2.83783   2.85868   2.86488   2.87126
 Alpha virt. eigenvalues --    2.88293   2.88900   2.89759   2.90473   2.90876
 Alpha virt. eigenvalues --    2.92134   2.92383   2.92975   2.94504   2.94759
 Alpha virt. eigenvalues --    2.95841   2.96833   2.98296   2.98444   2.98653
 Alpha virt. eigenvalues --    2.99099   3.00420   3.01132   3.02337   3.02441
 Alpha virt. eigenvalues --    3.03222   3.03709   3.05527   3.06341   3.06908
 Alpha virt. eigenvalues --    3.07465   3.08619   3.09026   3.09728   3.10505
 Alpha virt. eigenvalues --    3.10793   3.11572   3.12274   3.13666   3.14986
 Alpha virt. eigenvalues --    3.15893   3.18008   3.18470   3.18994   3.19505
 Alpha virt. eigenvalues --    3.20313   3.21356   3.22102   3.23015   3.23912
 Alpha virt. eigenvalues --    3.24833   3.25928   3.26818   3.27266   3.28648
 Alpha virt. eigenvalues --    3.28972   3.29468   3.29625   3.30205   3.31326
 Alpha virt. eigenvalues --    3.32049   3.33075   3.33517   3.35280   3.35377
 Alpha virt. eigenvalues --    3.36463   3.36933   3.37477   3.38299   3.40700
 Alpha virt. eigenvalues --    3.41179   3.41530   3.41705   3.42488   3.43823
 Alpha virt. eigenvalues --    3.44824   3.45077   3.45275   3.45996   3.47573
 Alpha virt. eigenvalues --    3.49565   3.50168   3.50683   3.51072   3.51804
 Alpha virt. eigenvalues --    3.54385   3.55975   3.56430   3.58088   3.59128
 Alpha virt. eigenvalues --    3.61905   3.62335   3.64001   3.64519   3.65441
 Alpha virt. eigenvalues --    3.65729   3.68044   3.69672   3.70798   3.71681
 Alpha virt. eigenvalues --    3.72274   3.72626   3.73654   3.73975   3.75061
 Alpha virt. eigenvalues --    3.76049   3.77047   3.78589   3.79172   3.80123
 Alpha virt. eigenvalues --    3.80815   3.82289   3.83936   3.84294   3.84906
 Alpha virt. eigenvalues --    3.85987   3.87424   3.88114   3.88903   3.89804
 Alpha virt. eigenvalues --    3.91204   3.92182   3.92748   3.94011   3.95720
 Alpha virt. eigenvalues --    3.96778   3.97535   3.98100   3.99394   3.99810
 Alpha virt. eigenvalues --    4.01638   4.02454   4.02732   4.04206   4.04733
 Alpha virt. eigenvalues --    4.06240   4.06823   4.07120   4.07971   4.09729
 Alpha virt. eigenvalues --    4.11650   4.12429   4.13168   4.13317   4.14936
 Alpha virt. eigenvalues --    4.15658   4.16642   4.17912   4.19331   4.19582
 Alpha virt. eigenvalues --    4.20036   4.22054   4.22322   4.23415   4.24591
 Alpha virt. eigenvalues --    4.25547   4.26032   4.27549   4.28728   4.29342
 Alpha virt. eigenvalues --    4.29882   4.31472   4.32445   4.34428   4.35266
 Alpha virt. eigenvalues --    4.37135   4.38152   4.39378   4.41133   4.43538
 Alpha virt. eigenvalues --    4.44241   4.44965   4.45722   4.47007   4.49799
 Alpha virt. eigenvalues --    4.51543   4.52815   4.53144   4.55694   4.56818
 Alpha virt. eigenvalues --    4.58143   4.58484   4.59704   4.60722   4.60990
 Alpha virt. eigenvalues --    4.61998   4.63012   4.64424   4.65156   4.66123
 Alpha virt. eigenvalues --    4.66685   4.67967   4.69692   4.70362   4.71616
 Alpha virt. eigenvalues --    4.72847   4.73309   4.75042   4.76098   4.78360
 Alpha virt. eigenvalues --    4.78532   4.79812   4.80245   4.81402   4.82047
 Alpha virt. eigenvalues --    4.85068   4.86935   4.88029   4.89553   4.91309
 Alpha virt. eigenvalues --    4.92605   4.93076   4.94545   4.95200   4.97351
 Alpha virt. eigenvalues --    4.98534   4.98585   4.99834   5.00788   5.02568
 Alpha virt. eigenvalues --    5.03481   5.03939   5.06962   5.08729   5.10696
 Alpha virt. eigenvalues --    5.10888   5.11301   5.12864   5.14099   5.15090
 Alpha virt. eigenvalues --    5.15946   5.16351   5.18569   5.19243   5.20901
 Alpha virt. eigenvalues --    5.22197   5.22568   5.23404   5.24023   5.25313
 Alpha virt. eigenvalues --    5.25618   5.26436   5.29073   5.29587   5.31578
 Alpha virt. eigenvalues --    5.32295   5.35925   5.37096   5.37708   5.39882
 Alpha virt. eigenvalues --    5.41158   5.41945   5.44230   5.47375   5.50473
 Alpha virt. eigenvalues --    5.52055   5.54375   5.56837   5.58081   5.59825
 Alpha virt. eigenvalues --    5.60928   5.61668   5.63122   5.65167   5.66169
 Alpha virt. eigenvalues --    5.66903   5.68748   5.69365   5.71346   5.73221
 Alpha virt. eigenvalues --    5.75113   5.75838   5.77027   5.78386   5.79594
 Alpha virt. eigenvalues --    5.81462   5.82131   5.83700   5.85178   5.87907
 Alpha virt. eigenvalues --    5.89967   5.94182   5.96662   6.03057   6.04329
 Alpha virt. eigenvalues --    6.12286   6.19187   6.20002   6.23717   6.28767
 Alpha virt. eigenvalues --    6.51422   6.53140   6.58260   6.61107   6.64544
 Alpha virt. eigenvalues --    6.65859   6.76864   6.83071   6.90679   6.92315
 Alpha virt. eigenvalues --    6.93665   6.95468   7.19059   7.19285   7.23562
 Alpha virt. eigenvalues --    7.28432   8.13905   8.26511   8.65924   8.73467
 Alpha virt. eigenvalues --    8.77819   8.78581   8.80887   8.82754   8.84043
 Alpha virt. eigenvalues --    8.84576   8.86301   8.88892   8.89503   8.91316
 Alpha virt. eigenvalues --    8.93567   8.94951   8.96006   8.97253   9.01923
 Alpha virt. eigenvalues --    9.04686   9.07297   9.13238   9.16664   9.17811
 Alpha virt. eigenvalues --    9.22904   9.60309   9.62155   9.77325   9.83582
 Alpha virt. eigenvalues --    9.90831   9.94867  10.09442  10.11215  10.15203
 Alpha virt. eigenvalues --   10.17992  10.20229  10.21234  10.22168  10.24767
 Alpha virt. eigenvalues --   10.27117  10.28181  10.31154  10.32873  10.34768
 Alpha virt. eigenvalues --   10.38699  11.75759  11.83438  12.04308  12.14345
 Alpha virt. eigenvalues --   12.15704  12.18855  12.24372  12.25033  12.27602
 Alpha virt. eigenvalues --   12.39137  12.48596  12.56562  12.60090  12.83871
 Alpha virt. eigenvalues --   12.93821  14.97270  15.02783  15.24285  15.27709
 Alpha virt. eigenvalues --   15.99944  16.04455  16.83225  16.92766  22.01379
 Alpha virt. eigenvalues --   22.08885  40.17654  40.25297  40.66687  40.66871
 Alpha virt. eigenvalues --   40.68854  40.71970  40.73064  40.74631  40.77222
 Alpha virt. eigenvalues --   40.77773  40.79334  40.80676  40.81077  40.82053
 Alpha virt. eigenvalues --   40.82916  40.84224  40.84302  40.85873  40.86244
 Alpha virt. eigenvalues --   40.87484  40.88182  40.89447  40.90420  40.90740
 Alpha virt. eigenvalues --   40.91229  40.93508  40.94650  46.34525  46.45100
 Alpha virt. eigenvalues --   46.47920  46.51062  46.56773  46.57217  46.60204
 Alpha virt. eigenvalues --   46.72153  46.81389  54.46230  54.50753  55.78762
 Alpha virt. eigenvalues --   55.84552  55.90917  55.97850  56.06118  56.08186
 Alpha virt. eigenvalues --   56.18621  56.19527  56.23651  56.30655  56.37231
 Alpha virt. eigenvalues --   56.42682  56.47493  56.52138  56.54770  56.69823
 Alpha virt. eigenvalues --   57.46618  57.51573  57.99464  58.03229  58.19421
 Alpha virt. eigenvalues --   58.26288  64.70382  64.79139  73.94454  73.97482
 Alpha virt. eigenvalues --   74.10020  74.11621  74.64174  74.66323  86.07215
 Alpha virt. eigenvalues --   86.13791 165.43791 165.52910 165.56747 165.59563
 Alpha virt. eigenvalues --  165.64725 165.64912 165.67318 165.77487 165.86211
 Alpha virt. eigenvalues --  226.60935 226.71719 230.57671 230.65591 235.73079
 Alpha virt. eigenvalues --  235.84494 235.85738 236.14392 236.30748 236.50113
 Alpha virt. eigenvalues --  236.54877 237.19705 237.48925 237.66932 237.76964
 Alpha virt. eigenvalues --  238.00900 238.08061 238.15665 238.20923 239.10084
 Alpha virt. eigenvalues --  308.80814 308.86631 624.55216 624.60812 624.63761
 Alpha virt. eigenvalues --  624.66836 624.70145 624.70455 624.72907 624.81574
 Alpha virt. eigenvalues --  624.88422 794.39943 794.56591 826.49972 826.56084
 Alpha virt. eigenvalues --  826.77966 827.22822 827.24874 827.86802 827.97838
 Alpha virt. eigenvalues --  830.54462 831.32761 831.67400 832.07458 832.81090
 Alpha virt. eigenvalues --  832.87757 833.01312 833.61721 835.85253 868.33435
 Alpha virt. eigenvalues --  868.414261165.935591165.990342485.729162486.08486
 Alpha virt. eigenvalues -- 2589.903642590.337632590.585552592.255992595.16943
 Alpha virt. eigenvalues -- 2596.238212597.689902602.323712605.309332606.67961
 Alpha virt. eigenvalues -- 2607.699442607.881042608.737102609.618052610.16492
 Alpha virt. eigenvalues -- 2618.784682740.326892740.338642740.376792740.41407
 Alpha virt. eigenvalues -- 2740.434242740.471152740.516912740.556342740.58514
 Alpha virt. eigenvalues -- 3787.309683787.389865073.317135073.367398289.73670
 Alpha virt. eigenvalues -- 8295.403108623.315758633.005128633.961528634.66741
 Alpha virt. eigenvalues -- 8638.180268638.608408639.446908662.852788670.10765
 Alpha virt. eigenvalues -- 8672.135618676.097418680.616848682.070758682.45081
 Alpha virt. eigenvalues -- 8687.762528706.57543******************************
 Alpha virt. eigenvalues -- **************************************************
 Alpha virt. eigenvalues -- **************************************************
 Alpha virt. eigenvalues -- **************************************************
 Alpha virt. eigenvalues -- **************************************************
 Alpha virt. eigenvalues -- **************************************************
 Alpha virt. eigenvalues -- **************************************************
 Alpha virt. eigenvalues -- **************************************************
 Alpha virt. eigenvalues -- **********
          Condensed to atoms (all electrons):
               1          2          3          4          5          6
     1  C    4.592638   0.186047  -0.046533  -0.000474   0.000015  -0.000023
     2  C    0.186047   5.360783   0.372991   0.006979  -0.000410   0.000503
     3  H   -0.046533   0.372991   0.486591  -0.000304   0.000022   0.000002
     4  C   -0.000474   0.006979  -0.000304   4.970841   0.405189   0.404270
     5  H    0.000015  -0.000410   0.000022   0.405189   0.538237  -0.011690
     6  H   -0.000023   0.000503   0.000002   0.404270  -0.011690   0.546905
     7  H    0.000189  -0.001657  -0.000090   0.401749  -0.019845  -0.023362
     8  O    0.707944  -0.107138   0.003796  -0.000088   0.000001   0.000001
     9  N   -0.057193   0.298514  -0.033870  -0.000753   0.000003   0.000005
    10  H    0.002289  -0.044258   0.003215  -0.000757   0.000058  -0.000015
    11  N    0.351271  -0.130458   0.006106   0.000447   0.000005  -0.000017
    12  H   -0.024841   0.009470  -0.000541  -0.000015  -0.000001   0.000001
    13  C   -0.051451   0.010855  -0.001141  -0.000004   0.000000   0.000000
    14  H   -0.005499   0.002107   0.000062  -0.000021   0.000000   0.000000
    15  H   -0.002808  -0.001024  -0.000236   0.000002   0.000000   0.000000
    16  H    0.007170   0.000655  -0.000108   0.000000   0.000000   0.000000
    17  C   -0.004651  -0.054426   0.004662  -0.000038  -0.000002   0.000003
    18  C   -0.004912   0.018493   0.002740   0.000008   0.000000   0.000000
    19  H    0.000401  -0.000552  -0.000389  -0.000008   0.000000   0.000000
    20  H   -0.000068  -0.000615   0.000157   0.000001   0.000000   0.000000
    21  H    0.000625  -0.000648  -0.000191   0.000000   0.000000   0.000000
    22  O   -0.010256   0.017253   0.023459   0.000000   0.000000   0.000000
[...]
 Alpha virt. eigenvalues --    4.37394   4.40309   4.41192   4.42356   4.43240
 Alpha virt. eigenvalues --    4.44592   4.47442   4.48001   4.51916   4.52289
 Alpha virt. eigenvalues --    4.54334   4.55375   4.56921   4.58390   4.59017
 Alpha virt. eigenvalues --    4.61126   4.64514   4.65979   4.67507   4.68213
 Alpha virt. eigenvalues --    4.68936   4.69693   4.70354   4.70991   4.72473
 Alpha virt. eigenvalues --    4.73805   4.75534   4.76302   4.77811   4.78676
 Alpha virt. eigenvalues --    4.80725   4.81408   4.81539   4.82695   4.83932
 Alpha virt. eigenvalues --    4.84450   4.85969   4.86884   4.88959   4.90630
 Alpha virt. eigenvalues --    4.91011   4.94152   4.95430   4.95782   4.96279
 Alpha virt. eigenvalues --    4.97864   4.98050   4.99557   5.00188   5.01848
 Alpha virt. eigenvalues --    5.02492   5.04543   5.04706   5.05018   5.06587
 Alpha virt. eigenvalues --    5.08888   5.09824   5.10586   5.11027   5.12632
 Alpha virt. eigenvalues --    5.13788   5.15684   5.16028   5.16752   5.17336
 Alpha virt. eigenvalues --    5.18436   5.19277   5.20609   5.20985   5.22512
 Alpha virt. eigenvalues --    5.24005   5.25360   5.26511   5.27592   5.28633
 Alpha virt. eigenvalues --    5.28867   5.29208   5.30846   5.33369   5.33491
 Alpha virt. eigenvalues --    5.34252   5.35412   5.37524   5.38619   5.41640
 Alpha virt. eigenvalues --    5.43085   5.47142   5.49404   5.50992   5.55422
 Alpha virt. eigenvalues --    5.59085   5.59799   5.61403   5.63847   5.69658
 Alpha virt. eigenvalues --    5.72102   5.75447   5.77213   5.78790   5.79027
 Alpha virt. eigenvalues --    5.81222   5.81520   5.82576   5.84561   5.86806
 Alpha virt. eigenvalues --    5.88275   5.88636   5.91629   5.96041   5.97863
 Alpha virt. eigenvalues --    5.98906   6.02171   6.04432   6.06372   6.08771
 Alpha virt. eigenvalues --    6.22507   6.26651   6.35877   6.40390   6.50754
 Alpha virt. eigenvalues --    6.51558   6.53396   6.57380   6.67051   6.69272
 Alpha virt. eigenvalues --    6.88190   6.90080   6.92631   6.96372   7.09944
 Alpha virt. eigenvalues --    7.14363   7.16425   7.17390   9.49761  10.02908
 Alpha virt. eigenvalues --   11.52740  12.15328  12.43608  12.57494  12.91733
 Alpha virt. eigenvalues --   13.33832  13.53544  13.62556  13.73517  13.76582
 Alpha virt. eigenvalues --   13.94565
          Condensed to atoms (all electrons):
               1          2          3          4          5          6
     1  C    4.741518   0.154474  -0.054984  -0.000284   0.000020  -0.000030
     2  C    0.154474   5.466529   0.417721   0.006859  -0.000396   0.000804
     3  H   -0.054984   0.417721   0.454112  -0.000221   0.000017  -0.000005
     4  C   -0.000284   0.006859  -0.000221   5.116707   0.407588   0.402977
     5  H    0.000020  -0.000396   0.000017   0.407588   0.530339  -0.017223
     6  H   -0.000030   0.000804  -0.000005   0.402977  -0.017223   0.541310
     7  H    0.000126  -0.001659  -0.000076   0.401617  -0.026748  -0.029786
     8  O    0.701217  -0.096891   0.001855  -0.000076   0.000000   0.000001
     9  N   -0.060669   0.252998  -0.038141  -0.000872   0.000003   0.000007
    10  H    0.003225  -0.040824   0.001501  -0.000663   0.000050  -0.000032
    11  N    0.360930  -0.099834   0.002049   0.000394   0.000006  -0.000016
    12  H   -0.021274   0.004334  -0.001206  -0.000029   0.000000   0.000003
    13  C   -0.066144   0.010689  -0.000963  -0.000005   0.000000   0.000000
    14  H   -0.005220   0.001947   0.000060  -0.000020   0.000000   0.000000
    15  H   -0.003428  -0.001071  -0.000222   0.000002   0.000000   0.000000
    16  H    0.007238   0.000678  -0.000077   0.000000   0.000000   0.000000
    17  C   -0.004516  -0.067054   0.002635  -0.000027  -0.000002   0.000003
    18  C   -0.003627   0.014471   0.002472   0.000005   0.000000   0.000000
    19  H    0.000197   0.000412  -0.000358  -0.000007   0.000000   0.000000
    20  H   -0.000103  -0.000551   0.000151   0.000001   0.000000   0.000000
    21  H    0.000598  -0.000650  -0.000175   0.000000   0.000000   0.000000
    22  O   -0.006142   0.014320   0.022258   0.000000   0.000000   0.000000
    23  C   -0.006818  -0.014132   0.003166   0.281052  -0.037159  -0.036484
    24  H    0.002468  -0.004680  -0.000491  -0.020168  -0.005495  -0.005923
    25  C   -0.003851  -0.004734   0.000454  -0.080513  -0.005503   0.008579
    26  H   -0.000202  -0.001847  -0.000168  -0.008900  -0.000686   0.000027
    27  H    0.001039  -0.000739   0.000639   0.004935  -0.000003  -0.000235
    28  H   -0.000310  -0.000992   0.000100  -0.007757   0.004208  -0.000158
    29  C   -0.029308   0.209766  -0.024494  -0.065492   0.010219  -0.001018
    30  H    0.009235  -0.043041  -0.009194  -0.004495   0.000686  -0.001924
    31  H    0.003296  -0.038063  -0.009078  -0.001712  -0.000467   0.001141
               7          8          9         10         11         12
     1  C    0.000126   0.701217  -0.060669   0.003225   0.360930  -0.021274
     2  C   -0.001659  -0.096891   0.252998  -0.040824  -0.099834   0.004334
     3  H   -0.000076   0.001855  -0.038141   0.001501   0.002049  -0.001206
     4  C    0.401617  -0.000076  -0.000872  -0.000663   0.000394  -0.000029
     5  H   -0.026748   0.000000   0.000003   0.000050   0.000006   0.000000
     6  H   -0.029786   0.000001   0.000007  -0.000032  -0.000016   0.000003
     7  H    0.554422  -0.000002   0.000211   0.000765  -0.000013  -0.000004
     8  O   -0.000002   7.850031   0.005611  -0.000302  -0.120010   0.004837
     9  N    0.000211   0.005611   6.545842   0.393097   0.005828   0.000555
    10  H    0.000765  -0.000302   0.393097   0.486673  -0.000172  -0.000049
    11  N   -0.000013  -0.120010   0.005828  -0.000172   6.432336   0.379927
    12  H   -0.000004   0.004837   0.000555  -0.000049   0.379927   0.531743
    13  C    0.000001   0.005893  -0.000303   0.000025   0.299005  -0.032875
    14  H    0.000000   0.006042  -0.000023  -0.000004  -0.048284   0.004893
    15  H    0.000000   0.004094  -0.000046   0.000005  -0.046850   0.000751
    16  H    0.000000   0.001427   0.000006  -0.000001  -0.027467  -0.008310
    17  C    0.000005   0.014915   0.335994  -0.019894   0.000374  -0.000120
    18  C   -0.000002  -0.000340  -0.063406  -0.002689  -0.000043   0.000001
    19  H   -0.000006   0.000017   0.012720  -0.001592   0.000009   0.000001
    20  H   -0.000002   0.000041  -0.000590  -0.000169   0.000003   0.000000
    21  H    0.000001   0.000248  -0.001008   0.000506   0.000000  -0.000001
    22  O    0.000000  -0.003374  -0.136563   0.004287  -0.001630  -0.000089
    23  C   -0.042183  -0.001269   0.000491  -0.001248   0.001229  -0.000941
    24  H    0.007267  -0.000678  -0.000233   0.000313   0.004478  -0.000042
    25  C   -0.006940  -0.008112  -0.000781   0.002162  -0.001861   0.000415
    26  H    0.004233  -0.000540  -0.004730   0.002794  -0.000060   0.000005
    27  H   -0.000070   0.019129   0.000030  -0.001972  -0.000679  -0.000161
    28  H   -0.000370   0.000424   0.000871   0.000296   0.000039  -0.000004
    29  C   -0.007548   0.001678  -0.058381   0.001896   0.005388   0.003746
    30  H    0.002775  -0.000439   0.002431   0.001987   0.000299  -0.000172
    31  H    0.000571  -0.000130   0.004274   0.000380  -0.006761   0.003051
              13         14         15         16         17         18
     1  C   -0.066144  -0.005220  -0.003428   0.007238  -0.004516  -0.003627
     2  C    0.010689   0.001947  -0.001071   0.000678  -0.067054   0.014471
     3  H   -0.000963   0.000060  -0.000222  -0.000077   0.002635   0.002472
     4  C   -0.000005  -0.000020   0.000002   0.000000  -0.000027   0.000005
     5  H    0.000000   0.000000   0.000000   0.000000  -0.000002   0.000000
     6  H    0.000000   0.000000   0.000000   0.000000   0.000003   0.000000
     7  H    0.000001   0.000000   0.000000   0.000000   0.000005  -0.000002
     8  O    0.005893   0.006042   0.004094   0.001427   0.014915  -0.000340
     9  N   -0.000303  -0.000023  -0.000046   0.000006   0.335994  -0.063406
    10  H    0.000025  -0.000004   0.000005  -0.000001  -0.019894  -0.002689
    11  N    0.299005  -0.048284  -0.046850  -0.027467   0.000374  -0.000043
    12  H   -0.032875   0.004893   0.000751  -0.008310  -0.000120   0.000001
    13  C    4.764603   0.395850   0.401571   0.394530  -0.000164  -0.000006
    14  H    0.395850   0.613197  -0.055120  -0.027099  -0.000009   0.000000
    15  H    0.401571  -0.055120   0.610676  -0.028123   0.000028   0.000000
    16  H    0.394530  -0.027099  -0.028123   0.601947  -0.000004   0.000000
    17  C   -0.000164  -0.000009   0.000028  -0.000004   4.529847   0.278532
    18  C   -0.000006   0.000000   0.000000   0.000000   0.278532   5.001184
    19  H    0.000001   0.000000   0.000000   0.000000  -0.053962   0.391707
    20  H    0.000000   0.000000   0.000000   0.000000  -0.024103   0.382632
    21  H    0.000001   0.000000   0.000000   0.000000  -0.025621   0.390003
    22  O   -0.000130   0.000008   0.000033  -0.000002   0.720185  -0.070587
    23  C    0.000314  -0.000121   0.000035  -0.000005  -0.000688  -0.000140
    24  H    0.000058  -0.000354   0.000068  -0.000009  -0.000014  -0.000002
    25  C   -0.000095  -0.000058   0.000022   0.000003   0.000372   0.000010
    26  H    0.000002   0.000000   0.000000   0.000000   0.000121   0.000144
    27  H   -0.000079   0.000780  -0.000166  -0.000014   0.000795   0.000042
    28  H   -0.000016   0.000003  -0.000002  -0.000001   0.000026   0.000004
    29  C   -0.001392  -0.000499   0.000167  -0.000108   0.008376   0.000422
    30  H    0.000067  -0.000011   0.000012   0.000002  -0.000678  -0.000110
    31  H    0.000152   0.000017   0.000000   0.000046  -0.000181   0.000036
              19         20         21         22         23         24
     1  C    0.000197  -0.000103   0.000598  -0.006142  -0.006818   0.002468
     2  C    0.000412  -0.000551  -0.000650   0.014320  -0.014132  -0.004680
     3  H   -0.000358   0.000151  -0.000175   0.022258   0.003166  -0.000491
     4  C   -0.000007   0.000001   0.000000   0.000000   0.281052  -0.020168
     5  H    0.000000   0.000000   0.000000   0.000000  -0.037159  -0.005495
     6  H    0.000000   0.000000   0.000000   0.000000  -0.036484  -0.005923
     7  H   -0.000006  -0.000002   0.000001   0.000000  -0.042183   0.007267
     8  O    0.000017   0.000041   0.000248  -0.003374  -0.001269  -0.000678
     9  N    0.012720  -0.000590  -0.001008  -0.136563   0.000491  -0.000233
    10  H   -0.001592  -0.000169   0.000506   0.004287  -0.001248   0.000313
    11  N    0.000009   0.000003   0.000000  -0.001630   0.001229   0.004478
    12  H    0.000001   0.000000  -0.000001  -0.000089  -0.000941  -0.000042
    13  C    0.000001   0.000000   0.000001  -0.000130   0.000314   0.000058
    14  H    0.000000   0.000000   0.000000   0.000008  -0.000121  -0.000354
    15  H    0.000000   0.000000   0.000000   0.000033   0.000035   0.000068
    16  H    0.000000   0.000000   0.000000  -0.000002  -0.000005  -0.000009
    17  C   -0.053962  -0.024103  -0.025621   0.720185  -0.000688  -0.000014
    18  C    0.391707   0.382632   0.390003  -0.070587  -0.000140  -0.000002
    19  H    0.605372  -0.027273  -0.024652   0.004719   0.000107   0.000000
    20  H   -0.027273   0.579672  -0.025850   0.002262   0.000000   0.000000
    21  H   -0.024652  -0.025850   0.564063   0.001131   0.000009   0.000000
    22  O    0.004719   0.002262   0.001131   7.854825  -0.000120   0.000000
    23  C    0.000107   0.000000   0.000009  -0.000120   5.283169   0.413454
    24  H    0.000000   0.000000   0.000000   0.000000   0.413454   0.532033
    25  C    0.000052   0.000021  -0.000037  -0.000020   0.253479  -0.043399
    26  H    0.000132  -0.000010  -0.000016   0.000007  -0.045446   0.008440
    27  H   -0.000014   0.000006  -0.000006  -0.000024  -0.028171  -0.006725
    28  H   -0.000005   0.000001  -0.000003   0.000000  -0.029268  -0.008623
    29  C   -0.000321   0.000015  -0.000013   0.002424   0.200415  -0.041318
    30  H   -0.000022  -0.000045   0.000021  -0.000172  -0.052230   0.006373
    31  H   -0.000006  -0.000005   0.000000   0.000098  -0.048697  -0.008101
              25         26         27         28         29         30
     1  C   -0.003851  -0.000202   0.001039  -0.000310  -0.029308   0.009235
     2  C   -0.004734  -0.001847  -0.000739  -0.000992   0.209766  -0.043041
     3  H    0.000454  -0.000168   0.000639   0.000100  -0.024494  -0.009194
     4  C   -0.080513  -0.008900   0.004935  -0.007757  -0.065492  -0.004495
     5  H   -0.005503  -0.000686  -0.000003   0.004208   0.010219   0.000686
     6  H    0.008579   0.000027  -0.000235  -0.000158  -0.001018  -0.001924
     7  H   -0.006940   0.004233  -0.000070  -0.000370  -0.007548   0.002775
     8  O   -0.008112  -0.000540   0.019129   0.000424   0.001678  -0.000439
     9  N   -0.000781  -0.004730   0.000030   0.000871  -0.058381   0.002431
    10  H    0.002162   0.002794  -0.001972   0.000296   0.001896   0.001987
    11  N   -0.001861  -0.000060  -0.000679   0.000039   0.005388   0.000299
    12  H    0.000415   0.000005  -0.000161  -0.000004   0.003746  -0.000172
    13  C   -0.000095   0.000002  -0.000079  -0.000016  -0.001392   0.000067
    14  H   -0.000058   0.000000   0.000780   0.000003  -0.000499  -0.000011
    15  H    0.000022   0.000000  -0.000166  -0.000002   0.000167   0.000012
    16  H    0.000003   0.000000  -0.000014  -0.000001  -0.000108   0.000002
    17  C    0.000372   0.000121   0.000795   0.000026   0.008376  -0.000678
    18  C    0.000010   0.000144   0.000042   0.000004   0.000422  -0.000110
    19  H    0.000052   0.000132  -0.000014  -0.000005  -0.000321  -0.000022
    20  H    0.000021  -0.000010   0.000006   0.000001   0.000015  -0.000045
    21  H   -0.000037  -0.000016  -0.000006  -0.000003  -0.000013   0.000021
    22  O   -0.000020   0.000007  -0.000024   0.000000   0.002424  -0.000172
    23  C    0.253479  -0.045446  -0.028171  -0.029268   0.200415  -0.052230
    24  H   -0.043399   0.008440  -0.006725  -0.008623  -0.041318   0.006373
    25  C    5.246964   0.396828   0.395228   0.393970  -0.036030  -0.001385
    26  H    0.396828   0.555576  -0.025925  -0.030653   0.000045   0.001019
    27  H    0.395228  -0.025925   0.455800  -0.005785  -0.005140  -0.000508
    28  H    0.393970  -0.030653  -0.005785   0.529310   0.008360  -0.000582
    29  C   -0.036030   0.000045  -0.005140   0.008360   5.464531   0.408307
    30  H   -0.001385   0.001019  -0.000508  -0.000582   0.408307   0.462691
    31  H    0.007028  -0.000150  -0.000067  -0.000468   0.419275  -0.001219
              31
     1  C    0.003296
     2  C   -0.038063
     3  H   -0.009078
     4  C   -0.001712
     5  H   -0.000467
     6  H    0.001141
     7  H    0.000571
     8  O   -0.000130
     9  N    0.004274
    10  H    0.000380
    11  N   -0.006761
    12  H    0.003051
    13  C    0.000152
    14  H    0.000017
    15  H    0.000000
    16  H    0.000046
    17  C   -0.000181
    18  C    0.000036
    19  H   -0.000006
    20  H   -0.000005
    21  H    0.000000
    22  O    0.000098
    23  C   -0.048697
    24  H   -0.008101
    25  C    0.007028
    26  H   -0.000150
    27  H   -0.000067
    28  H   -0.000468
    29  C    0.419275
    30  H   -0.001219
    31  H    0.481336
 Mulliken charges:
               1
     1  C    0.281328
     2  C   -0.138843
     3  H    0.230662
     4  C   -0.430898
     5  H    0.140548
     6  H    0.137981
     7  H    0.143415
     8  O   -0.385296
     9  N   -0.195221
    10  H    0.169647
    11  N   -0.138612
    12  H    0.131015
    13  C   -0.170587
    14  H    0.114023
    15  H    0.117565
    16  H    0.085344
    17  C    0.304830
    18  C   -0.320714
    19  H    0.092771
    20  H    0.113895
    21  H    0.121450
    22  O   -0.407705
    23  C   -0.091802
    24  H    0.171303
    25  C   -0.512267
    26  H    0.149961
    27  H    0.198061
    28  H    0.147384
    29  C   -0.473966
    30  H    0.220323
    31  H    0.194404
 Sum of Mulliken charges =   0.00000
 Mulliken charges with hydrogens summed into heavy atoms:
               1
     1  C    0.281328
     2  C    0.091819
     4  C   -0.008954
     8  O   -0.385296
     9  N   -0.025574
    11  N   -0.007596
    13  C    0.146345
    17  C    0.304830
    18  C    0.007402
    22  O   -0.407705
    23  C    0.079502
    25  C   -0.016860
    29  C   -0.059240
 Electronic spatial extent (au):  <R**2>=           2889.1557
 Charge=              0.0000 electrons
 Dipole moment (field-independent basis, Debye):
    X=             -4.4228    Y=             -1.6666    Z=             -1.4824  Tot=              4.9534
 Quadrupole moment (field-independent basis, Debye-Ang):
   XX=            -85.1684   YY=            -71.0037   ZZ=            -81.7405
   XY=            -10.5229   XZ=              4.5494   YZ=             -5.0236
 Traceless Quadrupole moment (field-independent basis, Debye-Ang):
   XX=             -5.8642   YY=              8.3005   ZZ=             -2.4362
   XY=            -10.5229   XZ=              4.5494   YZ=             -5.0236
 Octapole moment (field-independent basis, Debye-Ang**2):
  XXX=             -9.5192  YYY=             36.5740  ZZZ=             -7.4398  XYY=             -2.0726
  XXY=            -13.8354  XXZ=             15.2162  XZZ=             -4.1376  YZZ=              2.9397
  YYZ=             -4.6121  XYZ=              2.9149
 Hexadecapole moment (field-independent basis, Debye-Ang**3):
 XXXX=          -1914.9179 YYYY=          -1448.4485 ZZZZ=           -403.5300 XXXY=            -71.0056
 XXXZ=             41.8043 YYYX=            -56.1306 YYYZ=            -10.1875 ZZZX=              1.5483
 ZZZY=            -10.6329 XXYY=           -552.6833 XXZZ=           -374.6508 YYZZ=           -326.8467
 XXYZ=             -1.1932 YYXZ=              1.4071 ZZXY=            -14.5411
 N-N= 8.756096766334D+02 E-N=-3.180882681771D+03  KE= 6.091130673379D+02
 Calculating spin-rotation constants.
 Leave Link  601 at Wed Jun 18 02:25:35 2014, MaxMem=  4294967296 cpu:        69.1
 (Enter /home/ztw1e12/g09/l9999.exe)

 Test job not archived.
 1\1\GINC-GREEN0746\SP\RM06\Gen\C9H18N2O2\ROOT\18-Jun-2014\0\\#P Geom=A
 llCheck Guess=TCheck SCRF=Check GenChk RM06/ChkBas NMR=ReadFC IOp(3/6=
 22)\\NMR spin-spin scan\\0,1\C,0,0.259388,1.278749,0.242375\C,0,0.1674
 3,0.09244,-0.719447\H,0,0.653007,0.434365,-1.639036\C,0,-3.202785,-1.7
 30122,-0.535416\H,0,-4.016546,-1.939849,0.161664\H,0,-3.64468,-1.48340
 5,-1.503709\H,0,-2.618887,-2.646595,-0.65967\O,0,0.791518,1.210114,1.3
 46149\N,0,0.921085,-1.041132,-0.244309\H,0,0.428829,-1.817002,0.169715
 \N,0,-0.268294,2.415789,-0.225268\H,0,-0.651048,2.432899,-1.156864\C,0
 ,-0.237583,3.639299,0.543665\H,0,-0.74462,3.513156,1.500218\H,0,0.7872
 9,3.95739,0.739245\H,0,-0.743039,4.419556,-0.017217\C,0,2.265452,-1.05
 6568,-0.24845\C,0,2.914387,-2.280387,0.309769\H,0,2.200979,-3.030572,0
 .643706\H,0,3.563837,-2.713717,-0.450387\H,0,3.54515,-1.987765,1.14910
 5\O,0,2.930077,-0.12261,-0.694918\C,0,-2.307846,-0.615445,-0.02135\H,0
 ,-2.916116,0.280115,0.14186\C,0,-1.763462,-1.040492,1.334612\H,0,-1.25
 2679,-2.006772,1.27536\H,0,-1.0802,-0.317131,1.778462\H,0,-2.594574,-1
 .174915,2.029961\C,0,-1.262168,-0.284516,-1.104447\H,0,-1.157149,-1.15
 5734,-1.76031\H,0,-1.661129,0.504153,-1.744732\\Version=EM64L-G09RevD.
 01\State=1-A\HF=-613.5755466\RMSD=9.481e-09\Dipole=-1.8214311,-0.28594
 62,-0.6312481\Quadrupole=-6.7813728,9.2376457,-2.4562729,-5.7125135,2.
 1142291,-3.31725\PG=C01 [X(C9H18N2O2)]\\@


 WAR ES EIN GOTT DER DIESE ZEICHEN SCHRIEB?
          - LUDWIG BOLTZMANN, QUOTING GOETHE, ABOUT MAXWELL'S EQUATIONS.
 Job cpu time:       2 days 13 hours 44 minutes 57.5 seconds.
 File lengths (MBytes):  RWF=   2456 Int=      0 D2E=      0 Chk=     48 Scr=      8
 Normal termination of Gaussian 09 at Wed Jun 18 02:25:35 2014.
