 Entering Gaussian System, Link 0=g09
 Input=scan_input_4.gjf
 Output=scan_input_4.log
 Initial command:
 /home/ztw1e12/g09/l1.exe "/home/ztw1e12/leucine_scan/leucine_chi2_scan/Gau-13430.inp" -scrdir="/home/ztw1e12/leucine_scan/leucine_chi2_scan/"
 Default is to use a total of   8 processors:
                                8 via shared-memory
                                1 via Linda
 Entering Link 1 = /home/ztw1e12/g09/l1.exe PID=     13431.
  
 Copyright (c) 1988,1990,1992,1993,1995,1998,2003,2009,2013,
            Gaussian, Inc.  All Rights Reserved.
  
 This is part of the Gaussian(R) 09 program.  It is based on
 the Gaussian(R) 03 system (copyright 2003, Gaussian, Inc.),
 the Gaussian(R) 98 system (copyright 1998, Gaussian, Inc.),
 the Gaussian(R) 94 system (copyright 1995, Gaussian, Inc.),
 the Gaussian 92(TM) system (copyright 1992, Gaussian, Inc.),
 the Gaussian 90(TM) system (copyright 1990, Gaussian, Inc.),
 the Gaussian 88(TM) system (copyright 1988, Gaussian, Inc.),
 the Gaussian 86(TM) system (copyright 1986, Carnegie Mellon
 University), and the Gaussian 82(TM) system (copyright 1983,
 Carnegie Mellon University). Gaussian is a federally registered
 trademark of Gaussian, Inc.
  
 This software contains proprietary and confidential information,
 including trade secrets, belonging to Gaussian, Inc.
  
 This software is provided under written license and may be
 used, copied, transmitted, or stored only in accord with that
 written license.
  
 The following legend is applicable only to US Government
 contracts under FAR:
  
                    RESTRICTED RIGHTS LEGEND
  
 Use, reproduction and disclosure by the US Government is
 subject to restrictions as set forth in subparagraphs (a)
 and (c) of the Commercial Computer Software - Restricted
 Rights clause in FAR 52.227-19.
  
 Gaussian, Inc.
 340 Quinnipiac St., Bldg. 40, Wallingford CT 06492
  
  
 ---------------------------------------------------------------
 Warning -- This program may not be used in any manner that
 competes with the business of Gaussian, Inc. or will provide
 assistance to any competitor of Gaussian, Inc.  The licensee
 of this program is prohibited from giving any competitor of
 Gaussian, Inc. access to this program.  By using this program,
 the user acknowledges that Gaussian, Inc. is engaged in the
 business of creating and licensing software in the field of
 computational chemistry and represents and warrants to the
 licensee that it is not a competitor of Gaussian, Inc. and that
 it will not use this program in any manner prohibited above.
 ---------------------------------------------------------------
  

 Cite this work as:
 Gaussian 09, Revision D.01,
 M. J. Frisch, G. W. Trucks, H. B. Schlegel, G. E. Scuseria, 
 M. A. Robb, J. R. Cheeseman, G. Scalmani, V. Barone, B. Mennucci, 
 G. A. Petersson, H. Nakatsuji, M. Caricato, X. Li, H. P. Hratchian, 
 A. F. Izmaylov, J. Bloino, G. Zheng, J. L. Sonnenberg, M. Hada, 
 M. Ehara, K. Toyota, R. Fukuda, J. Hasegawa, M. Ishida, T. Nakajima, 
 Y. Honda, O. Kitao, H. Nakai, T. Vreven, J. A. Montgomery, Jr., 
 J. E. Peralta, F. Ogliaro, M. Bearpark, J. J. Heyd, E. Brothers, 
 K. N. Kudin, V. N. Staroverov, T. Keith, R. Kobayashi, J. Normand, 
 K. Raghavachari, A. Rendell, J. C. Burant, S. S. Iyengar, J. Tomasi, 
 M. Cossi, N. Rega, J. M. Millam, M. Klene, J. E. Knox, J. B. Cross, 
 V. Bakken, C. Adamo, J. Jaramillo, R. Gomperts, R. E. Stratmann, 
 O. Yazyev, A. J. Austin, R. Cammi, C. Pomelli, J. W. Ochterski, 
 R. L. Martin, K. Morokuma, V. G. Zakrzewski, G. A. Voth, 
 P. Salvador, J. J. Dannenberg, S. Dapprich, A. D. Daniels, 
 O. Farkas, J. B. Foresman, J. V. Ortiz, J. Cioslowski, 
 and D. J. Fox, Gaussian, Inc., Wallingford CT, 2013.
 
 ******************************************
 Gaussian 09:  EM64L-G09RevD.01 24-Apr-2013
                17-Jun-2014 
 ******************************************
 %Mem=32GB
 %NProcShared=16
 Will use up to   16 processors via shared memory.
 Default route:  MaxDisk=100GB
 ----------------------------------------------------------------------
 #p nmr=(giao,mixed,spinspin) m06/cc-pvtz scf=tight integral=(grid=ultr
 afine)
 ----------------------------------------------------------------------
 1/38=1/1;
 2/12=2,17=6,18=5,40=1/2;
 3/5=16,6=1,10=1100000,11=2,16=1,25=1,30=1,74=-54,75=-5/1,2,8,3;
 4//1;
 5/5=2,32=2,38=5/2;
 8/6=1,10=90,11=11/1;
 10/13=100,45=16,47=3/2;
 6/7=2,8=2,9=2,10=2,28=1/1;
 99/9=1/99;
 Leave Link    1 at Tue Jun 17 15:29:05 2014, MaxMem=  4294967296 cpu:         7.3
 (Enter /home/ztw1e12/g09/l101.exe)
 ------------------
 NMR spin-spin scan
 ------------------
 Symbolic Z-matrix:
 Charge =  0 Multiplicity = 1
 C                     0.21017   1.26203   0.22966 
 C                     0.14545   0.06998  -0.72421 
 H                     0.60079   0.41196  -1.65863 
 C                    -3.34189  -1.59175  -0.50231 
 H                    -4.13727  -1.77654   0.22235 
 H                    -3.80243  -1.20485  -1.41472 
 H                    -2.87764  -2.55146  -0.74535 
 O                     0.57095   1.17251   1.39939 
 N                     0.93361  -1.03917  -0.25098 
 H                     0.47147  -1.84263   0.14355 
 N                    -0.16336   2.42472  -0.31603 
 H                    -0.43867   2.44335  -1.28512 
 C                    -0.19875   3.64824   0.45088 
 H                    -0.93037   3.59103   1.25783 
 H                     0.77615   3.86187   0.88923 
 H                    -0.4713    4.46756  -0.20718 
 C                     2.27567  -0.97708  -0.20619 
 C                     2.97843  -2.17139   0.34982 
 H                     2.30524  -2.99226   0.58793 
 H                     3.72295  -2.51052  -0.3695 
 H                     3.50919  -1.87168   1.2537 
 O                     2.89493   0.00777  -0.60696 
 C                    -2.29558  -0.6405    0.05351 
 H                    -2.77598   0.29778   0.35302 
 C                    -1.71204  -1.28037   1.30503 
 H                    -1.29722  -2.26924   1.08261 
 H                    -0.93885  -0.67847   1.78097 
 H                    -2.50627  -1.43663   2.03815 
 C                    -1.29022  -0.32646  -1.0638 
 H                    -1.19898  -1.21418  -1.70123 
 H                    -1.71255   0.44965  -1.70508 
 
 NAtoms=     31 NQM=       31 NQMF=       0 NMMI=      0 NMMIF=      0
                NMic=       0 NMicF=      0.
                    Isotopes and Nuclear Properties:
 (Nuclear quadrupole moments (NQMom) in fm**2, nuclear magnetic moments (NMagM)
  in nuclear magnetons)

  Atom         1           2           3           4           5           6           7           8           9          10
 IAtWgt=          12          12           1          12           1           1           1          16          14           1
 AtmWgt=  12.0000000  12.0000000   1.0078250  12.0000000   1.0078250   1.0078250   1.0078250  15.9949146  14.0030740   1.0078250
 NucSpn=           0           0           1           0           1           1           1           0           2           1
 AtZEff=   0.0000000   0.0000000   0.0000000   0.0000000   0.0000000   0.0000000   0.0000000   0.0000000   0.0000000   0.0000000
 NQMom=    0.0000000   0.0000000   0.0000000   0.0000000   0.0000000   0.0000000   0.0000000   0.0000000   2.0440000   0.0000000
 NMagM=    0.0000000   0.0000000   2.7928460   0.0000000   2.7928460   2.7928460   2.7928460   0.0000000   0.4037610   2.7928460
 AtZNuc=   6.0000000   6.0000000   1.0000000   6.0000000   1.0000000   1.0000000   1.0000000   8.0000000   7.0000000   1.0000000

  Atom        11          12          13          14          15          16          17          18          19          20
 IAtWgt=          14           1          12           1           1           1          12          12           1           1
 AtmWgt=  14.0030740   1.0078250  12.0000000   1.0078250   1.0078250   1.0078250  12.0000000  12.0000000   1.0078250   1.0078250
 NucSpn=           2           1           0           1           1           1           0           0           1           1
 AtZEff=   0.0000000   0.0000000   0.0000000   0.0000000   0.0000000   0.0000000   0.0000000   0.0000000   0.0000000   0.0000000
 NQMom=    2.0440000   0.0000000   0.0000000   0.0000000   0.0000000   0.0000000   0.0000000   0.0000000   0.0000000   0.0000000
 NMagM=    0.4037610   2.7928460   0.0000000   2.7928460   2.7928460   2.7928460   0.0000000   0.0000000   2.7928460   2.7928460
 AtZNuc=   7.0000000   1.0000000   6.0000000   1.0000000   1.0000000   1.0000000   6.0000000   6.0000000   1.0000000   1.0000000

  Atom        21          22          23          24          25          26          27          28          29          30
 IAtWgt=           1          16          12           1          12           1           1           1          12           1
 AtmWgt=   1.0078250  15.9949146  12.0000000   1.0078250  12.0000000   1.0078250   1.0078250   1.0078250  12.0000000   1.0078250
 NucSpn=           1           0           0           1           0           1           1           1           0           1
 AtZEff=   0.0000000   0.0000000   0.0000000   0.0000000   0.0000000   0.0000000   0.0000000   0.0000000   0.0000000   0.0000000
 NQMom=    0.0000000   0.0000000   0.0000000   0.0000000   0.0000000   0.0000000   0.0000000   0.0000000   0.0000000   0.0000000
 NMagM=    2.7928460   0.0000000   0.0000000   2.7928460   0.0000000   2.7928460   2.7928460   2.7928460   0.0000000   2.7928460
 AtZNuc=   1.0000000   8.0000000   6.0000000   1.0000000   6.0000000   1.0000000   1.0000000   1.0000000   6.0000000   1.0000000

  Atom        31
 IAtWgt=           1
 AtmWgt=   1.0078250
 NucSpn=           1
 AtZEff=   0.0000000
 NQMom=    0.0000000
 NMagM=    2.7928460
 AtZNuc=   1.0000000
 Leave Link  101 at Tue Jun 17 15:29:05 2014, MaxMem=  4294967296 cpu:         2.0
 (Enter /home/ztw1e12/g09/l202.exe)
                          Input orientation:                          
 ---------------------------------------------------------------------
 Center     Atomic      Atomic             Coordinates (Angstroms)
 Number     Number       Type             X           Y           Z
 ---------------------------------------------------------------------
      1          6           0        0.210171    1.262033    0.229656
      2          6           0        0.145447    0.069984   -0.724211
      3          1           0        0.600786    0.411963   -1.658629
      4          6           0       -3.341891   -1.591747   -0.502312
      5          1           0       -4.137268   -1.776539    0.222347
      6          1           0       -3.802430   -1.204846   -1.414720
      7          1           0       -2.877635   -2.551462   -0.745345
      8          8           0        0.570951    1.172509    1.399391
      9          7           0        0.933614   -1.039174   -0.250981
     10          1           0        0.471467   -1.842627    0.143548
     11          7           0       -0.163362    2.424720   -0.316026
     12          1           0       -0.438672    2.443353   -1.285116
     13          6           0       -0.198747    3.648235    0.450883
     14          1           0       -0.930374    3.591031    1.257825
     15          1           0        0.776150    3.861868    0.889229
     16          1           0       -0.471298    4.467561   -0.207184
     17          6           0        2.275673   -0.977078   -0.206191
     18          6           0        2.978433   -2.171390    0.349822
     19          1           0        2.305238   -2.992258    0.587928
     20          1           0        3.722951   -2.510519   -0.369495
     21          1           0        3.509194   -1.871675    1.253703
     22          8           0        2.894932    0.007773   -0.606956
     23          6           0       -2.295581   -0.640498    0.053506
     24          1           0       -2.775978    0.297776    0.353015
     25          6           0       -1.712043   -1.280374    1.305025
     26          1           0       -1.297223   -2.269238    1.082611
     27          1           0       -0.938846   -0.678466    1.780970
     28          1           0       -2.506272   -1.436626    2.038151
     29          6           0       -1.290224   -0.326457   -1.063796
     30          1           0       -1.198984   -1.214182   -1.701225
     31          1           0       -1.712554    0.449647   -1.705082
 ---------------------------------------------------------------------
                    Distance matrix (angstroms):
                    1          2          3          4          5
     1  C    0.000000
     2  C    1.528081   0.000000
     3  H    2.107325   1.094267   0.000000
     4  C    4.614865   3.869382   4.571283   0.000000
     5  H    5.304074   4.758914   5.547681   1.091743   0.000000
     6  H    4.989031   4.205678   4.697007   1.092830   1.766051
     7  H    5.002791   4.001431   4.659977   1.093459   1.767373
     8  O    1.227378   2.430288   3.151318   5.154408   5.678877
     9  N    2.459662   1.440620   2.048913   4.318385   5.146027
    10  H    3.116826   2.125412   2.889246   3.875793   4.609882
    11  N    1.337586   2.409722   2.537261   5.125403   5.807956
    12  H    2.027572   2.507726   2.312257   5.032245   5.810297
    13  C    2.431073   3.781957   3.944965   6.184282   6.707634
    14  H    2.789661   4.181343   4.577841   5.981194   6.337759
    15  H    2.741261   4.168856   4.292339   6.973992   7.508531
    16  H    3.306152   4.470612   4.438911   6.711380   7.253456
    17  C    3.077317   2.429516   2.616153   5.658845   6.476774
    18  C    4.412041   3.768702   4.044848   6.403797   7.127788
    19  H    4.755697   3.970357   4.420509   5.919470   6.566392
    20  H    5.189485   4.425308   4.466619   7.125572   7.916568
    21  H    4.663942   4.358552   4.706965   7.078087   7.716290
    22  O    3.079128   2.752687   2.555874   6.439517   7.302284
    23  C    3.151102   2.658617   3.525340   1.519399   2.170462
    24  H    3.140397   3.122023   3.932211   2.149916   2.484546
    25  C    3.363801   3.064561   4.122672   2.453533   2.701867
    26  H    3.933147   3.289052   4.278513   2.674255   3.008099
    27  H    2.737216   2.830512   3.923053   3.438326   3.723570
    28  H    4.234676   4.114867   5.170810   2.678857   2.464312
    29  C    2.539194   1.527624   2.115422   2.474987   3.444207
    30  H    3.441752   2.100270   2.425971   2.484351   3.556668
    31  H    2.846059   2.135046   2.314113   2.875532   3.814463
                    6          7          8          9         10
     6  H    0.000000
     7  H    1.765413   0.000000
     8  O    5.718173   5.510045   0.000000
     9  N    4.879739   4.130016   2.783306   0.000000
    10  H    4.593600   3.536815   3.267734   1.007358   0.000000
    11  N    5.255825   5.684539   2.247199   3.634027   4.338717
    12  H    4.963972   5.584628   3.137031   3.883375   4.608585
    13  C    6.326089   6.858837   2.760674   4.873054   5.540145
    14  H    6.196099   6.747943   2.850134   5.214379   5.721137
    15  H    7.207161   7.559946   2.745000   5.034390   5.761088
    16  H    6.688108   7.439540   3.811133   5.683294   6.389858
    17  C    6.201271   5.415344   3.178788   1.344241   2.031416
    18  C    7.073042   5.969705   4.251967   2.413330   2.536831
    19  H    6.671510   5.369738   4.583831   2.529754   2.209489
    20  H    7.708997   6.611405   5.160306   3.155836   3.358786
    21  H    7.811849   6.726804   4.233386   3.096893   3.234358
    22  O    6.854020   6.315961   3.283737   2.251574   3.140130
    23  C    2.178249   2.151449   3.649028   3.267928   3.018241
    24  H    2.536999   3.055305   3.614138   3.989150   3.895010
    25  C    3.431098   2.679232   3.352253   3.078771   2.536311
    26  H    3.694003   2.432853   3.928873   2.875441   2.047462
    27  H    4.323150   3.694494   2.418925   2.786582   2.454670
    28  H    3.695411   3.021361   4.084716   4.151013   3.552645
    29  C    2.684380   2.751714   3.431933   2.472668   2.619161
    30  H    2.619180   2.349445   4.294506   2.584920   2.566815
    31  H    2.681276   3.359340   3.921056   3.366482   3.666320
                   11         12         13         14         15
    11  N    0.000000
    12  H    1.007610   0.000000
    13  C    1.444434   2.126734   0.000000
    14  H    2.103710   2.832929   1.090736   0.000000
    15  H    2.097789   2.866314   1.090051   1.766760   0.000000
    16  H    2.068785   2.293561   1.085648   1.767854   1.767799
    17  C    4.187265   4.497899   5.286589   5.769723   5.183041
    18  C    5.607001   5.970384   6.631193   7.022018   6.445247
    19  H    6.021193   6.370495   7.098230   7.365979   7.029078
    20  H    6.281948   6.534395   7.347311   7.844139   7.132695
    21  H    5.866066   6.375791   6.697966   7.039243   6.362066
    22  O    3.908892   4.183882   4.893142   5.563282   4.645628
    23  C    3.752129   3.840593   4.790392   4.606518   5.514097
    24  H    3.434715   3.570710   4.228152   3.882070   5.060424
    25  C    4.330582   4.711311   5.225975   4.933946   5.727708
    26  H    5.027432   5.343384   6.051629   5.874354   6.475086
    27  H    3.824726   4.404181   4.586635   4.301437   4.934678
    28  H    5.093267   5.511199   5.805162   5.326321   6.337851
    29  C    3.065608   2.906195   4.391327   4.567946   5.062240
    30  H    4.029007   3.758827   5.410651   5.649619   6.031409
    31  H    2.868865   2.402917   4.143762   4.388498   4.956546
                   16         17         18         19         20
    16  H    0.000000
    17  C    6.098356   0.000000
    18  C    7.502438   1.493119   0.000000
    19  H    7.999391   2.166206   1.087984   0.000000
    20  H    8.143198   2.114881   1.089373   1.777257   0.000000
    21  H    7.626560   2.110253   1.090201   1.774394   1.757437
    22  O    5.601877   1.230458   2.381417   3.282632   2.661540
    23  C    5.430307   4.590979   5.499696   5.194605   6.316537
    24  H    4.797132   5.239956   6.261792   6.057909   7.116503
    25  C    6.071654   4.275236   4.868972   4.425305   5.818628
    26  H    6.908703   4.012016   4.339100   3.707451   5.231537
    27  H    5.536511   3.790925   4.429682   4.159455   5.450988
    28  H    6.636420   5.302382   5.785527   5.260586   6.764113
    29  C    4.938323   3.724838   4.860404   4.770957   5.512178
    30  H    5.919788   3.790064   4.751195   4.547675   5.261125
    31  H    4.464084   4.493125   5.753071   5.766043   6.331753
                   21         22         23         24         25
    21  H    0.000000
    22  O    2.715086   0.000000
    23  C    6.054063   5.272370   0.000000
    24  H    6.709780   5.758895   1.095831   0.000000
    25  C    5.254863   5.151622   1.521926   2.128107   0.000000
    26  H    4.825865   5.060986   2.169924   3.050998   1.095169
    27  H    4.635388   4.568475   2.196885   2.523323   1.089335
    28  H    6.081978   6.185134   2.148727   2.433223   1.092103
    29  C    5.549136   4.223262   1.535490   2.145806   2.588282
    30  H    5.597396   4.410300   2.147259   2.998805   3.050434
    31  H    6.435029   4.757106   2.149644   2.321572   3.471846
                   26         27         28         29         30
    26  H    0.000000
    27  H    1.773893   0.000000
    28  H    1.751599   1.760049   0.000000
    29  C    2.895084   2.887918   3.511883   0.000000
    30  H    2.978680   3.532753   3.967545   1.096675   0.000000
    31  H    3.916129   3.744839   4.266123   1.091764   1.741291
                   31
    31  H    0.000000
 Stoichiometry    C9H18N2O2
 Framework group  C1[X(C9H18N2O2)]
 Deg. of freedom    87
 Full point group                 C1      NOp   1
 Largest Abelian subgroup         C1      NOp   1
 Largest concise Abelian subgroup C1      NOp   1
                         Standard orientation:                         
 ---------------------------------------------------------------------
 Center     Atomic      Atomic             Coordinates (Angstroms)
 Number     Number       Type             X           Y           Z
 ---------------------------------------------------------------------
      1          6           0        0.141707    1.255267    0.143100
      2          6           0        0.115517    0.015051   -0.749206
      3          1           0        0.546733    0.327514   -1.705156
      4          6           0       -3.298816   -1.771900   -0.400995
      5          1           0       -4.078366   -1.951703    0.341888
      6          1           0       -3.784266   -1.450226   -1.325734
      7          1           0       -2.798482   -2.723248   -0.601628
      8          8           0        0.518091    1.239315    1.311234
      9          7           0        0.953075   -1.036364   -0.231124
     10          1           0        0.528161   -1.836810    0.208766
     11          7           0       -0.284521    2.373078   -0.455203
     12          1           0       -0.570519    2.331821   -1.420491
     13          6           0       -0.361594    3.631264    0.250076
     14          1           0       -1.081776    3.585485    1.067968
     15          1           0        0.608354    3.905627    0.664970
     16          1           0       -0.674141    4.404815   -0.444592
     17          6           0        2.291893   -0.918324   -0.206302
     18          6           0        3.048453   -2.053971    0.399772
     19          1           0        2.411743   -2.888138    0.686959
     20          1           0        3.798557   -2.398772   -0.310994
     21          1           0        3.576042   -1.688067    1.280851
     22          8           0        2.866336    0.069131   -0.663440
     23          6           0       -2.286290   -0.752671    0.093511
     24          1           0       -2.801286    0.179478    0.351817
     25          6           0       -1.664099   -1.304782    1.367995
     26          1           0       -1.211755   -2.286162    1.190028
     27          1           0       -0.911073   -0.649144    1.803588
     28          1           0       -2.443575   -1.455632    2.117896
     29          6           0       -1.306325   -0.455243   -1.050575
     30          1           0       -1.185746   -1.369574   -1.644003
     31          1           0       -1.766585    0.270014   -1.724452
 ---------------------------------------------------------------------
 Rotational constants (GHZ):      0.7980856      0.6472277      0.4248849
 Leave Link  202 at Tue Jun 17 15:29:05 2014, MaxMem=  4294967296 cpu:         4.8
 (Enter /home/ztw1e12/g09/l301.exe)
 Standard basis: CC-pVTZ (5D, 7F)
 Converting basis for Fermi contact spin-spin IFCMod=1.
 AO basis functions are being uncontracted.
 Ernie: Thresh=  0.10000D-02 Tol=  0.10000D-05 Strict=F.
 There are  1119 symmetry adapted cartesian basis functions of A   symmetry.
 There are  1036 symmetry adapted basis functions of A   symmetry.
  1036 basis functions,  1119 primitive gaussians,  1119 cartesian basis functions
    51 alpha electrons       51 beta electrons
       nuclear repulsion energy       876.2612187798 Hartrees.
 IExCor= 4235 DFT=T Ex+Corr=M06 ExCW=0 ScaHFX=  0.270000
 ScaDFX=  1.000000  1.000000  1.000000  1.000000 ScalE2=  1.000000  1.000000
 IRadAn= 199590 IRanWt=     -1 IRanGd=            0 ICorTp=0 IEmpDi=  4
 NAtoms=   31 NActive=   31 NUniq=   31 SFac= 1.00D+00 NAtFMM=   60 NAOKFM=F Big=F
 Integral buffers will be    131072 words long.
 Raffenetti 2 integral format.
 Two-electron integral symmetry is turned on.
 Leave Link  301 at Tue Jun 17 15:29:06 2014, MaxMem=  4294967296 cpu:         5.8
 (Enter /home/ztw1e12/g09/l302.exe)
 NPDir=0 NMtPBC=     1 NCelOv=     1 NCel=       1 NClECP=     1 NCelD=      1
         NCelK=      1 NCelE2=     1 NClLst=     1 CellRange=     0.0.
 One-electron integrals computed using PRISM.
 GSVD:  received Info=                   1 from GESDD.
 NBasis=  1036 RedAO= T EigKep=  1.24D-04  NBF=  1036
 NBsUse=   932 1.00D-06 EigRej=  4.95D-15 NBFU=   932
 Precomputing XC quadrature grid using
 IXCGrd= 4 IRadAn=      199590 IRanWt=          -1 IRanGd=           0 AccXCQ= 0.00D+00.
 Generated NRdTot=       0 NPtTot=           0 NUsed=           0 NTot=          32
 NSgBfM=   871   874   876   881   881 MxSgAt=    31 MxSgA2=    31.
 Leave Link  302 at Tue Jun 17 15:29:10 2014, MaxMem=  4294967296 cpu:        64.3
 (Enter /home/ztw1e12/g09/l308.exe)
 Leave Link  308 at Tue Jun 17 15:29:10 2014, MaxMem=  4294967296 cpu:         5.6
 (Enter /home/ztw1e12/g09/l303.exe)
 DipDrv:  MaxL=1.
 Leave Link  303 at Tue Jun 17 15:29:11 2014, MaxMem=  4294967296 cpu:         3.3
 (Enter /home/ztw1e12/g09/l401.exe)
 ExpMin= 1.03D-01 ExpMax= 1.38D+05 ExpMxC= 1.38D+05 IAcc=4 IRadAn=    199590 AccDes= 0.00D+00
 Harris functional with IExCor= 1009 and IRadAn=  199590 diagonalized for initial guess.
 HarFok:  IExCor= 1009 AccDes= 0.00D+00 IRadAn=    199590 IDoV= 1 UseB2=F ITyADJ=14
 ICtDFT=  3500011 ScaDFX=  1.000000  1.000000  1.000000  1.000000
 FoFCou: FMM=F IPFlag=           0 FMFlag=      100000 FMFlg1=           0
         NFxFlg=           0 DoJE=T BraDBF=F KetDBF=T FulRan=T
         wScrn=  0.000000 ICntrl=     500 IOpCl=  0 I1Cent=   200000004 NGrid=           0
         NMat0=    1 NMatS0=      1 NMatT0=    0 NMatD0=    1 NMtDS0=    0 NMtDT0=    0
 Petite list used in FoFCou.
 Harris En= -613.560661137194    
 JPrj=0 DoOrth=F DoCkMO=F.
 Leave Link  401 at Tue Jun 17 15:29:27 2014, MaxMem=  4294967296 cpu:       253.5
 (Enter /home/ztw1e12/g09/l502.exe)
 Closed shell SCF:
 Using DIIS extrapolation, IDIIS=  1040.
 Integral symmetry usage will be decided dynamically.
 IVT=     3801329 IEndB=     3801329 NGot=  4294967296 MDV=  4292435888
 LenX=  4292435888 LenY=  4291182608
 Requested convergence on RMS density matrix=1.00D-08 within 128 cycles.
 Requested convergence on MAX density matrix=1.00D-06.
 Requested convergence on             energy=1.00D-06.
 No special actions if energy rises.
 Fock matrices will be formed incrementally for  20 cycles.
 Integral accuracy reduced to 1.0D-05 until final iterations.

 Cycle   1  Pass 0  IDiag  1:
 FoFJK:  IHMeth= 1 ICntrl=       0 DoSepK=F KAlg= 0 I1Cent=   0 FoldK=F
 IRaf= 480000000 NMat=   1 IRICut=       1 DoRegI=T DoRafI=F ISym2E= 0.
 FoFCou: FMM=F IPFlag=           0 FMFlag=      100000 FMFlg1=           0
         NFxFlg=           0 DoJE=F BraDBF=F KetDBF=F FulRan=T
         wScrn=  0.000000 ICntrl=       0 IOpCl=  0 I1Cent=           0 NGrid=           0
         NMat0=    1 NMatS0=      1 NMatT0=    0 NMatD0=    1 NMtDS0=    0 NMtDT0=    0
 Symmetry not used in FoFCou.
 E= -613.182572323433    
 DIIS: error= 1.42D-01 at cycle   1 NSaved=   1.
 NSaved= 1 IEnMin= 1 EnMin= -613.182572323433     IErMin= 1 ErrMin= 1.42D-01
 ErrMax= 1.42D-01  0.00D+00 EMaxC= 1.00D-01 BMatC= 1.30D+01 BMatP= 1.30D+01
 IDIUse=3 WtCom= 0.00D+00 WtEn= 1.00D+00
 Coeff-Com:  0.100D+01
 Coeff-En:   0.100D+01
 Coeff:      0.100D+01
 Gap=     0.288 Goal=   None    Shift=    0.000
 GapD=    0.288 DampG=1.000 DampE=0.250 DampFc=0.2500 IDamp=-1.
 Damping current iteration by 2.50D-01
 RMSDP=2.08D-03 MaxDP=3.08D-01              OVMax= 2.84D-01

 Cycle   2  Pass 0  IDiag  1:
 RMSU=  5.19D-04    CP:  1.01D+00
 E= -613.338996305639     Delta-E=       -0.156423982206 Rises=F Damp=T
 DIIS: error= 1.07D-01 at cycle   2 NSaved=   2.
 NSaved= 2 IEnMin= 2 EnMin= -613.338996305639     IErMin= 2 ErrMin= 1.07D-01
 ErrMax= 1.07D-01  0.00D+00 EMaxC= 1.00D-01 BMatC= 7.66D+00 BMatP= 1.30D+01
 IDIUse=3 WtCom= 0.00D+00 WtEn= 1.00D+00
 Coeff-Com: -0.279D+01 0.379D+01
 Coeff-En:   0.000D+00 0.100D+01
 Coeff:      0.000D+00 0.100D+01
 Gap=     0.217 Goal=   None    Shift=    0.000
 RMSDP=5.79D-04 MaxDP=5.13D-02 DE=-1.56D-01 OVMax= 1.32D-01

 Cycle   3  Pass 0  IDiag  1:
 RMSU=  4.30D-04    CP:  1.02D+00  1.74D+00
 E= -613.527768752490     Delta-E=       -0.188772446850 Rises=F Damp=F
 DIIS: error= 1.28D-02 at cycle   3 NSaved=   3.
 NSaved= 3 IEnMin= 3 EnMin= -613.527768752490     IErMin= 3 ErrMin= 1.28D-02
 ErrMax= 1.28D-02  0.00D+00 EMaxC= 1.00D-01 BMatC= 2.31D-01 BMatP= 7.66D+00
 IDIUse=3 WtCom= 8.72D-01 WtEn= 1.28D-01
 Coeff-Com:  0.123D+01-0.168D+01 0.145D+01
 Coeff-En:   0.137D+00 0.000D+00 0.863D+00
 Coeff:      0.109D+01-0.146D+01 0.138D+01
 Gap=     0.246 Goal=   None    Shift=    0.000
 RMSDP=4.21D-04 MaxDP=3.53D-02 DE=-1.89D-01 OVMax= 6.39D-02

 Cycle   4  Pass 0  IDiag  1:
 RMSU=  2.73D-04    CP:  1.02D+00  1.18D+00  6.97D-01
 E= -613.541348092680     Delta-E=       -0.013579340190 Rises=F Damp=F
 DIIS: error= 7.81D-03 at cycle   4 NSaved=   4.
 NSaved= 4 IEnMin= 4 EnMin= -613.541348092680     IErMin= 4 ErrMin= 7.81D-03
 ErrMax= 7.81D-03  0.00D+00 EMaxC= 1.00D-01 BMatC= 1.05D-01 BMatP= 2.31D-01
 IDIUse=3 WtCom= 9.22D-01 WtEn= 7.81D-02
 Coeff-Com:  0.771D+00-0.106D+01 0.753D+00 0.536D+00
 Coeff-En:   0.000D+00 0.000D+00 0.450D+00 0.550D+00
 Coeff:      0.710D+00-0.977D+00 0.729D+00 0.537D+00
 Gap=     0.279 Goal=   None    Shift=    0.000
 RMSDP=2.74D-04 MaxDP=2.13D-02 DE=-1.36D-02 OVMax= 7.80D-02

 Cycle   5  Pass 0  IDiag  1:
 RMSU=  8.94D-05    CP:  1.02D+00  1.12D+00  8.49D-01  8.99D-02
 E= -613.613972777650     Delta-E=       -0.072624684970 Rises=F Damp=F
 DIIS: error= 3.04D-03 at cycle   5 NSaved=   5.
 NSaved= 5 IEnMin= 5 EnMin= -613.613972777650     IErMin= 5 ErrMin= 3.04D-03
 ErrMax= 3.04D-03  0.00D+00 EMaxC= 1.00D-01 BMatC= 1.43D-02 BMatP= 1.05D-01
 IDIUse=3 WtCom= 9.70D-01 WtEn= 3.04D-02
 Coeff-Com:  0.147D+00-0.209D+00 0.141D+00 0.273D+00 0.648D+00
 Coeff-En:   0.000D+00 0.000D+00 0.000D+00 0.806D-01 0.919D+00
 Coeff:      0.142D+00-0.202D+00 0.137D+00 0.267D+00 0.656D+00
 Gap=     0.268 Goal=   None    Shift=    0.000
 RMSDP=1.50D-04 MaxDP=1.69D-02 DE=-7.26D-02 OVMax= 2.96D-02

 Cycle   6  Pass 0  IDiag  1:
 RMSU=  7.93D-05    CP:  1.02D+00  1.16D+00  9.37D-01  4.62D-01  2.94D-01
 E= -613.621926850549     Delta-E=       -0.007954072898 Rises=F Damp=F
 DIIS: error= 9.32D-04 at cycle   6 NSaved=   6.
 NSaved= 6 IEnMin= 6 EnMin= -613.621926850549     IErMin= 6 ErrMin= 9.32D-04
 ErrMax= 9.32D-04  0.00D+00 EMaxC= 1.00D-01 BMatC= 1.10D-03 BMatP= 1.43D-02
 IDIUse=3 WtCom= 9.91D-01 WtEn= 9.32D-03
 Coeff-Com:  0.635D-01-0.862D-01 0.218D-01 0.429D-01 0.199D+00 0.758D+00
 Coeff-En:   0.000D+00 0.000D+00 0.000D+00 0.000D+00 0.157D-01 0.984D+00
 Coeff:      0.630D-01-0.854D-01 0.216D-01 0.425D-01 0.198D+00 0.761D+00
 Gap=     0.267 Goal=   None    Shift=    0.000
 RMSDP=3.16D-05 MaxDP=3.20D-03 DE=-7.95D-03 OVMax= 9.41D-03

 Cycle   7  Pass 0  IDiag  1:
 RMSU=  2.22D-05    CP:  1.02D+00  1.13D+00  9.41D-01  4.57D-01  4.06D-01
                    CP:  1.11D+00
 E= -613.622524045242     Delta-E=       -0.000597194693 Rises=F Damp=F
 DIIS: error= 4.35D-04 at cycle   7 NSaved=   7.
 NSaved= 7 IEnMin= 7 EnMin= -613.622524045242     IErMin= 7 ErrMin= 4.35D-04
 ErrMax= 4.35D-04  0.00D+00 EMaxC= 1.00D-01 BMatC= 2.55D-04 BMatP= 1.10D-03
 IDIUse=3 WtCom= 9.96D-01 WtEn= 4.35D-03
 Coeff-Com:  0.426D-01-0.571D-01 0.140D-01 0.689D-02 0.565D-01 0.426D+00
 Coeff-Com:  0.511D+00
 Coeff-En:   0.000D+00 0.000D+00 0.000D+00 0.000D+00 0.000D+00 0.120D+00
 Coeff-En:   0.880D+00
 Coeff:      0.424D-01-0.568D-01 0.140D-01 0.686D-02 0.562D-01 0.424D+00
 Coeff:      0.513D+00
 Gap=     0.267 Goal=   None    Shift=    0.000
 RMSDP=1.16D-05 MaxDP=9.90D-04 DE=-5.97D-04 OVMax= 3.13D-03

 Cycle   8  Pass 0  IDiag  1:
 RMSU=  7.07D-06    CP:  1.02D+00  1.12D+00  9.46D-01  4.68D-01  3.93D-01
                    CP:  1.17D+00  6.94D-01
 E= -613.622695604063     Delta-E=       -0.000171558821 Rises=F Damp=F
 DIIS: error= 1.45D-04 at cycle   8 NSaved=   8.
 NSaved= 8 IEnMin= 8 EnMin= -613.622695604063     IErMin= 8 ErrMin= 1.45D-04
 ErrMax= 1.45D-04  0.00D+00 EMaxC= 1.00D-01 BMatC= 2.93D-05 BMatP= 2.55D-04
 IDIUse=3 WtCom= 9.99D-01 WtEn= 1.45D-03
 Coeff-Com:  0.231D-01-0.309D-01 0.922D-02-0.376D-02 0.121D-02 0.169D+00
 Coeff-Com:  0.299D+00 0.533D+00
 Coeff-En:   0.000D+00 0.000D+00 0.000D+00 0.000D+00 0.000D+00 0.000D+00
 Coeff-En:   0.000D+00 0.100D+01
 Coeff:      0.231D-01-0.309D-01 0.920D-02-0.375D-02 0.121D-02 0.168D+00
 Coeff:      0.299D+00 0.534D+00
 Gap=     0.267 Goal=   None    Shift=    0.000
 RMSDP=5.82D-06 MaxDP=5.53D-04 DE=-1.72D-04 OVMax= 1.21D-03

 Initial convergence to 1.0D-05 achieved.  Increase integral accuracy.
 Cycle   9  Pass 1  IDiag  1:
 E= -613.622772880318     Delta-E=       -0.000077276255 Rises=F Damp=F
 DIIS: error= 7.50D-05 at cycle   1 NSaved=   1.
 NSaved= 1 IEnMin= 1 EnMin= -613.622772880318     IErMin= 1 ErrMin= 7.50D-05
 ErrMax= 7.50D-05  0.00D+00 EMaxC= 1.00D-01 BMatC= 1.22D-05 BMatP= 1.22D-05
 IDIUse=1 WtCom= 1.00D+00 WtEn= 0.00D+00
 Coeff-Com:  0.100D+01
 Coeff:      0.100D+01
 Gap=     0.268 Goal=   None    Shift=    0.000
 RMSDP=5.82D-06 MaxDP=5.53D-04 DE=-7.73D-05 OVMax= 1.43D-03

 Cycle  10  Pass 1  IDiag  1:
 RMSU=  2.44D-05    CP:  1.00D+00
 E= -613.622769428665     Delta-E=        0.000003451654 Rises=F Damp=F
 DIIS: error= 1.18D-04 at cycle   2 NSaved=   2.
 NSaved= 2 IEnMin= 1 EnMin= -613.622772880318     IErMin= 1 ErrMin= 7.50D-05
 ErrMax= 1.18D-04  0.00D+00 EMaxC= 1.00D-01 BMatC= 1.42D-05 BMatP= 1.22D-05
 IDIUse=3 WtCom= 4.79D-01 WtEn= 5.21D-01
 Coeff-Com:  0.524D+00 0.476D+00
 Coeff-En:   0.614D+00 0.386D+00
 Coeff:      0.571D+00 0.429D+00
 Gap=     0.267 Goal=   None    Shift=    0.000
 RMSDP=3.74D-06 MaxDP=4.35D-04 DE= 3.45D-06 OVMax= 1.24D-03

 Cycle  11  Pass 1  IDiag  1:
 RMSU=  3.67D-06    CP:  1.00D+00  9.76D-01
 E= -613.622778517814     Delta-E=       -0.000009089150 Rises=F Damp=F
 DIIS: error= 4.04D-05 at cycle   3 NSaved=   3.
 NSaved= 3 IEnMin= 3 EnMin= -613.622778517814     IErMin= 3 ErrMin= 4.04D-05
 ErrMax= 4.04D-05  0.00D+00 EMaxC= 1.00D-01 BMatC= 1.54D-06 BMatP= 1.22D-05
 IDIUse=1 WtCom= 1.00D+00 WtEn= 0.00D+00
 Coeff-Com:  0.580D-01 0.246D+00 0.696D+00
 Coeff:      0.580D-01 0.246D+00 0.696D+00
 Gap=     0.267 Goal=   None    Shift=    0.000
 RMSDP=1.06D-06 MaxDP=1.07D-04 DE=-9.09D-06 OVMax= 3.08D-04

 Cycle  12  Pass 1  IDiag  1:
 RMSU=  5.71D-07    CP:  1.00D+00  9.96D-01  7.96D-01
 E= -613.622779512409     Delta-E=       -0.000000994595 Rises=F Damp=F
 DIIS: error= 1.02D-05 at cycle   4 NSaved=   4.
 NSaved= 4 IEnMin= 4 EnMin= -613.622779512409     IErMin= 4 ErrMin= 1.02D-05
 ErrMax= 1.02D-05  0.00D+00 EMaxC= 1.00D-01 BMatC= 1.06D-07 BMatP= 1.54D-06
 IDIUse=1 WtCom= 1.00D+00 WtEn= 0.00D+00
 Coeff-Com:  0.575D-02 0.997D-01 0.339D+00 0.556D+00
 Coeff:      0.575D-02 0.997D-01 0.339D+00 0.556D+00
 Gap=     0.267 Goal=   None    Shift=    0.000
 RMSDP=2.43D-07 MaxDP=2.21D-05 DE=-9.95D-07 OVMax= 6.00D-05

 Cycle  13  Pass 1  IDiag  1:
 RMSU=  2.16D-07    CP:  1.00D+00  9.98D-01  8.05D-01  8.29D-01
 E= -613.622779583524     Delta-E=       -0.000000071115 Rises=F Damp=F
 DIIS: error= 2.49D-06 at cycle   5 NSaved=   5.
 NSaved= 5 IEnMin= 5 EnMin= -613.622779583524     IErMin= 5 ErrMin= 2.49D-06
 ErrMax= 2.49D-06  0.00D+00 EMaxC= 1.00D-01 BMatC= 9.00D-09 BMatP= 1.06D-07
 IDIUse=1 WtCom= 1.00D+00 WtEn= 0.00D+00
 Coeff-Com: -0.281D-02 0.259D-01 0.100D+00 0.275D+00 0.601D+00
 Coeff:     -0.281D-02 0.259D-01 0.100D+00 0.275D+00 0.601D+00
 Gap=     0.267 Goal=   None    Shift=    0.000
 RMSDP=8.43D-08 MaxDP=7.20D-06 DE=-7.11D-08 OVMax= 1.92D-05

 Cycle  14  Pass 1  IDiag  1:
 RMSU=  5.05D-08    CP:  1.00D+00  9.98D-01  8.10D-01  9.29D-01  8.77D-01
 E= -613.622779589718     Delta-E=       -0.000000006193 Rises=F Damp=F
 DIIS: error= 5.08D-07 at cycle   6 NSaved=   6.
 NSaved= 6 IEnMin= 6 EnMin= -613.622779589718     IErMin= 6 ErrMin= 5.08D-07
 ErrMax= 5.08D-07  0.00D+00 EMaxC= 1.00D-01 BMatC= 4.08D-10 BMatP= 9.00D-09
 IDIUse=1 WtCom= 1.00D+00 WtEn= 0.00D+00
 Coeff-Com: -0.142D-02 0.602D-02 0.252D-01 0.912D-01 0.257D+00 0.622D+00
 Coeff:     -0.142D-02 0.602D-02 0.252D-01 0.912D-01 0.257D+00 0.622D+00
 Gap=     0.267 Goal=   None    Shift=    0.000
 RMSDP=2.52D-08 MaxDP=2.30D-06 DE=-6.19D-09 OVMax= 8.30D-06

 Cycle  15  Pass 1  IDiag  1:
 RMSU=  2.12D-08    CP:  1.00D+00  9.99D-01  8.10D-01  9.46D-01  9.07D-01
                    CP:  9.18D-01
 E= -613.622779589916     Delta-E=       -0.000000000198 Rises=F Damp=F
 DIIS: error= 4.74D-07 at cycle   7 NSaved=   7.
 NSaved= 7 IEnMin= 7 EnMin= -613.622779589916     IErMin= 7 ErrMin= 4.74D-07
 ErrMax= 4.74D-07  0.00D+00 EMaxC= 1.00D-01 BMatC= 1.79D-10 BMatP= 4.08D-10
 IDIUse=1 WtCom= 1.00D+00 WtEn= 0.00D+00
 Coeff-Com: -0.384D-03-0.110D-02-0.311D-02 0.493D-02 0.480D-01 0.415D+00
 Coeff-Com:  0.536D+00
 Coeff:     -0.384D-03-0.110D-02-0.311D-02 0.493D-02 0.480D-01 0.415D+00
 Coeff:      0.536D+00
 Gap=     0.267 Goal=   None    Shift=    0.000
 RMSDP=1.60D-08 MaxDP=1.61D-06 DE=-1.98D-10 OVMax= 3.83D-06

 Cycle  16  Pass 1  IDiag  1:
 RMSU=  7.94D-09    CP:  1.00D+00  9.99D-01  8.11D-01  9.59D-01  9.26D-01
                    CP:  1.08D+00  7.31D-01
 E= -613.622779590020     Delta-E=       -0.000000000104 Rises=F Damp=F
 DIIS: error= 1.35D-07 at cycle   8 NSaved=   8.
 NSaved= 8 IEnMin= 8 EnMin= -613.622779590020     IErMin= 8 ErrMin= 1.35D-07
 ErrMax= 1.35D-07  0.00D+00 EMaxC= 1.00D-01 BMatC= 1.43D-11 BMatP= 1.79D-10
 IDIUse=1 WtCom= 1.00D+00 WtEn= 0.00D+00
 Coeff-Com: -0.313D-04-0.143D-02-0.501D-02-0.898D-02-0.653D-02 0.155D+00
 Coeff-Com:  0.294D+00 0.573D+00
 Coeff:     -0.313D-04-0.143D-02-0.501D-02-0.898D-02-0.653D-02 0.155D+00
 Coeff:      0.294D+00 0.573D+00
 Gap=     0.267 Goal=   None    Shift=    0.000
 RMSDP=3.99D-09 MaxDP=3.86D-07 DE=-1.04D-10 OVMax= 7.23D-07

 SCF Done:  E(RM06) =  -613.622779590     A.U. after   16 cycles
            NFock= 16  Conv=0.40D-08     -V/T= 2.0046
 KE= 6.108012962352D+02 PE=-3.183942767049D+03 EE= 1.083257472444D+03
 Leave Link  502 at Tue Jun 17 15:57:25 2014, MaxMem=  4294967296 cpu:     26777.0
 (Enter /home/ztw1e12/g09/l801.exe)
 DoSCS=F DFT=T ScalE2(SS,OS)=  1.000000  1.000000
 Range of M.O.s used for correlation:     1   932
 NBasis=  1036 NAE=    51 NBE=    51 NFC=     0 NFV=     0
 NROrb=    932 NOA=    51 NOB=    51 NVA=   881 NVB=   881

 **** Warning!!: The largest alpha MO coefficient is  0.12831207D+02

 Leave Link  801 at Tue Jun 17 15:57:25 2014, MaxMem=  4294967296 cpu:         0.3
 (Enter /home/ztw1e12/g09/l1002.exe)
 Minotr:  Closed shell wavefunction.
          IDoAtm=1111111111111111111111111111111
          Direct CPHF calculation.
          Differentiating once with respect to Fermi-contact.
          Electric field/nuclear overlap derivatives assumed to be zero.
          Requested convergence is 1.0D-10 RMS, and 1.0D-09 maximum.
          Secondary convergence is 1.0D-12 RMS, and 1.0D-12 maximum.
          NewPWx=T KeepS1=F KeepF1=F KeepIn=T MapXYZ=F SortEE=F KeepMc=T.
          MDV=    4294966050 using IRadAn=  199590.
 Using stored XC quadrature information.
          Solving linear equations simultaneously, MaxMat=       0.
          There are    31 degrees of freedom in the 1st order CPHF.  IDoFFX=0 NUNeed=    31.
     31 vectors produced by pass  0 Test12= 1.45D-17 3.23D-11 XBig12= 4.16D+01 2.57D+00.
 AX will form    31 AO Fock derivatives at one time.
 FoFJK:  IHMeth= 1 ICntrl=       0 DoSepK=F KAlg= 0 I1Cent=   0 FoldK=F
 IRaf= 500000000 NMat=  31 IRICut=       1 DoRegI=T DoRafI=F ISym2E=-1.
 FoFCou: FMM=F IPFlag=           0 FMFlag=      100000 FMFlg1=           0
         NFxFlg=           0 DoJE=F BraDBF=F KetDBF=F FulRan=T
         wScrn=  0.000000 ICntrl=       0 IOpCl=  0 I1Cent=           0 NGrid=           0
         NMat0=   31 NMatS0=      0 NMatT0=   31 NMatD0=   31 NMtDS0=    0 NMtDT0=    0
 Petite list used in FoFCou.
     31 vectors produced by pass  1 Test12= 1.45D-17 3.23D-11 XBig12= 3.45D-01 1.76D-01.
     31 vectors produced by pass  2 Test12= 1.45D-17 3.23D-11 XBig12= 1.68D-02 5.18D-02.
     31 vectors produced by pass  3 Test12= 1.45D-17 3.23D-11 XBig12= 3.71D-04 6.36D-03.
     31 vectors produced by pass  4 Test12= 1.45D-17 3.23D-11 XBig12= 5.31D-06 8.90D-04.
     31 vectors produced by pass  5 Test12= 1.45D-17 3.23D-11 XBig12= 1.14D-07 1.59D-04.
     31 vectors produced by pass  6 Test12= 1.45D-17 3.23D-11 XBig12= 3.48D-09 1.82D-05.
     31 vectors produced by pass  7 Test12= 1.45D-17 3.23D-11 XBig12= 1.11D-10 4.30D-06.
     31 vectors produced by pass  8 Test12= 1.45D-17 3.23D-11 XBig12= 3.18D-12 4.16D-07.
     31 vectors produced by pass  9 Test12= 1.45D-17 3.23D-11 XBig12= 7.85D-14 8.04D-08.
     31 vectors produced by pass 10 Test12= 1.45D-17 3.23D-11 XBig12= 2.69D-15 7.76D-09.
     30 vectors produced by pass 11 Test12= 1.45D-17 3.23D-11 XBig12= 2.67D-17 7.62D-10.
      6 vectors produced by pass 12 Test12= 1.45D-17 3.23D-11 XBig12= 2.26D-19 4.41D-11.
 InvSVY:  IOpt=1 It=  1 EMax= 5.33D-15
 Solved reduced A of dimension   377 with    31 vectors.
 Max diff in FC couplings:  IJMax=    22    17 Diff= 3.24D-04 IJMaxR=    17    16 DiffR= 1.13D+00
 Fermi Contact (FC) contribution to K (Hz):
                1             2             3             4             5 
      1  0.123400D+11
      2  0.266275D+02  0.123400D+11
      3 -0.114836D+01  0.187096D+02  0.123400D+11
      4 -0.705561D-01  0.182550D+01 -0.444098D-01  0.123400D+11
      5 -0.110263D-01  0.183727D+00 -0.453365D-03  0.175368D+02  0.123400D+11
      6 -0.363134D-03 -0.332708D-02 -0.138274D-02  0.170432D+02 -0.770577D+00
      7  0.473997D-02 -0.244517D-01  0.290809D-03  0.174692D+02 -0.756257D+00
      8 -0.968343D+01  0.265081D+01  0.382913D+00  0.735023D-01  0.327483D-02
      9  0.244710D+00  0.200225D+02 -0.761287D+00 -0.881486D-01 -0.169614D-02
     10  0.911543D-02  0.213095D+00  0.206943D+00  0.174999D-01  0.135588D-02
     11  0.287285D+02  0.137852D+02  0.112010D+00 -0.176328D-01  0.158271D-02
     12  0.481484D+00  0.101183D+00 -0.223353D-01  0.957659D-03 -0.313946D-03
     13 -0.392287D+00  0.106346D+01 -0.179923D-01 -0.112661D-02 -0.920772D-03
     14  0.162246D+00 -0.833869D-01  0.224336D-01  0.145849D-03  0.445501D-03
     15  0.231858D+00 -0.781913D-01  0.148332D-01 -0.594980D-04  0.469287D-03
     16  0.955845D+00 -0.233311D-01 -0.319588D-03  0.861966D-04  0.100261D-04
     17  0.955590D-01 -0.433737D+00  0.322118D+00  0.299886D-01  0.146578D-02
     18 -0.156874D+00  0.913781D+00 -0.838399D-01 -0.428620D-02 -0.363564D-03
     19 -0.104017D-02  0.110103D+00 -0.188874D-02  0.166515D-03 -0.994576D-05
     20  0.539866D-01  0.288435D-01  0.135334D-01  0.264375D-04  0.687851D-05
     21  0.845232D-01  0.313850D-01  0.240158D-01  0.300141D-03 -0.405523D-04
     22  0.474485D+00  0.865170D+00  0.225304D+00  0.237931D-01  0.638789D-02
     23  0.757941D+00 -0.544520D+00  0.111686D+01  0.171746D+02 -0.510549D+00
     24 -0.149473D-01  0.131767D-01 -0.223360D-01 -0.644753D+00  0.131373D+00
     25  0.439001D-01  0.812875D+00  0.113127D-01 -0.292386D+00  0.281943D+00
     26  0.208285D-02 -0.133303D-01  0.649469D-02  0.498115D+00 -0.299707D-02
     27  0.352864D-01  0.119650D-01  0.706599D-02  0.150945D+01  0.527328D-02
     28  0.130471D-01  0.224738D-01  0.758995D-02  0.333541D+00 -0.940971D-02
     29 -0.319683D+00  0.166221D+02 -0.914648D+00  0.390189D+00  0.146317D+01
     30  0.104703D+01 -0.102128D+01  0.110383D+00  0.934826D+00  0.230990D-01
     31  0.601756D-01 -0.381483D+00  0.206260D+00  0.896033D-02 -0.211944D-01
                6             7             8             9            10 
      6  0.123400D+11
      7 -0.756054D+00  0.123400D+11
      8  0.151171D-01  0.735724D-02  0.123400D+11
      9 -0.153176D-03  0.715196D-02  0.271825D+00  0.123400D+11
     10  0.207099D-03  0.935281D-03 -0.811702D-04  0.317686D+02  0.123400D+11
     11  0.269943D-02  0.406028D-02  0.646068D+01  0.113015D+01  0.138446D+00
     12 -0.668935D-04 -0.216051D-03  0.482963D+00  0.461209D-01 -0.411495D-03
     13 -0.517068D-04 -0.873578D-05  0.648538D+00  0.288980D+00  0.981803D-02
     14  0.117503D-03  0.365156D-03  0.234186D+00 -0.103714D-01 -0.385122D-03
     15  0.517378D-04  0.305618D-03  0.244911D+00 -0.608288D-02 -0.776654D-03
     16 -0.114082D-05  0.383687D-04  0.179013D+00  0.248615D-01 -0.810679D-03
     17  0.112356D-02 -0.756078D-03  0.677542D-01  0.264599D+02  0.390502D+00
     18  0.157698D-04  0.141664D-03  0.697889D-01  0.127160D+02  0.100172D+00
     19  0.153101D-04 -0.438301D-04 -0.516408D-03  0.355576D+00 -0.104723D-01
     20  0.135932D-04 -0.228055D-04  0.465742D-02  0.393218D+00 -0.387689D-02
     21 -0.580864D-05  0.683823D-05  0.314280D-02  0.345953D+00 -0.181116D-01
     22  0.698847D-04  0.247273D-03  0.585094D+00  0.562192D+01  0.407343D+00
     23 -0.587977D+00 -0.715310D+00 -0.347300D-01 -0.875151D-02 -0.302719D-03
     24  0.114928D+00  0.350490D+00  0.190733D-01  0.434097D-01 -0.995935D-03
     25  0.133792D+01  0.507370D+00  0.198891D+01  0.130495D+01 -0.102578D+00
     26  0.681114D-03 -0.154234D-01 -0.319875D-01  0.550175D+00 -0.511852D-01
     27  0.111889D+00  0.823761D-03 -0.118427D+00  0.221095D+00 -0.182135D-02
     28  0.699567D-02 -0.690365D-02  0.122968D-01  0.393637D+00 -0.250718D-01
     29  0.362848D+00  0.415451D+00  0.301752D+00  0.617264D+00  0.436175D+00
     30  0.132959D-02 -0.204490D-01  0.735791D-01  0.804032D+00 -0.195485D-01
     31 -0.697501D-02 -0.782348D-02 -0.240976D-01  0.180053D+01 -0.223698D-01
               11            12            13            14            15 
     11  0.123400D+11
     12  0.312644D+02  0.123400D+11
     13  0.172353D+02  0.325482D+00  0.123400D+11
     14 -0.550136D+00  0.834550D-01  0.197554D+02  0.123400D+11
     15 -0.590231D+00  0.130556D+00  0.202494D+02 -0.733188D+00  0.123400D+11
     16 -0.399362D+00  0.291150D+00  0.182018D+02 -0.740453D+00 -0.758246D+00
     17 -0.736750D-01 -0.880161D-04 -0.127066D-01  0.137857D-02  0.101053D-02
     18  0.201861D-01  0.125630D-02  0.138405D-01  0.474989D-03  0.325001D-03
     19  0.603494D-02  0.291722D-04 -0.820508D-05 -0.322325D-04 -0.131233D-04
     20 -0.262052D-02 -0.124737D-03 -0.439297D-03  0.254290D-04 -0.195131D-04
     21  0.184266D-01 -0.767733D-04  0.257967D-02  0.505218D-04 -0.765390D-04
     22  0.164873D+00 -0.140129D-02  0.127147D-01  0.281663D-02  0.113712D-02
     23 -0.639479D-01  0.246798D-02  0.477233D-02 -0.172758D-03 -0.549685D-03
     24  0.779731D-02 -0.568274D-03  0.181169D-02  0.181106D-02  0.262126D-03
     25  0.106652D+00  0.112777D-02  0.109425D-02  0.350749D-02 -0.139060D-02
     26 -0.397461D-03  0.514569D-04 -0.533565D-03  0.475086D-04  0.102063D-03
     27 -0.655809D-02 -0.388041D-03  0.868281D-03 -0.112440D-03  0.254873D-03
     28  0.871760D-02 -0.170027D-03  0.953814D-04  0.493171D-05  0.844169D-04
     29  0.786056D-01 -0.355835D-01 -0.132982D+00  0.678226D-01  0.105022D+00
     30 -0.435746D-01 -0.739046D-02 -0.104210D-01  0.389050D-02  0.644144D-02
     31  0.102978D+00 -0.112132D-01  0.192803D-02  0.440910D-03  0.151205D-02
               16            17            18            19            20 
     16  0.123400D+11
     17 -0.751052D-05  0.123400D+11
     18  0.272845D-03  0.272874D+02  0.123400D+11
     19  0.133023D-04 -0.763533D+00  0.170218D+02  0.123400D+11
     20  0.945851D-04 -0.116957D+01  0.179919D+02 -0.716977D+00  0.123400D+11
     21  0.351022D-03 -0.121899D+01  0.179366D+02 -0.749072D+00 -0.919782D+00
     22  0.158189D-02 -0.952337D+01  0.377610D+01  0.832225D+00  0.428075D+00
     23 -0.351805D-04 -0.593357D-01  0.772965D-02  0.220314D-03 -0.137295D-02
     24  0.244389D-03 -0.115023D-02  0.551990D-03  0.438441D-03  0.374708D-03
     25  0.119451D-02  0.366644D-01 -0.749001D-02 -0.121622D-02  0.219101D-02
     26 -0.145885D-04  0.322146D-01  0.157161D-02  0.216991D-02  0.291648D-03
     27  0.441603D-04  0.229284D-01 -0.226163D-03  0.285850D-03  0.528220D-03
     28  0.473742D-04  0.290812D-01 -0.146324D-02  0.203241D-03  0.516070D-03
     29  0.295160D-02  0.139360D+01 -0.350217D-01 -0.227980D-02  0.173033D-01
     30  0.530487D-03 -0.202024D-02  0.165915D-01 -0.587724D-05 -0.147854D-03
     31  0.366030D-03  0.985635D-01  0.619176D-01 -0.795266D-04  0.284138D-02
               21            22            23            24            25 
     21  0.123400D+11
     22  0.444197D+00  0.123400D+11
     23 -0.189055D-03  0.820486D-01  0.123400D+11
     24  0.532394D-04  0.115547D-02  0.176521D+02  0.123400D+11
     25  0.105065D-02  0.101101D+00  0.165550D+02 -0.618804D+00  0.123400D+11
     26 -0.106071D-03  0.109987D-01 -0.649180D+00  0.383116D+00  0.159918D+02
     27  0.300064D-03  0.478825D-02 -0.587975D+00  0.107847D+00  0.186122D+02
     28  0.392841D-03  0.120421D-01 -0.677286D+00  0.149337D+00  0.170464D+02
     29 -0.571393D-02  0.178028D+00  0.173536D+02 -0.705581D+00 -0.395804D+00
     30 -0.832059D-03 -0.206822D-02 -0.670159D+00  0.285137D+00  0.351055D-01
     31 -0.187498D-02 -0.130198D-02 -0.630444D+00  0.280695D+00  0.888600D+00
               26            27            28            29            30 
     26  0.123400D+11
     27 -0.736537D+00  0.123400D+11
     28 -0.824880D+00 -0.860662D+00  0.123400D+11
     29  0.225580D+00  0.232419D+00  0.115722D+01  0.123400D+11
     30 -0.628940D-02 -0.393160D-02 -0.225485D-01  0.168103D+02  0.123400D+11
     31 -0.152607D-01 -0.797572D-02  0.200724D-01  0.174384D+02 -0.921213D+00
               31 
     31  0.123400D+11
 Fermi Contact (FC) contribution to J (Hz):
                1             2             3             4             5 
      1  0.243533D+11
      2  0.525500D+02  0.243533D+11
      3 -0.901106D+01  0.146812D+03  0.385007D+12
      4 -0.139244D+00  0.360267D+01 -0.348479D+00  0.243533D+11
      5 -0.865221D-01  0.144169D+01 -0.141450D-01  0.137610D+03  0.385007D+12
      6 -0.284948D-02 -0.261073D-01 -0.431416D-01  0.133736D+03 -0.240420D+02
      7  0.371941D-01 -0.191870D+00  0.907323D-02  0.137079D+03 -0.235952D+02
      8  0.103049D+02 -0.282095D+01 -0.162021D+01 -0.782197D-01 -0.138567D-01
      9  0.138803D+00  0.113570D+02 -0.171692D+01 -0.499990D-01 -0.382527D-02
     10  0.715279D-01  0.167213D+01  0.645662D+01  0.137320D+00  0.423034D-01
     11  0.162952D+02  0.781913D+01  0.252615D+00 -0.100015D-01  0.356946D-02
     12  0.377816D+01  0.793976D+00 -0.696861D+00  0.751466D-02 -0.979510D-02
     13 -0.774188D+00  0.209876D+01 -0.141184D+00 -0.222340D-02 -0.722521D-02
     14  0.127313D+01 -0.654329D+00  0.699927D+00  0.114446D-02  0.138996D-01
     15  0.181937D+01 -0.613560D+00  0.462797D+00 -0.466875D-03  0.146417D-01
     16  0.750042D+01 -0.183077D+00 -0.997114D-02  0.676376D-03  0.312815D-03
     17  0.188588D+00 -0.855990D+00  0.252763D+01  0.591833D-01  0.115018D-01
     18 -0.309595D+00  0.180337D+01 -0.657884D+00 -0.845892D-02 -0.285285D-02
     19 -0.816214D-02  0.863969D+00 -0.589286D-01  0.130663D-02 -0.310307D-03
     20  0.423628D+00  0.226332D+00  0.422241D+00  0.207452D-03  0.214609D-03
     21  0.663245D+00  0.246275D+00  0.749293D+00  0.235517D-02 -0.126523D-02
     22 -0.504938D+00 -0.920697D+00 -0.953324D+00 -0.253201D-01 -0.270289D-01
     23  0.149581D+01 -0.107462D+01  0.876389D+01  0.338945D+02 -0.400623D+01
     24 -0.117290D+00  0.103396D+00 -0.696882D+00 -0.505932D+01  0.409883D+01
     25  0.866379D-01  0.160423D+01  0.887695D-01 -0.577031D+00  0.221238D+01
     26  0.163439D-01 -0.104601D+00  0.202634D+00  0.390866D+01 -0.935086D-01
     27  0.276889D+00  0.938882D-01  0.220459D+00  0.118445D+02  0.164526D+00
     28  0.102379D+00  0.176350D+00  0.236806D+00  0.261726D+01 -0.293583D+00
     29 -0.630902D+00  0.328041D+02 -0.717716D+01  0.770048D+00  0.114813D+02
     30  0.821596D+01 -0.801392D+01  0.344393D+01  0.733549D+01  0.720687D+00
     31  0.472192D+00 -0.299346D+01  0.643530D+01  0.703108D-01 -0.661265D+00
                6             7             8             9            10 
      6  0.385007D+12
      7 -0.235889D+02  0.385007D+12
      8 -0.639646D-01 -0.311305D-01  0.708114D+10
      9 -0.345455D-03  0.161297D-01 -0.831396D-01  0.201170D+10
     10  0.646149D-02  0.291807D-01  0.343453D-03  0.716471D+02  0.385007D+12
     11  0.608799D-02  0.915708D-02 -0.197604D+01  0.184241D+00  0.312235D+00
     12 -0.208707D-02 -0.674079D-02 -0.204355D+01  0.104016D+00 -0.128386D-01
     13 -0.405738D-03 -0.685488D-04 -0.690162D+00  0.163913D+00  0.770411D-01
     14  0.366609D-02  0.113928D-01 -0.990905D+00 -0.233904D-01 -0.120158D-01
     15  0.161422D-02  0.953527D-02 -0.103629D+01 -0.137186D-01 -0.242316D-01
     16 -0.355935D-04  0.119710D-02 -0.757453D+00  0.560699D-01 -0.252932D-01
     17  0.881645D-02 -0.593287D-02 -0.721027D-01  0.150084D+02  0.306423D+01
     18  0.123744D-03  0.111163D-02 -0.742680D-01  0.721266D+01  0.786038D+00
     19  0.477675D-03 -0.136750D-02  0.218506D-02  0.801926D+00 -0.326735D+00
     20  0.424107D-03 -0.711530D-03 -0.197068D-01  0.886818D+00 -0.120959D+00
     21 -0.181229D-03  0.213352D-03 -0.132980D-01  0.780222D+00 -0.565081D+00
     22 -0.295701D-03 -0.104628D-02  0.335748D+00 -0.171951D+01 -0.172358D+01
     23 -0.461380D+01 -0.561297D+01  0.369590D-01 -0.496396D-02 -0.237541D-02
     24  0.358574D+01  0.109353D+02 -0.807045D-01  0.979013D-01 -0.310731D-01
     25  0.104986D+02  0.398128D+01 -0.211656D+01  0.740186D+00 -0.804919D+00
     26  0.212507D-01 -0.481208D+00  0.135348D+00  0.124080D+01 -0.159698D+01
     27  0.349094D+01  0.257013D-01  0.501097D+00  0.498631D+00 -0.568259D-01
     28  0.218265D+00 -0.215394D+00 -0.520310D-01  0.887764D+00 -0.782239D+00
     29  0.284723D+01  0.326000D+01 -0.321118D+00  0.350120D+00  0.342262D+01
     30  0.414831D-01 -0.638008D+00 -0.311333D+00  0.181332D+01 -0.609912D+00
     31 -0.217620D+00 -0.244092D+00  0.101964D+00  0.406071D+01 -0.697935D+00
               11            12            13            14            15 
     11  0.201170D+10
     12  0.705102D+02  0.385007D+12
     13  0.977610D+01  0.255403D+01  0.243533D+11
     14 -0.124071D+01  0.260379D+01  0.155018D+03  0.385007D+12
     15 -0.133114D+01  0.407335D+01  0.158895D+03 -0.228754D+02  0.385007D+12
     16 -0.900674D+00  0.908387D+01  0.142828D+03 -0.231021D+02 -0.236572D+02
     17 -0.417894D-01 -0.690654D-03 -0.250768D-01  0.108175D-01  0.792952D-02
     18  0.114498D-01  0.985807D-02  0.273146D-01  0.372719D-02  0.255025D-02
     19  0.136105D-01  0.910171D-03 -0.643845D-04 -0.100565D-02 -0.409447D-03
     20 -0.591001D-02 -0.389180D-02 -0.344712D-02  0.793383D-03 -0.608808D-03
     21  0.415573D-01 -0.239532D-02  0.202424D-01  0.157628D-02 -0.238801D-02
     22 -0.504277D-01  0.592925D-02 -0.135307D-01 -0.119180D-01 -0.481147D-02
     23 -0.362720D-01  0.193660D-01  0.941832D-02 -0.135562D-02 -0.431332D-02
     24  0.175852D-01 -0.177301D-01  0.142162D-01  0.565050D-01  0.817832D-02
     25  0.604945D-01  0.884948D-02  0.215952D-02  0.275230D-01 -0.109119D-01
     26 -0.896387D-03  0.160545D-02 -0.418683D-02  0.148227D-02  0.318436D-02
     27 -0.147904D-01 -0.121069D-01  0.681331D-02 -0.350812D-02  0.795202D-02
     28  0.196607D-01 -0.530484D-02  0.748448D-03  0.153869D-03  0.263380D-02
     29  0.445860D-01 -0.279220D+00 -0.262444D+00  0.532197D+00  0.824099D+00
     30 -0.982731D-01 -0.230582D+00 -0.817724D-01  0.121383D+00  0.200973D+00
     31  0.232245D+00 -0.349852D+00  0.151291D-01  0.137564D-01  0.471760D-01
               16            17            18            19            20 
     16  0.385007D+12
     17 -0.589343D-04  0.243533D+11
     18  0.214098D-02  0.538523D+02  0.243533D+11
     19  0.415032D-03 -0.599137D+01  0.133568D+03  0.385007D+12
     20  0.295105D-02 -0.917749D+01  0.141180D+03 -0.223696D+02  0.385007D+12
     21  0.109519D-01 -0.956529D+01  0.140747D+03 -0.233710D+02 -0.286971D+02
     22 -0.669342D-02  0.101346D+02 -0.401845D+01 -0.352137D+01 -0.181130D+01
     23 -0.276058D-03 -0.117100D+00  0.152547D-01  0.172878D-02 -0.107734D-01
     24  0.762492D-02 -0.902571D-02  0.433141D-02  0.136794D-01  0.116909D-01
     25  0.937318D-02  0.723580D-01 -0.147817D-01 -0.954359D-02  0.171927D-01
     26 -0.455160D-03  0.252785D+00  0.123322D-01  0.677012D-01  0.909940D-02
     27  0.137780D-02  0.179917D+00 -0.177468D-02  0.891851D-02  0.164804D-01
     28  0.147807D-02  0.228197D+00 -0.114819D-01  0.634111D-02  0.161014D-01
     29  0.231609D-01  0.275030D+01 -0.691162D-01 -0.178893D-01  0.135777D+00
     30  0.165512D-01 -0.158526D-01  0.130192D+00 -0.183370D-03 -0.461304D-02
     31  0.114201D-01  0.773418D+00  0.485862D+00 -0.248123D-02  0.886508D-01
               21            22            23            24            25 
     21  0.385007D+12
     22 -0.187952D+01  0.708114D+10
     23 -0.148350D-02 -0.873145D-01  0.243533D+11
     24  0.166107D-02 -0.488912D-02  0.138514D+03  0.385007D+12
     25  0.824435D-02 -0.107590D+00  0.326716D+02 -0.485569D+01  0.243533D+11
     26 -0.330941D-02 -0.465386D-01 -0.509405D+01  0.119532D+02  0.125486D+03
     27  0.936198D-02 -0.202604D-01 -0.461378D+01  0.336482D+01  0.146048D+03
     28  0.122566D-01 -0.509534D-01 -0.531460D+01  0.465931D+01  0.133762D+03
     29 -0.448366D-01 -0.189454D+00  0.342477D+02 -0.553662D+01 -0.781129D+00
     30 -0.259602D-01  0.875119D-02 -0.525867D+01  0.889627D+01  0.275469D+00
     31 -0.584993D-01  0.550905D-02 -0.494704D+01  0.875767D+01  0.697276D+01
               26            27            28            29            30 
     26  0.385007D+12
     27 -0.229799D+02  0.385007D+12
     28 -0.257362D+02 -0.268526D+02  0.385007D+12
     29  0.177011D+01  0.182377D+01  0.908059D+01  0.243533D+11
     30 -0.196229D+00 -0.122666D+00 -0.703513D+00  0.131909D+03  0.385007D+12
     31 -0.476132D+00 -0.248842D+00  0.626259D+00  0.136838D+03 -0.287418D+02
               31 
     31  0.385007D+12
 End of Minotr F.D. properties file   721 does not exist.
 End of Minotr F.D. properties file   722 does not exist.
 End of Minotr F.D. properties file   788 does not exist.
 Leave Link 1002 at Tue Jun 17 22:30:06 2014, MaxMem=  4294967296 cpu:    376041.5
 (Enter /home/ztw1e12/g09/l601.exe)
 Copying SCF densities to generalized density rwf, IOpCl= 0 IROHF=0.

 **********************************************************************

            Population analysis using the SCF density.

 **********************************************************************

 Orbital symmetries:
       Occupied  (A) (A) (A) (A) (A) (A) (A) (A) (A) (A) (A) (A)
                 (A) (A) (A) (A) (A) (A) (A) (A) (A) (A) (A) (A)
                 (A) (A) (A) (A) (A) (A) (A) (A) (A) (A) (A) (A)
                 (A) (A) (A) (A) (A) (A) (A) (A) (A) (A) (A) (A)
                 (A) (A) (A)
       Virtual   (A) (A) (A) (A) (A) (A) (A) (A) (A) (A) (A) (A)
                 (A) (A) (A) (A) (A) (A) (A) (A) (A) (A) (A) (A)
                 (A) (A) (A) (A) (A) (A) (A) (A) (A) (A) (A) (A)
                 (A) (A) (A) (A) (A) (A) (A) (A) (A) (A) (A) (A)
                 (A) (A) (A) (A) (A) (A) (A) (A) (A) (A) (A) (A)
                 (A) (A) (A) (A) (A) (A) (A) (A) (A) (A) (A) (A)
                 (A) (A) (A) (A) (A) (A) (A) (A) (A) (A) (A) (A)
                 (A) (A) (A) (A) (A) (A) (A) (A) (A) (A) (A) (A)
                 (A) (A) (A) (A) (A) (A) (A) (A) (A) (A) (A) (A)
                 (A) (A) (A) (A) (A) (A) (A) (A) (A) (A) (A) (A)
                 (A) (A) (A) (A) (A) (A) (A) (A) (A) (A) (A) (A)
                 (A) (A) (A) (A) (A) (A) (A) (A) (A) (A) (A) (A)
                 (A) (A) (A) (A) (A) (A) (A) (A) (A) (A) (A) (A)
                 (A) (A) (A) (A) (A) (A) (A) (A) (A) (A) (A) (A)
                 (A) (A) (A) (A) (A) (A) (A) (A) (A) (A) (A) (A)
                 (A) (A) (A) (A) (A) (A) (A) (A) (A) (A) (A) (A)
                 (A) (A) (A) (A) (A) (A) (A) (A) (A) (A) (A) (A)
                 (A) (A) (A) (A) (A) (A) (A) (A) (A) (A) (A) (A)
                 (A) (A) (A) (A) (A) (A) (A) (A) (A) (A) (A) (A)
                 (A) (A) (A) (A) (A) (A) (A) (A) (A) (A) (A) (A)
                 (A) (A) (A) (A) (A) (A) (A) (A) (A) (A) (A) (A)
                 (A) (A) (A) (A) (A) (A) (A) (A) (A) (A) (A) (A)
                 (A) (A) (A) (A) (A) (A) (A) (A) (A) (A) (A) (A)
                 (A) (A) (A) (A) (A) (A) (A) (A) (A) (A) (A) (A)
                 (A) (A) (A) (A) (A) (A) (A) (A) (A) (A) (A) (A)
                 (A) (A) (A) (A) (A) (A) (A) (A) (A) (A) (A) (A)
                 (A) (A) (A) (A) (A) (A) (A) (A) (A) (A) (A) (A)
                 (A) (A) (A) (A) (A) (A) (A) (A) (A) (A) (A) (A)
                 (A) (A) (A) (A) (A) (A) (A) (A) (A) (A) (A) (A)
                 (A) (A) (A) (A) (A) (A) (A) (A) (A) (A) (A) (A)
                 (A) (A) (A) (A) (A) (A) (A) (A) (A) (A) (A) (A)
                 (A) (A) (A) (A) (A) (A) (A) (A) (A) (A) (A) (A)
                 (A) (A) (A) (A) (A) (A) (A) (A) (A) (A) (A) (A)
                 (A) (A) (A) (A) (A) (A) (A) (A) (A) (A) (A) (A)
                 (A) (A) (A) (A) (A) (A) (A) (A) (A) (A) (A) (A)
                 (A) (A) (A) (A) (A) (A) (A) (A) (A) (A) (A) (A)
                 (A) (A) (A) (A) (A) (A) (A) (A) (A) (A) (A) (A)
                 (A) (A) (A) (A) (A) (A) (A) (A) (A) (A) (A) (A)
                 (A) (A) (A) (A) (A) (A) (A) (A) (A) (A) (A) (A)
                 (A) (A) (A) (A) (A) (A) (A) (A) (A) (A) (A) (A)
                 (A) (A) (A) (A) (A) (A) (A) (A) (A) (A) (A) (A)
                 (A) (A) (A) (A) (A) (A) (A) (A) (A) (A) (A) (A)
                 (A) (A) (A) (A) (A) (A) (A) (A) (A) (A) (A) (A)
                 (A) (A) (A) (A) (A) (A) (A) (A) (A) (A) (A) (A)
                 (A) (A) (A) (A) (A) (A) (A) (A) (A) (A) (A) (A)
                 (A) (A) (A) (A) (A) (A) (A) (A) (A) (A) (A) (A)
                 (A) (A) (A) (A) (A) (A) (A) (A) (A) (A) (A) (A)
                 (A) (A) (A) (A) (A) (A) (A) (A) (A) (A) (A) (A)
                 (A) (A) (A) (A) (A) (A) (A) (A) (A) (A) (A) (A)
                 (A) (A) (A) (A) (A) (A) (A) (A) (A) (A) (A) (A)
                 (A) (A) (A) (A) (A) (A) (A) (A) (A) (A) (A) (A)
                 (A) (A) (A) (A) (A) (A) (A) (A) (A) (A) (A) (A)
                 (A) (A) (A) (A) (A) (A) (A) (A) (A) (A) (A) (A)
                 (A) (A) (A) (A) (A) (A) (A) (A) (A) (A) (A) (A)
                 (A) (A) (A) (A) (A) (A) (A) (A) (A) (A) (A) (A)
                 (A) (A) (A) (A) (A) (A) (A) (A) (A) (A) (A) (A)
                 (A) (A) (A) (A) (A) (A) (A) (A) (A) (A) (A) (A)
                 (A) (A) (A) (A) (A) (A) (A) (A) (A) (A) (A) (A)
                 (A) (A) (A) (A) (A) (A) (A) (A) (A) (A) (A) (A)
                 (A) (A) (A) (A) (A) (A) (A) (A) (A) (A) (A) (A)
                 (A) (A) (A) (A) (A) (A) (A) (A) (A) (A) (A) (A)
                 (A) (A) (A) (A) (A) (A) (A) (A) (A) (A) (A) (A)
                 (A) (A) (A) (A) (A) (A) (A) (A) (A) (A) (A) (A)
                 (A) (A) (A) (A) (A) (A) (A) (A) (A) (A) (A) (A)
                 (A) (A) (A) (A) (A) (A) (A) (A) (A) (A) (A) (A)
                 (A) (A) (A) (A) (A) (A) (A) (A) (A) (A) (A) (A)
                 (A) (A) (A) (A) (A) (A) (A) (A) (A) (A) (A) (A)
                 (A) (A) (A) (A) (A) (A) (A) (A) (A) (A) (A) (A)
                 (A) (A) (A) (A) (A) (A) (A) (A) (A) (A) (A) (A)
                 (A) (A) (A) (A) (A) (A) (A) (A) (A) (A) (A) (A)
                 (A) (A) (A) (A) (A) (A) (A) (A) (A) (A) (A) (A)
                 (A) (A) (A) (A) (A) (A) (A) (A) (A) (A) (A) (A)
                 (A) (A) (A) (A) (A) (A) (A) (A) (A) (A) (A) (A)
                 (A) (A) (A) (A) (A)
 The electronic state is 1-A.
 Alpha  occ. eigenvalues --  -19.17295 -19.16278 -14.41908 -14.41258 -10.33525
 Alpha  occ. eigenvalues --  -10.33201 -10.29204 -10.27178 -10.25758 -10.25514
 Alpha  occ. eigenvalues --  -10.23654 -10.23582 -10.22971  -1.05430  -1.04004
 Alpha  occ. eigenvalues --   -0.94381  -0.94136  -0.83865  -0.78639  -0.74303
 Alpha  occ. eigenvalues --   -0.72040  -0.70158  -0.66254  -0.60982  -0.59689
 Alpha  occ. eigenvalues --   -0.58255  -0.54769  -0.50594  -0.49494  -0.48788
 Alpha  occ. eigenvalues --   -0.47041  -0.46546  -0.45287  -0.44999  -0.44145
 Alpha  occ. eigenvalues --   -0.42643  -0.41532  -0.40754  -0.40485  -0.39920
 Alpha  occ. eigenvalues --   -0.39731  -0.39383  -0.37923  -0.36519  -0.34974
 Alpha  occ. eigenvalues --   -0.34624  -0.33709  -0.28273  -0.27560  -0.26157
 Alpha  occ. eigenvalues --   -0.25835
 Alpha virt. eigenvalues --    0.00886   0.02515   0.02772   0.03747   0.04462
 Alpha virt. eigenvalues --    0.04857   0.06461   0.07116   0.07531   0.08606
 Alpha virt. eigenvalues --    0.09552   0.10770   0.11081   0.11518   0.12007
 Alpha virt. eigenvalues --    0.12640   0.12779   0.13437   0.14730   0.15587
 Alpha virt. eigenvalues --    0.16401   0.16538   0.18481   0.18645   0.19955
 Alpha virt. eigenvalues --    0.20335   0.22528   0.23032   0.24119   0.25034
 Alpha virt. eigenvalues --    0.25371   0.25928   0.26296   0.26907   0.28047
 Alpha virt. eigenvalues --    0.28730   0.29123   0.29999   0.30824   0.31895
 Alpha virt. eigenvalues --    0.32933   0.34593   0.34939   0.35103   0.36025
 Alpha virt. eigenvalues --    0.36924   0.37157   0.37915   0.39099   0.39421
 Alpha virt. eigenvalues --    0.39708   0.40244   0.40442   0.40500   0.41335
 Alpha virt. eigenvalues --    0.41429   0.41704   0.41961   0.42636   0.42937
 Alpha virt. eigenvalues --    0.43816   0.44119   0.44310   0.44869   0.45246
 Alpha virt. eigenvalues --    0.45632   0.46116   0.47280   0.47754   0.48072
 Alpha virt. eigenvalues --    0.49680   0.51050   0.51578   0.52118   0.52659
 Alpha virt. eigenvalues --    0.53257   0.53491   0.54422   0.55918   0.56642
 Alpha virt. eigenvalues --    0.57882   0.58914   0.59608   0.61000   0.61309
 Alpha virt. eigenvalues --    0.62120   0.62799   0.65156   0.66854   0.67199
 Alpha virt. eigenvalues --    0.68712   0.69705   0.71633   0.73745   0.74646
 Alpha virt. eigenvalues --    0.75519   0.76163   0.77005   0.78428   0.78879
 Alpha virt. eigenvalues --    0.79520   0.79858   0.80772   0.82994   0.83340
 Alpha virt. eigenvalues --    0.84060   0.84962   0.85684   0.87067   0.87441
 Alpha virt. eigenvalues --    0.88283   0.88994   0.89072   0.90152   0.90912
 Alpha virt. eigenvalues --    0.92176   0.92909   0.93080   0.94474   0.95282
 Alpha virt. eigenvalues --    0.95417   0.95802   0.96355   0.97675   0.97924
 Alpha virt. eigenvalues --    0.99337   1.00135   1.01052   1.01286   1.01766
 Alpha virt. eigenvalues --    1.03504   1.04165   1.04593   1.05339   1.06018
 Alpha virt. eigenvalues --    1.06541   1.07222   1.08834   1.09566   1.09831
 Alpha virt. eigenvalues --    1.11637   1.11847   1.12844   1.13573   1.14321
 Alpha virt. eigenvalues --    1.14839   1.16096   1.16672   1.17359   1.17907
 Alpha virt. eigenvalues --    1.18735   1.19513   1.19866   1.20572   1.21057
 Alpha virt. eigenvalues --    1.21601   1.21809   1.21987   1.23232   1.23784
 Alpha virt. eigenvalues --    1.23982   1.24531   1.25462   1.25814   1.26425
 Alpha virt. eigenvalues --    1.27325   1.27599   1.28368   1.29053   1.29913
 Alpha virt. eigenvalues --    1.30469   1.30990   1.31442   1.31867   1.32894
 Alpha virt. eigenvalues --    1.33493   1.34061   1.34985   1.36295   1.37029
 Alpha virt. eigenvalues --    1.37585   1.38067   1.39035   1.40570   1.41818
 Alpha virt. eigenvalues --    1.43844   1.45878   1.46058   1.46690   1.48270
 Alpha virt. eigenvalues --    1.49261   1.50348   1.53271   1.53693   1.55892
 Alpha virt. eigenvalues --    1.56954   1.58914   1.60382   1.62175   1.64017
 Alpha virt. eigenvalues --    1.65371   1.66278   1.69203   1.70170   1.72186
 Alpha virt. eigenvalues --    1.73669   1.75417   1.76994   1.79450   1.82556
 Alpha virt. eigenvalues --    1.84910   1.86640   1.89898   1.90836   1.91209
 Alpha virt. eigenvalues --    1.93694   1.96490   1.97394   1.99515   1.99671
 Alpha virt. eigenvalues --    2.02248   2.02662   2.04246   2.06327   2.07620
 Alpha virt. eigenvalues --    2.07993   2.09594   2.13023   2.14292   2.16272
 Alpha virt. eigenvalues --    2.17393   2.18885   2.19216   2.20491   2.22146
 Alpha virt. eigenvalues --    2.23719   2.25050   2.27145   2.28315   2.30242
 Alpha virt. eigenvalues --    2.31728   2.34204   2.35908   2.38032   2.39623
 Alpha virt. eigenvalues --    2.40186   2.40791   2.42598   2.43015   2.44697
 Alpha virt. eigenvalues --    2.45076   2.46426   2.46505   2.48265   2.49551
 Alpha virt. eigenvalues --    2.50478   2.51375   2.52844   2.54732   2.55210
 Alpha virt. eigenvalues --    2.56742   2.57165   2.58413   2.60250   2.60749
 Alpha virt. eigenvalues --    2.65481   2.65666   2.67705   2.68624   2.69595
 Alpha virt. eigenvalues --    2.70380   2.70816   2.71665   2.72083   2.72746
 Alpha virt. eigenvalues --    2.73479   2.74472   2.75250   2.77851   2.78113
 Alpha virt. eigenvalues --    2.78794   2.79606   2.81456   2.81730   2.82872
 Alpha virt. eigenvalues --    2.83525   2.84516   2.85694   2.86293   2.87269
 Alpha virt. eigenvalues --    2.87865   2.89207   2.89980   2.90280   2.91674
 Alpha virt. eigenvalues --    2.92055   2.92112   2.93052   2.94213   2.95508
 Alpha virt. eigenvalues --    2.96010   2.96138   2.98017   2.98692   2.99270
 Alpha virt. eigenvalues --    3.00130   3.00886   3.01844   3.02383   3.02756
 Alpha virt. eigenvalues --    3.03163   3.03565   3.05113   3.05702   3.06321
 Alpha virt. eigenvalues --    3.07692   3.08498   3.09273   3.09294   3.10389
 Alpha virt. eigenvalues --    3.11125   3.12122   3.12987   3.13844   3.14647
 Alpha virt. eigenvalues --    3.16193   3.17834   3.18552   3.18743   3.19835
 Alpha virt. eigenvalues --    3.20197   3.21850   3.22340   3.23086   3.24124
 Alpha virt. eigenvalues --    3.24627   3.26805   3.27178   3.27474   3.28563
 Alpha virt. eigenvalues --    3.28728   3.29685   3.30332   3.30770   3.31257
 Alpha virt. eigenvalues --    3.31795   3.32790   3.34204   3.35106   3.35990
 Alpha virt. eigenvalues --    3.37048   3.37102   3.37989   3.38694   3.40523
 Alpha virt. eigenvalues --    3.40547   3.40865   3.42119   3.42351   3.43811
 Alpha virt. eigenvalues --    3.44655   3.45128   3.45811   3.46318   3.47342
 Alpha virt. eigenvalues --    3.49186   3.49263   3.50229   3.50828   3.52050
 Alpha virt. eigenvalues --    3.54619   3.55703   3.57181   3.58331   3.59908
 Alpha virt. eigenvalues --    3.60865   3.63295   3.63938   3.64463   3.65411
 Alpha virt. eigenvalues --    3.66274   3.67940   3.69868   3.70846   3.71537
 Alpha virt. eigenvalues --    3.72046   3.72646   3.73648   3.73935   3.74388
 Alpha virt. eigenvalues --    3.76456   3.77196   3.78704   3.79665   3.79907
 Alpha virt. eigenvalues --    3.81615   3.82636   3.83876   3.84602   3.84688
 Alpha virt. eigenvalues --    3.85382   3.86716   3.87700   3.88706   3.89445
 Alpha virt. eigenvalues --    3.91103   3.92679   3.93188   3.94184   3.95336
 Alpha virt. eigenvalues --    3.96168   3.96797   3.97689   3.98758   4.00185
 Alpha virt. eigenvalues --    4.00684   4.02010   4.02765   4.04444   4.06070
 Alpha virt. eigenvalues --    4.06531   4.06878   4.07594   4.07852   4.09815
 Alpha virt. eigenvalues --    4.12066   4.12455   4.12827   4.13002   4.15539
 Alpha virt. eigenvalues --    4.16049   4.16558   4.17688   4.18589   4.19360
 Alpha virt. eigenvalues --    4.20106   4.21917   4.22016   4.23911   4.24844
 Alpha virt. eigenvalues --    4.25730   4.26245   4.27832   4.28247   4.29440
 Alpha virt. eigenvalues --    4.29936   4.31450   4.32476   4.34047   4.35229
 Alpha virt. eigenvalues --    4.36829   4.37313   4.39116   4.41035   4.43087
 Alpha virt. eigenvalues --    4.43156   4.45685   4.46290   4.46382   4.49682
 Alpha virt. eigenvalues --    4.50573   4.51627   4.52678   4.54869   4.56602
 Alpha virt. eigenvalues --    4.58156   4.59069   4.59881   4.60570   4.61399
 Alpha virt. eigenvalues --    4.62013   4.63437   4.64096   4.64560   4.66231
 Alpha virt. eigenvalues --    4.66828   4.68637   4.69970   4.70493   4.71662
 Alpha virt. eigenvalues --    4.72211   4.73764   4.75652   4.76068   4.78799
 Alpha virt. eigenvalues --    4.79355   4.79364   4.80913   4.81104   4.82002
 Alpha virt. eigenvalues --    4.83943   4.85565   4.88074   4.89546   4.91243
 Alpha virt. eigenvalues --    4.91731   4.93523   4.93945   4.95544   4.97225
 Alpha virt. eigenvalues --    4.98123   4.99364   4.99730   5.00810   5.02519
 Alpha virt. eigenvalues --    5.03176   5.04622   5.06519   5.08254   5.10543
 Alpha virt. eigenvalues --    5.10814   5.12436   5.12801   5.14101   5.15560
 Alpha virt. eigenvalues --    5.16396   5.16714   5.18551   5.19395   5.21397
 Alpha virt. eigenvalues --    5.22120   5.22359   5.23054   5.24323   5.24433
 Alpha virt. eigenvalues --    5.25619   5.26907   5.29105   5.29723   5.31138
 Alpha virt. eigenvalues --    5.32421   5.36492   5.37323   5.39077   5.40164
 Alpha virt. eigenvalues --    5.41341   5.42885   5.44358   5.48199   5.49347
 Alpha virt. eigenvalues --    5.53027   5.54509   5.56785   5.58052   5.59354
 Alpha virt. eigenvalues --    5.60903   5.61990   5.62508   5.65007   5.65254
 Alpha virt. eigenvalues --    5.66908   5.68451   5.69184   5.71079   5.72597
 Alpha virt. eigenvalues --    5.75171   5.76085   5.76755   5.77797   5.79167
 Alpha virt. eigenvalues --    5.81493   5.82059   5.84665   5.85712   5.87964
 Alpha virt. eigenvalues --    5.89546   5.95480   5.97359   6.03762   6.05671
 Alpha virt. eigenvalues --    6.12200   6.19085   6.20559   6.23616   6.27975
 Alpha virt. eigenvalues --    6.52181   6.55014   6.58099   6.61377   6.64383
 Alpha virt. eigenvalues --    6.66171   6.77037   6.82585   6.90563   6.92238
 Alpha virt. eigenvalues --    6.93960   6.94618   7.18694   7.19831   7.24136
 Alpha virt. eigenvalues --    7.28565   8.13645   8.26816   8.66166   8.73513
 Alpha virt. eigenvalues --    8.78265   8.78961   8.81760   8.82921   8.84017
 Alpha virt. eigenvalues --    8.85395   8.86681   8.88883   8.91207   8.92620
 Alpha virt. eigenvalues --    8.93567   8.95644   8.95951   8.98077   9.01111
 Alpha virt. eigenvalues --    9.05409   9.07371   9.12851   9.15858   9.16413
 Alpha virt. eigenvalues --    9.23433   9.59976   9.61931   9.77366   9.83492
 Alpha virt. eigenvalues --    9.90561   9.95435  10.09995  10.11485  10.15195
 Alpha virt. eigenvalues --   10.17993  10.19773  10.20657  10.21842  10.25359
 Alpha virt. eigenvalues --   10.26711  10.29462  10.31269  10.33133  10.35212
 Alpha virt. eigenvalues --   10.38616  11.74676  11.83131  12.04426  12.14349
 Alpha virt. eigenvalues --   12.15309  12.20210  12.24343  12.25401  12.28165
 Alpha virt. eigenvalues --   12.39059  12.48694  12.56098  12.60115  12.83892
 Alpha virt. eigenvalues --   12.93238  14.97175  15.02207  15.24199  15.27558
 Alpha virt. eigenvalues --   15.99717  16.04857  16.83947  16.92046  22.01201
 Alpha virt. eigenvalues --   22.09622  40.17477  40.25344  40.66642  40.67558
 Alpha virt. eigenvalues --   40.68767  40.72396  40.73581  40.74475  40.77306
 Alpha virt. eigenvalues --   40.77918  40.79405  40.81082  40.82013  40.82213
 Alpha virt. eigenvalues --   40.83279  40.84317  40.84416  40.85927  40.86385
 Alpha virt. eigenvalues --   40.87585  40.88829  40.89554  40.90495  40.90577
 Alpha virt. eigenvalues --   40.91031  40.92757  40.93983  46.34613  46.45006
 Alpha virt. eigenvalues --   46.48038  46.52098  46.56911  46.57429  46.60516
 Alpha virt. eigenvalues --   46.71809  46.81439  54.45965  54.47912  55.76955
 Alpha virt. eigenvalues --   55.84185  55.93646  55.98059  56.02568  56.05487
 Alpha virt. eigenvalues --   56.18017  56.21013  56.24300  56.31963  56.38413
 Alpha virt. eigenvalues --   56.41758  56.47360  56.52929  56.57949  56.72587
 Alpha virt. eigenvalues --   57.45974  57.51374  57.99368  58.03294  58.19509
 Alpha virt. eigenvalues --   58.25913  64.71155  64.78485  73.94333  73.97210
 Alpha virt. eigenvalues --   74.09938  74.11453  74.63932  74.66564  86.07026
 Alpha virt. eigenvalues --   86.14454 165.43873 165.52974 165.56898 165.60204
 Alpha virt. eigenvalues --  165.64619 165.65457 165.67589 165.77211 165.86222
 Alpha virt. eigenvalues --  226.57380 226.58402 230.58323 230.65012 235.51508
 Alpha virt. eigenvalues --  235.82452 235.88749 236.10892 236.35562 236.42611
 Alpha virt. eigenvalues --  236.69840 237.17843 237.48843 237.70224 237.83644
 Alpha virt. eigenvalues --  237.89807 238.00724 238.23314 238.36581 239.22274
 Alpha virt. eigenvalues --  308.80631 308.87198 624.55195 624.60783 624.63515
 Alpha virt. eigenvalues --  624.68479 624.70101 624.70538 624.73210 624.81165
 Alpha virt. eigenvalues --  624.88393 793.97411 794.54666 825.64983 825.83595
 Alpha virt. eigenvalues --  827.15360 827.41421 827.61383 827.63747 828.66055
 Alpha virt. eigenvalues --  830.47028 831.29907 831.73570 832.26841 832.54320
 Alpha virt. eigenvalues --  832.61536 833.47549 833.62148 836.13992 868.34028
 Alpha virt. eigenvalues --  868.409271165.933451165.993892484.578412485.46759
 Alpha virt. eigenvalues -- 2588.067912589.638652589.959682593.181912596.17652
 Alpha virt. eigenvalues -- 2596.678592597.015862602.251302605.264072606.86577
 Alpha virt. eigenvalues -- 2607.000642608.419112609.390622609.476632611.79062
 Alpha virt. eigenvalues -- 2619.879742740.324492740.339452740.376002740.42350
 Alpha virt. eigenvalues -- 2740.435332740.479822740.517122740.550872740.58430
 Alpha virt. eigenvalues -- 3787.314693787.385585073.314755073.368988285.75800
 Alpha virt. eigenvalues -- 8295.814998615.407648626.795228635.126898637.49242
 Alpha virt. eigenvalues -- 8637.572238641.976708645.088468662.241728669.77629
 Alpha virt. eigenvalues -- 8672.628808677.657748679.095228680.046618685.79971
 Alpha virt. eigenvalues -- 8687.962268708.74372******************************
 Alpha virt. eigenvalues -- **************************************************
 Alpha virt. eigenvalues -- **************************************************
 Alpha virt. eigenvalues -- **************************************************
 Alpha virt. eigenvalues -- **************************************************
 Alpha virt. eigenvalues -- **************************************************
 Alpha virt. eigenvalues -- **************************************************
 Alpha virt. eigenvalues -- **************************************************
 Alpha virt. eigenvalues -- **********
          Condensed to atoms (all electrons):
               1          2          3          4          5          6
     1  C    4.579856   0.175986  -0.041221  -0.000673   0.000020   0.000006
     2  C    0.175986   5.351561   0.378370   0.008445  -0.000446   0.000479
     3  H   -0.041221   0.378370   0.484085  -0.000307   0.000023   0.000000
     4  C   -0.000673   0.008445  -0.000307   4.957144   0.404091   0.402873
     5  H    0.000020  -0.000446   0.000023   0.404091   0.539924  -0.011134
     6  H    0.000006   0.000479   0.000000   0.402873  -0.011134   0.547325
     7  H    0.000084  -0.001116  -0.000033   0.407533  -0.020840  -0.023304
     8  O    0.685053  -0.099599   0.004512  -0.000063   0.000001   0.000002
     9  N   -0.062715   0.312233  -0.029751  -0.000380   0.000002  -0.000001
    10  H    0.003204  -0.045443   0.002833  -0.000721   0.000050   0.000008
    11  N    0.378089  -0.117319   0.002343   0.000133   0.000003  -0.000032
    12  H   -0.026339   0.010073  -0.000335   0.000028  -0.000001  -0.000001
    13  C   -0.052150   0.010971  -0.001235  -0.000003   0.000000   0.000000
    14  H   -0.000715   0.001821   0.000103  -0.000011  -0.000001   0.000001
    15  H   -0.007474  -0.000941  -0.000292   0.000001   0.000000   0.000000
    16  H    0.006597   0.000612  -0.000149   0.000000   0.000000   0.000000
    17  C   -0.005906  -0.056001   0.004037   0.000001  -0.000002   0.000002
    18  C   -0.005441   0.017064   0.002491   0.000009   0.000000   0.000000
    19  H    0.000487  -0.000318  -0.000376  -0.000005   0.000000   0.000000
    20  H   -0.000099  -0.000629   0.000170   0.000000   0.000000   0.000000
    21  H    0.000731  -0.000557  -0.000178   0.000000   0.000000   0.000000
    22  O   -0.006290   0.017755   0.019914   0.000001   0.000000   0.000000
[...]
 Alpha virt. eigenvalues --    4.37941   4.38539   4.40742   4.41744   4.43113
 Alpha virt. eigenvalues --    4.44693   4.45753   4.48267   4.51616   4.52966
 Alpha virt. eigenvalues --    4.54342   4.54768   4.56803   4.57661   4.59454
 Alpha virt. eigenvalues --    4.61187   4.64121   4.65469   4.66596   4.68153
 Alpha virt. eigenvalues --    4.69132   4.69721   4.70348   4.71004   4.73269
 Alpha virt. eigenvalues --    4.73547   4.74576   4.76784   4.78097   4.79458
 Alpha virt. eigenvalues --    4.80332   4.80914   4.81851   4.83271   4.84154
 Alpha virt. eigenvalues --    4.84674   4.85957   4.87100   4.89420   4.89692
 Alpha virt. eigenvalues --    4.90779   4.94051   4.94734   4.95377   4.96051
 Alpha virt. eigenvalues --    4.97116   4.98183   4.99451   5.00364   5.01505
 Alpha virt. eigenvalues --    5.02888   5.04522   5.04593   5.05336   5.07431
 Alpha virt. eigenvalues --    5.08071   5.09448   5.11325   5.11688   5.12326
 Alpha virt. eigenvalues --    5.13827   5.14789   5.16022   5.17648   5.18577
 Alpha virt. eigenvalues --    5.19025   5.19753   5.20300   5.21809   5.22254
 Alpha virt. eigenvalues --    5.23807   5.24670   5.26581   5.27396   5.28174
 Alpha virt. eigenvalues --    5.29144   5.30366   5.30608   5.32692   5.33579
 Alpha virt. eigenvalues --    5.34240   5.34955   5.36941   5.39388   5.40992
 Alpha virt. eigenvalues --    5.42936   5.46689   5.50523   5.51546   5.56397
 Alpha virt. eigenvalues --    5.58645   5.59940   5.62230   5.64021   5.70907
 Alpha virt. eigenvalues --    5.72767   5.74863   5.76113   5.78646   5.78938
 Alpha virt. eigenvalues --    5.80612   5.80985   5.82122   5.83603   5.87120
 Alpha virt. eigenvalues --    5.88123   5.89091   5.91629   5.97238   5.97632
 Alpha virt. eigenvalues --    5.99381   6.01070   6.04550   6.06763   6.08374
 Alpha virt. eigenvalues --    6.22289   6.27331   6.36239   6.41100   6.50493
 Alpha virt. eigenvalues --    6.52358   6.54903   6.58285   6.66620   6.68930
 Alpha virt. eigenvalues --    6.88445   6.89827   6.92487   6.96075   7.09775
 Alpha virt. eigenvalues --    7.13532   7.17287   7.17867   9.45414  10.02247
 Alpha virt. eigenvalues --   11.55326  12.16025  12.40885  12.65677  12.96515
 Alpha virt. eigenvalues --   13.39405  13.53034  13.62672  13.72738  13.75068
 Alpha virt. eigenvalues --   13.97596
          Condensed to atoms (all electrons):
               1          2          3          4          5          6
     1  C    4.749913   0.148619  -0.051824  -0.000538   0.000023  -0.000006
     2  C    0.148619   5.438906   0.423071   0.008024  -0.000421   0.000746
     3  H   -0.051824   0.423071   0.451696  -0.000159   0.000018  -0.000007
     4  C   -0.000538   0.008024  -0.000159   5.105171   0.406961   0.401743
     5  H    0.000023  -0.000421   0.000018   0.406961   0.531508  -0.016850
     6  H   -0.000006   0.000746  -0.000007   0.401743  -0.016850   0.542606
     7  H    0.000034  -0.001207  -0.000033   0.406137  -0.027457  -0.029508
     8  O    0.678962  -0.089753   0.002626  -0.000035   0.000001   0.000002
     9  N   -0.065463   0.270088  -0.035726  -0.000434   0.000003  -0.000002
    10  H    0.004254  -0.041395   0.001252  -0.000794   0.000045   0.000001
    11  N    0.371689  -0.090030  -0.000857   0.000129   0.000005  -0.000031
    12  H   -0.022662   0.006431  -0.001166   0.000014   0.000000   0.000000
    13  C   -0.067975   0.010444  -0.001060  -0.000006   0.000000   0.000000
    14  H   -0.000936   0.001608   0.000106  -0.000011  -0.000001   0.000001
    15  H   -0.007464  -0.000922  -0.000288   0.000001   0.000000   0.000000
    16  H    0.007023   0.000606  -0.000109   0.000000   0.000000   0.000000
    17  C   -0.006524  -0.067060   0.002860   0.000012  -0.000002   0.000001
    18  C   -0.004028   0.013194   0.002250   0.000007   0.000000   0.000000
    19  H    0.000303   0.000598  -0.000349  -0.000003   0.000000   0.000000
    20  H   -0.000143  -0.000544   0.000164   0.000000   0.000000   0.000000
    21  H    0.000698  -0.000589  -0.000163   0.000000   0.000000   0.000000
    22  O   -0.002401   0.014830   0.018998   0.000000   0.000000   0.000000
    23  C   -0.006802  -0.014802   0.004734   0.296694  -0.037391  -0.037403
    24  H    0.004367  -0.007844  -0.000656  -0.023742  -0.005221  -0.005439
    25  C   -0.004417   0.002163   0.000203  -0.082239  -0.005240   0.008823
    26  H    0.001468  -0.006128  -0.000241  -0.010093  -0.000628   0.000038
    27  H   -0.006615   0.000937   0.000827   0.005890  -0.000029  -0.000249
    28  H   -0.000365  -0.000671   0.000096  -0.006956   0.004370  -0.000192
    29  C   -0.036591   0.221288  -0.028785  -0.070014   0.010065  -0.000212
    30  H    0.010843  -0.046014  -0.009576  -0.004244   0.000521  -0.002559
    31  H    0.001530  -0.034797  -0.008827  -0.003310  -0.000387   0.002020
               7          8          9         10         11         12
     1  C    0.000034   0.678962  -0.065463   0.004254   0.371689  -0.022662
     2  C   -0.001207  -0.089753   0.270088  -0.041395  -0.090030   0.006431
     3  H   -0.000033   0.002626  -0.035726   0.001252  -0.000857  -0.001166
     4  C    0.406137  -0.000035  -0.000434  -0.000794   0.000129   0.000014
     5  H   -0.027457   0.000001   0.000003   0.000045   0.000005   0.000000
     6  H   -0.029508   0.000002  -0.000002   0.000001  -0.000031   0.000000
     7  H    0.552369   0.000001   0.000084  -0.000003  -0.000008  -0.000002
     8  O    0.000001   7.862276   0.005161  -0.000948  -0.112504   0.004887
     9  N    0.000084   0.005161   6.534708   0.396474   0.005227   0.000613
    10  H   -0.000003  -0.000948   0.396474   0.480494  -0.000221  -0.000027
    11  N   -0.000008  -0.112504   0.005227  -0.000221   6.395532   0.383943
    12  H   -0.000002   0.004887   0.000613  -0.000027   0.383943   0.534370
    13  C    0.000000   0.006421  -0.000297   0.000028   0.301378  -0.032423
    14  H    0.000001   0.004495  -0.000023  -0.000006  -0.052136   0.003457
    15  H    0.000000   0.005653  -0.000048   0.000008  -0.044003   0.002197
    16  H    0.000000   0.001372   0.000008   0.000000  -0.027074  -0.008251
    17  C    0.000001   0.014977   0.331687  -0.020260  -0.000014  -0.000133
    18  C   -0.000002  -0.000326  -0.065076  -0.003184  -0.000078   0.000000
    19  H    0.000001   0.000001   0.012650  -0.000963   0.000010   0.000001
    20  H    0.000000   0.000035   0.000097  -0.000043   0.000004   0.000000
    21  H    0.000000   0.000286  -0.001503   0.000378   0.000002  -0.000002
    22  O    0.000000  -0.003282  -0.136348   0.004126  -0.002893  -0.000184
    23  C   -0.042421   0.002127  -0.000051  -0.001440  -0.003888  -0.000171
    24  H    0.006763  -0.001610  -0.000055   0.000234   0.003969  -0.000047
    25  C   -0.007775  -0.012542  -0.003951   0.002264  -0.001357   0.000215
    26  H    0.004745  -0.000305  -0.004129   0.002294  -0.000120  -0.000001
    27  H   -0.000042   0.027732   0.002781  -0.004217   0.001460  -0.000196
    28  H   -0.000055   0.000357   0.000852   0.000450   0.000021  -0.000001
    29  C   -0.009807  -0.001953  -0.056143   0.001234   0.011402  -0.000211
    30  H    0.003788  -0.000564   0.003105   0.002294   0.000536  -0.000217
    31  H    0.000321  -0.000114   0.004120   0.000309  -0.003176   0.002624
              13         14         15         16         17         18
     1  C   -0.067975  -0.000936  -0.007464   0.007023  -0.006524  -0.004028
     2  C    0.010444   0.001608  -0.000922   0.000606  -0.067060   0.013194
     3  H   -0.001060   0.000106  -0.000288  -0.000109   0.002860   0.002250
     4  C   -0.000006  -0.000011   0.000001   0.000000   0.000012   0.000007
     5  H    0.000000  -0.000001   0.000000   0.000000  -0.000002   0.000000
     6  H    0.000000   0.000001   0.000000   0.000000   0.000001   0.000000
     7  H    0.000000   0.000001   0.000000   0.000000   0.000001  -0.000002
     8  O    0.006421   0.004495   0.005653   0.001372   0.014977  -0.000326
     9  N   -0.000297  -0.000023  -0.000048   0.000008   0.331687  -0.065076
    10  H    0.000028  -0.000006   0.000008   0.000000  -0.020260  -0.003184
    11  N    0.301378  -0.052136  -0.044003  -0.027074  -0.000014  -0.000078
    12  H   -0.032423   0.003457   0.002197  -0.008251  -0.000133   0.000000
    13  C    4.764501   0.392976   0.403439   0.394955  -0.000217  -0.000007
    14  H    0.392976   0.629774  -0.056552  -0.029948  -0.000019   0.000000
    15  H    0.403439  -0.056552   0.600291  -0.024928   0.000060   0.000000
    16  H    0.394955  -0.029948  -0.024928   0.600533  -0.000007   0.000000
    17  C   -0.000217  -0.000019   0.000060  -0.000007   4.532539   0.281644
    18  C   -0.000007   0.000000   0.000000   0.000000   0.281644   5.000553
    19  H    0.000001   0.000000   0.000000   0.000000  -0.053870   0.392172
    20  H    0.000000   0.000000   0.000000   0.000000  -0.025650   0.384737
    21  H    0.000002   0.000000   0.000001   0.000000  -0.025031   0.388181
    22  O   -0.000189   0.000008   0.000074  -0.000003   0.723105  -0.071070
    23  C    0.000054   0.000427  -0.000044  -0.000022  -0.000718  -0.000140
    24  H    0.000139  -0.000501   0.000097  -0.000003  -0.000009  -0.000004
    25  C    0.000035   0.000052   0.000011   0.000003   0.000054   0.000108
    26  H    0.000003   0.000006   0.000000   0.000000   0.000204   0.000107
    27  H   -0.000198   0.000276  -0.000117  -0.000009   0.001247   0.000088
    28  H   -0.000011  -0.000001  -0.000001   0.000000   0.000027   0.000009
    29  C   -0.000790  -0.000726   0.000182  -0.000033   0.009206   0.000440
    30  H    0.000077  -0.000022   0.000015   0.000002  -0.000503  -0.000151
    31  H    0.000076  -0.000041   0.000028   0.000019  -0.000132   0.000037
              19         20         21         22         23         24
     1  C    0.000303  -0.000143   0.000698  -0.002401  -0.006802   0.004367
     2  C    0.000598  -0.000544  -0.000589   0.014830  -0.014802  -0.007844
     3  H   -0.000349   0.000164  -0.000163   0.018998   0.004734  -0.000656
     4  C   -0.000003   0.000000   0.000000   0.000000   0.296694  -0.023742
     5  H    0.000000   0.000000   0.000000   0.000000  -0.037391  -0.005221
     6  H    0.000000   0.000000   0.000000   0.000000  -0.037403  -0.005439
     7  H    0.000001   0.000000   0.000000   0.000000  -0.042421   0.006763
     8  O    0.000001   0.000035   0.000286  -0.003282   0.002127  -0.001610
     9  N    0.012650   0.000097  -0.001503  -0.136348  -0.000051  -0.000055
    10  H   -0.000963  -0.000043   0.000378   0.004126  -0.001440   0.000234
    11  N    0.000010   0.000004   0.000002  -0.002893  -0.003888   0.003969
    12  H    0.000001   0.000000  -0.000002  -0.000184  -0.000171  -0.000047
    13  C    0.000001   0.000000   0.000002  -0.000189   0.000054   0.000139
    14  H    0.000000   0.000000   0.000000   0.000008   0.000427  -0.000501
    15  H    0.000000   0.000000   0.000001   0.000074  -0.000044   0.000097
    16  H    0.000000   0.000000   0.000000  -0.000003  -0.000022  -0.000003
    17  C   -0.053870  -0.025650  -0.025031   0.723105  -0.000718  -0.000009
    18  C    0.392172   0.384737   0.388181  -0.071070  -0.000140  -0.000004
    19  H    0.603550  -0.027323  -0.024630   0.004616   0.000095   0.000002
    20  H   -0.027323   0.577287  -0.025328   0.002571   0.000001   0.000000
    21  H   -0.024630  -0.025328   0.565044   0.000905   0.000008   0.000001
    22  O    0.004616   0.002571   0.000905   7.852667  -0.000116  -0.000003
    23  C    0.000095   0.000001   0.000008  -0.000116   5.264812   0.410993
    24  H    0.000002   0.000000   0.000001  -0.000003   0.410993   0.526774
    25  C    0.000046   0.000019  -0.000036   0.000025   0.251662  -0.041283
    26  H    0.000140  -0.000028   0.000008   0.000018  -0.053470   0.008225
    27  H   -0.000031   0.000026  -0.000031  -0.000136  -0.023109  -0.006543
    28  H   -0.000012   0.000001  -0.000004   0.000000  -0.032045  -0.007529
    29  C   -0.000294   0.000011  -0.000011   0.002428   0.208885  -0.037045
    30  H    0.000003  -0.000038   0.000022  -0.000156  -0.049956   0.007387
    31  H   -0.000005  -0.000004   0.000000   0.000107  -0.046702  -0.006316
              25         26         27         28         29         30
     1  C   -0.004417   0.001468  -0.006615  -0.000365  -0.036591   0.010843
     2  C    0.002163  -0.006128   0.000937  -0.000671   0.221288  -0.046014
     3  H    0.000203  -0.000241   0.000827   0.000096  -0.028785  -0.009576
     4  C   -0.082239  -0.010093   0.005890  -0.006956  -0.070014  -0.004244
     5  H   -0.005240  -0.000628  -0.000029   0.004370   0.010065   0.000521
     6  H    0.008823   0.000038  -0.000249  -0.000192  -0.000212  -0.002559
     7  H   -0.007775   0.004745  -0.000042  -0.000055  -0.009807   0.003788
     8  O   -0.012542  -0.000305   0.027732   0.000357  -0.001953  -0.000564
     9  N   -0.003951  -0.004129   0.002781   0.000852  -0.056143   0.003105
    10  H    0.002264   0.002294  -0.004217   0.000450   0.001234   0.002294
    11  N   -0.001357  -0.000120   0.001460   0.000021   0.011402   0.000536
    12  H    0.000215  -0.000001  -0.000196  -0.000001  -0.000211  -0.000217
    13  C    0.000035   0.000003  -0.000198  -0.000011  -0.000790   0.000077
    14  H    0.000052   0.000006   0.000276  -0.000001  -0.000726  -0.000022
    15  H    0.000011   0.000000  -0.000117  -0.000001   0.000182   0.000015
    16  H    0.000003   0.000000  -0.000009   0.000000  -0.000033   0.000002
    17  C    0.000054   0.000204   0.001247   0.000027   0.009206  -0.000503
    18  C    0.000108   0.000107   0.000088   0.000009   0.000440  -0.000151
    19  H    0.000046   0.000140  -0.000031  -0.000012  -0.000294   0.000003
    20  H    0.000019  -0.000028   0.000026   0.000001   0.000011  -0.000038
    21  H   -0.000036   0.000008  -0.000031  -0.000004  -0.000011   0.000022
    22  O    0.000025   0.000018  -0.000136   0.000000   0.002428  -0.000156
    23  C    0.251662  -0.053470  -0.023109  -0.032045   0.208885  -0.049956
    24  H   -0.041283   0.008225  -0.006543  -0.007529  -0.037045   0.007387
    25  C    5.263664   0.399837   0.385323   0.397140  -0.035392  -0.003661
    26  H    0.399837   0.566197  -0.029828  -0.030928   0.004534   0.001673
    27  H    0.385323  -0.029828   0.459384  -0.002585  -0.006256  -0.000826
    28  H    0.397140  -0.030928  -0.002585   0.522893   0.007800  -0.000560
    29  C   -0.035392   0.004534  -0.006256   0.007800   5.436655   0.404353
    30  H   -0.003661   0.001673  -0.000826  -0.000560   0.404353   0.472676
    31  H    0.007003   0.000092  -0.000447  -0.000430   0.419039  -0.002585
              31
     1  C    0.001530
     2  C   -0.034797
     3  H   -0.008827
     4  C   -0.003310
     5  H   -0.000387
     6  H    0.002020
     7  H    0.000321
     8  O   -0.000114
     9  N    0.004120
    10  H    0.000309
    11  N   -0.003176
    12  H    0.002624
    13  C    0.000076
    14  H   -0.000041
    15  H    0.000028
    16  H    0.000019
    17  C   -0.000132
    18  C    0.000037
    19  H   -0.000005
    20  H   -0.000004
    21  H    0.000000
    22  O    0.000107
    23  C   -0.046702
    24  H   -0.006316
    25  C    0.007003
    26  H    0.000092
    27  H   -0.000447
    28  H   -0.000430
    29  C    0.419039
    30  H   -0.002585
    31  H    0.479233
 Mulliken charges:
               1
     1  C    0.305027
     2  C   -0.159374
     3  H    0.230924
     4  C   -0.428205
     5  H    0.140108
     6  H    0.136473
     7  H    0.144075
     8  O   -0.393435
     9  N   -0.198409
    10  H    0.177363
    11  N   -0.136915
    12  H    0.126940
    13  C   -0.171354
    14  H    0.107736
    15  H    0.122312
    16  H    0.085867
    17  C    0.302526
    18  C   -0.319462
    19  H    0.093290
    20  H    0.114149
    21  H    0.121793
    22  O   -0.407698
    23  C   -0.089801
    24  H    0.174899
    25  C   -0.520758
    26  H    0.146311
    27  H    0.195495
    28  H    0.148330
    29  C   -0.453259
    30  H    0.214336
    31  H    0.190714
 Sum of Mulliken charges =   0.00000
 Mulliken charges with hydrogens summed into heavy atoms:
               1
     1  C    0.305027
     2  C    0.071550
     4  C   -0.007549
     8  O   -0.393435
     9  N   -0.021046
    11  N   -0.009975
    13  C    0.144561
    17  C    0.302526
    18  C    0.009770
    22  O   -0.407698
    23  C    0.085098
    25  C   -0.030622
    29  C   -0.048209
 Electronic spatial extent (au):  <R**2>=           2888.4943
 Charge=              0.0000 electrons
 Dipole moment (field-independent basis, Debye):
    X=             -4.0042    Y=             -1.0866    Z=             -1.7902  Tot=              4.5187
 Quadrupole moment (field-independent basis, Debye-Ang):
   XX=            -86.8941   YY=            -68.1376   ZZ=            -82.1343
   XY=             -8.1805   XZ=              3.5119   YZ=             -5.2466
 Traceless Quadrupole moment (field-independent basis, Debye-Ang):
   XX=             -7.8388   YY=             10.9177   ZZ=             -3.0790
   XY=             -8.1805   XZ=              3.5119   YZ=             -5.2466
 Octapole moment (field-independent basis, Debye-Ang**2):
  XXX=            -10.5234  YYY=             37.4894  ZZZ=             -8.5473  XYY=              7.2518
  XXY=            -13.9711  XXZ=             15.7845  XZZ=             -1.8869  YZZ=              4.0827
  YYZ=             -5.1250  XYZ=              1.5825
 Hexadecapole moment (field-independent basis, Debye-Ang**3):
 XXXX=          -1964.6011 YYYY=          -1396.6947 ZZZZ=           -401.9028 XXXY=            -63.6492
 XXXZ=             30.1167 YYYX=            -38.7106 YYYZ=             -9.5847 ZZZX=             -1.6385
 ZZZY=            -15.4333 XXYY=           -556.7658 XXZZ=           -380.0509 YYZZ=           -317.8959
 XXYZ=             -1.2282 YYXZ=              1.8404 ZZXY=            -12.7027
 N-N= 8.762612187798D+02 E-N=-3.182221646639D+03  KE= 6.091205600614D+02
 Calculating spin-rotation constants.
 Leave Link  601 at Wed Jun 18 02:21:18 2014, MaxMem=  4294967296 cpu:        68.7
 (Enter /home/ztw1e12/g09/l9999.exe)

 Test job not archived.
 1\1\GINC-GREEN0719\SP\RM06\Gen\C9H18N2O2\ROOT\18-Jun-2014\0\\#P Geom=A
 llCheck Guess=TCheck SCRF=Check GenChk RM06/ChkBas NMR=ReadFC IOp(3/6=
 22)\\NMR spin-spin scan\\0,1\C,0,0.210171,1.262033,0.229656\C,0,0.1454
 47,0.069984,-0.724211\H,0,0.600786,0.411963,-1.658629\C,0,-3.341891,-1
 .591747,-0.502312\H,0,-4.137268,-1.776539,0.222347\H,0,-3.80243,-1.204
 846,-1.41472\H,0,-2.877635,-2.551462,-0.745345\O,0,0.570951,1.172509,1
 .399391\N,0,0.933614,-1.039174,-0.250981\H,0,0.471467,-1.842627,0.1435
 48\N,0,-0.163362,2.42472,-0.316026\H,0,-0.438672,2.443353,-1.285116\C,
 0,-0.198747,3.648235,0.450883\H,0,-0.930374,3.591031,1.257825\H,0,0.77
 615,3.861868,0.889229\H,0,-0.471298,4.467561,-0.207184\C,0,2.275673,-0
 .977078,-0.206191\C,0,2.978433,-2.17139,0.349822\H,0,2.305238,-2.99225
 8,0.587928\H,0,3.722951,-2.510519,-0.369495\H,0,3.509194,-1.871675,1.2
 53703\O,0,2.894932,0.007773,-0.606956\C,0,-2.295581,-0.640498,0.053506
 \H,0,-2.775978,0.297776,0.353015\C,0,-1.712043,-1.280374,1.305025\H,0,
 -1.297223,-2.269238,1.082611\H,0,-0.938846,-0.678466,1.78097\H,0,-2.50
 6272,-1.436626,2.038151\C,0,-1.290224,-0.326457,-1.063796\H,0,-1.19898
 4,-1.214182,-1.701225\H,0,-1.712554,0.449647,-1.705082\\Version=EM64L-
 G09RevD.01\State=1-A\HF=-613.5791227\RMSD=8.329e-09\Dipole=-1.5823031,
 -0.327379,-0.7414437\Quadrupole=-6.3537344,8.9609716,-2.6072372,-5.566
 1368,2.1264335,-3.5117887\PG=C01 [X(C9H18N2O2)]\\@


 THE SECRET OF SUCCESS IN LIFE IS TO EAT WHAT YOU LIKE, AND LET THE FOOD
 FIGHT IT OUT INSIDE YOU. -- FROM A FORTUNE COOKIE
 Job cpu time:       2 days 13 hours 20 minutes 35.9 seconds.
 File lengths (MBytes):  RWF=   2456 Int=      0 D2E=      0 Chk=     48 Scr=      8
 Normal termination of Gaussian 09 at Wed Jun 18 02:21:18 2014.
