 Entering Gaussian System, Link 0=g09
 Input=scan_input_26.gjf
 Output=scan_input_26.log
 Initial command:
 /home/ztw1e12/g09/l1.exe "/home/ztw1e12/leucine_scan/leucine_chi2_scan/Gau-23712.inp" -scrdir="/home/ztw1e12/leucine_scan/leucine_chi2_scan/"
 Default is to use a total of   8 processors:
                                8 via shared-memory
                                1 via Linda
 Entering Link 1 = /home/ztw1e12/g09/l1.exe PID=     23713.
  
 Copyright (c) 1988,1990,1992,1993,1995,1998,2003,2009,2013,
            Gaussian, Inc.  All Rights Reserved.
  
 This is part of the Gaussian(R) 09 program.  It is based on
 the Gaussian(R) 03 system (copyright 2003, Gaussian, Inc.),
 the Gaussian(R) 98 system (copyright 1998, Gaussian, Inc.),
 the Gaussian(R) 94 system (copyright 1995, Gaussian, Inc.),
 the Gaussian 92(TM) system (copyright 1992, Gaussian, Inc.),
 the Gaussian 90(TM) system (copyright 1990, Gaussian, Inc.),
 the Gaussian 88(TM) system (copyright 1988, Gaussian, Inc.),
 the Gaussian 86(TM) system (copyright 1986, Carnegie Mellon
 University), and the Gaussian 82(TM) system (copyright 1983,
 Carnegie Mellon University). Gaussian is a federally registered
 trademark of Gaussian, Inc.
  
 This software contains proprietary and confidential information,
 including trade secrets, belonging to Gaussian, Inc.
  
 This software is provided under written license and may be
 used, copied, transmitted, or stored only in accord with that
 written license.
  
 The following legend is applicable only to US Government
 contracts under FAR:
  
                    RESTRICTED RIGHTS LEGEND
  
 Use, reproduction and disclosure by the US Government is
 subject to restrictions as set forth in subparagraphs (a)
 and (c) of the Commercial Computer Software - Restricted
 Rights clause in FAR 52.227-19.
  
 Gaussian, Inc.
 340 Quinnipiac St., Bldg. 40, Wallingford CT 06492
  
  
 ---------------------------------------------------------------
 Warning -- This program may not be used in any manner that
 competes with the business of Gaussian, Inc. or will provide
 assistance to any competitor of Gaussian, Inc.  The licensee
 of this program is prohibited from giving any competitor of
 Gaussian, Inc. access to this program.  By using this program,
 the user acknowledges that Gaussian, Inc. is engaged in the
 business of creating and licensing software in the field of
 computational chemistry and represents and warrants to the
 licensee that it is not a competitor of Gaussian, Inc. and that
 it will not use this program in any manner prohibited above.
 ---------------------------------------------------------------
  

 Cite this work as:
 Gaussian 09, Revision D.01,
 M. J. Frisch, G. W. Trucks, H. B. Schlegel, G. E. Scuseria, 
 M. A. Robb, J. R. Cheeseman, G. Scalmani, V. Barone, B. Mennucci, 
 G. A. Petersson, H. Nakatsuji, M. Caricato, X. Li, H. P. Hratchian, 
 A. F. Izmaylov, J. Bloino, G. Zheng, J. L. Sonnenberg, M. Hada, 
 M. Ehara, K. Toyota, R. Fukuda, J. Hasegawa, M. Ishida, T. Nakajima, 
 Y. Honda, O. Kitao, H. Nakai, T. Vreven, J. A. Montgomery, Jr., 
 J. E. Peralta, F. Ogliaro, M. Bearpark, J. J. Heyd, E. Brothers, 
 K. N. Kudin, V. N. Staroverov, T. Keith, R. Kobayashi, J. Normand, 
 K. Raghavachari, A. Rendell, J. C. Burant, S. S. Iyengar, J. Tomasi, 
 M. Cossi, N. Rega, J. M. Millam, M. Klene, J. E. Knox, J. B. Cross, 
 V. Bakken, C. Adamo, J. Jaramillo, R. Gomperts, R. E. Stratmann, 
 O. Yazyev, A. J. Austin, R. Cammi, C. Pomelli, J. W. Ochterski, 
 R. L. Martin, K. Morokuma, V. G. Zakrzewski, G. A. Voth, 
 P. Salvador, J. J. Dannenberg, S. Dapprich, A. D. Daniels, 
 O. Farkas, J. B. Foresman, J. V. Ortiz, J. Cioslowski, 
 and D. J. Fox, Gaussian, Inc., Wallingford CT, 2013.
 
 ******************************************
 Gaussian 09:  EM64L-G09RevD.01 24-Apr-2013
                18-Jun-2014 
 ******************************************
 %Mem=32GB
 %NProcShared=16
 Will use up to   16 processors via shared memory.
 Default route:  MaxDisk=100GB
 ----------------------------------------------------------------------
 #p nmr=(giao,mixed,spinspin) m06/cc-pvtz scf=tight integral=(grid=ultr
 afine)
 ----------------------------------------------------------------------
 1/38=1/1;
 2/12=2,17=6,18=5,40=1/2;
 3/5=16,6=1,10=1100000,11=2,16=1,25=1,30=1,74=-54,75=-5/1,2,8,3;
 4//1;
 5/5=2,32=2,38=5/2;
 8/6=1,10=90,11=11/1;
 10/13=100,45=16,47=3/2;
 6/7=2,8=2,9=2,10=2,28=1/1;
 99/9=1/99;
 Leave Link    1 at Wed Jun 18 13:49:39 2014, MaxMem=  4294967296 cpu:         7.9
 (Enter /home/ztw1e12/g09/l101.exe)
 ------------------
 NMR spin-spin scan
 ------------------
 Symbolic Z-matrix:
 Charge =  0 Multiplicity = 1
 C                     0.59713   0.7926    0.57159 
 C                     0.18448   0.12643  -0.73718 
 H                     0.58992   0.75874  -1.53344 
 C                    -2.21277  -0.22624   1.41243 
 H                    -2.87825  -0.82799   2.03485 
 H                    -1.23885  -0.21131   1.90073 
 H                    -2.60862   0.79474   1.40506 
 O                     1.12239   0.17948   1.49623 
 N                     0.7827   -1.18     -0.86426 
 H                     0.20124  -1.99622  -0.75558 
 N                     0.35499   2.10628   0.62828 
 H                    -0.10009   2.55335  -0.15192 
 C                     0.5848    2.86343   1.83738 
 H                    -0.0262    2.48484   2.65947 
 H                     1.63113   2.81101   2.13773 
 H                     0.32586   3.90244   1.65814 
 C                     2.1068   -1.34557  -1.02198 
 C                     2.59607  -2.75522  -1.08916 
 H                     1.79571  -3.48964  -1.02871 
 H                     3.14389  -2.89486  -2.02052 
 H                     3.2967   -2.92102  -0.27088 
 O                     2.87631  -0.39006  -1.11701 
 C                    -2.1658   -0.78516   0.00138 
 H                    -1.75232  -1.80095   0.05066 
 C                    -3.57398  -0.88353  -0.55634 
 H                    -4.02091   0.113    -0.62938 
 H                    -3.5835   -1.3265   -1.55408 
 H                    -4.21379  -1.48738   0.08959 
 C                    -1.32361   0.04657  -0.96218 
 H                    -1.46458  -0.34541  -1.97372 
 H                    -1.72122   1.06745  -0.97681 
 
 NAtoms=     31 NQM=       31 NQMF=       0 NMMI=      0 NMMIF=      0
                NMic=       0 NMicF=      0.
                    Isotopes and Nuclear Properties:
 (Nuclear quadrupole moments (NQMom) in fm**2, nuclear magnetic moments (NMagM)
  in nuclear magnetons)

  Atom         1           2           3           4           5           6           7           8           9          10
 IAtWgt=          12          12           1          12           1           1           1          16          14           1
 AtmWgt=  12.0000000  12.0000000   1.0078250  12.0000000   1.0078250   1.0078250   1.0078250  15.9949146  14.0030740   1.0078250
 NucSpn=           0           0           1           0           1           1           1           0           2           1
 AtZEff=   0.0000000   0.0000000   0.0000000   0.0000000   0.0000000   0.0000000   0.0000000   0.0000000   0.0000000   0.0000000
 NQMom=    0.0000000   0.0000000   0.0000000   0.0000000   0.0000000   0.0000000   0.0000000   0.0000000   2.0440000   0.0000000
 NMagM=    0.0000000   0.0000000   2.7928460   0.0000000   2.7928460   2.7928460   2.7928460   0.0000000   0.4037610   2.7928460
 AtZNuc=   6.0000000   6.0000000   1.0000000   6.0000000   1.0000000   1.0000000   1.0000000   8.0000000   7.0000000   1.0000000

  Atom        11          12          13          14          15          16          17          18          19          20
 IAtWgt=          14           1          12           1           1           1          12          12           1           1
 AtmWgt=  14.0030740   1.0078250  12.0000000   1.0078250   1.0078250   1.0078250  12.0000000  12.0000000   1.0078250   1.0078250
 NucSpn=           2           1           0           1           1           1           0           0           1           1
 AtZEff=   0.0000000   0.0000000   0.0000000   0.0000000   0.0000000   0.0000000   0.0000000   0.0000000   0.0000000   0.0000000
 NQMom=    2.0440000   0.0000000   0.0000000   0.0000000   0.0000000   0.0000000   0.0000000   0.0000000   0.0000000   0.0000000
 NMagM=    0.4037610   2.7928460   0.0000000   2.7928460   2.7928460   2.7928460   0.0000000   0.0000000   2.7928460   2.7928460
 AtZNuc=   7.0000000   1.0000000   6.0000000   1.0000000   1.0000000   1.0000000   6.0000000   6.0000000   1.0000000   1.0000000

  Atom        21          22          23          24          25          26          27          28          29          30
 IAtWgt=           1          16          12           1          12           1           1           1          12           1
 AtmWgt=   1.0078250  15.9949146  12.0000000   1.0078250  12.0000000   1.0078250   1.0078250   1.0078250  12.0000000   1.0078250
 NucSpn=           1           0           0           1           0           1           1           1           0           1
 AtZEff=   0.0000000   0.0000000   0.0000000   0.0000000   0.0000000   0.0000000   0.0000000   0.0000000   0.0000000   0.0000000
 NQMom=    0.0000000   0.0000000   0.0000000   0.0000000   0.0000000   0.0000000   0.0000000   0.0000000   0.0000000   0.0000000
 NMagM=    2.7928460   0.0000000   0.0000000   2.7928460   0.0000000   2.7928460   2.7928460   2.7928460   0.0000000   2.7928460
 AtZNuc=   1.0000000   8.0000000   6.0000000   1.0000000   6.0000000   1.0000000   1.0000000   1.0000000   6.0000000   1.0000000

  Atom        31
 IAtWgt=           1
 AtmWgt=   1.0078250
 NucSpn=           1
 AtZEff=   0.0000000
 NQMom=    0.0000000
 NMagM=    2.7928460
 AtZNuc=   1.0000000
 Leave Link  101 at Wed Jun 18 13:49:39 2014, MaxMem=  4294967296 cpu:         1.6
 (Enter /home/ztw1e12/g09/l202.exe)
                          Input orientation:                          
 ---------------------------------------------------------------------
 Center     Atomic      Atomic             Coordinates (Angstroms)
 Number     Number       Type             X           Y           Z
 ---------------------------------------------------------------------
      1          6           0        0.597128    0.792604    0.571591
      2          6           0        0.184477    0.126434   -0.737182
      3          1           0        0.589916    0.758735   -1.533444
      4          6           0       -2.212767   -0.226242    1.412429
      5          1           0       -2.878253   -0.827987    2.034850
      6          1           0       -1.238846   -0.211314    1.900728
      7          1           0       -2.608620    0.794741    1.405055
      8          8           0        1.122386    0.179483    1.496231
      9          7           0        0.782697   -1.179999   -0.864257
     10          1           0        0.201244   -1.996224   -0.755582
     11          7           0        0.354988    2.106275    0.628279
     12          1           0       -0.100092    2.553345   -0.151923
     13          6           0        0.584796    2.863431    1.837376
     14          1           0       -0.026196    2.484837    2.659466
     15          1           0        1.631131    2.811011    2.137728
     16          1           0        0.325859    3.902437    1.658138
     17          6           0        2.106796   -1.345569   -1.021982
     18          6           0        2.596071   -2.755219   -1.089157
     19          1           0        1.795712   -3.489637   -1.028710
     20          1           0        3.143892   -2.894856   -2.020519
     21          1           0        3.296697   -2.921022   -0.270876
     22          8           0        2.876313   -0.390063   -1.117014
     23          6           0       -2.165795   -0.785155    0.001380
     24          1           0       -1.752318   -1.800954    0.050663
     25          6           0       -3.573981   -0.883527   -0.556337
     26          1           0       -4.020908    0.112998   -0.629383
     27          1           0       -3.583503   -1.326504   -1.554081
     28          1           0       -4.213792   -1.487383    0.089585
     29          6           0       -1.323613    0.046572   -0.962183
     30          1           0       -1.464577   -0.345408   -1.973723
     31          1           0       -1.721220    1.067454   -0.976808
 ---------------------------------------------------------------------
                    Distance matrix (angstroms):
                    1          2          3          4          5
     1  C    0.000000
     2  C    1.525434   0.000000
     3  H    2.105320   1.094632   0.000000
     4  C    3.104926   3.239134   4.183704   0.000000
     5  H    4.104353   4.239740   5.222892   1.091960   0.000000
     6  H    2.478963   3.016371   4.009851   1.089578   1.756681
     7  H    3.312324   3.582904   4.343582   1.095062   1.761417
     8  O    1.227507   2.422936   3.130174   3.360786   4.160555
     9  N    2.446887   1.442492   2.060016   3.881463   4.683085
    10  H    3.113788   2.122804   2.888933   3.696019   4.316780
    11  N    1.337003   2.411084   2.558144   3.556528   4.587176
    12  H    2.027263   2.512649   2.367559   3.825794   4.892194
    13  C    2.427074   3.778857   3.973940   4.189632   5.065399
    14  H    2.758878   4.140491   4.575972   3.699479   4.415787
    15  H    2.756069   4.191046   4.332836   4.952425   5.795467
    16  H    3.305334   4.473896   4.487626   4.852936   5.725832
    17  C    3.064369   2.437871   2.643977   5.083097   5.870505
    18  C    4.397830   3.774069   4.070617   5.981520   6.591044
    19  H    4.726008   3.969513   4.444926   5.716363   6.189970
    20  H    5.177104   4.419648   4.484280   6.899306   7.548788
    21  H    4.667809   4.380678   4.739341   6.359996   6.915719
    22  O    3.073235   2.767133   2.592443   5.685390   6.575793
    23  C    3.232369   2.626832   3.511869   1.518436   2.155094
    24  H    3.538051   2.843712   3.814114   2.132167   2.480200
    25  C    4.634629   3.895989   4.581463   2.482129   2.683537
    26  H    4.819799   4.206788   4.742784   2.748355   3.047827
    27  H    5.146530   4.120197   4.665412   3.448141   3.691385
    28  H    5.345617   4.757386   5.545708   2.710073   2.450005
    29  C    2.568710   1.526872   2.120167   2.550256   3.487688
    30  H    3.467610   2.114485   2.373588   3.469872   4.277852
    31  H    2.801396   2.138836   2.397186   2.761109   3.741859
                    6          7          8          9         10
     6  H    0.000000
     7  H    1.770344   0.000000
     8  O    2.427294   3.782494   0.000000
     9  N    3.559512   4.533256   2.745084   0.000000
    10  H    3.509380   4.511449   3.263873   1.008028   0.000000
    11  N    3.087175   3.332638   2.248281   3.634583   4.332344
    12  H    3.626772   3.436507   3.137847   3.901871   4.599324
    13  C    3.575436   3.829398   2.758434   4.866961   5.521484
    14  H    3.052120   3.331499   2.826130   5.148005   5.638634
    15  H    4.174612   4.751594   2.755953   5.065562   5.790106
    16  H    4.407959   4.281704   3.810650   5.692305   6.374620
    17  C    4.584985   5.718967   3.104230   1.343700   2.031120
    18  C    5.487937   6.775848   4.179528   2.412514   2.534273
    19  H    5.342055   6.608876   4.504568   2.527384   2.201638
    20  H    6.464207   7.644546   5.089752   3.138936   3.326677
    21  H    5.712227   7.175542   4.178927   3.115037   3.266806
    22  O    5.106197   6.152161   3.198389   2.251913   3.141079
    23  C    2.189989   2.159275   3.738615   3.098199   2.764517
    24  H    2.492659   3.050453   3.778322   2.765676   2.122396
    25  C    3.455705   2.756005   5.234395   4.377597   3.940827
    26  H    3.774455   2.568710   5.565620   4.980123   4.721368
    27  H    4.321663   3.769159   5.806702   4.422785   3.925613
    28  H    3.709298   3.084660   5.764711   5.095999   4.523911
    29  C    2.875752   2.795499   3.470501   2.439387   2.557516
    30  H    3.883337   3.744985   4.359870   2.641533   2.642730
    31  H    3.185615   2.556389   3.871758   3.366499   3.623663
                   11         12         13         14         15
    11  N    0.000000
    12  H    1.007812   0.000000
    13  C    1.444996   2.126625   0.000000
    14  H    2.101031   2.813194   1.092006   0.000000
    15  H    2.098483   2.882018   1.089851   1.767861   0.000000
    16  H    2.070666   2.297347   1.085683   1.770929   1.767753
    17  C    4.208018   4.563868   5.311129   5.724921   5.242822
    18  C    5.621936   6.027317   6.646732   6.956051   6.505906
    19  H    6.011283   6.393783   7.074054   7.253712   7.053480
    20  H    6.309154   6.610445   7.388518   7.803385   7.220553
    21  H    5.893712   6.443681   6.727483   6.989409   6.436745
    22  O    3.954090   4.295816   4.956278   5.563399   4.731881
    23  C    3.886865   3.928895   4.924308   4.726114   5.649163
    24  H    4.476697   4.661632   5.514611   5.305973   6.088825
    25  C    5.077305   4.903422   6.088102   5.854404   6.928260
    26  H    4.970245   4.642850   5.904430   5.692089   6.847023
    27  H    5.662012   5.399391   6.814122   6.703337   7.611891
    28  H    5.837664   5.771338   6.709009   6.318131   7.538846
    29  C    3.096716   2.904726   4.406160   4.554643   5.097262
    30  H    4.011481   3.685586   5.387119   5.616553   6.037418
    31  H    2.822427   2.348694   4.057447   4.254946   4.896793
                   16         17         18         19         20
    16  H    0.000000
    17  C    6.156001   0.000000
    18  C    7.551548   1.493658   0.000000
    19  H    8.001399   2.166529   1.087933   0.000000
    20  H    8.226604   2.114931   1.089514   1.776243   0.000000
    21  H    7.688079   2.112363   1.089932   1.774991   1.756498
    22  O    5.712429   1.230520   2.381864   3.283726   2.676174
    23  C    5.561178   4.429037   5.267427   4.906001   6.060667
    24  H    6.279448   4.031216   4.595465   4.074949   5.427641
    25  C    6.558819   5.718526   6.469673   5.987366   7.163734
    26  H    6.203788   6.311126   7.226512   6.853576   7.894099
    27  H    7.276214   5.715155   6.359600   5.821607   6.923520
    28  H    7.219345   6.419153   7.026455   6.432242   7.782611
    29  C    4.945153   3.702612   4.819759   4.715866   5.452584
    30  H    5.868583   3.828947   4.804010   4.626955   5.266864
    31  H    4.378425   4.525310   5.767534   5.756612   6.360703
                   21         22         23         24         25
    21  H    0.000000
    22  O    2.701560   0.000000
    23  C    5.871530   5.179745   0.000000
    24  H    5.181746   4.977781   1.097834   0.000000
    25  C    7.172105   6.493393   1.517799   2.128045   0.000000
    26  H    7.929763   6.932713   2.155455   3.045025   1.094597
    27  H    7.178179   6.541955   2.173112   2.480634   1.091702
    28  H    7.654587   7.275272   2.166840   2.481672   1.091428
    29  C    5.534599   4.225400   1.526268   2.150116   2.468593
    30  H    5.674787   4.424847   2.141522   2.509890   2.597718
    31  H    6.448703   4.825072   2.141649   3.047036   2.723205
                   26         27         28         29         30
    26  H    0.000000
    27  H    1.765943   0.000000
    28  H    1.765032   1.767706   0.000000
    29  C    2.718560   2.709757   3.436913   0.000000
    30  H    2.924417   2.372445   3.622089   1.093953   0.000000
    31  H    2.514012   3.087455   3.725225   1.095676   1.748109
                   31
    31  H    0.000000
 Stoichiometry    C9H18N2O2
 Framework group  C1[X(C9H18N2O2)]
 Deg. of freedom    87
 Full point group                 C1      NOp   1
 Largest Abelian subgroup         C1      NOp   1
 Largest concise Abelian subgroup C1      NOp   1
                         Standard orientation:                         
 ---------------------------------------------------------------------
 Center     Atomic      Atomic             Coordinates (Angstroms)
 Number     Number       Type             X           Y           Z
 ---------------------------------------------------------------------
      1          6           0        0.039726    1.188047    0.049262
      2          6           0        0.213012   -0.108849   -0.734947
      3          1           0        0.593319    0.186608   -1.717947
      4          6           0       -2.427045   -0.360775    1.124790
      5          1           0       -3.009002   -0.817072    1.928217
      6          1           0       -1.669809    0.268703    1.591194
      7          1           0       -3.106054    0.283331    0.556253
      8          8           0        0.469820    1.341865    1.188618
      9          7           0        1.201237   -0.959123   -0.117509
     10          1           0        0.897253   -1.788256    0.368550
     11          7           0       -0.607212    2.154964   -0.609614
     12          1           0       -0.958976    1.964850   -1.534710
     13          6           0       -0.949915    3.404115    0.030847
     14          1           0       -1.604056    3.238311    0.889383
     15          1           0       -0.056409    3.922766    0.377871
     16          1           0       -1.464661    4.038271   -0.684409
     17          6           0        2.503395   -0.629494   -0.082037
     18          6           0        3.408785   -1.577574    0.633804
     19          1           0        2.891891   -2.452481    1.022334
     20          1           0        4.195908   -1.897247   -0.048317
     21          1           0        3.886841   -1.048681    1.458234
     22          8           0        2.931981    0.391765   -0.618249
     23          6           0       -1.840884   -1.434993    0.225836
     24          1           0       -1.158343   -2.048556    0.828263
     25          6           0       -2.950462   -2.337374   -0.282354
     26          1           0       -3.651315   -1.763487   -0.896846
     27          1           0       -2.560071   -3.151918   -0.895482
     28          1           0       -3.514448   -2.774150    0.543698
     29          6           0       -1.080456   -0.883244   -0.977002
     30          1           0       -0.822452   -1.716791   -1.636825
     31          1           0       -1.759143   -0.243273   -1.551742
 ---------------------------------------------------------------------
 Rotational constants (GHZ):      0.8588165      0.6109896      0.4144543
 Leave Link  202 at Wed Jun 18 13:49:39 2014, MaxMem=  4294967296 cpu:         2.0
 (Enter /home/ztw1e12/g09/l301.exe)
 Standard basis: CC-pVTZ (5D, 7F)
 Converting basis for Fermi contact spin-spin IFCMod=1.
 AO basis functions are being uncontracted.
 Ernie: Thresh=  0.10000D-02 Tol=  0.10000D-05 Strict=F.
 There are  1119 symmetry adapted cartesian basis functions of A   symmetry.
 There are  1036 symmetry adapted basis functions of A   symmetry.
  1036 basis functions,  1119 primitive gaussians,  1119 cartesian basis functions
    51 alpha electrons       51 beta electrons
       nuclear repulsion energy       875.2928370967 Hartrees.
 IExCor= 4235 DFT=T Ex+Corr=M06 ExCW=0 ScaHFX=  0.270000
 ScaDFX=  1.000000  1.000000  1.000000  1.000000 ScalE2=  1.000000  1.000000
 IRadAn= 199590 IRanWt=     -1 IRanGd=            0 ICorTp=0 IEmpDi=  4
 NAtoms=   31 NActive=   31 NUniq=   31 SFac= 1.00D+00 NAtFMM=   60 NAOKFM=F Big=F
 Integral buffers will be    131072 words long.
 Raffenetti 2 integral format.
 Two-electron integral symmetry is turned on.
 Leave Link  301 at Wed Jun 18 13:49:40 2014, MaxMem=  4294967296 cpu:         4.6
 (Enter /home/ztw1e12/g09/l302.exe)
 NPDir=0 NMtPBC=     1 NCelOv=     1 NCel=       1 NClECP=     1 NCelD=      1
         NCelK=      1 NCelE2=     1 NClLst=     1 CellRange=     0.0.
 One-electron integrals computed using PRISM.
 GSVD:  received Info=                   1 from GESDD.
 NBasis=  1036 RedAO= T EigKep=  1.03D-04  NBF=  1036
 NBsUse=   932 1.00D-06 EigRej=  6.44D-15 NBFU=   932
 Precomputing XC quadrature grid using
 IXCGrd= 4 IRadAn=      199590 IRanWt=          -1 IRanGd=           0 AccXCQ= 0.00D+00.
 Generated NRdTot=       0 NPtTot=           0 NUsed=           0 NTot=          32
 NSgBfM=   881   881   881   881   881 MxSgAt=    31 MxSgA2=    31.
 Leave Link  302 at Wed Jun 18 13:49:44 2014, MaxMem=  4294967296 cpu:        65.2
 (Enter /home/ztw1e12/g09/l308.exe)
 Leave Link  308 at Wed Jun 18 13:49:45 2014, MaxMem=  4294967296 cpu:         5.8
 (Enter /home/ztw1e12/g09/l303.exe)
 DipDrv:  MaxL=1.
 Leave Link  303 at Wed Jun 18 13:49:45 2014, MaxMem=  4294967296 cpu:         3.8
 (Enter /home/ztw1e12/g09/l401.exe)
 ExpMin= 1.03D-01 ExpMax= 1.38D+05 ExpMxC= 1.38D+05 IAcc=4 IRadAn=    199590 AccDes= 0.00D+00
 Harris functional with IExCor= 1009 and IRadAn=  199590 diagonalized for initial guess.
 HarFok:  IExCor= 1009 AccDes= 0.00D+00 IRadAn=    199590 IDoV= 1 UseB2=F ITyADJ=14
 ICtDFT=  3500011 ScaDFX=  1.000000  1.000000  1.000000  1.000000
 FoFCou: FMM=F IPFlag=           0 FMFlag=      100000 FMFlg1=           0
         NFxFlg=           0 DoJE=T BraDBF=F KetDBF=T FulRan=T
         wScrn=  0.000000 ICntrl=     500 IOpCl=  0 I1Cent=   200000004 NGrid=           0
         NMat0=    1 NMatS0=      1 NMatT0=    0 NMatD0=    1 NMtDS0=    0 NMtDT0=    0
 Petite list used in FoFCou.
 Harris En= -613.565158744282    
 JPrj=0 DoOrth=F DoCkMO=F.
 Leave Link  401 at Wed Jun 18 13:50:03 2014, MaxMem=  4294967296 cpu:       261.6
 (Enter /home/ztw1e12/g09/l502.exe)
 Closed shell SCF:
 Using DIIS extrapolation, IDIIS=  1040.
 Integral symmetry usage will be decided dynamically.
 IVT=     3801329 IEndB=     3801329 NGot=  4294967296 MDV=  4292435888
 LenX=  4292435888 LenY=  4291182608
 Requested convergence on RMS density matrix=1.00D-08 within 128 cycles.
 Requested convergence on MAX density matrix=1.00D-06.
 Requested convergence on             energy=1.00D-06.
 No special actions if energy rises.
 Fock matrices will be formed incrementally for  20 cycles.
 Integral accuracy reduced to 1.0D-05 until final iterations.

 Cycle   1  Pass 0  IDiag  1:
 FoFJK:  IHMeth= 1 ICntrl=       0 DoSepK=F KAlg= 0 I1Cent=   0 FoldK=F
 IRaf= 480000000 NMat=   1 IRICut=       1 DoRegI=T DoRafI=F ISym2E= 0.
 FoFCou: FMM=F IPFlag=           0 FMFlag=      100000 FMFlg1=           0
         NFxFlg=           0 DoJE=F BraDBF=F KetDBF=F FulRan=T
         wScrn=  0.000000 ICntrl=       0 IOpCl=  0 I1Cent=           0 NGrid=           0
         NMat0=    1 NMatS0=      1 NMatT0=    0 NMatD0=    1 NMtDS0=    0 NMtDT0=    0
 Symmetry not used in FoFCou.
 E= -613.181707608293    
 DIIS: error= 1.40D-01 at cycle   1 NSaved=   1.
 NSaved= 1 IEnMin= 1 EnMin= -613.181707608293     IErMin= 1 ErrMin= 1.40D-01
 ErrMax= 1.40D-01  0.00D+00 EMaxC= 1.00D-01 BMatC= 1.30D+01 BMatP= 1.30D+01
 IDIUse=3 WtCom= 0.00D+00 WtEn= 1.00D+00
 Coeff-Com:  0.100D+01
 Coeff-En:   0.100D+01
 Coeff:      0.100D+01
 Gap=     0.287 Goal=   None    Shift=    0.000
 GapD=    0.287 DampG=1.000 DampE=0.250 DampFc=0.2500 IDamp=-1.
 Damping current iteration by 2.50D-01
 RMSDP=2.19D-03 MaxDP=3.16D-01              OVMax= 2.87D-01

 Cycle   2  Pass 0  IDiag  1:
 RMSU=  5.47D-04    CP:  1.01D+00
 E= -613.339554696508     Delta-E=       -0.157847088215 Rises=F Damp=T
 DIIS: error= 1.06D-01 at cycle   2 NSaved=   2.
 NSaved= 2 IEnMin= 2 EnMin= -613.339554696508     IErMin= 2 ErrMin= 1.06D-01
 ErrMax= 1.06D-01  0.00D+00 EMaxC= 1.00D-01 BMatC= 7.66D+00 BMatP= 1.30D+01
 IDIUse=3 WtCom= 0.00D+00 WtEn= 1.00D+00
 Coeff-Com: -0.279D+01 0.379D+01
 Coeff-En:   0.000D+00 0.100D+01
 Coeff:      0.000D+00 0.100D+01
 Gap=     0.217 Goal=   None    Shift=    0.000
 RMSDP=5.95D-04 MaxDP=4.75D-02 DE=-1.58D-01 OVMax= 1.36D-01

 Cycle   3  Pass 0  IDiag  1:
 RMSU=  4.41D-04    CP:  1.03D+00  1.73D+00
 E= -613.530197485430     Delta-E=       -0.190642788922 Rises=F Damp=F
 DIIS: error= 1.61D-02 at cycle   3 NSaved=   3.
 NSaved= 3 IEnMin= 3 EnMin= -613.530197485430     IErMin= 3 ErrMin= 1.61D-02
 ErrMax= 1.61D-02  0.00D+00 EMaxC= 1.00D-01 BMatC= 2.31D-01 BMatP= 7.66D+00
 IDIUse=3 WtCom= 8.39D-01 WtEn= 1.61D-01
 Coeff-Com:  0.122D+01-0.166D+01 0.145D+01
 Coeff-En:   0.137D+00 0.000D+00 0.863D+00
 Coeff:      0.104D+01-0.140D+01 0.135D+01
 Gap=     0.249 Goal=   None    Shift=    0.000
 RMSDP=4.21D-04 MaxDP=3.46D-02 DE=-1.91D-01 OVMax= 6.44D-02

 Cycle   4  Pass 0  IDiag  1:
 RMSU=  2.67D-04    CP:  1.03D+00  1.18D+00  7.05D-01
 E= -613.546761572930     Delta-E=       -0.016564087500 Rises=F Damp=F
 DIIS: error= 8.78D-03 at cycle   4 NSaved=   4.
 NSaved= 4 IEnMin= 4 EnMin= -613.546761572930     IErMin= 4 ErrMin= 8.78D-03
 ErrMax= 8.78D-03  0.00D+00 EMaxC= 1.00D-01 BMatC= 1.02D-01 BMatP= 2.31D-01
 IDIUse=3 WtCom= 9.12D-01 WtEn= 8.78D-02
 Coeff-Com:  0.741D+00-0.102D+01 0.739D+00 0.541D+00
 Coeff-En:   0.000D+00 0.000D+00 0.440D+00 0.560D+00
 Coeff:      0.676D+00-0.931D+00 0.712D+00 0.543D+00
 Gap=     0.279 Goal=   None    Shift=    0.000
 RMSDP=2.71D-04 MaxDP=1.87D-02 DE=-1.66D-02 OVMax= 6.99D-02

 Cycle   5  Pass 0  IDiag  1:
 RMSU=  8.20D-05    CP:  1.02D+00  1.10D+00  8.58D-01  8.31D-02
 E= -613.617345359471     Delta-E=       -0.070583786541 Rises=F Damp=F
 DIIS: error= 2.83D-03 at cycle   5 NSaved=   5.
 NSaved= 5 IEnMin= 5 EnMin= -613.617345359471     IErMin= 5 ErrMin= 2.83D-03
 ErrMax= 2.83D-03  0.00D+00 EMaxC= 1.00D-01 BMatC= 1.40D-02 BMatP= 1.02D-01
 IDIUse=3 WtCom= 9.72D-01 WtEn= 2.83D-02
 Coeff-Com:  0.121D+00-0.174D+00 0.125D+00 0.272D+00 0.655D+00
 Coeff-En:   0.000D+00 0.000D+00 0.000D+00 0.816D-01 0.918D+00
 Coeff:      0.118D+00-0.169D+00 0.122D+00 0.267D+00 0.663D+00
 Gap=     0.270 Goal=   None    Shift=    0.000
 RMSDP=1.49D-04 MaxDP=1.38D-02 DE=-7.06D-02 OVMax= 2.74D-02

 Cycle   6  Pass 0  IDiag  1:
 RMSU=  7.72D-05    CP:  1.03D+00  1.17D+00  9.33D-01  4.80D-01  3.92D-01
 E= -613.625289437053     Delta-E=       -0.007944077583 Rises=F Damp=F
 DIIS: error= 8.57D-04 at cycle   6 NSaved=   6.
 NSaved= 6 IEnMin= 6 EnMin= -613.625289437053     IErMin= 6 ErrMin= 8.57D-04
 ErrMax= 8.57D-04  0.00D+00 EMaxC= 1.00D-01 BMatC= 1.06D-03 BMatP= 1.40D-02
 IDIUse=3 WtCom= 9.91D-01 WtEn= 8.57D-03
 Coeff-Com:  0.544D-01-0.739D-01 0.164D-01 0.438D-01 0.205D+00 0.755D+00
 Coeff-En:   0.000D+00 0.000D+00 0.000D+00 0.000D+00 0.106D-01 0.989D+00
 Coeff:      0.540D-01-0.733D-01 0.163D-01 0.434D-01 0.203D+00 0.757D+00
 Gap=     0.269 Goal=   None    Shift=    0.000
 RMSDP=3.15D-05 MaxDP=2.95D-03 DE=-7.94D-03 OVMax= 8.32D-03

 Cycle   7  Pass 0  IDiag  1:
 RMSU=  2.09D-05    CP:  1.03D+00  1.13D+00  9.31D-01  4.76D-01  5.30D-01
                    CP:  1.08D+00
 E= -613.625879072394     Delta-E=       -0.000589635341 Rises=F Damp=F
 DIIS: error= 4.36D-04 at cycle   7 NSaved=   7.
 NSaved= 7 IEnMin= 7 EnMin= -613.625879072394     IErMin= 7 ErrMin= 4.36D-04
 ErrMax= 4.36D-04  0.00D+00 EMaxC= 1.00D-01 BMatC= 2.11D-04 BMatP= 1.06D-03
 IDIUse=3 WtCom= 9.96D-01 WtEn= 4.36D-03
 Coeff-Com:  0.372D-01-0.499D-01 0.113D-01 0.821D-02 0.610D-01 0.414D+00
 Coeff-Com:  0.519D+00
 Coeff-En:   0.000D+00 0.000D+00 0.000D+00 0.000D+00 0.000D+00 0.920D-01
 Coeff-En:   0.908D+00
 Coeff:      0.370D-01-0.497D-01 0.112D-01 0.817D-02 0.608D-01 0.412D+00
 Coeff:      0.520D+00
 Gap=     0.269 Goal=   None    Shift=    0.000
 RMSDP=1.10D-05 MaxDP=9.72D-04 DE=-5.90D-04 OVMax= 2.73D-03

 Cycle   8  Pass 0  IDiag  1:
 RMSU=  6.45D-06    CP:  1.03D+00  1.13D+00  9.37D-01  4.87D-01  5.20D-01
                    CP:  1.13D+00  6.85D-01
 E= -613.626023821810     Delta-E=       -0.000144749416 Rises=F Damp=F
 DIIS: error= 1.22D-04 at cycle   8 NSaved=   8.
 NSaved= 8 IEnMin= 8 EnMin= -613.626023821810     IErMin= 8 ErrMin= 1.22D-04
 ErrMax= 1.22D-04  0.00D+00 EMaxC= 1.00D-01 BMatC= 2.39D-05 BMatP= 2.11D-04
 IDIUse=3 WtCom= 9.99D-01 WtEn= 1.22D-03
 Coeff-Com:  0.202D-01-0.271D-01 0.777D-02-0.285D-02 0.418D-02 0.160D+00
 Coeff-Com:  0.297D+00 0.541D+00
 Coeff-En:   0.000D+00 0.000D+00 0.000D+00 0.000D+00 0.000D+00 0.000D+00
 Coeff-En:   0.000D+00 0.100D+01
 Coeff:      0.202D-01-0.270D-01 0.776D-02-0.285D-02 0.417D-02 0.160D+00
 Coeff:      0.297D+00 0.541D+00
 Gap=     0.269 Goal=   None    Shift=    0.000
 RMSDP=5.17D-06 MaxDP=5.50D-04 DE=-1.45D-04 OVMax= 1.15D-03

 Initial convergence to 1.0D-05 achieved.  Increase integral accuracy.
 Cycle   9  Pass 1  IDiag  1:
 E= -613.626051783799     Delta-E=       -0.000027961989 Rises=F Damp=F
 DIIS: error= 6.92D-05 at cycle   1 NSaved=   1.
 NSaved= 1 IEnMin= 1 EnMin= -613.626051783799     IErMin= 1 ErrMin= 6.92D-05
 ErrMax= 6.92D-05  0.00D+00 EMaxC= 1.00D-01 BMatC= 1.24D-05 BMatP= 1.24D-05
 IDIUse=1 WtCom= 1.00D+00 WtEn= 0.00D+00
 Coeff-Com:  0.100D+01
 Coeff:      0.100D+01
 Gap=     0.270 Goal=   None    Shift=    0.000
 RMSDP=5.17D-06 MaxDP=5.50D-04 DE=-2.80D-05 OVMax= 1.32D-03

 Cycle  10  Pass 1  IDiag  1:
 RMSU=  2.82D-05    CP:  1.00D+00
 E= -613.626048898834     Delta-E=        0.000002884964 Rises=F Damp=F
 DIIS: error= 1.16D-04 at cycle   2 NSaved=   2.
 NSaved= 2 IEnMin= 1 EnMin= -613.626051783799     IErMin= 1 ErrMin= 6.92D-05
 ErrMax= 1.16D-04  0.00D+00 EMaxC= 1.00D-01 BMatC= 1.42D-05 BMatP= 1.24D-05
 IDIUse=3 WtCom= 4.81D-01 WtEn= 5.19D-01
 Coeff-Com:  0.522D+00 0.478D+00
 Coeff-En:   0.597D+00 0.403D+00
 Coeff:      0.561D+00 0.439D+00
 Gap=     0.269 Goal=   None    Shift=    0.000
 RMSDP=3.91D-06 MaxDP=5.19D-04 DE= 2.88D-06 OVMax= 1.18D-03

 Cycle  11  Pass 1  IDiag  1:
 RMSU=  3.87D-06    CP:  1.00D+00  9.86D-01
 E= -613.626057661312     Delta-E=       -0.000008762477 Rises=F Damp=F
 DIIS: error= 4.50D-05 at cycle   3 NSaved=   3.
 NSaved= 3 IEnMin= 3 EnMin= -613.626057661312     IErMin= 3 ErrMin= 4.50D-05
 ErrMax= 4.50D-05  0.00D+00 EMaxC= 1.00D-01 BMatC= 1.87D-06 BMatP= 1.24D-05
 IDIUse=1 WtCom= 1.00D+00 WtEn= 0.00D+00
 Coeff-Com:  0.453D-01 0.265D+00 0.690D+00
 Coeff:      0.453D-01 0.265D+00 0.690D+00
 Gap=     0.269 Goal=   None    Shift=    0.000
 RMSDP=1.10D-06 MaxDP=1.08D-04 DE=-8.76D-06 OVMax= 3.21D-04

 Cycle  12  Pass 1  IDiag  1:
 RMSU=  4.87D-07    CP:  1.00D+00  1.00D+00  7.79D-01
 E= -613.626058906756     Delta-E=       -0.000001245445 Rises=F Damp=F
 DIIS: error= 1.07D-05 at cycle   4 NSaved=   4.
 NSaved= 4 IEnMin= 4 EnMin= -613.626058906756     IErMin= 4 ErrMin= 1.07D-05
 ErrMax= 1.07D-05  0.00D+00 EMaxC= 1.00D-01 BMatC= 9.03D-08 BMatP= 1.87D-06
 IDIUse=1 WtCom= 1.00D+00 WtEn= 0.00D+00
 Coeff-Com:  0.310D-02 0.110D+00 0.331D+00 0.555D+00
 Coeff:      0.310D-02 0.110D+00 0.331D+00 0.555D+00
 Gap=     0.269 Goal=   None    Shift=    0.000
 RMSDP=2.25D-07 MaxDP=2.07D-05 DE=-1.25D-06 OVMax= 5.13D-05

 Cycle  13  Pass 1  IDiag  1:
 RMSU=  1.95D-07    CP:  1.00D+00  1.00D+00  7.84D-01  7.86D-01
 E= -613.626058967195     Delta-E=       -0.000000060439 Rises=F Damp=F
 DIIS: error= 2.71D-06 at cycle   5 NSaved=   5.
 NSaved= 5 IEnMin= 5 EnMin= -613.626058967195     IErMin= 5 ErrMin= 2.71D-06
 ErrMax= 2.71D-06  0.00D+00 EMaxC= 1.00D-01 BMatC= 7.31D-09 BMatP= 9.03D-08
 IDIUse=1 WtCom= 1.00D+00 WtEn= 0.00D+00
 Coeff-Com: -0.235D-02 0.328D-01 0.106D+00 0.277D+00 0.587D+00
 Coeff:     -0.235D-02 0.328D-01 0.106D+00 0.277D+00 0.587D+00
 Gap=     0.269 Goal=   None    Shift=    0.000
 RMSDP=7.41D-08 MaxDP=6.03D-06 DE=-6.04D-08 OVMax= 1.57D-05

 Cycle  14  Pass 1  IDiag  1:
 RMSU=  4.21D-08    CP:  1.00D+00  1.01D+00  7.87D-01  8.92D-01  8.80D-01
 E= -613.626058972258     Delta-E=       -0.000000005063 Rises=F Damp=F
 DIIS: error= 4.95D-07 at cycle   6 NSaved=   6.
 NSaved= 6 IEnMin= 6 EnMin= -613.626058972258     IErMin= 6 ErrMin= 4.95D-07
 ErrMax= 4.95D-07  0.00D+00 EMaxC= 1.00D-01 BMatC= 3.18D-10 BMatP= 7.31D-09
 IDIUse=1 WtCom= 1.00D+00 WtEn= 0.00D+00
 Coeff-Com: -0.112D-02 0.893D-02 0.294D-01 0.952D-01 0.255D+00 0.613D+00
 Coeff:     -0.112D-02 0.893D-02 0.294D-01 0.952D-01 0.255D+00 0.613D+00
 Gap=     0.269 Goal=   None    Shift=    0.000
 RMSDP=2.17D-08 MaxDP=1.96D-06 DE=-5.06D-09 OVMax= 7.60D-06

 Cycle  15  Pass 1  IDiag  1:
 RMSU=  1.93D-08    CP:  1.00D+00  1.01D+00  7.88D-01  9.04D-01  9.02D-01
                    CP:  8.58D-01
 E= -613.626058972387     Delta-E=       -0.000000000129 Rises=F Damp=F
 DIIS: error= 4.07D-07 at cycle   7 NSaved=   7.
 NSaved= 7 IEnMin= 7 EnMin= -613.626058972387     IErMin= 7 ErrMin= 4.07D-07
 ErrMax= 4.07D-07  0.00D+00 EMaxC= 1.00D-01 BMatC= 1.45D-10 BMatP= 3.18D-10
 IDIUse=1 WtCom= 1.00D+00 WtEn= 0.00D+00
 Coeff-Com: -0.242D-03-0.105D-02-0.313D-02 0.350D-02 0.405D-01 0.419D+00
 Coeff-Com:  0.542D+00
 Coeff:     -0.242D-03-0.105D-02-0.313D-02 0.350D-02 0.405D-01 0.419D+00
 Coeff:      0.542D+00
 Gap=     0.269 Goal=   None    Shift=    0.000
 RMSDP=1.54D-08 MaxDP=1.91D-06 DE=-1.29D-10 OVMax= 3.05D-06

 Cycle  16  Pass 1  IDiag  1:
 RMSU=  6.72D-09    CP:  1.00D+00  1.01D+00  7.88D-01  9.18D-01  9.26D-01
                    CP:  1.05D+00  6.98D-01
 E= -613.626058972558     Delta-E=       -0.000000000171 Rises=F Damp=F
 DIIS: error= 1.02D-07 at cycle   8 NSaved=   8.
 NSaved= 8 IEnMin= 8 EnMin= -613.626058972558     IErMin= 8 ErrMin= 1.02D-07
 ErrMax= 1.02D-07  0.00D+00 EMaxC= 1.00D-01 BMatC= 9.86D-12 BMatP= 1.45D-10
 IDIUse=1 WtCom= 1.00D+00 WtEn= 0.00D+00
 Coeff-Com:  0.298D-05-0.164D-02-0.516D-02-0.939D-02-0.945D-02 0.155D+00
 Coeff-Com:  0.286D+00 0.585D+00
 Coeff:      0.298D-05-0.164D-02-0.516D-02-0.939D-02-0.945D-02 0.155D+00
 Coeff:      0.286D+00 0.585D+00
 Gap=     0.269 Goal=   None    Shift=    0.000
 RMSDP=3.22D-09 MaxDP=3.82D-07 DE=-1.71D-10 OVMax= 5.75D-07

 SCF Done:  E(RM06) =  -613.626058973     A.U. after   16 cycles
            NFock= 16  Conv=0.32D-08     -V/T= 2.0046
 KE= 6.108032140911D+02 PE=-3.182000658237D+03 EE= 1.082278548077D+03
 Leave Link  502 at Wed Jun 18 14:18:32 2014, MaxMem=  4294967296 cpu:     27272.5
 (Enter /home/ztw1e12/g09/l801.exe)
 DoSCS=F DFT=T ScalE2(SS,OS)=  1.000000  1.000000
 Range of M.O.s used for correlation:     1   932
 NBasis=  1036 NAE=    51 NBE=    51 NFC=     0 NFV=     0
 NROrb=    932 NOA=    51 NOB=    51 NVA=   881 NVB=   881

 **** Warning!!: The largest alpha MO coefficient is  0.10939331D+02

 Leave Link  801 at Wed Jun 18 14:18:32 2014, MaxMem=  4294967296 cpu:         0.4
 (Enter /home/ztw1e12/g09/l1002.exe)
 Minotr:  Closed shell wavefunction.
          IDoAtm=1111111111111111111111111111111
          Direct CPHF calculation.
          Differentiating once with respect to Fermi-contact.
          Electric field/nuclear overlap derivatives assumed to be zero.
          Requested convergence is 1.0D-10 RMS, and 1.0D-09 maximum.
          Secondary convergence is 1.0D-12 RMS, and 1.0D-12 maximum.
          NewPWx=T KeepS1=F KeepF1=F KeepIn=T MapXYZ=F SortEE=F KeepMc=T.
          MDV=    4294966050 using IRadAn=  199590.
 Using stored XC quadrature information.
          Solving linear equations simultaneously, MaxMat=       0.
          There are    31 degrees of freedom in the 1st order CPHF.  IDoFFX=0 NUNeed=    31.
     31 vectors produced by pass  0 Test12= 1.45D-17 3.23D-11 XBig12= 4.16D+01 2.57D+00.
 AX will form    31 AO Fock derivatives at one time.
 FoFJK:  IHMeth= 1 ICntrl=       0 DoSepK=F KAlg= 0 I1Cent=   0 FoldK=F
 IRaf= 500000000 NMat=  31 IRICut=       1 DoRegI=T DoRafI=F ISym2E=-1.
 FoFCou: FMM=F IPFlag=           0 FMFlag=      100000 FMFlg1=           0
         NFxFlg=           0 DoJE=F BraDBF=F KetDBF=F FulRan=T
         wScrn=  0.000000 ICntrl=       0 IOpCl=  0 I1Cent=           0 NGrid=           0
         NMat0=   31 NMatS0=      0 NMatT0=   31 NMatD0=   31 NMtDS0=    0 NMtDT0=    0
 Petite list used in FoFCou.
     31 vectors produced by pass  1 Test12= 1.45D-17 3.23D-11 XBig12= 3.44D-01 1.76D-01.
     31 vectors produced by pass  2 Test12= 1.45D-17 3.23D-11 XBig12= 1.65D-02 4.67D-02.
     31 vectors produced by pass  3 Test12= 1.45D-17 3.23D-11 XBig12= 3.60D-04 6.23D-03.
     31 vectors produced by pass  4 Test12= 1.45D-17 3.23D-11 XBig12= 5.02D-06 8.87D-04.
     31 vectors produced by pass  5 Test12= 1.45D-17 3.23D-11 XBig12= 1.01D-07 1.50D-04.
     31 vectors produced by pass  6 Test12= 1.45D-17 3.23D-11 XBig12= 2.88D-09 1.59D-05.
     31 vectors produced by pass  7 Test12= 1.45D-17 3.23D-11 XBig12= 9.44D-11 4.04D-06.
     31 vectors produced by pass  8 Test12= 1.45D-17 3.23D-11 XBig12= 2.20D-12 3.33D-07.
     31 vectors produced by pass  9 Test12= 1.45D-17 3.23D-11 XBig12= 5.67D-14 8.52D-08.
     31 vectors produced by pass 10 Test12= 1.45D-17 3.23D-11 XBig12= 2.35D-15 9.27D-09.
     30 vectors produced by pass 11 Test12= 1.45D-17 3.23D-11 XBig12= 2.32D-17 6.34D-10.
      5 vectors produced by pass 12 Test12= 1.45D-17 3.23D-11 XBig12= 2.09D-19 4.89D-11.
 InvSVY:  IOpt=1 It=  1 EMax= 9.77D-15
 Solved reduced A of dimension   376 with    31 vectors.
 Max diff in FC couplings:  IJMax=    11     1 Diff= 4.83D-04 IJMaxR=    27    17 DiffR= 1.33D+00
 Fermi Contact (FC) contribution to K (Hz):
                1             2             3             4             5 
      1  0.123400D+11
      2  0.272613D+02  0.123400D+11
      3 -0.111648D+01  0.187714D+02  0.123400D+11
      4  0.839324D-01  0.310780D+00 -0.279844D-01  0.123400D+11
      5 -0.328322D-02  0.209032D-01 -0.462531D-03  0.170350D+02  0.123400D+11
      6 -0.205801D-01  0.306992D-01  0.481343D-03  0.182251D+02 -0.849255D+00
      7  0.114954D-01  0.919430D-03  0.325667D-02  0.166424D+02 -0.799170D+00
      8 -0.950544D+01  0.275355D+01  0.379689D+00  0.157040D+01  0.508795D-01
      9  0.251920D+00  0.197315D+02 -0.720087D+00 -0.343270D-01  0.797605D-03
     10  0.132174D-01  0.254173D+00  0.194575D+00  0.110942D-02  0.670228D-04
     11  0.288221D+02  0.137824D+02  0.941753D-01  0.129471D+00  0.644717D-01
     12  0.466258D+00  0.959413D-01 -0.226677D-01 -0.214011D-02 -0.126947D-02
     13 -0.394452D+00  0.105043D+01 -0.246332D-01  0.120060D-01  0.389002D-02
     14  0.194936D+00 -0.897696D-01  0.247280D-01  0.119909D-01  0.307513D-02
     15  0.189097D+00 -0.797786D-01  0.151213D-01  0.162480D-02  0.150410D-02
     16  0.955074D+00 -0.219284D-01  0.513824D-04  0.223301D-02  0.351309D-03
     17  0.794096D-01 -0.422842D+00  0.293696D+00  0.387361D-02 -0.800008D-03
     18 -0.159191D+00  0.902009D+00 -0.822774D-01  0.516274D-03  0.211366D-04
     19 -0.168500D-02  0.106022D+00 -0.214389D-02 -0.770296D-05 -0.617899D-05
     20  0.571014D-01  0.169002D-01  0.146986D-01 -0.135228D-04 -0.287593D-04
     21  0.777404D-01  0.430143D-01  0.219615D-01  0.266129D-03  0.305883D-04
     22  0.481232D+00  0.699283D+00  0.216240D+00  0.894330D-02 -0.182798D-03
     23  0.437328D+00 -0.676235D+00  0.991375D+00  0.173601D+02 -0.645070D+00
     24 -0.132682D-01  0.244463D+00 -0.235456D-01 -0.579148D+00  0.109687D+00
     25 -0.771949D-01  0.210107D+01 -0.526982D-01 -0.144538D+00  0.427716D+00
     26  0.132939D-02 -0.125268D-01  0.465800D-03  0.365131D+00 -0.509289D-02
     27  0.513745D-02 -0.866566D-02 -0.134701D-02  0.122919D+01  0.130757D-01
     28 -0.109534D-01  0.221560D+00 -0.122505D-02  0.321749D+00 -0.109382D-01
     29 -0.268483D+00  0.167366D+02 -0.894110D+00 -0.195587D+00  0.117960D+01
     30  0.108222D+01 -0.903184D+00  0.175742D+00  0.101300D+01  0.444934D-01
     31  0.142597D+00 -0.410789D+00  0.138898D+00  0.438517D+00 -0.118907D-01
                6             7             8             9            10 
      6  0.123400D+11
      7 -0.763849D+00  0.123400D+11
      8  0.479835D-01 -0.460086D-01  0.123400D+11
      9  0.144332D-01  0.318580D-01  0.507480D+00  0.123400D+11
     10  0.458516D-03 -0.303542D-02 -0.589968D-02  0.315380D+02  0.123400D+11
     11  0.672190D-01  0.486809D-01  0.640982D+01  0.975716D+00  0.141136D+00
     12 -0.141294D-02  0.921236D-03  0.476843D+00  0.520596D-01 -0.644798D-03
     13  0.163473D-01  0.250114D-02  0.642879D+00  0.312919D+00  0.103023D-01
     14  0.608399D-02  0.521155D-02  0.248709D+00 -0.867005D-02 -0.503197D-03
     15  0.954144D-03  0.217171D-02  0.237093D+00 -0.573661D-02 -0.740833D-03
     16  0.118620D-02  0.392174D-03  0.184949D+00  0.271980D-01 -0.765803D-03
     17  0.416642D-03  0.246581D-02  0.968785D-01  0.267012D+02  0.384594D+00
     18 -0.793189D-04  0.487120D-04  0.906290D-01  0.129099D+02  0.100489D+00
     19 -0.146501D-04  0.165840D-04 -0.327930D-03  0.354993D+00 -0.107677D-01
     20 -0.120029D-05 -0.286961D-04  0.586324D-02  0.357916D+00 -0.697951D-02
     21  0.667186D-04  0.000000D+00  0.365881D-02  0.379553D+00 -0.152675D-01
     22 -0.567480D-03  0.555052D-03  0.867322D+00  0.589131D+01  0.423775D+00
     23 -0.603740D+00 -0.688088D+00 -0.690217D-01  0.929391D+00 -0.544550D-01
     24  0.141889D+00  0.360305D+00  0.191583D-01  0.142395D+00 -0.308281D-01
     25  0.150018D+01  0.342654D+00  0.131018D+00 -0.762414D-01 -0.425585D-02
     26 -0.666482D-02 -0.135740D-01  0.390675D-02  0.682094D-01 -0.266476D-02
     27  0.957008D-01 -0.727716D-02  0.106790D-01  0.127185D-01 -0.445648D-03
     28  0.428190D-02 -0.349150D-02  0.128829D-02 -0.153234D-01  0.242953D-02
     29  0.146033D+00  0.396135D+00  0.287009D+00  0.854465D+00  0.487785D+00
     30 -0.127043D-01 -0.105318D-01  0.763472D-01  0.401637D+00 -0.131650D-01
     31 -0.646838D-02 -0.204101D-01 -0.182454D-01  0.164007D+01 -0.170989D-01
               11            12            13            14            15 
     11  0.123400D+11
     12  0.311558D+02  0.123400D+11
     13  0.171108D+02  0.316253D+00  0.123400D+11
     14 -0.601837D+00  0.664269D-01  0.196637D+02  0.123400D+11
     15 -0.540472D+00  0.151960D+00  0.203423D+02 -0.731705D+00  0.123400D+11
     16 -0.384033D+00  0.286854D+00  0.182672D+02 -0.732004D+00 -0.758392D+00
     17 -0.780796D-01 -0.424991D-03 -0.115948D-01  0.112821D-02  0.116403D-02
     18  0.154006D-01  0.166054D-02  0.139615D-01  0.441988D-03  0.289313D-03
     19  0.544250D-02  0.355620D-05 -0.422764D-04 -0.209354D-04 -0.558302D-05
     20 -0.225866D-02 -0.115374D-03 -0.386493D-03  0.530179D-04 -0.133654D-04
     21  0.180320D-01 -0.172096D-05  0.265342D-02  0.747832D-04 -0.643748D-04
     22  0.169929D+00 -0.151188D-02  0.128123D-01  0.265050D-02  0.691994D-03
     23  0.285814D-01  0.245663D-02 -0.278871D-02  0.747529D-03 -0.789450D-04
     24  0.256428D-01 -0.907188D-03  0.573439D-04  0.663350D-03 -0.116929D-03
     25 -0.137796D-01 -0.263565D-03  0.129509D-02  0.120215D-02  0.126723D-04
     26 -0.951354D-04  0.483592D-04 -0.864474D-04 -0.197308D-04  0.515020D-05
     27  0.278868D-02 -0.151349D-03  0.123131D-03  0.778426D-03  0.388760D-03
     28  0.130567D-03 -0.979477D-04 -0.384029D-03  0.432716D-03  0.315667D-03
     29  0.737221D-01 -0.252270D-01 -0.123507D+00  0.687163D-01  0.102594D+00
     30 -0.397591D-01 -0.549123D-02 -0.460072D-02  0.138417D-02  0.295772D-02
     31  0.879301D-01 -0.138241D-01  0.338633D-03 -0.456699D-03  0.135040D-03
               16            17            18            19            20 
     16  0.123400D+11
     17  0.981567D-04  0.123400D+11
     18  0.251666D-03  0.272925D+02  0.123400D+11
     19  0.735027D-05 -0.762059D+00  0.169788D+02  0.123400D+11
     20  0.122950D-03 -0.116921D+01  0.178766D+02 -0.722114D+00  0.123400D+11
     21  0.356687D-03 -0.120992D+01  0.180566D+02 -0.742396D+00 -0.922142D+00
     22  0.141340D-02 -0.953798D+01  0.375565D+01  0.823232D+00  0.425909D+00
     23 -0.453319D-03 -0.387848D-01  0.268745D-01 -0.181070D-02 -0.124212D-02
     24  0.152581D-03  0.277628D-02 -0.145807D-02  0.260546D-03  0.433638D-03
     25  0.161122D-03 -0.121358D-03 -0.485074D-02  0.237991D-03  0.895310D-03
     26 -0.562058D-05  0.112617D-01  0.329188D-03  0.149553D-04 -0.381145D-04
     27  0.672382D-05  0.757124D-05  0.213586D-03 -0.762330D-05 -0.102937D-04
     28 -0.156808D-05  0.518796D-02 -0.721778D-03  0.112133D-04  0.000000D+00
     29  0.243629D-02  0.145035D+01 -0.339511D-01 -0.226815D-02  0.130629D-01
     30  0.454584D-03 -0.188291D-01  0.754659D-02  0.376214D-05 -0.350399D-03
     31  0.632264D-03  0.998842D-01  0.569765D-01 -0.989309D-04  0.243657D-02
               21            22            23            24            25 
     21  0.123400D+11
     22  0.449629D+00  0.123400D+11
     23 -0.138960D-02  0.115676D+00  0.123400D+11
     24  0.160220D-04  0.125446D-01  0.165356D+02  0.123400D+11
     25 -0.496042D-03  0.366374D-01  0.172767D+02 -0.767145D+00  0.123400D+11
     26  0.638787D-04 -0.493614D-03 -0.737759D+00  0.372992D+00  0.171127D+02
     27  0.327223D-05  0.852500D-03 -0.586421D+00  0.127435D+00  0.172887D+02
     28  0.111889D-04  0.446559D-02 -0.538582D+00  0.130408D+00  0.176074D+02
     29 -0.536049D-02  0.138265D+00  0.173066D+02 -0.666129D+00  0.280485D+00
     30 -0.746848D-03 -0.116320D-02 -0.604604D+00  0.963999D-01  0.462177D+00
     31 -0.215796D-02 -0.291752D-02 -0.711706D+00  0.337002D+00  0.271026D+00
               26            27            28            29            30 
     26  0.123400D+11
     27 -0.753073D+00  0.123400D+11
     28 -0.765544D+00 -0.762486D+00  0.123400D+11
     29  0.386812D+00  0.352014D+00  0.140145D+01  0.123400D+11
     30 -0.415022D-02 -0.143559D-01  0.128986D-01  0.174804D+02  0.123400D+11
     31 -0.140578D-01 -0.531896D-02 -0.114724D-01  0.168543D+02 -0.884987D+00
               31 
     31  0.123400D+11
 Fermi Contact (FC) contribution to J (Hz):
                1             2             3             4             5 
      1  0.243533D+11
      2  0.538009D+02  0.243533D+11
      3 -0.876087D+01  0.147297D+03  0.385007D+12
      4  0.165643D+00  0.613331D+00 -0.219591D+00  0.243533D+11
      5 -0.257631D-01  0.164025D+00 -0.144309D-01  0.133672D+03  0.385007D+12
      6 -0.161490D+00  0.240894D+00  0.150179D-01  0.143011D+03 -0.264967D+02
      7  0.902029D-01  0.721468D-02  0.101608D+00  0.130591D+03 -0.249341D+02
      8  0.101155D+02 -0.293027D+01 -0.160657D+01 -0.167119D+01 -0.215285D+00
      9  0.142892D+00  0.111920D+02 -0.162400D+01 -0.194707D-01  0.179883D-02
     10  0.103716D+00  0.199447D+01  0.607073D+01  0.870551D-02  0.209111D-02
     11  0.163482D+02  0.781754D+01  0.212392D+00  0.734374D-01  0.145402D+00
     12  0.365868D+01  0.752842D+00 -0.707232D+00 -0.167933D-01 -0.396073D-01
     13 -0.778461D+00  0.207304D+01 -0.193294D+00  0.236942D-01  0.305246D-01
     14  0.152965D+01 -0.704414D+00  0.771514D+00  0.940913D-01  0.959440D-01
     15  0.148382D+01 -0.626015D+00  0.471783D+00  0.127496D-01  0.469278D-01
     16  0.749437D+01 -0.172070D+00  0.160313D-02  0.175222D-01  0.109608D-01
     17  0.156717D+00 -0.834489D+00  0.230460D+01  0.764467D-02 -0.627759D-02
     18 -0.314167D+00  0.178014D+01 -0.645623D+00  0.101888D-02  0.165857D-03
     19 -0.132220D-01  0.831942D+00 -0.668892D-01 -0.604444D-04 -0.192784D-03
     20  0.448069D+00  0.132614D+00  0.458595D+00 -0.106112D-03 -0.897289D-03
     21  0.610021D+00  0.337529D+00  0.685198D+00  0.208829D-02  0.954355D-03
     22 -0.512118D+00 -0.744164D+00 -0.914972D+00 -0.951729D-02  0.773466D-03
     23  0.863077D+00 -0.133457D+01  0.777923D+01  0.342606D+02 -0.506180D+01
     24 -0.104114D+00  0.191828D+01 -0.734623D+00 -0.454452D+01  0.342224D+01
     25 -0.152346D+00  0.414651D+01 -0.413517D+00 -0.285249D+00  0.335624D+01
     26  0.104316D-01 -0.982964D-01  0.145329D-01  0.286515D+01 -0.158898D+00
     27  0.403131D-01 -0.679986D-01 -0.420266D-01  0.964533D+01  0.407961D+00
     28 -0.859502D-01  0.173856D+01 -0.382214D-01  0.252474D+01 -0.341270D+00
     29 -0.529858D+00  0.330302D+02 -0.701600D+01 -0.385995D+00  0.925622D+01
     30  0.849205D+01 -0.708720D+01  0.548315D+01  0.794890D+01  0.138819D+01
     31  0.111894D+01 -0.322342D+01  0.433361D+01  0.344100D+01 -0.370991D+00
                6             7             8             9            10 
      6  0.385007D+12
      7 -0.238320D+02  0.385007D+12
      8 -0.203031D+00  0.194675D+00  0.708114D+10
      9  0.325511D-01  0.718489D-01 -0.155216D+00  0.201170D+10
     10  0.143057D-01 -0.947051D-01  0.249632D-01  0.711271D+02  0.385007D+12
     11  0.151598D+00  0.109789D+00 -0.196049D+01  0.159064D+00  0.318301D+00
     12 -0.440837D-01  0.287425D-01 -0.201765D+01  0.117409D+00 -0.201177D-01
     13  0.128276D+00  0.196262D-01 -0.684140D+00  0.177492D+00  0.808414D-01
     14  0.189820D+00  0.162600D+00 -0.105236D+01 -0.195534D-01 -0.156997D-01
     15  0.297692D-01  0.677573D-01 -0.100321D+01 -0.129377D-01 -0.231140D-01
     16  0.370095D-01  0.122358D-01 -0.782570D+00  0.613391D-01 -0.238930D-01
     17  0.326935D-02  0.193490D-01 -0.103096D+00  0.151453D+02  0.301787D+01
     18 -0.622408D-03  0.382238D-03 -0.964457D-01  0.732266D+01  0.788525D+00
     19 -0.457081D-03  0.517420D-03  0.138756D-02  0.800611D+00 -0.335953D+00
     20 -0.374491D-04 -0.895318D-03 -0.248090D-01  0.807202D+00 -0.217760D+00
     21  0.208162D-02 -0.205876D-04 -0.154814D-01  0.855999D+00 -0.476346D+00
     22  0.240116D-02 -0.234858D-02  0.497701D+00 -0.180190D+01 -0.179311D+01
     23 -0.473749D+01 -0.539936D+01  0.734515D-01  0.527162D+00 -0.427303D+00
     24  0.442693D+01  0.112415D+02 -0.810641D-01  0.321142D+00 -0.961836D+00
     25  0.117718D+02  0.268877D+01 -0.139426D+00 -0.432450D-01 -0.333953D-01
     26 -0.207942D+00 -0.423509D+00 -0.165305D-01  0.153832D+00 -0.831402D-01
     27  0.298586D+01 -0.227047D+00 -0.451859D-01  0.286839D-01 -0.139042D-01
     28  0.133595D+00 -0.108935D+00 -0.545113D-02 -0.345586D-01  0.758013D-01
     29  0.114590D+01  0.310843D+01 -0.305430D+00  0.484663D+00  0.382760D+01
     30 -0.396375D+00 -0.328593D+00 -0.323046D+00  0.905805D+00 -0.410748D+00
     31 -0.201813D+00 -0.636793D+00  0.772012D-01  0.369883D+01 -0.533484D+00
               11            12            13            14            15 
     11  0.201170D+10
     12  0.702652D+02  0.385007D+12
     13  0.970548D+01  0.248160D+01  0.243533D+11
     14 -0.135731D+01  0.207251D+01  0.154299D+03  0.385007D+12
     15 -0.121892D+01  0.474116D+01  0.159624D+03 -0.228292D+02  0.385007D+12
     16 -0.866103D+00  0.894984D+01  0.143341D+03 -0.228385D+02 -0.236618D+02
     17 -0.442877D-01 -0.333487D-02 -0.228826D-01  0.885294D-02  0.913403D-02
     18  0.873541D-02  0.130301D-01  0.275535D-01  0.346824D-02  0.227021D-02
     19  0.122744D-01  0.110953D-03 -0.331738D-03 -0.653183D-03 -0.174190D-03
     20 -0.509391D-02 -0.359968D-02 -0.303277D-02  0.165416D-02 -0.417001D-03
     21  0.406673D-01 -0.536939D-04  0.208211D-01  0.233323D-02 -0.200849D-02
     22 -0.519741D-01  0.639716D-02 -0.136346D-01 -0.112150D-01 -0.292802D-02
     23  0.162117D-01  0.192769D-01 -0.550358D-02  0.586579D-02 -0.619474D-03
     24  0.578319D-01 -0.283042D-01  0.449972D-03  0.206965D-01 -0.364819D-02
     25 -0.781595D-02 -0.206817D-02  0.255589D-02  0.943319D-02  0.994386D-04
     26 -0.214557D-03  0.150880D-02 -0.678344D-03 -0.615599D-03  0.160686D-03
     27  0.628928D-02 -0.472209D-02  0.966199D-03  0.242868D-01  0.121293D-01
     28  0.294466D-03 -0.305597D-02 -0.301344D-02  0.135007D-01  0.984880D-02
     29  0.418161D-01 -0.197954D+00 -0.243745D+00  0.539210D+00  0.805042D+00
     30 -0.896682D-01 -0.171326D+00 -0.361014D-01  0.431862D-01  0.922808D-01
     31  0.198308D+00 -0.431311D+00  0.265722D-02 -0.142490D-01  0.421326D-02
               16            17            18            19            20 
     16  0.385007D+12
     17  0.770226D-03  0.243533D+11
     18  0.197480D-02  0.538623D+02  0.243533D+11
     19  0.229328D-03 -0.597980D+01  0.133231D+03  0.385007D+12
     20  0.383602D-02 -0.917466D+01  0.140276D+03 -0.225299D+02  0.385007D+12
     21  0.111286D-01 -0.949411D+01  0.141689D+03 -0.231627D+02 -0.287708D+02
     22 -0.598049D-02  0.101501D+02 -0.399669D+01 -0.348332D+01 -0.180214D+01
     23 -0.355715D-02 -0.765428D-01  0.530374D-01 -0.142084D-01 -0.974682D-02
     24  0.476051D-02  0.217852D-01 -0.114413D-01  0.812903D-02  0.135295D-01
     25  0.126431D-02 -0.239502D-03 -0.957306D-02  0.186749D-02  0.702541D-02
     26 -0.175362D-03  0.883691D-01  0.258310D-02  0.466606D-03 -0.118917D-02
     27  0.209783D-03  0.594107D-04  0.167599D-02 -0.237847D-03 -0.321164D-03
     28 -0.489241D-04  0.407094D-01 -0.566372D-02  0.349855D-03  0.299445D-04
     29  0.191173D-01  0.286229D+01 -0.670033D-01 -0.177980D-01  0.102503D+00
     30  0.141830D-01 -0.147750D+00  0.592174D-01  0.117379D-03 -0.109324D-01
     31  0.197266D-01  0.783781D+00  0.447089D+00 -0.308664D-02  0.760210D-01
               21            22            23            24            25 
     21  0.385007D+12
     22 -0.190250D+01  0.708114D+10
     23 -0.109041D-01 -0.123101D+00  0.243533D+11
     24  0.499886D-03 -0.530796D-01  0.129753D+03  0.385007D+12
     25 -0.389240D-02 -0.389888D-01  0.340959D+02 -0.601971D+01  0.243533D+11
     26  0.199301D-02  0.208862D-02 -0.578913D+01  0.116373D+02  0.134282D+03
     27  0.102093D-03 -0.360716D-02 -0.460159D+01  0.397598D+01  0.135663D+03
     28  0.349094D-03 -0.188951D-01 -0.422620D+01  0.406874D+01  0.138163D+03
     29 -0.420633D-01 -0.147139D+00  0.341551D+02 -0.522705D+01  0.553545D+00
     30 -0.233016D-01  0.492184D-02 -0.474427D+01  0.300767D+01  0.362666D+01
     31 -0.673284D-01  0.123448D-01 -0.558469D+01  0.105145D+02  0.212671D+01
               26            27            28            29            30 
     26  0.385007D+12
     27 -0.234958D+02  0.385007D+12
     28 -0.238849D+02 -0.237895D+02  0.385007D+12
     29  0.303527D+01  0.276222D+01  0.109970D+02  0.243533D+11
     30 -0.129487D+00 -0.447903D+00  0.402436D+00  0.137167D+03  0.385007D+12
     31 -0.438604D+00 -0.165951D+00 -0.357939D+00  0.132254D+03 -0.276116D+02
               31 
     31  0.385007D+12
 End of Minotr F.D. properties file   721 does not exist.
 End of Minotr F.D. properties file   722 does not exist.
 End of Minotr F.D. properties file   788 does not exist.
 Leave Link 1002 at Wed Jun 18 20:51:30 2014, MaxMem=  4294967296 cpu:    376316.1
 (Enter /home/ztw1e12/g09/l601.exe)
 Copying SCF densities to generalized density rwf, IOpCl= 0 IROHF=0.

 **********************************************************************

            Population analysis using the SCF density.

 **********************************************************************

 Orbital symmetries:
       Occupied  (A) (A) (A) (A) (A) (A) (A) (A) (A) (A) (A) (A)
                 (A) (A) (A) (A) (A) (A) (A) (A) (A) (A) (A) (A)
                 (A) (A) (A) (A) (A) (A) (A) (A) (A) (A) (A) (A)
                 (A) (A) (A) (A) (A) (A) (A) (A) (A) (A) (A) (A)
                 (A) (A) (A)
       Virtual   (A) (A) (A) (A) (A) (A) (A) (A) (A) (A) (A) (A)
                 (A) (A) (A) (A) (A) (A) (A) (A) (A) (A) (A) (A)
                 (A) (A) (A) (A) (A) (A) (A) (A) (A) (A) (A) (A)
                 (A) (A) (A) (A) (A) (A) (A) (A) (A) (A) (A) (A)
                 (A) (A) (A) (A) (A) (A) (A) (A) (A) (A) (A) (A)
                 (A) (A) (A) (A) (A) (A) (A) (A) (A) (A) (A) (A)
                 (A) (A) (A) (A) (A) (A) (A) (A) (A) (A) (A) (A)
                 (A) (A) (A) (A) (A) (A) (A) (A) (A) (A) (A) (A)
                 (A) (A) (A) (A) (A) (A) (A) (A) (A) (A) (A) (A)
                 (A) (A) (A) (A) (A) (A) (A) (A) (A) (A) (A) (A)
                 (A) (A) (A) (A) (A) (A) (A) (A) (A) (A) (A) (A)
                 (A) (A) (A) (A) (A) (A) (A) (A) (A) (A) (A) (A)
                 (A) (A) (A) (A) (A) (A) (A) (A) (A) (A) (A) (A)
                 (A) (A) (A) (A) (A) (A) (A) (A) (A) (A) (A) (A)
                 (A) (A) (A) (A) (A) (A) (A) (A) (A) (A) (A) (A)
                 (A) (A) (A) (A) (A) (A) (A) (A) (A) (A) (A) (A)
                 (A) (A) (A) (A) (A) (A) (A) (A) (A) (A) (A) (A)
                 (A) (A) (A) (A) (A) (A) (A) (A) (A) (A) (A) (A)
                 (A) (A) (A) (A) (A) (A) (A) (A) (A) (A) (A) (A)
                 (A) (A) (A) (A) (A) (A) (A) (A) (A) (A) (A) (A)
                 (A) (A) (A) (A) (A) (A) (A) (A) (A) (A) (A) (A)
                 (A) (A) (A) (A) (A) (A) (A) (A) (A) (A) (A) (A)
                 (A) (A) (A) (A) (A) (A) (A) (A) (A) (A) (A) (A)
                 (A) (A) (A) (A) (A) (A) (A) (A) (A) (A) (A) (A)
                 (A) (A) (A) (A) (A) (A) (A) (A) (A) (A) (A) (A)
                 (A) (A) (A) (A) (A) (A) (A) (A) (A) (A) (A) (A)
                 (A) (A) (A) (A) (A) (A) (A) (A) (A) (A) (A) (A)
                 (A) (A) (A) (A) (A) (A) (A) (A) (A) (A) (A) (A)
                 (A) (A) (A) (A) (A) (A) (A) (A) (A) (A) (A) (A)
                 (A) (A) (A) (A) (A) (A) (A) (A) (A) (A) (A) (A)
                 (A) (A) (A) (A) (A) (A) (A) (A) (A) (A) (A) (A)
                 (A) (A) (A) (A) (A) (A) (A) (A) (A) (A) (A) (A)
                 (A) (A) (A) (A) (A) (A) (A) (A) (A) (A) (A) (A)
                 (A) (A) (A) (A) (A) (A) (A) (A) (A) (A) (A) (A)
                 (A) (A) (A) (A) (A) (A) (A) (A) (A) (A) (A) (A)
                 (A) (A) (A) (A) (A) (A) (A) (A) (A) (A) (A) (A)
                 (A) (A) (A) (A) (A) (A) (A) (A) (A) (A) (A) (A)
                 (A) (A) (A) (A) (A) (A) (A) (A) (A) (A) (A) (A)
                 (A) (A) (A) (A) (A) (A) (A) (A) (A) (A) (A) (A)
                 (A) (A) (A) (A) (A) (A) (A) (A) (A) (A) (A) (A)
                 (A) (A) (A) (A) (A) (A) (A) (A) (A) (A) (A) (A)
                 (A) (A) (A) (A) (A) (A) (A) (A) (A) (A) (A) (A)
                 (A) (A) (A) (A) (A) (A) (A) (A) (A) (A) (A) (A)
                 (A) (A) (A) (A) (A) (A) (A) (A) (A) (A) (A) (A)
                 (A) (A) (A) (A) (A) (A) (A) (A) (A) (A) (A) (A)
                 (A) (A) (A) (A) (A) (A) (A) (A) (A) (A) (A) (A)
                 (A) (A) (A) (A) (A) (A) (A) (A) (A) (A) (A) (A)
                 (A) (A) (A) (A) (A) (A) (A) (A) (A) (A) (A) (A)
                 (A) (A) (A) (A) (A) (A) (A) (A) (A) (A) (A) (A)
                 (A) (A) (A) (A) (A) (A) (A) (A) (A) (A) (A) (A)
                 (A) (A) (A) (A) (A) (A) (A) (A) (A) (A) (A) (A)
                 (A) (A) (A) (A) (A) (A) (A) (A) (A) (A) (A) (A)
                 (A) (A) (A) (A) (A) (A) (A) (A) (A) (A) (A) (A)
                 (A) (A) (A) (A) (A) (A) (A) (A) (A) (A) (A) (A)
                 (A) (A) (A) (A) (A) (A) (A) (A) (A) (A) (A) (A)
                 (A) (A) (A) (A) (A) (A) (A) (A) (A) (A) (A) (A)
                 (A) (A) (A) (A) (A) (A) (A) (A) (A) (A) (A) (A)
                 (A) (A) (A) (A) (A) (A) (A) (A) (A) (A) (A) (A)
                 (A) (A) (A) (A) (A) (A) (A) (A) (A) (A) (A) (A)
                 (A) (A) (A) (A) (A) (A) (A) (A) (A) (A) (A) (A)
                 (A) (A) (A) (A) (A) (A) (A) (A) (A) (A) (A) (A)
                 (A) (A) (A) (A) (A) (A) (A) (A) (A) (A) (A) (A)
                 (A) (A) (A) (A) (A) (A) (A) (A) (A) (A) (A) (A)
                 (A) (A) (A) (A) (A) (A) (A) (A) (A) (A) (A) (A)
                 (A) (A) (A) (A) (A) (A) (A) (A) (A) (A) (A) (A)
                 (A) (A) (A) (A) (A) (A) (A) (A) (A) (A) (A) (A)
                 (A) (A) (A) (A) (A) (A) (A) (A) (A) (A) (A) (A)
                 (A) (A) (A) (A) (A) (A) (A) (A) (A) (A) (A) (A)
                 (A) (A) (A) (A) (A) (A) (A) (A) (A) (A) (A) (A)
                 (A) (A) (A) (A) (A) (A) (A) (A) (A) (A) (A) (A)
                 (A) (A) (A) (A) (A) (A) (A) (A) (A) (A) (A) (A)
                 (A) (A) (A) (A) (A) (A) (A) (A) (A) (A) (A) (A)
                 (A) (A) (A) (A) (A) (A) (A) (A) (A) (A) (A) (A)
                 (A) (A) (A) (A) (A)
 The electronic state is 1-A.
 Alpha  occ. eigenvalues --  -19.17139 -19.16163 -14.41912 -14.41285 -10.33475
 Alpha  occ. eigenvalues --  -10.33134 -10.29223 -10.27221 -10.25868 -10.25756
 Alpha  occ. eigenvalues --  -10.23681 -10.23610 -10.22862  -1.05379  -1.03857
 Alpha  occ. eigenvalues --   -0.94360  -0.94149  -0.84125  -0.78609  -0.74173
 Alpha  occ. eigenvalues --   -0.72073  -0.70279  -0.66359  -0.60594  -0.60082
 Alpha  occ. eigenvalues --   -0.58436  -0.54690  -0.51031  -0.49606  -0.47813
 Alpha  occ. eigenvalues --   -0.47349  -0.46943  -0.45332  -0.45010  -0.44215
 Alpha  occ. eigenvalues --   -0.42217  -0.41815  -0.40633  -0.40386  -0.40144
 Alpha  occ. eigenvalues --   -0.39395  -0.39233  -0.38348  -0.36426  -0.35351
 Alpha  occ. eigenvalues --   -0.34829  -0.33642  -0.28204  -0.27501  -0.26177
 Alpha  occ. eigenvalues --   -0.25744
 Alpha virt. eigenvalues --    0.01178   0.02041   0.02721   0.03577   0.04587
 Alpha virt. eigenvalues --    0.04941   0.06592   0.06938   0.07751   0.08113
 Alpha virt. eigenvalues --    0.09788   0.10508   0.10899   0.11572   0.12246
 Alpha virt. eigenvalues --    0.12555   0.13297   0.13824   0.14493   0.15165
 Alpha virt. eigenvalues --    0.15973   0.17073   0.17531   0.18410   0.19344
 Alpha virt. eigenvalues --    0.21044   0.22563   0.23447   0.24556   0.24678
 Alpha virt. eigenvalues --    0.25374   0.26110   0.26504   0.27429   0.27785
 Alpha virt. eigenvalues --    0.28564   0.29186   0.30922   0.31077   0.32361
 Alpha virt. eigenvalues --    0.33402   0.33453   0.34690   0.35128   0.35673
 Alpha virt. eigenvalues --    0.36712   0.37021   0.37854   0.38762   0.38889
 Alpha virt. eigenvalues --    0.39373   0.39633   0.39924   0.40539   0.41239
 Alpha virt. eigenvalues --    0.41283   0.41936   0.42256   0.42828   0.42956
 Alpha virt. eigenvalues --    0.43546   0.44372   0.44718   0.45145   0.45367
 Alpha virt. eigenvalues --    0.46191   0.46719   0.46940   0.47407   0.48614
 Alpha virt. eigenvalues --    0.49433   0.50992   0.51194   0.52217   0.52634
 Alpha virt. eigenvalues --    0.53881   0.54813   0.55601   0.56144   0.56721
 Alpha virt. eigenvalues --    0.57788   0.58251   0.59556   0.60320   0.60589
 Alpha virt. eigenvalues --    0.63038   0.64513   0.65394   0.66613   0.67774
 Alpha virt. eigenvalues --    0.69096   0.70389   0.71224   0.72097   0.73693
 Alpha virt. eigenvalues --    0.75039   0.75429   0.75842   0.77837   0.78171
 Alpha virt. eigenvalues --    0.78954   0.81099   0.82098   0.82881   0.83639
 Alpha virt. eigenvalues --    0.84248   0.84381   0.85308   0.86376   0.87307
 Alpha virt. eigenvalues --    0.87545   0.88023   0.88502   0.89887   0.91229
 Alpha virt. eigenvalues --    0.92107   0.92713   0.94134   0.95072   0.95281
 Alpha virt. eigenvalues --    0.96103   0.96747   0.97179   0.97564   0.98349
 Alpha virt. eigenvalues --    0.99201   0.99537   1.00901   1.01675   1.01942
 Alpha virt. eigenvalues --    1.03061   1.03994   1.04374   1.04925   1.05370
 Alpha virt. eigenvalues --    1.06194   1.07841   1.08418   1.09234   1.10495
 Alpha virt. eigenvalues --    1.11244   1.12313   1.12920   1.14408   1.14856
 Alpha virt. eigenvalues --    1.15473   1.16173   1.16716   1.17086   1.18100
 Alpha virt. eigenvalues --    1.18828   1.20107   1.20640   1.20910   1.21261
 Alpha virt. eigenvalues --    1.21971   1.22181   1.22584   1.22777   1.23845
 Alpha virt. eigenvalues --    1.24207   1.24423   1.25357   1.26427   1.26909
 Alpha virt. eigenvalues --    1.27157   1.27432   1.27989   1.28257   1.29587
 Alpha virt. eigenvalues --    1.29852   1.30312   1.30952   1.32514   1.32968
 Alpha virt. eigenvalues --    1.33409   1.33820   1.35745   1.35963   1.36467
 Alpha virt. eigenvalues --    1.38500   1.39606   1.40395   1.40978   1.41733
 Alpha virt. eigenvalues --    1.42461   1.43484   1.44702   1.46522   1.47157
 Alpha virt. eigenvalues --    1.49199   1.50078   1.52942   1.53180   1.54355
 Alpha virt. eigenvalues --    1.57855   1.58731   1.60456   1.63085   1.63171
 Alpha virt. eigenvalues --    1.64406   1.67419   1.68978   1.70822   1.73170
 Alpha virt. eigenvalues --    1.75116   1.76235   1.76656   1.78796   1.82601
 Alpha virt. eigenvalues --    1.83818   1.87232   1.89934   1.90797   1.92606
 Alpha virt. eigenvalues --    1.93657   1.96098   1.97483   1.99266   1.99846
 Alpha virt. eigenvalues --    2.00608   2.02807   2.04409   2.06581   2.07575
 Alpha virt. eigenvalues --    2.08574   2.11384   2.13009   2.13825   2.15662
 Alpha virt. eigenvalues --    2.16678   2.17090   2.20342   2.22200   2.23153
 Alpha virt. eigenvalues --    2.23921   2.25112   2.27031   2.28377   2.29680
 Alpha virt. eigenvalues --    2.31372   2.33581   2.35344   2.38327   2.39379
 Alpha virt. eigenvalues --    2.39647   2.40252   2.41622   2.42349   2.44555
 Alpha virt. eigenvalues --    2.45671   2.46117   2.47147   2.49034   2.49969
 Alpha virt. eigenvalues --    2.52172   2.52526   2.53876   2.54525   2.54878
 Alpha virt. eigenvalues --    2.55510   2.56059   2.59252   2.60239   2.62359
 Alpha virt. eigenvalues --    2.64887   2.66298   2.67171   2.67687   2.69095
 Alpha virt. eigenvalues --    2.70404   2.70625   2.72255   2.72358   2.72815
 Alpha virt. eigenvalues --    2.73357   2.73665   2.75397   2.76572   2.78176
 Alpha virt. eigenvalues --    2.78776   2.79794   2.80969   2.81733   2.82798
 Alpha virt. eigenvalues --    2.83825   2.85031   2.85334   2.85878   2.87858
 Alpha virt. eigenvalues --    2.88145   2.88833   2.89078   2.89611   2.91212
 Alpha virt. eigenvalues --    2.92127   2.92900   2.93708   2.94636   2.95493
 Alpha virt. eigenvalues --    2.95798   2.97306   2.97609   2.98805   2.99386
 Alpha virt. eigenvalues --    2.99536   3.00876   3.01290   3.02136   3.02463
 Alpha virt. eigenvalues --    3.03640   3.04453   3.04913   3.05459   3.06330
 Alpha virt. eigenvalues --    3.06632   3.07840   3.08661   3.09422   3.10551
 Alpha virt. eigenvalues --    3.10951   3.11712   3.13415   3.14696   3.15216
 Alpha virt. eigenvalues --    3.15649   3.17037   3.18135   3.18517   3.20257
 Alpha virt. eigenvalues --    3.21154   3.21967   3.22856   3.23393   3.24343
 Alpha virt. eigenvalues --    3.25641   3.26620   3.26914   3.27311   3.28162
 Alpha virt. eigenvalues --    3.28437   3.29144   3.29613   3.30216   3.31189
 Alpha virt. eigenvalues --    3.32756   3.33431   3.34450   3.35048   3.35473
 Alpha virt. eigenvalues --    3.36647   3.37266   3.37776   3.38482   3.39583
 Alpha virt. eigenvalues --    3.39865   3.40970   3.42139   3.42773   3.43233
 Alpha virt. eigenvalues --    3.44084   3.44554   3.44876   3.46175   3.46915
 Alpha virt. eigenvalues --    3.49639   3.50208   3.50868   3.51938   3.53204
 Alpha virt. eigenvalues --    3.54716   3.55950   3.57296   3.57906   3.59653
 Alpha virt. eigenvalues --    3.60708   3.61823   3.62214   3.64714   3.65665
 Alpha virt. eigenvalues --    3.66348   3.67757   3.68982   3.69953   3.70681
 Alpha virt. eigenvalues --    3.71749   3.72780   3.73431   3.74151   3.74487
 Alpha virt. eigenvalues --    3.75686   3.76002   3.78239   3.79094   3.80039
 Alpha virt. eigenvalues --    3.80525   3.81918   3.82695   3.83734   3.84012
 Alpha virt. eigenvalues --    3.85604   3.87099   3.87580   3.89214   3.89793
 Alpha virt. eigenvalues --    3.90514   3.91883   3.93094   3.93247   3.93776
 Alpha virt. eigenvalues --    3.94744   3.95556   3.97124   3.97928   3.98294
 Alpha virt. eigenvalues --    4.00019   4.02044   4.03697   4.04731   4.05832
 Alpha virt. eigenvalues --    4.06917   4.06999   4.07525   4.09094   4.10842
 Alpha virt. eigenvalues --    4.11312   4.12306   4.13251   4.13929   4.14804
 Alpha virt. eigenvalues --    4.15458   4.17273   4.17833   4.18489   4.19208
 Alpha virt. eigenvalues --    4.20627   4.21681   4.22260   4.23875   4.24343
 Alpha virt. eigenvalues --    4.25398   4.26056   4.26717   4.28618   4.29354
 Alpha virt. eigenvalues --    4.30500   4.31740   4.32139   4.32645   4.34105
 Alpha virt. eigenvalues --    4.35201   4.37263   4.37700   4.40980   4.42964
 Alpha virt. eigenvalues --    4.43753   4.45622   4.46451   4.48786   4.50256
 Alpha virt. eigenvalues --    4.50522   4.52432   4.54326   4.55642   4.57100
 Alpha virt. eigenvalues --    4.58298   4.58470   4.59035   4.60768   4.61286
 Alpha virt. eigenvalues --    4.62366   4.62792   4.63671   4.64142   4.66219
 Alpha virt. eigenvalues --    4.66614   4.67800   4.69022   4.70330   4.71200
 Alpha virt. eigenvalues --    4.71288   4.73789   4.75511   4.76231   4.77284
 Alpha virt. eigenvalues --    4.78785   4.79434   4.80322   4.81463   4.83790
 Alpha virt. eigenvalues --    4.85079   4.87284   4.87779   4.89471   4.91304
 Alpha virt. eigenvalues --    4.92529   4.93963   4.94538   4.96398   4.97131
 Alpha virt. eigenvalues --    4.98706   4.99650   5.00787   5.01936   5.02562
 Alpha virt. eigenvalues --    5.04043   5.04543   5.05761   5.08210   5.09281
 Alpha virt. eigenvalues --    5.10766   5.12429   5.13276   5.15029   5.15462
 Alpha virt. eigenvalues --    5.16349   5.17591   5.18152   5.19931   5.20906
 Alpha virt. eigenvalues --    5.21622   5.22187   5.23457   5.25582   5.26151
 Alpha virt. eigenvalues --    5.26452   5.27251   5.29411   5.30194   5.30989
 Alpha virt. eigenvalues --    5.32541   5.35945   5.36668   5.38739   5.39755
 Alpha virt. eigenvalues --    5.42551   5.44609   5.45375   5.47786   5.49536
 Alpha virt. eigenvalues --    5.52579   5.53781   5.56480   5.57674   5.58330
 Alpha virt. eigenvalues --    5.60706   5.61208   5.62717   5.64669   5.65410
 Alpha virt. eigenvalues --    5.66260   5.68316   5.69446   5.71235   5.72745
 Alpha virt. eigenvalues --    5.73578   5.74870   5.76554   5.76913   5.78750
 Alpha virt. eigenvalues --    5.80244   5.81623   5.83968   5.85811   5.89256
 Alpha virt. eigenvalues --    5.90344   5.94558   5.96558   6.01763   6.05784
 Alpha virt. eigenvalues --    6.12679   6.19078   6.20620   6.23972   6.27978
 Alpha virt. eigenvalues --    6.51058   6.53053   6.58455   6.62286   6.65187
 Alpha virt. eigenvalues --    6.66629   6.77626   6.81986   6.90677   6.92342
 Alpha virt. eigenvalues --    6.93318   6.97649   7.18576   7.19724   7.23924
 Alpha virt. eigenvalues --    7.28222   8.13689   8.29937   8.67053   8.73947
 Alpha virt. eigenvalues --    8.78464   8.79820   8.81277   8.82964   8.83132
 Alpha virt. eigenvalues --    8.84933   8.86777   8.88854   8.91770   8.92040
 Alpha virt. eigenvalues --    8.94789   8.95244   8.96536   8.98414   9.02671
 Alpha virt. eigenvalues --    9.04444   9.09133   9.11690   9.12460   9.15456
 Alpha virt. eigenvalues --    9.23317   9.60229   9.62599   9.77358   9.83434
 Alpha virt. eigenvalues --    9.89243   9.94925  10.10551  10.12188  10.15153
 Alpha virt. eigenvalues --   10.18300  10.19743  10.20861  10.21848  10.25037
 Alpha virt. eigenvalues --   10.27808  10.29503  10.30055  10.32383  10.34709
 Alpha virt. eigenvalues --   10.39861  11.75664  11.81600  12.03521  12.14237
 Alpha virt. eigenvalues --   12.16227  12.18813  12.23825  12.25666  12.30454
 Alpha virt. eigenvalues --   12.39754  12.45319  12.56245  12.58529  12.83608
 Alpha virt. eigenvalues --   12.93134  14.97233  15.04640  15.24177  15.28429
 Alpha virt. eigenvalues --   15.99724  16.05497  16.83780  16.91247  22.01286
 Alpha virt. eigenvalues --   22.10555  40.17505  40.27786  40.66963  40.68325
 Alpha virt. eigenvalues --   40.69248  40.71780  40.72875  40.74720  40.76706
 Alpha virt. eigenvalues --   40.77851  40.80590  40.80879  40.81949  40.82693
 Alpha virt. eigenvalues --   40.84150  40.84226  40.84734  40.84848  40.86300
 Alpha virt. eigenvalues --   40.86983  40.87821  40.88669  40.90074  40.90699
 Alpha virt. eigenvalues --   40.91609  40.92296  40.93605  46.33657  46.45115
 Alpha virt. eigenvalues --   46.48561  46.50859  46.56417  46.56845  46.62363
 Alpha virt. eigenvalues --   46.73978  46.78192  54.46451  54.47694  55.77900
 Alpha virt. eigenvalues --   55.84194  55.97062  55.97596  56.05685  56.12457
 Alpha virt. eigenvalues --   56.18808  56.20161  56.24399  56.29771  56.36148
 Alpha virt. eigenvalues --   56.43038  56.46005  56.58445  56.65229  56.73981
 Alpha virt. eigenvalues --   57.46709  57.50163  57.99433  58.02054  58.19444
 Alpha virt. eigenvalues --   58.25777  64.70867  64.77807  73.94415  73.98651
 Alpha virt. eigenvalues --   74.10029  74.12009  74.63979  74.67088  86.07116
 Alpha virt. eigenvalues --   86.15351 165.42974 165.53047 165.57400 165.59263
 Alpha virt. eigenvalues --  165.64500 165.64584 165.69035 165.79324 165.83293
 Alpha virt. eigenvalues --  226.62309 226.66355 230.58019 230.64486 235.48041
 Alpha virt. eigenvalues --  235.82005 236.27489 236.30304 236.35414 236.46928
 Alpha virt. eigenvalues --  236.65330 237.22032 237.44126 237.66216 237.75493
 Alpha virt. eigenvalues --  237.86136 238.08769 238.49102 238.56259 239.31013
 Alpha virt. eigenvalues --  308.80728 308.88076 624.54489 624.61002 624.63295
 Alpha virt. eigenvalues --  624.66533 624.69364 624.71103 624.74657 624.83502
 Alpha virt. eigenvalues --  624.85751 794.49043 794.65896 825.71803 827.12581
 Alpha virt. eigenvalues --  827.16585 827.22816 827.78806 828.06038 828.50152
 Alpha virt. eigenvalues --  830.61154 831.13583 831.81413 831.92748 832.25597
 Alpha virt. eigenvalues --  832.77166 833.86508 834.19024 836.81339 868.33931
 Alpha virt. eigenvalues --  868.402561165.935211166.002662485.955812486.01099
 Alpha virt. eigenvalues -- 2587.586912589.633492594.192002594.899312595.88380
 Alpha virt. eigenvalues -- 2596.228312597.358192602.584622604.803632606.64150
 Alpha virt. eigenvalues -- 2606.869332607.443742610.785492613.085902613.88541
 Alpha virt. eigenvalues -- 2619.093092740.322162740.342232740.369792740.40676
 Alpha virt. eigenvalues -- 2740.429552740.485552740.521232740.554342740.58171
 Alpha virt. eigenvalues -- 3787.315673787.378695073.317245073.377508292.61066
 Alpha virt. eigenvalues -- 8296.668918625.763718629.186638633.734958637.30682
 Alpha virt. eigenvalues -- 8638.823458644.117538645.519638663.449168668.29085
 Alpha virt. eigenvalues -- 8673.864488674.284038676.207758681.589638690.66556
 Alpha virt. eigenvalues -- 8692.412148713.74939******************************
 Alpha virt. eigenvalues -- **************************************************
 Alpha virt. eigenvalues -- **************************************************
 Alpha virt. eigenvalues -- **************************************************
 Alpha virt. eigenvalues -- **************************************************
 Alpha virt. eigenvalues -- **************************************************
 Alpha virt. eigenvalues -- **************************************************
 Alpha virt. eigenvalues -- **************************************************
 Alpha virt. eigenvalues -- **********
          Condensed to atoms (all electrons):
               1          2          3          4          5          6
     1  C    4.635780   0.211366  -0.062280   0.004903  -0.000496   0.013485
     2  C    0.211366   5.262998   0.383241  -0.011824  -0.000278  -0.001218
     3  H   -0.062280   0.383241   0.512527  -0.000307   0.000041   0.000608
     4  C    0.004903  -0.011824  -0.000307   5.081095   0.406913   0.368758
     5  H   -0.000496  -0.000278   0.000041   0.406913   0.525244  -0.007313
     6  H    0.013485  -0.001218   0.000608   0.368758  -0.007313   0.482437
     7  H   -0.001450  -0.002134  -0.000073   0.404028  -0.015137  -0.023000
     8  O    0.725781  -0.092523   0.004390  -0.018584   0.000078   0.017724
     9  N   -0.057335   0.317633  -0.038390  -0.002192  -0.000019   0.001807
    10  H   -0.001229  -0.034691   0.004288   0.000156   0.000097  -0.000117
    11  N    0.292450  -0.149477   0.013744   0.006228   0.000481  -0.011113
    12  H   -0.020974   0.009879   0.000453   0.000277  -0.000009  -0.000110
    13  C   -0.043189   0.009966  -0.001082  -0.000947  -0.000040  -0.000005
    14  H    0.002745   0.001172   0.000041  -0.002502  -0.000133   0.004094
    15  H   -0.008006  -0.000079  -0.000284   0.000446   0.000005  -0.000711
    16  H    0.007731   0.000601  -0.000145  -0.000043  -0.000004   0.000042
    17  C   -0.003026  -0.055493   0.002005   0.000051  -0.000001   0.000130
    18  C   -0.005460   0.018872   0.002152   0.000010   0.000000   0.000024
    19  H    0.000487  -0.000521  -0.000380  -0.000009   0.000000  -0.000011
    20  H   -0.000074  -0.000488   0.000195   0.000000   0.000000   0.000000
    21  H    0.000724  -0.000858  -0.000200   0.000005   0.000000  -0.000008
    22  O   -0.009708   0.021648   0.020345   0.000001   0.000000   0.000021
[...]
 Alpha virt. eigenvalues --    4.32474   4.34094   4.34425   4.35938   4.36410
 Alpha virt. eigenvalues --    4.37500   4.38251   4.39757   4.40831   4.41501
 Alpha virt. eigenvalues --    4.44994   4.45716   4.48143   4.51718   4.52386
 Alpha virt. eigenvalues --    4.53662   4.56111   4.57120   4.59099   4.59932
 Alpha virt. eigenvalues --    4.63469   4.63859   4.64168   4.66266   4.67680
 Alpha virt. eigenvalues --    4.68409   4.69908   4.70217   4.71255   4.72631
 Alpha virt. eigenvalues --    4.73489   4.75528   4.76823   4.77456   4.78731
 Alpha virt. eigenvalues --    4.79885   4.80723   4.82005   4.82858   4.83676
 Alpha virt. eigenvalues --    4.85415   4.85949   4.87360   4.88906   4.90288
 Alpha virt. eigenvalues --    4.91589   4.93370   4.94805   4.95100   4.95920
 Alpha virt. eigenvalues --    4.97861   4.98212   5.00259   5.01362   5.01488
 Alpha virt. eigenvalues --    5.03216   5.03922   5.05066   5.06276   5.06766
 Alpha virt. eigenvalues --    5.07745   5.09546   5.10146   5.11590   5.12736
 Alpha virt. eigenvalues --    5.14055   5.14584   5.16149   5.17643   5.18467
 Alpha virt. eigenvalues --    5.19766   5.20049   5.21507   5.21969   5.22925
 Alpha virt. eigenvalues --    5.24410   5.25285   5.26393   5.27995   5.28936
 Alpha virt. eigenvalues --    5.29066   5.29771   5.32148   5.33572   5.33843
 Alpha virt. eigenvalues --    5.35091   5.36428   5.37562   5.38522   5.38959
 Alpha virt. eigenvalues --    5.44746   5.46364   5.48000   5.51478   5.55788
 Alpha virt. eigenvalues --    5.57911   5.59982   5.62102   5.66121   5.72952
 Alpha virt. eigenvalues --    5.73571   5.75201   5.76327   5.78311   5.78578
 Alpha virt. eigenvalues --    5.79848   5.80361   5.81922   5.85073   5.85269
 Alpha virt. eigenvalues --    5.88603   5.89261   5.90425   5.94958   5.97982
 Alpha virt. eigenvalues --    5.99492   6.00796   6.01662   6.06255   6.08494
 Alpha virt. eigenvalues --    6.22299   6.27383   6.35488   6.40585   6.49071
 Alpha virt. eigenvalues --    6.52054   6.53827   6.56424   6.67896   6.69612
 Alpha virt. eigenvalues --    6.88307   6.89771   6.92696   6.98249   7.10321
 Alpha virt. eigenvalues --    7.14331   7.16623   7.17271   9.49140   9.98219
 Alpha virt. eigenvalues --   11.58086  12.19375  12.40573  12.60364  13.03836
 Alpha virt. eigenvalues --   13.38333  13.55072  13.57765  13.70468  13.75972
 Alpha virt. eigenvalues --   13.97621
          Condensed to atoms (all electrons):
               1          2          3          4          5          6
     1  C    4.770303   0.179198  -0.064730   0.001581  -0.000119   0.012220
     2  C    0.179198   5.381251   0.427784  -0.004581  -0.000701  -0.000725
     3  H   -0.064730   0.427784   0.463387  -0.000504   0.000037   0.000541
     4  C    0.001581  -0.004581  -0.000504   5.224919   0.411799   0.366451
     5  H   -0.000119  -0.000701   0.000037   0.411799   0.515336  -0.012876
     6  H    0.012220  -0.000725   0.000541   0.366451  -0.012876   0.485419
     7  H   -0.003063  -0.001045  -0.000113   0.401991  -0.021588  -0.027729
     8  O    0.717610  -0.086162   0.002230  -0.018026   0.000082   0.017932
     9  N   -0.057047   0.263720  -0.038833  -0.002008  -0.000003   0.001666
    10  H    0.000262  -0.033196   0.002227   0.000070   0.000081  -0.000084
    11  N    0.304590  -0.117935   0.006728   0.006308   0.000418  -0.010877
    12  H   -0.018789   0.006419  -0.000533   0.000320  -0.000009  -0.000118
    13  C   -0.062425   0.009651  -0.000897  -0.000988  -0.000043   0.000066
    14  H    0.002541   0.001020   0.000050  -0.002540  -0.000125   0.004045
    15  H   -0.008463  -0.000098  -0.000254   0.000414   0.000006  -0.000650
    16  H    0.008378   0.000617  -0.000112  -0.000054  -0.000004   0.000035
    17  C   -0.001826  -0.066089   0.000870   0.000104  -0.000002   0.000138
    18  C   -0.004002   0.015061   0.001973   0.000011   0.000000   0.000022
    19  H    0.000291   0.000433  -0.000350  -0.000005   0.000000  -0.000012
    20  H   -0.000106  -0.000466   0.000174   0.000000   0.000000   0.000000
    21  H    0.000669  -0.000819  -0.000175   0.000004   0.000000  -0.000008
    22  O   -0.006212   0.019276   0.019189  -0.000003   0.000000   0.000025
    23  C   -0.014233  -0.021800   0.009028   0.258887  -0.039274  -0.008419
    24  H   -0.002405   0.000268  -0.000203  -0.038251  -0.005408  -0.004870
    25  C   -0.000327   0.004702   0.000346  -0.080663  -0.007189   0.007492
    26  H   -0.000071   0.000483  -0.000022  -0.007660  -0.000500   0.000193
    27  H   -0.000053   0.000084   0.000007   0.008573  -0.000060  -0.000266
    28  H    0.000016  -0.000438   0.000017  -0.006004   0.004891   0.000011
    29  C   -0.025478   0.252504  -0.034129  -0.046879   0.007829  -0.008285
    30  H    0.008410  -0.034171  -0.010464   0.007951  -0.000338  -0.000575
    31  H    0.003208  -0.038631  -0.008007  -0.005127   0.000059  -0.000182
               7          8          9         10         11         12
     1  C   -0.003063   0.717610  -0.057047   0.000262   0.304590  -0.018789
     2  C   -0.001045  -0.086162   0.263720  -0.033196  -0.117935   0.006419
     3  H   -0.000113   0.002230  -0.038833   0.002227   0.006728  -0.000533
     4  C    0.401991  -0.018026  -0.002008   0.000070   0.006308   0.000320
     5  H   -0.021588   0.000082  -0.000003   0.000081   0.000418  -0.000009
     6  H   -0.027729   0.017932   0.001666  -0.000084  -0.010877  -0.000118
     7  H    0.538968  -0.000387   0.000038  -0.000013   0.003601   0.000177
     8  O   -0.000387   7.836226   0.000811   0.000263  -0.124259   0.005001
     9  N    0.000038   0.000811   6.542601   0.384926   0.006785   0.000538
    10  H   -0.000013   0.000263   0.384926   0.494755  -0.000014  -0.000029
    11  N    0.003601  -0.124259   0.006785  -0.000014   6.500702   0.378858
    12  H    0.000177   0.005001   0.000538  -0.000029   0.378858   0.531915
    13  C    0.000140   0.004873  -0.000257   0.000016   0.295824  -0.032709
    14  H   -0.000639   0.003960  -0.000027  -0.000007  -0.058996   0.003457
    15  H    0.000068   0.005855  -0.000045   0.000004  -0.040153   0.002392
    16  H   -0.000044   0.001482   0.000009  -0.000001  -0.027122  -0.007925
    17  C    0.000007   0.012698   0.332505  -0.018522  -0.000409  -0.000095
    18  C    0.000000  -0.000512  -0.064284  -0.000481  -0.000071   0.000001
    19  H    0.000000  -0.000034   0.012864  -0.000419   0.000009   0.000001
    20  H    0.000000   0.000043  -0.000670  -0.000034   0.000005   0.000000
    21  H    0.000000   0.000300  -0.000946   0.000116  -0.000001  -0.000001
    22  O    0.000000  -0.003560  -0.137452   0.004427  -0.002527  -0.000137
    23  C   -0.050870   0.007858   0.004501   0.003886  -0.003979   0.000445
    24  H    0.008155   0.000058  -0.001544   0.003082  -0.000110   0.000024
    25  C   -0.007997   0.000092   0.000582  -0.000298   0.000071   0.000007
    26  H    0.003108   0.000007  -0.000028  -0.000039  -0.000125  -0.000013
    27  H   -0.000076   0.000001  -0.000035   0.000019   0.000002   0.000002
    28  H   -0.000618   0.000002   0.000003   0.000082   0.000004   0.000000
    29  C   -0.003361  -0.003292  -0.063736  -0.003891   0.007576  -0.001174
    30  H    0.000272  -0.000455   0.002093   0.001319   0.000031  -0.000215
    31  H    0.003588  -0.000160   0.004439   0.000498  -0.001373   0.003343
              13         14         15         16         17         18
     1  C   -0.062425   0.002541  -0.008463   0.008378  -0.001826  -0.004002
     2  C    0.009651   0.001020  -0.000098   0.000617  -0.066089   0.015061
     3  H   -0.000897   0.000050  -0.000254  -0.000112   0.000870   0.001973
     4  C   -0.000988  -0.002540   0.000414  -0.000054   0.000104   0.000011
     5  H   -0.000043  -0.000125   0.000006  -0.000004  -0.000002   0.000000
     6  H    0.000066   0.004045  -0.000650   0.000035   0.000138   0.000022
     7  H    0.000140  -0.000639   0.000068  -0.000044   0.000007   0.000000
     8  O    0.004873   0.003960   0.005855   0.001482   0.012698  -0.000512
     9  N   -0.000257  -0.000027  -0.000045   0.000009   0.332505  -0.064284
    10  H    0.000016  -0.000007   0.000004  -0.000001  -0.018522  -0.000481
    11  N    0.295824  -0.058996  -0.040153  -0.027122  -0.000409  -0.000071
    12  H   -0.032709   0.003457   0.002392  -0.007925  -0.000095   0.000001
    13  C    4.779821   0.394676   0.403216   0.392901  -0.000155  -0.000005
    14  H    0.394676   0.620146  -0.053123  -0.028581  -0.000017   0.000000
    15  H    0.403216  -0.053123   0.588350  -0.025041   0.000059   0.000001
    16  H    0.392901  -0.028581  -0.025041   0.597440  -0.000004   0.000000
    17  C   -0.000155  -0.000017   0.000059  -0.000004   4.532329   0.277732
    18  C   -0.000005   0.000000   0.000001   0.000000   0.277732   4.998995
    19  H    0.000001   0.000000   0.000000   0.000000  -0.054518   0.391753
    20  H    0.000000   0.000000   0.000000   0.000000  -0.023539   0.382579
    21  H    0.000001   0.000000   0.000001   0.000000  -0.026027   0.389738
    22  O   -0.000162   0.000007   0.000041  -0.000001   0.721474  -0.070556
    23  C   -0.000009   0.000538  -0.000119  -0.000001  -0.000019  -0.000251
    24  H    0.000006   0.000015  -0.000003   0.000001   0.000241   0.000134
    25  C   -0.000027  -0.000003   0.000000  -0.000001   0.000062   0.000004
    26  H    0.000003   0.000012  -0.000001   0.000001   0.000001   0.000000
    27  H    0.000000   0.000000   0.000000   0.000000   0.000003   0.000001
    28  H    0.000000   0.000000   0.000000   0.000000  -0.000003   0.000000
    29  C   -0.000497  -0.000479   0.000125  -0.000039   0.008995   0.000551
    30  H    0.000064  -0.000020   0.000011   0.000003  -0.000417  -0.000043
    31  H    0.000147  -0.000130   0.000062   0.000031  -0.000203   0.000033
              19         20         21         22         23         24
     1  C    0.000291  -0.000106   0.000669  -0.006212  -0.014233  -0.002405
     2  C    0.000433  -0.000466  -0.000819   0.019276  -0.021800   0.000268
     3  H   -0.000350   0.000174  -0.000175   0.019189   0.009028  -0.000203
     4  C   -0.000005   0.000000   0.000004  -0.000003   0.258887  -0.038251
     5  H    0.000000   0.000000   0.000000   0.000000  -0.039274  -0.005408
     6  H   -0.000012   0.000000  -0.000008   0.000025  -0.008419  -0.004870
     7  H    0.000000   0.000000   0.000000   0.000000  -0.050870   0.008155
     8  O   -0.000034   0.000043   0.000300  -0.003560   0.007858   0.000058
     9  N    0.012864  -0.000670  -0.000946  -0.137452   0.004501  -0.001544
    10  H   -0.000419  -0.000034   0.000116   0.004427   0.003886   0.003082
    11  N    0.000009   0.000005  -0.000001  -0.002527  -0.003979  -0.000110
    12  H    0.000001   0.000000  -0.000001  -0.000137   0.000445   0.000024
    13  C    0.000001   0.000000   0.000001  -0.000162  -0.000009   0.000006
    14  H    0.000000   0.000000   0.000000   0.000007   0.000538   0.000015
    15  H    0.000000   0.000000   0.000001   0.000041  -0.000119  -0.000003
    16  H    0.000000   0.000000   0.000000  -0.000001  -0.000001   0.000001
    17  C   -0.054518  -0.023539  -0.026027   0.721474  -0.000019   0.000241
    18  C    0.391753   0.382579   0.389738  -0.070556  -0.000251   0.000134
    19  H    0.606323  -0.027869  -0.024367   0.004738   0.000099   0.000050
    20  H   -0.027869   0.579208  -0.025729   0.002336   0.000027  -0.000010
    21  H   -0.024367  -0.025729   0.564249   0.001118  -0.000031  -0.000014
    22  O    0.004738   0.002336   0.001118   7.851753  -0.000098   0.000026
    23  C    0.000099   0.000027  -0.000031  -0.000098   5.296074   0.422008
    24  H    0.000050  -0.000010  -0.000014   0.000026   0.422008   0.517746
    25  C   -0.000008   0.000001  -0.000001   0.000001   0.288262  -0.035366
    26  H    0.000000   0.000000   0.000000   0.000000  -0.034786   0.008192
    27  H    0.000000   0.000000   0.000000   0.000000  -0.035986  -0.006319
    28  H    0.000000   0.000000   0.000000   0.000000  -0.036717  -0.006527
    29  C   -0.000299  -0.000029   0.000039   0.002418   0.215687  -0.045411
    30  H    0.000002  -0.000036   0.000018  -0.000132  -0.055213  -0.002951
    31  H   -0.000004  -0.000004   0.000000   0.000068  -0.040156   0.005605
              25         26         27         28         29         30
     1  C   -0.000327  -0.000071  -0.000053   0.000016  -0.025478   0.008410
     2  C    0.004702   0.000483   0.000084  -0.000438   0.252504  -0.034171
     3  H    0.000346  -0.000022   0.000007   0.000017  -0.034129  -0.010464
     4  C   -0.080663  -0.007660   0.008573  -0.006004  -0.046879   0.007951
     5  H   -0.007189  -0.000500  -0.000060   0.004891   0.007829  -0.000338
     6  H    0.007492   0.000193  -0.000266   0.000011  -0.008285  -0.000575
     7  H   -0.007997   0.003108  -0.000076  -0.000618  -0.003361   0.000272
     8  O    0.000092   0.000007   0.000001   0.000002  -0.003292  -0.000455
     9  N    0.000582  -0.000028  -0.000035   0.000003  -0.063736   0.002093
    10  H   -0.000298  -0.000039   0.000019   0.000082  -0.003891   0.001319
    11  N    0.000071  -0.000125   0.000002   0.000004   0.007576   0.000031
    12  H    0.000007  -0.000013   0.000002   0.000000  -0.001174  -0.000215
    13  C   -0.000027   0.000003   0.000000   0.000000  -0.000497   0.000064
    14  H   -0.000003   0.000012   0.000000   0.000000  -0.000479  -0.000020
    15  H    0.000000  -0.000001   0.000000   0.000000   0.000125   0.000011
    16  H   -0.000001   0.000001   0.000000   0.000000  -0.000039   0.000003
    17  C    0.000062   0.000001   0.000003  -0.000003   0.008995  -0.000417
    18  C    0.000004   0.000000   0.000001   0.000000   0.000551  -0.000043
    19  H   -0.000008   0.000000   0.000000   0.000000  -0.000299   0.000002
    20  H    0.000001   0.000000   0.000000   0.000000  -0.000029  -0.000036
    21  H   -0.000001   0.000000   0.000000   0.000000   0.000039   0.000018
    22  O    0.000001   0.000000   0.000000   0.000000   0.002418  -0.000132
    23  C    0.288262  -0.034786  -0.035986  -0.036717   0.215687  -0.055213
    24  H   -0.035366   0.008192  -0.006319  -0.006527  -0.045411  -0.002951
    25  C    5.121508   0.400103   0.406351   0.407177  -0.073425  -0.011090
    26  H    0.400103   0.548295  -0.029485  -0.027260  -0.010398  -0.000906
    27  H    0.406351  -0.029485   0.542560  -0.017728  -0.006784   0.004949
    28  H    0.407177  -0.027260  -0.017728   0.534530   0.009846  -0.000016
    29  C   -0.073425  -0.010398  -0.006784   0.009846   5.400703   0.423777
    30  H   -0.011090  -0.000906   0.004949  -0.000016   0.423777   0.467154
    31  H   -0.004683   0.004182  -0.000582   0.000013   0.409785  -0.003739
              31
     1  C    0.003208
     2  C   -0.038631
     3  H   -0.008007
     4  C   -0.005127
     5  H    0.000059
     6  H   -0.000182
     7  H    0.003588
     8  O   -0.000160
     9  N    0.004439
    10  H    0.000498
    11  N   -0.001373
    12  H    0.003343
    13  C    0.000147
    14  H   -0.000130
    15  H    0.000062
    16  H    0.000031
    17  C   -0.000203
    18  C    0.000033
    19  H   -0.000004
    20  H   -0.000004
    21  H    0.000000
    22  O    0.000068
    23  C   -0.040156
    24  H    0.005605
    25  C   -0.004683
    26  H    0.004182
    27  H   -0.000582
    28  H    0.000013
    29  C    0.409785
    30  H   -0.003739
    31  H    0.469501
 Mulliken charges:
               1
     1  C    0.260069
     2  C   -0.155615
     3  H    0.224738
     4  C   -0.476090
     5  H    0.147702
     6  H    0.179418
     7  H    0.157430
     8  O   -0.380537
     9  N   -0.191165
    10  H    0.160991
    11  N   -0.123561
    12  H    0.128847
    13  C   -0.183231
    14  H    0.114222
    15  H    0.127345
    16  H    0.088032
    17  C    0.304624
    18  C   -0.318385
    19  H    0.091322
    20  H    0.114119
    21  H    0.121866
    22  O   -0.406054
    23  C   -0.165341
    24  H    0.183783
    25  C   -0.415680
    26  H    0.146714
    27  H    0.134822
    28  H    0.138721
    29  C   -0.412251
    30  H    0.204728
    31  H    0.198419
 Sum of Mulliken charges =   0.00000
 Mulliken charges with hydrogens summed into heavy atoms:
               1
     1  C    0.260069
     2  C    0.069122
     4  C    0.008460
     8  O   -0.380537
     9  N   -0.030174
    11  N    0.005285
    13  C    0.146368
    17  C    0.304624
    18  C    0.008922
    22  O   -0.406054
    23  C    0.018442
    25  C    0.004577
    29  C   -0.009104
 Electronic spatial extent (au):  <R**2>=           2920.5665
 Charge=              0.0000 electrons
 Dipole moment (field-independent basis, Debye):
    X=             -3.9629    Y=             -2.1684    Z=             -1.5882  Tot=              4.7884
 Quadrupole moment (field-independent basis, Debye-Ang):
   XX=            -85.3964   YY=            -71.4310   ZZ=            -81.1547
   XY=            -10.4695   XZ=              4.8710   YZ=             -5.2947
 Traceless Quadrupole moment (field-independent basis, Debye-Ang):
   XX=             -6.0691   YY=              7.8964   ZZ=             -1.8273
   XY=            -10.4695   XZ=              4.8710   YZ=             -5.2947
 Octapole moment (field-independent basis, Debye-Ang**2):
  XXX=             -1.1033  YYY=             29.0353  ZZZ=             -7.6547  XYY=             -2.6776
  XXY=            -15.7797  XXZ=             15.6522  XZZ=             -1.5686  YZZ=              1.6843
  YYZ=             -3.8919  XYZ=              3.8569
 Hexadecapole moment (field-independent basis, Debye-Ang**3):
 XXXX=          -2122.7916 YYYY=          -1344.4004 ZZZZ=           -359.0540 XXXY=            -80.7309
 XXXZ=             46.4653 YYYX=            -43.0259 YYYZ=            -14.8190 ZZZX=              1.8947
 ZZZY=            -16.1823 XXYY=           -572.0460 XXZZ=           -400.6929 YYZZ=           -297.6728
 XXYZ=             -4.2484 YYXZ=              3.9685 ZZXY=            -11.7523
 N-N= 8.752928370967D+02 E-N=-3.180281610437D+03  KE= 6.091234513052D+02
 Calculating spin-rotation constants.
 Leave Link  601 at Thu Jun 19 00:42:57 2014, MaxMem=  4294967296 cpu:        70.5
 (Enter /home/ztw1e12/g09/l9999.exe)

 Test job not archived.
 1\1\GINC-GREEN0471\SP\RM06\Gen\C9H18N2O2\ROOT\19-Jun-2014\0\\#P Geom=A
 llCheck Guess=TCheck SCRF=Check GenChk RM06/ChkBas NMR=ReadFC IOp(3/6=
 22)\\NMR spin-spin scan\\0,1\C,0,0.597128,0.792604,0.571591\C,0,0.1844
 77,0.126434,-0.737182\H,0,0.589916,0.758735,-1.533444\C,0,-2.212767,-0
 .226242,1.412429\H,0,-2.878253,-0.827987,2.03485\H,0,-1.238846,-0.2113
 14,1.900728\H,0,-2.60862,0.794741,1.405055\O,0,1.122386,0.179483,1.496
 231\N,0,0.782697,-1.179999,-0.864257\H,0,0.201244,-1.996224,-0.755582\
 N,0,0.354988,2.106275,0.628279\H,0,-0.100092,2.553345,-0.151923\C,0,0.
 584796,2.863431,1.837376\H,0,-0.026196,2.484837,2.659466\H,0,1.631131,
 2.811011,2.137728\H,0,0.325859,3.902437,1.658138\C,0,2.106796,-1.34556
 9,-1.021982\C,0,2.596071,-2.755219,-1.089157\H,0,1.795712,-3.489637,-1
 .02871\H,0,3.143892,-2.894856,-2.020519\H,0,3.296697,-2.921022,-0.2708
 76\O,0,2.876313,-0.390063,-1.117014\C,0,-2.165795,-0.785155,0.00138\H,
 0,-1.752318,-1.800954,0.050663\C,0,-3.573981,-0.883527,-0.556337\H,0,-
 4.020908,0.112998,-0.629383\H,0,-3.583503,-1.326504,-1.554081\H,0,-4.2
 13792,-1.487383,0.089585\C,0,-1.323613,0.046572,-0.962183\H,0,-1.46457
 7,-0.345408,-1.973723\H,0,-1.72122,1.067454,-0.976808\\Version=EM64L-G
 09RevD.01\State=1-A\HF=-613.5824391\RMSD=2.994e-09\Dipole=-1.8060782,0
 .1426783,-0.5165164\Quadrupole=-8.3285109,11.1694828,-2.8409719,-2.604
 4661,0.9216652,2.9674665\PG=C01 [X(C9H18N2O2)]\\@


 OLD AGE AND TREACHERY WILL ALWAYS PREVAIL OVER YOUTH AND SKILL.
 Job cpu time:       2 days 13 hours 24 minutes  9.2 seconds.
 File lengths (MBytes):  RWF=   2456 Int=      0 D2E=      0 Chk=     48 Scr=      8
 Normal termination of Gaussian 09 at Thu Jun 19 00:42:57 2014.
