 Entering Gaussian System, Link 0=g09
 Input=scan_input_12.gjf
 Output=scan_input_12.log
 Initial command:
 /home/ztw1e12/g09/l1.exe "/home/ztw1e12/leucine_scan/leucine_chi2_scan/Gau-26289.inp" -scrdir="/home/ztw1e12/leucine_scan/leucine_chi2_scan/"
 Default is to use a total of   8 processors:
                                8 via shared-memory
                                1 via Linda
 Entering Link 1 = /home/ztw1e12/g09/l1.exe PID=     26290.
  
 Copyright (c) 1988,1990,1992,1993,1995,1998,2003,2009,2013,
            Gaussian, Inc.  All Rights Reserved.
  
 This is part of the Gaussian(R) 09 program.  It is based on
 the Gaussian(R) 03 system (copyright 2003, Gaussian, Inc.),
 the Gaussian(R) 98 system (copyright 1998, Gaussian, Inc.),
 the Gaussian(R) 94 system (copyright 1995, Gaussian, Inc.),
 the Gaussian 92(TM) system (copyright 1992, Gaussian, Inc.),
 the Gaussian 90(TM) system (copyright 1990, Gaussian, Inc.),
 the Gaussian 88(TM) system (copyright 1988, Gaussian, Inc.),
 the Gaussian 86(TM) system (copyright 1986, Carnegie Mellon
 University), and the Gaussian 82(TM) system (copyright 1983,
 Carnegie Mellon University). Gaussian is a federally registered
 trademark of Gaussian, Inc.
  
 This software contains proprietary and confidential information,
 including trade secrets, belonging to Gaussian, Inc.
  
 This software is provided under written license and may be
 used, copied, transmitted, or stored only in accord with that
 written license.
  
 The following legend is applicable only to US Government
 contracts under FAR:
  
                    RESTRICTED RIGHTS LEGEND
  
 Use, reproduction and disclosure by the US Government is
 subject to restrictions as set forth in subparagraphs (a)
 and (c) of the Commercial Computer Software - Restricted
 Rights clause in FAR 52.227-19.
  
 Gaussian, Inc.
 340 Quinnipiac St., Bldg. 40, Wallingford CT 06492
  
  
 ---------------------------------------------------------------
 Warning -- This program may not be used in any manner that
 competes with the business of Gaussian, Inc. or will provide
 assistance to any competitor of Gaussian, Inc.  The licensee
 of this program is prohibited from giving any competitor of
 Gaussian, Inc. access to this program.  By using this program,
 the user acknowledges that Gaussian, Inc. is engaged in the
 business of creating and licensing software in the field of
 computational chemistry and represents and warrants to the
 licensee that it is not a competitor of Gaussian, Inc. and that
 it will not use this program in any manner prohibited above.
 ---------------------------------------------------------------
  

 Cite this work as:
 Gaussian 09, Revision D.01,
 M. J. Frisch, G. W. Trucks, H. B. Schlegel, G. E. Scuseria, 
 M. A. Robb, J. R. Cheeseman, G. Scalmani, V. Barone, B. Mennucci, 
 G. A. Petersson, H. Nakatsuji, M. Caricato, X. Li, H. P. Hratchian, 
 A. F. Izmaylov, J. Bloino, G. Zheng, J. L. Sonnenberg, M. Hada, 
 M. Ehara, K. Toyota, R. Fukuda, J. Hasegawa, M. Ishida, T. Nakajima, 
 Y. Honda, O. Kitao, H. Nakai, T. Vreven, J. A. Montgomery, Jr., 
 J. E. Peralta, F. Ogliaro, M. Bearpark, J. J. Heyd, E. Brothers, 
 K. N. Kudin, V. N. Staroverov, T. Keith, R. Kobayashi, J. Normand, 
 K. Raghavachari, A. Rendell, J. C. Burant, S. S. Iyengar, J. Tomasi, 
 M. Cossi, N. Rega, J. M. Millam, M. Klene, J. E. Knox, J. B. Cross, 
 V. Bakken, C. Adamo, J. Jaramillo, R. Gomperts, R. E. Stratmann, 
 O. Yazyev, A. J. Austin, R. Cammi, C. Pomelli, J. W. Ochterski, 
 R. L. Martin, K. Morokuma, V. G. Zakrzewski, G. A. Voth, 
 P. Salvador, J. J. Dannenberg, S. Dapprich, A. D. Daniels, 
 O. Farkas, J. B. Foresman, J. V. Ortiz, J. Cioslowski, 
 and D. J. Fox, Gaussian, Inc., Wallingford CT, 2013.
 
 ******************************************
 Gaussian 09:  EM64L-G09RevD.01 24-Apr-2013
                18-Jun-2014 
 ******************************************
 %Mem=32GB
 %NProcShared=16
 Will use up to   16 processors via shared memory.
 Default route:  MaxDisk=100GB
 ----------------------------------------------------------------------
 #p nmr=(giao,mixed,spinspin) m06/cc-pvtz scf=tight integral=(grid=ultr
 afine)
 ----------------------------------------------------------------------
 1/38=1/1;
 2/12=2,17=6,18=5,40=1/2;
 3/5=16,6=1,10=1100000,11=2,16=1,25=1,30=1,74=-54,75=-5/1,2,8,3;
 4//1;
 5/5=2,32=2,38=5/2;
 8/6=1,10=90,11=11/1;
 10/13=100,45=16,47=3/2;
 6/7=2,8=2,9=2,10=2,28=1/1;
 99/9=1/99;
 Leave Link    1 at Wed Jun 18 02:04:45 2014, MaxMem=  4294967296 cpu:         5.8
 (Enter /home/ztw1e12/g09/l101.exe)
 ------------------
 NMR spin-spin scan
 ------------------
 Symbolic Z-matrix:
 Charge =  0 Multiplicity = 1
 C                     0.26905   1.04152   0.32455 
 C                     0.10021   0.06098  -0.83157 
 H                     0.57856   0.53333  -1.69549 
 C                    -2.20916  -2.13648   0.18779 
 H                    -3.0933   -2.49637   0.71769 
 H                    -2.05002  -2.78376  -0.67751 
 H                    -1.36284  -2.26168   0.87167 
 O                     0.66863   0.70159   1.43395 
 N                     0.81273  -1.16833  -0.56902 
 H                     0.2928   -2.0039   -0.35393 
 N                    -0.03659   2.30944   0.02939 
 H                    -0.39506   2.52086  -0.88852 
 C                    -0.08071   3.33034   1.05034 
 H                    -0.75816   3.0491    1.85925 
 H                     0.90676   3.50181   1.47931 
 H                    -0.43169   4.25698   0.60639 
 C                     2.15488  -1.20983  -0.52341 
 C                     2.77141  -2.5319   -0.2052 
 H                     2.04215  -3.33032  -0.08576 
 H                     3.46856  -2.79455  -1.00041 
 H                     3.34881  -2.43452   0.71433 
 O                     2.84419  -0.21394  -0.7407 
 C                    -2.38596  -0.68372  -0.22182 
 H                    -3.32727  -0.64035  -0.78342 
 C                    -2.56577   0.20875   0.99123 
 H                    -1.71522   0.14682   1.6725 
 H                    -2.70286   1.2553    0.70927 
 H                    -3.4497   -0.10208   1.55193 
 C                    -1.35007  -0.20433  -1.24237 
 H                    -1.3174   -0.91877  -2.06955 
 H                    -1.72131   0.7313   -1.67056 
 
 NAtoms=     31 NQM=       31 NQMF=       0 NMMI=      0 NMMIF=      0
                NMic=       0 NMicF=      0.
                    Isotopes and Nuclear Properties:
 (Nuclear quadrupole moments (NQMom) in fm**2, nuclear magnetic moments (NMagM)
  in nuclear magnetons)

  Atom         1           2           3           4           5           6           7           8           9          10
 IAtWgt=          12          12           1          12           1           1           1          16          14           1
 AtmWgt=  12.0000000  12.0000000   1.0078250  12.0000000   1.0078250   1.0078250   1.0078250  15.9949146  14.0030740   1.0078250
 NucSpn=           0           0           1           0           1           1           1           0           2           1
 AtZEff=   0.0000000   0.0000000   0.0000000   0.0000000   0.0000000   0.0000000   0.0000000   0.0000000   0.0000000   0.0000000
 NQMom=    0.0000000   0.0000000   0.0000000   0.0000000   0.0000000   0.0000000   0.0000000   0.0000000   2.0440000   0.0000000
 NMagM=    0.0000000   0.0000000   2.7928460   0.0000000   2.7928460   2.7928460   2.7928460   0.0000000   0.4037610   2.7928460
 AtZNuc=   6.0000000   6.0000000   1.0000000   6.0000000   1.0000000   1.0000000   1.0000000   8.0000000   7.0000000   1.0000000

  Atom        11          12          13          14          15          16          17          18          19          20
 IAtWgt=          14           1          12           1           1           1          12          12           1           1
 AtmWgt=  14.0030740   1.0078250  12.0000000   1.0078250   1.0078250   1.0078250  12.0000000  12.0000000   1.0078250   1.0078250
 NucSpn=           2           1           0           1           1           1           0           0           1           1
 AtZEff=   0.0000000   0.0000000   0.0000000   0.0000000   0.0000000   0.0000000   0.0000000   0.0000000   0.0000000   0.0000000
 NQMom=    2.0440000   0.0000000   0.0000000   0.0000000   0.0000000   0.0000000   0.0000000   0.0000000   0.0000000   0.0000000
 NMagM=    0.4037610   2.7928460   0.0000000   2.7928460   2.7928460   2.7928460   0.0000000   0.0000000   2.7928460   2.7928460
 AtZNuc=   7.0000000   1.0000000   6.0000000   1.0000000   1.0000000   1.0000000   6.0000000   6.0000000   1.0000000   1.0000000

  Atom        21          22          23          24          25          26          27          28          29          30
 IAtWgt=           1          16          12           1          12           1           1           1          12           1
 AtmWgt=   1.0078250  15.9949146  12.0000000   1.0078250  12.0000000   1.0078250   1.0078250   1.0078250  12.0000000   1.0078250
 NucSpn=           1           0           0           1           0           1           1           1           0           1
 AtZEff=   0.0000000   0.0000000   0.0000000   0.0000000   0.0000000   0.0000000   0.0000000   0.0000000   0.0000000   0.0000000
 NQMom=    0.0000000   0.0000000   0.0000000   0.0000000   0.0000000   0.0000000   0.0000000   0.0000000   0.0000000   0.0000000
 NMagM=    2.7928460   0.0000000   0.0000000   2.7928460   0.0000000   2.7928460   2.7928460   2.7928460   0.0000000   2.7928460
 AtZNuc=   1.0000000   8.0000000   6.0000000   1.0000000   6.0000000   1.0000000   1.0000000   1.0000000   6.0000000   1.0000000

  Atom        31
 IAtWgt=           1
 AtmWgt=   1.0078250
 NucSpn=           1
 AtZEff=   0.0000000
 NQMom=    0.0000000
 NMagM=    2.7928460
 AtZNuc=   1.0000000
 Leave Link  101 at Wed Jun 18 02:04:46 2014, MaxMem=  4294967296 cpu:         1.8
 (Enter /home/ztw1e12/g09/l202.exe)
                          Input orientation:                          
 ---------------------------------------------------------------------
 Center     Atomic      Atomic             Coordinates (Angstroms)
 Number     Number       Type             X           Y           Z
 ---------------------------------------------------------------------
      1          6           0        0.269051    1.041520    0.324546
      2          6           0        0.100208    0.060976   -0.831573
      3          1           0        0.578559    0.533328   -1.695486
      4          6           0       -2.209162   -2.136482    0.187793
      5          1           0       -3.093305   -2.496374    0.717688
      6          1           0       -2.050016   -2.783757   -0.677508
      7          1           0       -1.362844   -2.261683    0.871667
      8          8           0        0.668629    0.701593    1.433951
      9          7           0        0.812734   -1.168325   -0.569021
     10          1           0        0.292797   -2.003899   -0.353931
     11          7           0       -0.036593    2.309436    0.029385
     12          1           0       -0.395061    2.520861   -0.888518
     13          6           0       -0.080709    3.330340    1.050341
     14          1           0       -0.758155    3.049101    1.859250
     15          1           0        0.906762    3.501813    1.479309
     16          1           0       -0.431692    4.256978    0.606390
     17          6           0        2.154883   -1.209834   -0.523405
     18          6           0        2.771405   -2.531896   -0.205198
     19          1           0        2.042146   -3.330322   -0.085764
     20          1           0        3.468561   -2.794546   -1.000411
     21          1           0        3.348810   -2.434524    0.714333
     22          8           0        2.844192   -0.213938   -0.740698
     23          6           0       -2.385964   -0.683715   -0.221819
     24          1           0       -3.327268   -0.640346   -0.783424
     25          6           0       -2.565774    0.208749    0.991225
     26          1           0       -1.715222    0.146824    1.672496
     27          1           0       -2.702862    1.255295    0.709269
     28          1           0       -3.449702   -0.102077    1.551925
     29          6           0       -1.350067   -0.204331   -1.242367
     30          1           0       -1.317404   -0.918766   -2.069549
     31          1           0       -1.721312    0.731299   -1.670555
 ---------------------------------------------------------------------
                    Distance matrix (angstroms):
                    1          2          3          4          5
     1  C    0.000000
     2  C    1.525315   0.000000
     3  H    2.105845   1.094661   0.000000
     4  C    4.032361   3.346807   4.294882   0.000000
     5  H    4.896600   4.374788   5.337142   1.091797   0.000000
     6  H    4.584204   3.569272   4.353015   1.092263   1.765676
     7  H    3.724725   3.230525   4.262793   1.095269   1.753079
     8  O    1.227189   2.422002   3.135251   4.229570   4.989206
     9  N    2.444886   1.444925   2.054114   3.262200   4.321629
    10  H    3.120172   2.128131   2.884259   2.563365   3.585608
    11  N    1.337217   2.411542   2.551108   4.950892   5.736990
    12  H    2.025097   2.509894   2.355721   5.112754   5.918874
    13  C    2.426480   3.776648   3.974604   5.929624   6.567876
    14  H    2.727792   4.111716   4.555444   5.638214   6.124409
    15  H    2.791629   4.222566   4.358778   6.570188   7.249748
    16  H    3.302975   4.467336   4.492751   6.649132   7.259775
    17  C    3.056792   2.435491   2.626249   4.517673   5.544274
    18  C    4.394509   3.775000   4.052793   5.011671   5.936986
    19  H    4.735528   3.978474   4.434082   4.424218   5.264396
    20  H    5.167957   4.419085   4.462061   5.837929   6.789614
    21  H    4.660443   4.378443   4.721193   5.590807   6.442413
    22  O    3.056513   2.759218   2.569654   5.485860   6.526122
    23  C    3.213107   2.665974   3.527221   1.519728   2.160726
    24  H    4.121866   3.498823   4.179097   2.105195   2.398524
    25  C    3.028894   3.232938   4.148566   2.504553   2.769621
    26  H    2.560232   3.094110   4.093180   2.767997   3.130059
    27  H    3.004327   3.414351   4.131804   3.466962   3.771941
    28  H    4.079632   4.278961   5.213090   2.745651   2.560396
    29  C    2.574666   1.530502   2.114014   2.552765   3.483411
    30  H    3.477248   2.121816   2.417266   2.715448   3.662153
    31  H    2.835174   2.114511   2.308510   3.451901   4.243105
                    6          7          8          9         10
     6  H    0.000000
     7  H    1.773333   0.000000
     8  O    4.898669   3.636489   0.000000
     9  N    3.288879   2.829161   2.743949   0.000000
    10  H    2.490312   2.075979   3.264576   1.007364   0.000000
    11  N    5.522154   4.833581   2.248400   3.629637   4.342843
    12  H    5.560789   5.187252   3.136086   3.894989   4.607861
    13  C    6.651753   5.739906   2.760249   4.864007   5.528616
    14  H    6.490476   5.435568   2.779818   5.113793   5.615646
    15  H    7.273430   6.224004   2.810693   5.100459   5.835288
    16  H    7.337528   6.590171   3.812653   5.688945   6.375397
    17  C    4.492456   3.927724   3.113478   1.343565   2.031410
    18  C    4.851042   4.280732   4.190934   2.414143   2.538582
    19  H    4.170693   3.694945   4.522435   2.533618   2.211681
    20  H    5.528026   5.208752   5.097914   3.143900   3.335946
    21  H    5.586278   4.717448   4.187654   3.111581   3.265860
    22  O    5.528222   4.948953   3.209419   2.251033   3.140568
    23  C    2.175015   2.175424   3.740480   3.253777   2.989331
    24  H    2.497359   3.037601   4.762851   4.179037   3.892122
    25  C    3.464934   2.750340   3.301555   3.967999   3.857030
    26  H    3.771327   2.562499   2.459150   3.625545   3.572696
    27  H    4.320104   3.767115   3.492664   4.457283   4.552660
    28  H    3.757779   3.079225   4.197672   4.878899   4.610370
    29  C    2.731745   2.949915   3.472537   2.461785   2.593601
    30  H    2.439814   3.233611   4.341014   2.617509   2.591063
    31  H    3.667398   3.943264   3.917992   3.353109   3.642999
                   11         12         13         14         15
    11  N    0.000000
    12  H    1.007842   0.000000
    13  C    1.444487   2.124441   0.000000
    14  H    2.101467   2.821543   1.091953   0.000000
    15  H    2.100943   2.874650   1.090191   1.766707   0.000000
    16  H    2.069289   2.291330   1.085790   1.770650   1.767405
    17  C    4.182512   4.533609   5.299786   5.683429   5.269562
    18  C    5.601641   6.001982   6.639032   6.918617   6.536062
    19  H    6.011762   6.389111   7.082490   7.233381   7.100466
    20  H    6.276720   6.572187   7.370016   7.758286   7.235742
    21  H    5.868157   6.414167   6.716261   6.946088   6.464432
    22  O    3.906324   4.241902   4.932015   5.512174   4.742243
    23  C    3.813345   3.831121   4.800545   4.573240   5.590575
    24  H    4.493374   4.313017   5.446943   5.214987   6.340698
    25  C    3.425606   3.686637   3.990410   3.476860   4.810510
    26  H    3.192883   3.733319   3.632284   3.061710   4.262402
    27  H    2.946599   3.079046   3.361224   2.884802   4.320786
    28  H    4.447790   4.708120   4.835616   4.155574   5.654385
    29  C    3.108310   2.909281   4.400191   4.533785   5.122138
    30  H    4.057991   3.751877   5.414613   5.611790   6.089567
    31  H    2.866808   2.360732   4.104859   4.331212   4.950168
                   16         17         18         19         20
    16  H    0.000000
    17  C    6.152466   0.000000
    18  C    7.550319   1.493052   0.000000
    19  H    8.010373   2.168112   1.087919   0.000000
    20  H    8.216920   2.112959   1.089667   1.777159   0.000000
    21  H    7.686355   2.111237   1.090145   1.774818   1.756218
    22  O    5.703959   1.230517   2.380123   3.283910   2.667738
    23  C    5.377319   4.581162   5.478549   5.160542   6.271944
    24  H    5.856597   5.517781   6.411405   6.045933   7.132388
    25  C    4.592446   5.156654   6.117846   5.909133   7.028484
    26  H    4.435921   4.651904   5.552576   5.412932   6.532051
    27  H    3.765488   5.585162   6.719127   6.646432   7.576984
    28  H    5.385516   6.078280   6.906061   6.577536   7.850234
    29  C    4.915749   3.716533   4.845597   4.755698   5.476033
    30  H    5.893510   3.812094   4.774553   4.586674   5.250435
    31  H    4.390673   4.484288   5.742841   5.759509   6.309949
                   21         22         23         24         25
    21  H    0.000000
    22  O    2.702361   0.000000
    23  C    6.068719   5.276785   0.000000
    24  H    7.073356   6.186321   1.096966   0.000000
    25  C    6.484278   5.696135   1.516674   2.109553   0.000000
    26  H    5.764187   5.171258   2.174424   3.041360   1.091514
    27  H    7.087843   5.918687   2.174192   2.492282   1.092498
    28  H    7.236134   6.699383   2.148490   2.399704   1.091937
    29  C    5.557147   4.224165   1.531147   2.076069   2.576337
    30  H    5.641017   4.425100   2.147365   2.402330   3.492571
    31  H    6.435547   4.754149   2.131399   2.290744   2.840994
                   26         27         28         29         30
    26  H    0.000000
    27  H    1.769731   0.000000
    28  H    1.756391   1.763604   0.000000
    29  C    2.958560   2.787372   3.496711   0.000000
    30  H    3.911092   3.790497   4.281209   1.093487   0.000000
    31  H    3.393765   2.627085   3.750497   1.093879   1.745008
                   31
    31  H    0.000000
 Stoichiometry    C9H18N2O2
 Framework group  C1[X(C9H18N2O2)]
 Deg. of freedom    87
 Full point group                 C1      NOp   1
 Largest Abelian subgroup         C1      NOp   1
 Largest concise Abelian subgroup C1      NOp   1
                         Standard orientation:                         
 ---------------------------------------------------------------------
 Center     Atomic      Atomic             Coordinates (Angstroms)
 Number     Number       Type             X           Y           Z
 ---------------------------------------------------------------------
      1          6           0       -0.462291   -1.061332   -0.095163
      2          6           0        0.169532   -0.020613    0.823690
      3          1           0        0.466551   -0.561929    1.727592
      4          6           0       -0.689932    2.947956   -0.460848
      5          1           0       -1.312121    3.678881   -0.981089
      6          1           0       -0.033461    3.491732    0.222081
      7          1           0       -0.069592    2.466337   -1.224283
      8          8           0       -0.169241   -1.168328   -1.282035
      9          7           0        1.373663    0.519096    0.234971
     10          1           0        1.371085    1.463300   -0.116105
     11          7           0       -1.351581   -1.863618    0.499523
     12          1           0       -1.578094   -1.702819    1.468327
     13          6           0       -2.151653   -2.795207   -0.261114
     14          1           0       -2.704656   -2.284689   -1.052266
     15          1           0       -1.530472   -3.562975   -0.722830
     16          1           0       -2.860069   -3.277005    0.405937
     17          6           0        2.475255   -0.231821    0.068278
     18          6           0        3.641821    0.430651   -0.587052
     19          1           0        3.467937    1.479169   -0.819305
     20          1           0        4.508243    0.343989    0.068065
     21          1           0        3.875031   -0.105482   -1.507156
     22          8           0        2.527052   -1.402780    0.442903
     23          6           0       -1.554292    1.937727    0.275285
     24          1           0       -2.230515    2.523818    0.909757
     25          6           0       -2.431258    1.162324   -0.689070
     26          1           0       -1.841892    0.627743   -1.436249
     27          1           0       -3.064389    0.438455   -0.170698
     28          1           0       -3.086412    1.849566   -1.228327
     29          6           0       -0.778496    1.088467    1.285882
     30          1           0       -0.194966    1.754449    1.927500
     31          1           0       -1.511396    0.609079    1.941333
 ---------------------------------------------------------------------
 Rotational constants (GHZ):      0.8750170      0.6638461      0.4440715
 Leave Link  202 at Wed Jun 18 02:04:46 2014, MaxMem=  4294967296 cpu:         2.5
 (Enter /home/ztw1e12/g09/l301.exe)
 Standard basis: CC-pVTZ (5D, 7F)
 Converting basis for Fermi contact spin-spin IFCMod=1.
 AO basis functions are being uncontracted.
 Ernie: Thresh=  0.10000D-02 Tol=  0.10000D-05 Strict=F.
 There are  1119 symmetry adapted cartesian basis functions of A   symmetry.
 There are  1036 symmetry adapted basis functions of A   symmetry.
  1036 basis functions,  1119 primitive gaussians,  1119 cartesian basis functions
    51 alpha electrons       51 beta electrons
       nuclear repulsion energy       885.2111652998 Hartrees.
 IExCor= 4235 DFT=T Ex+Corr=M06 ExCW=0 ScaHFX=  0.270000
 ScaDFX=  1.000000  1.000000  1.000000  1.000000 ScalE2=  1.000000  1.000000
 IRadAn= 199590 IRanWt=     -1 IRanGd=            0 ICorTp=0 IEmpDi=  4
 NAtoms=   31 NActive=   31 NUniq=   31 SFac= 1.00D+00 NAtFMM=   60 NAOKFM=F Big=F
 Integral buffers will be    131072 words long.
 Raffenetti 2 integral format.
 Two-electron integral symmetry is turned on.
 Leave Link  301 at Wed Jun 18 02:04:46 2014, MaxMem=  4294967296 cpu:         5.1
 (Enter /home/ztw1e12/g09/l302.exe)
 NPDir=0 NMtPBC=     1 NCelOv=     1 NCel=       1 NClECP=     1 NCelD=      1
         NCelK=      1 NCelE2=     1 NClLst=     1 CellRange=     0.0.
 One-electron integrals computed using PRISM.
 GSVD:  received Info=                   1 from GESDD.
 NBasis=  1036 RedAO= T EigKep=  1.05D-04  NBF=  1036
 NBsUse=   932 1.00D-06 EigRej=  5.63D-15 NBFU=   932
 Precomputing XC quadrature grid using
 IXCGrd= 4 IRadAn=      199590 IRanWt=          -1 IRanGd=           0 AccXCQ= 0.00D+00.
 Generated NRdTot=       0 NPtTot=           0 NUsed=           0 NTot=          32
 NSgBfM=   879   880   882   882   882 MxSgAt=    31 MxSgA2=    31.
 Leave Link  302 at Wed Jun 18 02:04:51 2014, MaxMem=  4294967296 cpu:        65.0
 (Enter /home/ztw1e12/g09/l308.exe)
 Leave Link  308 at Wed Jun 18 02:04:51 2014, MaxMem=  4294967296 cpu:         5.7
 (Enter /home/ztw1e12/g09/l303.exe)
 DipDrv:  MaxL=1.
 Leave Link  303 at Wed Jun 18 02:04:52 2014, MaxMem=  4294967296 cpu:         3.3
 (Enter /home/ztw1e12/g09/l401.exe)
 ExpMin= 1.03D-01 ExpMax= 1.38D+05 ExpMxC= 1.38D+05 IAcc=4 IRadAn=    199590 AccDes= 0.00D+00
 Harris functional with IExCor= 1009 and IRadAn=  199590 diagonalized for initial guess.
 HarFok:  IExCor= 1009 AccDes= 0.00D+00 IRadAn=    199590 IDoV= 1 UseB2=F ITyADJ=14
 ICtDFT=  3500011 ScaDFX=  1.000000  1.000000  1.000000  1.000000
 FoFCou: FMM=F IPFlag=           0 FMFlag=      100000 FMFlg1=           0
         NFxFlg=           0 DoJE=T BraDBF=F KetDBF=T FulRan=T
         wScrn=  0.000000 ICntrl=     500 IOpCl=  0 I1Cent=   200000004 NGrid=           0
         NMat0=    1 NMatS0=      1 NMatT0=    0 NMatD0=    1 NMtDS0=    0 NMtDT0=    0
 Petite list used in FoFCou.
 Harris En= -613.560563847453    
 JPrj=0 DoOrth=F DoCkMO=F.
 Leave Link  401 at Wed Jun 18 02:05:10 2014, MaxMem=  4294967296 cpu:       273.0
 (Enter /home/ztw1e12/g09/l502.exe)
 Closed shell SCF:
 Using DIIS extrapolation, IDIIS=  1040.
 Integral symmetry usage will be decided dynamically.
 IVT=     3801329 IEndB=     3801329 NGot=  4294967296 MDV=  4292435888
 LenX=  4292435888 LenY=  4291182608
 Requested convergence on RMS density matrix=1.00D-08 within 128 cycles.
 Requested convergence on MAX density matrix=1.00D-06.
 Requested convergence on             energy=1.00D-06.
 No special actions if energy rises.
 Fock matrices will be formed incrementally for  20 cycles.
 Integral accuracy reduced to 1.0D-05 until final iterations.

 Cycle   1  Pass 0  IDiag  1:
 FoFJK:  IHMeth= 1 ICntrl=       0 DoSepK=F KAlg= 0 I1Cent=   0 FoldK=F
 IRaf= 490000000 NMat=   1 IRICut=       1 DoRegI=T DoRafI=F ISym2E= 0.
 FoFCou: FMM=F IPFlag=           0 FMFlag=      100000 FMFlg1=           0
         NFxFlg=           0 DoJE=F BraDBF=F KetDBF=F FulRan=T
         wScrn=  0.000000 ICntrl=       0 IOpCl=  0 I1Cent=           0 NGrid=           0
         NMat0=    1 NMatS0=      1 NMatT0=    0 NMatD0=    1 NMtDS0=    0 NMtDT0=    0
 Symmetry not used in FoFCou.
 E= -613.181331020277    
 DIIS: error= 1.30D-01 at cycle   1 NSaved=   1.
 NSaved= 1 IEnMin= 1 EnMin= -613.181331020277     IErMin= 1 ErrMin= 1.30D-01
 ErrMax= 1.30D-01  0.00D+00 EMaxC= 1.00D-01 BMatC= 1.30D+01 BMatP= 1.30D+01
 IDIUse=3 WtCom= 0.00D+00 WtEn= 1.00D+00
 Coeff-Com:  0.100D+01
 Coeff-En:   0.100D+01
 Coeff:      0.100D+01
 Gap=     0.287 Goal=   None    Shift=    0.000
 GapD=    0.287 DampG=1.000 DampE=0.250 DampFc=0.2500 IDamp=-1.
 Damping current iteration by 2.50D-01
 RMSDP=2.19D-03 MaxDP=3.23D-01              OVMax= 2.86D-01

 Cycle   2  Pass 0  IDiag  1:
 RMSU=  5.47D-04    CP:  1.01D+00
 E= -613.337980913747     Delta-E=       -0.156649893470 Rises=F Damp=T
 DIIS: error= 1.02D-01 at cycle   2 NSaved=   2.
 NSaved= 2 IEnMin= 2 EnMin= -613.337980913747     IErMin= 2 ErrMin= 1.02D-01
 ErrMax= 1.02D-01  0.00D+00 EMaxC= 1.00D-01 BMatC= 7.66D+00 BMatP= 1.30D+01
 IDIUse=3 WtCom= 0.00D+00 WtEn= 1.00D+00
 Coeff-Com: -0.279D+01 0.379D+01
 Coeff-En:   0.000D+00 0.100D+01
 Coeff:      0.000D+00 0.100D+01
 Gap=     0.215 Goal=   None    Shift=    0.000
 RMSDP=6.11D-04 MaxDP=5.80D-02 DE=-1.57D-01 OVMax= 1.34D-01

 Cycle   3  Pass 0  IDiag  1:
 RMSU=  4.55D-04    CP:  1.03D+00  1.74D+00
 E= -613.528156814131     Delta-E=       -0.190175900384 Rises=F Damp=F
 DIIS: error= 1.55D-02 at cycle   3 NSaved=   3.
 NSaved= 3 IEnMin= 3 EnMin= -613.528156814131     IErMin= 3 ErrMin= 1.55D-02
 ErrMax= 1.55D-02  0.00D+00 EMaxC= 1.00D-01 BMatC= 2.30D-01 BMatP= 7.66D+00
 IDIUse=3 WtCom= 8.45D-01 WtEn= 1.55D-01
 Coeff-Com:  0.122D+01-0.166D+01 0.145D+01
 Coeff-En:   0.136D+00 0.000D+00 0.864D+00
 Coeff:      0.105D+01-0.141D+01 0.136D+01
 Gap=     0.244 Goal=   None    Shift=    0.000
 RMSDP=4.25D-04 MaxDP=3.58D-02 DE=-1.90D-01 OVMax= 6.52D-02

 Cycle   4  Pass 0  IDiag  1:
 RMSU=  2.67D-04    CP:  1.03D+00  1.19D+00  7.02D-01
 E= -613.544128924765     Delta-E=       -0.015972110634 Rises=F Damp=F
 DIIS: error= 9.39D-03 at cycle   4 NSaved=   4.
 NSaved= 4 IEnMin= 4 EnMin= -613.544128924765     IErMin= 4 ErrMin= 9.39D-03
 ErrMax= 9.39D-03  0.00D+00 EMaxC= 1.00D-01 BMatC= 1.01D-01 BMatP= 2.30D-01
 IDIUse=3 WtCom= 9.06D-01 WtEn= 9.39D-02
 Coeff-Com:  0.742D+00-0.102D+01 0.739D+00 0.540D+00
 Coeff-En:   0.000D+00 0.000D+00 0.441D+00 0.559D+00
 Coeff:      0.673D+00-0.926D+00 0.711D+00 0.542D+00
 Gap=     0.277 Goal=   None    Shift=    0.000
 RMSDP=2.73D-04 MaxDP=1.81D-02 DE=-1.60D-02 OVMax= 7.39D-02

 Cycle   5  Pass 0  IDiag  1:
 RMSU=  9.23D-05    CP:  1.02D+00  1.12D+00  8.38D-01  8.15D-02
 E= -613.613474469899     Delta-E=       -0.069345545134 Rises=F Damp=F
 DIIS: error= 2.93D-03 at cycle   5 NSaved=   5.
 NSaved= 5 IEnMin= 5 EnMin= -613.613474469899     IErMin= 5 ErrMin= 2.93D-03
 ErrMax= 2.93D-03  0.00D+00 EMaxC= 1.00D-01 BMatC= 1.48D-02 BMatP= 1.01D-01
 IDIUse=3 WtCom= 9.71D-01 WtEn= 2.93D-02
 Coeff-Com:  0.123D+00-0.177D+00 0.128D+00 0.278D+00 0.648D+00
 Coeff-En:   0.000D+00 0.000D+00 0.000D+00 0.943D-01 0.906D+00
 Coeff:      0.120D+00-0.172D+00 0.125D+00 0.272D+00 0.655D+00
 Gap=     0.267 Goal=   None    Shift=    0.000
 RMSDP=1.56D-04 MaxDP=1.76D-02 DE=-6.93D-02 OVMax= 2.78D-02

 Cycle   6  Pass 0  IDiag  1:
 RMSU=  7.93D-05    CP:  1.03D+00  1.18D+00  9.30D-01  4.68D-01  2.83D-01
 E= -613.621993950941     Delta-E=       -0.008519481042 Rises=F Damp=F
 DIIS: error= 8.67D-04 at cycle   6 NSaved=   6.
 NSaved= 6 IEnMin= 6 EnMin= -613.621993950941     IErMin= 6 ErrMin= 8.67D-04
 ErrMax= 8.67D-04  0.00D+00 EMaxC= 1.00D-01 BMatC= 1.10D-03 BMatP= 1.48D-02
 IDIUse=3 WtCom= 9.91D-01 WtEn= 8.67D-03
 Coeff-Com:  0.528D-01-0.719D-01 0.161D-01 0.469D-01 0.209D+00 0.747D+00
 Coeff-En:   0.000D+00 0.000D+00 0.000D+00 0.000D+00 0.996D-02 0.990D+00
 Coeff:      0.524D-01-0.713D-01 0.160D-01 0.465D-01 0.207D+00 0.749D+00
 Gap=     0.265 Goal=   None    Shift=    0.000
 RMSDP=3.20D-05 MaxDP=3.11D-03 DE=-8.52D-03 OVMax= 7.59D-03

 Cycle   7  Pass 0  IDiag  1:
 RMSU=  2.25D-05    CP:  1.03D+00  1.15D+00  9.24D-01  4.63D-01  4.28D-01
                    CP:  1.06D+00
 E= -613.622595579376     Delta-E=       -0.000601628435 Rises=F Damp=F
 DIIS: error= 4.11D-04 at cycle   7 NSaved=   7.
 NSaved= 7 IEnMin= 7 EnMin= -613.622595579376     IErMin= 7 ErrMin= 4.11D-04
 ErrMax= 4.11D-04  0.00D+00 EMaxC= 1.00D-01 BMatC= 2.44D-04 BMatP= 1.10D-03
 IDIUse=3 WtCom= 9.96D-01 WtEn= 4.11D-03
 Coeff-Com:  0.368D-01-0.494D-01 0.109D-01 0.948D-02 0.646D-01 0.419D+00
 Coeff-Com:  0.509D+00
 Coeff-En:   0.000D+00 0.000D+00 0.000D+00 0.000D+00 0.000D+00 0.118D+00
 Coeff-En:   0.882D+00
 Coeff:      0.367D-01-0.492D-01 0.108D-01 0.944D-02 0.643D-01 0.418D+00
 Coeff:      0.510D+00
 Gap=     0.265 Goal=   None    Shift=    0.000
 RMSDP=1.16D-05 MaxDP=1.06D-03 DE=-6.02D-04 OVMax= 2.78D-03

 Cycle   8  Pass 0  IDiag  1:
 RMSU=  7.38D-06    CP:  1.03D+00  1.15D+00  9.30D-01  4.74D-01  4.13D-01
                    CP:  1.12D+00  7.17D-01
 E= -613.622759513287     Delta-E=       -0.000163933911 Rises=F Damp=F
 DIIS: error= 1.36D-04 at cycle   8 NSaved=   8.
 NSaved= 8 IEnMin= 8 EnMin= -613.622759513287     IErMin= 8 ErrMin= 1.36D-04
 ErrMax= 1.36D-04  0.00D+00 EMaxC= 1.00D-01 BMatC= 2.68D-05 BMatP= 2.44D-04
 IDIUse=3 WtCom= 9.99D-01 WtEn= 1.36D-03
 Coeff-Com:  0.205D-01-0.274D-01 0.769D-02-0.224D-02 0.673D-02 0.166D+00
 Coeff-Com:  0.297D+00 0.532D+00
 Coeff-En:   0.000D+00 0.000D+00 0.000D+00 0.000D+00 0.000D+00 0.000D+00
 Coeff-En:   0.000D+00 0.100D+01
 Coeff:      0.205D-01-0.274D-01 0.768D-02-0.224D-02 0.672D-02 0.166D+00
 Coeff:      0.296D+00 0.533D+00
 Gap=     0.265 Goal=   None    Shift=    0.000
 RMSDP=5.47D-06 MaxDP=6.16D-04 DE=-1.64D-04 OVMax= 1.13D-03

 Initial convergence to 1.0D-05 achieved.  Increase integral accuracy.
 Cycle   9  Pass 1  IDiag  1:
 E= -613.622777962711     Delta-E=       -0.000018449424 Rises=F Damp=F
 DIIS: error= 9.88D-05 at cycle   1 NSaved=   1.
 NSaved= 1 IEnMin= 1 EnMin= -613.622777962711     IErMin= 1 ErrMin= 9.88D-05
 ErrMax= 9.88D-05  0.00D+00 EMaxC= 1.00D-01 BMatC= 1.20D-05 BMatP= 1.20D-05
 IDIUse=1 WtCom= 1.00D+00 WtEn= 0.00D+00
 Coeff-Com:  0.100D+01
 Coeff:      0.100D+01
 Gap=     0.265 Goal=   None    Shift=    0.000
 RMSDP=5.47D-06 MaxDP=6.16D-04 DE=-1.84D-05 OVMax= 1.32D-03

 Cycle  10  Pass 1  IDiag  1:
 RMSU=  2.64D-05    CP:  1.00D+00
 E= -613.622775206222     Delta-E=        0.000002756488 Rises=F Damp=F
 DIIS: error= 1.12D-04 at cycle   2 NSaved=   2.
 NSaved= 2 IEnMin= 1 EnMin= -613.622777962711     IErMin= 1 ErrMin= 9.88D-05
 ErrMax= 1.12D-04  0.00D+00 EMaxC= 1.00D-01 BMatC= 1.30D-05 BMatP= 1.20D-05
 IDIUse=3 WtCom= 9.99D-01 WtEn= 1.12D-03
 Coeff-Com:  0.513D+00 0.487D+00
 Coeff-En:   0.599D+00 0.401D+00
 Coeff:      0.513D+00 0.487D+00
 Gap=     0.265 Goal=   None    Shift=    0.000
 RMSDP=4.14D-06 MaxDP=5.34D-04 DE= 2.76D-06 OVMax= 1.29D-03

 Cycle  11  Pass 1  IDiag  1:
 RMSU=  4.11D-06    CP:  1.00D+00  9.93D-01
 E= -613.622782221545     Delta-E=       -0.000007015322 Rises=F Damp=F
 DIIS: error= 6.12D-05 at cycle   3 NSaved=   3.
 NSaved= 3 IEnMin= 3 EnMin= -613.622782221545     IErMin= 3 ErrMin= 6.12D-05
 ErrMax= 6.12D-05  0.00D+00 EMaxC= 1.00D-01 BMatC= 3.28D-06 BMatP= 1.20D-05
 IDIUse=1 WtCom= 1.00D+00 WtEn= 0.00D+00
 Coeff-Com:  0.495D-01 0.330D+00 0.620D+00
 Coeff:      0.495D-01 0.330D+00 0.620D+00
 Gap=     0.265 Goal=   None    Shift=    0.000
 RMSDP=1.44D-06 MaxDP=1.77D-04 DE=-7.02D-06 OVMax= 4.37D-04

 Cycle  12  Pass 1  IDiag  1:
 RMSU=  5.25D-07    CP:  1.00D+00  1.01D+00  6.88D-01
 E= -613.622784492470     Delta-E=       -0.000002270925 Rises=F Damp=F
 DIIS: error= 8.87D-06 at cycle   4 NSaved=   4.
 NSaved= 4 IEnMin= 4 EnMin= -613.622784492470     IErMin= 4 ErrMin= 8.87D-06
 ErrMax= 8.87D-06  0.00D+00 EMaxC= 1.00D-01 BMatC= 9.98D-08 BMatP= 3.28D-06
 IDIUse=1 WtCom= 1.00D+00 WtEn= 0.00D+00
 Coeff-Com:  0.468D-02 0.145D+00 0.307D+00 0.544D+00
 Coeff:      0.468D-02 0.145D+00 0.307D+00 0.544D+00
 Gap=     0.265 Goal=   None    Shift=    0.000
 RMSDP=2.40D-07 MaxDP=2.08D-05 DE=-2.27D-06 OVMax= 5.34D-05

 Cycle  13  Pass 1  IDiag  1:
 RMSU=  2.10D-07    CP:  1.00D+00  1.01D+00  6.91D-01  7.86D-01
 E= -613.622784560428     Delta-E=       -0.000000067958 Rises=F Damp=F
 DIIS: error= 2.35D-06 at cycle   5 NSaved=   5.
 NSaved= 5 IEnMin= 5 EnMin= -613.622784560428     IErMin= 5 ErrMin= 2.35D-06
 ErrMax= 2.35D-06  0.00D+00 EMaxC= 1.00D-01 BMatC= 7.50D-09 BMatP= 9.98D-08
 IDIUse=1 WtCom= 1.00D+00 WtEn= 0.00D+00
 Coeff-Com: -0.199D-02 0.435D-01 0.990D-01 0.271D+00 0.589D+00
 Coeff:     -0.199D-02 0.435D-01 0.990D-01 0.271D+00 0.589D+00
 Gap=     0.265 Goal=   None    Shift=    0.000
 RMSDP=7.68D-08 MaxDP=9.31D-06 DE=-6.80D-08 OVMax= 1.25D-05

 Cycle  14  Pass 1  IDiag  1:
 RMSU=  4.85D-08    CP:  1.00D+00  1.01D+00  6.94D-01  8.71D-01  8.49D-01
 E= -613.622784565490     Delta-E=       -0.000000005062 Rises=F Damp=F
 DIIS: error= 4.97D-07 at cycle   6 NSaved=   6.
 NSaved= 6 IEnMin= 6 EnMin= -613.622784565490     IErMin= 6 ErrMin= 4.97D-07
 ErrMax= 4.97D-07  0.00D+00 EMaxC= 1.00D-01 BMatC= 3.75D-10 BMatP= 7.50D-09
 IDIUse=1 WtCom= 1.00D+00 WtEn= 0.00D+00
 Coeff-Com: -0.110D-02 0.141D-01 0.330D-01 0.106D+00 0.279D+00 0.569D+00
 Coeff:     -0.110D-02 0.141D-01 0.330D-01 0.106D+00 0.279D+00 0.569D+00
 Gap=     0.265 Goal=   None    Shift=    0.000
 RMSDP=2.15D-08 MaxDP=1.97D-06 DE=-5.06D-09 OVMax= 6.04D-06

 Cycle  15  Pass 1  IDiag  1:
 RMSU=  1.93D-08    CP:  1.00D+00  1.01D+00  6.95D-01  8.80D-01  8.56D-01
                    CP:  8.45D-01
 E= -613.622784565687     Delta-E=       -0.000000000197 Rises=F Damp=F
 DIIS: error= 3.53D-07 at cycle   7 NSaved=   7.
 NSaved= 7 IEnMin= 7 EnMin= -613.622784565687     IErMin= 7 ErrMin= 3.53D-07
 ErrMax= 3.53D-07  0.00D+00 EMaxC= 1.00D-01 BMatC= 1.13D-10 BMatP= 3.75D-10
 IDIUse=1 WtCom= 1.00D+00 WtEn= 0.00D+00
 Coeff-Com: -0.282D-03-0.402D-03-0.257D-03 0.835D-02 0.480D-01 0.365D+00
 Coeff-Com:  0.580D+00
 Coeff:     -0.282D-03-0.402D-03-0.257D-03 0.835D-02 0.480D-01 0.365D+00
 Coeff:      0.580D+00
 Gap=     0.265 Goal=   None    Shift=    0.000
 RMSDP=1.43D-08 MaxDP=2.08D-06 DE=-1.97D-10 OVMax= 2.80D-06

 Cycle  16  Pass 1  IDiag  1:
 RMSU=  6.49D-09    CP:  1.00D+00  1.01D+00  6.95D-01  8.92D-01  8.76D-01
                    CP:  1.02D+00  8.13D-01
 E= -613.622784565772     Delta-E=       -0.000000000085 Rises=F Damp=F
 DIIS: error= 1.03D-07 at cycle   8 NSaved=   8.
 NSaved= 8 IEnMin= 8 EnMin= -613.622784565772     IErMin= 8 ErrMin= 1.03D-07
 ErrMax= 1.03D-07  0.00D+00 EMaxC= 1.00D-01 BMatC= 1.23D-11 BMatP= 1.13D-10
 IDIUse=1 WtCom= 1.00D+00 WtEn= 0.00D+00
 Coeff-Com: -0.206D-04-0.202D-02-0.429D-02-0.850D-02-0.785D-02 0.139D+00
 Coeff-Com:  0.328D+00 0.556D+00
 Coeff:     -0.206D-04-0.202D-02-0.429D-02-0.850D-02-0.785D-02 0.139D+00
 Coeff:      0.328D+00 0.556D+00
 Gap=     0.265 Goal=   None    Shift=    0.000
 RMSDP=3.50D-09 MaxDP=3.38D-07 DE=-8.50D-11 OVMax= 7.25D-07

 SCF Done:  E(RM06) =  -613.622784566     A.U. after   16 cycles
            NFock= 16  Conv=0.35D-08     -V/T= 2.0046
 KE= 6.108007044456D+02 PE=-3.201873341460D+03 EE= 1.092238687149D+03
 Leave Link  502 at Wed Jun 18 02:34:19 2014, MaxMem=  4294967296 cpu:     27904.4
 (Enter /home/ztw1e12/g09/l801.exe)
 DoSCS=F DFT=T ScalE2(SS,OS)=  1.000000  1.000000
 Range of M.O.s used for correlation:     1   932
 NBasis=  1036 NAE=    51 NBE=    51 NFC=     0 NFV=     0
 NROrb=    932 NOA=    51 NOB=    51 NVA=   881 NVB=   881

 **** Warning!!: The largest alpha MO coefficient is  0.10420721D+02

 Leave Link  801 at Wed Jun 18 02:34:19 2014, MaxMem=  4294967296 cpu:         0.4
 (Enter /home/ztw1e12/g09/l1002.exe)
 Minotr:  Closed shell wavefunction.
          IDoAtm=1111111111111111111111111111111
          Direct CPHF calculation.
          Differentiating once with respect to Fermi-contact.
          Electric field/nuclear overlap derivatives assumed to be zero.
          Requested convergence is 1.0D-10 RMS, and 1.0D-09 maximum.
          Secondary convergence is 1.0D-12 RMS, and 1.0D-12 maximum.
          NewPWx=T KeepS1=F KeepF1=F KeepIn=T MapXYZ=F SortEE=F KeepMc=T.
          MDV=    4294966050 using IRadAn=  199590.
 Using stored XC quadrature information.
          Solving linear equations simultaneously, MaxMat=       0.
          There are    31 degrees of freedom in the 1st order CPHF.  IDoFFX=0 NUNeed=    31.
     31 vectors produced by pass  0 Test12= 1.45D-17 3.23D-11 XBig12= 4.16D+01 2.57D+00.
 AX will form    31 AO Fock derivatives at one time.
 FoFJK:  IHMeth= 1 ICntrl=       0 DoSepK=F KAlg= 0 I1Cent=   0 FoldK=F
 IRaf= 510000000 NMat=  31 IRICut=       1 DoRegI=T DoRafI=F ISym2E=-1.
 FoFCou: FMM=F IPFlag=           0 FMFlag=      100000 FMFlg1=           0
         NFxFlg=           0 DoJE=F BraDBF=F KetDBF=F FulRan=T
         wScrn=  0.000000 ICntrl=       0 IOpCl=  0 I1Cent=           0 NGrid=           0
         NMat0=   31 NMatS0=      0 NMatT0=   31 NMatD0=   31 NMtDS0=    0 NMtDT0=    0
 Petite list used in FoFCou.
     31 vectors produced by pass  1 Test12= 1.45D-17 3.23D-11 XBig12= 3.44D-01 1.76D-01.
     31 vectors produced by pass  2 Test12= 1.45D-17 3.23D-11 XBig12= 1.66D-02 4.74D-02.
     31 vectors produced by pass  3 Test12= 1.45D-17 3.23D-11 XBig12= 3.63D-04 6.27D-03.
     31 vectors produced by pass  4 Test12= 1.45D-17 3.23D-11 XBig12= 5.13D-06 8.95D-04.
     31 vectors produced by pass  5 Test12= 1.45D-17 3.23D-11 XBig12= 1.31D-07 1.54D-04.
     31 vectors produced by pass  6 Test12= 1.45D-17 3.23D-11 XBig12= 4.27D-09 1.66D-05.
     31 vectors produced by pass  7 Test12= 1.45D-17 3.23D-11 XBig12= 1.29D-10 4.64D-06.
     31 vectors produced by pass  8 Test12= 1.45D-17 3.23D-11 XBig12= 3.12D-12 3.99D-07.
     31 vectors produced by pass  9 Test12= 1.45D-17 3.23D-11 XBig12= 8.19D-14 9.59D-08.
     31 vectors produced by pass 10 Test12= 1.45D-17 3.23D-11 XBig12= 3.62D-15 1.18D-08.
     30 vectors produced by pass 11 Test12= 1.45D-17 3.23D-11 XBig12= 4.28D-17 9.14D-10.
      4 vectors produced by pass 12 Test12= 1.45D-17 3.23D-11 XBig12= 3.54D-19 8.58D-11.
 InvSVY:  IOpt=1 It=  1 EMax= 8.88D-15
 Solved reduced A of dimension   375 with    31 vectors.
 Max diff in FC couplings:  IJMax=    11     1 Diff= 6.78D-04 IJMaxR=    28    18 DiffR= 8.27D-01
 Fermi Contact (FC) contribution to K (Hz):
                1             2             3             4             5 
      1  0.123400D+11
      2  0.273656D+02  0.123400D+11
      3 -0.115202D+01  0.187226D+02  0.123400D+11
      4 -0.330229D-01  0.120620D+00 -0.129541D-01  0.123400D+11
      5  0.760805D-03 -0.234625D-01  0.120068D-01  0.175547D+02  0.123400D+11
      6  0.106484D-02 -0.661761D-02  0.431673D-02  0.170487D+02 -0.801350D+00
      7  0.567046D-02  0.438723D-02  0.537498D-02  0.166651D+02 -0.835547D+00
      8 -0.937468D+01  0.284521D+01  0.400373D+00  0.215225D-01  0.357815D-02
      9  0.262661D+00  0.187876D+02 -0.790206D+00  0.710858D+00  0.249777D+00
     10  0.186215D-01  0.272796D+00  0.192932D+00 -0.137753D+00 -0.363476D-01
     11  0.286660D+02  0.137515D+02  0.119637D+00  0.604075D-01  0.236238D-02
     12  0.449925D+00  0.996854D-01 -0.218549D-01 -0.159967D-02 -0.123373D-03
     13 -0.410203D+00  0.104680D+01 -0.174431D-01  0.278450D-02  0.406458D-03
     14  0.239222D+00 -0.908206D-01  0.214022D-01  0.865504D-03 -0.965943D-05
     15  0.143713D+00 -0.784259D-01  0.150125D-01 -0.277054D-04  0.104101D-03
     16  0.957447D+00 -0.228032D-01  0.238003D-03  0.622139D-03  0.928504D-05
     17  0.820641D-01 -0.497817D+00  0.316364D+00  0.230258D-01  0.268255D-01
     18 -0.158248D+00  0.859648D+00 -0.849127D-01 -0.627535D-02 -0.114841D-02
     19 -0.144864D-02  0.104594D+00 -0.196062D-02 -0.954949D-03  0.326125D-03
     20  0.554330D-01  0.209992D-01  0.146540D-01  0.257896D-03  0.334404D-04
     21  0.781878D-01  0.372647D-01  0.232713D-01 -0.933982D-03 -0.295371D-04
     22  0.464777D+00  0.836611D+00  0.217445D+00  0.383837D-01  0.118504D-02
     23  0.600240D+00 -0.713063D+00  0.112719D+01  0.170076D+02 -0.639848D+00
     24 -0.455909D-01  0.114663D+01 -0.280825D-01 -0.961125D+00  0.208757D+00
     25  0.145521D+00  0.668396D+00 -0.191131D-01  0.377719D+00  0.165620D+00
     26  0.622475D-02  0.201145D-01  0.449993D-03  0.464710D+00 -0.322751D-02
     27  0.237058D-01  0.236257D-01  0.205792D-02  0.135230D+01 -0.416386D-03
     28  0.497918D-02  0.203851D-01 -0.115692D-02  0.217193D+00 -0.809343D-02
     29 -0.207097D+00  0.165953D+02 -0.909203D+00 -0.115080D+00  0.119022D+01
     30  0.103372D+01 -0.885692D+00  0.122558D+00  0.409932D+00  0.389543D-03
     31  0.714872D-01 -0.470599D+00  0.197909D+00  0.113743D+01  0.307882D-01
                6             7             8             9            10 
      6  0.123400D+11
      7 -0.722470D+00  0.123400D+11
      8  0.568828D-03  0.333222D-01  0.123400D+11
      9  0.700137D-01  0.498932D+00  0.515831D+00  0.123400D+11
     10 -0.170089D-01 -0.541885D-01 -0.529992D-02  0.318406D+02  0.123400D+11
     11  0.156493D-02  0.445056D-03  0.654808D+01  0.973245D+00  0.153681D+00
     12 -0.437247D-04  0.179557D-03  0.492756D+00  0.525673D-01 -0.659152D-03
     13  0.126926D-02  0.161508D-03  0.629629D+00  0.315219D+00  0.125442D-01
     14  0.478739D-03  0.210086D-04  0.254583D+00 -0.608789D-02 -0.758969D-03
     15  0.493729D-03 -0.815862D-05  0.230909D+00 -0.467721D-02 -0.895458D-03
     16  0.487942D-04 -0.635532D-05  0.180670D+00  0.268299D-01 -0.769998D-03
     17  0.509574D-02  0.388944D-01  0.929664D-01  0.265099D+02  0.404396D+00
     18 -0.699828D-04  0.255120D-02  0.854012D-01  0.127209D+02  0.984890D-01
     19  0.284879D-03  0.211680D-02 -0.467740D-03  0.337057D+00 -0.101077D-01
     20 -0.470159D-04  0.154651D-03  0.588369D-02  0.371467D+00 -0.710014D-02
     21 -0.813843D-04  0.734479D-04  0.386720D-02  0.361829D+00 -0.156892D-01
     22  0.116027D-02  0.459010D-02  0.797177D+00  0.582843D+01  0.419472D+00
     23 -0.548245D+00 -0.711404D+00 -0.499038D-01  0.913654D-01 -0.193406D-02
     24  0.922605D-01  0.437015D+00  0.571485D-01 -0.229550D-01  0.196545D-02
     25  0.119488D+01  0.472509D+00  0.153666D+01 -0.232922D-01  0.226408D-02
     26 -0.620025D-02 -0.155259D-01  0.129808D+00  0.901602D-02  0.832907D-03
     27  0.808169D-01 -0.524904D-02 -0.398690D-01  0.354654D-02  0.156142D-03
     28  0.393777D-02 -0.225150D-02  0.113272D+00  0.289382D-02  0.208288D-03
     29  0.378555D+00  0.146000D+00  0.291874D+00  0.746313D+00  0.457893D+00
     30 -0.177827D-01 -0.661568D-02  0.689562D-01  0.595551D+00 -0.185923D-01
     31  0.336634D-02 -0.178312D-01 -0.181148D-01  0.189493D+01 -0.224543D-01
               11            12            13            14            15 
     11  0.123400D+11
     12  0.310694D+02  0.123400D+11
     13  0.171100D+02  0.308302D+00  0.123400D+11
     14 -0.623876D+00  0.773465D-01  0.196712D+02  0.123400D+11
     15 -0.474838D+00  0.138913D+00  0.202934D+02 -0.737255D+00  0.123400D+11
     16 -0.387792D+00  0.292350D+00  0.182065D+02 -0.735171D+00 -0.756672D+00
     17 -0.748167D-01 -0.648076D-03 -0.105797D-01  0.121793D-02  0.115624D-02
     18  0.147543D-01  0.162412D-02  0.130342D-01  0.706520D-03  0.530963D-03
     19  0.573758D-02  0.578300D-05  0.000000D+00 -0.319443D-04 -0.145100D-04
     20 -0.243619D-02 -0.118555D-03 -0.378354D-03  0.697745D-04 -0.399661D-05
     21  0.164326D-01  0.000000D+00  0.246331D-02  0.141094D-03 -0.230024D-04
     22  0.167029D+00 -0.158823D-02  0.121140D-01  0.356791D-02  0.117995D-02
     23 -0.224429D-02  0.291813D-02 -0.234644D-02  0.257722D-02  0.399081D-03
     24 -0.354479D-04 -0.200141D-04  0.139791D-02  0.329223D-03 -0.275407D-03
     25  0.441178D+00 -0.751638D-02  0.865154D-01  0.303201D-01  0.695528D-02
     26  0.553252D-01 -0.219443D-02  0.217200D-01  0.613419D-02  0.157475D-02
     27  0.127659D+00 -0.492359D-03  0.352766D-01  0.801855D-02  0.371967D-02
     28  0.104682D+00 -0.289146D-02  0.975718D-02  0.407580D-02  0.218585D-02
     29  0.501431D-01 -0.254800D-01 -0.113979D+00  0.624752D-01  0.101084D+00
     30 -0.443293D-01 -0.616601D-02 -0.509821D-02  0.930826D-03  0.307177D-02
     31  0.974943D-01 -0.140119D-01  0.167757D-02 -0.710004D-03 -0.290630D-03
               16            17            18            19            20 
     16  0.123400D+11
     17  0.101798D-03  0.123400D+11
     18  0.221268D-03  0.272896D+02  0.123400D+11
     19  0.116748D-04 -0.751367D+00  0.170262D+02  0.123400D+11
     20  0.103117D-03 -0.117544D+01  0.178679D+02 -0.719196D+00  0.123400D+11
     21  0.319541D-03 -0.121435D+01  0.180022D+02 -0.744511D+00 -0.922722D+00
     22  0.130567D-02 -0.947946D+01  0.378737D+01  0.831755D+00  0.427965D+00
     23 -0.512926D-03 -0.580296D-01  0.905172D-02 -0.334438D-04 -0.140978D-02
     24  0.654666D-04  0.168562D-01 -0.591690D-03  0.646711D-03  0.458361D-03
     25  0.260011D-02  0.475076D-03  0.266190D-03  0.278332D-04 -0.157854D-03
     26  0.100565D-02 -0.380738D-03 -0.644146D-04 -0.269816D-04 -0.390744D-05
     27  0.165415D-02 -0.866107D-04  0.157602D-03  0.219514D-04 -0.207194D-04
     28  0.418096D-03 -0.926641D-03 -0.195623D-04 -0.107679D-04 -0.225094D-04
     29  0.424069D-02  0.139047D+01 -0.340402D-01 -0.193371D-02  0.139951D-01
     30  0.849961D-03 -0.948645D-02  0.120790D-01 -0.346965D-04 -0.158940D-03
     31  0.523654D-03  0.109622D+00  0.651170D-01 -0.348189D-04  0.253811D-02
               21            22            23            24            25 
     21  0.123400D+11
     22  0.449876D+00  0.123400D+11
     23 -0.331076D-03  0.796745D-01  0.123400D+11
     24 -0.916458D-04  0.101978D-01  0.165222D+02  0.123400D+11
     25  0.290712D-03  0.279601D-01  0.174654D+02 -0.953015D+00  0.123400D+11
     26  0.805476D-04  0.477541D-04 -0.787665D+00  0.431170D+00  0.179618D+02
     27  0.271247D-04  0.451756D-03 -0.580414D+00  0.104060D+00  0.168386D+02
     28  0.467103D-04  0.560832D-03 -0.671002D+00  0.192812D+00  0.168666D+02
     29 -0.532367D-02  0.156768D+00  0.172179D+02 -0.962553D+00 -0.271628D+00
     30 -0.821188D-03 -0.242589D-02 -0.581630D+00  0.100687D+00  0.975764D+00
     31 -0.199228D-02 -0.304772D-02 -0.683876D+00  0.202910D+00  0.145123D+00
               26            27            28            29            30 
     26  0.123400D+11
     27 -0.777132D+00  0.123400D+11
     28 -0.847353D+00 -0.826233D+00  0.123400D+11
     29  0.187909D+00  0.296386D+00  0.121122D+01  0.123400D+11
     30 -0.164060D-01 -0.622923D-03  0.268783D-01  0.176880D+02  0.123400D+11
     31 -0.468892D-02 -0.173093D-01 -0.124579D-01  0.166529D+02 -0.916687D+00
               31 
     31  0.123400D+11
 Fermi Contact (FC) contribution to J (Hz):
                1             2             3             4             5 
      1  0.243533D+11
      2  0.540066D+02  0.243533D+11
      3 -0.903982D+01  0.146915D+03  0.385007D+12
      4 -0.651715D-01  0.238046D+00 -0.101650D+00  0.243533D+11
      5  0.596996D-02 -0.184108D+00  0.374611D+00  0.137750D+03  0.385007D+12
      6  0.835570D-02 -0.519277D-01  0.134682D+00  0.133779D+03 -0.250021D+02
      7  0.444955D-01  0.344262D-01  0.167699D+00  0.130770D+03 -0.260690D+02
      8  0.997636D+01 -0.302781D+01 -0.169409D+01 -0.229038D-01 -0.151401D-01
      9  0.148985D+00  0.106566D+02 -0.178214D+01  0.403208D+00  0.563317D+00
     10  0.146121D+00  0.214060D+01  0.601948D+01 -0.108094D+01 -0.113404D+01
     11  0.162597D+02  0.780000D+01  0.269816D+00  0.342639D-01  0.532784D-02
     12  0.353052D+01  0.782221D+00 -0.681872D+00 -0.125525D-01 -0.384923D-02
     13 -0.809546D+00  0.206588D+01 -0.136875D+00  0.549529D-02  0.318944D-02
     14  0.187715D+01 -0.712660D+00  0.667748D+00  0.679152D-02 -0.301374D-03
     15  0.112771D+01 -0.615400D+00  0.468389D+00 -0.217402D-03  0.324793D-02
     16  0.751300D+01 -0.178934D+00  0.742568D-02  0.488186D-02  0.289693D-03
     17  0.161956D+00 -0.982454D+00  0.248248D+01  0.454419D-01  0.210497D+00
     18 -0.312307D+00  0.169654D+01 -0.666302D+00 -0.123846D-01 -0.901145D-02
     19 -0.113673D-01  0.820741D+00 -0.611713D-01 -0.749339D-02  0.101751D-01
     20  0.434977D+00  0.164779D+00  0.457204D+00  0.202369D-02  0.104334D-02
     21  0.613532D+00  0.292413D+00  0.726065D+00 -0.732887D-02 -0.921556D-03
     22 -0.494607D+00 -0.890305D+00 -0.920068D+00 -0.408472D-01 -0.501425D-02
     23  0.118459D+01 -0.140725D+01  0.884495D+01  0.335649D+02 -0.502082D+01
     24 -0.357747D+00  0.899752D+01 -0.876173D+00 -0.754185D+01  0.651320D+01
     25  0.287190D+00  0.131910D+01 -0.149978D+00  0.745439D+00  0.129960D+01
     26  0.488450D-01  0.157836D+00  0.140398D-01  0.364653D+01 -0.100698D+00
     27  0.186017D+00  0.185389D+00  0.642070D-01  0.106114D+02 -0.129912D-01
     28  0.390711D-01  0.159960D+00 -0.360958D-01  0.170429D+01 -0.252515D+00
     29 -0.408710D+00  0.327511D+02 -0.713443D+01 -0.227113D+00  0.933954D+01
     30  0.811148D+01 -0.694994D+01  0.382381D+01  0.321669D+01  0.121537D-01
     31  0.560953D+00 -0.369274D+01  0.617475D+01  0.892530D+01  0.960591D+00
                6             7             8             9            10 
      6  0.385007D+12
      7 -0.225410D+02  0.385007D+12
      8 -0.240687D-02 -0.140995D+00  0.708114D+10
      9  0.157901D+00  0.112523D+01 -0.157771D+00  0.201170D+10
     10 -0.530678D+00 -0.169068D+01  0.224254D-01  0.718096D+02  0.385007D+12
     11  0.352936D-02  0.100373D-02 -0.200278D+01  0.158661D+00  0.346595D+00
     12 -0.136421D-02  0.560216D-02 -0.208499D+01  0.118554D+00 -0.205655D-01
     13  0.995972D-02  0.126734D-02 -0.670039D+00  0.178796D+00  0.984328D-01
     14  0.149366D-01  0.655466D-03 -0.107721D+01 -0.137299D-01 -0.236798D-01
     15  0.154043D-01 -0.254549D-03 -0.977041D+00 -0.105484D-01 -0.279382D-01
     16  0.152238D-02 -0.198286D-03 -0.764466D+00  0.605091D-01 -0.240239D-01
     17  0.399858D-01  0.305201D+00 -0.989331D-01  0.150367D+02  0.317325D+01
     18 -0.549148D-03  0.200190D-01 -0.908823D-01  0.721543D+01  0.772834D+00
     19  0.888823D-02  0.660442D-01  0.197914D-02  0.760160D+00 -0.315359D+00
     20 -0.146689D-02  0.482510D-02 -0.248955D-01  0.837764D+00 -0.221524D+00
     21 -0.253919D-02  0.229157D-02 -0.163632D-01  0.816028D+00 -0.489501D+00
     22 -0.490940D-02 -0.194220D-01  0.457449D+00 -0.178267D+01 -0.177490D+01
     23 -0.430203D+01 -0.558232D+01  0.531067D-01  0.518236D-01 -0.151764D-01
     24  0.287852D+01  0.136349D+02 -0.241811D+00 -0.517700D-01  0.613220D-01
     25  0.937611D+01  0.370773D+01 -0.163529D+01 -0.132116D-01  0.177660D-01
     26 -0.193448D+00 -0.484409D+00 -0.549253D+00  0.203337D-01  0.259867D-01
     27  0.252148D+01 -0.163770D+00  0.168697D+00  0.799846D-02  0.487163D-02
     28  0.122858D+00 -0.702467D-01 -0.479285D+00  0.652639D-02  0.649858D-02
     29  0.297048D+01  0.114565D+01 -0.310607D+00  0.423318D+00  0.359305D+01
     30 -0.554819D+00 -0.206409D+00 -0.291772D+00  0.134314D+01 -0.580080D+00
     31  0.105030D+00 -0.556333D+00  0.766488D-01  0.427362D+01 -0.700572D+00
               11            12            13            14            15 
     11  0.201170D+10
     12  0.700704D+02  0.385007D+12
     13  0.970501D+01  0.241922D+01  0.243533D+11
     14 -0.140702D+01  0.241321D+01  0.154358D+03  0.385007D+12
     15 -0.107089D+01  0.433409D+01  0.159240D+03 -0.230023D+02  0.385007D+12
     16 -0.874582D+00  0.912132D+01  0.142865D+03 -0.229373D+02 -0.236081D+02
     17 -0.424369D-01 -0.508539D-02 -0.208792D-01  0.955695D-02  0.907293D-02
     18  0.836883D-02  0.127443D-01  0.257232D-01  0.554399D-02  0.416641D-02
     19  0.129399D-01  0.180429D-03 -0.702881D-05 -0.996660D-03 -0.452712D-03
     20 -0.549430D-02 -0.369890D-02 -0.296891D-02  0.217696D-02 -0.124694D-03
     21  0.370601D-01  0.169202D-04  0.193294D-01  0.440213D-02 -0.717675D-03
     22 -0.510870D-01  0.672022D-02 -0.128915D-01 -0.150968D-01 -0.499271D-02
     23 -0.127299D-02  0.228983D-01 -0.463076D-02  0.202232D-01  0.313155D-02
     24 -0.799452D-04 -0.624440D-03  0.109692D-01  0.102717D-01 -0.859270D-02
     25  0.250241D+00 -0.589803D-01  0.170740D+00  0.237919D+00  0.545774D-01
     26  0.124774D+00 -0.684661D-01  0.170435D+00  0.191386D+00  0.491323D-01
     27  0.287907D+00 -0.153616D-01  0.276812D+00  0.250178D+00  0.116053D+00
     28  0.236087D+00 -0.902133D-01  0.765636D-01  0.127165D+00  0.681983D-01
     29  0.284418D-01 -0.199939D+00 -0.224941D+00  0.490237D+00  0.793199D+00
     30 -0.999751D-01 -0.192379D+00 -0.400051D-01  0.290417D-01  0.958391D-01
     31  0.219877D+00 -0.437172D+00  0.131637D-01 -0.221521D-01 -0.906763D-02
               16            17            18            19            20 
     16  0.385007D+12
     17  0.798797D-03  0.243533D+11
     18  0.173626D-02  0.538567D+02  0.243533D+11
     19  0.364254D-03 -0.589590D+01  0.133603D+03  0.385007D+12
     20  0.321723D-02 -0.922359D+01  0.140208D+03 -0.224389D+02  0.385007D+12
     21  0.996966D-02 -0.952886D+01  0.141262D+03 -0.232287D+02 -0.287889D+02
     22 -0.552464D-02  0.100879D+02 -0.403045D+01 -0.351938D+01 -0.181084D+01
     23 -0.402488D-02 -0.114523D+00  0.178638D-01 -0.262430D-03 -0.110624D-01
     24  0.204255D-02  0.132269D+00 -0.464294D-02  0.201774D-01  0.143008D-01
     25  0.204028D-01  0.937575D-03  0.525333D-03  0.218405D-03 -0.123866D-02
     26  0.313763D-01 -0.298761D-02 -0.505455D-03 -0.841825D-03 -0.121912D-03
     27  0.516093D-01 -0.679626D-03  0.123669D-02  0.684883D-03 -0.646445D-03
     28  0.130446D-01 -0.727127D-02 -0.153504D-03 -0.335959D-03 -0.702293D-03
     29  0.332763D-01  0.274412D+01 -0.671791D-01 -0.151737D-01  0.109818D+00
     30  0.265188D-01 -0.744393D-01  0.947829D-01 -0.108253D-02 -0.495894D-02
     31  0.163380D-01  0.860196D+00  0.510966D+00 -0.108635D-02  0.791889D-01
               21            22            23            24            25 
     21  0.385007D+12
     22 -0.190355D+01  0.708114D+10
     23 -0.259792D-02 -0.847881D-01  0.243533D+11
     24 -0.285935D-02 -0.431497D-01  0.129648D+03  0.385007D+12
     25  0.228119D-02 -0.297545D-01  0.344684D+02 -0.747821D+01  0.243533D+11
     26  0.251308D-02 -0.202061D-03 -0.618073D+01  0.134525D+02  0.140945D+03
     27  0.846290D-03 -0.191150D-02 -0.455445D+01  0.324667D+01  0.132131D+03
     28  0.145736D-02 -0.237303D-02 -0.526528D+01  0.601573D+01  0.132350D+03
     29 -0.417743D-01 -0.166829D+00  0.339799D+02 -0.755306D+01 -0.536065D+00
     30 -0.256210D-01  0.102646D-01 -0.456399D+01  0.314142D+01  0.765673D+01
     31 -0.621589D-01  0.128957D-01 -0.536631D+01  0.633078D+01  0.113877D+01
               26            27            28            29            30 
     26  0.385007D+12
     27 -0.242465D+02  0.385007D+12
     28 -0.264374D+02 -0.257784D+02  0.385007D+12
     29  0.147450D+01  0.232571D+01  0.950432D+01  0.243533D+11
     30 -0.511865D+00 -0.194352D-01  0.838601D+00  0.138796D+03  0.385007D+12
     31 -0.146294D+00 -0.540049D+00 -0.388685D+00  0.130674D+03 -0.286006D+02
               31 
     31  0.385007D+12
 End of Minotr F.D. properties file   721 does not exist.
 End of Minotr F.D. properties file   722 does not exist.
 End of Minotr F.D. properties file   788 does not exist.
 Leave Link 1002 at Wed Jun 18 09:21:01 2014, MaxMem=  4294967296 cpu:    389483.4
 (Enter /home/ztw1e12/g09/l601.exe)
 Copying SCF densities to generalized density rwf, IOpCl= 0 IROHF=0.

 **********************************************************************

            Population analysis using the SCF density.

 **********************************************************************

 Orbital symmetries:
       Occupied  (A) (A) (A) (A) (A) (A) (A) (A) (A) (A) (A) (A)
                 (A) (A) (A) (A) (A) (A) (A) (A) (A) (A) (A) (A)
                 (A) (A) (A) (A) (A) (A) (A) (A) (A) (A) (A) (A)
                 (A) (A) (A) (A) (A) (A) (A) (A) (A) (A) (A) (A)
                 (A) (A) (A)
       Virtual   (A) (A) (A) (A) (A) (A) (A) (A) (A) (A) (A) (A)
                 (A) (A) (A) (A) (A) (A) (A) (A) (A) (A) (A) (A)
                 (A) (A) (A) (A) (A) (A) (A) (A) (A) (A) (A) (A)
                 (A) (A) (A) (A) (A) (A) (A) (A) (A) (A) (A) (A)
                 (A) (A) (A) (A) (A) (A) (A) (A) (A) (A) (A) (A)
                 (A) (A) (A) (A) (A) (A) (A) (A) (A) (A) (A) (A)
                 (A) (A) (A) (A) (A) (A) (A) (A) (A) (A) (A) (A)
                 (A) (A) (A) (A) (A) (A) (A) (A) (A) (A) (A) (A)
                 (A) (A) (A) (A) (A) (A) (A) (A) (A) (A) (A) (A)
                 (A) (A) (A) (A) (A) (A) (A) (A) (A) (A) (A) (A)
                 (A) (A) (A) (A) (A) (A) (A) (A) (A) (A) (A) (A)
                 (A) (A) (A) (A) (A) (A) (A) (A) (A) (A) (A) (A)
                 (A) (A) (A) (A) (A) (A) (A) (A) (A) (A) (A) (A)
                 (A) (A) (A) (A) (A) (A) (A) (A) (A) (A) (A) (A)
                 (A) (A) (A) (A) (A) (A) (A) (A) (A) (A) (A) (A)
                 (A) (A) (A) (A) (A) (A) (A) (A) (A) (A) (A) (A)
                 (A) (A) (A) (A) (A) (A) (A) (A) (A) (A) (A) (A)
                 (A) (A) (A) (A) (A) (A) (A) (A) (A) (A) (A) (A)
                 (A) (A) (A) (A) (A) (A) (A) (A) (A) (A) (A) (A)
                 (A) (A) (A) (A) (A) (A) (A) (A) (A) (A) (A) (A)
                 (A) (A) (A) (A) (A) (A) (A) (A) (A) (A) (A) (A)
                 (A) (A) (A) (A) (A) (A) (A) (A) (A) (A) (A) (A)
                 (A) (A) (A) (A) (A) (A) (A) (A) (A) (A) (A) (A)
                 (A) (A) (A) (A) (A) (A) (A) (A) (A) (A) (A) (A)
                 (A) (A) (A) (A) (A) (A) (A) (A) (A) (A) (A) (A)
                 (A) (A) (A) (A) (A) (A) (A) (A) (A) (A) (A) (A)
                 (A) (A) (A) (A) (A) (A) (A) (A) (A) (A) (A) (A)
                 (A) (A) (A) (A) (A) (A) (A) (A) (A) (A) (A) (A)
                 (A) (A) (A) (A) (A) (A) (A) (A) (A) (A) (A) (A)
                 (A) (A) (A) (A) (A) (A) (A) (A) (A) (A) (A) (A)
                 (A) (A) (A) (A) (A) (A) (A) (A) (A) (A) (A) (A)
                 (A) (A) (A) (A) (A) (A) (A) (A) (A) (A) (A) (A)
                 (A) (A) (A) (A) (A) (A) (A) (A) (A) (A) (A) (A)
                 (A) (A) (A) (A) (A) (A) (A) (A) (A) (A) (A) (A)
                 (A) (A) (A) (A) (A) (A) (A) (A) (A) (A) (A) (A)
                 (A) (A) (A) (A) (A) (A) (A) (A) (A) (A) (A) (A)
                 (A) (A) (A) (A) (A) (A) (A) (A) (A) (A) (A) (A)
                 (A) (A) (A) (A) (A) (A) (A) (A) (A) (A) (A) (A)
                 (A) (A) (A) (A) (A) (A) (A) (A) (A) (A) (A) (A)
                 (A) (A) (A) (A) (A) (A) (A) (A) (A) (A) (A) (A)
                 (A) (A) (A) (A) (A) (A) (A) (A) (A) (A) (A) (A)
                 (A) (A) (A) (A) (A) (A) (A) (A) (A) (A) (A) (A)
                 (A) (A) (A) (A) (A) (A) (A) (A) (A) (A) (A) (A)
                 (A) (A) (A) (A) (A) (A) (A) (A) (A) (A) (A) (A)
                 (A) (A) (A) (A) (A) (A) (A) (A) (A) (A) (A) (A)
                 (A) (A) (A) (A) (A) (A) (A) (A) (A) (A) (A) (A)
                 (A) (A) (A) (A) (A) (A) (A) (A) (A) (A) (A) (A)
                 (A) (A) (A) (A) (A) (A) (A) (A) (A) (A) (A) (A)
                 (A) (A) (A) (A) (A) (A) (A) (A) (A) (A) (A) (A)
                 (A) (A) (A) (A) (A) (A) (A) (A) (A) (A) (A) (A)
                 (A) (A) (A) (A) (A) (A) (A) (A) (A) (A) (A) (A)
                 (A) (A) (A) (A) (A) (A) (A) (A) (A) (A) (A) (A)
                 (A) (A) (A) (A) (A) (A) (A) (A) (A) (A) (A) (A)
                 (A) (A) (A) (A) (A) (A) (A) (A) (A) (A) (A) (A)
                 (A) (A) (A) (A) (A) (A) (A) (A) (A) (A) (A) (A)
                 (A) (A) (A) (A) (A) (A) (A) (A) (A) (A) (A) (A)
                 (A) (A) (A) (A) (A) (A) (A) (A) (A) (A) (A) (A)
                 (A) (A) (A) (A) (A) (A) (A) (A) (A) (A) (A) (A)
                 (A) (A) (A) (A) (A) (A) (A) (A) (A) (A) (A) (A)
                 (A) (A) (A) (A) (A) (A) (A) (A) (A) (A) (A) (A)
                 (A) (A) (A) (A) (A) (A) (A) (A) (A) (A) (A) (A)
                 (A) (A) (A) (A) (A) (A) (A) (A) (A) (A) (A) (A)
                 (A) (A) (A) (A) (A) (A) (A) (A) (A) (A) (A) (A)
                 (A) (A) (A) (A) (A) (A) (A) (A) (A) (A) (A) (A)
                 (A) (A) (A) (A) (A) (A) (A) (A) (A) (A) (A) (A)
                 (A) (A) (A) (A) (A) (A) (A) (A) (A) (A) (A) (A)
                 (A) (A) (A) (A) (A) (A) (A) (A) (A) (A) (A) (A)
                 (A) (A) (A) (A) (A) (A) (A) (A) (A) (A) (A) (A)
                 (A) (A) (A) (A) (A) (A) (A) (A) (A) (A) (A) (A)
                 (A) (A) (A) (A) (A) (A) (A) (A) (A) (A) (A) (A)
                 (A) (A) (A) (A) (A) (A) (A) (A) (A) (A) (A) (A)
                 (A) (A) (A) (A) (A) (A) (A) (A) (A) (A) (A) (A)
                 (A) (A) (A) (A) (A) (A) (A) (A) (A) (A) (A) (A)
                 (A) (A) (A) (A) (A)
 The electronic state is 1-A.
 Alpha  occ. eigenvalues --  -19.17101 -19.16104 -14.41864 -14.41123 -10.33441
 Alpha  occ. eigenvalues --  -10.33029 -10.29153 -10.27192 -10.25861 -10.25615
 Alpha  occ. eigenvalues --  -10.23967 -10.23539 -10.22865  -1.05334  -1.03808
 Alpha  occ. eigenvalues --   -0.94323  -0.93975  -0.83838  -0.78508  -0.74167
 Alpha  occ. eigenvalues --   -0.72143  -0.70535  -0.66697  -0.60763  -0.59609
 Alpha  occ. eigenvalues --   -0.57992  -0.54723  -0.50460  -0.49338  -0.47725
 Alpha  occ. eigenvalues --   -0.47252  -0.46967  -0.45414  -0.45227  -0.44588
 Alpha  occ. eigenvalues --   -0.42612  -0.41729  -0.40876  -0.40550  -0.40254
 Alpha  occ. eigenvalues --   -0.39553  -0.38483  -0.38117  -0.36410  -0.35675
 Alpha  occ. eigenvalues --   -0.34788  -0.32850  -0.28075  -0.27460  -0.26137
 Alpha  occ. eigenvalues --   -0.25706
 Alpha virt. eigenvalues --    0.00792   0.02524   0.02747   0.03704   0.04408
 Alpha virt. eigenvalues --    0.05133   0.06837   0.07099   0.08327   0.08744
 Alpha virt. eigenvalues --    0.09426   0.10228   0.10443   0.11584   0.11955
 Alpha virt. eigenvalues --    0.12448   0.12517   0.12973   0.13546   0.14904
 Alpha virt. eigenvalues --    0.16043   0.17532   0.18254   0.19342   0.20206
 Alpha virt. eigenvalues --    0.21488   0.23038   0.23832   0.24361   0.25175
 Alpha virt. eigenvalues --    0.25833   0.25901   0.27340   0.27469   0.27670
 Alpha virt. eigenvalues --    0.28503   0.28987   0.29846   0.30760   0.31636
 Alpha virt. eigenvalues --    0.32528   0.33718   0.34336   0.34993   0.35378
 Alpha virt. eigenvalues --    0.36835   0.37178   0.37448   0.38373   0.38655
 Alpha virt. eigenvalues --    0.39503   0.40532   0.40990   0.41024   0.41696
 Alpha virt. eigenvalues --    0.41806   0.42242   0.42380   0.43031   0.43333
 Alpha virt. eigenvalues --    0.43540   0.44454   0.45359   0.45700   0.46025
 Alpha virt. eigenvalues --    0.46214   0.46466   0.47855   0.48152   0.48982
 Alpha virt. eigenvalues --    0.49728   0.51355   0.51535   0.52011   0.52873
 Alpha virt. eigenvalues --    0.53628   0.54574   0.55617   0.56030   0.56309
 Alpha virt. eigenvalues --    0.57973   0.59545   0.60220   0.60495   0.62049
 Alpha virt. eigenvalues --    0.62274   0.63521   0.65048   0.66358   0.68338
 Alpha virt. eigenvalues --    0.68500   0.70128   0.71586   0.72434   0.74292
 Alpha virt. eigenvalues --    0.74965   0.76043   0.76864   0.77760   0.79184
 Alpha virt. eigenvalues --    0.79614   0.80490   0.82206   0.82498   0.83797
 Alpha virt. eigenvalues --    0.84307   0.85457   0.85833   0.86926   0.87544
 Alpha virt. eigenvalues --    0.88298   0.89045   0.90365   0.90859   0.91547
 Alpha virt. eigenvalues --    0.91762   0.94069   0.94581   0.95387   0.95664
 Alpha virt. eigenvalues --    0.95921   0.97160   0.97313   0.97470   0.98048
 Alpha virt. eigenvalues --    0.99115   0.99889   1.01170   1.02527   1.03175
 Alpha virt. eigenvalues --    1.03685   1.03947   1.04990   1.05285   1.06014
 Alpha virt. eigenvalues --    1.07098   1.07415   1.08011   1.08912   1.10674
 Alpha virt. eigenvalues --    1.11620   1.11932   1.12517   1.13540   1.14043
 Alpha virt. eigenvalues --    1.15826   1.16018   1.16725   1.18260   1.18433
 Alpha virt. eigenvalues --    1.18870   1.19612   1.20471   1.21515   1.21935
 Alpha virt. eigenvalues --    1.22346   1.22632   1.22961   1.23889   1.23974
 Alpha virt. eigenvalues --    1.24744   1.25313   1.25501   1.26625   1.27121
 Alpha virt. eigenvalues --    1.27408   1.27635   1.28808   1.28966   1.29348
 Alpha virt. eigenvalues --    1.29815   1.31091   1.32459   1.32883   1.33402
 Alpha virt. eigenvalues --    1.34002   1.34606   1.35321   1.36465   1.36635
 Alpha virt. eigenvalues --    1.37226   1.38210   1.39127   1.40577   1.43158
 Alpha virt. eigenvalues --    1.44009   1.45718   1.46073   1.46848   1.47620
 Alpha virt. eigenvalues --    1.48726   1.52416   1.52992   1.53997   1.55954
 Alpha virt. eigenvalues --    1.58609   1.59862   1.62591   1.63501   1.65420
 Alpha virt. eigenvalues --    1.65967   1.68443   1.69106   1.71902   1.73180
 Alpha virt. eigenvalues --    1.75048   1.76864   1.77501   1.79938   1.83002
 Alpha virt. eigenvalues --    1.84149   1.88447   1.89522   1.90898   1.92996
 Alpha virt. eigenvalues --    1.94410   1.96376   1.96693   1.97892   1.98475
 Alpha virt. eigenvalues --    2.01122   2.03048   2.05592   2.06564   2.08779
 Alpha virt. eigenvalues --    2.09629   2.11764   2.13229   2.15044   2.16499
 Alpha virt. eigenvalues --    2.17977   2.19621   2.20522   2.23561   2.24191
 Alpha virt. eigenvalues --    2.25300   2.25568   2.27326   2.29515   2.31467
 Alpha virt. eigenvalues --    2.32744   2.33974   2.36589   2.37933   2.39252
 Alpha virt. eigenvalues --    2.39997   2.41548   2.42111   2.43640   2.44346
 Alpha virt. eigenvalues --    2.45854   2.46888   2.47177   2.48913   2.49672
 Alpha virt. eigenvalues --    2.50627   2.51106   2.52720   2.54360   2.55590
 Alpha virt. eigenvalues --    2.56786   2.57306   2.58610   2.60187   2.62602
 Alpha virt. eigenvalues --    2.64701   2.65838   2.66353   2.68409   2.69005
 Alpha virt. eigenvalues --    2.69542   2.70996   2.71576   2.72425   2.73527
 Alpha virt. eigenvalues --    2.73951   2.74947   2.75279   2.76014   2.78530
 Alpha virt. eigenvalues --    2.79245   2.79723   2.80215   2.82620   2.82833
 Alpha virt. eigenvalues --    2.83767   2.85175   2.85668   2.86730   2.87620
 Alpha virt. eigenvalues --    2.88016   2.89208   2.89532   2.91677   2.92230
 Alpha virt. eigenvalues --    2.92736   2.93237   2.94239   2.94541   2.94834
 Alpha virt. eigenvalues --    2.96050   2.97561   2.98260   2.98514   2.99397
 Alpha virt. eigenvalues --    2.99838   3.00423   3.01331   3.02291   3.02696
 Alpha virt. eigenvalues --    3.03256   3.04517   3.05451   3.05892   3.06424
 Alpha virt. eigenvalues --    3.07235   3.07618   3.08335   3.09716   3.10257
 Alpha virt. eigenvalues --    3.11717   3.12621   3.13021   3.13469   3.14856
 Alpha virt. eigenvalues --    3.16218   3.16738   3.18597   3.19697   3.20590
 Alpha virt. eigenvalues --    3.21763   3.23047   3.23461   3.24000   3.25032
 Alpha virt. eigenvalues --    3.25890   3.27408   3.27903   3.28350   3.29156
 Alpha virt. eigenvalues --    3.29176   3.30182   3.30927   3.31517   3.32127
 Alpha virt. eigenvalues --    3.32936   3.34136   3.34523   3.35369   3.36712
 Alpha virt. eigenvalues --    3.37153   3.37985   3.38965   3.39840   3.40426
 Alpha virt. eigenvalues --    3.40927   3.41314   3.42833   3.43158   3.44562
 Alpha virt. eigenvalues --    3.45110   3.45739   3.46214   3.47042   3.48028
 Alpha virt. eigenvalues --    3.49078   3.50508   3.51329   3.52540   3.52978
 Alpha virt. eigenvalues --    3.53603   3.56178   3.56986   3.58251   3.59575
 Alpha virt. eigenvalues --    3.60266   3.60961   3.61893   3.64183   3.65073
 Alpha virt. eigenvalues --    3.65656   3.66774   3.68511   3.69065   3.69752
 Alpha virt. eigenvalues --    3.71489   3.72341   3.73022   3.74900   3.75671
 Alpha virt. eigenvalues --    3.76948   3.78143   3.78801   3.79295   3.80426
 Alpha virt. eigenvalues --    3.81445   3.83087   3.83478   3.83746   3.84915
 Alpha virt. eigenvalues --    3.86492   3.87195   3.87883   3.88966   3.90189
 Alpha virt. eigenvalues --    3.90907   3.92788   3.93845   3.94517   3.95427
 Alpha virt. eigenvalues --    3.95599   3.96482   3.97230   3.99241   3.99414
 Alpha virt. eigenvalues --    4.00561   4.02201   4.02553   4.02974   4.05658
 Alpha virt. eigenvalues --    4.06664   4.07160   4.08502   4.09076   4.11074
 Alpha virt. eigenvalues --    4.11619   4.12634   4.12888   4.13281   4.14268
 Alpha virt. eigenvalues --    4.15596   4.16830   4.17082   4.17805   4.18983
 Alpha virt. eigenvalues --    4.19763   4.21948   4.22658   4.23746   4.24832
 Alpha virt. eigenvalues --    4.25642   4.25799   4.26987   4.28765   4.29157
 Alpha virt. eigenvalues --    4.30160   4.31614   4.34186   4.34434   4.35526
 Alpha virt. eigenvalues --    4.36885   4.37413   4.40443   4.41584   4.42709
 Alpha virt. eigenvalues --    4.43668   4.44752   4.46703   4.47771   4.49319
 Alpha virt. eigenvalues --    4.51411   4.51817   4.52596   4.54134   4.55090
 Alpha virt. eigenvalues --    4.57480   4.58637   4.59643   4.60378   4.61326
 Alpha virt. eigenvalues --    4.61694   4.62995   4.63902   4.64092   4.65091
 Alpha virt. eigenvalues --    4.67418   4.68423   4.69775   4.70946   4.71518
 Alpha virt. eigenvalues --    4.73891   4.75364   4.75812   4.76631   4.78367
 Alpha virt. eigenvalues --    4.80099   4.80176   4.80870   4.81920   4.82999
 Alpha virt. eigenvalues --    4.85230   4.87155   4.89881   4.90536   4.91440
 Alpha virt. eigenvalues --    4.92824   4.93541   4.94626   4.95786   4.97183
 Alpha virt. eigenvalues --    4.98179   4.99415   5.00998   5.02576   5.03251
 Alpha virt. eigenvalues --    5.04221   5.05663   5.06747   5.07516   5.08625
 Alpha virt. eigenvalues --    5.11757   5.11849   5.13673   5.14307   5.16254
 Alpha virt. eigenvalues --    5.17079   5.17534   5.18637   5.19482   5.20074
 Alpha virt. eigenvalues --    5.21573   5.22277   5.23492   5.23951   5.25837
 Alpha virt. eigenvalues --    5.26505   5.27163   5.28722   5.30934   5.31579
 Alpha virt. eigenvalues --    5.32770   5.32931   5.36834   5.38837   5.39190
 Alpha virt. eigenvalues --    5.43037   5.43431   5.45355   5.47333   5.50727
 Alpha virt. eigenvalues --    5.52185   5.54577   5.56950   5.58681   5.58895
 Alpha virt. eigenvalues --    5.60763   5.62732   5.63248   5.65645   5.65969
 Alpha virt. eigenvalues --    5.67655   5.68718   5.69836   5.72285   5.73453
 Alpha virt. eigenvalues --    5.75675   5.76306   5.78595   5.78940   5.80829
 Alpha virt. eigenvalues --    5.82360   5.83300   5.85661   5.87598   5.88142
 Alpha virt. eigenvalues --    5.91498   5.94803   5.96501   6.01872   6.05863
 Alpha virt. eigenvalues --    6.12004   6.19108   6.20912   6.24182   6.27651
 Alpha virt. eigenvalues --    6.51142   6.53504   6.58787   6.62656   6.65239
 Alpha virt. eigenvalues --    6.66715   6.77504   6.82465   6.90801   6.92826
 Alpha virt. eigenvalues --    6.93658   6.97134   7.18572   7.20108   7.24822
 Alpha virt. eigenvalues --    7.28570   8.13779   8.31988   8.67528   8.73929
 Alpha virt. eigenvalues --    8.78201   8.78741   8.81313   8.83195   8.84248
 Alpha virt. eigenvalues --    8.86600   8.87924   8.88948   8.89839   8.91513
 Alpha virt. eigenvalues --    8.92378   8.97216   8.97689   8.98319   9.01035
 Alpha virt. eigenvalues --    9.04687   9.10878   9.12508   9.14551   9.17353
 Alpha virt. eigenvalues --    9.23303   9.60354   9.62527   9.77583   9.83557
 Alpha virt. eigenvalues --    9.92592   9.94819  10.09838  10.12565  10.15163
 Alpha virt. eigenvalues --   10.18117  10.20079  10.20472  10.21536  10.22086
 Alpha virt. eigenvalues --   10.28336  10.30227  10.32713  10.35220  10.35489
 Alpha virt. eigenvalues --   10.41011  11.76263  11.82162  12.03329  12.14115
 Alpha virt. eigenvalues --   12.15811  12.19877  12.23878  12.27507  12.29457
 Alpha virt. eigenvalues --   12.38105  12.52113  12.56503  12.59289  12.83577
 Alpha virt. eigenvalues --   12.93771  14.97337  15.04765  15.24431  15.28363
 Alpha virt. eigenvalues --   16.00099  16.05917  16.83805  16.91363  22.01463
 Alpha virt. eigenvalues --   22.11888  40.17628  40.28994  40.66623  40.68676
 Alpha virt. eigenvalues --   40.70054  40.71284  40.71904  40.74419  40.76615
 Alpha virt. eigenvalues --   40.77873  40.80383  40.81550  40.82515  40.82737
 Alpha virt. eigenvalues --   40.83930  40.84137  40.84523  40.85240  40.85745
 Alpha virt. eigenvalues --   40.87234  40.87823  40.88826  40.90687  40.91155
 Alpha virt. eigenvalues --   40.91393  40.91774  40.93565  46.33524  46.44699
 Alpha virt. eigenvalues --   46.48053  46.51749  46.56643  46.59478  46.61844
 Alpha virt. eigenvalues --   46.72713  46.83441  54.46982  54.48065  55.80636
 Alpha virt. eigenvalues --   55.85424  55.96226  55.98419  56.06274  56.16578
 Alpha virt. eigenvalues --   56.18390  56.21869  56.27222  56.32385  56.39828
 Alpha virt. eigenvalues --   56.42961  56.47394  56.52142  56.62022  56.65900
 Alpha virt. eigenvalues --   57.47098  57.50620  57.99568  58.02681  58.19350
 Alpha virt. eigenvalues --   58.26040  64.70939  64.77889  73.94506  73.98768
 Alpha virt. eigenvalues --   74.10205  74.12007  74.64251  74.67377  86.07277
 Alpha virt. eigenvalues --   86.16499 165.42861 165.52644 165.57094 165.59951
 Alpha virt. eigenvalues --  165.64412 165.66976 165.68586 165.78296 165.87752
 Alpha virt. eigenvalues --  226.58943 226.63592 230.58118 230.64546 235.60475
 Alpha virt. eigenvalues --  235.85543 236.21532 236.35110 236.48790 236.61113
 Alpha virt. eigenvalues --  236.70465 237.18815 237.45186 237.78430 237.80360
 Alpha virt. eigenvalues --  237.92136 238.05421 238.22836 238.39048 238.74181
 Alpha virt. eigenvalues --  308.80878 308.89058 624.54268 624.61018 624.62332
 Alpha virt. eigenvalues --  624.66775 624.69424 624.73192 624.74565 624.82516
 Alpha virt. eigenvalues --  624.89715 793.99475 794.70358 826.10468 827.22521
 Alpha virt. eigenvalues --  827.35336 827.83305 827.85316 827.87248 828.62363
 Alpha virt. eigenvalues --  830.50529 831.05988 832.07066 832.08306 832.46221
 Alpha virt. eigenvalues --  832.77023 832.98575 833.95249 835.16494 868.34140
 Alpha virt. eigenvalues --  868.405151165.936091166.011232484.640362486.06394
 Alpha virt. eigenvalues -- 2588.636592589.905092594.384002596.204302596.66987
 Alpha virt. eigenvalues -- 2596.719812597.526672602.302732604.888372606.30364
 Alpha virt. eigenvalues -- 2607.883742608.611942609.591572610.911622611.72256
 Alpha virt. eigenvalues -- 2613.395122740.319652740.343402740.359602740.41099
 Alpha virt. eigenvalues -- 2740.422112740.501462740.519732740.564292740.60157
 Alpha virt. eigenvalues -- 3787.318993787.383025073.317555073.384748285.88784
 Alpha virt. eigenvalues -- 8297.125328629.113888634.718308635.618898638.07629
 Alpha virt. eigenvalues -- 8639.216208643.661938644.860218662.549078667.45880
 Alpha virt. eigenvalues -- 8674.916648675.554918678.905958681.454758681.74823
 Alpha virt. eigenvalues -- 8690.535088699.70682******************************
 Alpha virt. eigenvalues -- **************************************************
 Alpha virt. eigenvalues -- **************************************************
 Alpha virt. eigenvalues -- **************************************************
 Alpha virt. eigenvalues -- **************************************************
 Alpha virt. eigenvalues -- **************************************************
 Alpha virt. eigenvalues -- **************************************************
 Alpha virt. eigenvalues -- **************************************************
 Alpha virt. eigenvalues -- **********
          Condensed to atoms (all electrons):
               1          2          3          4          5          6
     1  C    4.640776   0.171969  -0.063798  -0.003726   0.000001   0.000657
     2  C    0.171969   5.366454   0.394493   0.003541  -0.000306  -0.003168
     3  H   -0.063798   0.394493   0.511090  -0.000139   0.000046  -0.000209
     4  C   -0.003726   0.003541  -0.000139   5.029012   0.397904   0.409580
     5  H    0.000001  -0.000306   0.000046   0.397904   0.524688  -0.006227
     6  H    0.000657  -0.003168  -0.000209   0.409580  -0.006227   0.539761
     7  H   -0.002463   0.006098   0.000651   0.385412  -0.013149  -0.032347
     8  O    0.730745  -0.088498   0.004300  -0.000900   0.000014  -0.000031
     9  N   -0.057355   0.307423  -0.042041  -0.010797   0.000321   0.000365
    10  H    0.001843  -0.033608   0.002453   0.000927   0.000398   0.001478
    11  N    0.292309  -0.140933   0.013993  -0.000109   0.000006  -0.000026
    12  H   -0.022055   0.009280   0.000331   0.000041   0.000000  -0.000004
    13  C   -0.042398   0.009913  -0.001090   0.000001  -0.000001   0.000001
    14  H    0.003873   0.001504   0.000080   0.000021  -0.000002   0.000000
    15  H   -0.008460  -0.000230  -0.000285   0.000000   0.000000   0.000000
    16  H    0.007906   0.000602  -0.000151   0.000000   0.000000   0.000000
    17  C   -0.004553  -0.050824   0.002170   0.000548   0.000017  -0.000109
    18  C   -0.005590   0.018682   0.002430  -0.000117   0.000003   0.000004
    19  H    0.000457  -0.000526  -0.000406   0.000168  -0.000009   0.000063
    20  H   -0.000100  -0.000410   0.000203  -0.000010   0.000000  -0.000012
    21  H    0.000750  -0.000972  -0.000210   0.000015  -0.000001   0.000005
    22  O   -0.007600   0.020458   0.021259   0.000026   0.000000   0.000000
[...]
 Alpha virt. eigenvalues --    4.39052   4.39274   4.41920   4.43126   4.43882
 Alpha virt. eigenvalues --    4.46550   4.47366   4.48078   4.50767   4.52794
 Alpha virt. eigenvalues --    4.53842   4.55325   4.55482   4.56991   4.58853
 Alpha virt. eigenvalues --    4.61261   4.63466   4.64926   4.65261   4.67939
 Alpha virt. eigenvalues --    4.68434   4.69231   4.70274   4.72088   4.73853
 Alpha virt. eigenvalues --    4.74216   4.75840   4.76783   4.77893   4.78914
 Alpha virt. eigenvalues --    4.79617   4.80629   4.83002   4.84072   4.85271
 Alpha virt. eigenvalues --    4.85702   4.86518   4.87578   4.89120   4.90870
 Alpha virt. eigenvalues --    4.92558   4.93893   4.94557   4.95297   4.96798
 Alpha virt. eigenvalues --    4.96922   4.98074   4.99762   5.01334   5.02504
 Alpha virt. eigenvalues --    5.03212   5.03749   5.05281   5.05834   5.08092
 Alpha virt. eigenvalues --    5.08938   5.09381   5.10921   5.11839   5.13003
 Alpha virt. eigenvalues --    5.14370   5.15270   5.15555   5.16078   5.17073
 Alpha virt. eigenvalues --    5.19745   5.20586   5.20742   5.22547   5.23503
 Alpha virt. eigenvalues --    5.24325   5.24965   5.26847   5.27805   5.28682
 Alpha virt. eigenvalues --    5.29943   5.30698   5.31852   5.32819   5.34558
 Alpha virt. eigenvalues --    5.36139   5.36761   5.36874   5.38544   5.39479
 Alpha virt. eigenvalues --    5.44301   5.46616   5.49519   5.52577   5.54822
 Alpha virt. eigenvalues --    5.56847   5.59333   5.62808   5.65278   5.72508
 Alpha virt. eigenvalues --    5.73828   5.75454   5.76745   5.78537   5.78865
 Alpha virt. eigenvalues --    5.80600   5.81927   5.83662   5.85565   5.88979
 Alpha virt. eigenvalues --    5.90058   5.92201   5.93940   5.97178   5.98454
 Alpha virt. eigenvalues --    5.99819   6.02131   6.03022   6.06594   6.09202
 Alpha virt. eigenvalues --    6.22298   6.27844   6.35855   6.40728   6.48985
 Alpha virt. eigenvalues --    6.52181   6.54291   6.57547   6.68235   6.69192
 Alpha virt. eigenvalues --    6.88242   6.90100   6.92779   6.98231   7.10471
 Alpha virt. eigenvalues --    7.14540   7.17129   7.17535   9.49179   9.99365
 Alpha virt. eigenvalues --   11.52322  12.11771  12.41864  12.60524  12.94924
 Alpha virt. eigenvalues --   13.41014  13.56312  13.62892  13.70073  13.80037
 Alpha virt. eigenvalues --   14.00055
          Condensed to atoms (all electrons):
               1          2          3          4          5          6
     1  C    4.783686   0.141635  -0.069470  -0.002373  -0.000019   0.000614
     2  C    0.141635   5.474087   0.441535   0.003962  -0.000441  -0.002919
     3  H   -0.069470   0.441535   0.459905  -0.000328   0.000043  -0.000224
     4  C   -0.002373   0.003962  -0.000328   5.189109   0.403486   0.406440
     5  H   -0.000019  -0.000441   0.000043   0.403486   0.509770  -0.011024
     6  H    0.000614  -0.002919  -0.000224   0.406440  -0.011024   0.532326
     7  H   -0.002925   0.007795   0.000593   0.384523  -0.020073  -0.038395
     8  O    0.720012  -0.078382   0.002295  -0.001016   0.000010  -0.000038
     9  N   -0.056681   0.257972  -0.043013  -0.009183   0.000283   0.000212
    10  H    0.002952  -0.033311   0.001010  -0.000590   0.000642   0.000644
    11  N    0.293163  -0.108762   0.008218  -0.000202   0.000006  -0.000024
    12  H   -0.019538   0.006000  -0.000708   0.000040   0.000000  -0.000003
    13  C   -0.060528   0.009267  -0.000905   0.000008  -0.000001   0.000001
    14  H    0.003398   0.001367   0.000083   0.000021  -0.000001   0.000001
    15  H   -0.008348  -0.000261  -0.000257   0.000000   0.000000   0.000000
    16  H    0.008655   0.000580  -0.000120   0.000001   0.000000   0.000000
    17  C   -0.003394  -0.062232   0.000759   0.000461   0.000013  -0.000088
    18  C   -0.004097   0.015014   0.002206  -0.000035   0.000004   0.000011
    19  H    0.000276   0.000350  -0.000382   0.000191  -0.000012   0.000077
    20  H   -0.000131  -0.000378   0.000183  -0.000012   0.000000  -0.000012
    21  H    0.000688  -0.000951  -0.000184   0.000013  -0.000001   0.000006
    22  O   -0.004315   0.017916   0.020225   0.000031   0.000000  -0.000001
    23  C   -0.010267  -0.001749   0.006180   0.261853  -0.034727  -0.047520
    24  H   -0.000719   0.010616   0.000033  -0.039468  -0.008235  -0.006091
    25  C    0.001683  -0.010183   0.000059  -0.061968  -0.003945   0.007696
    26  H    0.004885   0.004939   0.000304  -0.004622  -0.000204  -0.000002
    27  H   -0.003294  -0.003984  -0.000189   0.007494  -0.000241  -0.000350
    28  H    0.000239  -0.000673   0.000039  -0.005159   0.004053  -0.000277
    29  C   -0.018392   0.200240  -0.037870  -0.050468   0.009050   0.001838
    30  H    0.009154  -0.050382  -0.009572  -0.005747  -0.000298   0.003990
    31  H    0.005105  -0.055681  -0.009880   0.007180  -0.000338   0.000617
               7          8          9         10         11         12
     1  C   -0.002925   0.720012  -0.056681   0.002952   0.293163  -0.019538
     2  C    0.007795  -0.078382   0.257972  -0.033311  -0.108762   0.006000
     3  H    0.000593   0.002295  -0.043013   0.001010   0.008218  -0.000708
     4  C    0.384523  -0.001016  -0.009183  -0.000590  -0.000202   0.000040
     5  H   -0.020073   0.000010   0.000283   0.000642   0.000006   0.000000
     6  H   -0.038395  -0.000038   0.000212   0.000644  -0.000024  -0.000003
     7  H    0.551606   0.002622   0.003214  -0.005479   0.000332  -0.000002
     8  O    0.002622   7.834905  -0.001486  -0.001028  -0.124849   0.005062
     9  N    0.003214  -0.001486   6.555697   0.391050   0.006430   0.000541
    10  H   -0.005479  -0.001028   0.391050   0.479747  -0.000294  -0.000022
    11  N    0.000332  -0.124849   0.006430  -0.000294   6.512009   0.380059
    12  H   -0.000002   0.005062   0.000541  -0.000022   0.380059   0.532567
    13  C   -0.000032   0.005072  -0.000232   0.000032   0.292914  -0.033547
    14  H   -0.000004   0.005423  -0.000033  -0.000002  -0.062619   0.003318
    15  H   -0.000003   0.004829  -0.000025   0.000004  -0.036896   0.002492
    16  H   -0.000001   0.001453   0.000009  -0.000001  -0.028380  -0.008183
    17  C    0.000626   0.012430   0.330077  -0.021763  -0.000389  -0.000074
    18  C    0.000225  -0.000443  -0.064491  -0.002510  -0.000075   0.000002
    19  H    0.000136  -0.000046   0.012692  -0.000940   0.000009   0.000001
    20  H    0.000066   0.000039  -0.000340  -0.000309   0.000005   0.000000
    21  H   -0.000104   0.000322  -0.001139   0.000609  -0.000002  -0.000002
    22  O   -0.000055  -0.003393  -0.139876   0.004093  -0.002916  -0.000129
    23  C   -0.027754   0.005420   0.003610  -0.000951  -0.007002   0.000156
    24  H    0.008770   0.000023  -0.000317  -0.000485  -0.000227  -0.000011
    25  C   -0.006192  -0.014232  -0.001040   0.000025   0.004214   0.000238
    26  H    0.003389   0.013798   0.000078  -0.000299  -0.008003  -0.000153
    27  H   -0.000100  -0.001745   0.000097  -0.000001   0.008423   0.000524
    28  H    0.000001   0.000263   0.000012   0.000012   0.000436  -0.000011
    29  C   -0.013155  -0.004331  -0.050229  -0.000252   0.006569  -0.000034
    30  H   -0.001288  -0.000501   0.002225   0.002106   0.000019  -0.000170
    31  H   -0.000883  -0.000130   0.004952   0.000322  -0.003490   0.003350
              13         14         15         16         17         18
     1  C   -0.060528   0.003398  -0.008348   0.008655  -0.003394  -0.004097
     2  C    0.009267   0.001367  -0.000261   0.000580  -0.062232   0.015014
     3  H   -0.000905   0.000083  -0.000257  -0.000120   0.000759   0.002206
     4  C    0.000008   0.000021   0.000000   0.000001   0.000461  -0.000035
     5  H   -0.000001  -0.000001   0.000000   0.000000   0.000013   0.000004
     6  H    0.000001   0.000001   0.000000   0.000000  -0.000088   0.000011
     7  H   -0.000032  -0.000004  -0.000003  -0.000001   0.000626   0.000225
     8  O    0.005072   0.005423   0.004829   0.001453   0.012430  -0.000443
     9  N   -0.000232  -0.000033  -0.000025   0.000009   0.330077  -0.064491
    10  H    0.000032  -0.000002   0.000004  -0.000001  -0.021763  -0.002510
    11  N    0.292914  -0.062619  -0.036896  -0.028380  -0.000389  -0.000075
    12  H   -0.033547   0.003318   0.002492  -0.008183  -0.000074   0.000002
    13  C    4.792151   0.393615   0.406229   0.392707  -0.000175  -0.000006
    14  H    0.393615   0.617829  -0.051925  -0.028385  -0.000027   0.000000
    15  H    0.406229  -0.051925   0.579894  -0.024969   0.000062   0.000001
    16  H    0.392707  -0.028385  -0.024969   0.596618  -0.000005   0.000000
    17  C   -0.000175  -0.000027   0.000062  -0.000005   4.531165   0.278688
    18  C   -0.000006   0.000000   0.000001   0.000000   0.278688   5.001645
    19  H    0.000001   0.000000   0.000000   0.000000  -0.053813   0.392560
    20  H    0.000000   0.000000   0.000000   0.000000  -0.024689   0.384050
    21  H    0.000002   0.000000   0.000001   0.000000  -0.024989   0.388742
    22  O   -0.000179   0.000007   0.000046  -0.000001   0.724467  -0.070467
    23  C    0.000361   0.000837  -0.000120   0.000013  -0.000726  -0.000116
    24  H   -0.000016   0.000024  -0.000002  -0.000001   0.000054   0.000000
    25  C   -0.001318  -0.002246   0.000295  -0.000054   0.000087   0.000016
    26  H    0.000064   0.003595  -0.000467   0.000047   0.000109   0.000009
    27  H   -0.000369  -0.002723   0.000322  -0.000171   0.000010   0.000000
    28  H   -0.000053  -0.000062   0.000003  -0.000012   0.000001   0.000000
    29  C   -0.000479  -0.000683   0.000158  -0.000031   0.008099   0.000212
    30  H    0.000059  -0.000022   0.000010   0.000003  -0.000525  -0.000108
    31  H    0.000097  -0.000058   0.000033   0.000039  -0.000278   0.000035
              19         20         21         22         23         24
     1  C    0.000276  -0.000131   0.000688  -0.004315  -0.010267  -0.000719
     2  C    0.000350  -0.000378  -0.000951   0.017916  -0.001749   0.010616
     3  H   -0.000382   0.000183  -0.000184   0.020225   0.006180   0.000033
     4  C    0.000191  -0.000012   0.000013   0.000031   0.261853  -0.039468
     5  H   -0.000012   0.000000  -0.000001   0.000000  -0.034727  -0.008235
     6  H    0.000077  -0.000012   0.000006  -0.000001  -0.047520  -0.006091
     7  H    0.000136   0.000066  -0.000104  -0.000055  -0.027754   0.008770
     8  O   -0.000046   0.000039   0.000322  -0.003393   0.005420   0.000023
     9  N    0.012692  -0.000340  -0.001139  -0.139876   0.003610  -0.000317
    10  H   -0.000940  -0.000309   0.000609   0.004093  -0.000951  -0.000485
    11  N    0.000009   0.000005  -0.000002  -0.002916  -0.007002  -0.000227
    12  H    0.000001   0.000000  -0.000002  -0.000129   0.000156  -0.000011
    13  C    0.000001   0.000000   0.000002  -0.000179   0.000361  -0.000016
    14  H    0.000000   0.000000   0.000000   0.000007   0.000837   0.000024
    15  H    0.000000   0.000000   0.000001   0.000046  -0.000120  -0.000002
    16  H    0.000000   0.000000   0.000000  -0.000001   0.000013  -0.000001
    17  C   -0.053813  -0.024689  -0.024989   0.724467  -0.000726   0.000054
    18  C    0.392560   0.384050   0.388742  -0.070467  -0.000116   0.000000
    19  H    0.604185  -0.027822  -0.024413   0.004663   0.000043   0.000001
    20  H   -0.027822   0.578336  -0.025502   0.002427   0.000010   0.000000
    21  H   -0.024413  -0.025502   0.564209   0.000859  -0.000009   0.000000
    22  O    0.004663   0.002427   0.000859   7.851847  -0.000116   0.000000
    23  C    0.000043   0.000010  -0.000009  -0.000116   5.237726   0.447113
    24  H    0.000001   0.000000   0.000000   0.000000   0.447113   0.555860
    25  C    0.000000   0.000000   0.000001  -0.000001   0.245892  -0.041727
    26  H   -0.000007   0.000000  -0.000002   0.000024  -0.017943   0.006576
    27  H    0.000000   0.000000   0.000000   0.000000  -0.049316  -0.006231
    28  H    0.000000   0.000000   0.000000   0.000000  -0.038300  -0.008830
    29  C   -0.000207  -0.000024   0.000034   0.001825   0.228470  -0.062000
    30  H    0.000004  -0.000032   0.000017  -0.000137  -0.048517  -0.007599
    31  H   -0.000003  -0.000005   0.000000   0.000067  -0.045596  -0.011275
              25         26         27         28         29         30
     1  C    0.001683   0.004885  -0.003294   0.000239  -0.018392   0.009154
     2  C   -0.010183   0.004939  -0.003984  -0.000673   0.200240  -0.050382
     3  H    0.000059   0.000304  -0.000189   0.000039  -0.037870  -0.009572
     4  C   -0.061968  -0.004622   0.007494  -0.005159  -0.050468  -0.005747
     5  H   -0.003945  -0.000204  -0.000241   0.004053   0.009050  -0.000298
     6  H    0.007696  -0.000002  -0.000350  -0.000277   0.001838   0.003990
     7  H   -0.006192   0.003389  -0.000100   0.000001  -0.013155  -0.001288
     8  O   -0.014232   0.013798  -0.001745   0.000263  -0.004331  -0.000501
     9  N   -0.001040   0.000078   0.000097   0.000012  -0.050229   0.002225
    10  H    0.000025  -0.000299  -0.000001   0.000012  -0.000252   0.002106
    11  N    0.004214  -0.008003   0.008423   0.000436   0.006569   0.000019
    12  H    0.000238  -0.000153   0.000524  -0.000011  -0.000034  -0.000170
    13  C   -0.001318   0.000064  -0.000369  -0.000053  -0.000479   0.000059
    14  H   -0.002246   0.003595  -0.002723  -0.000062  -0.000683  -0.000022
    15  H    0.000295  -0.000467   0.000322   0.000003   0.000158   0.000010
    16  H   -0.000054   0.000047  -0.000171  -0.000012  -0.000031   0.000003
    17  C    0.000087   0.000109   0.000010   0.000001   0.008099  -0.000525
    18  C    0.000016   0.000009   0.000000   0.000000   0.000212  -0.000108
    19  H    0.000000  -0.000007   0.000000   0.000000  -0.000207   0.000004
    20  H    0.000000   0.000000   0.000000   0.000000  -0.000024  -0.000032
    21  H    0.000001  -0.000002   0.000000   0.000000   0.000034   0.000017
    22  O   -0.000001   0.000024   0.000000   0.000000   0.001825  -0.000137
    23  C    0.245892  -0.017943  -0.049316  -0.038300   0.228470  -0.048517
    24  H   -0.041727   0.006576  -0.006231  -0.008830  -0.062000  -0.007599
    25  C    5.218531   0.377503   0.405215   0.411336  -0.038644   0.006625
    26  H    0.377503   0.500155  -0.034056  -0.021819  -0.010928  -0.000499
    27  H    0.405215  -0.034056   0.531997  -0.010480   0.002668   0.000419
    28  H    0.411336  -0.021819  -0.010480   0.509813   0.008833  -0.000309
    29  C   -0.038644  -0.010928   0.002668   0.008833   5.365985   0.427834
    30  H    0.006625  -0.000499   0.000419  -0.000309   0.427834   0.466396
    31  H   -0.003405   0.000089   0.002023  -0.000231   0.429555   0.002851
              31
     1  C    0.005105
     2  C   -0.055681
     3  H   -0.009880
     4  C    0.007180
     5  H   -0.000338
     6  H    0.000617
     7  H   -0.000883
     8  O   -0.000130
     9  N    0.004952
    10  H    0.000322
    11  N   -0.003490
    12  H    0.003350
    13  C    0.000097
    14  H   -0.000058
    15  H    0.000033
    16  H    0.000039
    17  C   -0.000278
    18  C    0.000035
    19  H   -0.000003
    20  H   -0.000005
    21  H    0.000000
    22  O    0.000067
    23  C   -0.045596
    24  H   -0.011275
    25  C   -0.003405
    26  H    0.000089
    27  H    0.002023
    28  H   -0.000231
    29  C    0.429555
    30  H    0.002851
    31  H    0.486323
 Mulliken charges:
               1
     1  C    0.288348
     2  C   -0.182985
     3  H    0.229434
     4  C   -0.483641
     5  H    0.152201
     6  H    0.152495
     7  H    0.152546
     8  O   -0.382358
     9  N   -0.201065
    10  H    0.184989
    11  N   -0.128674
    12  H    0.128237
    13  C   -0.194738
    14  H    0.119273
    15  H    0.128897
    16  H    0.090192
    17  C    0.306059
    18  C   -0.321070
    19  H    0.092459
    20  H    0.114138
    21  H    0.121795
    22  O   -0.406913
    23  C   -0.106959
    24  H    0.164163
    25  C   -0.494461
    26  H    0.183440
    27  H    0.154057
    28  H    0.151176
    29  C   -0.403645
    30  H    0.203996
    31  H    0.188616
 Sum of Mulliken charges =   0.00000
 Mulliken charges with hydrogens summed into heavy atoms:
               1
     1  C    0.288348
     2  C    0.046449
     4  C   -0.026400
     8  O   -0.382358
     9  N   -0.016077
    11  N   -0.000437
    13  C    0.143625
    17  C    0.306059
    18  C    0.007322
    22  O   -0.406913
    23  C    0.057203
    25  C   -0.005787
    29  C   -0.011034
 Electronic spatial extent (au):  <R**2>=           2755.7698
 Charge=              0.0000 electrons
 Dipole moment (field-independent basis, Debye):
    X=             -3.0229    Y=              3.1752    Z=              2.2049  Tot=              4.9073
 Quadrupole moment (field-independent basis, Debye-Ang):
   XX=            -76.3717   YY=            -78.4573   ZZ=            -81.2361
   XY=             12.0535   XZ=             -5.2777   YZ=             -2.6628
 Traceless Quadrupole moment (field-independent basis, Debye-Ang):
   XX=              2.3167   YY=              0.2311   ZZ=             -2.5478
   XY=             12.0535   XZ=             -5.2777   YZ=             -2.6628
 Octapole moment (field-independent basis, Debye-Ang**2):
  XXX=              7.0955  YYY=            -13.4378  ZZZ=              8.9136  XYY=            -23.4991
  XXY=              6.6376  XXZ=             -8.5888  XZZ=             -0.6501  YZZ=             -3.2770
  YYZ=             -0.3318  XYZ=              7.3591
 Hexadecapole moment (field-independent basis, Debye-Ang**3):
 XXXX=          -1819.9064 YYYY=          -1367.8459 ZZZZ=           -367.0856 XXXY=             72.1354
 XXXZ=            -28.7146 YYYX=             51.9681 YYYZ=              3.7696 ZZZX=            -10.4767
 ZZZY=            -10.7468 XXYY=           -545.5025 XXZZ=           -361.5541 YYZZ=           -294.8861
 XXYZ=              3.6942 YYXZ=             -6.6887 ZZXY=              5.8395
 N-N= 8.852111652998D+02 E-N=-3.200152172391D+03  KE= 6.091195820883D+02
 Calculating spin-rotation constants.
 Leave Link  601 at Wed Jun 18 13:20:32 2014, MaxMem=  4294967296 cpu:        70.0
 (Enter /home/ztw1e12/g09/l9999.exe)

 Test job not archived.
 1\1\GINC-GREEN0652\SP\RM06\Gen\C9H18N2O2\ROOT\18-Jun-2014\0\\#P Geom=A
 llCheck Guess=TCheck SCRF=Check GenChk RM06/ChkBas NMR=ReadFC IOp(3/6=
 22)\\NMR spin-spin scan\\0,1\C,0,0.269051,1.04152,0.324546\C,0,0.10020
 8,0.060976,-0.831573\H,0,0.578559,0.533328,-1.695486\C,0,-2.209162,-2.
 136482,0.187793\H,0,-3.093305,-2.496374,0.717688\H,0,-2.050016,-2.7837
 57,-0.677508\H,0,-1.362844,-2.261683,0.871667\O,0,0.668629,0.701593,1.
 433951\N,0,0.812734,-1.168325,-0.569021\H,0,0.292797,-2.003899,-0.3539
 31\N,0,-0.036593,2.309436,0.029385\H,0,-0.395061,2.520861,-0.888518\C,
 0,-0.080709,3.33034,1.050341\H,0,-0.758155,3.049101,1.85925\H,0,0.9067
 62,3.501813,1.479309\H,0,-0.431692,4.256978,0.60639\C,0,2.154883,-1.20
 9834,-0.523405\C,0,2.771405,-2.531896,-0.205198\H,0,2.042146,-3.330322
 ,-0.085764\H,0,3.468561,-2.794546,-1.000411\H,0,3.34881,-2.434524,0.71
 4333\O,0,2.844192,-0.213938,-0.740698\C,0,-2.385964,-0.683715,-0.22181
 9\H,0,-3.327268,-0.640346,-0.783424\C,0,-2.565774,0.208749,0.991225\H,
 0,-1.715222,0.146824,1.672496\H,0,-2.702862,1.255295,0.709269\H,0,-3.4
 49702,-0.102077,1.551925\C,0,-1.350067,-0.204331,-1.242367\H,0,-1.3174
 04,-0.918766,-2.069549\H,0,-1.721312,0.731299,-1.670555\\Version=EM64L
 -G09RevD.01\State=1-A\HF=-613.5791498\RMSD=9.788e-09\Dipole=-1.7612261
 ,-0.1545856,-0.7756962\Quadrupole=-6.9032552,10.1630772,-3.259822,-4.3
 930209,1.5201138,-0.7228749\PG=C01 [X(C9H18N2O2)]\\@


 NOTHING RESEMBLES A NEW PHENOMENON AS MUCH AS A MISTAKE.

                               -- ENRICO FERMI (?)
 Job cpu time:       2 days 15 hours 33 minutes  2.9 seconds.
 File lengths (MBytes):  RWF=   2456 Int=      0 D2E=      0 Chk=     48 Scr=      8
 Normal termination of Gaussian 09 at Wed Jun 18 13:20:33 2014.
