 Entering Gaussian System, Link 0=g09
 Input=scan_input_34.gjf
 Output=scan_input_34.log
 Initial command:
 /home/ztw1e12/g09/l1.exe "/home/ztw1e12/leucine_scan/leucine_chi2_scan/Gau-944.inp" -scrdir="/home/ztw1e12/leucine_scan/leucine_chi2_scan/"
 Default is to use a total of   8 processors:
                                8 via shared-memory
                                1 via Linda
 Entering Link 1 = /home/ztw1e12/g09/l1.exe PID=       945.
  
 Copyright (c) 1988,1990,1992,1993,1995,1998,2003,2009,2013,
            Gaussian, Inc.  All Rights Reserved.
  
 This is part of the Gaussian(R) 09 program.  It is based on
 the Gaussian(R) 03 system (copyright 2003, Gaussian, Inc.),
 the Gaussian(R) 98 system (copyright 1998, Gaussian, Inc.),
 the Gaussian(R) 94 system (copyright 1995, Gaussian, Inc.),
 the Gaussian 92(TM) system (copyright 1992, Gaussian, Inc.),
 the Gaussian 90(TM) system (copyright 1990, Gaussian, Inc.),
 the Gaussian 88(TM) system (copyright 1988, Gaussian, Inc.),
 the Gaussian 86(TM) system (copyright 1986, Carnegie Mellon
 University), and the Gaussian 82(TM) system (copyright 1983,
 Carnegie Mellon University). Gaussian is a federally registered
 trademark of Gaussian, Inc.
  
 This software contains proprietary and confidential information,
 including trade secrets, belonging to Gaussian, Inc.
  
 This software is provided under written license and may be
 used, copied, transmitted, or stored only in accord with that
 written license.
  
 The following legend is applicable only to US Government
 contracts under FAR:
  
                    RESTRICTED RIGHTS LEGEND
  
 Use, reproduction and disclosure by the US Government is
 subject to restrictions as set forth in subparagraphs (a)
 and (c) of the Commercial Computer Software - Restricted
 Rights clause in FAR 52.227-19.
  
 Gaussian, Inc.
 340 Quinnipiac St., Bldg. 40, Wallingford CT 06492
  
  
 ---------------------------------------------------------------
 Warning -- This program may not be used in any manner that
 competes with the business of Gaussian, Inc. or will provide
 assistance to any competitor of Gaussian, Inc.  The licensee
 of this program is prohibited from giving any competitor of
 Gaussian, Inc. access to this program.  By using this program,
 the user acknowledges that Gaussian, Inc. is engaged in the
 business of creating and licensing software in the field of
 computational chemistry and represents and warrants to the
 licensee that it is not a competitor of Gaussian, Inc. and that
 it will not use this program in any manner prohibited above.
 ---------------------------------------------------------------
  

 Cite this work as:
 Gaussian 09, Revision D.01,
 M. J. Frisch, G. W. Trucks, H. B. Schlegel, G. E. Scuseria, 
 M. A. Robb, J. R. Cheeseman, G. Scalmani, V. Barone, B. Mennucci, 
 G. A. Petersson, H. Nakatsuji, M. Caricato, X. Li, H. P. Hratchian, 
 A. F. Izmaylov, J. Bloino, G. Zheng, J. L. Sonnenberg, M. Hada, 
 M. Ehara, K. Toyota, R. Fukuda, J. Hasegawa, M. Ishida, T. Nakajima, 
 Y. Honda, O. Kitao, H. Nakai, T. Vreven, J. A. Montgomery, Jr., 
 J. E. Peralta, F. Ogliaro, M. Bearpark, J. J. Heyd, E. Brothers, 
 K. N. Kudin, V. N. Staroverov, T. Keith, R. Kobayashi, J. Normand, 
 K. Raghavachari, A. Rendell, J. C. Burant, S. S. Iyengar, J. Tomasi, 
 M. Cossi, N. Rega, J. M. Millam, M. Klene, J. E. Knox, J. B. Cross, 
 V. Bakken, C. Adamo, J. Jaramillo, R. Gomperts, R. E. Stratmann, 
 O. Yazyev, A. J. Austin, R. Cammi, C. Pomelli, J. W. Ochterski, 
 R. L. Martin, K. Morokuma, V. G. Zakrzewski, G. A. Voth, 
 P. Salvador, J. J. Dannenberg, S. Dapprich, A. D. Daniels, 
 O. Farkas, J. B. Foresman, J. V. Ortiz, J. Cioslowski, 
 and D. J. Fox, Gaussian, Inc., Wallingford CT, 2013.
 
 ******************************************
 Gaussian 09:  EM64L-G09RevD.01 24-Apr-2013
                18-Jun-2014 
 ******************************************
 %Mem=32GB
 %NProcShared=16
 Will use up to   16 processors via shared memory.
 Default route:  MaxDisk=100GB
 ----------------------------------------------------------------------
 #p nmr=(giao,mixed,spinspin) m06/cc-pvtz scf=tight integral=(grid=ultr
 afine)
 ----------------------------------------------------------------------
 1/38=1/1;
 2/12=2,17=6,18=5,40=1/2;
 3/5=16,6=1,10=1100000,11=2,16=1,25=1,30=1,74=-54,75=-5/1,2,8,3;
 4//1;
 5/5=2,32=2,38=5/2;
 8/6=1,10=90,11=11/1;
 10/13=100,45=16,47=3/2;
 6/7=2,8=2,9=2,10=2,28=1/1;
 99/9=1/99;
 Leave Link    1 at Wed Jun 18 15:55:52 2014, MaxMem=  4294967296 cpu:         5.7
 (Enter /home/ztw1e12/g09/l101.exe)
 ------------------
 NMR spin-spin scan
 ------------------
 Symbolic Z-matrix:
 Charge =  0 Multiplicity = 1
 C                     0.67566   0.64846   0.65051 
 C                     0.14815   0.2533   -0.7245 
 H                     0.55208   0.96889  -1.44728 
 C                    -3.40372   0.51357   0.6679 
 H                    -3.98311   0.07646   1.48357 
 H                    -3.16208   1.54418   0.93577 
 H                    -4.04674   0.54067  -0.21798 
 O                     1.06068  -0.17469   1.47573 
 N                     0.60824  -1.06487  -1.09104 
 H                    -0.06405  -1.81001  -1.18251 
 N                     0.6487    1.96065   0.90189 
 H                     0.32904   2.58825   0.18115 
 C                     1.05544   2.49778   2.18039 
 H                     0.45741   2.07922   2.99048 
 H                     2.10448   2.2795    2.38267 
 H                     0.921     3.57494   2.169 
 C                     1.90771  -1.32704  -1.30802 
 C                     2.2536   -2.73415  -1.66698 
 H                     1.38583  -3.38741  -1.72849 
 H                     2.77618  -2.73583  -2.62324 
 H                     2.94291  -3.12571  -0.91887 
 O                     2.76856  -0.45201  -1.22104 
 C                    -2.14745  -0.29129   0.39054 
 H                    -1.52678  -0.24098   1.29277 
 C                    -2.48826  -1.74858   0.13913 
 H                    -3.0757   -1.85191  -0.77822 
 H                    -1.60085  -2.37795   0.04263 
 H                    -3.08062  -2.15686   0.96057 
 C                    -1.37536   0.34539  -0.76975 
 H                    -1.72039  -0.07012  -1.72231 
 H                    -1.61492   1.41146  -0.80414 
 
 NAtoms=     31 NQM=       31 NQMF=       0 NMMI=      0 NMMIF=      0
                NMic=       0 NMicF=      0.
                    Isotopes and Nuclear Properties:
 (Nuclear quadrupole moments (NQMom) in fm**2, nuclear magnetic moments (NMagM)
  in nuclear magnetons)

  Atom         1           2           3           4           5           6           7           8           9          10
 IAtWgt=          12          12           1          12           1           1           1          16          14           1
 AtmWgt=  12.0000000  12.0000000   1.0078250  12.0000000   1.0078250   1.0078250   1.0078250  15.9949146  14.0030740   1.0078250
 NucSpn=           0           0           1           0           1           1           1           0           2           1
 AtZEff=   0.0000000   0.0000000   0.0000000   0.0000000   0.0000000   0.0000000   0.0000000   0.0000000   0.0000000   0.0000000
 NQMom=    0.0000000   0.0000000   0.0000000   0.0000000   0.0000000   0.0000000   0.0000000   0.0000000   2.0440000   0.0000000
 NMagM=    0.0000000   0.0000000   2.7928460   0.0000000   2.7928460   2.7928460   2.7928460   0.0000000   0.4037610   2.7928460
 AtZNuc=   6.0000000   6.0000000   1.0000000   6.0000000   1.0000000   1.0000000   1.0000000   8.0000000   7.0000000   1.0000000

  Atom        11          12          13          14          15          16          17          18          19          20
 IAtWgt=          14           1          12           1           1           1          12          12           1           1
 AtmWgt=  14.0030740   1.0078250  12.0000000   1.0078250   1.0078250   1.0078250  12.0000000  12.0000000   1.0078250   1.0078250
 NucSpn=           2           1           0           1           1           1           0           0           1           1
 AtZEff=   0.0000000   0.0000000   0.0000000   0.0000000   0.0000000   0.0000000   0.0000000   0.0000000   0.0000000   0.0000000
 NQMom=    2.0440000   0.0000000   0.0000000   0.0000000   0.0000000   0.0000000   0.0000000   0.0000000   0.0000000   0.0000000
 NMagM=    0.4037610   2.7928460   0.0000000   2.7928460   2.7928460   2.7928460   0.0000000   0.0000000   2.7928460   2.7928460
 AtZNuc=   7.0000000   1.0000000   6.0000000   1.0000000   1.0000000   1.0000000   6.0000000   6.0000000   1.0000000   1.0000000

  Atom        21          22          23          24          25          26          27          28          29          30
 IAtWgt=           1          16          12           1          12           1           1           1          12           1
 AtmWgt=   1.0078250  15.9949146  12.0000000   1.0078250  12.0000000   1.0078250   1.0078250   1.0078250  12.0000000   1.0078250
 NucSpn=           1           0           0           1           0           1           1           1           0           1
 AtZEff=   0.0000000   0.0000000   0.0000000   0.0000000   0.0000000   0.0000000   0.0000000   0.0000000   0.0000000   0.0000000
 NQMom=    0.0000000   0.0000000   0.0000000   0.0000000   0.0000000   0.0000000   0.0000000   0.0000000   0.0000000   0.0000000
 NMagM=    2.7928460   0.0000000   0.0000000   2.7928460   0.0000000   2.7928460   2.7928460   2.7928460   0.0000000   2.7928460
 AtZNuc=   1.0000000   8.0000000   6.0000000   1.0000000   6.0000000   1.0000000   1.0000000   1.0000000   6.0000000   1.0000000

  Atom        31
 IAtWgt=           1
 AtmWgt=   1.0078250
 NucSpn=           1
 AtZEff=   0.0000000
 NQMom=    0.0000000
 NMagM=    2.7928460
 AtZNuc=   1.0000000
 Leave Link  101 at Wed Jun 18 15:55:53 2014, MaxMem=  4294967296 cpu:         2.1
 (Enter /home/ztw1e12/g09/l202.exe)
                          Input orientation:                          
 ---------------------------------------------------------------------
 Center     Atomic      Atomic             Coordinates (Angstroms)
 Number     Number       Type             X           Y           Z
 ---------------------------------------------------------------------
      1          6           0        0.675659    0.648455    0.650509
      2          6           0        0.148147    0.253301   -0.724499
      3          1           0        0.552079    0.968888   -1.447282
      4          6           0       -3.403724    0.513572    0.667902
      5          1           0       -3.983105    0.076456    1.483574
      6          1           0       -3.162083    1.544178    0.935770
      7          1           0       -4.046739    0.540671   -0.217978
      8          8           0        1.060679   -0.174686    1.475725
      9          7           0        0.608238   -1.064871   -1.091037
     10          1           0       -0.064050   -1.810014   -1.182515
     11          7           0        0.648695    1.960654    0.901888
     12          1           0        0.329039    2.588254    0.181145
     13          6           0        1.055435    2.497783    2.180385
     14          1           0        0.457407    2.079221    2.990484
     15          1           0        2.104485    2.279503    2.382674
     16          1           0        0.921001    3.574940    2.169003
     17          6           0        1.907707   -1.327043   -1.308021
     18          6           0        2.253601   -2.734153   -1.666978
     19          1           0        1.385825   -3.387413   -1.728491
     20          1           0        2.776184   -2.735829   -2.623240
     21          1           0        2.942912   -3.125712   -0.918872
     22          8           0        2.768564   -0.452010   -1.221038
     23          6           0       -2.147449   -0.291285    0.390539
     24          1           0       -1.526783   -0.240983    1.292774
     25          6           0       -2.488262   -1.748583    0.139126
     26          1           0       -3.075698   -1.851914   -0.778220
     27          1           0       -1.600849   -2.377954    0.042632
     28          1           0       -3.080621   -2.156855    0.960568
     29          6           0       -1.375355    0.345393   -0.769747
     30          1           0       -1.720393   -0.070122   -1.722308
     31          1           0       -1.614921    1.411455   -0.804135
 ---------------------------------------------------------------------
                    Distance matrix (angstroms):
                    1          2          3          4          5
     1  C    0.000000
     2  C    1.524816   0.000000
     3  H    2.125718   1.094368   0.000000
     4  C    4.081649   3.823913   4.508846   0.000000
     5  H    4.767102   4.687654   5.473047   1.091821   0.000000
     6  H    3.951197   3.921795   4.450269   1.091921   1.768721
     7  H    4.802804   4.235117   4.779507   1.094982   1.764886
     8  O    1.227511   2.420098   3.179686   4.588809   5.050039
     9  N    2.443975   1.443472   2.065488   4.656306   5.386249
    10  H    3.154555   2.124165   2.858673   4.469510   5.101548
    11  N    1.336333   2.410547   2.551771   4.309396   5.034097
    12  H    2.025653   2.510960   2.307351   4.298227   5.157522
    13  C    2.429972   3.781431   3.968735   5.109677   5.633405
    14  H    2.751401   4.150991   4.575540   4.770113   5.099019
    15  H    2.775294   4.193719   4.335463   6.033185   6.536096
    16  H    3.306105   4.472465   4.472709   5.507134   6.062958
    17  C    3.042429   2.435988   2.669910   5.958476   6.668169
    18  C    4.393482   3.774399   4.081171   6.928543   7.531401
    19  H    4.738376   3.974248   4.444274   6.625720   7.151305
    20  H    5.155872   4.409841   4.478219   7.718904   8.394216
    21  H    4.674155   4.389330   4.770854   7.486122   7.999709
    22  O    3.015620   2.758732   2.642526   6.526682   7.292410
    23  C    2.986743   2.609530   3.500439   1.517548   2.167854
    24  H    2.460560   2.668164   3.646006   2.117245   2.484087
    25  C    4.002212   3.421117   4.375501   2.497002   2.715302
    26  H    4.729248   3.850713   4.643849   2.791844   3.107686
    27  H    3.835512   3.251304   4.249270   3.464425   3.711548
    28  H    4.698461   4.367293   5.363256   2.705777   2.464892
    29  C    2.513092   1.526953   2.136072   2.491867   3.456898
    30  H    3.447851   2.142818   2.513824   2.981175   3.926707
    31  H    2.818673   2.110941   2.303344   2.484533   3.553045
                    6          7          8          9         10
     6  H    0.000000
     7  H    1.766572   0.000000
     8  O    4.591053   5.428267   0.000000
     9  N    5.013023   5.000881   2.754160   0.000000
    10  H    5.033443   4.724179   3.317462   1.007759   0.000000
    11  N    3.833618   5.031655   2.249155   3.623146   4.366999
    12  H    3.721221   4.847611   3.137686   3.878366   4.621563
    13  C    4.499543   5.967798   2.763813   4.857437   5.578482
    14  H    4.196287   5.740095   2.781821   5.154307   5.728175
    15  H    5.510987   6.901050   2.816936   5.048788   5.842710
    16  H    4.724027   6.291495   3.815736   5.679219   6.418779
    17  C    6.243499   6.334980   3.129637   1.343293   2.033922
    18  C    7.376181   7.246955   4.224987   2.413593   2.541701
    19  H    7.218195   6.871990   4.549103   2.530848   2.210976
    20  H    8.139289   7.941852   5.128735   3.136835   3.316587
    21  H    7.906866   7.923941   4.240926   3.118879   3.292778
    22  O    6.618849   6.959878   3.204108   2.249335   3.141554
    23  C    2.166953   2.160960   3.388703   3.222936   3.020197
    24  H    2.447133   3.040318   2.594769   3.304491   3.275439
    25  C    3.454121   2.792321   4.105926   3.401334   2.761759
    26  H    3.805084   2.642206   5.000298   3.780036   3.038953
    27  H    4.314889   3.816892   3.740572   2.808818   2.045799
    28  H    3.702012   3.098225   4.620037   4.359953   3.716558
    29  C    2.745591   2.734753   3.353638   2.454936   2.556497
    30  H    3.427800   2.836893   4.239423   2.609703   2.462128
    31  H    2.332080   2.648695   3.856480   3.340200   3.595307
                   11         12         13         14         15
    11  N    0.000000
    12  H    1.007736   0.000000
    13  C    1.445164   2.129037   0.000000
    14  H    2.100686   2.857968   1.090455   0.000000
    15  H    2.100885   2.845042   1.090446   1.767035   0.000000
    16  H    2.070181   2.296856   1.085573   1.768312   1.767610
    17  C    4.156653   4.476534   5.246393   5.673019   5.164022
    18  C    5.587129   5.953781   6.603859   6.934467   6.446601
    19  H    6.005337   6.361769   7.072765   7.281124   7.037904
    20  H    6.245774   6.496072   7.309342   7.750828   7.117858
    21  H    5.869388   6.379011   6.692657   6.967936   6.389015
    22  O    3.849884   4.142536   4.817237   5.430055   4.570438
    23  C    3.626448   3.803759   4.608787   4.377703   5.353176
    24  H    3.119728   3.561513   3.867369   3.493219   4.552674
    25  C    4.917392   5.171760   5.895435   5.608858   6.507865
    26  H    5.588340   5.676945   6.688757   6.491516   7.341264
    27  H    4.962085   5.329810   5.949676   5.726487   6.395092
    28  H    5.555639   5.894857   6.345122   5.880692   6.970580
    29  C    3.082241   2.973143   4.386890   4.528191   5.078172
    30  H    4.077135   3.858791   5.434185   5.618976   6.082870
    31  H    2.887229   2.476815   4.149490   4.374881   4.974258
                   16         17         18         19         20
    16  H    0.000000
    17  C    6.090379   0.000000
    18  C    7.503015   1.492800   0.000000
    19  H    7.992552   2.166629   1.087919   0.000000
    20  H    8.138372   2.113937   1.089740   1.777143   0.000000
    21  H    7.649956   2.111468   1.090014   1.774399   1.756325
    22  O    5.578727   1.230579   2.381644   3.284215   2.679936
    23  C    5.246524   4.516878   5.437851   5.153671   6.269037
    24  H    4.617433   4.442902   5.409929   5.245126   6.330478
    25  C    6.639531   4.647201   5.169006   4.602424   6.026584
    26  H    7.355982   5.038899   5.474456   4.813103   6.199188
    27  H    6.805742   3.903670   4.231599   3.616090   5.137447
    28  H    7.094136   5.542427   5.974211   5.356720   6.890650
    29  C    4.933505   3.723611   4.843341   4.741007   5.492235
    30  H    5.950272   3.861942   4.784637   4.544562   5.304421
    31  H    4.466667   4.490232   5.735506   5.734810   6.308004
                   21         22         23         24         25
    21  H    0.000000
    22  O    2.696365   0.000000
    23  C    5.971625   5.175925   0.000000
    24  H    5.761182   4.981344   1.096259   0.000000
    25  C    5.702061   5.582595   1.517590   2.127958   0.000000
    26  H    6.153536   6.025879   2.159446   3.046843   1.094204
    27  H    4.704189   4.939422   2.184948   2.476890   1.092209
    28  H    6.383880   6.471388   2.162428   2.489044   1.091944
    29  C    5.542404   4.244005   1.532237   2.149595   2.539557
    30  H    5.632810   4.532973   2.166890   3.026119   2.621410
    31  H    6.432176   4.781344   2.147127   2.671207   3.411496
                   26         27         28         29         30
    26  H    0.000000
    27  H    1.767964   0.000000
    28  H    1.765332   1.755339   0.000000
    29  C    2.778380   2.850864   3.487573   0.000000
    30  H    2.429596   2.907816   3.660942   1.095023   0.000000
    31  H    3.575489   3.882890   4.242086   1.093189   1.746206
                   31
    31  H    0.000000
 Stoichiometry    C9H18N2O2
 Framework group  C1[X(C9H18N2O2)]
 Deg. of freedom    87
 Full point group                 C1      NOp   1
 Largest Abelian subgroup         C1      NOp   1
 Largest concise Abelian subgroup C1      NOp   1
                         Standard orientation:                         
 ---------------------------------------------------------------------
 Center     Atomic      Atomic             Coordinates (Angstroms)
 Number     Number       Type             X           Y           Z
 ---------------------------------------------------------------------
      1          6           0       -0.041302    1.172114    0.157442
      2          6           0        0.198653   -0.000191   -0.787642
      3          1           0        0.538842    0.413883   -1.741820
      4          6           0       -3.414780   -1.099229   -0.189704
      5          1           0       -4.045405   -1.365392    0.660908
      6          1           0       -3.713731   -0.108726   -0.538741
      7          1           0       -3.623133   -1.813463   -0.993100
      8          8           0        0.281867    1.147485    1.341393
      9          7           0        1.234858   -0.866246   -0.277896
     10          1           0        0.994644   -1.803527    0.003846
     11          7           0       -0.667864    2.214819   -0.395705
     12          1           0       -0.900888    2.179342   -1.375487
     13          6           0       -1.026760    3.382465    0.376497
     14          1           0       -1.678040    3.117259    1.209919
     15          1           0       -0.141059    3.875095    0.778892
     16          1           0       -1.551391    4.082513   -0.266282
     17          6           0        2.508804   -0.455876   -0.163470
     18          6           0        3.480759   -1.443819    0.391259
     19          1           0        3.029657   -2.406186    0.623475
     20          1           0        4.287506   -1.586408   -0.327323
     21          1           0        3.921821   -1.028346    1.297337
     22          8           0        2.858582    0.673966   -0.503229
     23          6           0       -1.944032   -1.129972    0.182998
     24          1           0       -1.790622   -0.364663    0.952772
     25          6           0       -1.569606   -2.474044    0.779953
     26          1           0       -1.668851   -3.266482    0.031973
     27          1           0       -0.545456   -2.495878    1.158849
     28          1           0       -2.224478   -2.723804    1.617273
     29          6           0       -1.096365   -0.768468   -1.041146
     30          1           0       -0.858236   -1.671946   -1.612197
     31          1           0       -1.695962   -0.142774   -1.707520
 ---------------------------------------------------------------------
 Rotational constants (GHZ):      0.8695830      0.6149049      0.4133909
 Leave Link  202 at Wed Jun 18 15:55:53 2014, MaxMem=  4294967296 cpu:         1.8
 (Enter /home/ztw1e12/g09/l301.exe)
 Standard basis: CC-pVTZ (5D, 7F)
 Converting basis for Fermi contact spin-spin IFCMod=1.
 AO basis functions are being uncontracted.
 Ernie: Thresh=  0.10000D-02 Tol=  0.10000D-05 Strict=F.
 There are  1119 symmetry adapted cartesian basis functions of A   symmetry.
 There are  1036 symmetry adapted basis functions of A   symmetry.
  1036 basis functions,  1119 primitive gaussians,  1119 cartesian basis functions
    51 alpha electrons       51 beta electrons
       nuclear repulsion energy       874.4038600518 Hartrees.
 IExCor= 4235 DFT=T Ex+Corr=M06 ExCW=0 ScaHFX=  0.270000
 ScaDFX=  1.000000  1.000000  1.000000  1.000000 ScalE2=  1.000000  1.000000
 IRadAn= 199590 IRanWt=     -1 IRanGd=            0 ICorTp=0 IEmpDi=  4
 NAtoms=   31 NActive=   31 NUniq=   31 SFac= 1.00D+00 NAtFMM=   60 NAOKFM=F Big=F
 Integral buffers will be    131072 words long.
 Raffenetti 2 integral format.
 Two-electron integral symmetry is turned on.
 Leave Link  301 at Wed Jun 18 15:55:53 2014, MaxMem=  4294967296 cpu:         5.1
 (Enter /home/ztw1e12/g09/l302.exe)
 NPDir=0 NMtPBC=     1 NCelOv=     1 NCel=       1 NClECP=     1 NCelD=      1
         NCelK=      1 NCelE2=     1 NClLst=     1 CellRange=     0.0.
 One-electron integrals computed using PRISM.
 GSVD:  received Info=                   1 from GESDD.
 NBasis=  1036 RedAO= T EigKep=  1.05D-04  NBF=  1036
 NBsUse=   932 1.00D-06 EigRej=  6.12D-15 NBFU=   932
 Precomputing XC quadrature grid using
 IXCGrd= 4 IRadAn=      199590 IRanWt=          -1 IRanGd=           0 AccXCQ= 0.00D+00.
 Generated NRdTot=       0 NPtTot=           0 NUsed=           0 NTot=          32
 NSgBfM=   880   881   881   881   881 MxSgAt=    31 MxSgA2=    31.
 Leave Link  302 at Wed Jun 18 15:55:58 2014, MaxMem=  4294967296 cpu:        64.9
 (Enter /home/ztw1e12/g09/l308.exe)
 Leave Link  308 at Wed Jun 18 15:55:58 2014, MaxMem=  4294967296 cpu:         5.8
 (Enter /home/ztw1e12/g09/l303.exe)
 DipDrv:  MaxL=1.
 Leave Link  303 at Wed Jun 18 15:55:59 2014, MaxMem=  4294967296 cpu:         3.5
 (Enter /home/ztw1e12/g09/l401.exe)
 ExpMin= 1.03D-01 ExpMax= 1.38D+05 ExpMxC= 1.38D+05 IAcc=4 IRadAn=    199590 AccDes= 0.00D+00
 Harris functional with IExCor= 1009 and IRadAn=  199590 diagonalized for initial guess.
 HarFok:  IExCor= 1009 AccDes= 0.00D+00 IRadAn=    199590 IDoV= 1 UseB2=F ITyADJ=14
 ICtDFT=  3500011 ScaDFX=  1.000000  1.000000  1.000000  1.000000
 FoFCou: FMM=F IPFlag=           0 FMFlag=      100000 FMFlg1=           0
         NFxFlg=           0 DoJE=T BraDBF=F KetDBF=T FulRan=T
         wScrn=  0.000000 ICntrl=     500 IOpCl=  0 I1Cent=   200000004 NGrid=           0
         NMat0=    1 NMatS0=      1 NMatT0=    0 NMatD0=    1 NMtDS0=    0 NMtDT0=    0
 Petite list used in FoFCou.
 Harris En= -613.563712731982    
 JPrj=0 DoOrth=F DoCkMO=F.
 Leave Link  401 at Wed Jun 18 15:56:17 2014, MaxMem=  4294967296 cpu:       270.9
 (Enter /home/ztw1e12/g09/l502.exe)
 Closed shell SCF:
 Using DIIS extrapolation, IDIIS=  1040.
 Integral symmetry usage will be decided dynamically.
 IVT=     3801329 IEndB=     3801329 NGot=  4294967296 MDV=  4292435888
 LenX=  4292435888 LenY=  4291182608
 Requested convergence on RMS density matrix=1.00D-08 within 128 cycles.
 Requested convergence on MAX density matrix=1.00D-06.
 Requested convergence on             energy=1.00D-06.
 No special actions if energy rises.
 Fock matrices will be formed incrementally for  20 cycles.
 Integral accuracy reduced to 1.0D-05 until final iterations.

 Cycle   1  Pass 0  IDiag  1:
 FoFJK:  IHMeth= 1 ICntrl=       0 DoSepK=F KAlg= 0 I1Cent=   0 FoldK=F
 IRaf= 480000000 NMat=   1 IRICut=       1 DoRegI=T DoRafI=F ISym2E= 0.
 FoFCou: FMM=F IPFlag=           0 FMFlag=      100000 FMFlg1=           0
         NFxFlg=           0 DoJE=F BraDBF=F KetDBF=F FulRan=T
         wScrn=  0.000000 ICntrl=       0 IOpCl=  0 I1Cent=           0 NGrid=           0
         NMat0=    1 NMatS0=      1 NMatT0=    0 NMatD0=    1 NMtDS0=    0 NMtDT0=    0
 Symmetry not used in FoFCou.
 E= -613.179747418064    
 DIIS: error= 1.34D-01 at cycle   1 NSaved=   1.
 NSaved= 1 IEnMin= 1 EnMin= -613.179747418064     IErMin= 1 ErrMin= 1.34D-01
 ErrMax= 1.34D-01  0.00D+00 EMaxC= 1.00D-01 BMatC= 1.30D+01 BMatP= 1.30D+01
 IDIUse=3 WtCom= 0.00D+00 WtEn= 1.00D+00
 Coeff-Com:  0.100D+01
 Coeff-En:   0.100D+01
 Coeff:      0.100D+01
 Gap=     0.294 Goal=   None    Shift=    0.000
 GapD=    0.294 DampG=1.000 DampE=0.250 DampFc=0.2500 IDamp=-1.
 Damping current iteration by 2.50D-01
 RMSDP=2.19D-03 MaxDP=3.18D-01              OVMax= 2.88D-01

 Cycle   2  Pass 0  IDiag  1:
 RMSU=  5.48D-04    CP:  1.01D+00
 E= -613.337449442735     Delta-E=       -0.157702024672 Rises=F Damp=T
 DIIS: error= 1.02D-01 at cycle   2 NSaved=   2.
 NSaved= 2 IEnMin= 2 EnMin= -613.337449442735     IErMin= 2 ErrMin= 1.02D-01
 ErrMax= 1.02D-01  0.00D+00 EMaxC= 1.00D-01 BMatC= 7.66D+00 BMatP= 1.30D+01
 IDIUse=3 WtCom= 0.00D+00 WtEn= 1.00D+00
 Coeff-Com: -0.279D+01 0.379D+01
 Coeff-En:   0.000D+00 0.100D+01
 Coeff:      0.000D+00 0.100D+01
 Gap=     0.218 Goal=   None    Shift=    0.000
 RMSDP=5.96D-04 MaxDP=4.95D-02 DE=-1.58D-01 OVMax= 1.36D-01

 Cycle   3  Pass 0  IDiag  1:
 RMSU=  4.55D-04    CP:  1.03D+00  1.70D+00
 E= -613.528516043276     Delta-E=       -0.191066600541 Rises=F Damp=F
 DIIS: error= 1.32D-02 at cycle   3 NSaved=   3.
 NSaved= 3 IEnMin= 3 EnMin= -613.528516043276     IErMin= 3 ErrMin= 1.32D-02
 ErrMax= 1.32D-02  0.00D+00 EMaxC= 1.00D-01 BMatC= 2.31D-01 BMatP= 7.66D+00
 IDIUse=3 WtCom= 8.68D-01 WtEn= 1.32D-01
 Coeff-Com:  0.120D+01-0.165D+01 0.144D+01
 Coeff-En:   0.137D+00 0.000D+00 0.863D+00
 Coeff:      0.106D+01-0.143D+01 0.137D+01
 Gap=     0.246 Goal=   None    Shift=    0.000
 RMSDP=4.21D-04 MaxDP=3.52D-02 DE=-1.91D-01 OVMax= 6.71D-02

 Cycle   4  Pass 0  IDiag  1:
 RMSU=  2.77D-04    CP:  1.03D+00  1.17D+00  7.16D-01
 E= -613.541110277264     Delta-E=       -0.012594233988 Rises=F Damp=F
 DIIS: error= 8.86D-03 at cycle   4 NSaved=   4.
 NSaved= 4 IEnMin= 4 EnMin= -613.541110277264     IErMin= 4 ErrMin= 8.86D-03
 ErrMax= 8.86D-03  0.00D+00 EMaxC= 1.00D-01 BMatC= 1.07D-01 BMatP= 2.31D-01
 IDIUse=3 WtCom= 9.11D-01 WtEn= 8.86D-02
 Coeff-Com:  0.760D+00-0.105D+01 0.750D+00 0.535D+00
 Coeff-En:   0.000D+00 0.000D+00 0.454D+00 0.546D+00
 Coeff:      0.693D+00-0.953D+00 0.724D+00 0.536D+00
 Gap=     0.281 Goal=   None    Shift=    0.000
 RMSDP=2.81D-04 MaxDP=2.07D-02 DE=-1.26D-02 OVMax= 7.60D-02

 Cycle   5  Pass 0  IDiag  1:
 RMSU=  8.64D-05    CP:  1.02D+00  1.09D+00  8.59D-01  7.76D-02
 E= -613.615388402235     Delta-E=       -0.074278124971 Rises=F Damp=F
 DIIS: error= 3.32D-03 at cycle   5 NSaved=   5.
 NSaved= 5 IEnMin= 5 EnMin= -613.615388402235     IErMin= 5 ErrMin= 3.32D-03
 ErrMax= 3.32D-03  0.00D+00 EMaxC= 1.00D-01 BMatC= 1.42D-02 BMatP= 1.07D-01
 IDIUse=3 WtCom= 9.67D-01 WtEn= 3.32D-02
 Coeff-Com:  0.133D+00-0.191D+00 0.134D+00 0.270D+00 0.653D+00
 Coeff-En:   0.000D+00 0.000D+00 0.000D+00 0.759D-01 0.924D+00
 Coeff:      0.129D+00-0.184D+00 0.130D+00 0.263D+00 0.662D+00
 Gap=     0.270 Goal=   None    Shift=    0.000
 RMSDP=1.53D-04 MaxDP=1.30D-02 DE=-7.43D-02 OVMax= 2.89D-02

 Cycle   6  Pass 0  IDiag  1:
 RMSU=  8.09D-05    CP:  1.03D+00  1.15D+00  9.43D-01  4.70D-01  3.97D-01
 E= -613.623281863888     Delta-E=       -0.007893461653 Rises=F Damp=F
 DIIS: error= 1.09D-03 at cycle   6 NSaved=   6.
 NSaved= 6 IEnMin= 6 EnMin= -613.623281863888     IErMin= 6 ErrMin= 1.09D-03
 ErrMax= 1.09D-03  0.00D+00 EMaxC= 1.00D-01 BMatC= 1.10D-03 BMatP= 1.42D-02
 IDIUse=3 WtCom= 9.89D-01 WtEn= 1.09D-02
 Coeff-Com:  0.584D-01-0.793D-01 0.192D-01 0.431D-01 0.203D+00 0.755D+00
 Coeff-En:   0.000D+00 0.000D+00 0.000D+00 0.000D+00 0.182D-01 0.982D+00
 Coeff:      0.577D-01-0.784D-01 0.190D-01 0.426D-01 0.201D+00 0.758D+00
 Gap=     0.268 Goal=   None    Shift=    0.000
 RMSDP=3.23D-05 MaxDP=3.01D-03 DE=-7.89D-03 OVMax= 9.35D-03

 Cycle   7  Pass 0  IDiag  1:
 RMSU=  2.25D-05    CP:  1.03D+00  1.11D+00  9.43D-01  4.64D-01  5.30D-01
                    CP:  1.10D+00
 E= -613.623873955987     Delta-E=       -0.000592092099 Rises=F Damp=F
 DIIS: error= 4.09D-04 at cycle   7 NSaved=   7.
 NSaved= 7 IEnMin= 7 EnMin= -613.623873955987     IErMin= 7 ErrMin= 4.09D-04
 ErrMax= 4.09D-04  0.00D+00 EMaxC= 1.00D-01 BMatC= 2.58D-04 BMatP= 1.10D-03
 IDIUse=3 WtCom= 9.96D-01 WtEn= 4.09D-03
 Coeff-Com:  0.398D-01-0.534D-01 0.125D-01 0.796D-02 0.613D-01 0.429D+00
 Coeff-Com:  0.503D+00
 Coeff-En:   0.000D+00 0.000D+00 0.000D+00 0.000D+00 0.000D+00 0.129D+00
 Coeff-En:   0.871D+00
 Coeff:      0.397D-01-0.532D-01 0.125D-01 0.792D-02 0.610D-01 0.428D+00
 Coeff:      0.504D+00
 Gap=     0.269 Goal=   None    Shift=    0.000
 RMSDP=1.21D-05 MaxDP=1.04D-03 DE=-5.92D-04 OVMax= 3.29D-03

 Cycle   8  Pass 0  IDiag  1:
 RMSU=  7.34D-06    CP:  1.03D+00  1.11D+00  9.48D-01  4.76D-01  5.23D-01
                    CP:  1.15D+00  6.62D-01
 E= -613.624048071757     Delta-E=       -0.000174115770 Rises=F Damp=F
 DIIS: error= 1.53D-04 at cycle   8 NSaved=   8.
 NSaved= 8 IEnMin= 8 EnMin= -613.624048071757     IErMin= 8 ErrMin= 1.53D-04
 ErrMax= 1.53D-04  0.00D+00 EMaxC= 1.00D-01 BMatC= 2.93D-05 BMatP= 2.58D-04
 IDIUse=3 WtCom= 9.98D-01 WtEn= 1.53D-03
 Coeff-Com:  0.220D-01-0.294D-01 0.849D-02-0.294D-02 0.429D-02 0.173D+00
 Coeff-Com:  0.297D+00 0.528D+00
 Coeff-En:   0.000D+00 0.000D+00 0.000D+00 0.000D+00 0.000D+00 0.000D+00
 Coeff-En:   0.000D+00 0.100D+01
 Coeff:      0.220D-01-0.294D-01 0.847D-02-0.293D-02 0.428D-02 0.173D+00
 Coeff:      0.297D+00 0.528D+00
 Gap=     0.268 Goal=   None    Shift=    0.000
 RMSDP=5.75D-06 MaxDP=5.50D-04 DE=-1.74D-04 OVMax= 1.20D-03

 Initial convergence to 1.0D-05 achieved.  Increase integral accuracy.
 Cycle   9  Pass 1  IDiag  1:
 E= -613.624027592221     Delta-E=        0.000020479536 Rises=F Damp=F
 DIIS: error= 6.82D-05 at cycle   1 NSaved=   1.
 NSaved= 1 IEnMin= 1 EnMin= -613.624027592221     IErMin= 1 ErrMin= 6.82D-05
 ErrMax= 6.82D-05  0.00D+00 EMaxC= 1.00D-01 BMatC= 1.19D-05 BMatP= 1.19D-05
 IDIUse=1 WtCom= 1.00D+00 WtEn= 0.00D+00
 Coeff-Com:  0.100D+01
 Coeff:      0.100D+01
 Gap=     0.269 Goal=   None    Shift=    0.000
 RMSDP=5.75D-06 MaxDP=5.50D-04 DE= 2.05D-05 OVMax= 1.33D-03

 Cycle  10  Pass 1  IDiag  1:
 RMSU=  2.42D-05    CP:  1.00D+00
 E= -613.624024688336     Delta-E=        0.000002903885 Rises=F Damp=F
 DIIS: error= 9.94D-05 at cycle   2 NSaved=   2.
 NSaved= 2 IEnMin= 1 EnMin= -613.624027592221     IErMin= 1 ErrMin= 6.82D-05
 ErrMax= 9.94D-05  0.00D+00 EMaxC= 1.00D-01 BMatC= 1.29D-05 BMatP= 1.19D-05
 IDIUse=1 WtCom= 1.00D+00 WtEn= 0.00D+00
 Coeff-Com:  0.513D+00 0.487D+00
 Coeff:      0.513D+00 0.487D+00
 Gap=     0.268 Goal=   None    Shift=    0.000
 RMSDP=4.05D-06 MaxDP=4.76D-04 DE= 2.90D-06 OVMax= 1.27D-03

 Cycle  11  Pass 1  IDiag  1:
 RMSU=  4.01D-06    CP:  1.00D+00  9.84D-01
 E= -613.624031621864     Delta-E=       -0.000006933528 Rises=F Damp=F
 DIIS: error= 5.53D-05 at cycle   3 NSaved=   3.
 NSaved= 3 IEnMin= 3 EnMin= -613.624031621864     IErMin= 3 ErrMin= 5.53D-05
 ErrMax= 5.53D-05  0.00D+00 EMaxC= 1.00D-01 BMatC= 3.19D-06 BMatP= 1.19D-05
 IDIUse=1 WtCom= 1.00D+00 WtEn= 0.00D+00
 Coeff-Com:  0.596D-01 0.329D+00 0.612D+00
 Coeff:      0.596D-01 0.329D+00 0.612D+00
 Gap=     0.269 Goal=   None    Shift=    0.000
 RMSDP=1.39D-06 MaxDP=1.58D-04 DE=-6.93D-06 OVMax= 4.39D-04

 Cycle  12  Pass 1  IDiag  1:
 RMSU=  4.71D-07    CP:  1.00D+00  1.00D+00  6.94D-01
 E= -613.624033811663     Delta-E=       -0.000002189799 Rises=F Damp=F
 DIIS: error= 9.49D-06 at cycle   4 NSaved=   4.
 NSaved= 4 IEnMin= 4 EnMin= -613.624033811663     IErMin= 4 ErrMin= 9.49D-06
 ErrMax= 9.49D-06  0.00D+00 EMaxC= 1.00D-01 BMatC= 1.11D-07 BMatP= 3.19D-06
 IDIUse=1 WtCom= 1.00D+00 WtEn= 0.00D+00
 Coeff-Com:  0.751D-02 0.144D+00 0.307D+00 0.542D+00
 Coeff:      0.751D-02 0.144D+00 0.307D+00 0.542D+00
 Gap=     0.269 Goal=   None    Shift=    0.000
 RMSDP=2.43D-07 MaxDP=2.16D-05 DE=-2.19D-06 OVMax= 5.68D-05

 Cycle  13  Pass 1  IDiag  1:
 RMSU=  1.95D-07    CP:  1.00D+00  1.00D+00  7.04D-01  7.15D-01
 E= -613.624033886712     Delta-E=       -0.000000075049 Rises=F Damp=F
 DIIS: error= 2.20D-06 at cycle   5 NSaved=   5.
 NSaved= 5 IEnMin= 5 EnMin= -613.624033886712     IErMin= 5 ErrMin= 2.20D-06
 ErrMax= 2.20D-06  0.00D+00 EMaxC= 1.00D-01 BMatC= 7.76D-09 BMatP= 1.11D-07
 IDIUse=1 WtCom= 1.00D+00 WtEn= 0.00D+00
 Coeff-Com: -0.184D-02 0.399D-01 0.926D-01 0.264D+00 0.606D+00
 Coeff:     -0.184D-02 0.399D-01 0.926D-01 0.264D+00 0.606D+00
 Gap=     0.269 Goal=   None    Shift=    0.000
 RMSDP=7.49D-08 MaxDP=6.24D-06 DE=-7.50D-08 OVMax= 1.75D-05

 Cycle  14  Pass 1  IDiag  1:
 RMSU=  4.27D-08    CP:  1.00D+00  1.00D+00  7.08D-01  8.34D-01  9.03D-01
 E= -613.624033891910     Delta-E=       -0.000000005198 Rises=F Damp=F
 DIIS: error= 6.08D-07 at cycle   6 NSaved=   6.
 NSaved= 6 IEnMin= 6 EnMin= -613.624033891910     IErMin= 6 ErrMin= 6.08D-07
 ErrMax= 6.08D-07  0.00D+00 EMaxC= 1.00D-01 BMatC= 4.09D-10 BMatP= 7.76D-09
 IDIUse=1 WtCom= 1.00D+00 WtEn= 0.00D+00
 Coeff-Com: -0.116D-02 0.124D-01 0.297D-01 0.101D+00 0.285D+00 0.574D+00
 Coeff:     -0.116D-02 0.124D-01 0.297D-01 0.101D+00 0.285D+00 0.574D+00
 Gap=     0.269 Goal=   None    Shift=    0.000
 RMSDP=2.22D-08 MaxDP=2.26D-06 DE=-5.20D-09 OVMax= 7.89D-06

 Cycle  15  Pass 1  IDiag  1:
 RMSU=  2.04D-08    CP:  1.00D+00  1.00D+00  7.08D-01  8.39D-01  9.24D-01
                    CP:  8.39D-01
 E= -613.624033892079     Delta-E=       -0.000000000169 Rises=F Damp=F
 DIIS: error= 4.67D-07 at cycle   7 NSaved=   7.
 NSaved= 7 IEnMin= 7 EnMin= -613.624033892079     IErMin= 7 ErrMin= 4.67D-07
 ErrMax= 4.67D-07  0.00D+00 EMaxC= 1.00D-01 BMatC= 1.36D-10 BMatP= 4.09D-10
 IDIUse=1 WtCom= 1.00D+00 WtEn= 0.00D+00
 Coeff-Com: -0.393D-03-0.180D-04 0.497D-03 0.107D-01 0.576D-01 0.377D+00
 Coeff-Com:  0.555D+00
 Coeff:     -0.393D-03-0.180D-04 0.497D-03 0.107D-01 0.576D-01 0.377D+00
 Coeff:      0.555D+00
 Gap=     0.269 Goal=   None    Shift=    0.000
 RMSDP=1.50D-08 MaxDP=1.87D-06 DE=-1.69D-10 OVMax= 3.03D-06

 Cycle  16  Pass 1  IDiag  1:
 RMSU=  6.75D-09    CP:  1.00D+00  1.00D+00  7.08D-01  8.54D-01  9.53D-01
                    CP:  1.02D+00  7.57D-01
 E= -613.624033892232     Delta-E=       -0.000000000153 Rises=F Damp=F
 DIIS: error= 1.09D-07 at cycle   8 NSaved=   8.
 NSaved= 8 IEnMin= 8 EnMin= -613.624033892232     IErMin= 8 ErrMin= 1.09D-07
 ErrMax= 1.09D-07  0.00D+00 EMaxC= 1.00D-01 BMatC= 1.14D-11 BMatP= 1.36D-10
 IDIUse=1 WtCom= 1.00D+00 WtEn= 0.00D+00
 Coeff-Com: -0.450D-04-0.169D-02-0.374D-02-0.810D-02-0.866D-02 0.127D+00
 Coeff-Com:  0.294D+00 0.600D+00
 Coeff:     -0.450D-04-0.169D-02-0.374D-02-0.810D-02-0.866D-02 0.127D+00
 Coeff:      0.294D+00 0.600D+00
 Gap=     0.269 Goal=   None    Shift=    0.000
 RMSDP=3.48D-09 MaxDP=3.76D-07 DE=-1.53D-10 OVMax= 6.05D-07

 SCF Done:  E(RM06) =  -613.624033892     A.U. after   16 cycles
            NFock= 16  Conv=0.35D-08     -V/T= 2.0046
 KE= 6.108063011312D+02 PE=-3.180243731994D+03 EE= 1.081409536919D+03
 Leave Link  502 at Wed Jun 18 16:24:35 2014, MaxMem=  4294967296 cpu:     27100.6
 (Enter /home/ztw1e12/g09/l801.exe)
 DoSCS=F DFT=T ScalE2(SS,OS)=  1.000000  1.000000
 Range of M.O.s used for correlation:     1   932
 NBasis=  1036 NAE=    51 NBE=    51 NFC=     0 NFV=     0
 NROrb=    932 NOA=    51 NOB=    51 NVA=   881 NVB=   881

 **** Warning!!: The largest alpha MO coefficient is  0.11878802D+02

 Leave Link  801 at Wed Jun 18 16:24:35 2014, MaxMem=  4294967296 cpu:         0.3
 (Enter /home/ztw1e12/g09/l1002.exe)
 Minotr:  Closed shell wavefunction.
          IDoAtm=1111111111111111111111111111111
          Direct CPHF calculation.
          Differentiating once with respect to Fermi-contact.
          Electric field/nuclear overlap derivatives assumed to be zero.
          Requested convergence is 1.0D-10 RMS, and 1.0D-09 maximum.
          Secondary convergence is 1.0D-12 RMS, and 1.0D-12 maximum.
          NewPWx=T KeepS1=F KeepF1=F KeepIn=T MapXYZ=F SortEE=F KeepMc=T.
          MDV=    4294966050 using IRadAn=  199590.
 Using stored XC quadrature information.
          Solving linear equations simultaneously, MaxMat=       0.
          There are    31 degrees of freedom in the 1st order CPHF.  IDoFFX=0 NUNeed=    31.
     31 vectors produced by pass  0 Test12= 1.45D-17 3.23D-11 XBig12= 4.16D+01 2.56D+00.
 AX will form    31 AO Fock derivatives at one time.
 FoFJK:  IHMeth= 1 ICntrl=       0 DoSepK=F KAlg= 0 I1Cent=   0 FoldK=F
 IRaf= 500000000 NMat=  31 IRICut=       1 DoRegI=T DoRafI=F ISym2E=-1.
 FoFCou: FMM=F IPFlag=           0 FMFlag=      100000 FMFlg1=           0
         NFxFlg=           0 DoJE=F BraDBF=F KetDBF=F FulRan=T
         wScrn=  0.000000 ICntrl=       0 IOpCl=  0 I1Cent=           0 NGrid=           0
         NMat0=   31 NMatS0=      0 NMatT0=   31 NMatD0=   31 NMtDS0=    0 NMtDT0=    0
 Petite list used in FoFCou.
     31 vectors produced by pass  1 Test12= 1.45D-17 3.23D-11 XBig12= 3.43D-01 1.76D-01.
     31 vectors produced by pass  2 Test12= 1.45D-17 3.23D-11 XBig12= 1.65D-02 4.18D-02.
     31 vectors produced by pass  3 Test12= 1.45D-17 3.23D-11 XBig12= 3.60D-04 6.21D-03.
     31 vectors produced by pass  4 Test12= 1.45D-17 3.23D-11 XBig12= 4.98D-06 8.88D-04.
     31 vectors produced by pass  5 Test12= 1.45D-17 3.23D-11 XBig12= 1.04D-07 1.49D-04.
     31 vectors produced by pass  6 Test12= 1.45D-17 3.23D-11 XBig12= 3.13D-09 1.63D-05.
     31 vectors produced by pass  7 Test12= 1.45D-17 3.23D-11 XBig12= 8.78D-11 3.92D-06.
     31 vectors produced by pass  8 Test12= 1.45D-17 3.23D-11 XBig12= 1.84D-12 3.16D-07.
     31 vectors produced by pass  9 Test12= 1.45D-17 3.23D-11 XBig12= 5.19D-14 7.61D-08.
     31 vectors produced by pass 10 Test12= 1.45D-17 3.23D-11 XBig12= 2.04D-15 7.73D-09.
     30 vectors produced by pass 11 Test12= 1.45D-17 3.23D-11 XBig12= 2.08D-17 6.26D-10.
      3 vectors produced by pass 12 Test12= 1.45D-17 3.23D-11 XBig12= 1.70D-19 3.59D-11.
 InvSVY:  IOpt=1 It=  1 EMax= 9.77D-15
 Solved reduced A of dimension   374 with    31 vectors.
 Max diff in FC couplings:  IJMax=    22    17 Diff= 3.19D-04 IJMaxR=    25    20 DiffR= 4.78D-01
 Fermi Contact (FC) contribution to K (Hz):
                1             2             3             4             5 
      1  0.123400D+11
      2  0.276713D+02  0.123400D+11
      3 -0.948854D+00  0.190735D+02  0.123400D+11
      4 -0.626964D-01  0.198262D+01 -0.209195D-01  0.123400D+11
      5 -0.260318D-02  0.148739D+00 -0.279904D-02  0.175196D+02  0.123400D+11
      6  0.393622D-02 -0.486302D-02 -0.114905D-02  0.175552D+02 -0.759449D+00
      7 -0.239028D-02 -0.281268D-01 -0.121676D-02  0.168606D+02 -0.758058D+00
      8 -0.972303D+01  0.253538D+01  0.346790D+00 -0.833831D-02  0.612233D-02
      9  0.323902D+00  0.189637D+02 -0.641692D+00  0.119365D+00 -0.542869D-02
     10  0.981689D-01  0.290042D+00  0.139911D+00  0.656839D-02  0.814738D-03
     11  0.290155D+02  0.136871D+02  0.723388D-01  0.217716D-01  0.800927D-03
     12  0.472833D+00  0.109918D+00 -0.210527D-01 -0.306072D-02 -0.113506D-03
     13 -0.382736D+00  0.111294D+01 -0.149621D-01 -0.753017D-02 -0.343836D-03
     14  0.190424D+00 -0.829863D-01  0.171961D-01  0.144197D-02  0.173002D-03
     15  0.193673D+00 -0.831292D-01  0.130821D-01  0.152851D-02  0.187017D-03
     16  0.960362D+00 -0.243040D-01  0.826171D-04  0.198024D-03  0.164919D-04
     17  0.112837D+00 -0.457348D+00  0.259526D+00  0.726553D-01  0.400628D-02
     18 -0.159388D+00  0.880436D+00 -0.811205D-01  0.236184D-02 -0.431197D-04
     19 -0.196884D-02  0.103046D+00 -0.178151D-02  0.142179D-02  0.167470D-04
     20  0.573959D-01  0.183044D-01  0.193485D-01  0.147848D-02  0.706178D-04
     21  0.705251D-01  0.377483D-01  0.253851D-01 -0.416385D-03 -0.751956D-04
     22  0.503092D+00  0.716620D+00  0.237556D+00  0.158549D-01  0.396081D-02
     23  0.996291D+00 -0.289669D+00  0.101970D+01  0.171633D+02 -0.528493D+00
     24 -0.585884D-01  0.703668D+00 -0.121319D-01 -0.835881D+00  0.120577D+00
     25 -0.500219D-01  0.921851D-03  0.937481D-02  0.455477D-01  0.339422D+00
     26  0.336141D-02 -0.454840D-02  0.874133D-03  0.344216D+00 -0.348004D-02
     27  0.295288D-02  0.774664D-03  0.509541D-02  0.144558D+01  0.691705D-03
     28 -0.102951D-02 -0.271180D-01  0.108701D-01  0.386975D+00 -0.962993D-02
     29 -0.476162D+00  0.163543D+02 -0.777180D+00  0.203450D+00  0.144540D+01
     30  0.944190D+00 -0.860834D+00  0.784748D-01  0.648531D-02 -0.191384D-01
     31  0.692117D-01 -0.518239D+00  0.222911D+00  0.913323D+00  0.360975D-01
                6             7             8             9            10 
      6  0.123400D+11
      7 -0.748214D+00  0.123400D+11
      8  0.636967D-02  0.561500D-01  0.123400D+11
      9  0.379267D-02  0.378663D-02  0.557500D+00  0.123400D+11
     10 -0.886720D-04  0.335776D-03 -0.232064D-02  0.317528D+02  0.123400D+11
     11  0.859019D-02 -0.205994D-02  0.636572D+01  0.105205D+01  0.187485D+00
     12  0.466342D-03  0.229275D-03  0.466329D+00  0.520676D-01  0.177570D-03
     13 -0.753388D-03  0.342814D-03  0.605046D+00  0.324288D+00  0.156813D-01
     14  0.385060D-03 -0.493142D-04  0.247201D+00 -0.706360D-02 -0.105715D-02
     15  0.382500D-03 -0.864640D-04  0.236252D+00 -0.519141D-02 -0.113335D-02
     16  0.928863D-05  0.149852D-04  0.178386D+00  0.252841D-01 -0.776751D-03
     17  0.130145D-02  0.362190D-03  0.594267D-01  0.265976D+02  0.417722D+00
     18  0.102693D-03  0.170288D-03  0.862309D-01  0.126908D+02  0.941181D-01
     19  0.603622D-04 -0.240618D-04 -0.463839D-03  0.342793D+00 -0.953467D-02
     20 -0.201983D-04 -0.133228D-04  0.536690D-02  0.382253D+00 -0.104282D-01
     21 -0.300486D-04  0.254238D-04  0.334996D-02  0.354842D+00 -0.127937D-01
     22  0.208795D-03 -0.854290D-03  0.824531D+00  0.591238D+01  0.438768D+00
     23 -0.560629D+00 -0.797964D+00  0.622175D+00  0.183826D-01 -0.154604D-02
     24  0.167223D+00  0.422684D+00  0.109447D+00 -0.157887D-01  0.169556D-02
     25  0.130257D+01  0.355908D+00 -0.203398D-01  0.549001D+00 -0.619697D-01
     26 -0.103547D-01 -0.102545D-01  0.256770D-01 -0.242309D-01  0.545551D-02
     27  0.758102D-01 -0.112902D-01  0.221854D-01  0.342808D+00 -0.363968D-01
     28  0.121924D-01 -0.491564D-02  0.369853D-02  0.717202D-01 -0.117358D-01
     29  0.344581D+00  0.427384D+00  0.224324D+00  0.644636D+00  0.512489D+00
     30 -0.432720D-02 -0.461140D-02  0.845798D-01  0.823619D+00 -0.228816D-01
     31 -0.148212D-01 -0.529102D-02 -0.184941D-01  0.191313D+01 -0.223764D-01
               11            12            13            14            15 
     11  0.123400D+11
     12  0.312645D+02  0.123400D+11
     13  0.172254D+02  0.333725D+00  0.123400D+11
     14 -0.576422D+00  0.116017D+00  0.198445D+02  0.123400D+11
     15 -0.559277D+00  0.966794D-01  0.202082D+02 -0.732974D+00  0.123400D+11
     16 -0.401590D+00  0.290771D+00  0.182007D+02 -0.747153D+00 -0.750710D+00
     17 -0.750373D-01  0.471368D-03 -0.114913D-01  0.798013D-03  0.661535D-03
     18  0.171846D-01  0.109554D-02  0.137879D-01  0.830068D-03  0.779724D-03
     19  0.555021D-02  0.302861D-04 -0.596219D-04 -0.321630D-04 -0.188037D-04
     20 -0.263107D-02 -0.124896D-03 -0.359327D-03  0.380253D-04 -0.325660D-04
     21  0.148497D-01 -0.224943D-04  0.248994D-02  0.887789D-04 -0.555303D-04
     22  0.145059D+00 -0.111237D-02  0.128712D-01  0.376787D-02  0.195872D-02
     23 -0.131358D+00  0.525562D-02  0.208041D-01 -0.178436D-02 -0.445853D-02
     24  0.336948D-01 -0.550624D-04  0.760582D-02  0.250871D-02 -0.334173D-03
     25  0.367112D-02 -0.406609D-03  0.779327D-03  0.117304D-03 -0.263725D-03
     26  0.531126D-02 -0.315294D-03  0.594069D-03  0.654161D-03  0.321294D-03
     27  0.134617D-02  0.138388D-03  0.148672D-03  0.114680D-03 -0.985498D-05
     28  0.464888D-02 -0.107194D-03 -0.804105D-04  0.996460D-05  0.164142D-03
     29  0.102739D+00 -0.349147D-01 -0.132453D+00  0.643522D-01  0.110250D+00
     30 -0.300629D-01 -0.695392D-02 -0.114497D-01  0.458442D-02  0.760317D-02
     31  0.901209D-01 -0.779781D-02 -0.295984D-03  0.359816D-03  0.114443D-02
               16            17            18            19            20 
     16  0.123400D+11
     17  0.189238D-04  0.123400D+11
     18  0.109699D-03  0.272722D+02  0.123400D+11
     19  0.999940D-05 -0.757153D+00  0.170191D+02  0.123400D+11
     20  0.111076D-03 -0.116905D+01  0.178335D+02 -0.721185D+00  0.123400D+11
     21  0.309325D-03 -0.121594D+01  0.180542D+02 -0.744045D+00 -0.923207D+00
     22  0.150493D-02 -0.946198D+01  0.375004D+01  0.828355D+00  0.423005D+00
     23  0.380368D-03 -0.528575D-01  0.713409D-02 -0.890717D-04 -0.132731D-02
     24  0.201684D-03  0.917393D-02 -0.111726D-02  0.832840D-04  0.641196D-04
     25  0.141932D-03  0.347290D-01 -0.684448D-02 -0.441597D-03 -0.147242D-04
     26  0.775371D-04 -0.243058D-02  0.840994D-04 -0.161090D-03 -0.680238D-04
     27  0.000000D+00  0.215853D-01  0.206614D-02  0.226581D-02  0.233465D-03
     28  0.194795D-04  0.922848D-02 -0.731486D-03  0.694551D-04  0.836370D-04
     29  0.445621D-02  0.146178D+01 -0.420006D-01 -0.178641D-02  0.823299D-02
     30  0.728854D-03  0.119993D-03  0.187387D-01 -0.238667D-03 -0.245649D-03
     31  0.328664D-03  0.123888D+00  0.632794D-01 -0.948225D-04  0.132996D-02
               21            22            23            24            25 
     21  0.123400D+11
     22  0.453599D+00  0.123400D+11
     23 -0.561890D-03  0.670065D-01  0.123400D+11
     24  0.827998D-04  0.735829D-02  0.175623D+02  0.123400D+11
     25 -0.784341D-04  0.324421D-01  0.174163D+02 -0.710174D+00  0.123400D+11
     26  0.430159D-04  0.560352D-03 -0.744546D+00  0.374752D+00  0.169689D+02
     27  0.110942D-03  0.351070D-02 -0.552039D+00  0.165230D+00  0.169381D+02
     28  0.890231D-05 -0.550370D-03 -0.607095D+00  0.103429D+00  0.175972D+02
     29 -0.346454D-02  0.151781D+00  0.174638D+02 -0.723684D+00  0.647709D-01
     30 -0.706988D-03  0.276787D-02 -0.583277D+00  0.255083D+00  0.842143D+00
     31 -0.175163D-02 -0.747557D-02 -0.676310D+00  0.198844D-01  0.816742D+00
               26            27            28            29            30 
     26  0.123400D+11
     27 -0.722373D+00  0.123400D+11
     28 -0.762490D+00 -0.816488D+00  0.123400D+11
     29  0.477481D+00  0.132439D+00  0.124063D+01  0.123400D+11
     30 -0.180322D-01 -0.780566D-02  0.982159D-02  0.174474D+02  0.123400D+11
     31 -0.794843D-02 -0.756590D-02  0.445422D-01  0.169560D+02 -0.905700D+00
               31 
     31  0.123400D+11
 Fermi Contact (FC) contribution to J (Hz):
                1             2             3             4             5 
      1  0.243533D+11
      2  0.546100D+02  0.243533D+11
      3 -0.744556D+01  0.149668D+03  0.385007D+12
      4 -0.123733D+00  0.391275D+01 -0.164153D+00  0.243533D+11
      5 -0.204269D-01  0.116714D+01 -0.873300D-01  0.137475D+03  0.385007D+12
      6  0.308872D-01 -0.381596D-01 -0.358503D-01  0.137754D+03 -0.236948D+02
      7 -0.187563D-01 -0.220709D+00 -0.379629D-01  0.132303D+03 -0.236514D+02
      8  0.103471D+02 -0.269811D+01 -0.146736D+01  0.887347D-02 -0.259053D-01
      9  0.183721D+00  0.107565D+02 -0.144720D+01  0.677054D-01 -0.122432D-01
     10  0.770322D+00  0.227593D+01  0.436521D+01  0.515415D-01  0.254198D-01
     11  0.164579D+02  0.776349D+01  0.163145D+00  0.123491D-01  0.180632D-02
     12  0.371027D+01  0.862518D+00 -0.656844D+00 -0.240171D-01 -0.354139D-02
     13 -0.755339D+00  0.219641D+01 -0.117406D+00 -0.148610D-01 -0.269805D-02
     14  0.149424D+01 -0.651185D+00  0.536518D+00  0.113150D-01  0.539765D-02
     15  0.151973D+01 -0.652307D+00  0.408160D+00  0.119941D-01  0.583492D-02
     16  0.753587D+01 -0.190711D+00  0.257765D-02  0.155388D-02  0.514545D-03
     17  0.222686D+00 -0.902588D+00  0.203647D+01  0.143387D+00  0.314369D-01
     18 -0.314556D+00  0.173756D+01 -0.636545D+00  0.466116D-02 -0.338356D-03
     19 -0.154493D-01  0.808592D+00 -0.555830D-01  0.111567D-01  0.522506D-03
     20  0.450380D+00  0.143633D+00  0.603671D+00  0.116015D-01  0.220327D-02
     21  0.553404D+00  0.296207D+00  0.792015D+00 -0.326734D-02 -0.234610D-02
     22 -0.535381D+00 -0.762614D+00 -0.100517D+01 -0.168724D-01 -0.167593D-01
     23  0.196620D+01 -0.571669D+00  0.800146D+01  0.338722D+02 -0.414703D+01
     24 -0.459737D+00  0.552162D+01 -0.378515D+00 -0.655907D+01  0.376201D+01
     25 -0.987194D-01  0.181929D-02  0.735632D-01  0.898895D-01  0.266341D+01
     26  0.263766D-01 -0.356908D-01  0.272729D-01  0.270103D+01 -0.108577D+00
     27  0.231710D-01  0.607871D-02  0.158977D+00  0.113433D+02  0.215811D-01
     28 -0.807844D-02 -0.212792D+00  0.339147D+00  0.303655D+01 -0.300453D+00
     29 -0.939718D+00  0.322756D+02 -0.609846D+01  0.401514D+00  0.113419D+02
     30  0.740897D+01 -0.675488D+01  0.244841D+01  0.508896D-01 -0.597117D+00
     31  0.543098D+00 -0.406657D+01  0.695480D+01  0.716676D+01  0.112624D+01
                6             7             8             9            10 
      6  0.385007D+12
      7 -0.233442D+02  0.385007D+12
      8 -0.269518D-01 -0.237586D+00  0.708114D+10
      9  0.855356D-02  0.853993D-02 -0.170515D+00  0.201170D+10
     10 -0.276656D-02  0.104762D-01  0.981926D-02  0.716117D+02  0.385007D+12
     11  0.193733D-01 -0.464575D-02 -0.194700D+01  0.171509D+00  0.422832D+00
     12  0.145499D-01  0.715336D-02 -0.197316D+01  0.117427D+00  0.554018D-02
     13 -0.591176D-02  0.269003D-02 -0.643879D+00  0.183940D+00  0.123050D+00
     14  0.120138D-01 -0.153860D-02 -0.104598D+01 -0.159304D-01 -0.329830D-01
     15  0.119340D-01 -0.269767D-02 -0.999646D+00 -0.117081D-01 -0.353604D-01
     16  0.289805D-03  0.467537D-03 -0.754801D+00  0.570227D-01 -0.242346D-01
     17  0.102124D-01  0.284207D-02 -0.632407D-01  0.150865D+02  0.327782D+01
     18  0.805822D-03  0.133624D-02 -0.917653D-01  0.719839D+01  0.738536D+00
     19  0.188330D-02 -0.750726D-03  0.196263D-02  0.773096D+00 -0.297481D+00
     20 -0.630186D-03 -0.415670D-03 -0.227088D-01  0.862088D+00 -0.325361D+00
     21 -0.937516D-03  0.793223D-03 -0.141746D-01  0.800269D+00 -0.399164D+00
     22 -0.883467D-03  0.361473D-02  0.473146D+00 -0.180834D+01 -0.185655D+01
     23 -0.439920D+01 -0.626155D+01 -0.662107D+00  0.104268D-01 -0.121317D-01
     24  0.521737D+01  0.131877D+02 -0.463099D+00 -0.356080D-01  0.529014D-01
     25  0.102212D+02  0.279278D+01  0.216452D-01  0.311400D+00 -0.486270D+00
     26 -0.323067D+00 -0.319940D+00 -0.108646D+00 -0.546475D-01  0.170212D+00
     27  0.236528D+01 -0.352255D+00 -0.938725D-01  0.773131D+00 -0.113558D+01
     28  0.380403D+00 -0.153368D+00 -0.156495D-01  0.161749D+00 -0.366156D+00
     29  0.270389D+01  0.335364D+01 -0.238721D+00  0.365645D+00  0.402145D+01
     30 -0.135009D+00 -0.143876D+00 -0.357880D+00  0.185750D+01 -0.713906D+00
     31 -0.462422D+00 -0.165079D+00  0.782535D-01  0.431466D+01 -0.698142D+00
               11            12            13            14            15 
     11  0.201170D+10
     12  0.705104D+02  0.385007D+12
     13  0.977048D+01  0.261871D+01  0.243533D+11
     14 -0.130000D+01  0.361972D+01  0.155718D+03  0.385007D+12
     15 -0.126133D+01  0.301639D+01  0.158572D+03 -0.228687D+02  0.385007D+12
     16 -0.905700D+00  0.907205D+01  0.142819D+03 -0.233111D+02 -0.234221D+02
     17 -0.425621D-01  0.369878D-02 -0.226784D-01  0.626193D-02  0.519100D-02
     18  0.974733D-02  0.859660D-02  0.272107D-01  0.651347D-02  0.611842D-02
     19  0.125173D-01  0.944924D-03 -0.467847D-03 -0.100348D-02 -0.586673D-03
     20 -0.593382D-02 -0.389676D-02 -0.281960D-02  0.118639D-02 -0.101606D-02
     21  0.334903D-01 -0.701822D-03  0.195384D-01  0.276990D-02 -0.173254D-02
     22 -0.443672D-01  0.470673D-02 -0.136973D-01 -0.159429D-01 -0.828787D-02
     23 -0.745081D-01  0.412404D-01  0.410573D-01 -0.140017D-01 -0.349857D-01
     24  0.759915D-01 -0.171795D-02  0.596821D-01  0.782716D-01 -0.104262D-01
     25  0.208230D-02 -0.319062D-02  0.153802D-02  0.920470D-03 -0.206942D-02
     26  0.119784D-01 -0.983715D-02  0.466160D-02  0.204098D-01  0.100243D-01
     27  0.303599D-02  0.431770D-02  0.116662D-02  0.357800D-02 -0.307475D-03
     28  0.104845D-01 -0.334444D-02 -0.630974D-03  0.310895D-03  0.512122D-02
     29  0.582747D-01 -0.273973D+00 -0.261399D+00  0.504966D+00  0.865119D+00
     30 -0.678003D-01 -0.216962D+00 -0.898450D-01  0.143034D+00  0.237219D+00
     31  0.203248D+00 -0.243291D+00 -0.232256D-02  0.112262D-01  0.357061D-01
               16            17            18            19            20 
     16  0.385007D+12
     17  0.148493D-03  0.243533D+11
     18  0.860797D-03  0.538223D+02  0.243533D+11
     19  0.311981D-03 -0.594131D+01  0.133547D+03  0.385007D+12
     20  0.346557D-02 -0.917340D+01  0.139937D+03 -0.225010D+02  0.385007D+12
     21  0.965092D-02 -0.954133D+01  0.141669D+03 -0.232142D+02 -0.288040D+02
     22 -0.636776D-02  0.100693D+02 -0.399072D+01 -0.350500D+01 -0.178985D+01
     23  0.298471D-02 -0.104316D+00  0.140793D-01 -0.698937D-03 -0.104153D-01
     24  0.629255D-02  0.719869D-01 -0.876706D-02  0.259846D-02  0.200053D-02
     25  0.111373D-02  0.685386D-01 -0.135077D-01 -0.346517D-02 -0.115540D-03
     26  0.241915D-02 -0.190725D-01  0.659920D-03 -0.502601D-02 -0.212234D-02
     27 -0.991241D-05  0.169378D+00  0.162128D-01  0.706933D-01  0.728411D-02
     28  0.607758D-03  0.724150D-01 -0.573990D-02  0.216700D-02  0.260947D-02
     29  0.349675D-01  0.288485D+01 -0.828891D-01 -0.140178D-01  0.646035D-01
     30  0.227402D-01  0.941574D-03  0.147041D+00 -0.744641D-02 -0.766425D-02
     31  0.102543D-01  0.972139D+00  0.496548D+00 -0.295846D-02  0.414947D-01
               21            22            23            24            25 
     21  0.385007D+12
     22 -0.191930D+01  0.708114D+10
     23 -0.440910D-02 -0.713070D-01  0.243533D+11
     24  0.258335D-02 -0.311349D-01  0.137809D+03  0.385007D+12
     25 -0.615464D-03 -0.345243D-01  0.343715D+02 -0.557267D+01  0.243533D+11
     26  0.134209D-02 -0.237100D-02 -0.584238D+01  0.116922D+02  0.133153D+03
     27  0.346138D-02 -0.148547D-01 -0.433179D+01  0.515518D+01  0.132911D+03
     28  0.277752D-03  0.232876D-02 -0.476382D+01  0.322697D+01  0.138084D+03
     29 -0.271859D-01 -0.161522D+00  0.344653D+02 -0.567868D+01  0.127827D+00
     30 -0.220580D-01 -0.117116D-01 -0.457692D+01  0.795858D+01  0.660821D+01
     31 -0.546507D-01  0.316312D-01 -0.530694D+01  0.620392D+00  0.640890D+01
               26            27            28            29            30 
     26  0.385007D+12
     27 -0.225380D+02  0.385007D+12
     28 -0.237896D+02 -0.254744D+02  0.385007D+12
     29  0.374675D+01  0.103923D+01  0.973512D+01  0.243533D+11
     30 -0.562605D+00 -0.243536D+00  0.306433D+00  0.136908D+03  0.385007D+12
     31 -0.247991D+00 -0.236056D+00  0.138971D+01  0.133052D+03 -0.282578D+02
               31 
     31  0.385007D+12
 End of Minotr F.D. properties file   721 does not exist.
 End of Minotr F.D. properties file   722 does not exist.
 End of Minotr F.D. properties file   788 does not exist.
 Leave Link 1002 at Wed Jun 18 22:51:18 2014, MaxMem=  4294967296 cpu:    370323.4
 (Enter /home/ztw1e12/g09/l601.exe)
 Copying SCF densities to generalized density rwf, IOpCl= 0 IROHF=0.

 **********************************************************************

            Population analysis using the SCF density.

 **********************************************************************

 Orbital symmetries:
       Occupied  (A) (A) (A) (A) (A) (A) (A) (A) (A) (A) (A) (A)
                 (A) (A) (A) (A) (A) (A) (A) (A) (A) (A) (A) (A)
                 (A) (A) (A) (A) (A) (A) (A) (A) (A) (A) (A) (A)
                 (A) (A) (A) (A) (A) (A) (A) (A) (A) (A) (A) (A)
                 (A) (A) (A)
       Virtual   (A) (A) (A) (A) (A) (A) (A) (A) (A) (A) (A) (A)
                 (A) (A) (A) (A) (A) (A) (A) (A) (A) (A) (A) (A)
                 (A) (A) (A) (A) (A) (A) (A) (A) (A) (A) (A) (A)
                 (A) (A) (A) (A) (A) (A) (A) (A) (A) (A) (A) (A)
                 (A) (A) (A) (A) (A) (A) (A) (A) (A) (A) (A) (A)
                 (A) (A) (A) (A) (A) (A) (A) (A) (A) (A) (A) (A)
                 (A) (A) (A) (A) (A) (A) (A) (A) (A) (A) (A) (A)
                 (A) (A) (A) (A) (A) (A) (A) (A) (A) (A) (A) (A)
                 (A) (A) (A) (A) (A) (A) (A) (A) (A) (A) (A) (A)
                 (A) (A) (A) (A) (A) (A) (A) (A) (A) (A) (A) (A)
                 (A) (A) (A) (A) (A) (A) (A) (A) (A) (A) (A) (A)
                 (A) (A) (A) (A) (A) (A) (A) (A) (A) (A) (A) (A)
                 (A) (A) (A) (A) (A) (A) (A) (A) (A) (A) (A) (A)
                 (A) (A) (A) (A) (A) (A) (A) (A) (A) (A) (A) (A)
                 (A) (A) (A) (A) (A) (A) (A) (A) (A) (A) (A) (A)
                 (A) (A) (A) (A) (A) (A) (A) (A) (A) (A) (A) (A)
                 (A) (A) (A) (A) (A) (A) (A) (A) (A) (A) (A) (A)
                 (A) (A) (A) (A) (A) (A) (A) (A) (A) (A) (A) (A)
                 (A) (A) (A) (A) (A) (A) (A) (A) (A) (A) (A) (A)
                 (A) (A) (A) (A) (A) (A) (A) (A) (A) (A) (A) (A)
                 (A) (A) (A) (A) (A) (A) (A) (A) (A) (A) (A) (A)
                 (A) (A) (A) (A) (A) (A) (A) (A) (A) (A) (A) (A)
                 (A) (A) (A) (A) (A) (A) (A) (A) (A) (A) (A) (A)
                 (A) (A) (A) (A) (A) (A) (A) (A) (A) (A) (A) (A)
                 (A) (A) (A) (A) (A) (A) (A) (A) (A) (A) (A) (A)
                 (A) (A) (A) (A) (A) (A) (A) (A) (A) (A) (A) (A)
                 (A) (A) (A) (A) (A) (A) (A) (A) (A) (A) (A) (A)
                 (A) (A) (A) (A) (A) (A) (A) (A) (A) (A) (A) (A)
                 (A) (A) (A) (A) (A) (A) (A) (A) (A) (A) (A) (A)
                 (A) (A) (A) (A) (A) (A) (A) (A) (A) (A) (A) (A)
                 (A) (A) (A) (A) (A) (A) (A) (A) (A) (A) (A) (A)
                 (A) (A) (A) (A) (A) (A) (A) (A) (A) (A) (A) (A)
                 (A) (A) (A) (A) (A) (A) (A) (A) (A) (A) (A) (A)
                 (A) (A) (A) (A) (A) (A) (A) (A) (A) (A) (A) (A)
                 (A) (A) (A) (A) (A) (A) (A) (A) (A) (A) (A) (A)
                 (A) (A) (A) (A) (A) (A) (A) (A) (A) (A) (A) (A)
                 (A) (A) (A) (A) (A) (A) (A) (A) (A) (A) (A) (A)
                 (A) (A) (A) (A) (A) (A) (A) (A) (A) (A) (A) (A)
                 (A) (A) (A) (A) (A) (A) (A) (A) (A) (A) (A) (A)
                 (A) (A) (A) (A) (A) (A) (A) (A) (A) (A) (A) (A)
                 (A) (A) (A) (A) (A) (A) (A) (A) (A) (A) (A) (A)
                 (A) (A) (A) (A) (A) (A) (A) (A) (A) (A) (A) (A)
                 (A) (A) (A) (A) (A) (A) (A) (A) (A) (A) (A) (A)
                 (A) (A) (A) (A) (A) (A) (A) (A) (A) (A) (A) (A)
                 (A) (A) (A) (A) (A) (A) (A) (A) (A) (A) (A) (A)
                 (A) (A) (A) (A) (A) (A) (A) (A) (A) (A) (A) (A)
                 (A) (A) (A) (A) (A) (A) (A) (A) (A) (A) (A) (A)
                 (A) (A) (A) (A) (A) (A) (A) (A) (A) (A) (A) (A)
                 (A) (A) (A) (A) (A) (A) (A) (A) (A) (A) (A) (A)
                 (A) (A) (A) (A) (A) (A) (A) (A) (A) (A) (A) (A)
                 (A) (A) (A) (A) (A) (A) (A) (A) (A) (A) (A) (A)
                 (A) (A) (A) (A) (A) (A) (A) (A) (A) (A) (A) (A)
                 (A) (A) (A) (A) (A) (A) (A) (A) (A) (A) (A) (A)
                 (A) (A) (A) (A) (A) (A) (A) (A) (A) (A) (A) (A)
                 (A) (A) (A) (A) (A) (A) (A) (A) (A) (A) (A) (A)
                 (A) (A) (A) (A) (A) (A) (A) (A) (A) (A) (A) (A)
                 (A) (A) (A) (A) (A) (A) (A) (A) (A) (A) (A) (A)
                 (A) (A) (A) (A) (A) (A) (A) (A) (A) (A) (A) (A)
                 (A) (A) (A) (A) (A) (A) (A) (A) (A) (A) (A) (A)
                 (A) (A) (A) (A) (A) (A) (A) (A) (A) (A) (A) (A)
                 (A) (A) (A) (A) (A) (A) (A) (A) (A) (A) (A) (A)
                 (A) (A) (A) (A) (A) (A) (A) (A) (A) (A) (A) (A)
                 (A) (A) (A) (A) (A) (A) (A) (A) (A) (A) (A) (A)
                 (A) (A) (A) (A) (A) (A) (A) (A) (A) (A) (A) (A)
                 (A) (A) (A) (A) (A) (A) (A) (A) (A) (A) (A) (A)
                 (A) (A) (A) (A) (A) (A) (A) (A) (A) (A) (A) (A)
                 (A) (A) (A) (A) (A) (A) (A) (A) (A) (A) (A) (A)
                 (A) (A) (A) (A) (A) (A) (A) (A) (A) (A) (A) (A)
                 (A) (A) (A) (A) (A) (A) (A) (A) (A) (A) (A) (A)
                 (A) (A) (A) (A) (A) (A) (A) (A) (A) (A) (A) (A)
                 (A) (A) (A) (A) (A) (A) (A) (A) (A) (A) (A) (A)
                 (A) (A) (A) (A) (A) (A) (A) (A) (A) (A) (A) (A)
                 (A) (A) (A) (A) (A) (A) (A) (A) (A) (A) (A) (A)
                 (A) (A) (A) (A) (A)
 The electronic state is 1-A.
 Alpha  occ. eigenvalues --  -19.17052 -19.16247 -14.41894 -14.41290 -10.33375
 Alpha  occ. eigenvalues --  -10.33155 -10.29179 -10.27150 -10.25653 -10.25134
 Alpha  occ. eigenvalues --  -10.23769 -10.23650 -10.23477  -1.05312  -1.03895
 Alpha  occ. eigenvalues --   -0.94294  -0.94099  -0.83943  -0.78591  -0.74256
 Alpha  occ. eigenvalues --   -0.71987  -0.70618  -0.66030  -0.60816  -0.59625
 Alpha  occ. eigenvalues --   -0.58778  -0.54413  -0.50831  -0.49644  -0.48433
 Alpha  occ. eigenvalues --   -0.46787  -0.46105  -0.45420  -0.45101  -0.44644
 Alpha  occ. eigenvalues --   -0.43058  -0.41308  -0.41178  -0.40539  -0.40285
 Alpha  occ. eigenvalues --   -0.40160  -0.38146  -0.37618  -0.36499  -0.35446
 Alpha  occ. eigenvalues --   -0.34459  -0.33977  -0.28139  -0.27376  -0.26115
 Alpha  occ. eigenvalues --   -0.25885
 Alpha virt. eigenvalues --    0.00968   0.02637   0.02898   0.03644   0.04499
 Alpha virt. eigenvalues --    0.04960   0.06650   0.07156   0.07793   0.08204
 Alpha virt. eigenvalues --    0.09702   0.10011   0.10446   0.11733   0.11805
 Alpha virt. eigenvalues --    0.12562   0.12831   0.12976   0.13560   0.14127
 Alpha virt. eigenvalues --    0.16028   0.16615   0.18064   0.18533   0.19569
 Alpha virt. eigenvalues --    0.21287   0.22409   0.22792   0.23913   0.24621
 Alpha virt. eigenvalues --    0.25304   0.25526   0.26862   0.27193   0.28291
 Alpha virt. eigenvalues --    0.28782   0.29364   0.30605   0.31352   0.32332
 Alpha virt. eigenvalues --    0.33151   0.33541   0.34318   0.35053   0.35884
 Alpha virt. eigenvalues --    0.36596   0.37522   0.37944   0.38323   0.38533
 Alpha virt. eigenvalues --    0.38852   0.39866   0.40740   0.40860   0.41214
 Alpha virt. eigenvalues --    0.41371   0.41931   0.42170   0.42723   0.42858
 Alpha virt. eigenvalues --    0.43156   0.43864   0.44514   0.44617   0.45719
 Alpha virt. eigenvalues --    0.45783   0.46365   0.47657   0.48304   0.48432
 Alpha virt. eigenvalues --    0.49155   0.50545   0.50931   0.51875   0.52562
 Alpha virt. eigenvalues --    0.52824   0.53030   0.54500   0.55710   0.57445
 Alpha virt. eigenvalues --    0.57794   0.58739   0.59085   0.60315   0.61360
 Alpha virt. eigenvalues --    0.62920   0.63516   0.64328   0.65560   0.66442
 Alpha virt. eigenvalues --    0.69191   0.70744   0.71493   0.71635   0.73218
 Alpha virt. eigenvalues --    0.75859   0.76246   0.76955   0.77627   0.78776
 Alpha virt. eigenvalues --    0.79708   0.80177   0.81502   0.81923   0.83106
 Alpha virt. eigenvalues --    0.83706   0.84996   0.85632   0.86048   0.86605
 Alpha virt. eigenvalues --    0.87130   0.88381   0.89145   0.89751   0.91433
 Alpha virt. eigenvalues --    0.92080   0.92443   0.93790   0.94502   0.94815
 Alpha virt. eigenvalues --    0.95281   0.95737   0.96718   0.97475   0.97727
 Alpha virt. eigenvalues --    0.98713   0.99262   0.99807   1.00222   1.00849
 Alpha virt. eigenvalues --    1.02415   1.03797   1.04223   1.05118   1.05570
 Alpha virt. eigenvalues --    1.06714   1.07131   1.07814   1.09707   1.09991
 Alpha virt. eigenvalues --    1.11469   1.12241   1.12909   1.13659   1.14743
 Alpha virt. eigenvalues --    1.15828   1.16582   1.17206   1.18108   1.18538
 Alpha virt. eigenvalues --    1.18859   1.19523   1.19817   1.20464   1.20866
 Alpha virt. eigenvalues --    1.21586   1.21829   1.22230   1.22484   1.23665
 Alpha virt. eigenvalues --    1.24247   1.24785   1.25150   1.25695   1.26386
 Alpha virt. eigenvalues --    1.26876   1.27332   1.27789   1.28511   1.29395
 Alpha virt. eigenvalues --    1.30235   1.31001   1.31312   1.32476   1.33230
 Alpha virt. eigenvalues --    1.33499   1.33859   1.34796   1.35249   1.35885
 Alpha virt. eigenvalues --    1.37175   1.38079   1.39080   1.40362   1.42062
 Alpha virt. eigenvalues --    1.42707   1.43395   1.44285   1.46823   1.48506
 Alpha virt. eigenvalues --    1.48752   1.50601   1.52946   1.54436   1.56271
 Alpha virt. eigenvalues --    1.57692   1.60173   1.60235   1.62814   1.63714
 Alpha virt. eigenvalues --    1.64472   1.67195   1.67614   1.71163   1.72892
 Alpha virt. eigenvalues --    1.74481   1.75269   1.76512   1.78880   1.83474
 Alpha virt. eigenvalues --    1.85002   1.87199   1.89118   1.89948   1.91446
 Alpha virt. eigenvalues --    1.93462   1.95268   1.96540   1.98112   1.99984
 Alpha virt. eigenvalues --    2.00355   2.01999   2.03417   2.05259   2.07623
 Alpha virt. eigenvalues --    2.08076   2.10118   2.10393   2.12312   2.16830
 Alpha virt. eigenvalues --    2.17129   2.17784   2.19929   2.20720   2.20783
 Alpha virt. eigenvalues --    2.22619   2.23289   2.25170   2.28271   2.29103
 Alpha virt. eigenvalues --    2.31632   2.33663   2.36013   2.37598   2.39597
 Alpha virt. eigenvalues --    2.39810   2.41266   2.42747   2.43098   2.43764
 Alpha virt. eigenvalues --    2.44243   2.45996   2.47387   2.48095   2.48829
 Alpha virt. eigenvalues --    2.50355   2.51351   2.51877   2.54279   2.55123
 Alpha virt. eigenvalues --    2.56116   2.57089   2.58981   2.59661   2.62140
 Alpha virt. eigenvalues --    2.62761   2.66110   2.67166   2.67744   2.69608
 Alpha virt. eigenvalues --    2.70513   2.71043   2.71570   2.72091   2.72983
 Alpha virt. eigenvalues --    2.74154   2.74772   2.75553   2.76347   2.77268
 Alpha virt. eigenvalues --    2.79190   2.79799   2.80583   2.81533   2.83266
 Alpha virt. eigenvalues --    2.83714   2.84519   2.85859   2.86515   2.87024
 Alpha virt. eigenvalues --    2.87555   2.88669   2.88856   2.89838   2.91920
 Alpha virt. eigenvalues --    2.92304   2.92617   2.93545   2.93620   2.94366
 Alpha virt. eigenvalues --    2.94754   2.95491   2.96302   2.97789   2.98596
 Alpha virt. eigenvalues --    2.99277   2.99892   3.00583   3.01154   3.02125
 Alpha virt. eigenvalues --    3.03156   3.03759   3.04224   3.04813   3.06740
 Alpha virt. eigenvalues --    3.07230   3.08130   3.08520   3.09148   3.09408
 Alpha virt. eigenvalues --    3.10905   3.12027   3.13473   3.14203   3.15250
 Alpha virt. eigenvalues --    3.17008   3.17897   3.18331   3.18647   3.19775
 Alpha virt. eigenvalues --    3.20750   3.22077   3.22914   3.23834   3.24066
 Alpha virt. eigenvalues --    3.25504   3.25899   3.26702   3.27670   3.27900
 Alpha virt. eigenvalues --    3.28118   3.29080   3.29803   3.30833   3.31515
 Alpha virt. eigenvalues --    3.32521   3.33537   3.34571   3.34961   3.35612
 Alpha virt. eigenvalues --    3.36577   3.37354   3.37701   3.38433   3.38747
 Alpha virt. eigenvalues --    3.40176   3.40552   3.41109   3.42457   3.43472
 Alpha virt. eigenvalues --    3.43972   3.44600   3.45664   3.46742   3.47512
 Alpha virt. eigenvalues --    3.48147   3.49371   3.50736   3.51908   3.52385
 Alpha virt. eigenvalues --    3.54539   3.56768   3.57523   3.57994   3.59455
 Alpha virt. eigenvalues --    3.60522   3.61221   3.61847   3.64595   3.65134
 Alpha virt. eigenvalues --    3.66061   3.67512   3.68845   3.69199   3.71278
 Alpha virt. eigenvalues --    3.72055   3.73513   3.74230   3.74647   3.75992
 Alpha virt. eigenvalues --    3.76368   3.77029   3.77176   3.79173   3.80524
 Alpha virt. eigenvalues --    3.81366   3.81957   3.82862   3.83682   3.85132
 Alpha virt. eigenvalues --    3.85504   3.86077   3.87344   3.88268   3.89108
 Alpha virt. eigenvalues --    3.89822   3.91720   3.92041   3.92388   3.93635
 Alpha virt. eigenvalues --    3.95274   3.97419   3.97908   3.98829   3.99686
 Alpha virt. eigenvalues --    4.01364   4.01822   4.02391   4.04384   4.05768
 Alpha virt. eigenvalues --    4.06258   4.06994   4.07122   4.08648   4.09234
 Alpha virt. eigenvalues --    4.11193   4.12065   4.12416   4.13567   4.14211
 Alpha virt. eigenvalues --    4.14632   4.16138   4.16301   4.17398   4.20440
 Alpha virt. eigenvalues --    4.21091   4.22410   4.22498   4.23149   4.24161
 Alpha virt. eigenvalues --    4.26396   4.26883   4.27313   4.28250   4.28935
 Alpha virt. eigenvalues --    4.29502   4.30615   4.32328   4.33455   4.33825
 Alpha virt. eigenvalues --    4.34705   4.36780   4.38761   4.39811   4.44107
 Alpha virt. eigenvalues --    4.44584   4.45713   4.46572   4.48121   4.49419
 Alpha virt. eigenvalues --    4.50329   4.50937   4.53731   4.54336   4.56466
 Alpha virt. eigenvalues --    4.56666   4.59099   4.60067   4.60703   4.61689
 Alpha virt. eigenvalues --    4.62123   4.63773   4.63886   4.64340   4.66105
 Alpha virt. eigenvalues --    4.66622   4.67818   4.70918   4.71006   4.72013
 Alpha virt. eigenvalues --    4.73501   4.73892   4.75162   4.75612   4.77504
 Alpha virt. eigenvalues --    4.78227   4.79231   4.79916   4.81412   4.82770
 Alpha virt. eigenvalues --    4.84618   4.85643   4.89003   4.90100   4.92050
 Alpha virt. eigenvalues --    4.92841   4.93424   4.94306   4.95836   4.96743
 Alpha virt. eigenvalues --    4.97510   4.99011   5.00303   5.01123   5.02083
 Alpha virt. eigenvalues --    5.02918   5.03843   5.04962   5.07437   5.08932
 Alpha virt. eigenvalues --    5.10343   5.11344   5.13239   5.14602   5.15164
 Alpha virt. eigenvalues --    5.17235   5.17856   5.18416   5.19030   5.20484
 Alpha virt. eigenvalues --    5.21295   5.22127   5.23221   5.23763   5.25474
 Alpha virt. eigenvalues --    5.26422   5.27411   5.27704   5.28878   5.30431
 Alpha virt. eigenvalues --    5.31550   5.34377   5.36550   5.37416   5.40290
 Alpha virt. eigenvalues --    5.40925   5.43644   5.44928   5.46836   5.50057
 Alpha virt. eigenvalues --    5.52885   5.54655   5.56736   5.57691   5.58300
 Alpha virt. eigenvalues --    5.61053   5.61486   5.62651   5.64286   5.65905
 Alpha virt. eigenvalues --    5.66385   5.68738   5.69857   5.70427   5.71870
 Alpha virt. eigenvalues --    5.72815   5.75591   5.75929   5.76798   5.78900
 Alpha virt. eigenvalues --    5.79281   5.81338   5.83975   5.85494   5.87447
 Alpha virt. eigenvalues --    5.89818   5.94156   5.97434   6.01280   6.06340
 Alpha virt. eigenvalues --    6.11427   6.18950   6.20597   6.23804   6.27506
 Alpha virt. eigenvalues --    6.51713   6.53785   6.58673   6.62471   6.64593
 Alpha virt. eigenvalues --    6.66677   6.77426   6.81458   6.90649   6.91986
 Alpha virt. eigenvalues --    6.92964   6.94972   7.17988   7.20269   7.24005
 Alpha virt. eigenvalues --    7.27890   8.13451   8.27258   8.66292   8.73595
 Alpha virt. eigenvalues --    8.78358   8.79418   8.82524   8.82845   8.83161
 Alpha virt. eigenvalues --    8.85344   8.86020   8.88490   8.90076   8.91705
 Alpha virt. eigenvalues --    8.93203   8.94193   8.95150   8.97806   9.00488
 Alpha virt. eigenvalues --    9.04967   9.08883   9.10514   9.15509   9.18891
 Alpha virt. eigenvalues --    9.24364   9.59839   9.62608   9.77420   9.83445
 Alpha virt. eigenvalues --    9.88531   9.93429  10.10972  10.12117  10.15040
 Alpha virt. eigenvalues --   10.18000  10.19510  10.20276  10.21776  10.23679
 Alpha virt. eigenvalues --   10.24860  10.28459  10.29856  10.31577  10.33975
 Alpha virt. eigenvalues --   10.41192  11.75760  11.82141  12.03668  12.14603
 Alpha virt. eigenvalues --   12.14858  12.18680  12.20687  12.24740  12.31317
 Alpha virt. eigenvalues --   12.40051  12.44192  12.55548  12.58595  12.83696
 Alpha virt. eigenvalues --   12.93540  14.97071  15.02510  15.24200  15.27810
 Alpha virt. eigenvalues --   15.99689  16.04886  16.84353  16.90938  22.01160
 Alpha virt. eigenvalues --   22.10308  40.17383  40.25691  40.66827  40.68392
 Alpha virt. eigenvalues --   40.69961  40.72448  40.72844  40.74954  40.76167
 Alpha virt. eigenvalues --   40.77874  40.79273  40.81089  40.82173  40.83117
 Alpha virt. eigenvalues --   40.83379  40.84016  40.84495  40.85259  40.85382
 Alpha virt. eigenvalues --   40.86304  40.87508  40.88709  40.90595  40.90956
 Alpha virt. eigenvalues --   40.92033  40.92803  40.96616  46.33769  46.45643
 Alpha virt. eigenvalues --   46.47402  46.49839  46.53208  46.57088  46.63845
 Alpha virt. eigenvalues --   46.74509  46.76388  54.45641  54.49701  55.79186
 Alpha virt. eigenvalues --   55.84239  55.91735  55.97829  56.06084  56.18135
 Alpha virt. eigenvalues --   56.21682  56.23771  56.25696  56.31247  56.39382
 Alpha virt. eigenvalues --   56.44299  56.46418  56.50701  56.52121  56.60279
 Alpha virt. eigenvalues --   57.46656  57.50478  57.99230  58.02093  58.19575
 Alpha virt. eigenvalues --   58.25968  64.71461  64.77572  73.94288  73.97320
 Alpha virt. eigenvalues --   74.10054  74.11589  74.63910  74.66735  86.06986
 Alpha virt. eigenvalues --   86.15188 165.43092 165.53680 165.56517 165.58039
 Alpha virt. eigenvalues --  165.61873 165.64753 165.70242 165.79951 165.81791
 Alpha virt. eigenvalues --  226.57028 226.69419 230.58550 230.64293 235.66250
 Alpha virt. eigenvalues --  235.82553 235.94846 236.31100 236.50080 236.82189
 Alpha virt. eigenvalues --  237.18272 237.37950 237.50035 237.68492 237.81067
 Alpha virt. eigenvalues --  238.08578 238.13629 238.15127 238.21651 238.26404
 Alpha virt. eigenvalues --  308.80603 308.87938 624.54505 624.61033 624.62034
 Alpha virt. eigenvalues --  624.66691 624.67716 624.71239 624.75942 624.83639
 Alpha virt. eigenvalues --  624.84261 794.38168 794.54155 826.28884 827.12082
 Alpha virt. eigenvalues --  827.15670 827.24741 827.86825 829.25392 830.49116
 Alpha virt. eigenvalues --  830.91866 831.33748 831.74606 831.96174 832.89861
 Alpha virt. eigenvalues --  833.04554 833.15544 833.19897 833.26028 868.34371
 Alpha virt. eigenvalues --  868.402561165.933731166.002272485.437762485.94123
 Alpha virt. eigenvalues -- 2589.379202589.636362591.759102596.308282597.10032
 Alpha virt. eigenvalues -- 2597.705102602.251152604.387972605.380042605.73137
 Alpha virt. eigenvalues -- 2606.910832608.657142609.991582610.986042611.20231
 Alpha virt. eigenvalues -- 2611.986502740.320902740.340792740.357572740.40123
 Alpha virt. eigenvalues -- 2740.432582740.510382740.522982740.547902740.56177
 Alpha virt. eigenvalues -- 3787.319043787.381135073.315605073.378048290.02189
 Alpha virt. eigenvalues -- 8295.943618630.675848633.910168637.575658637.58165
 Alpha virt. eigenvalues -- 8639.460568651.344128662.423678666.488368669.07308
 Alpha virt. eigenvalues -- 8670.173728675.511628681.607308683.664238683.88697
 Alpha virt. eigenvalues -- 8684.930508685.28856******************************
 Alpha virt. eigenvalues -- **************************************************
 Alpha virt. eigenvalues -- **************************************************
 Alpha virt. eigenvalues -- **************************************************
 Alpha virt. eigenvalues -- **************************************************
 Alpha virt. eigenvalues -- **************************************************
 Alpha virt. eigenvalues -- **************************************************
 Alpha virt. eigenvalues -- **************************************************
 Alpha virt. eigenvalues -- **********
          Condensed to atoms (all electrons):
               1          2          3          4          5          6
     1  C    4.637607   0.170526  -0.060277  -0.000046  -0.000016  -0.000654
     2  C    0.170526   5.265607   0.399159  -0.000991  -0.000477  -0.000118
     3  H   -0.060277   0.399159   0.506456   0.000127   0.000028  -0.000098
     4  C   -0.000046  -0.000991   0.000127   4.985912   0.409033   0.394293
     5  H   -0.000016  -0.000477   0.000028   0.409033   0.541222  -0.010775
     6  H   -0.000654  -0.000118  -0.000098   0.394293  -0.010775   0.551974
     7  H    0.000028   0.001457   0.000024   0.395392  -0.022706  -0.023273
     8  O    0.727667  -0.094293   0.004290   0.000751   0.000032  -0.000121
     9  N   -0.055265   0.326921  -0.034667   0.000527   0.000005  -0.000031
    10  H    0.005639  -0.039112   0.000294  -0.000132   0.000019  -0.000001
    11  N    0.312534  -0.122897   0.010072  -0.002337  -0.000051   0.002163
    12  H   -0.020849   0.010528   0.000888  -0.000037  -0.000004   0.000137
    13  C   -0.052297   0.010131  -0.001067   0.000010  -0.000002   0.000069
    14  H   -0.001822   0.001072   0.000060   0.000367   0.000018  -0.000259
    15  H   -0.004431  -0.000604  -0.000228  -0.000029  -0.000001   0.000028
    16  H    0.007469   0.000613  -0.000164  -0.000010   0.000000  -0.000007
    17  C   -0.007436  -0.052547   0.004479   0.000031  -0.000001   0.000002
    18  C   -0.005719   0.017800   0.002001   0.000001   0.000000   0.000000
    19  H    0.000430  -0.000394  -0.000285  -0.000001   0.000000   0.000000
    20  H   -0.000108  -0.000475   0.000198   0.000000   0.000000   0.000000
    21  H    0.000725  -0.000799  -0.000168   0.000000   0.000000   0.000000
    22  O   -0.006816   0.023614   0.015582   0.000001   0.000000   0.000000
    23  C   -0.024343  -0.017457   0.011679   0.325917  -0.037494  -0.032750
[...]
 Alpha virt. eigenvalues --    4.53990   4.54696   4.56378   4.58222   4.59419
 Alpha virt. eigenvalues --    4.62267   4.62702   4.65564   4.67192   4.68709
 Alpha virt. eigenvalues --    4.68975   4.69943   4.70683   4.71976   4.72165
 Alpha virt. eigenvalues --    4.73357   4.75456   4.76350   4.76876   4.78112
 Alpha virt. eigenvalues --    4.79798   4.80189   4.80853   4.82430   4.83869
 Alpha virt. eigenvalues --    4.85059   4.86257   4.87591   4.88647   4.89957
 Alpha virt. eigenvalues --    4.90997   4.93001   4.93806   4.94826   4.96303
 Alpha virt. eigenvalues --    4.97671   4.99576   5.00090   5.00928   5.01547
 Alpha virt. eigenvalues --    5.03241   5.03702   5.05183   5.05814   5.07044
 Alpha virt. eigenvalues --    5.08111   5.09846   5.10250   5.10842   5.13014
 Alpha virt. eigenvalues --    5.13430   5.14185   5.14570   5.17117   5.17551
 Alpha virt. eigenvalues --    5.18233   5.20057   5.21413   5.21830   5.23082
 Alpha virt. eigenvalues --    5.24198   5.24802   5.25096   5.26815   5.27060
 Alpha virt. eigenvalues --    5.28346   5.29660   5.31375   5.32200   5.33764
 Alpha virt. eigenvalues --    5.34627   5.36091   5.37506   5.38219   5.39760
 Alpha virt. eigenvalues --    5.42599   5.46289   5.47577   5.49751   5.56432
 Alpha virt. eigenvalues --    5.57232   5.60045   5.61472   5.64214   5.71914
 Alpha virt. eigenvalues --    5.72856   5.75693   5.76616   5.78734   5.79181
 Alpha virt. eigenvalues --    5.81212   5.81921   5.83094   5.85075   5.85813
 Alpha virt. eigenvalues --    5.87750   5.88502   5.89097   5.91356   5.97693
 Alpha virt. eigenvalues --    5.98462   6.01745   6.02301   6.06106   6.08464
 Alpha virt. eigenvalues --    6.22144   6.27321   6.35677   6.40384   6.49757
 Alpha virt. eigenvalues --    6.52339   6.54385   6.57384   6.67278   6.68429
 Alpha virt. eigenvalues --    6.88163   6.90174   6.92563   6.96225   7.10268
 Alpha virt. eigenvalues --    7.13632   7.16687   7.17254   9.48076   9.95942
 Alpha virt. eigenvalues --   11.62311  12.06317  12.41945  12.60639  12.96329
 Alpha virt. eigenvalues --   13.40701  13.55665  13.57746  13.69674  13.77695
 Alpha virt. eigenvalues --   14.02939
          Condensed to atoms (all electrons):
               1          2          3          4          5          6
     1  C    4.795238   0.140673  -0.064585  -0.000865   0.000019  -0.000504
     2  C    0.140673   5.403812   0.441076  -0.000898  -0.000652  -0.000123
     3  H   -0.064585   0.441076   0.458237   0.000270   0.000021  -0.000088
     4  C   -0.000865  -0.000898   0.000270   5.120753   0.413427   0.393236
     5  H    0.000019  -0.000652   0.000021   0.413427   0.534156  -0.016469
     6  H   -0.000504  -0.000123  -0.000088   0.393236  -0.016469   0.549944
     7  H    0.000021   0.001646   0.000013   0.396162  -0.028965  -0.029715
     8  O    0.720904  -0.090883   0.002354   0.000801   0.000032  -0.000120
     9  N   -0.058395   0.270349  -0.036117   0.000502   0.000011  -0.000030
    10  H    0.006556  -0.037228  -0.000737  -0.000151   0.000019  -0.000002
    11  N    0.312894  -0.095058   0.004993  -0.002250  -0.000053   0.002213
    12  H   -0.017468   0.006999  -0.000468   0.000003  -0.000003   0.000116
    13  C   -0.067674   0.009825  -0.000812  -0.000004  -0.000001   0.000038
    14  H   -0.001536   0.000869   0.000068   0.000374   0.000021  -0.000275
    15  H   -0.004940  -0.000522  -0.000225  -0.000029  -0.000001   0.000029
    16  H    0.007830   0.000610  -0.000113  -0.000012   0.000000  -0.000009
    17  C   -0.005703  -0.064954   0.003160   0.000038  -0.000002   0.000002
    18  C   -0.004319   0.014125   0.001774   0.000001   0.000000   0.000000
    19  H    0.000278   0.000455  -0.000270  -0.000001   0.000000   0.000000
    20  H   -0.000134  -0.000478   0.000167   0.000000   0.000000   0.000000
    21  H    0.000666  -0.000738  -0.000145   0.000000   0.000000   0.000000
    22  O   -0.004495   0.022120   0.014937   0.000001   0.000000   0.000000
    23  C   -0.024300  -0.030132   0.010326   0.265492  -0.039917  -0.029512
    24  H    0.017826  -0.002706   0.000065  -0.034994  -0.005471  -0.008497
    25  C   -0.001858   0.009580  -0.000772  -0.072945  -0.007079   0.009638
    26  H    0.000232   0.000631  -0.000004  -0.008724  -0.000527  -0.000149
    27  H   -0.002610  -0.000520   0.000549   0.010140  -0.000023  -0.000382
    28  H   -0.000054  -0.000649   0.000033  -0.006352   0.004351   0.000011
    29  C   -0.032442   0.215862  -0.038661  -0.043445   0.009535  -0.006319
    30  H    0.010543  -0.028717  -0.007257  -0.005123  -0.000336   0.000831
    31  H    0.001481  -0.040590  -0.009143  -0.009832   0.000426   0.002519
               7          8          9         10         11         12
     1  C    0.000021   0.720904  -0.058395   0.006556   0.312894  -0.017468
     2  C    0.001646  -0.090883   0.270349  -0.037228  -0.095058   0.006999
     3  H    0.000013   0.002354  -0.036117  -0.000737   0.004993  -0.000468
     4  C    0.396162   0.000801   0.000502  -0.000151  -0.002250   0.000003
     5  H   -0.028965   0.000032   0.000011   0.000019  -0.000053  -0.000003
     6  H   -0.029715  -0.000120  -0.000030  -0.000002   0.002213   0.000116
     7  H    0.555107  -0.000015  -0.000027  -0.000019  -0.000008   0.000005
     8  O   -0.000015   7.840343   0.002779  -0.002260  -0.125636   0.005131
     9  N   -0.000027   0.002779   6.543299   0.383446   0.006235   0.000561
    10  H   -0.000019  -0.002260   0.383446   0.495997  -0.000539  -0.000023
    11  N   -0.000008  -0.125636   0.006235  -0.000539   6.476266   0.375993
    12  H    0.000005   0.005131   0.000561  -0.000023   0.375993   0.537217
    13  C   -0.000001   0.005665  -0.000260   0.000041   0.301285  -0.033124
    14  H   -0.000005   0.005401  -0.000023   0.000001  -0.051723   0.004205
    15  H    0.000000   0.004511  -0.000039   0.000005  -0.045464   0.001501
    16  H    0.000001   0.001428   0.000007   0.000000  -0.027329  -0.008121
    17  C    0.000004   0.015259   0.332007  -0.022506  -0.000507  -0.000068
    18  C    0.000000  -0.000277  -0.063678  -0.002488  -0.000088   0.000003
    19  H    0.000000  -0.000006   0.012639  -0.001015   0.000009   0.000001
    20  H    0.000000   0.000035  -0.000494  -0.000887   0.000005   0.000001
    21  H    0.000000   0.000277  -0.000930   0.000926  -0.000002  -0.000002
    22  O    0.000000  -0.003734  -0.136561   0.004356  -0.003097  -0.000119
    23  C   -0.034417   0.003627   0.011126  -0.003622   0.007900   0.000207
    24  H    0.007443   0.006770  -0.000870   0.000199  -0.006980  -0.000044
    25  C   -0.007223  -0.001823  -0.008843   0.003164   0.000567   0.000001
    26  H    0.003808  -0.000021   0.000123  -0.000550  -0.000013   0.000001
    27  H   -0.000069   0.002254   0.007253  -0.003077   0.000204  -0.000003
    28  H   -0.000351  -0.000010   0.000225   0.000274   0.000015   0.000000
    29  C   -0.008782  -0.004151  -0.058593   0.001320   0.000832  -0.001589
    30  H    0.001146  -0.000516   0.000301   0.003229   0.000124  -0.000210
    31  H   -0.000485  -0.000257   0.003778   0.000538  -0.002035   0.002815
              13         14         15         16         17         18
     1  C   -0.067674  -0.001536  -0.004940   0.007830  -0.005703  -0.004319
     2  C    0.009825   0.000869  -0.000522   0.000610  -0.064954   0.014125
     3  H   -0.000812   0.000068  -0.000225  -0.000113   0.003160   0.001774
     4  C   -0.000004   0.000374  -0.000029  -0.000012   0.000038   0.000001
     5  H   -0.000001   0.000021  -0.000001   0.000000  -0.000002   0.000000
     6  H    0.000038  -0.000275   0.000029  -0.000009   0.000002   0.000000
     7  H   -0.000001  -0.000005   0.000000   0.000001   0.000004   0.000000
     8  O    0.005665   0.005401   0.004511   0.001428   0.015259  -0.000277
     9  N   -0.000260  -0.000023  -0.000039   0.000007   0.332007  -0.063678
    10  H    0.000041   0.000001   0.000005   0.000000  -0.022506  -0.002488
    11  N    0.301285  -0.051723  -0.045464  -0.027329  -0.000507  -0.000088
    12  H   -0.033124   0.004205   0.001501  -0.008121  -0.000068   0.000003
    13  C    4.766045   0.394228   0.402166   0.393513  -0.000211  -0.000007
    14  H    0.394228   0.618491  -0.055093  -0.027318  -0.000044  -0.000001
    15  H    0.402166  -0.055093   0.604951  -0.027396   0.000128   0.000003
    16  H    0.393513  -0.027318  -0.027396   0.601480  -0.000007   0.000000
    17  C   -0.000211  -0.000044   0.000128  -0.000007   4.536091   0.276702
    18  C   -0.000007  -0.000001   0.000003   0.000000   0.276702   5.001134
    19  H    0.000001   0.000000   0.000000   0.000000  -0.055046   0.393172
    20  H    0.000000   0.000000   0.000000   0.000000  -0.025585   0.384908
    21  H    0.000002   0.000000   0.000001   0.000000  -0.024247   0.388407
    22  O   -0.000240   0.000010   0.000097  -0.000003   0.720735  -0.069908
    23  C   -0.000461  -0.000856   0.000084  -0.000023   0.000759   0.000013
    24  H    0.000174   0.001311  -0.000124  -0.000008  -0.000023   0.000022
    25  C   -0.000001  -0.000061   0.000008   0.000000   0.000121  -0.000172
    26  H    0.000000   0.000000   0.000000   0.000000  -0.000025   0.000011
    27  H   -0.000020   0.000001  -0.000003   0.000000   0.000892   0.000315
    28  H    0.000000  -0.000003   0.000000   0.000000   0.000005   0.000001
    29  C   -0.000362  -0.000059  -0.000059  -0.000020   0.008263   0.000343
    30  H    0.000052  -0.000015   0.000010   0.000001  -0.000356  -0.000073
    31  H    0.000085  -0.000097   0.000058   0.000022  -0.000286   0.000033
              19         20         21         22         23         24
     1  C    0.000278  -0.000134   0.000666  -0.004495  -0.024300   0.017826
     2  C    0.000455  -0.000478  -0.000738   0.022120  -0.030132  -0.002706
     3  H   -0.000270   0.000167  -0.000145   0.014937   0.010326   0.000065
     4  C   -0.000001   0.000000   0.000000   0.000001   0.265492  -0.034994
     5  H    0.000000   0.000000   0.000000   0.000000  -0.039917  -0.005471
     6  H    0.000000   0.000000   0.000000   0.000000  -0.029512  -0.008497
     7  H    0.000000   0.000000   0.000000   0.000000  -0.034417   0.007443
     8  O   -0.000006   0.000035   0.000277  -0.003734   0.003627   0.006770
     9  N    0.012639  -0.000494  -0.000930  -0.136561   0.011126  -0.000870
    10  H   -0.001015  -0.000887   0.000926   0.004356  -0.003622   0.000199
    11  N    0.000009   0.000005  -0.000002  -0.003097   0.007900  -0.006980
    12  H    0.000001   0.000001  -0.000002  -0.000119   0.000207  -0.000044
    13  C    0.000001   0.000000   0.000002  -0.000240  -0.000461   0.000174
    14  H    0.000000   0.000000   0.000000   0.000010  -0.000856   0.001311
    15  H    0.000000   0.000000   0.000001   0.000097   0.000084  -0.000124
    16  H    0.000000   0.000000   0.000000  -0.000003  -0.000023  -0.000008
    17  C   -0.055046  -0.025585  -0.024247   0.720735   0.000759  -0.000023
    18  C    0.393172   0.384908   0.388407  -0.069908   0.000013   0.000022
    19  H    0.603745  -0.027348  -0.024539   0.004634  -0.000005  -0.000009
    20  H   -0.027348   0.578526  -0.025154   0.002297   0.000016  -0.000002
    21  H   -0.024539  -0.025154   0.562911   0.000948  -0.000025   0.000001
    22  O    0.004634   0.002297   0.000948   7.852708  -0.000123   0.000044
    23  C   -0.000005   0.000016  -0.000025  -0.000123   5.390526   0.405526
    24  H   -0.000009  -0.000002   0.000001   0.000044   0.405526   0.479785
    25  C    0.000143  -0.000015   0.000032   0.000006   0.263065  -0.033368
    26  H    0.000015   0.000000   0.000000   0.000000  -0.046222   0.007581
    27  H    0.000262   0.000073  -0.000142  -0.000045  -0.024954  -0.007567
    28  H   -0.000007   0.000000  -0.000001   0.000000  -0.035579  -0.005300
    29  C   -0.000269  -0.000027   0.000016   0.002807   0.181000  -0.045120
    30  H   -0.000020  -0.000028   0.000017  -0.000090  -0.050944   0.004365
    31  H   -0.000002  -0.000003  -0.000001   0.000052  -0.053943   0.002103
              25         26         27         28         29         30
     1  C   -0.001858   0.000232  -0.002610  -0.000054  -0.032442   0.010543
     2  C    0.009580   0.000631  -0.000520  -0.000649   0.215862  -0.028717
     3  H   -0.000772  -0.000004   0.000549   0.000033  -0.038661  -0.007257
     4  C   -0.072945  -0.008724   0.010140  -0.006352  -0.043445  -0.005123
     5  H   -0.007079  -0.000527  -0.000023   0.004351   0.009535  -0.000336
     6  H    0.009638  -0.000149  -0.000382   0.000011  -0.006319   0.000831
     7  H   -0.007223   0.003808  -0.000069  -0.000351  -0.008782   0.001146
     8  O   -0.001823  -0.000021   0.002254  -0.000010  -0.004151  -0.000516
     9  N   -0.008843   0.000123   0.007253   0.000225  -0.058593   0.000301
    10  H    0.003164  -0.000550  -0.003077   0.000274   0.001320   0.003229
    11  N    0.000567  -0.000013   0.000204   0.000015   0.000832   0.000124
    12  H    0.000001   0.000001  -0.000003   0.000000  -0.001589  -0.000210
    13  C   -0.000001   0.000000  -0.000020   0.000000  -0.000362   0.000052
    14  H   -0.000061   0.000000   0.000001  -0.000003  -0.000059  -0.000015
    15  H    0.000008   0.000000  -0.000003   0.000000  -0.000059   0.000010
    16  H    0.000000   0.000000   0.000000   0.000000  -0.000020   0.000001
    17  C    0.000121  -0.000025   0.000892   0.000005   0.008263  -0.000356
    18  C   -0.000172   0.000011   0.000315   0.000001   0.000343  -0.000073
    19  H    0.000143   0.000015   0.000262  -0.000007  -0.000269  -0.000020
    20  H   -0.000015   0.000000   0.000073   0.000000  -0.000027  -0.000028
    21  H    0.000032   0.000000  -0.000142  -0.000001   0.000016   0.000017
    22  O    0.000006   0.000000  -0.000045   0.000000   0.002807  -0.000090
    23  C    0.263065  -0.046222  -0.024954  -0.035579   0.181000  -0.050944
    24  H   -0.033368   0.007581  -0.007567  -0.005300  -0.045120   0.004365
    25  C    5.173245   0.404769   0.384801   0.403312  -0.065989   0.000483
    26  H    0.404769   0.539992  -0.031047  -0.023702  -0.008216   0.004983
    27  H    0.384801  -0.031047   0.532286  -0.009848  -0.003807  -0.002820
    28  H    0.403312  -0.023702  -0.009848   0.522993   0.008572   0.000067
    29  C   -0.065989  -0.008216  -0.003807   0.008572   5.510342   0.399133
    30  H    0.000483   0.004983  -0.002820   0.000067   0.399133   0.458354
    31  H    0.006527   0.000218  -0.000621  -0.000322   0.424134   0.001572
              31
     1  C    0.001481
     2  C   -0.040590
     3  H   -0.009143
     4  C   -0.009832
     5  H    0.000426
     6  H    0.002519
     7  H   -0.000485
     8  O   -0.000257
     9  N    0.003778
    10  H    0.000538
    11  N   -0.002035
    12  H    0.002815
    13  C    0.000085
    14  H   -0.000097
    15  H    0.000058
    16  H    0.000022
    17  C   -0.000286
    18  C    0.000033
    19  H   -0.000002
    20  H   -0.000003
    21  H   -0.000001
    22  O    0.000052
    23  C   -0.053943
    24  H    0.002103
    25  C    0.006527
    26  H    0.000218
    27  H   -0.000621
    28  H   -0.000322
    29  C    0.424134
    30  H    0.001572
    31  H    0.464702
 Mulliken charges:
               1
     1  C    0.276721
     2  C   -0.143783
     3  H    0.221351
     4  C   -0.415578
     5  H    0.137480
     6  H    0.133616
     7  H    0.144726
     8  O   -0.387863
     9  N   -0.209782
    10  H    0.175033
    11  N   -0.128753
    12  H    0.126481
    13  C   -0.169941
    14  H    0.112129
    15  H    0.120343
    16  H    0.085467
    17  C    0.305404
    18  C   -0.319958
    19  H    0.093184
    20  H    0.114126
    21  H    0.121720
    22  O   -0.407339
    23  C   -0.164633
    24  H    0.217867
    25  C   -0.459308
    26  H    0.156835
    27  H    0.148529
    28  H    0.142319
    29  C   -0.444246
    30  H    0.211293
    31  H    0.206557
 Sum of Mulliken charges =   0.00000
 Mulliken charges with hydrogens summed into heavy atoms:
               1
     1  C    0.276721
     2  C    0.077568
     4  C    0.000245
     8  O   -0.387863
     9  N   -0.034749
    11  N   -0.002272
    13  C    0.147999
    17  C    0.305404
    18  C    0.009072
    22  O   -0.407339
    23  C    0.053234
    25  C   -0.011625
    29  C   -0.026396
 Electronic spatial extent (au):  <R**2>=           2913.5667
 Charge=              0.0000 electrons
 Dipole moment (field-independent basis, Debye):
    X=             -3.5183    Y=             -1.9335    Z=             -2.1320  Tot=              4.5456
 Quadrupole moment (field-independent basis, Debye-Ang):
   XX=            -83.6139   YY=            -71.1308   ZZ=            -81.9603
   XY=            -11.3060   XZ=              3.0478   YZ=             -3.7829
 Traceless Quadrupole moment (field-independent basis, Debye-Ang):
   XX=             -4.7122   YY=              7.7709   ZZ=             -3.0586
   XY=            -11.3060   XZ=              3.0478   YZ=             -3.7829
 Octapole moment (field-independent basis, Debye-Ang**2):
  XXX=              3.1983  YYY=             34.3663  ZZZ=             -7.5192  XYY=             -6.5351
  XXY=            -18.2308  XXZ=             14.1307  XZZ=             -0.6885  YZZ=              3.1813
  YYZ=             -2.6354  XYZ=              4.1866
 Hexadecapole moment (field-independent basis, Debye-Ang**3):
 XXXX=          -2112.8869 YYYY=          -1357.8643 ZZZZ=           -336.7441 XXXY=            -86.5880
 XXXZ=             19.3789 YYYX=            -47.9502 YYYZ=              1.5299 ZZZX=             -2.0654
 ZZZY=            -14.8485 XXYY=           -582.7197 XXZZ=           -392.9579 YYZZ=           -291.5564
 XXYZ=              2.4563 YYXZ=              5.9461 ZZXY=             -8.0941
 N-N= 8.744038600518D+02 E-N=-3.178524221877D+03  KE= 6.091260990519D+02
 Calculating spin-rotation constants.
 Leave Link  601 at Thu Jun 19 02:39:06 2014, MaxMem=  4294967296 cpu:        70.6
 (Enter /home/ztw1e12/g09/l9999.exe)

 Test job not archived.
 1\1\GINC-GREEN0376\SP\RM06\Gen\C9H18N2O2\ROOT\19-Jun-2014\0\\#P Geom=A
 llCheck Guess=TCheck SCRF=Check GenChk RM06/ChkBas NMR=ReadFC IOp(3/6=
 22)\\NMR spin-spin scan\\0,1\C,0,0.675659,0.648455,0.650509\C,0,0.1481
 47,0.253301,-0.724499\H,0,0.552079,0.968888,-1.447282\C,0,-3.403724,0.
 513572,0.667902\H,0,-3.983105,0.076456,1.483574\H,0,-3.162083,1.544178
 ,0.93577\H,0,-4.046739,0.540671,-0.217978\O,0,1.060679,-0.174686,1.475
 725\N,0,0.608238,-1.064871,-1.091037\H,0,-0.06405,-1.810014,-1.182515\
 N,0,0.648695,1.960654,0.901888\H,0,0.329039,2.588254,0.181145\C,0,1.05
 5435,2.497783,2.180385\H,0,0.457407,2.079221,2.990484\H,0,2.104485,2.2
 79503,2.382674\H,0,0.921001,3.57494,2.169003\C,0,1.907707,-1.327043,-1
 .308021\C,0,2.253601,-2.734153,-1.666978\H,0,1.385825,-3.387413,-1.728
 491\H,0,2.776184,-2.735829,-2.62324\H,0,2.942912,-3.125712,-0.918872\O
 ,0,2.768564,-0.45201,-1.221038\C,0,-2.147449,-0.291285,0.390539\H,0,-1
 .526783,-0.240983,1.292774\C,0,-2.488262,-1.748583,0.139126\H,0,-3.075
 698,-1.851914,-0.77822\H,0,-1.600849,-2.377954,0.042632\H,0,-3.080621,
 -2.156855,0.960568\C,0,-1.375355,0.345393,-0.769747\H,0,-1.720393,-0.0
 70122,-1.722308\H,0,-1.614921,1.411455,-0.804135\\Version=EM64L-G09Rev
 D.01\State=1-A\HF=-613.580398\RMSD=9.824e-09\Dipole=-1.6571443,0.46843
 54,-0.4823816\Quadrupole=-8.2850091,9.756964,-1.4719549,-0.3790557,1.0
 15313,4.9935561\PG=C01 [X(C9H18N2O2)]\\@


 YE HAVE SOWN MUCH, AND BRING IN LITTLE.
 YE EAT, BUT YE HAVE NOT ENOUGH.
 YE DRINK, BUT YE ARE NOT FILLED WITH DRINK.
 YE CLOTHE YOU, BUT THERE IS NONE WARM.
 AND HE THAT EARNETH WAGES EARNETH WAGES TO PUT
 IT INTO A BAG WITH HOLES.
                                     HAGGAI I,6
 Job cpu time:       2 days 12 hours 26 minutes  1.5 seconds.
 File lengths (MBytes):  RWF=   2456 Int=      0 D2E=      0 Chk=     48 Scr=      8
 Normal termination of Gaussian 09 at Thu Jun 19 02:39:07 2014.
