 Entering Gaussian System, Link 0=g09
 Input=scan_input_24.gjf
 Output=scan_input_24.log
 Initial command:
 /home/ztw1e12/g09/l1.exe "/home/ztw1e12/leucine_scan/leucine_chi2_scan/Gau-20447.inp" -scrdir="/home/ztw1e12/leucine_scan/leucine_chi2_scan/"
 Default is to use a total of   8 processors:
                                8 via shared-memory
                                1 via Linda
 Entering Link 1 = /home/ztw1e12/g09/l1.exe PID=     20448.
  
 Copyright (c) 1988,1990,1992,1993,1995,1998,2003,2009,2013,
            Gaussian, Inc.  All Rights Reserved.
  
 This is part of the Gaussian(R) 09 program.  It is based on
 the Gaussian(R) 03 system (copyright 2003, Gaussian, Inc.),
 the Gaussian(R) 98 system (copyright 1998, Gaussian, Inc.),
 the Gaussian(R) 94 system (copyright 1995, Gaussian, Inc.),
 the Gaussian 92(TM) system (copyright 1992, Gaussian, Inc.),
 the Gaussian 90(TM) system (copyright 1990, Gaussian, Inc.),
 the Gaussian 88(TM) system (copyright 1988, Gaussian, Inc.),
 the Gaussian 86(TM) system (copyright 1986, Carnegie Mellon
 University), and the Gaussian 82(TM) system (copyright 1983,
 Carnegie Mellon University). Gaussian is a federally registered
 trademark of Gaussian, Inc.
  
 This software contains proprietary and confidential information,
 including trade secrets, belonging to Gaussian, Inc.
  
 This software is provided under written license and may be
 used, copied, transmitted, or stored only in accord with that
 written license.
  
 The following legend is applicable only to US Government
 contracts under FAR:
  
                    RESTRICTED RIGHTS LEGEND
  
 Use, reproduction and disclosure by the US Government is
 subject to restrictions as set forth in subparagraphs (a)
 and (c) of the Commercial Computer Software - Restricted
 Rights clause in FAR 52.227-19.
  
 Gaussian, Inc.
 340 Quinnipiac St., Bldg. 40, Wallingford CT 06492
  
  
 ---------------------------------------------------------------
 Warning -- This program may not be used in any manner that
 competes with the business of Gaussian, Inc. or will provide
 assistance to any competitor of Gaussian, Inc.  The licensee
 of this program is prohibited from giving any competitor of
 Gaussian, Inc. access to this program.  By using this program,
 the user acknowledges that Gaussian, Inc. is engaged in the
 business of creating and licensing software in the field of
 computational chemistry and represents and warrants to the
 licensee that it is not a competitor of Gaussian, Inc. and that
 it will not use this program in any manner prohibited above.
 ---------------------------------------------------------------
  

 Cite this work as:
 Gaussian 09, Revision D.01,
 M. J. Frisch, G. W. Trucks, H. B. Schlegel, G. E. Scuseria, 
 M. A. Robb, J. R. Cheeseman, G. Scalmani, V. Barone, B. Mennucci, 
 G. A. Petersson, H. Nakatsuji, M. Caricato, X. Li, H. P. Hratchian, 
 A. F. Izmaylov, J. Bloino, G. Zheng, J. L. Sonnenberg, M. Hada, 
 M. Ehara, K. Toyota, R. Fukuda, J. Hasegawa, M. Ishida, T. Nakajima, 
 Y. Honda, O. Kitao, H. Nakai, T. Vreven, J. A. Montgomery, Jr., 
 J. E. Peralta, F. Ogliaro, M. Bearpark, J. J. Heyd, E. Brothers, 
 K. N. Kudin, V. N. Staroverov, T. Keith, R. Kobayashi, J. Normand, 
 K. Raghavachari, A. Rendell, J. C. Burant, S. S. Iyengar, J. Tomasi, 
 M. Cossi, N. Rega, J. M. Millam, M. Klene, J. E. Knox, J. B. Cross, 
 V. Bakken, C. Adamo, J. Jaramillo, R. Gomperts, R. E. Stratmann, 
 O. Yazyev, A. J. Austin, R. Cammi, C. Pomelli, J. W. Ochterski, 
 R. L. Martin, K. Morokuma, V. G. Zakrzewski, G. A. Voth, 
 P. Salvador, J. J. Dannenberg, S. Dapprich, A. D. Daniels, 
 O. Farkas, J. B. Foresman, J. V. Ortiz, J. Cioslowski, 
 and D. J. Fox, Gaussian, Inc., Wallingford CT, 2013.
 
 ******************************************
 Gaussian 09:  EM64L-G09RevD.01 24-Apr-2013
                18-Jun-2014 
 ******************************************
 %Mem=32GB
 %NProcShared=16
 Will use up to   16 processors via shared memory.
 Default route:  MaxDisk=100GB
 ----------------------------------------------------------------------
 #p nmr=(giao,mixed,spinspin) m06/cc-pvtz scf=tight integral=(grid=ultr
 afine)
 ----------------------------------------------------------------------
 1/38=1/1;
 2/12=2,17=6,18=5,40=1/2;
 3/5=16,6=1,10=1100000,11=2,16=1,25=1,30=1,74=-54,75=-5/1,2,8,3;
 4//1;
 5/5=2,32=2,38=5/2;
 8/6=1,10=90,11=11/1;
 10/13=100,45=16,47=3/2;
 6/7=2,8=2,9=2,10=2,28=1/1;
 99/9=1/99;
 Leave Link    1 at Wed Jun 18 11:00:06 2014, MaxMem=  4294967296 cpu:         9.6
 (Enter /home/ztw1e12/g09/l101.exe)
 ------------------
 NMR spin-spin scan
 ------------------
 Symbolic Z-matrix:
 Charge =  0 Multiplicity = 1
 C                     0.55845   0.86446   0.5291 
 C                     0.15998   0.1353   -0.75613 
 H                     0.60348   0.7243   -1.56421 
 C                    -1.94162  -0.76242   1.31353 
 H                    -2.65713  -1.38282   1.8573 
 H                    -0.94195  -1.10322   1.58152 
 H                    -2.05855   0.2639    1.67871 
 O                     1.14323   0.31296   1.45633 
 N                     0.75059  -1.17982  -0.813 
 H                     0.20793  -1.96421  -0.48486 
 N                     0.25887   2.16769   0.54979 
 H                    -0.21036   2.57795  -0.24129 
 C                     0.52652   2.98494   1.71091 
 H                     0.02087   2.58803   2.59269 
 H                     1.59497   3.03281   1.92335 
 H                     0.16348   3.99126   1.5253 
 C                     2.07534  -1.3555   -0.98 
 C                     2.5797   -2.75219  -0.82429 
 H                     1.78235  -3.48966  -0.7611 
 H                     3.23732  -2.99336  -1.65793 
 H                     3.17536  -2.79931   0.08839 
 O                     2.83039  -0.42243  -1.24652 
 C                    -2.20802  -0.84617  -0.17751 
 H                    -2.00516  -1.87922  -0.48914 
 C                    -3.66567  -0.55466  -0.47781 
 H                    -3.92936   0.44968  -0.13216 
 H                    -3.87256  -0.60219  -1.54919 
 H                    -4.32385  -1.26455   0.02609 
 C                    -1.341     0.08037  -1.02808 
 H                    -1.47715  -0.18822  -2.07873 
 H                    -1.73082   1.09956  -0.93075 
 
 NAtoms=     31 NQM=       31 NQMF=       0 NMMI=      0 NMMIF=      0
                NMic=       0 NMicF=      0.
                    Isotopes and Nuclear Properties:
 (Nuclear quadrupole moments (NQMom) in fm**2, nuclear magnetic moments (NMagM)
  in nuclear magnetons)

  Atom         1           2           3           4           5           6           7           8           9          10
 IAtWgt=          12          12           1          12           1           1           1          16          14           1
 AtmWgt=  12.0000000  12.0000000   1.0078250  12.0000000   1.0078250   1.0078250   1.0078250  15.9949146  14.0030740   1.0078250
 NucSpn=           0           0           1           0           1           1           1           0           2           1
 AtZEff=   0.0000000   0.0000000   0.0000000   0.0000000   0.0000000   0.0000000   0.0000000   0.0000000   0.0000000   0.0000000
 NQMom=    0.0000000   0.0000000   0.0000000   0.0000000   0.0000000   0.0000000   0.0000000   0.0000000   2.0440000   0.0000000
 NMagM=    0.0000000   0.0000000   2.7928460   0.0000000   2.7928460   2.7928460   2.7928460   0.0000000   0.4037610   2.7928460
 AtZNuc=   6.0000000   6.0000000   1.0000000   6.0000000   1.0000000   1.0000000   1.0000000   8.0000000   7.0000000   1.0000000

  Atom        11          12          13          14          15          16          17          18          19          20
 IAtWgt=          14           1          12           1           1           1          12          12           1           1
 AtmWgt=  14.0030740   1.0078250  12.0000000   1.0078250   1.0078250   1.0078250  12.0000000  12.0000000   1.0078250   1.0078250
 NucSpn=           2           1           0           1           1           1           0           0           1           1
 AtZEff=   0.0000000   0.0000000   0.0000000   0.0000000   0.0000000   0.0000000   0.0000000   0.0000000   0.0000000   0.0000000
 NQMom=    2.0440000   0.0000000   0.0000000   0.0000000   0.0000000   0.0000000   0.0000000   0.0000000   0.0000000   0.0000000
 NMagM=    0.4037610   2.7928460   0.0000000   2.7928460   2.7928460   2.7928460   0.0000000   0.0000000   2.7928460   2.7928460
 AtZNuc=   7.0000000   1.0000000   6.0000000   1.0000000   1.0000000   1.0000000   6.0000000   6.0000000   1.0000000   1.0000000

  Atom        21          22          23          24          25          26          27          28          29          30
 IAtWgt=           1          16          12           1          12           1           1           1          12           1
 AtmWgt=   1.0078250  15.9949146  12.0000000   1.0078250  12.0000000   1.0078250   1.0078250   1.0078250  12.0000000   1.0078250
 NucSpn=           1           0           0           1           0           1           1           1           0           1
 AtZEff=   0.0000000   0.0000000   0.0000000   0.0000000   0.0000000   0.0000000   0.0000000   0.0000000   0.0000000   0.0000000
 NQMom=    0.0000000   0.0000000   0.0000000   0.0000000   0.0000000   0.0000000   0.0000000   0.0000000   0.0000000   0.0000000
 NMagM=    2.7928460   0.0000000   0.0000000   2.7928460   0.0000000   2.7928460   2.7928460   2.7928460   0.0000000   2.7928460
 AtZNuc=   1.0000000   8.0000000   6.0000000   1.0000000   6.0000000   1.0000000   1.0000000   1.0000000   6.0000000   1.0000000

  Atom        31
 IAtWgt=           1
 AtmWgt=   1.0078250
 NucSpn=           1
 AtZEff=   0.0000000
 NQMom=    0.0000000
 NMagM=    2.7928460
 AtZNuc=   1.0000000
 Leave Link  101 at Wed Jun 18 11:00:06 2014, MaxMem=  4294967296 cpu:         1.9
 (Enter /home/ztw1e12/g09/l202.exe)
                          Input orientation:                          
 ---------------------------------------------------------------------
 Center     Atomic      Atomic             Coordinates (Angstroms)
 Number     Number       Type             X           Y           Z
 ---------------------------------------------------------------------
      1          6           0        0.558448    0.864457    0.529095
      2          6           0        0.159975    0.135302   -0.756130
      3          1           0        0.603484    0.724302   -1.564208
      4          6           0       -1.941619   -0.762415    1.313533
      5          1           0       -2.657127   -1.382818    1.857304
      6          1           0       -0.941946   -1.103220    1.581516
      7          1           0       -2.058549    0.263900    1.678713
      8          8           0        1.143227    0.312964    1.456334
      9          7           0        0.750588   -1.179818   -0.813001
     10          1           0        0.207929   -1.964206   -0.484855
     11          7           0        0.258872    2.167690    0.549791
     12          1           0       -0.210356    2.577947   -0.241291
     13          6           0        0.526520    2.984942    1.710909
     14          1           0        0.020871    2.588033    2.592693
     15          1           0        1.594965    3.032814    1.923353
     16          1           0        0.163484    3.991256    1.525303
     17          6           0        2.075339   -1.355499   -0.979996
     18          6           0        2.579698   -2.752193   -0.824290
     19          1           0        1.782347   -3.489655   -0.761103
     20          1           0        3.237322   -2.993358   -1.657925
     21          1           0        3.175364   -2.799305    0.088394
     22          8           0        2.830388   -0.422427   -1.246522
     23          6           0       -2.208020   -0.846171   -0.177510
     24          1           0       -2.005157   -1.879219   -0.489140
     25          6           0       -3.665671   -0.554659   -0.477812
     26          1           0       -3.929356    0.449676   -0.132162
     27          1           0       -3.872562   -0.602193   -1.549188
     28          1           0       -4.323854   -1.264552    0.026093
     29          6           0       -1.341004    0.080374   -1.028081
     30          1           0       -1.477153   -0.188219   -2.078726
     31          1           0       -1.730823    1.099564   -0.930753
 ---------------------------------------------------------------------
                    Distance matrix (angstroms):
                    1          2          3          4          5
     1  C    0.000000
     2  C    1.530441   0.000000
     3  H    2.098473   1.093897   0.000000
     4  C    3.084216   3.083196   4.119377   0.000000
     5  H    4.141776   4.131681   5.174774   1.092034   0.000000
     6  H    2.688964   2.865791   3.952691   1.089637   1.759568
     7  H    2.920781   3.296490   4.220773   1.095606   1.761213
     8  O    1.227144   2.427621   3.095835   3.270032   4.180807
     9  N    2.452998   1.442775   2.052224   3.456060   4.334081
    10  H    3.025276   2.117504   2.923960   3.049436   3.745967
    11  N    1.337382   2.417811   2.582851   3.743124   4.776897
    12  H    2.029927   2.523632   2.418356   4.070966   5.106706
    13  C    2.427789   3.786962   3.980303   4.504698   5.406881
    14  H    2.741923   4.153294   4.592685   4.088168   4.845630
    15  H    2.778506   4.199333   4.298295   5.223320   6.130453
    16  H    3.305344   4.480327   4.517927   5.203239   6.078383
    17  C    3.083264   2.437462   2.614045   4.663472   5.517903
    18  C    4.358585   3.767935   4.066807   5.382547   6.040734
    19  H    4.703279   3.971452   4.448835   5.060620   5.568101
    20  H    5.180942   4.480158   4.557069   6.374018   7.049482
    21  H    4.523894   4.291586   4.664919   5.642110   6.257270
    22  O    3.157625   2.771760   2.524879   5.426004   6.377218
    23  C    3.328496   2.627830   3.506262   1.516969   2.151780
    24  H    3.890582   2.969407   3.839154   2.121537   2.485413
    25  C    4.568472   3.897316   4.587121   2.494882   2.675028
    26  H    4.555183   4.148590   4.761598   2.740492   2.989076
    27  H    5.109224   4.175427   4.668490   3.456788   3.700114
    28  H    5.350006   4.761952   5.546463   2.754031   2.478971
    29  C    2.578275   1.526405   2.117335   2.560115   3.492643
    30  H    3.471675   2.129346   2.329479   3.471722   4.279222
    31  H    2.725288   2.129651   2.447667   2.923734   3.846235
                    6          7          8          9         10
     6  H    0.000000
     7  H    1.767842   0.000000
     8  O    2.523726   3.209864   0.000000
     9  N    2.933300   4.022960   2.744530   0.000000
    10  H    2.516624   3.844789   3.135044   1.008674   0.000000
    11  N    3.633906   3.204578   2.245866   3.647574   4.259771
    12  H    4.172390   3.529454   3.137557   3.920595   4.567870
    13  C    4.345826   3.753357   2.754016   4.874993   5.423739
    14  H    3.946498   3.249760   2.779736   5.131076   5.498106
    15  H    4.864108   4.590740   2.796383   5.093807   5.717827
    16  H    5.213331   4.342136   3.807162   5.705468   6.285717
    17  C    3.965980   5.174961   3.096499   1.346743   2.025564
    18  C    4.572635   6.072493   4.081652   2.412081   2.522187
    19  H    4.313318   5.898674   4.448080   2.530329   2.209547
    20  H    5.615415   7.056141   5.001561   3.191656   3.407707
    21  H    4.696633   6.269464   3.960689   3.052014   3.135550
    22  O    4.763589   5.738445   3.269976   2.255471   3.136002
    23  C    2.182473   2.167986   3.904343   3.044426   2.679790
    24  H    2.453611   3.048835   4.301495   2.861499   2.214721
    25  C    3.458385   2.811313   5.255396   4.472865   4.122093
    26  H    3.777936   2.610306   5.317246   5.002066   4.802952
    27  H    4.317505   3.802644   5.918515   4.716899   4.431511
    28  H    3.725946   3.193576   5.867122   5.144047   4.613853
    29  C    2.893119   2.806294   3.521054   2.451347   2.621945
    30  H    3.810649   3.828940   4.428795   2.747391   2.921311
    31  H    3.433086   2.759538   3.817995   3.371476   3.652981
                   11         12         13         14         15
    11  N    0.000000
    12  H    1.007123   0.000000
    13  C    1.444898   2.125962   0.000000
    14  H    2.099234   2.843419   1.091220   0.000000
    15  H    2.102441   2.855131   1.090412   1.767376   0.000000
    16  H    2.070294   2.293044   1.085777   1.768812   1.768104
    17  C    4.248842   4.608914   5.336594   5.704068   5.283700
    18  C    5.610667   6.044393   6.599810   6.836767   6.479626
    19  H    6.003746   6.407563   7.043320   7.161636   7.055779
    20  H    6.354651   6.703191   7.378181   7.717852   7.199836
    21  H    5.778395   6.362911   6.565550   6.726496   6.314931
    22  O    4.067941   4.388491   5.066001   5.629905   4.849028
    23  C    3.962055   3.964759   5.071613   4.943252   5.824332
    24  H    4.752123   4.811348   5.908440   5.792998   6.550501
    25  C    4.885610   4.669943   5.907092   5.735426   6.805134
    26  H    4.577978   4.286305   5.447873   5.253732   6.435516
    27  H    5.398769   5.023509   6.545815   6.518554   7.427359
    28  H    5.749428   5.635349   6.665053   6.348739   7.556412
    29  C    3.066948   2.852240   4.407519   4.610104   5.103702
    30  H    3.933598   3.554239   5.333384   5.636826   5.985783
    31  H    2.700331   2.229976   3.953306   4.206976   4.790015
                   16         17         18         19         20
    16  H    0.000000
    17  C    6.206408   0.000000
    18  C    7.538752   1.493110   0.000000
    19  H    7.988266   2.165267   1.087939   0.000000
    20  H    8.268389   2.119522   1.088842   1.779762   0.000000
    21  H    7.566231   2.106202   1.090885   1.771645   1.758160
    22  O    5.854570   1.229536   2.380953   3.277485   2.635248
    23  C    5.650160   4.387546   5.193601   4.821993   6.037697
    24  H    6.574455   4.143147   4.679242   4.124640   5.485522
    25  C    6.272180   5.818310   6.629769   6.194785   7.415607
    26  H    5.660505   6.327230   7.286892   6.966882   8.095907
    27  H    6.844117   6.022373   6.839564   6.398165   7.501996
    28  H    7.071588   6.478438   7.113034   6.546484   7.937006
    29  C    4.906960   3.706136   4.841164   4.750969   5.550279
    30  H    5.757493   3.897429   4.960404   4.822857   5.502014
    31  H    4.240577   4.529528   5.781692   5.782048   6.477905
                   21         22         23         24         25
    21  H    0.000000
    22  O    2.747828   0.000000
    23  C    5.732910   5.167969   0.000000
    24  H    5.293194   5.106698   1.097932   0.000000
    25  C    7.222104   6.542720   1.516544   2.124122   0.000000
    26  H    7.815470   6.906265   2.155058   3.041994   1.094391
    27  H    7.561894   6.712188   2.170651   2.498339   1.092204
    28  H    7.654908   7.315183   2.166391   2.453495   1.091363
    29  C    5.471439   4.207260   1.527637   2.138121   2.471870
    30  H    5.758480   4.393441   2.140488   2.380137   2.736204
    31  H    6.349056   4.818798   2.140322   3.023810   2.585584
                   26         27         28         29         30
    26  H    0.000000
    27  H    1.765677   0.000000
    28  H    1.766140   1.767454   0.000000
    29  C    2.763806   2.673244   3.437660   0.000000
    30  H    3.195203   2.487925   3.700333   1.092947   0.000000
    31  H    2.427684   2.804547   3.637088   1.095527   1.743725
                   31
    31  H    0.000000
 Stoichiometry    C9H18N2O2
 Framework group  C1[X(C9H18N2O2)]
 Deg. of freedom    87
 Full point group                 C1      NOp   1
 Largest Abelian subgroup         C1      NOp   1
 Largest concise Abelian subgroup C1      NOp   1
                         Standard orientation:                         
 ---------------------------------------------------------------------
 Center     Atomic      Atomic             Coordinates (Angstroms)
 Number     Number       Type             X           Y           Z
 ---------------------------------------------------------------------
      1          6           0        0.035337    1.214438    0.069555
      2          6           0        0.165694   -0.072490   -0.748416
      3          1           0        0.562744    0.246983   -1.716352
      4          6           0       -1.936584   -0.745951    1.404019
      5          1           0       -2.519909   -1.302973    2.140223
      6          1           0       -0.960782   -0.542928    1.844361
      7          1           0       -2.442985    0.212768    1.246645
      8          8           0        0.553665    1.360711    1.172198
      9          7           0        1.136017   -0.965391   -0.162927
     10          1           0        0.809571   -1.683066    0.466199
     11          7           0       -0.654113    2.191511   -0.529259
     12          1           0       -1.049995    2.027870   -1.440739
     13          6           0       -0.906983    3.451015    0.132131
     14          1           0       -1.437223    3.298123    1.073529
     15          1           0        0.022651    3.979085    0.346427
     16          1           0       -1.518777    4.072537   -0.514654
     17          6           0        2.453028   -0.684040   -0.169337
     18          6           0        3.324120   -1.588745    0.638181
     19          1           0        2.803061   -2.472800    0.999507
     20          1           0        4.184526   -1.888081    0.041795
     21          1           0        3.697831   -1.026166    1.494845
     22          8           0        2.916646    0.262053   -0.803154
     23          6           0       -1.842357   -1.533550    0.110959
     24          1           0       -1.265573   -2.443452    0.322745
     25          6           0       -3.220036   -1.962425   -0.355918
     26          1           0       -3.851344   -1.085011   -0.527051
     27          1           0       -3.170613   -2.523655   -1.291594
     28          1           0       -3.713867   -2.588714    0.389042
     29          6           0       -1.149727   -0.793129   -1.031719
     30          1           0       -0.970020   -1.502575   -1.843461
     31          1           0       -1.850074   -0.053629   -1.435247
 ---------------------------------------------------------------------
 Rotational constants (GHZ):      0.8471962      0.6135399      0.4240223
 Leave Link  202 at Wed Jun 18 11:00:07 2014, MaxMem=  4294967296 cpu:         2.4
 (Enter /home/ztw1e12/g09/l301.exe)
 Standard basis: CC-pVTZ (5D, 7F)
 Converting basis for Fermi contact spin-spin IFCMod=1.
 AO basis functions are being uncontracted.
 Ernie: Thresh=  0.10000D-02 Tol=  0.10000D-05 Strict=F.
 There are  1119 symmetry adapted cartesian basis functions of A   symmetry.
 There are  1036 symmetry adapted basis functions of A   symmetry.
  1036 basis functions,  1119 primitive gaussians,  1119 cartesian basis functions
    51 alpha electrons       51 beta electrons
       nuclear repulsion energy       876.3108278630 Hartrees.
 IExCor= 4235 DFT=T Ex+Corr=M06 ExCW=0 ScaHFX=  0.270000
 ScaDFX=  1.000000  1.000000  1.000000  1.000000 ScalE2=  1.000000  1.000000
 IRadAn= 199590 IRanWt=     -1 IRanGd=            0 ICorTp=0 IEmpDi=  4
 NAtoms=   31 NActive=   31 NUniq=   31 SFac= 1.00D+00 NAtFMM=   60 NAOKFM=F Big=F
 Integral buffers will be    131072 words long.
 Raffenetti 2 integral format.
 Two-electron integral symmetry is turned on.
 Leave Link  301 at Wed Jun 18 11:00:07 2014, MaxMem=  4294967296 cpu:         7.1
 (Enter /home/ztw1e12/g09/l302.exe)
 NPDir=0 NMtPBC=     1 NCelOv=     1 NCel=       1 NClECP=     1 NCelD=      1
         NCelK=      1 NCelE2=     1 NClLst=     1 CellRange=     0.0.
 One-electron integrals computed using PRISM.
 GSVD:  received Info=                   1 from GESDD.
 NBasis=  1036 RedAO= T EigKep=  1.36D-04  NBF=  1036
 NBsUse=   932 1.00D-06 EigRej=  6.53D-15 NBFU=   932
 Precomputing XC quadrature grid using
 IXCGrd= 4 IRadAn=      199590 IRanWt=          -1 IRanGd=           0 AccXCQ= 0.00D+00.
 Generated NRdTot=       0 NPtTot=           0 NUsed=           0 NTot=          32
 NSgBfM=   882   882   882   882   882 MxSgAt=    31 MxSgA2=    31.
 Leave Link  302 at Wed Jun 18 11:00:12 2014, MaxMem=  4294967296 cpu:        65.1
 (Enter /home/ztw1e12/g09/l308.exe)
 Leave Link  308 at Wed Jun 18 11:00:13 2014, MaxMem=  4294967296 cpu:         5.9
 (Enter /home/ztw1e12/g09/l303.exe)
 DipDrv:  MaxL=1.
 Leave Link  303 at Wed Jun 18 11:00:13 2014, MaxMem=  4294967296 cpu:         3.3
 (Enter /home/ztw1e12/g09/l401.exe)
 ExpMin= 1.03D-01 ExpMax= 1.38D+05 ExpMxC= 1.38D+05 IAcc=4 IRadAn=    199590 AccDes= 0.00D+00
 Harris functional with IExCor= 1009 and IRadAn=  199590 diagonalized for initial guess.
 HarFok:  IExCor= 1009 AccDes= 0.00D+00 IRadAn=    199590 IDoV= 1 UseB2=F ITyADJ=14
 ICtDFT=  3500011 ScaDFX=  1.000000  1.000000  1.000000  1.000000
 FoFCou: FMM=F IPFlag=           0 FMFlag=      100000 FMFlg1=           0
         NFxFlg=           0 DoJE=T BraDBF=F KetDBF=T FulRan=T
         wScrn=  0.000000 ICntrl=     500 IOpCl=  0 I1Cent=   200000004 NGrid=           0
         NMat0=    1 NMatS0=      1 NMatT0=    0 NMatD0=    1 NMtDS0=    0 NMtDT0=    0
 Petite list used in FoFCou.
 Harris En= -613.564291966116    
 JPrj=0 DoOrth=F DoCkMO=F.
 Leave Link  401 at Wed Jun 18 11:00:31 2014, MaxMem=  4294967296 cpu:       262.6
 (Enter /home/ztw1e12/g09/l502.exe)
 Closed shell SCF:
 Using DIIS extrapolation, IDIIS=  1040.
 Integral symmetry usage will be decided dynamically.
 IVT=     3801329 IEndB=     3801329 NGot=  4294967296 MDV=  4292435888
 LenX=  4292435888 LenY=  4291182608
 Requested convergence on RMS density matrix=1.00D-08 within 128 cycles.
 Requested convergence on MAX density matrix=1.00D-06.
 Requested convergence on             energy=1.00D-06.
 No special actions if energy rises.
 Fock matrices will be formed incrementally for  20 cycles.
 Integral accuracy reduced to 1.0D-05 until final iterations.

 Cycle   1  Pass 0  IDiag  1:
 FoFJK:  IHMeth= 1 ICntrl=       0 DoSepK=F KAlg= 0 I1Cent=   0 FoldK=F
 IRaf= 480000000 NMat=   1 IRICut=       1 DoRegI=T DoRafI=F ISym2E= 0.
 FoFCou: FMM=F IPFlag=           0 FMFlag=      100000 FMFlg1=           0
         NFxFlg=           0 DoJE=F BraDBF=F KetDBF=F FulRan=T
         wScrn=  0.000000 ICntrl=       0 IOpCl=  0 I1Cent=           0 NGrid=           0
         NMat0=    1 NMatS0=      1 NMatT0=    0 NMatD0=    1 NMtDS0=    0 NMtDT0=    0
 Symmetry not used in FoFCou.
 E= -613.184134490951    
 DIIS: error= 1.41D-01 at cycle   1 NSaved=   1.
 NSaved= 1 IEnMin= 1 EnMin= -613.184134490951     IErMin= 1 ErrMin= 1.41D-01
 ErrMax= 1.41D-01  0.00D+00 EMaxC= 1.00D-01 BMatC= 1.30D+01 BMatP= 1.30D+01
 IDIUse=3 WtCom= 0.00D+00 WtEn= 1.00D+00
 Coeff-Com:  0.100D+01
 Coeff-En:   0.100D+01
 Coeff:      0.100D+01
 Gap=     0.286 Goal=   None    Shift=    0.000
 GapD=    0.286 DampG=1.000 DampE=0.250 DampFc=0.2500 IDamp=-1.
 Damping current iteration by 2.50D-01
 RMSDP=2.10D-03 MaxDP=3.07D-01              OVMax= 2.84D-01

 Cycle   2  Pass 0  IDiag  1:
 RMSU=  5.25D-04    CP:  1.01D+00
 E= -613.341274382593     Delta-E=       -0.157139891642 Rises=F Damp=T
 DIIS: error= 1.07D-01 at cycle   2 NSaved=   2.
 NSaved= 2 IEnMin= 2 EnMin= -613.341274382593     IErMin= 2 ErrMin= 1.07D-01
 ErrMax= 1.07D-01  0.00D+00 EMaxC= 1.00D-01 BMatC= 7.66D+00 BMatP= 1.30D+01
 IDIUse=3 WtCom= 0.00D+00 WtEn= 1.00D+00
 Coeff-Com: -0.279D+01 0.379D+01
 Coeff-En:   0.000D+00 0.100D+01
 Coeff:      0.000D+00 0.100D+01
 Gap=     0.218 Goal=   None    Shift=    0.000
 RMSDP=5.77D-04 MaxDP=5.08D-02 DE=-1.57D-01 OVMax= 1.33D-01

 Cycle   3  Pass 0  IDiag  1:
 RMSU=  4.19D-04    CP:  1.03D+00  1.75D+00
 E= -613.530522740651     Delta-E=       -0.189248358058 Rises=F Damp=F
 DIIS: error= 1.43D-02 at cycle   3 NSaved=   3.
 NSaved= 3 IEnMin= 3 EnMin= -613.530522740651     IErMin= 3 ErrMin= 1.43D-02
 ErrMax= 1.43D-02  0.00D+00 EMaxC= 1.00D-01 BMatC= 2.31D-01 BMatP= 7.66D+00
 IDIUse=3 WtCom= 8.57D-01 WtEn= 1.43D-01
 Coeff-Com:  0.123D+01-0.168D+01 0.145D+01
 Coeff-En:   0.137D+00 0.000D+00 0.863D+00
 Coeff:      0.107D+01-0.144D+01 0.137D+01
 Gap=     0.250 Goal=   None    Shift=    0.000
 RMSDP=4.16D-04 MaxDP=3.50D-02 DE=-1.89D-01 OVMax= 6.40D-02

 Cycle   4  Pass 0  IDiag  1:
 RMSU=  2.69D-04    CP:  1.02D+00  1.19D+00  7.11D-01
 E= -613.545695761482     Delta-E=       -0.015173020831 Rises=F Damp=F
 DIIS: error= 7.89D-03 at cycle   4 NSaved=   4.
 NSaved= 4 IEnMin= 4 EnMin= -613.545695761482     IErMin= 4 ErrMin= 7.89D-03
 ErrMax= 7.89D-03  0.00D+00 EMaxC= 1.00D-01 BMatC= 1.03D-01 BMatP= 2.31D-01
 IDIUse=3 WtCom= 9.21D-01 WtEn= 7.89D-02
 Coeff-Com:  0.761D+00-0.105D+01 0.748D+00 0.538D+00
 Coeff-En:   0.000D+00 0.000D+00 0.445D+00 0.555D+00
 Coeff:      0.701D+00-0.964D+00 0.724D+00 0.539D+00
 Gap=     0.279 Goal=   None    Shift=    0.000
 RMSDP=2.71D-04 MaxDP=1.95D-02 DE=-1.52D-02 OVMax= 7.43D-02

 Cycle   5  Pass 0  IDiag  1:
 RMSU=  8.22D-05    CP:  1.02D+00  1.12D+00  8.58D-01  7.90D-02
 E= -613.617395532717     Delta-E=       -0.071699771235 Rises=F Damp=F
 DIIS: error= 2.78D-03 at cycle   5 NSaved=   5.
 NSaved= 5 IEnMin= 5 EnMin= -613.617395532717     IErMin= 5 ErrMin= 2.78D-03
 ErrMax= 2.78D-03  0.00D+00 EMaxC= 1.00D-01 BMatC= 1.41D-02 BMatP= 1.03D-01
 IDIUse=3 WtCom= 9.72D-01 WtEn= 2.78D-02
 Coeff-Com:  0.138D+00-0.197D+00 0.136D+00 0.272D+00 0.651D+00
 Coeff-En:   0.000D+00 0.000D+00 0.000D+00 0.805D-01 0.920D+00
 Coeff:      0.135D+00-0.192D+00 0.132D+00 0.267D+00 0.658D+00
 Gap=     0.268 Goal=   None    Shift=    0.000
 RMSDP=1.48D-04 MaxDP=1.77D-02 DE=-7.17D-02 OVMax= 2.87D-02

 Cycle   6  Pass 0  IDiag  1:
 RMSU=  7.37D-05    CP:  1.02D+00  1.18D+00  9.40D-01  4.76D-01  3.64D-01
 E= -613.625289461233     Delta-E=       -0.007893928517 Rises=F Damp=F
 DIIS: error= 7.38D-04 at cycle   6 NSaved=   6.
 NSaved= 6 IEnMin= 6 EnMin= -613.625289461233     IErMin= 6 ErrMin= 7.38D-04
 ErrMax= 7.38D-04  0.00D+00 EMaxC= 1.00D-01 BMatC= 1.08D-03 BMatP= 1.41D-02
 IDIUse=3 WtCom= 9.93D-01 WtEn= 7.38D-03
 Coeff-Com:  0.609D-01-0.827D-01 0.202D-01 0.434D-01 0.201D+00 0.757D+00
 Coeff-En:   0.000D+00 0.000D+00 0.000D+00 0.000D+00 0.144D-01 0.986D+00
 Coeff:      0.605D-01-0.821D-01 0.201D-01 0.431D-01 0.200D+00 0.759D+00
 Gap=     0.269 Goal=   None    Shift=    0.000
 RMSDP=3.13D-05 MaxDP=3.03D-03 DE=-7.89D-03 OVMax= 9.22D-03

 Cycle   7  Pass 0  IDiag  1:
 RMSU=  2.17D-05    CP:  1.02D+00  1.14D+00  9.39D-01  4.73D-01  4.98D-01
                    CP:  1.10D+00
 E= -613.625876051013     Delta-E=       -0.000586589779 Rises=F Damp=F
 DIIS: error= 3.78D-04 at cycle   7 NSaved=   7.
 NSaved= 7 IEnMin= 7 EnMin= -613.625876051013     IErMin= 7 ErrMin= 3.78D-04
 ErrMax= 3.78D-04  0.00D+00 EMaxC= 1.00D-01 BMatC= 2.51D-04 BMatP= 1.08D-03
 IDIUse=3 WtCom= 9.96D-01 WtEn= 3.78D-03
 Coeff-Com:  0.414D-01-0.555D-01 0.133D-01 0.771D-02 0.597D-01 0.427D+00
 Coeff-Com:  0.506D+00
 Coeff-En:   0.000D+00 0.000D+00 0.000D+00 0.000D+00 0.000D+00 0.122D+00
 Coeff-En:   0.878D+00
 Coeff:      0.412D-01-0.553D-01 0.133D-01 0.768D-02 0.595D-01 0.426D+00
 Coeff:      0.508D+00
 Gap=     0.269 Goal=   None    Shift=    0.000
 RMSDP=1.18D-05 MaxDP=1.03D-03 DE=-5.87D-04 OVMax= 3.17D-03

 Cycle   8  Pass 0  IDiag  1:
 RMSU=  7.06D-06    CP:  1.02D+00  1.14D+00  9.45D-01  4.85D-01  4.86D-01
                    CP:  1.16D+00  6.70D-01
 E= -613.626045082474     Delta-E=       -0.000169031461 Rises=F Damp=F
 DIIS: error= 1.23D-04 at cycle   8 NSaved=   8.
 NSaved= 8 IEnMin= 8 EnMin= -613.626045082474     IErMin= 8 ErrMin= 1.23D-04
 ErrMax= 1.23D-04  0.00D+00 EMaxC= 1.00D-01 BMatC= 2.96D-05 BMatP= 2.51D-04
 IDIUse=3 WtCom= 9.99D-01 WtEn= 1.23D-03
 Coeff-Com:  0.228D-01-0.305D-01 0.894D-02-0.325D-02 0.338D-02 0.172D+00
 Coeff-Com:  0.300D+00 0.526D+00
 Coeff-En:   0.000D+00 0.000D+00 0.000D+00 0.000D+00 0.000D+00 0.000D+00
 Coeff-En:   0.000D+00 0.100D+01
 Coeff:      0.228D-01-0.305D-01 0.893D-02-0.325D-02 0.337D-02 0.172D+00
 Coeff:      0.300D+00 0.527D+00
 Gap=     0.269 Goal=   None    Shift=    0.000
 RMSDP=5.54D-06 MaxDP=6.46D-04 DE=-1.69D-04 OVMax= 1.20D-03

 Initial convergence to 1.0D-05 achieved.  Increase integral accuracy.
 Cycle   9  Pass 1  IDiag  1:
 E= -613.626008156116     Delta-E=        0.000036926358 Rises=F Damp=F
 DIIS: error= 7.41D-05 at cycle   1 NSaved=   1.
 NSaved= 1 IEnMin= 1 EnMin= -613.626008156116     IErMin= 1 ErrMin= 7.41D-05
 ErrMax= 7.41D-05  0.00D+00 EMaxC= 1.00D-01 BMatC= 1.14D-05 BMatP= 1.14D-05
 IDIUse=1 WtCom= 1.00D+00 WtEn= 0.00D+00
 Coeff-Com:  0.100D+01
 Coeff:      0.100D+01
 Gap=     0.269 Goal=   None    Shift=    0.000
 RMSDP=5.54D-06 MaxDP=6.46D-04 DE= 3.69D-05 OVMax= 1.31D-03

 Cycle  10  Pass 1  IDiag  1:
 RMSU=  2.53D-05    CP:  1.00D+00
 E= -613.626005116457     Delta-E=        0.000003039660 Rises=F Damp=F
 DIIS: error= 1.11D-04 at cycle   2 NSaved=   2.
 NSaved= 2 IEnMin= 1 EnMin= -613.626008156116     IErMin= 1 ErrMin= 7.41D-05
 ErrMax= 1.11D-04  0.00D+00 EMaxC= 1.00D-01 BMatC= 1.25D-05 BMatP= 1.14D-05
 IDIUse=3 WtCom= 9.99D-01 WtEn= 1.11D-03
 Coeff-Com:  0.514D+00 0.486D+00
 Coeff-En:   0.615D+00 0.385D+00
 Coeff:      0.514D+00 0.486D+00
 Gap=     0.269 Goal=   None    Shift=    0.000
 RMSDP=4.04D-06 MaxDP=5.81D-04 DE= 3.04D-06 OVMax= 1.26D-03

 Cycle  11  Pass 1  IDiag  1:
 RMSU=  3.99D-06    CP:  1.00D+00  9.88D-01
 E= -613.626011843896     Delta-E=       -0.000006727439 Rises=F Damp=F
 DIIS: error= 6.09D-05 at cycle   3 NSaved=   3.
 NSaved= 3 IEnMin= 3 EnMin= -613.626011843896     IErMin= 3 ErrMin= 6.09D-05
 ErrMax= 6.09D-05  0.00D+00 EMaxC= 1.00D-01 BMatC= 3.03D-06 BMatP= 1.14D-05
 IDIUse=1 WtCom= 1.00D+00 WtEn= 0.00D+00
 Coeff-Com:  0.621D-01 0.327D+00 0.611D+00
 Coeff:      0.621D-01 0.327D+00 0.611D+00
 Gap=     0.269 Goal=   None    Shift=    0.000
 RMSDP=1.34D-06 MaxDP=1.59D-04 DE=-6.73D-06 OVMax= 4.33D-04

 Cycle  12  Pass 1  IDiag  1:
 RMSU=  4.73D-07    CP:  1.00D+00  1.00D+00  7.06D-01
 E= -613.626013921797     Delta-E=       -0.000002077901 Rises=F Damp=F
 DIIS: error= 8.71D-06 at cycle   4 NSaved=   4.
 NSaved= 4 IEnMin= 4 EnMin= -613.626013921797     IErMin= 4 ErrMin= 8.71D-06
 ErrMax= 8.71D-06  0.00D+00 EMaxC= 1.00D-01 BMatC= 1.02D-07 BMatP= 3.03D-06
 IDIUse=1 WtCom= 1.00D+00 WtEn= 0.00D+00
 Coeff-Com:  0.783D-02 0.140D+00 0.301D+00 0.551D+00
 Coeff:      0.783D-02 0.140D+00 0.301D+00 0.551D+00
 Gap=     0.269 Goal=   None    Shift=    0.000
 RMSDP=2.38D-07 MaxDP=2.11D-05 DE=-2.08D-06 OVMax= 5.33D-05

 Cycle  13  Pass 1  IDiag  1:
 RMSU=  1.89D-07    CP:  1.00D+00  1.01D+00  7.14D-01  7.11D-01
 E= -613.626013991511     Delta-E=       -0.000000069714 Rises=F Damp=F
 DIIS: error= 2.14D-06 at cycle   5 NSaved=   5.
 NSaved= 5 IEnMin= 5 EnMin= -613.626013991511     IErMin= 5 ErrMin= 2.14D-06
 ErrMax= 2.14D-06  0.00D+00 EMaxC= 1.00D-01 BMatC= 8.05D-09 BMatP= 1.02D-07
 IDIUse=1 WtCom= 1.00D+00 WtEn= 0.00D+00
 Coeff-Com: -0.192D-02 0.394D-01 0.928D-01 0.273D+00 0.596D+00
 Coeff:     -0.192D-02 0.394D-01 0.928D-01 0.273D+00 0.596D+00
 Gap=     0.269 Goal=   None    Shift=    0.000
 RMSDP=7.56D-08 MaxDP=8.28D-06 DE=-6.97D-08 OVMax= 1.58D-05

 Cycle  14  Pass 1  IDiag  1:
 RMSU=  4.11D-08    CP:  1.00D+00  1.01D+00  7.18D-01  8.29D-01  9.02D-01
 E= -613.626013996993     Delta-E=       -0.000000005482 Rises=F Damp=F
 DIIS: error= 4.63D-07 at cycle   6 NSaved=   6.
 NSaved= 6 IEnMin= 6 EnMin= -613.626013996993     IErMin= 6 ErrMin= 4.63D-07
 ErrMax= 4.63D-07  0.00D+00 EMaxC= 1.00D-01 BMatC= 3.23D-10 BMatP= 8.05D-09
 IDIUse=1 WtCom= 1.00D+00 WtEn= 0.00D+00
 Coeff-Com: -0.112D-02 0.121D-01 0.293D-01 0.102D+00 0.266D+00 0.592D+00
 Coeff:     -0.112D-02 0.121D-01 0.293D-01 0.102D+00 0.266D+00 0.592D+00
 Gap=     0.269 Goal=   None    Shift=    0.000
 RMSDP=1.99D-08 MaxDP=1.92D-06 DE=-5.48D-09 OVMax= 7.47D-06

 Cycle  15  Pass 1  IDiag  1:
 RMSU=  1.77D-08    CP:  1.00D+00  1.01D+00  7.19D-01  8.39D-01  9.20D-01
                    CP:  8.43D-01
 E= -613.626013997200     Delta-E=       -0.000000000207 Rises=F Damp=F
 DIIS: error= 3.41D-07 at cycle   7 NSaved=   7.
 NSaved= 7 IEnMin= 7 EnMin= -613.626013997200     IErMin= 7 ErrMin= 3.41D-07
 ErrMax= 3.41D-07  0.00D+00 EMaxC= 1.00D-01 BMatC= 1.24D-10 BMatP= 3.23D-10
 IDIUse=1 WtCom= 1.00D+00 WtEn= 0.00D+00
 Coeff-Com: -0.365D-03 0.338D-04 0.539D-03 0.110D-01 0.508D-01 0.391D+00
 Coeff-Com:  0.547D+00
 Coeff:     -0.365D-03 0.338D-04 0.539D-03 0.110D-01 0.508D-01 0.391D+00
 Coeff:      0.547D+00
 Gap=     0.269 Goal=   None    Shift=    0.000
 RMSDP=1.43D-08 MaxDP=1.96D-06 DE=-2.07D-10 OVMax= 2.94D-06

 Cycle  16  Pass 1  IDiag  1:
 RMSU=  5.91D-09    CP:  1.00D+00  1.01D+00  7.20D-01  8.53D-01  9.51D-01
                    CP:  1.01D+00  7.52D-01
 E= -613.626013997229     Delta-E=       -0.000000000029 Rises=F Damp=F
 DIIS: error= 7.82D-08 at cycle   8 NSaved=   8.
 NSaved= 8 IEnMin= 8 EnMin= -613.626013997229     IErMin= 8 ErrMin= 7.82D-08
 ErrMax= 7.82D-08  0.00D+00 EMaxC= 1.00D-01 BMatC= 1.09D-11 BMatP= 1.24D-10
 IDIUse=1 WtCom= 1.00D+00 WtEn= 0.00D+00
 Coeff-Com: -0.425D-04-0.171D-02-0.385D-02-0.825D-02-0.988D-02 0.137D+00
 Coeff-Com:  0.296D+00 0.590D+00
 Coeff:     -0.425D-04-0.171D-02-0.385D-02-0.825D-02-0.988D-02 0.137D+00
 Coeff:      0.296D+00 0.590D+00
 Gap=     0.269 Goal=   None    Shift=    0.000
 RMSDP=3.42D-09 MaxDP=3.79D-07 DE=-2.86D-11 OVMax= 6.87D-07

 SCF Done:  E(RM06) =  -613.626013997     A.U. after   16 cycles
            NFock= 16  Conv=0.34D-08     -V/T= 2.0046
 KE= 6.108015812051D+02 PE=-3.184007502445D+03 EE= 1.083269079380D+03
 Leave Link  502 at Wed Jun 18 11:28:27 2014, MaxMem=  4294967296 cpu:     26736.3
 (Enter /home/ztw1e12/g09/l801.exe)
 DoSCS=F DFT=T ScalE2(SS,OS)=  1.000000  1.000000
 Range of M.O.s used for correlation:     1   932
 NBasis=  1036 NAE=    51 NBE=    51 NFC=     0 NFV=     0
 NROrb=    932 NOA=    51 NOB=    51 NVA=   881 NVB=   881

 **** Warning!!: The largest alpha MO coefficient is  0.10913654D+02

 Leave Link  801 at Wed Jun 18 11:28:27 2014, MaxMem=  4294967296 cpu:         0.4
 (Enter /home/ztw1e12/g09/l1002.exe)
 Minotr:  Closed shell wavefunction.
          IDoAtm=1111111111111111111111111111111
          Direct CPHF calculation.
          Differentiating once with respect to Fermi-contact.
          Electric field/nuclear overlap derivatives assumed to be zero.
          Requested convergence is 1.0D-10 RMS, and 1.0D-09 maximum.
          Secondary convergence is 1.0D-12 RMS, and 1.0D-12 maximum.
          NewPWx=T KeepS1=F KeepF1=F KeepIn=T MapXYZ=F SortEE=F KeepMc=T.
          MDV=    4294966050 using IRadAn=  199590.
 Using stored XC quadrature information.
          Solving linear equations simultaneously, MaxMat=       0.
          There are    31 degrees of freedom in the 1st order CPHF.  IDoFFX=0 NUNeed=    31.
     31 vectors produced by pass  0 Test12= 1.45D-17 3.23D-11 XBig12= 4.16D+01 2.57D+00.
 AX will form    31 AO Fock derivatives at one time.
 FoFJK:  IHMeth= 1 ICntrl=       0 DoSepK=F KAlg= 0 I1Cent=   0 FoldK=F
 IRaf= 500000000 NMat=  31 IRICut=       1 DoRegI=T DoRafI=F ISym2E=-1.
 FoFCou: FMM=F IPFlag=           0 FMFlag=      100000 FMFlg1=           0
         NFxFlg=           0 DoJE=F BraDBF=F KetDBF=F FulRan=T
         wScrn=  0.000000 ICntrl=       0 IOpCl=  0 I1Cent=           0 NGrid=           0
         NMat0=   31 NMatS0=      0 NMatT0=   31 NMatD0=   31 NMtDS0=    0 NMtDT0=    0
 Petite list used in FoFCou.
     31 vectors produced by pass  1 Test12= 1.45D-17 3.23D-11 XBig12= 3.45D-01 1.76D-01.
     31 vectors produced by pass  2 Test12= 1.45D-17 3.23D-11 XBig12= 1.69D-02 4.91D-02.
     31 vectors produced by pass  3 Test12= 1.45D-17 3.23D-11 XBig12= 3.76D-04 6.40D-03.
     31 vectors produced by pass  4 Test12= 1.45D-17 3.23D-11 XBig12= 5.29D-06 8.92D-04.
     31 vectors produced by pass  5 Test12= 1.45D-17 3.23D-11 XBig12= 1.41D-07 1.55D-04.
     31 vectors produced by pass  6 Test12= 1.45D-17 3.23D-11 XBig12= 4.30D-09 1.94D-05.
     31 vectors produced by pass  7 Test12= 1.45D-17 3.23D-11 XBig12= 1.46D-10 5.04D-06.
     31 vectors produced by pass  8 Test12= 1.45D-17 3.23D-11 XBig12= 2.83D-12 3.21D-07.
     31 vectors produced by pass  9 Test12= 1.45D-17 3.23D-11 XBig12= 5.44D-14 7.15D-08.
     31 vectors produced by pass 10 Test12= 1.45D-17 3.23D-11 XBig12= 2.13D-15 7.25D-09.
     29 vectors produced by pass 11 Test12= 1.45D-17 3.23D-11 XBig12= 2.17D-17 5.72D-10.
      5 vectors produced by pass 12 Test12= 1.45D-17 3.23D-11 XBig12= 1.93D-19 5.16D-11.
 InvSVY:  IOpt=1 It=  1 EMax= 8.88D-15
 Solved reduced A of dimension   375 with    31 vectors.
 Max diff in FC couplings:  IJMax=    11     2 Diff= 4.46D-04 IJMaxR=    18    14 DiffR= 9.82D-01
 Fermi Contact (FC) contribution to K (Hz):
                1             2             3             4             5 
      1  0.123400D+11
      2  0.266506D+02  0.123400D+11
      3 -0.122389D+01  0.186995D+02  0.123400D+11
      4  0.191132D+00  0.813362D+00  0.155570D-01  0.123400D+11
      5  0.243752D-01  0.886612D-01  0.105287D-02  0.168704D+02  0.123400D+11
      6  0.528722D-01  0.423111D-01  0.109875D-01  0.179990D+02 -0.847975D+00
      7  0.130956D-01  0.393114D-01  0.333084D-02  0.168465D+02 -0.820356D+00
      8 -0.952618D+01  0.274135D+01  0.368308D+00  0.177051D+01  0.163655D+00
      9 -0.737306D-01  0.187248D+02 -0.756613D+00  0.297024D+00  0.211395D-01
     10 -0.516654D-01  0.169183D+00  0.276395D+00  0.186217D-01 -0.654163D-03
     11  0.288706D+02  0.133437D+02  0.683443D-01  0.121300D+00  0.323184D-01
     12  0.478922D+00  0.735067D-01 -0.226923D-01 -0.150300D-02 -0.990070D-03
     13 -0.405526D+00  0.995252D+00 -0.407326D-01 -0.360429D-02  0.152250D-02
     14  0.215604D+00 -0.844823D-01  0.269813D-01  0.669446D-02  0.189380D-02
     15  0.163032D+00 -0.804140D-01  0.209019D-01  0.284633D-02  0.129763D-02
     16  0.949458D+00 -0.184564D-01  0.476651D-03  0.111565D-02  0.257507D-03
     17  0.733029D-01 -0.538561D+00  0.327931D+00  0.124642D-01  0.109713D-02
     18 -0.169262D+00  0.869852D+00 -0.812645D-01 -0.238938D-02 -0.101971D-03
     19  0.710629D-03  0.111124D+00 -0.223410D-02 -0.664748D-03 -0.492026D-05
     20  0.490426D-01  0.423876D-01  0.737564D-02  0.559466D-03  0.677883D-04
     21  0.978306D-01  0.178860D-01  0.185073D-01  0.903807D-03  0.770680D-04
     22  0.438399D+00  0.847401D+00  0.174496D+00  0.405496D-01 -0.901724D-04
     23  0.284344D+00 -0.699738D+00  0.101342D+01  0.169871D+02 -0.671174D+00
     24 -0.282359D-02  0.745539D-01 -0.195946D-01 -0.619059D+00  0.102239D+00
     25 -0.848647D-01  0.210437D+01 -0.615046D-01 -0.208596D+00  0.466731D+00
     26  0.476039D-02 -0.148559D-01  0.304056D-02  0.432986D+00 -0.392756D-02
     27  0.316594D-02  0.117430D-02 -0.158927D-02  0.127349D+01  0.139421D-01
     28 -0.100167D-01  0.229123D+00  0.904178D-03  0.262759D+00 -0.111728D-01
     29 -0.696062D-01  0.171989D+02 -0.946269D+00 -0.178715D+00  0.120116D+01
     30  0.108241D+01 -0.834911D+00  0.233499D+00  0.101963D+01  0.335278D-01
     31  0.255108D+00 -0.472014D+00  0.900828D-01  0.169310D+00 -0.198435D-01
                6             7             8             9            10 
      6  0.123400D+11
      7 -0.782774D+00  0.123400D+11
      8  0.141459D+00  0.455904D-01  0.123400D+11
      9  0.932591D-01  0.655047D-02  0.416389D+00  0.123400D+11
     10 -0.830206D-02 -0.380778D-03 -0.512155D-02  0.310664D+02  0.123400D+11
     11  0.115119D-02  0.419705D-01  0.650246D+01  0.662512D+00  0.796145D-01
     12 -0.903025D-04 -0.140596D-03  0.484809D+00  0.397566D-01 -0.151740D-02
     13  0.179069D-02  0.704059D-02  0.665016D+00  0.244368D+00 -0.707058D-03
     14  0.579979D-03  0.766603D-02  0.253028D+00 -0.775761D-02  0.560196D-03
     15  0.508935D-03  0.175314D-02  0.239879D+00 -0.516509D-02 -0.237458D-03
     16  0.175862D-03  0.542531D-03  0.187171D+00  0.252641D-01 -0.657787D-03
     17  0.912420D-02 -0.439221D-03  0.122327D+00  0.256552D+02  0.309350D+00
     18  0.361057D-03  0.103589D-03  0.995838D-01  0.127868D+02  0.107708D+00
     19  0.202594D-03  0.279247D-04 -0.622978D-04  0.362717D+00 -0.128227D-01
     20  0.146526D-03 -0.383542D-04  0.786392D-02  0.429913D+00  0.423525D-02
     21  0.912999D-04  0.928086D-04  0.101438D-01  0.302064D+00 -0.210044D-01
     22 -0.122666D-02  0.261624D-02  0.592216D+00  0.578206D+01  0.408700D+00
     23 -0.594684D+00 -0.692770D+00 -0.277693D-01  0.137969D+01 -0.615253D-01
     24  0.163450D+00  0.399074D+00  0.975438D-02  0.140455D+00 -0.306916D-01
     25  0.146410D+01  0.275324D+00  0.128984D+00 -0.547474D-01 -0.765474D-02
     26 -0.643814D-02 -0.111206D-01 -0.163001D-03  0.760186D-01 -0.348848D-02
     27  0.881187D-01 -0.116348D-01  0.114351D-01  0.811479D-04 -0.133542D-04
     28 -0.588994D-03 -0.412391D-02  0.146832D-02 -0.158223D-01  0.206580D-02
     29  0.144994D+00  0.408685D+00  0.260984D+00  0.100753D+01  0.383185D+00
     30 -0.107826D-01 -0.120537D-01  0.847376D-01  0.157639D+00 -0.856201D-02
     31 -0.338779D-02 -0.121332D-01 -0.126820D-01  0.166073D+01 -0.185927D-01
               11            12            13            14            15 
     11  0.123400D+11
     12  0.312664D+02  0.123400D+11
     13  0.172112D+02  0.322557D+00  0.123400D+11
     14 -0.599679D+00  0.997617D-01  0.197808D+02  0.123400D+11
     15 -0.536790D+00  0.110991D+00  0.202613D+02 -0.732781D+00  0.123400D+11
     16 -0.389465D+00  0.290341D+00  0.182133D+02 -0.745303D+00 -0.749815D+00
     17 -0.774635D-01 -0.463629D-04 -0.125064D-01  0.122248D-02  0.151528D-02
     18  0.476222D-02  0.178516D-02  0.131340D-01  0.606944D-05  0.444148D-04
     19  0.600863D-02  0.157579D-04  0.806361D-04 -0.268925D-04 -0.902314D-05
     20 -0.603328D-03 -0.925307D-04 -0.551238D-03  0.422001D-04  0.172493D-04
     21  0.258447D-01 -0.109393D-03  0.299442D-02  0.434457D-04 -0.376980D-04
     22  0.191548D+00 -0.181773D-02  0.132843D-01  0.137239D-02  0.628300D-03
     23  0.538366D-01  0.185208D-02  0.206056D-02 -0.364382D-03  0.476610D-03
     24  0.427703D-01 -0.181321D-02 -0.387761D-04  0.814992D-03 -0.122433D-03
     25 -0.116884D-01  0.944552D-03  0.566450D-03  0.423605D-03 -0.475574D-03
     26  0.212479D-02  0.356271D-04 -0.196039D-03  0.555182D-05  0.602639D-04
     27  0.256634D-02 -0.126231D-03 -0.181310D-03  0.324065D-03  0.188273D-03
     28 -0.446286D-04 -0.114898D-03 -0.487606D-03  0.304475D-03  0.251128D-03
     29  0.105227D+00 -0.228447D-01 -0.120416D+00  0.547958D-01  0.112613D+00
     30 -0.423525D-01 -0.426625D-02 -0.364014D-02  0.614810D-03  0.184404D-02
     31  0.113162D+00 -0.199691D-01  0.580576D-03 -0.678741D-03 -0.112160D-04
               16            17            18            19            20 
     16  0.123400D+11
     17  0.128308D-03  0.123400D+11
     18  0.222995D-03  0.273539D+02  0.123400D+11
     19  0.247613D-04 -0.773689D+00  0.169820D+02  0.123400D+11
     20  0.598653D-04 -0.115060D+01  0.182486D+02 -0.701717D+00  0.123400D+11
     21  0.304784D-03 -0.122663D+01  0.177122D+02 -0.769727D+00 -0.914843D+00
     22  0.107862D-02 -0.944230D+01  0.379984D+01  0.829495D+00  0.425449D+00
     23 -0.561498D-03 -0.133832D-01  0.399104D-01 -0.230327D-02 -0.498766D-03
     24  0.225870D-03  0.128849D-01 -0.114689D-02  0.216249D-03  0.856799D-04
     25 -0.710071D-04  0.185399D-02 -0.418711D-02  0.320578D-03  0.119380D-02
     26 -0.466779D-05  0.119782D-01  0.408750D-03  0.298655D-04  0.236935D-04
     27 -0.587347D-05 -0.225831D-03  0.254535D-04  0.000000D+00 -0.527309D-05
     28  0.000000D+00  0.596108D-02 -0.736252D-03  0.128302D-04  0.823108D-04
     29  0.559222D-02  0.142594D+01 -0.265098D-01 -0.356064D-02  0.226103D-01
     30  0.452272D-03 -0.313631D-01  0.176515D-02  0.118107D-03 -0.639760D-03
     31  0.947629D-03  0.879847D-01  0.570442D-01 -0.856756D-04  0.280108D-02
               21            22            23            24            25 
     21  0.123400D+11
     22  0.461043D+00  0.123400D+11
     23 -0.129843D-02  0.141962D+00  0.123400D+11
     24 -0.593696D-04  0.549985D-02  0.163672D+02  0.123400D+11
     25 -0.273814D-03  0.359077D-01  0.174289D+02 -0.801932D+00  0.123400D+11
     26 -0.212285D-04 -0.790162D-03 -0.735657D+00  0.357576D+00  0.171851D+02
     27  0.000000D+00  0.200346D-03 -0.615771D+00  0.113686D+00  0.172472D+02
     28 -0.163639D-04  0.449560D-02 -0.545217D+00  0.147807D+00  0.176037D+02
     29 -0.370529D-02  0.124122D+00  0.172086D+02 -0.735975D+00  0.331370D+00
     30 -0.578650D-03  0.211671D-02 -0.615701D+00  0.203637D+00  0.138616D+00
     31 -0.223369D-02 -0.283374D-02 -0.746004D+00  0.325887D+00  0.627528D+00
               26            27            28            29            30 
     26  0.123400D+11
     27 -0.755138D+00  0.123400D+11
     28 -0.758954D+00 -0.767013D+00  0.123400D+11
     29  0.341243D+00  0.383406D+00  0.138272D+01  0.123400D+11
     30 -0.724971D-02 -0.107976D-01 -0.917227D-02  0.177731D+02  0.123400D+11
     31 -0.166667D-01  0.310162D-04  0.858311D-02  0.165360D+02 -0.884482D+00
               31 
     31  0.123400D+11
 Fermi Contact (FC) contribution to J (Hz):
                1             2             3             4             5 
      1  0.243533D+11
      2  0.525955D+02  0.243533D+11
      3 -0.960372D+01  0.146733D+03  0.385007D+12
      4  0.377204D+00  0.160519D+01  0.122074D+00  0.243533D+11
      5  0.191270D+00  0.695716D+00  0.328495D-01  0.132380D+03  0.385007D+12
      6  0.414883D+00  0.332011D+00  0.342809D+00  0.141236D+03 -0.264568D+02
      7  0.102760D+00  0.308473D+00  0.103922D+00  0.132193D+03 -0.255951D+02
      8  0.101376D+02 -0.291729D+01 -0.155841D+01 -0.188414D+01 -0.692470D+00
      9 -0.418209D-01  0.106209D+02 -0.170638D+01  0.168476D+00  0.476755D-01
     10 -0.405413D+00  0.132756D+01  0.862352D+01  0.146123D+00 -0.204098D-01
     11  0.163758D+02  0.756874D+01  0.154136D+00  0.688026D-01  0.728871D-01
     12  0.375805D+01  0.576800D+00 -0.707999D+00 -0.117939D-01 -0.308901D-01
     13 -0.800315D+00  0.196416D+01 -0.319625D+00 -0.711316D-02  0.119469D-01
     14  0.169182D+01 -0.662924D+00  0.841815D+00  0.525308D-01  0.590866D-01
     15  0.127929D+01 -0.631001D+00  0.652137D+00  0.223349D-01  0.404859D-01
     16  0.745031D+01 -0.144826D+00  0.148715D-01  0.875439D-02  0.803419D-02
     17  0.144665D+00 -0.106286D+01  0.257324D+01  0.245985D-01  0.860908D-02
     18 -0.334044D+00  0.171668D+01 -0.637675D+00 -0.471549D-02 -0.800159D-03
     19  0.557624D-02  0.871978D+00 -0.697039D-01 -0.521621D-02 -0.153512D-03
     20  0.384833D+00  0.332612D+00  0.230120D+00  0.439007D-02  0.211499D-02
     21  0.767667D+00  0.140350D+00  0.577427D+00  0.709209D-02  0.240452D-02
     22 -0.466536D+00 -0.901788D+00 -0.738339D+00 -0.431521D-01  0.381544D-03
     23  0.561159D+00 -0.138095D+01  0.795217D+01  0.335245D+02 -0.526664D+01
     24 -0.221565D-01  0.585017D+00 -0.611351D+00 -0.485769D+01  0.318987D+01
     25 -0.167483D+00  0.415302D+01 -0.482621D+00 -0.411669D+00  0.366239D+01
     26  0.373543D-01 -0.116573D+00  0.948652D-01  0.339760D+01 -0.122540D+00
     27  0.248428D-01  0.921462D-02 -0.495853D-01  0.999297D+01  0.434994D+00
     28 -0.786001D-01  0.179791D+01  0.282103D-01  0.206185D+01 -0.348591D+00
     29 -0.137370D+00  0.339425D+02 -0.742528D+01 -0.352698D+00  0.942540D+01
     30  0.849355D+01 -0.655146D+01  0.728517D+01  0.800094D+01  0.104607D+01
     31  0.200181D+01 -0.370385D+01  0.281058D+01  0.132856D+01 -0.619118D+00
                6             7             8             9            10 
      6  0.385007D+12
      7 -0.244225D+02  0.385007D+12
      8 -0.598551D+00 -0.192905D+00  0.708114D+10
      9  0.210326D+00  0.147732D-01 -0.127355D+00  0.201170D+10
     10 -0.259024D+00 -0.118802D-01  0.216707D-01  0.700635D+02  0.385007D+12
     11  0.259625D-02  0.946555D-01 -0.198882D+01  0.108005D+00  0.179553D+00
     12 -0.281743D-02 -0.438660D-02 -0.205136D+01  0.896624D-01 -0.473429D-01
     13  0.140513D-01  0.552468D-01 -0.707697D+00  0.138608D+00 -0.554822D-02
     14  0.180953D-01  0.239180D+00 -0.107063D+01 -0.174956D-01  0.174781D-01
     15  0.158788D-01  0.546978D-01 -0.101499D+01 -0.116487D-01 -0.740868D-02
     16  0.548688D-02  0.169269D-01 -0.791972D+00  0.569778D-01 -0.205229D-01
     17  0.715967D-01 -0.344652D-02 -0.130178D+00  0.145519D+02  0.242744D+01
     18  0.283318D-02  0.812854D-03 -0.105975D+00  0.725283D+01  0.845177D+00
     19  0.632093D-02  0.871249D-03  0.263599D-03  0.818030D+00 -0.400068D+00
     20  0.457161D-02 -0.119665D-02 -0.332744D-01  0.969576D+00  0.132140D+00
     21  0.284855D-02  0.289562D-02 -0.429212D-01  0.681241D+00 -0.655335D+00
     22  0.519032D-02 -0.110700D-01  0.339835D+00 -0.176849D+01 -0.172932D+01
     23 -0.466643D+01 -0.543610D+01  0.295515D-01  0.782577D+00 -0.482783D+00
     24  0.509964D+01  0.124511D+02 -0.412734D-01  0.316766D+00 -0.957575D+00
     25  0.114886D+02  0.216044D+01 -0.137263D+00 -0.310534D-01 -0.600660D-01
     26 -0.200870D+00 -0.346964D+00  0.689701D-03  0.171444D+00 -0.108840D+00
     27  0.274930D+01 -0.363004D+00 -0.483850D-01  0.183012D-03 -0.416649D-03
     28 -0.183766D-01 -0.128666D+00 -0.621288D-02 -0.356838D-01  0.644528D-01
     29  0.113776D+01  0.320691D+01 -0.277735D+00  0.571483D+00  0.300682D+01
     30 -0.336416D+00 -0.376075D+00 -0.358548D+00  0.355520D+00 -0.267134D+00
     31 -0.105699D+00 -0.378556D+00  0.536609D-01  0.374541D+01 -0.580092D+00
               11            12            13            14            15 
     11  0.201170D+10
     12  0.705147D+02  0.385007D+12
     13  0.976242D+01  0.253107D+01  0.243533D+11
     14 -0.135245D+01  0.311256D+01  0.155218D+03  0.385007D+12
     15 -0.121061D+01  0.346291D+01  0.158988D+03 -0.228627D+02  0.385007D+12
     16 -0.878354D+00  0.905864D+01  0.142918D+03 -0.232534D+02 -0.233942D+02
     17 -0.439383D-01 -0.363805D-03 -0.246817D-01  0.959266D-02  0.118902D-01
     18  0.270119D-02  0.140080D-01  0.259203D-01  0.476263D-04  0.348519D-03
     19  0.135512D-01  0.491647D-03  0.632743D-03 -0.839044D-03 -0.281521D-03
     20 -0.136068D-02 -0.288695D-02 -0.432551D-02  0.131664D-02  0.538178D-03
     21  0.582872D-01 -0.341306D-02  0.234969D-01  0.135550D-02 -0.117617D-02
     22 -0.585862D-01  0.769131D-02 -0.141369D-01 -0.580695D-02 -0.265851D-02
     23  0.305368D-01  0.145331D-01  0.406656D-02 -0.285927D-02  0.373991D-02
     24  0.964591D-01 -0.565722D-01 -0.304272D-03  0.254277D-01 -0.381989D-02
     25 -0.662979D-02  0.741181D-02  0.111790D-02  0.332399D-02 -0.373178D-02
     26  0.479201D-02  0.111156D-02 -0.153830D-02  0.173217D-03  0.188023D-02
     27  0.578783D-02 -0.393841D-02 -0.142272D-02  0.101108D-01  0.587411D-02
     28 -0.100650D-03 -0.358481D-02 -0.382620D-02  0.949960D-02  0.783517D-02
     29  0.596861D-01 -0.179260D+00 -0.237644D+00  0.429977D+00  0.883660D+00
     30 -0.955169D-01 -0.133107D+00 -0.285638D-01  0.191820D-01  0.575340D-01
     31  0.255212D+00 -0.623036D+00  0.455572D-02 -0.211767D-01 -0.349937D-03
               16            17            18            19            20 
     16  0.385007D+12
     17  0.100682D-02  0.243533D+11
     18  0.174982D-02  0.539836D+02  0.243533D+11
     19  0.772551D-03 -0.607106D+01  0.133256D+03  0.385007D+12
     20  0.186779D-02 -0.902866D+01  0.143195D+03 -0.218935D+02  0.385007D+12
     21  0.950925D-02 -0.962526D+01  0.138986D+03 -0.240155D+02 -0.285430D+02
     22 -0.456392D-02  0.100483D+02 -0.404371D+01 -0.350982D+01 -0.180019D+01
     23 -0.440602D-02 -0.264121D-01  0.787641D-01 -0.180735D-01 -0.391377D-02
     24  0.704712D-02  0.101107D+00 -0.899950D-02  0.674696D-02  0.267321D-02
     25 -0.557185D-03  0.365889D-02 -0.826336D-02  0.251554D-02  0.936762D-02
     26 -0.145635D-03  0.939921D-01  0.320742D-02  0.931803D-03  0.739237D-03
     27 -0.183252D-03 -0.177207D-02  0.199732D-03  0.157015D-04 -0.164520D-03
     28  0.302271D-04  0.467760D-01 -0.577730D-02  0.400303D-03  0.256809D-02
     29  0.438816D-01  0.281413D+01 -0.523178D-01 -0.279400D-01  0.177421D+00
     30  0.141109D-01 -0.246104D+00  0.138510D-01  0.368492D-02 -0.199605D-01
     31  0.295660D-01  0.690408D+00  0.447620D+00 -0.267308D-02  0.873937D-01
               21            22            23            24            25 
     21  0.385007D+12
     22 -0.195080D+01  0.708114D+10
     23 -0.101887D-01 -0.151073D+00  0.243533D+11
     24 -0.185233D-02 -0.232714D-01  0.128432D+03  0.385007D+12
     25 -0.214859D-02 -0.382123D-01  0.343964D+02 -0.629269D+01  0.243533D+11
     26 -0.662329D-03  0.334339D-02 -0.577263D+01  0.111564D+02  0.134850D+03
     27  0.191083D-04 -0.847720D-03 -0.483190D+01  0.354701D+01  0.135337D+03
     28 -0.510552D-03 -0.190221D-01 -0.427826D+01  0.461157D+01  0.138134D+03
     29 -0.290751D-01 -0.132088D+00  0.339616D+02 -0.577512D+01  0.653967D+00
     30 -0.180539D-01 -0.895639D-02 -0.483135D+01  0.635347D+01  0.108771D+01
     31 -0.696911D-01  0.119903D-01 -0.585382D+01  0.101677D+02  0.492415D+01
               26            27            28            29            30 
     26  0.385007D+12
     27 -0.235603D+02  0.385007D+12
     28 -0.236793D+02 -0.239308D+02  0.385007D+12
     29  0.267770D+01  0.300855D+01  0.108501D+02  0.243533D+11
     30 -0.226191D+00 -0.336885D+00 -0.286174D+00  0.139464D+03  0.385007D+12
     31 -0.520002D+00  0.967704D-03  0.267793D+00  0.129756D+03 -0.275958D+02
               31 
     31  0.385007D+12
 End of Minotr F.D. properties file   721 does not exist.
 End of Minotr F.D. properties file   722 does not exist.
 End of Minotr F.D. properties file   788 does not exist.
 Leave Link 1002 at Wed Jun 18 18:08:44 2014, MaxMem=  4294967296 cpu:    383319.8
 (Enter /home/ztw1e12/g09/l601.exe)
 Copying SCF densities to generalized density rwf, IOpCl= 0 IROHF=0.

 **********************************************************************

            Population analysis using the SCF density.

 **********************************************************************

 Orbital symmetries:
       Occupied  (A) (A) (A) (A) (A) (A) (A) (A) (A) (A) (A) (A)
                 (A) (A) (A) (A) (A) (A) (A) (A) (A) (A) (A) (A)
                 (A) (A) (A) (A) (A) (A) (A) (A) (A) (A) (A) (A)
                 (A) (A) (A) (A) (A) (A) (A) (A) (A) (A) (A) (A)
                 (A) (A) (A)
       Virtual   (A) (A) (A) (A) (A) (A) (A) (A) (A) (A) (A) (A)
                 (A) (A) (A) (A) (A) (A) (A) (A) (A) (A) (A) (A)
                 (A) (A) (A) (A) (A) (A) (A) (A) (A) (A) (A) (A)
                 (A) (A) (A) (A) (A) (A) (A) (A) (A) (A) (A) (A)
                 (A) (A) (A) (A) (A) (A) (A) (A) (A) (A) (A) (A)
                 (A) (A) (A) (A) (A) (A) (A) (A) (A) (A) (A) (A)
                 (A) (A) (A) (A) (A) (A) (A) (A) (A) (A) (A) (A)
                 (A) (A) (A) (A) (A) (A) (A) (A) (A) (A) (A) (A)
                 (A) (A) (A) (A) (A) (A) (A) (A) (A) (A) (A) (A)
                 (A) (A) (A) (A) (A) (A) (A) (A) (A) (A) (A) (A)
                 (A) (A) (A) (A) (A) (A) (A) (A) (A) (A) (A) (A)
                 (A) (A) (A) (A) (A) (A) (A) (A) (A) (A) (A) (A)
                 (A) (A) (A) (A) (A) (A) (A) (A) (A) (A) (A) (A)
                 (A) (A) (A) (A) (A) (A) (A) (A) (A) (A) (A) (A)
                 (A) (A) (A) (A) (A) (A) (A) (A) (A) (A) (A) (A)
                 (A) (A) (A) (A) (A) (A) (A) (A) (A) (A) (A) (A)
                 (A) (A) (A) (A) (A) (A) (A) (A) (A) (A) (A) (A)
                 (A) (A) (A) (A) (A) (A) (A) (A) (A) (A) (A) (A)
                 (A) (A) (A) (A) (A) (A) (A) (A) (A) (A) (A) (A)
                 (A) (A) (A) (A) (A) (A) (A) (A) (A) (A) (A) (A)
                 (A) (A) (A) (A) (A) (A) (A) (A) (A) (A) (A) (A)
                 (A) (A) (A) (A) (A) (A) (A) (A) (A) (A) (A) (A)
                 (A) (A) (A) (A) (A) (A) (A) (A) (A) (A) (A) (A)
                 (A) (A) (A) (A) (A) (A) (A) (A) (A) (A) (A) (A)
                 (A) (A) (A) (A) (A) (A) (A) (A) (A) (A) (A) (A)
                 (A) (A) (A) (A) (A) (A) (A) (A) (A) (A) (A) (A)
                 (A) (A) (A) (A) (A) (A) (A) (A) (A) (A) (A) (A)
                 (A) (A) (A) (A) (A) (A) (A) (A) (A) (A) (A) (A)
                 (A) (A) (A) (A) (A) (A) (A) (A) (A) (A) (A) (A)
                 (A) (A) (A) (A) (A) (A) (A) (A) (A) (A) (A) (A)
                 (A) (A) (A) (A) (A) (A) (A) (A) (A) (A) (A) (A)
                 (A) (A) (A) (A) (A) (A) (A) (A) (A) (A) (A) (A)
                 (A) (A) (A) (A) (A) (A) (A) (A) (A) (A) (A) (A)
                 (A) (A) (A) (A) (A) (A) (A) (A) (A) (A) (A) (A)
                 (A) (A) (A) (A) (A) (A) (A) (A) (A) (A) (A) (A)
                 (A) (A) (A) (A) (A) (A) (A) (A) (A) (A) (A) (A)
                 (A) (A) (A) (A) (A) (A) (A) (A) (A) (A) (A) (A)
                 (A) (A) (A) (A) (A) (A) (A) (A) (A) (A) (A) (A)
                 (A) (A) (A) (A) (A) (A) (A) (A) (A) (A) (A) (A)
                 (A) (A) (A) (A) (A) (A) (A) (A) (A) (A) (A) (A)
                 (A) (A) (A) (A) (A) (A) (A) (A) (A) (A) (A) (A)
                 (A) (A) (A) (A) (A) (A) (A) (A) (A) (A) (A) (A)
                 (A) (A) (A) (A) (A) (A) (A) (A) (A) (A) (A) (A)
                 (A) (A) (A) (A) (A) (A) (A) (A) (A) (A) (A) (A)
                 (A) (A) (A) (A) (A) (A) (A) (A) (A) (A) (A) (A)
                 (A) (A) (A) (A) (A) (A) (A) (A) (A) (A) (A) (A)
                 (A) (A) (A) (A) (A) (A) (A) (A) (A) (A) (A) (A)
                 (A) (A) (A) (A) (A) (A) (A) (A) (A) (A) (A) (A)
                 (A) (A) (A) (A) (A) (A) (A) (A) (A) (A) (A) (A)
                 (A) (A) (A) (A) (A) (A) (A) (A) (A) (A) (A) (A)
                 (A) (A) (A) (A) (A) (A) (A) (A) (A) (A) (A) (A)
                 (A) (A) (A) (A) (A) (A) (A) (A) (A) (A) (A) (A)
                 (A) (A) (A) (A) (A) (A) (A) (A) (A) (A) (A) (A)
                 (A) (A) (A) (A) (A) (A) (A) (A) (A) (A) (A) (A)
                 (A) (A) (A) (A) (A) (A) (A) (A) (A) (A) (A) (A)
                 (A) (A) (A) (A) (A) (A) (A) (A) (A) (A) (A) (A)
                 (A) (A) (A) (A) (A) (A) (A) (A) (A) (A) (A) (A)
                 (A) (A) (A) (A) (A) (A) (A) (A) (A) (A) (A) (A)
                 (A) (A) (A) (A) (A) (A) (A) (A) (A) (A) (A) (A)
                 (A) (A) (A) (A) (A) (A) (A) (A) (A) (A) (A) (A)
                 (A) (A) (A) (A) (A) (A) (A) (A) (A) (A) (A) (A)
                 (A) (A) (A) (A) (A) (A) (A) (A) (A) (A) (A) (A)
                 (A) (A) (A) (A) (A) (A) (A) (A) (A) (A) (A) (A)
                 (A) (A) (A) (A) (A) (A) (A) (A) (A) (A) (A) (A)
                 (A) (A) (A) (A) (A) (A) (A) (A) (A) (A) (A) (A)
                 (A) (A) (A) (A) (A) (A) (A) (A) (A) (A) (A) (A)
                 (A) (A) (A) (A) (A) (A) (A) (A) (A) (A) (A) (A)
                 (A) (A) (A) (A) (A) (A) (A) (A) (A) (A) (A) (A)
                 (A) (A) (A) (A) (A) (A) (A) (A) (A) (A) (A) (A)
                 (A) (A) (A) (A) (A) (A) (A) (A) (A) (A) (A) (A)
                 (A) (A) (A) (A) (A) (A) (A) (A) (A) (A) (A) (A)
                 (A) (A) (A) (A) (A) (A) (A) (A) (A) (A) (A) (A)
                 (A) (A) (A) (A) (A) (A) (A) (A) (A) (A) (A) (A)
                 (A) (A) (A) (A) (A)
 The electronic state is 1-A.
 Alpha  occ. eigenvalues --  -19.17316 -19.16257 -14.41987 -14.41234 -10.33579
 Alpha  occ. eigenvalues --  -10.33182 -10.29163 -10.27304 -10.25733 -10.25707
 Alpha  occ. eigenvalues --  -10.23717 -10.23552 -10.22989  -1.05493  -1.03958
 Alpha  occ. eigenvalues --   -0.94428  -0.94137  -0.84089  -0.78557  -0.74188
 Alpha  occ. eigenvalues --   -0.72037  -0.70456  -0.66394  -0.60505  -0.60111
 Alpha  occ. eigenvalues --   -0.58152  -0.55038  -0.50909  -0.49440  -0.47872
 Alpha  occ. eigenvalues --   -0.47316  -0.46883  -0.45353  -0.45137  -0.44121
 Alpha  occ. eigenvalues --   -0.42616  -0.41494  -0.40828  -0.40475  -0.40160
 Alpha  occ. eigenvalues --   -0.39767  -0.39018  -0.38380  -0.36390  -0.35212
 Alpha  occ. eigenvalues --   -0.34781  -0.33741  -0.28373  -0.27576  -0.26384
 Alpha  occ. eigenvalues --   -0.25709
 Alpha virt. eigenvalues --    0.01177   0.02038   0.02580   0.03598   0.04604
 Alpha virt. eigenvalues --    0.04764   0.06674   0.07009   0.07503   0.08226
 Alpha virt. eigenvalues --    0.09935   0.10731   0.11217   0.11428   0.11928
 Alpha virt. eigenvalues --    0.12273   0.12872   0.13905   0.14408   0.15542
 Alpha virt. eigenvalues --    0.16201   0.17035   0.17575   0.19259   0.19292
 Alpha virt. eigenvalues --    0.21286   0.22273   0.23375   0.23742   0.23985
 Alpha virt. eigenvalues --    0.24902   0.26314   0.26491   0.26888   0.27819
 Alpha virt. eigenvalues --    0.29097   0.29531   0.30103   0.30785   0.31863
 Alpha virt. eigenvalues --    0.32858   0.33593   0.34638   0.35028   0.35711
 Alpha virt. eigenvalues --    0.36737   0.37461   0.38015   0.38654   0.39126
 Alpha virt. eigenvalues --    0.39250   0.40036   0.40189   0.40983   0.41305
 Alpha virt. eigenvalues --    0.41809   0.42226   0.42428   0.42544   0.43291
 Alpha virt. eigenvalues --    0.43659   0.44496   0.44873   0.44939   0.45313
 Alpha virt. eigenvalues --    0.45716   0.46404   0.46866   0.48807   0.49496
 Alpha virt. eigenvalues --    0.49784   0.50673   0.51781   0.51896   0.52100
 Alpha virt. eigenvalues --    0.53889   0.54425   0.55273   0.55976   0.56609
 Alpha virt. eigenvalues --    0.57298   0.58355   0.59547   0.60950   0.61818
 Alpha virt. eigenvalues --    0.62822   0.63387   0.65023   0.65574   0.66830
 Alpha virt. eigenvalues --    0.69362   0.70529   0.71291   0.72518   0.74716
 Alpha virt. eigenvalues --    0.75381   0.75666   0.76933   0.77876   0.78334
 Alpha virt. eigenvalues --    0.79695   0.80059   0.80805   0.81873   0.83068
 Alpha virt. eigenvalues --    0.83718   0.84826   0.85393   0.85947   0.86925
 Alpha virt. eigenvalues --    0.87637   0.88192   0.88860   0.89953   0.91794
 Alpha virt. eigenvalues --    0.92810   0.93314   0.93750   0.94631   0.95501
 Alpha virt. eigenvalues --    0.95834   0.96626   0.96918   0.97773   0.98067
 Alpha virt. eigenvalues --    0.98926   0.99289   1.01177   1.01572   1.01825
 Alpha virt. eigenvalues --    1.03376   1.04061   1.04373   1.04987   1.06335
 Alpha virt. eigenvalues --    1.07376   1.08415   1.08961   1.09490   1.10057
 Alpha virt. eigenvalues --    1.10458   1.11698   1.13061   1.13429   1.14524
 Alpha virt. eigenvalues --    1.15225   1.15882   1.16536   1.16638   1.17919
 Alpha virt. eigenvalues --    1.18741   1.19771   1.20089   1.20696   1.21518
 Alpha virt. eigenvalues --    1.22172   1.22658   1.22897   1.23531   1.23766
 Alpha virt. eigenvalues --    1.23791   1.25322   1.25471   1.25989   1.27318
 Alpha virt. eigenvalues --    1.27550   1.28275   1.28783   1.29364   1.30226
 Alpha virt. eigenvalues --    1.30391   1.31032   1.31638   1.32245   1.33211
 Alpha virt. eigenvalues --    1.33506   1.34066   1.34826   1.36237   1.36916
 Alpha virt. eigenvalues --    1.37312   1.37740   1.38808   1.39161   1.42085
 Alpha virt. eigenvalues --    1.42900   1.43768   1.44299   1.45953   1.49295
 Alpha virt. eigenvalues --    1.50413   1.51556   1.53267   1.54748   1.55230
 Alpha virt. eigenvalues --    1.56345   1.59680   1.61116   1.61980   1.64038
 Alpha virt. eigenvalues --    1.65229   1.65952   1.68863   1.69701   1.72466
 Alpha virt. eigenvalues --    1.74417   1.74952   1.77396   1.77525   1.81211
 Alpha virt. eigenvalues --    1.84494   1.87573   1.90261   1.91381   1.93402
 Alpha virt. eigenvalues --    1.93935   1.95730   1.96276   1.99738   2.00860
 Alpha virt. eigenvalues --    2.01257   2.02381   2.03908   2.05142   2.08252
 Alpha virt. eigenvalues --    2.08677   2.10186   2.12161   2.13078   2.15314
 Alpha virt. eigenvalues --    2.16550   2.18503   2.21116   2.21865   2.22828
 Alpha virt. eigenvalues --    2.23869   2.24437   2.26436   2.28497   2.30583
 Alpha virt. eigenvalues --    2.32050   2.34233   2.34850   2.38290   2.39051
 Alpha virt. eigenvalues --    2.39794   2.40419   2.42749   2.43517   2.43814
 Alpha virt. eigenvalues --    2.45114   2.45562   2.47024   2.48725   2.49316
 Alpha virt. eigenvalues --    2.50270   2.52695   2.53684   2.53980   2.54604
 Alpha virt. eigenvalues --    2.55041   2.56528   2.58980   2.59924   2.62929
 Alpha virt. eigenvalues --    2.64962   2.66022   2.67642   2.67939   2.69016
 Alpha virt. eigenvalues --    2.70534   2.70733   2.71579   2.72955   2.73476
 Alpha virt. eigenvalues --    2.74212   2.75192   2.75411   2.76707   2.78953
 Alpha virt. eigenvalues --    2.79484   2.80033   2.80938   2.81393   2.82697
 Alpha virt. eigenvalues --    2.84439   2.85564   2.85641   2.87136   2.87878
 Alpha virt. eigenvalues --    2.88371   2.89655   2.90099   2.90997   2.91426
 Alpha virt. eigenvalues --    2.92026   2.92503   2.93695   2.94446   2.95071
 Alpha virt. eigenvalues --    2.96654   2.97400   2.98439   2.98814   2.99576
 Alpha virt. eigenvalues --    2.99856   3.00888   3.01995   3.02326   3.03176
 Alpha virt. eigenvalues --    3.03499   3.04046   3.04478   3.05162   3.06009
 Alpha virt. eigenvalues --    3.06791   3.07672   3.08512   3.08796   3.09990
 Alpha virt. eigenvalues --    3.11261   3.11448   3.12162   3.13019   3.14312
 Alpha virt. eigenvalues --    3.14557   3.16056   3.18195   3.18842   3.19746
 Alpha virt. eigenvalues --    3.20873   3.21244   3.22882   3.24062   3.24707
 Alpha virt. eigenvalues --    3.24943   3.26335   3.27193   3.27292   3.28373
 Alpha virt. eigenvalues --    3.29298   3.29897   3.30387   3.30919   3.31432
 Alpha virt. eigenvalues --    3.32257   3.32763   3.33303   3.34210   3.35594
 Alpha virt. eigenvalues --    3.37221   3.37511   3.37930   3.39473   3.39676
 Alpha virt. eigenvalues --    3.40368   3.41578   3.42144   3.42700   3.43377
 Alpha virt. eigenvalues --    3.44246   3.45091   3.45403   3.46089   3.47110
 Alpha virt. eigenvalues --    3.48929   3.49404   3.50640   3.52499   3.53098
 Alpha virt. eigenvalues --    3.55067   3.55443   3.56102   3.58653   3.59536
 Alpha virt. eigenvalues --    3.60627   3.61321   3.62246   3.64650   3.65378
 Alpha virt. eigenvalues --    3.66228   3.67393   3.68801   3.69888   3.70911
 Alpha virt. eigenvalues --    3.71340   3.72508   3.73173   3.74757   3.75382
 Alpha virt. eigenvalues --    3.76137   3.76356   3.78196   3.78516   3.79539
 Alpha virt. eigenvalues --    3.81001   3.81374   3.82424   3.83103   3.84635
 Alpha virt. eigenvalues --    3.85691   3.86960   3.88400   3.88656   3.89529
 Alpha virt. eigenvalues --    3.90731   3.91588   3.91601   3.92669   3.94176
 Alpha virt. eigenvalues --    3.94732   3.95385   3.96744   3.97417   3.99017
 Alpha virt. eigenvalues --    4.00158   4.02010   4.03257   4.04068   4.04747
 Alpha virt. eigenvalues --    4.06619   4.07218   4.07669   4.09604   4.09824
 Alpha virt. eigenvalues --    4.11000   4.12107   4.12807   4.14099   4.14748
 Alpha virt. eigenvalues --    4.16164   4.16809   4.17642   4.19349   4.20387
 Alpha virt. eigenvalues --    4.20798   4.21911   4.22256   4.24629   4.24835
 Alpha virt. eigenvalues --    4.25714   4.26856   4.28174   4.28264   4.29691
 Alpha virt. eigenvalues --    4.30566   4.30961   4.31335   4.33789   4.34657
 Alpha virt. eigenvalues --    4.36314   4.38665   4.39714   4.40900   4.42000
 Alpha virt. eigenvalues --    4.44194   4.45355   4.45892   4.48368   4.48433
 Alpha virt. eigenvalues --    4.50293   4.51068   4.52243   4.53294   4.56369
 Alpha virt. eigenvalues --    4.57931   4.58776   4.59439   4.60301   4.61655
 Alpha virt. eigenvalues --    4.62108   4.62410   4.63558   4.63773   4.64933
 Alpha virt. eigenvalues --    4.66369   4.68960   4.70425   4.70778   4.71645
 Alpha virt. eigenvalues --    4.72652   4.74524   4.74832   4.76427   4.77631
 Alpha virt. eigenvalues --    4.78092   4.79471   4.79590   4.82234   4.83246
 Alpha virt. eigenvalues --    4.85559   4.86661   4.89236   4.89866   4.90709
 Alpha virt. eigenvalues --    4.92181   4.93907   4.95400   4.95817   4.97422
 Alpha virt. eigenvalues --    4.97916   4.99258   4.99581   5.01835   5.02739
 Alpha virt. eigenvalues --    5.03846   5.04833   5.06051   5.09121   5.10849
 Alpha virt. eigenvalues --    5.11236   5.12210   5.13403   5.14068   5.15006
 Alpha virt. eigenvalues --    5.15618   5.17352   5.18459   5.18760   5.20388
 Alpha virt. eigenvalues --    5.21709   5.22523   5.23966   5.24163   5.24477
 Alpha virt. eigenvalues --    5.26246   5.29082   5.29248   5.30058   5.30399
 Alpha virt. eigenvalues --    5.31562   5.35881   5.36664   5.37858   5.41066
 Alpha virt. eigenvalues --    5.43478   5.44340   5.44905   5.45729   5.49941
 Alpha virt. eigenvalues --    5.51471   5.52621   5.56902   5.57578   5.58974
 Alpha virt. eigenvalues --    5.59770   5.62452   5.62944   5.64446   5.65261
 Alpha virt. eigenvalues --    5.65741   5.67993   5.69935   5.71440   5.71953
 Alpha virt. eigenvalues --    5.73313   5.75213   5.76134   5.77203   5.79355
 Alpha virt. eigenvalues --    5.79905   5.82852   5.83674   5.86476   5.87746
 Alpha virt. eigenvalues --    5.88697   5.95377   5.96528   6.03307   6.04896
 Alpha virt. eigenvalues --    6.12578   6.19432   6.20821   6.23719   6.27778
 Alpha virt. eigenvalues --    6.51386   6.52848   6.57328   6.62197   6.64494
 Alpha virt. eigenvalues --    6.65460   6.77828   6.81926   6.90534   6.92293
 Alpha virt. eigenvalues --    6.94261   6.95187   7.18390   7.19417   7.23419
 Alpha virt. eigenvalues --    7.28766   8.14758   8.29458   8.66224   8.73868
 Alpha virt. eigenvalues --    8.78513   8.79906   8.82314   8.82430   8.83243
 Alpha virt. eigenvalues --    8.85323   8.87770   8.88716   8.90909   8.91932
 Alpha virt. eigenvalues --    8.95001   8.95501   8.96233   8.97323   9.03503
 Alpha virt. eigenvalues --    9.06388   9.08854   9.11264   9.13579   9.15355
 Alpha virt. eigenvalues --    9.23177   9.60458   9.62260   9.77343   9.83218
 Alpha virt. eigenvalues --    9.90568   9.93517  10.10812  10.11429  10.15616
 Alpha virt. eigenvalues --   10.18047  10.19229  10.19839  10.21843  10.26085
 Alpha virt. eigenvalues --   10.27121  10.28836  10.31714  10.33363  10.34575
 Alpha virt. eigenvalues --   10.38911  11.75191  11.82993  12.04628  12.13985
 Alpha virt. eigenvalues --   12.15451  12.19207  12.24100  12.24350  12.29570
 Alpha virt. eigenvalues --   12.36958  12.47378  12.56649  12.59747  12.83820
 Alpha virt. eigenvalues --   12.92827  14.97746  15.03045  15.23913  15.27831
 Alpha virt. eigenvalues --   15.99508  16.04586  16.83988  16.90159  22.00599
 Alpha virt. eigenvalues --   22.10644  40.18114  40.26761  40.66725  40.67914
 Alpha virt. eigenvalues --   40.69255  40.71278  40.73340  40.74599  40.76589
 Alpha virt. eigenvalues --   40.77630  40.80154  40.80838  40.81709  40.82230
 Alpha virt. eigenvalues --   40.84034  40.84541  40.85078  40.85763  40.86102
 Alpha virt. eigenvalues --   40.87057  40.88537  40.89454  40.90391  40.90606
 Alpha virt. eigenvalues --   40.91513  40.92318  40.93257  46.34487  46.45054
 Alpha virt. eigenvalues --   46.48762  46.50487  46.56375  46.56952  46.61416
 Alpha virt. eigenvalues --   46.70829  46.80885  54.44932  54.51407  55.79772
 Alpha virt. eigenvalues --   55.84322  55.93624  55.97257  56.06416  56.13249
 Alpha virt. eigenvalues --   56.15938  56.18449  56.24099  56.29528  56.36759
 Alpha virt. eigenvalues --   56.38616  56.46084  56.56292  56.64298  56.73838
 Alpha virt. eigenvalues --   57.46288  57.51185  57.99566  58.02729  58.19466
 Alpha virt. eigenvalues --   58.25721  64.70984  64.76844  73.94686  73.97589
 Alpha virt. eigenvalues --   74.09738  74.11656  74.63864  74.66397  86.06547
 Alpha virt. eigenvalues --   86.15379 165.43748 165.53202 165.57564 165.58611
 Alpha virt. eigenvalues --  165.64421 165.64796 165.68261 165.76490 165.85673
 Alpha virt. eigenvalues --  226.55546 226.70062 230.58172 230.63547 235.65781
 Alpha virt. eigenvalues --  235.83726 236.07144 236.23570 236.34688 236.52471
 Alpha virt. eigenvalues --  236.53233 237.19458 237.43726 237.63082 237.66372
 Alpha virt. eigenvalues --  237.77794 238.05655 238.32633 238.69481 239.22478
 Alpha virt. eigenvalues --  308.80237 308.88030 624.55250 624.60691 624.63202
 Alpha virt. eigenvalues --  624.67405 624.69651 624.70181 624.73803 624.81058
 Alpha virt. eigenvalues --  624.87824 794.42410 794.61510 826.27724 827.17987
 Alpha virt. eigenvalues --  827.25570 827.44619 827.46791 827.68892 827.89769
 Alpha virt. eigenvalues --  830.50627 831.14997 831.64823 831.75964 831.98446
 Alpha virt. eigenvalues --  832.71016 833.27207 834.63011 836.57830 868.34003
 Alpha virt. eigenvalues --  868.396471165.930331166.001462485.194982486.06427
 Alpha virt. eigenvalues -- 2589.279122589.805992593.040812593.338392595.16624
 Alpha virt. eigenvalues -- 2595.550002598.360242602.424422604.554472604.72806
 Alpha virt. eigenvalues -- 2606.948112607.686282610.381322612.590832614.38284
 Alpha virt. eigenvalues -- 2617.856662740.326392740.339252740.366522740.41191
 Alpha virt. eigenvalues -- 2740.438032740.466752740.518242740.557692740.58208
 Alpha virt. eigenvalues -- 3787.314973787.375875073.312435073.375598293.98391
 Alpha virt. eigenvalues -- 8294.275728630.606228634.374258634.966498636.85476
 Alpha virt. eigenvalues -- 8636.921218637.756768640.531558662.500118668.52926
 Alpha virt. eigenvalues -- 8671.467358673.334928674.766198681.200348685.57159
 Alpha virt. eigenvalues -- 8695.559818711.56274******************************
 Alpha virt. eigenvalues -- **************************************************
 Alpha virt. eigenvalues -- **************************************************
 Alpha virt. eigenvalues -- **************************************************
 Alpha virt. eigenvalues -- **************************************************
 Alpha virt. eigenvalues -- **************************************************
 Alpha virt. eigenvalues -- **************************************************
 Alpha virt. eigenvalues -- **************************************************
 Alpha virt. eigenvalues -- **********
          Condensed to atoms (all electrons):
               1          2          3          4          5          6
     1  C    4.511177   0.216634  -0.042107   0.004159   0.000131  -0.006058
     2  C    0.216634   5.335287   0.375635   0.014952  -0.000793  -0.001462
     3  H   -0.042107   0.375635   0.482997   0.000056   0.000040   0.001158
     4  C    0.004159   0.014952   0.000056   5.076434   0.400804   0.382366
     5  H    0.000131  -0.000793   0.000040   0.400804   0.526735  -0.005396
     6  H   -0.006058  -0.001462   0.001158   0.382366  -0.005396   0.498156
     7  H    0.003020  -0.007882  -0.000137   0.396958  -0.018809  -0.020486
     8  O    0.720482  -0.111335   0.003935  -0.012195   0.000334   0.019334
     9  N   -0.056065   0.280793  -0.030633  -0.009692   0.000094   0.006443
    10  H   -0.004256  -0.030497   0.005476  -0.000573   0.000148   0.001706
    11  N    0.377248  -0.132233   0.004945  -0.004724   0.000052   0.002037
    12  H   -0.027190   0.011540   0.000181   0.000162  -0.000008  -0.000168
    13  C   -0.047126   0.010810  -0.001172  -0.000229  -0.000022  -0.000241
    14  H    0.000830   0.002341   0.000053   0.000319  -0.000004   0.000436
    15  H   -0.007327  -0.000990  -0.000195   0.000029  -0.000001  -0.000143
    16  H    0.006796   0.000566  -0.000112   0.000014  -0.000001  -0.000010
    17  C   -0.000288  -0.053052   0.001564  -0.000316   0.000005   0.000497
    18  C   -0.005204   0.017943   0.002681  -0.000009   0.000000   0.000220
    19  H    0.000660  -0.000831  -0.000524  -0.000029   0.000000  -0.000135
    20  H   -0.000024  -0.000630   0.000118  -0.000004   0.000000   0.000027
    21  H    0.000831  -0.000872  -0.000165   0.000016  -0.000001  -0.000052
    22  O   -0.011421   0.019001   0.023755   0.000024   0.000000  -0.000088
[...]
 Alpha virt. eigenvalues --    4.39314   4.39410   4.41458   4.41608   4.43970
 Alpha virt. eigenvalues --    4.45529   4.46391   4.49109   4.52096   4.52271
 Alpha virt. eigenvalues --    4.53068   4.54265   4.55573   4.58975   4.59746
 Alpha virt. eigenvalues --    4.60713   4.62988   4.64161   4.65882   4.66820
 Alpha virt. eigenvalues --    4.68115   4.68788   4.71265   4.72207   4.73228
 Alpha virt. eigenvalues --    4.73656   4.74317   4.76147   4.78408   4.78912
 Alpha virt. eigenvalues --    4.79790   4.81015   4.81653   4.83606   4.84154
 Alpha virt. eigenvalues --    4.84444   4.87469   4.88914   4.89803   4.89905
 Alpha virt. eigenvalues --    4.91154   4.93267   4.94433   4.95342   4.97396
 Alpha virt. eigenvalues --    4.97575   4.97967   5.00126   5.01163   5.02387
 Alpha virt. eigenvalues --    5.02933   5.03749   5.04526   5.04670   5.06147
 Alpha virt. eigenvalues --    5.07693   5.08457   5.10971   5.12567   5.13283
 Alpha virt. eigenvalues --    5.13782   5.14353   5.17167   5.17461   5.18018
 Alpha virt. eigenvalues --    5.19323   5.19861   5.20654   5.22209   5.23548
 Alpha virt. eigenvalues --    5.24219   5.24413   5.25723   5.27391   5.28372
 Alpha virt. eigenvalues --    5.29045   5.30379   5.31442   5.32193   5.33345
 Alpha virt. eigenvalues --    5.34399   5.36652   5.37213   5.38621   5.40174
 Alpha virt. eigenvalues --    5.43721   5.46370   5.49581   5.52634   5.56436
 Alpha virt. eigenvalues --    5.57203   5.60464   5.61388   5.64413   5.71234
 Alpha virt. eigenvalues --    5.72814   5.74514   5.77197   5.78558   5.78878
 Alpha virt. eigenvalues --    5.79809   5.80028   5.82183   5.84162   5.85860
 Alpha virt. eigenvalues --    5.87418   5.88800   5.90580   5.96106   5.96877
 Alpha virt. eigenvalues --    5.99581   6.01339   6.02307   6.06762   6.08597
 Alpha virt. eigenvalues --    6.22785   6.26557   6.34804   6.40108   6.49535
 Alpha virt. eigenvalues --    6.51559   6.53925   6.56896   6.67591   6.68447
 Alpha virt. eigenvalues --    6.88118   6.89329   6.92546   6.96756   7.09770
 Alpha virt. eigenvalues --    7.14134   7.16249   7.18163   9.45755   9.95410
 Alpha virt. eigenvalues --   11.62666  12.19429  12.41945  12.66673  13.01356
 Alpha virt. eigenvalues --   13.36286  13.52681  13.60480  13.65843  13.76306
 Alpha virt. eigenvalues --   13.98442
          Condensed to atoms (all electrons):
               1          2          3          4          5          6
     1  C    4.674890   0.194656  -0.049678  -0.001493   0.000249  -0.009282
     2  C    0.194656   5.418471   0.420836   0.009106  -0.000874   0.000264
     3  H   -0.049678   0.420836   0.444851   0.000076   0.000046   0.001016
     4  C   -0.001493   0.009106   0.000076   5.234684   0.406941   0.385597
     5  H    0.000249  -0.000874   0.000046   0.406941   0.514969  -0.010211
     6  H   -0.009282   0.000264   0.001016   0.385597  -0.010211   0.491834
     7  H    0.002063  -0.007691  -0.000246   0.396172  -0.024386  -0.027795
     8  O    0.709570  -0.098551   0.001866  -0.009607   0.000365   0.019079
     9  N   -0.059564   0.235123  -0.034375  -0.008416   0.000104   0.005368
    10  H   -0.002546  -0.026239   0.003257  -0.000005   0.000124   0.001774
    11  N    0.370526  -0.104842   0.000577  -0.001726   0.000062   0.001736
    12  H   -0.024472   0.007430  -0.000492   0.000162  -0.000009  -0.000164
    13  C   -0.063448   0.009913  -0.000969  -0.000094  -0.000029  -0.000278
    14  H    0.000584   0.002158   0.000065   0.000260  -0.000005   0.000451
    15  H   -0.007522  -0.000961  -0.000193   0.000028   0.000000  -0.000143
    16  H    0.007384   0.000586  -0.000084  -0.000005  -0.000002  -0.000009
    17  C   -0.000603  -0.064168   0.000312  -0.000384   0.000006   0.000723
    18  C   -0.003644   0.014324   0.002453  -0.000026   0.000000   0.000220
    19  H    0.000446   0.000060  -0.000482  -0.000022  -0.000001  -0.000152
    20  H   -0.000085  -0.000540   0.000111  -0.000003   0.000000   0.000025
    21  H    0.000785  -0.000882  -0.000148   0.000016  -0.000001  -0.000050
    22  O   -0.007009   0.016314   0.022712   0.000016   0.000000  -0.000089
    23  C   -0.005938  -0.012442   0.004418   0.245011  -0.035145  -0.027091
    24  H    0.002681  -0.012993  -0.000916  -0.049659  -0.005636  -0.010416
    25  C   -0.000590   0.007763  -0.000089  -0.070028  -0.008429   0.006720
    26  H   -0.000154  -0.000074  -0.000020  -0.007027  -0.000611   0.000076
    27  H   -0.000019   0.000469  -0.000024   0.008118  -0.000020  -0.000317
    28  H    0.000021  -0.000449   0.000015  -0.006907   0.004791  -0.000047
    29  C   -0.035506   0.223213  -0.030269  -0.050747   0.008297  -0.007197
    30  H    0.005746  -0.025153  -0.008260   0.007057  -0.000375  -0.000797
    31  H    0.006101  -0.054488  -0.006562  -0.004901  -0.000107  -0.001124
               7          8          9         10         11         12
     1  C    0.002063   0.709570  -0.059564  -0.002546   0.370526  -0.024472
     2  C   -0.007691  -0.098551   0.235123  -0.026239  -0.104842   0.007430
     3  H   -0.000246   0.001866  -0.034375   0.003257   0.000577  -0.000492
     4  C    0.396172  -0.009607  -0.008416  -0.000005  -0.001726   0.000162
     5  H   -0.024386   0.000365   0.000104   0.000124   0.000062  -0.000009
     6  H   -0.027795   0.019079   0.005368   0.001774   0.001736  -0.000164
     7  H    0.542925  -0.003427   0.000466   0.000099   0.003614   0.000242
     8  O   -0.003427   7.848562   0.004238   0.000200  -0.117441   0.004955
     9  N    0.000466   0.004238   6.560599   0.386570   0.006317   0.000542
    10  H    0.000099   0.000200   0.386570   0.490527   0.000044  -0.000012
    11  N    0.003614  -0.117441   0.006317   0.000044   6.426938   0.383834
    12  H    0.000242   0.004955   0.000542  -0.000012   0.383834   0.528190
    13  C    0.000298   0.004773  -0.000288   0.000001   0.299175  -0.032483
    14  H   -0.001040   0.005522  -0.000026  -0.000018  -0.057238   0.004523
    15  H    0.000198   0.004799  -0.000041   0.000008  -0.041837   0.001150
    16  H   -0.000040   0.001427   0.000009  -0.000001  -0.027107  -0.008010
    17  C   -0.000017   0.015056   0.328475  -0.019655  -0.000313  -0.000144
    18  C    0.000000  -0.000563  -0.070702  -0.000209  -0.000053  -0.000002
    19  H    0.000001  -0.000067   0.014009  -0.001293   0.000005   0.000001
    20  H    0.000000   0.000061   0.001551   0.000468   0.000004   0.000000
    21  H    0.000000   0.000767  -0.002447  -0.000454   0.000004  -0.000002
    22  O   -0.000002  -0.003135  -0.137123   0.004279  -0.001762  -0.000132
    23  C   -0.047301   0.000326  -0.006526   0.007465  -0.003658   0.000519
    24  H    0.008373  -0.000156   0.003348  -0.000347  -0.000248  -0.000002
    25  C   -0.007228  -0.000017  -0.000127   0.000294  -0.000308   0.000063
    26  H    0.003718   0.000004  -0.000022  -0.000021  -0.000119  -0.000008
    27  H   -0.000196   0.000000  -0.000013  -0.000033  -0.000007   0.000011
    28  H   -0.000418   0.000002   0.000016   0.000039  -0.000003  -0.000001
    29  C    0.001031   0.001949  -0.035908  -0.008907   0.006057  -0.000574
    30  H    0.000272  -0.000359  -0.001028   0.000460   0.000317  -0.000304
    31  H    0.003066  -0.000282   0.005016   0.000182   0.001727   0.002891
              13         14         15         16         17         18
     1  C   -0.063448   0.000584  -0.007522   0.007384  -0.000603  -0.003644
     2  C    0.009913   0.002158  -0.000961   0.000586  -0.064168   0.014324
     3  H   -0.000969   0.000065  -0.000193  -0.000084   0.000312   0.002453
     4  C   -0.000094   0.000260   0.000028  -0.000005  -0.000384  -0.000026
     5  H   -0.000029  -0.000005   0.000000  -0.000002   0.000006   0.000000
     6  H   -0.000278   0.000451  -0.000143  -0.000009   0.000723   0.000220
     7  H    0.000298  -0.001040   0.000198  -0.000040  -0.000017   0.000000
     8  O    0.004773   0.005522   0.004799   0.001427   0.015056  -0.000563
     9  N   -0.000288  -0.000026  -0.000041   0.000009   0.328475  -0.070702
    10  H    0.000001  -0.000018   0.000008  -0.000001  -0.019655  -0.000209
    11  N    0.299175  -0.057238  -0.041837  -0.027107  -0.000313  -0.000053
    12  H   -0.032483   0.004523   0.001150  -0.008010  -0.000144  -0.000002
    13  C    4.771100   0.390088   0.405815   0.393976  -0.000170  -0.000005
    14  H    0.390088   0.627281  -0.056738  -0.027327  -0.000009   0.000000
    15  H    0.405815  -0.056738   0.599748  -0.027159   0.000047   0.000000
    16  H    0.393976  -0.027327  -0.027159   0.599733  -0.000005   0.000000
    17  C   -0.000170  -0.000009   0.000047  -0.000005   4.530803   0.283138
    18  C   -0.000005   0.000000   0.000000   0.000000   0.283138   5.005332
    19  H    0.000001   0.000000   0.000000   0.000000  -0.053888   0.390591
    20  H    0.000000   0.000000   0.000000   0.000000  -0.024630   0.384683
    21  H    0.000002   0.000000   0.000001   0.000000  -0.025716   0.387331
    22  O   -0.000119   0.000008   0.000027  -0.000002   0.722434  -0.071775
    23  C    0.000187   0.000311  -0.000040   0.000008  -0.000602  -0.000144
    24  H    0.000013   0.000010  -0.000001   0.000000   0.000302  -0.000042
    25  C    0.000003   0.000015  -0.000001   0.000000   0.000027   0.000002
    26  H    0.000011   0.000013  -0.000001   0.000003  -0.000001   0.000000
    27  H   -0.000001   0.000000   0.000000   0.000000   0.000003   0.000000
    28  H    0.000000   0.000001   0.000000   0.000000  -0.000001   0.000000
    29  C   -0.000649  -0.000417   0.000072  -0.000072   0.008641   0.000363
    30  H    0.000063  -0.000019   0.000011   0.000004  -0.000106  -0.000044
    31  H    0.000256  -0.000303   0.000119   0.000007  -0.000147   0.000028
              19         20         21         22         23         24
     1  C    0.000446  -0.000085   0.000785  -0.007009  -0.005938   0.002681
     2  C    0.000060  -0.000540  -0.000882   0.016314  -0.012442  -0.012993
     3  H   -0.000482   0.000111  -0.000148   0.022712   0.004418  -0.000916
     4  C   -0.000022  -0.000003   0.000016   0.000016   0.245011  -0.049659
     5  H   -0.000001   0.000000  -0.000001   0.000000  -0.035145  -0.005636
     6  H   -0.000152   0.000025  -0.000050  -0.000089  -0.027091  -0.010416
     7  H    0.000001   0.000000   0.000000  -0.000002  -0.047301   0.008373
     8  O   -0.000067   0.000061   0.000767  -0.003135   0.000326  -0.000156
     9  N    0.014009   0.001551  -0.002447  -0.137123  -0.006526   0.003348
    10  H   -0.001293   0.000468  -0.000454   0.004279   0.007465  -0.000347
    11  N    0.000005   0.000004   0.000004  -0.001762  -0.003658  -0.000248
    12  H    0.000001   0.000000  -0.000002  -0.000132   0.000519  -0.000002
    13  C    0.000001   0.000000   0.000002  -0.000119   0.000187   0.000013
    14  H    0.000000   0.000000   0.000000   0.000008   0.000311   0.000010
    15  H    0.000000   0.000000   0.000001   0.000027  -0.000040  -0.000001
    16  H    0.000000   0.000000   0.000000  -0.000002   0.000008   0.000000
    17  C   -0.053888  -0.024630  -0.025716   0.722434  -0.000602   0.000302
    18  C    0.390591   0.384683   0.387331  -0.071775  -0.000144  -0.000042
    19  H    0.607282  -0.028820  -0.024441   0.004668   0.000156   0.000164
    20  H   -0.028820   0.571883  -0.023399   0.003417   0.000017  -0.000034
    21  H   -0.024441  -0.023399   0.562998   0.000102  -0.000036   0.000018
    22  O    0.004668   0.003417   0.000102   7.849710  -0.000042   0.000009
    23  C    0.000156   0.000017  -0.000036  -0.000042   5.302362   0.416337
    24  H    0.000164  -0.000034   0.000018   0.000009   0.416337   0.541237
    25  C   -0.000004   0.000000   0.000000   0.000001   0.290578  -0.028321
    26  H    0.000000   0.000000   0.000000   0.000000  -0.040602   0.007546
    27  H    0.000000   0.000000   0.000000   0.000000  -0.037676  -0.005932
    28  H    0.000000   0.000000   0.000000   0.000000  -0.033736  -0.006207
    29  C   -0.000241  -0.000025   0.000047   0.001599   0.232614  -0.039362
    30  H    0.000021  -0.000016   0.000009  -0.000053  -0.046320  -0.004239
    31  H    0.000000  -0.000004   0.000001   0.000053  -0.043134   0.007779
              25         26         27         28         29         30
     1  C   -0.000590  -0.000154  -0.000019   0.000021  -0.035506   0.005746
     2  C    0.007763  -0.000074   0.000469  -0.000449   0.223213  -0.025153
     3  H   -0.000089  -0.000020  -0.000024   0.000015  -0.030269  -0.008260
     4  C   -0.070028  -0.007027   0.008118  -0.006907  -0.050747   0.007057
     5  H   -0.008429  -0.000611  -0.000020   0.004791   0.008297  -0.000375
     6  H    0.006720   0.000076  -0.000317  -0.000047  -0.007197  -0.000797
     7  H   -0.007228   0.003718  -0.000196  -0.000418   0.001031   0.000272
     8  O   -0.000017   0.000004   0.000000   0.000002   0.001949  -0.000359
     9  N   -0.000127  -0.000022  -0.000013   0.000016  -0.035908  -0.001028
    10  H    0.000294  -0.000021  -0.000033   0.000039  -0.008907   0.000460
    11  N   -0.000308  -0.000119  -0.000007  -0.000003   0.006057   0.000317
    12  H    0.000063  -0.000008   0.000011  -0.000001  -0.000574  -0.000304
    13  C    0.000003   0.000011  -0.000001   0.000000  -0.000649   0.000063
    14  H    0.000015   0.000013   0.000000   0.000001  -0.000417  -0.000019
    15  H   -0.000001  -0.000001   0.000000   0.000000   0.000072   0.000011
    16  H    0.000000   0.000003   0.000000   0.000000  -0.000072   0.000004
    17  C    0.000027  -0.000001   0.000003  -0.000001   0.008641  -0.000106
    18  C    0.000002   0.000000   0.000000   0.000000   0.000363  -0.000044
    19  H   -0.000004   0.000000   0.000000   0.000000  -0.000241   0.000021
    20  H    0.000000   0.000000   0.000000   0.000000  -0.000025  -0.000016
    21  H    0.000000   0.000000   0.000000   0.000000   0.000047   0.000009
    22  O    0.000001   0.000000   0.000000   0.000000   0.001599  -0.000053
    23  C    0.290578  -0.040602  -0.037676  -0.033736   0.232614  -0.046320
    24  H   -0.028321   0.007546  -0.005932  -0.006207  -0.039362  -0.004239
    25  C    5.093957   0.409836   0.402409   0.406774  -0.070747  -0.006432
    26  H    0.409836   0.548179  -0.029618  -0.027460  -0.013311  -0.000104
    27  H    0.402409  -0.029618   0.544454  -0.017539  -0.001020   0.003800
    28  H    0.406774  -0.027460  -0.017539   0.533039   0.009640  -0.000268
    29  C   -0.070747  -0.013311  -0.001020   0.009640   5.365575   0.418563
    30  H   -0.006432  -0.000104   0.003800  -0.000268   0.418563   0.474984
    31  H   -0.003816   0.003911  -0.001989   0.000384   0.412901  -0.009899
              31
     1  C    0.006101
     2  C   -0.054488
     3  H   -0.006562
     4  C   -0.004901
     5  H   -0.000107
     6  H   -0.001124
     7  H    0.003066
     8  O   -0.000282
     9  N    0.005016
    10  H    0.000182
    11  N    0.001727
    12  H    0.002891
    13  C    0.000256
    14  H   -0.000303
    15  H    0.000119
    16  H    0.000007
    17  C   -0.000147
    18  C    0.000028
    19  H    0.000000
    20  H   -0.000004
    21  H    0.000001
    22  O    0.000053
    23  C   -0.043134
    24  H    0.007779
    25  C   -0.003816
    26  H    0.003911
    27  H   -0.001989
    28  H    0.000384
    29  C    0.412901
    30  H   -0.009899
    31  H    0.492933
 Mulliken charges:
               1
     1  C    0.295850
     2  C   -0.150338
     3  H    0.230198
     4  C   -0.482194
     5  H    0.149884
     6  H    0.180279
     7  H    0.157249
     8  O   -0.389915
     9  N   -0.195145
    10  H    0.163949
    11  N   -0.144274
    12  H    0.132297
    13  C   -0.177142
    14  H    0.111851
    15  H    0.122616
    16  H    0.086683
    17  C    0.300591
    18  C   -0.321255
    19  H    0.092004
    20  H    0.115337
    21  H    0.125497
    22  O   -0.404105
    23  C   -0.159875
    24  H    0.176697
    25  C   -0.422307
    26  H    0.145856
    27  H    0.135139
    28  H    0.138312
    29  C   -0.395610
    30  H    0.192469
    31  H    0.189400
 Sum of Mulliken charges =   0.00000
 Mulliken charges with hydrogens summed into heavy atoms:
               1
     1  C    0.295850
     2  C    0.079860
     4  C    0.005218
     8  O   -0.389915
     9  N   -0.031196
    11  N   -0.011978
    13  C    0.144008
    17  C    0.300591
    18  C    0.011584
    22  O   -0.404105
    23  C    0.016822
    25  C   -0.002999
    29  C   -0.013742
 Electronic spatial extent (au):  <R**2>=           2894.1339
 Charge=              0.0000 electrons
 Dipole moment (field-independent basis, Debye):
    X=             -4.2319    Y=             -1.7493    Z=             -1.0746  Tot=              4.7036
 Quadrupole moment (field-independent basis, Debye-Ang):
   XX=            -85.6959   YY=            -71.2454   ZZ=            -81.6217
   XY=             -9.7061   XZ=              5.7487   YZ=             -5.2671
 Traceless Quadrupole moment (field-independent basis, Debye-Ang):
   XX=             -6.1749   YY=              8.2756   ZZ=             -2.1007
   XY=             -9.7061   XZ=              5.7487   YZ=             -5.2671
 Octapole moment (field-independent basis, Debye-Ang**2):
  XXX=             -3.1142  YYY=             31.1277  ZZZ=             -7.3881  XYY=             -4.2877
  XXY=            -13.4245  XXZ=             17.6199  XZZ=             -3.1557  YZZ=              0.6897
  YYZ=             -3.6329  XYZ=              2.5287
 Hexadecapole moment (field-independent basis, Debye-Ang**3):
 XXXX=          -2073.2206 YYYY=          -1313.3979 ZZZZ=           -406.3630 XXXY=            -73.8868
 XXXZ=             50.5290 YYYX=            -40.2142 YYYZ=            -13.1938 ZZZX=              3.5421
 ZZZY=            -11.2010 XXYY=           -548.5442 XXZZ=           -408.5791 YYZZ=           -299.6557
 XXYZ=             -3.2748 YYXZ=              3.1076 ZZXY=            -11.0229
 N-N= 8.763108278630D+02 E-N=-3.182287797154D+03  KE= 6.091216651152D+02
 Calculating spin-rotation constants.
 Leave Link  601 at Wed Jun 18 22:02:12 2014, MaxMem=  4294967296 cpu:        75.3
 (Enter /home/ztw1e12/g09/l9999.exe)

 Test job not archived.
 1\1\GINC-GREEN0474\SP\RM06\Gen\C9H18N2O2\ROOT\18-Jun-2014\0\\#P Geom=A
 llCheck Guess=TCheck SCRF=Check GenChk RM06/ChkBas NMR=ReadFC IOp(3/6=
 22)\\NMR spin-spin scan\\0,1\C,0,0.558448,0.864457,0.529095\C,0,0.1599
 75,0.135302,-0.75613\H,0,0.603484,0.724302,-1.564208\C,0,-1.941619,-0.
 762415,1.313533\H,0,-2.657127,-1.382818,1.857304\H,0,-0.941946,-1.1032
 2,1.581516\H,0,-2.058549,0.2639,1.678713\O,0,1.143227,0.312964,1.45633
 4\N,0,0.750588,-1.179818,-0.813001\H,0,0.207929,-1.964206,-0.484855\N,
 0,0.258872,2.16769,0.549791\H,0,-0.210356,2.577947,-0.241291\C,0,0.526
 52,2.984942,1.710909\H,0,0.020871,2.588033,2.592693\H,0,1.594965,3.032
 814,1.923353\H,0,0.163484,3.991256,1.525303\C,0,2.075339,-1.355499,-0.
 979996\C,0,2.579698,-2.752193,-0.82429\H,0,1.782347,-3.489655,-0.76110
 3\H,0,3.237322,-2.993358,-1.657925\H,0,3.175364,-2.799305,0.088394\O,0
 ,2.830388,-0.422427,-1.246522\C,0,-2.20802,-0.846171,-0.17751\H,0,-2.0
 05157,-1.879219,-0.48914\C,0,-3.665671,-0.554659,-0.477812\H,0,-3.9293
 56,0.449676,-0.132162\H,0,-3.872562,-0.602193,-1.549188\H,0,-4.323854,
 -1.264552,0.026093\C,0,-1.341004,0.080374,-1.028081\H,0,-1.477153,-0.1
 88219,-2.078726\H,0,-1.730823,1.099564,-0.930753\\Version=EM64L-G09Rev
 D.01\State=1-A\HF=-613.582389\RMSD=2.919e-09\Dipole=-1.8188577,0.14586
 63,-0.3081746\Quadrupole=-7.8580988,11.436685,-3.5785861,-2.7833924,1.
 6802951,1.7644813\PG=C01 [X(C9H18N2O2)]\\@


 ANYONE WHO IS NOT SHOCKED BY QUANTUM THEORY HAS
 NOT UNDERSTOOD IT. -- NIELS BOHR(1885-1962)
 Job cpu time:       2 days 13 hours 56 minutes 14.3 seconds.
 File lengths (MBytes):  RWF=   2456 Int=      0 D2E=      0 Chk=     48 Scr=      8
 Normal termination of Gaussian 09 at Wed Jun 18 22:02:12 2014.
