 Entering Gaussian System, Link 0=g09
 Input=scan_input_27.gjf
 Output=scan_input_27.log
 Initial command:
 /home/ztw1e12/g09/l1.exe "/home/ztw1e12/leucine_scan/leucine_chi2_scan/Gau-9000.inp" -scrdir="/home/ztw1e12/leucine_scan/leucine_chi2_scan/"
 Default is to use a total of   8 processors:
                                8 via shared-memory
                                1 via Linda
 Entering Link 1 = /home/ztw1e12/g09/l1.exe PID=      9001.
  
 Copyright (c) 1988,1990,1992,1993,1995,1998,2003,2009,2013,
            Gaussian, Inc.  All Rights Reserved.
  
 This is part of the Gaussian(R) 09 program.  It is based on
 the Gaussian(R) 03 system (copyright 2003, Gaussian, Inc.),
 the Gaussian(R) 98 system (copyright 1998, Gaussian, Inc.),
 the Gaussian(R) 94 system (copyright 1995, Gaussian, Inc.),
 the Gaussian 92(TM) system (copyright 1992, Gaussian, Inc.),
 the Gaussian 90(TM) system (copyright 1990, Gaussian, Inc.),
 the Gaussian 88(TM) system (copyright 1988, Gaussian, Inc.),
 the Gaussian 86(TM) system (copyright 1986, Carnegie Mellon
 University), and the Gaussian 82(TM) system (copyright 1983,
 Carnegie Mellon University). Gaussian is a federally registered
 trademark of Gaussian, Inc.
  
 This software contains proprietary and confidential information,
 including trade secrets, belonging to Gaussian, Inc.
  
 This software is provided under written license and may be
 used, copied, transmitted, or stored only in accord with that
 written license.
  
 The following legend is applicable only to US Government
 contracts under FAR:
  
                    RESTRICTED RIGHTS LEGEND
  
 Use, reproduction and disclosure by the US Government is
 subject to restrictions as set forth in subparagraphs (a)
 and (c) of the Commercial Computer Software - Restricted
 Rights clause in FAR 52.227-19.
  
 Gaussian, Inc.
 340 Quinnipiac St., Bldg. 40, Wallingford CT 06492
  
  
 ---------------------------------------------------------------
 Warning -- This program may not be used in any manner that
 competes with the business of Gaussian, Inc. or will provide
 assistance to any competitor of Gaussian, Inc.  The licensee
 of this program is prohibited from giving any competitor of
 Gaussian, Inc. access to this program.  By using this program,
 the user acknowledges that Gaussian, Inc. is engaged in the
 business of creating and licensing software in the field of
 computational chemistry and represents and warrants to the
 licensee that it is not a competitor of Gaussian, Inc. and that
 it will not use this program in any manner prohibited above.
 ---------------------------------------------------------------
  

 Cite this work as:
 Gaussian 09, Revision D.01,
 M. J. Frisch, G. W. Trucks, H. B. Schlegel, G. E. Scuseria, 
 M. A. Robb, J. R. Cheeseman, G. Scalmani, V. Barone, B. Mennucci, 
 G. A. Petersson, H. Nakatsuji, M. Caricato, X. Li, H. P. Hratchian, 
 A. F. Izmaylov, J. Bloino, G. Zheng, J. L. Sonnenberg, M. Hada, 
 M. Ehara, K. Toyota, R. Fukuda, J. Hasegawa, M. Ishida, T. Nakajima, 
 Y. Honda, O. Kitao, H. Nakai, T. Vreven, J. A. Montgomery, Jr., 
 J. E. Peralta, F. Ogliaro, M. Bearpark, J. J. Heyd, E. Brothers, 
 K. N. Kudin, V. N. Staroverov, T. Keith, R. Kobayashi, J. Normand, 
 K. Raghavachari, A. Rendell, J. C. Burant, S. S. Iyengar, J. Tomasi, 
 M. Cossi, N. Rega, J. M. Millam, M. Klene, J. E. Knox, J. B. Cross, 
 V. Bakken, C. Adamo, J. Jaramillo, R. Gomperts, R. E. Stratmann, 
 O. Yazyev, A. J. Austin, R. Cammi, C. Pomelli, J. W. Ochterski, 
 R. L. Martin, K. Morokuma, V. G. Zakrzewski, G. A. Voth, 
 P. Salvador, J. J. Dannenberg, S. Dapprich, A. D. Daniels, 
 O. Farkas, J. B. Foresman, J. V. Ortiz, J. Cioslowski, 
 and D. J. Fox, Gaussian, Inc., Wallingford CT, 2013.
 
 ******************************************
 Gaussian 09:  EM64L-G09RevD.01 24-Apr-2013
                18-Jun-2014 
 ******************************************
 %Mem=32GB
 %NProcShared=16
 Will use up to   16 processors via shared memory.
 Default route:  MaxDisk=100GB
 ----------------------------------------------------------------------
 #p nmr=(giao,mixed,spinspin) m06/cc-pvtz scf=tight integral=(grid=ultr
 afine)
 ----------------------------------------------------------------------
 1/38=1/1;
 2/12=2,17=6,18=5,40=1/2;
 3/5=16,6=1,10=1100000,11=2,16=1,25=1,30=1,74=-54,75=-5/1,2,8,3;
 4//1;
 5/5=2,32=2,38=5/2;
 8/6=1,10=90,11=11/1;
 10/13=100,45=16,47=3/2;
 6/7=2,8=2,9=2,10=2,28=1/1;
 99/9=1/99;
 Leave Link    1 at Wed Jun 18 13:49:39 2014, MaxMem=  4294967296 cpu:         7.5
 (Enter /home/ztw1e12/g09/l101.exe)
 ------------------
 NMR spin-spin scan
 ------------------
 Symbolic Z-matrix:
 Charge =  0 Multiplicity = 1
 C                     0.57262   0.7423    0.60013 
 C                     0.17185   0.13278  -0.73663 
 H                     0.56372   0.79565  -1.51395 
 C                    -2.37468   0.00598   1.38555 
 H                    -3.02393  -0.56831   2.04961 
 H                    -1.45116   0.20513   1.92857 
 H                    -2.86739   0.96445   1.19125 
 O                     0.96189   0.06729   1.54886 
 N                     0.77625  -1.166    -0.91452 
 H                     0.19165  -1.9864   -0.87324 
 N                     0.45864   2.07323   0.65956 
 H                     0.10066   2.5666   -0.14342 
 C                     0.66729   2.79464   1.89368 
 H                    -0.0632    2.5042    2.65175 
 H                     1.66419   2.60439   2.29025 
 H                     0.56648   3.85876   1.70331 
 C                     2.10481  -1.31958  -1.03614 
 C                     2.60037  -2.7193   -1.19548 
 H                     1.80921  -3.46288  -1.12751 
 H                     3.09126  -2.80845  -2.16464 
 H                     3.35034  -2.91811  -0.43067 
 O                     2.87288  -0.35785  -1.03716 
 C                    -2.15928  -0.74333   0.0808 
 H                    -1.6412   -1.6847    0.30526 
 C                    -3.5053   -1.08152  -0.53447 
 H                    -4.04111  -0.16397  -0.79819 
 H                    -3.39595  -1.67609  -1.44337 
 H                    -4.13082  -1.63998   0.16433 
 C                    -1.33889   0.04491  -0.9386 
 H                    -1.48783  -0.39425  -1.92961 
 H                    -1.73774   1.0637   -0.99499 
 
 NAtoms=     31 NQM=       31 NQMF=       0 NMMI=      0 NMMIF=      0
                NMic=       0 NMicF=      0.
                    Isotopes and Nuclear Properties:
 (Nuclear quadrupole moments (NQMom) in fm**2, nuclear magnetic moments (NMagM)
  in nuclear magnetons)

  Atom         1           2           3           4           5           6           7           8           9          10
 IAtWgt=          12          12           1          12           1           1           1          16          14           1
 AtmWgt=  12.0000000  12.0000000   1.0078250  12.0000000   1.0078250   1.0078250   1.0078250  15.9949146  14.0030740   1.0078250
 NucSpn=           0           0           1           0           1           1           1           0           2           1
 AtZEff=   0.0000000   0.0000000   0.0000000   0.0000000   0.0000000   0.0000000   0.0000000   0.0000000   0.0000000   0.0000000
 NQMom=    0.0000000   0.0000000   0.0000000   0.0000000   0.0000000   0.0000000   0.0000000   0.0000000   2.0440000   0.0000000
 NMagM=    0.0000000   0.0000000   2.7928460   0.0000000   2.7928460   2.7928460   2.7928460   0.0000000   0.4037610   2.7928460
 AtZNuc=   6.0000000   6.0000000   1.0000000   6.0000000   1.0000000   1.0000000   1.0000000   8.0000000   7.0000000   1.0000000

  Atom        11          12          13          14          15          16          17          18          19          20
 IAtWgt=          14           1          12           1           1           1          12          12           1           1
 AtmWgt=  14.0030740   1.0078250  12.0000000   1.0078250   1.0078250   1.0078250  12.0000000  12.0000000   1.0078250   1.0078250
 NucSpn=           2           1           0           1           1           1           0           0           1           1
 AtZEff=   0.0000000   0.0000000   0.0000000   0.0000000   0.0000000   0.0000000   0.0000000   0.0000000   0.0000000   0.0000000
 NQMom=    2.0440000   0.0000000   0.0000000   0.0000000   0.0000000   0.0000000   0.0000000   0.0000000   0.0000000   0.0000000
 NMagM=    0.4037610   2.7928460   0.0000000   2.7928460   2.7928460   2.7928460   0.0000000   0.0000000   2.7928460   2.7928460
 AtZNuc=   7.0000000   1.0000000   6.0000000   1.0000000   1.0000000   1.0000000   6.0000000   6.0000000   1.0000000   1.0000000

  Atom        21          22          23          24          25          26          27          28          29          30
 IAtWgt=           1          16          12           1          12           1           1           1          12           1
 AtmWgt=   1.0078250  15.9949146  12.0000000   1.0078250  12.0000000   1.0078250   1.0078250   1.0078250  12.0000000   1.0078250
 NucSpn=           1           0           0           1           0           1           1           1           0           1
 AtZEff=   0.0000000   0.0000000   0.0000000   0.0000000   0.0000000   0.0000000   0.0000000   0.0000000   0.0000000   0.0000000
 NQMom=    0.0000000   0.0000000   0.0000000   0.0000000   0.0000000   0.0000000   0.0000000   0.0000000   0.0000000   0.0000000
 NMagM=    2.7928460   0.0000000   0.0000000   2.7928460   0.0000000   2.7928460   2.7928460   2.7928460   0.0000000   2.7928460
 AtZNuc=   1.0000000   8.0000000   6.0000000   1.0000000   6.0000000   1.0000000   1.0000000   1.0000000   6.0000000   1.0000000

  Atom        31
 IAtWgt=           1
 AtmWgt=   1.0078250
 NucSpn=           1
 AtZEff=   0.0000000
 NQMom=    0.0000000
 NMagM=    2.7928460
 AtZNuc=   1.0000000
 Leave Link  101 at Wed Jun 18 13:49:39 2014, MaxMem=  4294967296 cpu:         2.5
 (Enter /home/ztw1e12/g09/l202.exe)
                          Input orientation:                          
 ---------------------------------------------------------------------
 Center     Atomic      Atomic             Coordinates (Angstroms)
 Number     Number       Type             X           Y           Z
 ---------------------------------------------------------------------
      1          6           0        0.572624    0.742298    0.600131
      2          6           0        0.171845    0.132781   -0.736626
      3          1           0        0.563717    0.795645   -1.513947
      4          6           0       -2.374675    0.005981    1.385553
      5          1           0       -3.023933   -0.568305    2.049606
      6          1           0       -1.451158    0.205134    1.928566
      7          1           0       -2.867393    0.964449    1.191254
      8          8           0        0.961889    0.067285    1.548855
      9          7           0        0.776253   -1.166001   -0.914516
     10          1           0        0.191654   -1.986403   -0.873239
     11          7           0        0.458635    2.073228    0.659564
     12          1           0        0.100664    2.566595   -0.143416
     13          6           0        0.667288    2.794638    1.893680
     14          1           0       -0.063198    2.504199    2.651751
     15          1           0        1.664194    2.604393    2.290246
     16          1           0        0.566475    3.858764    1.703309
     17          6           0        2.104814   -1.319578   -1.036139
     18          6           0        2.600369   -2.719303   -1.195475
     19          1           0        1.809211   -3.462884   -1.127509
     20          1           0        3.091264   -2.808447   -2.164642
     21          1           0        3.350344   -2.918109   -0.430666
     22          8           0        2.872881   -0.357847   -1.037164
     23          6           0       -2.159275   -0.743326    0.080795
     24          1           0       -1.641204   -1.684698    0.305261
     25          6           0       -3.505301   -1.081520   -0.534466
     26          1           0       -4.041113   -0.163967   -0.798185
     27          1           0       -3.395952   -1.676093   -1.443367
     28          1           0       -4.130824   -1.639977    0.164325
     29          6           0       -1.338893    0.044910   -0.938600
     30          1           0       -1.487834   -0.394247   -1.929611
     31          1           0       -1.737742    1.063704   -0.994988
 ---------------------------------------------------------------------
                    Distance matrix (angstroms):
                    1          2          3          4          5
     1  C    0.000000
     2  C    1.522844   0.000000
     3  H    2.114770   1.094157   0.000000
     4  C    3.137773   3.317301   4.202953   0.000000
     5  H    4.093150   4.297395   5.237414   1.091928   0.000000
     6  H    2.479713   3.121317   4.032285   1.089683   1.756838
     7  H    3.497498   3.693963   4.372542   1.095073   1.763692
     8  O    1.227700   2.419066   3.173296   3.341120   4.067125
     9  N    2.444836   1.443533   2.062170   4.073353   4.856405
    10  H    3.124383   2.123675   2.879015   3.956991   4.570998
    11  N    1.337124   2.407681   2.523373   3.581650   4.586741
    12  H    2.025751   2.506076   2.286709   3.875796   4.939641
    13  C    2.427824   3.774845   3.952040   4.157925   4.995879
    14  H    2.778077   4.142459   4.545901   3.631429   4.309154
    15  H    2.741425   4.183052   4.353677   4.886991   5.665903
    16  H    3.305964   4.471238   4.442234   4.857496   5.710507
    17  C    3.045705   2.436273   2.660347   5.261893   6.032436
    18  C    4.395297   3.773944   4.074829   6.232170   6.840330
    19  H    4.711416   3.970210   4.453724   5.987771   6.467761
    20  H    5.157064   4.383270   4.449874   7.099393   7.757175
    21  H    4.709230   4.416378   4.767678   6.680179   7.232201
    22  O    3.030220   2.761636   2.624901   5.791267   6.659193
    23  C    3.152786   2.621042   3.510886   1.519951   2.157425
    24  H    3.298226   2.770542   3.784613   2.136213   2.490183
    25  C    4.609023   3.877731   4.586942   2.479404   2.678158
    26  H    4.905423   4.223845   4.757902   2.752201   3.050911
    27  H    5.076819   4.062103   4.668345   3.446037   3.683267
    28  H    5.290329   4.739973   5.548654   2.699006   2.434743
    29  C    2.551067   1.526710   2.124748   2.544808   3.484934
    30  H    3.454970   2.110807   2.407796   3.454994   4.268965
    31  H    2.825862   2.140068   2.374424   2.681685   3.686095
                    6          7          8          9         10
     6  H    0.000000
     7  H    1.768024   0.000000
     8  O    2.446626   3.949200   0.000000
     9  N    3.863222   4.716910   2.761096   0.000000
    10  H    3.918134   4.725191   3.267635   1.008226   0.000000
    11  N    2.957609   3.546061   2.251202   3.615413   4.347570
    12  H    3.503963   3.627338   3.138796   3.870825   4.612018
    13  C    3.345827   4.041901   2.764805   4.856387   5.544405
    14  H    2.781210   3.516730   2.864565   5.185876   5.714544
    15  H    3.948756   4.942922   2.734924   5.027406   5.766404
    16  H    4.179784   4.520034   3.815170   5.669681   6.398833
    17  C    4.874337   5.907698   3.148311   1.342927   2.032578
    18  C    5.892948   7.011628   4.240405   2.412278   2.538284
    19  H    5.781346   6.844601   4.510318   2.527457   2.204799
    20  H    6.816863   7.810402   5.156950   3.101567   3.278905
    21  H    6.194759   7.507672   4.305322   3.151180   3.322841
    22  O    5.273501   6.298020   3.243474   2.250334   3.141344
    23  C    2.194371   2.156628   3.543156   3.128358   2.825294
    24  H    2.498540   3.050656   3.375213   2.756991   2.199831
    25  C    3.455649   2.751550   5.061202   4.299218   3.821133
    26  H    3.778793   2.570760   5.531013   4.921851   4.609037
    27  H    4.323329   3.767368   5.566286   4.236410   3.645855
    28  H    3.701026   3.071462   5.546836   5.046579   4.458740
    29  C    2.873833   2.778154   3.388441   2.437361   2.544225
    30  H    3.904630   3.672742   4.279472   2.598483   2.543927
    31  H    3.060464   2.462847   3.840833   3.361284   3.611169
                   11         12         13         14         15
    11  N    0.000000
    12  H    1.008132   0.000000
    13  C    1.444649   2.126694   0.000000
    14  H    2.104009   2.800661   1.092079   0.000000
    15  H    2.096338   2.892882   1.089623   1.767656   0.000000
    16  H    2.071032   2.301537   1.085711   1.769428   1.767181
    17  C    4.134785   4.462725   5.251390   5.737777   5.162996
    18  C    5.567454   5.941050   6.609329   7.012896   6.431828
    19  H    5.972120   6.343673   7.041886   7.307175   6.965194
    20  H    6.223956   6.474575   7.330771   7.834059   7.154117
    21  H    5.870607   6.381607   6.725835   7.110203   6.383141
    22  O    3.823296   4.127509   4.836595   5.515429   4.615999
    23  C    3.888625   4.014122   4.877827   4.642173   5.541463
    24  H    4.319359   4.616157   5.283622   5.054006   5.767332
    25  C    5.204895   5.144380   6.191203   5.904018   6.949002
    26  H    5.232380   5.003899   6.178068   5.902963   7.053563
    27  H    5.773869   5.649478   6.901684   6.734395   7.607069
    28  H    5.924212   5.974566   6.758577   6.317204   7.491091
    29  C    3.146317   3.010571   4.428044   4.534988   5.098522
    30  H    4.071978   3.805313   5.425043   5.605306   6.060884
    31  H    2.929292   2.522616   4.138201   4.263547   4.973897
                   16         17         18         19         20
    16  H    0.000000
    17  C    6.056921   0.000000
    18  C    7.470652   1.493383   0.000000
    19  H    7.947607   2.165523   1.087871   0.000000
    20  H    8.110937   2.112660   1.090050   1.774146   0.000000
    21  H    7.630844   2.115004   1.089458   1.776925   1.756650
    22  O    5.532586   1.230794   2.382394   3.283415   2.706351
    23  C    5.589409   4.445454   5.309196   4.960330   6.072468
    24  H    6.128487   3.995662   4.616661   4.137649   5.455226
    25  C    6.781844   5.637529   6.355979   5.853771   7.011021
    26  H    6.608306   6.258153   7.127192   6.724403   7.728601
    27  H    7.499136   5.527329   6.091437   5.512360   6.624684
    28  H    7.393865   6.358219   6.951472   6.346325   7.677758
    29  C    5.015535   3.705463   4.819195   4.717082   5.410279
    30  H    5.958724   3.815973   4.760068   4.574976   5.181866
    31  H    4.516922   4.521832   5.759387   5.752255   6.299281
                   21         22         23         24         25
    21  H    0.000000
    22  O    2.674089   0.000000
    23  C    5.945349   5.169238   0.000000
    24  H    5.194078   4.892811   1.097708   0.000000
    25  C    7.098148   6.438759   1.518126   2.131624   0.000000
    26  H    7.896455   6.920839   2.156288   3.047914   1.094781
    27  H    6.934023   6.418804   2.173130   2.477280   1.091593
    28  H    7.612852   7.220756   2.167479   2.494007   1.091541
    29  C    5.570137   4.232135   1.527583   2.151773   2.474973
    30  H    5.659035   4.451249   2.148120   2.585235   2.547341
    31  H    6.485516   4.824980   2.144844   3.041986   2.817504
                   26         27         28         29         30
    26  H    0.000000
    27  H    1.766074   0.000000
    28  H    1.764392   1.768054   0.000000
    29  C    2.713916   2.729127   3.442407   0.000000
    30  H    2.802211   2.349569   3.594692   1.094141   0.000000
    31  H    2.617523   3.233758   3.792194   1.095537   1.749741
                   31
    31  H    0.000000
 Stoichiometry    C9H18N2O2
 Framework group  C1[X(C9H18N2O2)]
 Deg. of freedom    87
 Full point group                 C1      NOp   1
 Largest Abelian subgroup         C1      NOp   1
 Largest concise Abelian subgroup C1      NOp   1
                         Standard orientation:                         
 ---------------------------------------------------------------------
 Center     Atomic      Atomic             Coordinates (Angstroms)
 Number     Number       Type             X           Y           Z
 ---------------------------------------------------------------------
      1          6           0        0.037672    1.155215    0.068521
      2          6           0        0.224503   -0.119407   -0.743567
      3          1           0        0.601660    0.185703   -1.724302
      4          6           0       -2.654094   -0.225295    0.901716
      5          1           0       -3.261172   -0.617962    1.719992
      6          1           0       -2.020739    0.558715    1.315962
      7          1           0       -3.334937    0.235456    0.178290
      8          8           0        0.329962    1.234625    1.258272
      9          7           0        1.212011   -0.979339   -0.136003
     10          1           0        0.910340   -1.835693    0.302372
     11          7           0       -0.478484    2.179940   -0.618082
     12          1           0       -0.728746    2.040305   -1.584624
     13          6           0       -0.845511    3.416416    0.032630
     14          1           0       -1.637283    3.258308    0.767977
     15          1           0        0.011324    3.855107    0.543182
     16          1           0       -1.200870    4.118457   -0.715453
     17          6           0        2.505012   -0.626338   -0.052390
     18          6           0        3.417927   -1.599977    0.617540
     19          1           0        2.897329   -2.466056    1.020463
     20          1           0        4.162361   -1.935460   -0.104595
     21          1           0        3.949337   -1.091191    1.421069
     22          8           0        2.921073    0.433205   -0.520488
     23          6           0       -1.871790   -1.347732    0.239609
     24          1           0       -1.181259   -1.770582    0.980776
     25          6           0       -2.829661   -2.443969   -0.191036
     26          1           0       -3.518401   -2.065571   -0.953268
     27          1           0       -2.300305   -3.298977   -0.615676
     28          1           0       -3.429424   -2.798195    0.649362
     29          6           0       -1.073152   -0.888525   -0.978921
     30          1           0       -0.803072   -1.764273   -1.576640
     31          1           0       -1.724537   -0.277275   -1.613172
 ---------------------------------------------------------------------
 Rotational constants (GHZ):      0.8627477      0.6145799      0.4125956
 Leave Link  202 at Wed Jun 18 13:49:39 2014, MaxMem=  4294967296 cpu:         2.1
 (Enter /home/ztw1e12/g09/l301.exe)
 Standard basis: CC-pVTZ (5D, 7F)
 Converting basis for Fermi contact spin-spin IFCMod=1.
 AO basis functions are being uncontracted.
 Ernie: Thresh=  0.10000D-02 Tol=  0.10000D-05 Strict=F.
 There are  1119 symmetry adapted cartesian basis functions of A   symmetry.
 There are  1036 symmetry adapted basis functions of A   symmetry.
  1036 basis functions,  1119 primitive gaussians,  1119 cartesian basis functions
    51 alpha electrons       51 beta electrons
       nuclear repulsion energy       875.5168312839 Hartrees.
 IExCor= 4235 DFT=T Ex+Corr=M06 ExCW=0 ScaHFX=  0.270000
 ScaDFX=  1.000000  1.000000  1.000000  1.000000 ScalE2=  1.000000  1.000000
 IRadAn= 199590 IRanWt=     -1 IRanGd=            0 ICorTp=0 IEmpDi=  4
 NAtoms=   31 NActive=   31 NUniq=   31 SFac= 1.00D+00 NAtFMM=   60 NAOKFM=F Big=F
 Integral buffers will be    131072 words long.
 Raffenetti 2 integral format.
 Two-electron integral symmetry is turned on.
 Leave Link  301 at Wed Jun 18 13:49:40 2014, MaxMem=  4294967296 cpu:         5.7
 (Enter /home/ztw1e12/g09/l302.exe)
 NPDir=0 NMtPBC=     1 NCelOv=     1 NCel=       1 NClECP=     1 NCelD=      1
         NCelK=      1 NCelE2=     1 NClLst=     1 CellRange=     0.0.
 One-electron integrals computed using PRISM.
 GSVD:  received Info=                   1 from GESDD.
 NBasis=  1036 RedAO= T EigKep=  1.06D-04  NBF=  1036
 NBsUse=   932 1.00D-06 EigRej=  6.33D-15 NBFU=   932
 Precomputing XC quadrature grid using
 IXCGrd= 4 IRadAn=      199590 IRanWt=          -1 IRanGd=           0 AccXCQ= 0.00D+00.
 Generated NRdTot=       0 NPtTot=           0 NUsed=           0 NTot=          32
 NSgBfM=   877   877   877   877   877 MxSgAt=    31 MxSgA2=    31.
 Leave Link  302 at Wed Jun 18 13:49:44 2014, MaxMem=  4294967296 cpu:        65.1
 (Enter /home/ztw1e12/g09/l308.exe)
 Leave Link  308 at Wed Jun 18 13:49:45 2014, MaxMem=  4294967296 cpu:         5.9
 (Enter /home/ztw1e12/g09/l303.exe)
 DipDrv:  MaxL=1.
 Leave Link  303 at Wed Jun 18 13:49:45 2014, MaxMem=  4294967296 cpu:         3.8
 (Enter /home/ztw1e12/g09/l401.exe)
 ExpMin= 1.03D-01 ExpMax= 1.38D+05 ExpMxC= 1.38D+05 IAcc=4 IRadAn=    199590 AccDes= 0.00D+00
 Harris functional with IExCor= 1009 and IRadAn=  199590 diagonalized for initial guess.
 HarFok:  IExCor= 1009 AccDes= 0.00D+00 IRadAn=    199590 IDoV= 1 UseB2=F ITyADJ=14
 ICtDFT=  3500011 ScaDFX=  1.000000  1.000000  1.000000  1.000000
 FoFCou: FMM=F IPFlag=           0 FMFlag=      100000 FMFlg1=           0
         NFxFlg=           0 DoJE=T BraDBF=F KetDBF=T FulRan=T
         wScrn=  0.000000 ICntrl=     500 IOpCl=  0 I1Cent=   200000004 NGrid=           0
         NMat0=    1 NMatS0=      1 NMatT0=    0 NMatD0=    1 NMtDS0=    0 NMtDT0=    0
 Petite list used in FoFCou.
 Harris En= -613.565094631458    
 JPrj=0 DoOrth=F DoCkMO=F.
 Leave Link  401 at Wed Jun 18 13:50:04 2014, MaxMem=  4294967296 cpu:       275.2
 (Enter /home/ztw1e12/g09/l502.exe)
 Closed shell SCF:
 Using DIIS extrapolation, IDIIS=  1040.
 Integral symmetry usage will be decided dynamically.
 IVT=     3801329 IEndB=     3801329 NGot=  4294967296 MDV=  4292435888
 LenX=  4292435888 LenY=  4291182608
 Requested convergence on RMS density matrix=1.00D-08 within 128 cycles.
 Requested convergence on MAX density matrix=1.00D-06.
 Requested convergence on             energy=1.00D-06.
 No special actions if energy rises.
 Fock matrices will be formed incrementally for  20 cycles.
 Integral accuracy reduced to 1.0D-05 until final iterations.

 Cycle   1  Pass 0  IDiag  1:
 FoFJK:  IHMeth= 1 ICntrl=       0 DoSepK=F KAlg= 0 I1Cent=   0 FoldK=F
 IRaf= 480000000 NMat=   1 IRICut=       1 DoRegI=T DoRafI=F ISym2E= 0.
 FoFCou: FMM=F IPFlag=           0 FMFlag=      100000 FMFlg1=           0
         NFxFlg=           0 DoJE=F BraDBF=F KetDBF=F FulRan=T
         wScrn=  0.000000 ICntrl=       0 IOpCl=  0 I1Cent=           0 NGrid=           0
         NMat0=    1 NMatS0=      1 NMatT0=    0 NMatD0=    1 NMtDS0=    0 NMtDT0=    0
 Symmetry not used in FoFCou.
 E= -613.182698880321    
 DIIS: error= 1.31D-01 at cycle   1 NSaved=   1.
 NSaved= 1 IEnMin= 1 EnMin= -613.182698880321     IErMin= 1 ErrMin= 1.31D-01
 ErrMax= 1.31D-01  0.00D+00 EMaxC= 1.00D-01 BMatC= 1.30D+01 BMatP= 1.30D+01
 IDIUse=3 WtCom= 0.00D+00 WtEn= 1.00D+00
 Coeff-Com:  0.100D+01
 Coeff-En:   0.100D+01
 Coeff:      0.100D+01
 Gap=     0.289 Goal=   None    Shift=    0.000
 GapD=    0.289 DampG=1.000 DampE=0.250 DampFc=0.2500 IDamp=-1.
 Damping current iteration by 2.50D-01
 RMSDP=2.15D-03 MaxDP=3.01D-01              OVMax= 2.85D-01

 Cycle   2  Pass 0  IDiag  1:
 RMSU=  5.36D-04    CP:  1.01D+00
 E= -613.340575621258     Delta-E=       -0.157876740937 Rises=F Damp=T
 DIIS: error= 9.98D-02 at cycle   2 NSaved=   2.
 NSaved= 2 IEnMin= 2 EnMin= -613.340575621258     IErMin= 2 ErrMin= 9.98D-02
 ErrMax= 9.98D-02  0.00D+00 EMaxC= 1.00D-01 BMatC= 7.66D+00 BMatP= 1.30D+01
 IDIUse=3 WtCom= 1.63D-03 WtEn= 9.98D-01
 Coeff-Com: -0.279D+01 0.379D+01
 Coeff-En:   0.000D+00 0.100D+01
 Coeff:     -0.455D-02 0.100D+01
 Gap=     0.220 Goal=   None    Shift=    0.000
 RMSDP=5.96D-04 MaxDP=5.83D-02 DE=-1.58D-01 OVMax= 1.36D-01

 Cycle   3  Pass 0  IDiag  1:
 RMSU=  4.39D-04    CP:  1.03D+00  1.75D+00
 E= -613.532235231802     Delta-E=       -0.191659610544 Rises=F Damp=F
 DIIS: error= 1.77D-02 at cycle   3 NSaved=   3.
 NSaved= 3 IEnMin= 3 EnMin= -613.532235231802     IErMin= 3 ErrMin= 1.77D-02
 ErrMax= 1.77D-02  0.00D+00 EMaxC= 1.00D-01 BMatC= 2.29D-01 BMatP= 7.66D+00
 IDIUse=3 WtCom= 8.23D-01 WtEn= 1.77D-01
 Coeff-Com:  0.121D+01-0.165D+01 0.144D+01
 Coeff-En:   0.135D+00 0.000D+00 0.865D+00
 Coeff:      0.102D+01-0.136D+01 0.134D+01
 Gap=     0.253 Goal=   None    Shift=    0.000
 RMSDP=4.21D-04 MaxDP=3.41D-02 DE=-1.92D-01 OVMax= 6.34D-02

 Cycle   4  Pass 0  IDiag  1:
 RMSU=  2.63D-04    CP:  1.03D+00  1.18D+00  7.09D-01
 E= -613.551349084387     Delta-E=       -0.019113852584 Rises=F Damp=F
 DIIS: error= 7.65D-03 at cycle   4 NSaved=   4.
 NSaved= 4 IEnMin= 4 EnMin= -613.551349084387     IErMin= 4 ErrMin= 7.65D-03
 ErrMax= 7.65D-03  0.00D+00 EMaxC= 1.00D-01 BMatC= 9.68D-02 BMatP= 2.29D-01
 IDIUse=3 WtCom= 9.24D-01 WtEn= 7.65D-02
 Coeff-Com:  0.715D+00-0.986D+00 0.725D+00 0.546D+00
 Coeff-En:   0.000D+00 0.000D+00 0.429D+00 0.571D+00
 Coeff:      0.660D+00-0.911D+00 0.702D+00 0.548D+00
 Gap=     0.281 Goal=   None    Shift=    0.000
 RMSDP=2.62D-04 MaxDP=1.89D-02 DE=-1.91D-02 OVMax= 6.86D-02

 Cycle   5  Pass 0  IDiag  1:
 RMSU=  8.12D-05    CP:  1.02D+00  1.13D+00  8.58D-01  9.26D-02
 E= -613.618629570207     Delta-E=       -0.067280485820 Rises=F Damp=F
 DIIS: error= 2.82D-03 at cycle   5 NSaved=   5.
 NSaved= 5 IEnMin= 5 EnMin= -613.618629570207     IErMin= 5 ErrMin= 2.82D-03
 ErrMax= 2.82D-03  0.00D+00 EMaxC= 1.00D-01 BMatC= 1.33D-02 BMatP= 9.68D-02
 IDIUse=3 WtCom= 9.72D-01 WtEn= 2.82D-02
 Coeff-Com:  0.117D+00-0.168D+00 0.120D+00 0.272D+00 0.660D+00
 Coeff-En:   0.000D+00 0.000D+00 0.000D+00 0.787D-01 0.921D+00
 Coeff:      0.114D+00-0.163D+00 0.116D+00 0.266D+00 0.667D+00
 Gap=     0.272 Goal=   None    Shift=    0.000
 RMSDP=1.48D-04 MaxDP=1.34D-02 DE=-6.73D-02 OVMax= 2.71D-02

 Cycle   6  Pass 0  IDiag  1:
 RMSU=  7.65D-05    CP:  1.03D+00  1.18D+00  9.40D-01  4.92D-01  3.69D-01
 E= -613.626131000090     Delta-E=       -0.007501429883 Rises=F Damp=F
 DIIS: error= 9.35D-04 at cycle   6 NSaved=   6.
 NSaved= 6 IEnMin= 6 EnMin= -613.626131000090     IErMin= 6 ErrMin= 9.35D-04
 ErrMax= 9.35D-04  0.00D+00 EMaxC= 1.00D-01 BMatC= 1.05D-03 BMatP= 1.33D-02
 IDIUse=3 WtCom= 9.91D-01 WtEn= 9.35D-03
 Coeff-Com:  0.540D-01-0.733D-01 0.160D-01 0.445D-01 0.210D+00 0.749D+00
 Coeff-En:   0.000D+00 0.000D+00 0.000D+00 0.000D+00 0.120D-01 0.988D+00
 Coeff:      0.535D-01-0.726D-01 0.158D-01 0.441D-01 0.208D+00 0.751D+00
 Gap=     0.272 Goal=   None    Shift=    0.000
 RMSDP=3.14D-05 MaxDP=2.95D-03 DE=-7.50D-03 OVMax= 8.68D-03

 Cycle   7  Pass 0  IDiag  1:
 RMSU=  2.09D-05    CP:  1.03D+00  1.15D+00  9.39D-01  4.85D-01  5.11D-01
                    CP:  1.07D+00
 E= -613.626714588210     Delta-E=       -0.000583588121 Rises=F Damp=F
 DIIS: error= 4.20D-04 at cycle   7 NSaved=   7.
 NSaved= 7 IEnMin= 7 EnMin= -613.626714588210     IErMin= 7 ErrMin= 4.20D-04
 ErrMax= 4.20D-04  0.00D+00 EMaxC= 1.00D-01 BMatC= 2.07D-04 BMatP= 1.05D-03
 IDIUse=3 WtCom= 9.96D-01 WtEn= 4.20D-03
 Coeff-Com:  0.367D-01-0.491D-01 0.111D-01 0.824D-02 0.628D-01 0.411D+00
 Coeff-Com:  0.519D+00
 Coeff-En:   0.000D+00 0.000D+00 0.000D+00 0.000D+00 0.000D+00 0.934D-01
 Coeff-En:   0.907D+00
 Coeff:      0.365D-01-0.489D-01 0.110D-01 0.821D-02 0.626D-01 0.410D+00
 Coeff:      0.521D+00
 Gap=     0.272 Goal=   None    Shift=    0.000
 RMSDP=1.09D-05 MaxDP=9.18D-04 DE=-5.84D-04 OVMax= 2.83D-03

 Cycle   8  Pass 0  IDiag  1:
 RMSU=  6.23D-06    CP:  1.03D+00  1.15D+00  9.44D-01  4.97D-01  5.00D-01
                    CP:  1.13D+00  6.84D-01
 E= -613.626857333870     Delta-E=       -0.000142745659 Rises=F Damp=F
 DIIS: error= 1.45D-04 at cycle   8 NSaved=   8.
 NSaved= 8 IEnMin= 8 EnMin= -613.626857333870     IErMin= 8 ErrMin= 1.45D-04
 ErrMax= 1.45D-04  0.00D+00 EMaxC= 1.00D-01 BMatC= 2.34D-05 BMatP= 2.07D-04
 IDIUse=3 WtCom= 9.99D-01 WtEn= 1.45D-03
 Coeff-Com:  0.200D-01-0.267D-01 0.766D-02-0.280D-02 0.530D-02 0.162D+00
 Coeff-Com:  0.299D+00 0.536D+00
 Coeff-En:   0.000D+00 0.000D+00 0.000D+00 0.000D+00 0.000D+00 0.000D+00
 Coeff-En:   0.000D+00 0.100D+01
 Coeff:      0.199D-01-0.267D-01 0.765D-02-0.279D-02 0.529D-02 0.161D+00
 Coeff:      0.299D+00 0.536D+00
 Gap=     0.271 Goal=   None    Shift=    0.000
 RMSDP=5.16D-06 MaxDP=5.13D-04 DE=-1.43D-04 OVMax= 1.17D-03

 Initial convergence to 1.0D-05 achieved.  Increase integral accuracy.
 Cycle   9  Pass 1  IDiag  1:
 E= -613.626797540667     Delta-E=        0.000059793202 Rises=F Damp=F
 DIIS: error= 7.69D-05 at cycle   1 NSaved=   1.
 NSaved= 1 IEnMin= 1 EnMin= -613.626797540667     IErMin= 1 ErrMin= 7.69D-05
 ErrMax= 7.69D-05  0.00D+00 EMaxC= 1.00D-01 BMatC= 1.28D-05 BMatP= 1.28D-05
 IDIUse=1 WtCom= 1.00D+00 WtEn= 0.00D+00
 Coeff-Com:  0.100D+01
 Coeff:      0.100D+01
 Gap=     0.272 Goal=   None    Shift=    0.000
 RMSDP=5.16D-06 MaxDP=5.13D-04 DE= 5.98D-05 OVMax= 1.38D-03

 Cycle  10  Pass 1  IDiag  1:
 RMSU=  2.74D-05    CP:  1.00D+00
 E= -613.626795545457     Delta-E=        0.000001995210 Rises=F Damp=F
 DIIS: error= 1.19D-04 at cycle   2 NSaved=   2.
 NSaved= 2 IEnMin= 1 EnMin= -613.626797540667     IErMin= 1 ErrMin= 7.69D-05
 ErrMax= 1.19D-04  0.00D+00 EMaxC= 1.00D-01 BMatC= 1.35D-05 BMatP= 1.28D-05
 IDIUse=3 WtCom= 9.99D-01 WtEn= 1.19D-03
 Coeff-Com:  0.509D+00 0.491D+00
 Coeff-En:   0.571D+00 0.429D+00
 Coeff:      0.509D+00 0.491D+00
 Gap=     0.271 Goal=   None    Shift=    0.000
 RMSDP=4.20D-06 MaxDP=5.10D-04 DE= 2.00D-06 OVMax= 1.36D-03

 Cycle  11  Pass 1  IDiag  1:
 RMSU=  4.15D-06    CP:  1.00D+00  9.82D-01
 E= -613.626802553672     Delta-E=       -0.000007008216 Rises=F Damp=F
 DIIS: error= 6.63D-05 at cycle   3 NSaved=   3.
 NSaved= 3 IEnMin= 3 EnMin= -613.626802553672     IErMin= 3 ErrMin= 6.63D-05
 ErrMax= 6.63D-05  0.00D+00 EMaxC= 1.00D-01 BMatC= 3.64D-06 BMatP= 1.28D-05
 IDIUse=1 WtCom= 1.00D+00 WtEn= 0.00D+00
 Coeff-Com:  0.408D-01 0.338D+00 0.621D+00
 Coeff:      0.408D-01 0.338D+00 0.621D+00
 Gap=     0.271 Goal=   None    Shift=    0.000
 RMSDP=1.47D-06 MaxDP=1.51D-04 DE=-7.01D-06 OVMax= 4.73D-04

 Cycle  12  Pass 1  IDiag  1:
 RMSU=  5.31D-07    CP:  1.00D+00  1.00D+00  6.96D-01
 E= -613.626805078781     Delta-E=       -0.000002525109 Rises=F Damp=F
 DIIS: error= 9.86D-06 at cycle   4 NSaved=   4.
 NSaved= 4 IEnMin= 4 EnMin= -613.626805078781     IErMin= 4 ErrMin= 9.86D-06
 ErrMax= 9.86D-06  0.00D+00 EMaxC= 1.00D-01 BMatC= 8.68D-08 BMatP= 3.64D-06
 IDIUse=1 WtCom= 1.00D+00 WtEn= 0.00D+00
 Coeff-Com:  0.258D-02 0.145D+00 0.295D+00 0.557D+00
 Coeff:      0.258D-02 0.145D+00 0.295D+00 0.557D+00
 Gap=     0.271 Goal=   None    Shift=    0.000
 RMSDP=2.22D-07 MaxDP=2.12D-05 DE=-2.53D-06 OVMax= 5.47D-05

 Cycle  13  Pass 1  IDiag  1:
 RMSU=  2.03D-07    CP:  1.00D+00  1.00D+00  7.01D-01  8.51D-01
 E= -613.626805136604     Delta-E=       -0.000000057823 Rises=F Damp=F
 DIIS: error= 2.83D-06 at cycle   5 NSaved=   5.
 NSaved= 5 IEnMin= 5 EnMin= -613.626805136604     IErMin= 5 ErrMin= 2.83D-06
 ErrMax= 2.83D-06  0.00D+00 EMaxC= 1.00D-01 BMatC= 7.45D-09 BMatP= 8.68D-08
 IDIUse=1 WtCom= 1.00D+00 WtEn= 0.00D+00
 Coeff-Com: -0.254D-02 0.406D-01 0.881D-01 0.275D+00 0.599D+00
 Coeff:     -0.254D-02 0.406D-01 0.881D-01 0.275D+00 0.599D+00
 Gap=     0.271 Goal=   None    Shift=    0.000
 RMSDP=8.30D-08 MaxDP=9.36D-06 DE=-5.78D-08 OVMax= 1.77D-05

 Cycle  14  Pass 1  IDiag  1:
 RMSU=  4.81D-08    CP:  1.00D+00  1.00D+00  7.05D-01  9.54D-01  8.64D-01
 E= -613.626805141927     Delta-E=       -0.000000005322 Rises=F Damp=F
 DIIS: error= 6.55D-07 at cycle   6 NSaved=   6.
 NSaved= 6 IEnMin= 6 EnMin= -613.626805141927     IErMin= 6 ErrMin= 6.55D-07
 ErrMax= 6.55D-07  0.00D+00 EMaxC= 1.00D-01 BMatC= 4.01D-10 BMatP= 7.45D-09
 IDIUse=1 WtCom= 1.00D+00 WtEn= 0.00D+00
 Coeff-Com: -0.125D-02 0.107D-01 0.238D-01 0.954D-01 0.268D+00 0.603D+00
 Coeff:     -0.125D-02 0.107D-01 0.238D-01 0.954D-01 0.268D+00 0.603D+00
 Gap=     0.271 Goal=   None    Shift=    0.000
 RMSDP=2.38D-08 MaxDP=2.32D-06 DE=-5.32D-09 OVMax= 8.51D-06

 Cycle  15  Pass 1  IDiag  1:
 RMSU=  2.15D-08    CP:  1.00D+00  1.00D+00  7.06D-01  9.65D-01  8.83D-01
                    CP:  8.65D-01
 E= -613.626805142121     Delta-E=       -0.000000000194 Rises=F Damp=F
 DIIS: error= 4.77D-07 at cycle   7 NSaved=   7.
 NSaved= 7 IEnMin= 7 EnMin= -613.626805142121     IErMin= 7 ErrMin= 4.77D-07
 ErrMax= 4.77D-07  0.00D+00 EMaxC= 1.00D-01 BMatC= 1.72D-10 BMatP= 4.01D-10
 IDIUse=1 WtCom= 1.00D+00 WtEn= 0.00D+00
 Coeff-Com: -0.314D-03-0.118D-02-0.222D-02 0.588D-02 0.516D-01 0.410D+00
 Coeff-Com:  0.536D+00
 Coeff:     -0.314D-03-0.118D-02-0.222D-02 0.588D-02 0.516D-01 0.410D+00
 Coeff:      0.536D+00
 Gap=     0.271 Goal=   None    Shift=    0.000
 RMSDP=1.61D-08 MaxDP=2.11D-06 DE=-1.94D-10 OVMax= 3.38D-06

 Cycle  16  Pass 1  IDiag  1:
 RMSU=  7.46D-09    CP:  1.00D+00  1.00D+00  7.06D-01  9.79D-01  9.04D-01
                    CP:  1.03D+00  7.10D-01
 E= -613.626805142227     Delta-E=       -0.000000000106 Rises=F Damp=F
 DIIS: error= 1.08D-07 at cycle   8 NSaved=   8.
 NSaved= 8 IEnMin= 8 EnMin= -613.626805142227     IErMin= 8 ErrMin= 1.08D-07
 ErrMax= 1.08D-07  0.00D+00 EMaxC= 1.00D-01 BMatC= 9.65D-12 BMatP= 1.72D-10
 IDIUse=1 WtCom= 1.00D+00 WtEn= 0.00D+00
 Coeff-Com: -0.179D-04-0.177D-02-0.368D-02-0.744D-02-0.448D-02 0.139D+00
 Coeff-Com:  0.266D+00 0.612D+00
 Coeff:     -0.179D-04-0.177D-02-0.368D-02-0.744D-02-0.448D-02 0.139D+00
 Coeff:      0.266D+00 0.612D+00
 Gap=     0.271 Goal=   None    Shift=    0.000
 RMSDP=3.29D-09 MaxDP=3.95D-07 DE=-1.06D-10 OVMax= 4.96D-07

 SCF Done:  E(RM06) =  -613.626805142     A.U. after   16 cycles
            NFock= 16  Conv=0.33D-08     -V/T= 2.0046
 KE= 6.108013514050D+02 PE=-3.182469747655D+03 EE= 1.082524759824D+03
 Leave Link  502 at Wed Jun 18 14:18:22 2014, MaxMem=  4294967296 cpu:     27099.9
 (Enter /home/ztw1e12/g09/l801.exe)
 DoSCS=F DFT=T ScalE2(SS,OS)=  1.000000  1.000000
 Range of M.O.s used for correlation:     1   932
 NBasis=  1036 NAE=    51 NBE=    51 NFC=     0 NFV=     0
 NROrb=    932 NOA=    51 NOB=    51 NVA=   881 NVB=   881

 **** Warning!!: The largest alpha MO coefficient is  0.10513914D+02

 Leave Link  801 at Wed Jun 18 14:18:22 2014, MaxMem=  4294967296 cpu:         0.4
 (Enter /home/ztw1e12/g09/l1002.exe)
 Minotr:  Closed shell wavefunction.
          IDoAtm=1111111111111111111111111111111
          Direct CPHF calculation.
          Differentiating once with respect to Fermi-contact.
          Electric field/nuclear overlap derivatives assumed to be zero.
          Requested convergence is 1.0D-10 RMS, and 1.0D-09 maximum.
          Secondary convergence is 1.0D-12 RMS, and 1.0D-12 maximum.
          NewPWx=T KeepS1=F KeepF1=F KeepIn=T MapXYZ=F SortEE=F KeepMc=T.
          MDV=    4294966050 using IRadAn=  199590.
 Using stored XC quadrature information.
          Solving linear equations simultaneously, MaxMat=       0.
          There are    31 degrees of freedom in the 1st order CPHF.  IDoFFX=0 NUNeed=    31.
     31 vectors produced by pass  0 Test12= 1.45D-17 3.23D-11 XBig12= 4.16D+01 2.57D+00.
 AX will form    31 AO Fock derivatives at one time.
 FoFJK:  IHMeth= 1 ICntrl=       0 DoSepK=F KAlg= 0 I1Cent=   0 FoldK=F
 IRaf= 500000000 NMat=  31 IRICut=       1 DoRegI=T DoRafI=F ISym2E=-1.
 FoFCou: FMM=F IPFlag=           0 FMFlag=      100000 FMFlg1=           0
         NFxFlg=           0 DoJE=F BraDBF=F KetDBF=F FulRan=T
         wScrn=  0.000000 ICntrl=       0 IOpCl=  0 I1Cent=           0 NGrid=           0
         NMat0=   31 NMatS0=      0 NMatT0=   31 NMatD0=   31 NMtDS0=    0 NMtDT0=    0
 Petite list used in FoFCou.
     31 vectors produced by pass  1 Test12= 1.45D-17 3.23D-11 XBig12= 3.44D-01 1.77D-01.
     31 vectors produced by pass  2 Test12= 1.45D-17 3.23D-11 XBig12= 1.65D-02 4.77D-02.
     31 vectors produced by pass  3 Test12= 1.45D-17 3.23D-11 XBig12= 3.63D-04 6.24D-03.
     31 vectors produced by pass  4 Test12= 1.45D-17 3.23D-11 XBig12= 5.06D-06 8.88D-04.
     31 vectors produced by pass  5 Test12= 1.45D-17 3.23D-11 XBig12= 1.04D-07 1.50D-04.
     31 vectors produced by pass  6 Test12= 1.45D-17 3.23D-11 XBig12= 2.99D-09 1.67D-05.
     31 vectors produced by pass  7 Test12= 1.45D-17 3.23D-11 XBig12= 7.97D-11 3.64D-06.
     31 vectors produced by pass  8 Test12= 1.45D-17 3.23D-11 XBig12= 1.79D-12 2.88D-07.
     31 vectors produced by pass  9 Test12= 1.45D-17 3.23D-11 XBig12= 5.11D-14 7.73D-08.
     31 vectors produced by pass 10 Test12= 1.45D-17 3.23D-11 XBig12= 1.82D-15 7.33D-09.
     30 vectors produced by pass 11 Test12= 1.45D-17 3.23D-11 XBig12= 1.77D-17 5.34D-10.
      5 vectors produced by pass 12 Test12= 1.45D-17 3.23D-11 XBig12= 1.54D-19 4.54D-11.
 InvSVY:  IOpt=1 It=  1 EMax= 5.33D-15
 Solved reduced A of dimension   376 with    31 vectors.
 Max diff in FC couplings:  IJMax=    11     1 Diff= 4.24D-04 IJMaxR=    25    11 DiffR= 1.35D+00
 Fermi Contact (FC) contribution to K (Hz):
                1             2             3             4             5 
      1  0.123400D+11
      2  0.274212D+02  0.123400D+11
      3 -0.102752D+01  0.188694D+02  0.123400D+11
      4  0.760497D-01  0.128835D+00 -0.302636D-01  0.123400D+11
      5 -0.524303D-02 -0.562483D-02  0.142868D-02  0.171758D+02  0.123400D+11
      6 -0.225931D-01  0.269783D-01  0.586908D-03  0.181701D+02 -0.842758D+00
      7  0.484824D-02 -0.605845D-02  0.245291D-02  0.166405D+02 -0.775165D+00
      8 -0.955917D+01  0.276919D+01  0.413783D+00  0.155374D+01  0.297418D-01
      9  0.203906D+00  0.194999D+02 -0.657620D+00 -0.206206D-01 -0.442918D-03
     10  0.399130D-01  0.233923D+00  0.172600D+00 -0.204909D-02  0.241776D-03
     11  0.288657D+02  0.139592D+02  0.150196D+00  0.827414D-01  0.493111D-01
     12  0.464926D+00  0.117916D+00 -0.225847D-01 -0.281300D-02 -0.928955D-03
     13 -0.388789D+00  0.109954D+01  0.264125D-02  0.637069D-01  0.443548D-02
     14  0.179074D+00 -0.936975D-01  0.186389D-01  0.180776D-01  0.198805D-02
     15  0.213502D+00 -0.782092D-01  0.904989D-02  0.483897D-03  0.105095D-02
     16  0.961008D+00 -0.248363D-01 -0.501263D-03  0.460650D-02  0.235522D-03
     17  0.116920D+00 -0.376873D+00  0.260148D+00 -0.351129D-02 -0.100116D-02
     18 -0.160581D+00  0.895939D+00 -0.791745D-01  0.784758D-03  0.908775D-05
     19 -0.222819D-02  0.103185D+00 -0.207059D-02 -0.427247D-04 -0.118937D-04
     20  0.644138D-01 -0.514928D-02  0.190674D-01  0.533932D-04 -0.289388D-04
     21  0.656736D-01  0.676325D-01  0.205888D-01  0.294858D-04  0.641114D-05
     22  0.477870D+00  0.748114D+00  0.227138D+00  0.177277D-01 -0.177098D-04
     23  0.538533D+00 -0.615896D+00  0.971317D+00  0.175057D+02 -0.624208D+00
     24 -0.106053D-01  0.381802D+00 -0.213189D-01 -0.615444D+00  0.104560D+00
     25 -0.722330D-01  0.195893D+01 -0.366283D-01 -0.905747D-01  0.429728D+00
     26  0.101969D-02 -0.141732D-01 -0.219019D-03  0.351444D+00 -0.537207D-02
     27  0.474558D-02 -0.119811D-01 -0.933819D-03  0.122795D+01  0.143423D-01
     28 -0.107300D-01  0.192583D+00 -0.633453D-03  0.336444D+00 -0.104135D-01
     29 -0.363037D+00  0.165556D+02 -0.845536D+00 -0.161720D+00  0.119847D+01
     30  0.106326D+01 -0.943883D+00  0.143520D+00  0.937214D+00  0.473771D-01
     31  0.103989D+00 -0.380874D+00  0.163616D+00  0.628366D+00 -0.242784D-02
                6             7             8             9            10 
      6  0.123400D+11
      7 -0.752314D+00  0.123400D+11
      8  0.554725D-01 -0.212164D-01  0.123400D+11
      9  0.152960D-01  0.485836D-01  0.464981D+00  0.123400D+11
     10 -0.386996D-03 -0.250749D-02 -0.142746D-02  0.315613D+02  0.123400D+11
     11  0.719925D-01  0.169773D-01  0.636907D+01  0.107923D+01  0.168850D+00
     12 -0.305711D-03  0.915045D-03  0.470211D+00  0.549578D-01 -0.241332D-03
     13  0.253605D-01 -0.247228D-02  0.622785D+00  0.320740D+00  0.146865D-01
     14  0.192912D-02  0.316322D-02  0.240868D+00 -0.720375D-02 -0.109194D-02
     15  0.643288D-03  0.140153D-02  0.240230D+00 -0.393890D-02 -0.100983D-02
     16  0.101211D-02 -0.846231D-04  0.179539D+00  0.255743D-01 -0.927495D-03
     17  0.871931D-03  0.533265D-02  0.620067D-01  0.267603D+02  0.394647D+00
     18 -0.463675D-04  0.107014D-03  0.785201D-01  0.127935D+02  0.979815D-01
     19 -0.890118D-05  0.165282D-04 -0.690499D-04  0.352189D+00 -0.100660D-01
     20 -0.359082D-05 -0.184433D-04  0.491780D-02  0.267681D+00 -0.102362D-01
     21  0.610993D-04  0.714076D-05  0.208171D-02  0.484340D+00 -0.129502D-01
     22 -0.133445D-02 -0.259116D-03  0.675394D+00  0.588411D+01  0.431154D+00
     23 -0.619352D+00 -0.696268D+00 -0.185339D-01  0.731807D+00 -0.330119D-01
     24  0.139305D+00  0.344793D+00  0.375657D-01  0.105985D+00 -0.250557D-01
     25  0.149764D+01  0.349939D+00  0.998114D-01 -0.687564D-01  0.294302D-02
     26 -0.691042D-02 -0.132006D-01  0.109146D-01  0.413514D-01 -0.769414D-03
     27  0.952653D-01 -0.747746D-02  0.885732D-02  0.134986D-01  0.265409D-03
     28  0.491978D-02 -0.360279D-02  0.696275D-03 -0.116005D-01  0.238616D-02
     29  0.129446D+00  0.454126D+00  0.288044D+00  0.862236D+00  0.506476D+00
     30 -0.134419D-01 -0.799451D-02  0.667632D-01  0.602180D+00 -0.159435D-01
     31 -0.873403D-02 -0.211018D-01 -0.167708D-01  0.170331D+01 -0.170708D-01
               11            12            13            14            15 
     11  0.123400D+11
     12  0.312281D+02  0.123400D+11
     13  0.170792D+02  0.315077D+00  0.123400D+11
     14 -0.586322D+00  0.540986D-01  0.195577D+02  0.123400D+11
     15 -0.540953D+00  0.172253D+00  0.203548D+02 -0.732002D+00  0.123400D+11
     16 -0.375928D+00  0.284065D+00  0.182787D+02 -0.732913D+00 -0.764507D+00
     17 -0.708107D-01 -0.219241D-03 -0.925397D-02  0.800370D-03  0.503102D-03
     18  0.167736D-01  0.120977D-02  0.115998D-01  0.127150D-02  0.801644D-03
     19  0.523066D-02  0.255364D-04 -0.327904D-04 -0.269076D-04 -0.152269D-04
     20 -0.231765D-02 -0.156256D-03 -0.278079D-03  0.379817D-04 -0.406328D-04
     21  0.153257D-01  0.000000D+00  0.230247D-02  0.908193D-04 -0.659881D-04
     22  0.166540D+00 -0.149607D-02  0.857261D-02  0.525990D-02  0.196218D-02
     23 -0.603471D-02  0.260054D-02 -0.453672D-02 -0.240823D-03 -0.596760D-03
     24  0.197615D-01 -0.275885D-03  0.578517D-03  0.714052D-03  0.000000D+00
     25  0.222470D-04 -0.139869D-02  0.717291D-02  0.157077D-02  0.466346D-03
     26 -0.535762D-03  0.642315D-04 -0.606915D-04 -0.299830D-04 -0.161797D-04
     27  0.363265D-02 -0.142377D-03  0.715807D-03  0.939376D-03  0.443497D-03
     28  0.754662D-03 -0.102791D-03 -0.489690D-03  0.530483D-03  0.370050D-03
     29  0.931654D-01 -0.309129D-01 -0.124381D+00  0.808651D-01  0.932725D-01
     30 -0.361862D-01 -0.525399D-02 -0.351534D-02  0.246061D-02  0.354426D-02
     31  0.467404D-01 -0.687679D-02 -0.947753D-03 -0.162449D-03  0.177619D-03
               16            17            18            19            20 
     16  0.123400D+11
     17 -0.837610D-04  0.123400D+11
     18  0.269592D-03  0.272451D+02  0.123400D+11
     19 -0.366526D-05 -0.766584D+00  0.170095D+02  0.123400D+11
     20  0.165964D-03 -0.118412D+01  0.176712D+02 -0.738823D+00  0.123400D+11
     21  0.372986D-03 -0.119016D+01  0.182477D+02 -0.727466D+00 -0.921271D+00
     22  0.196177D-02 -0.956592D+01  0.375712D+01  0.823798D+00  0.428817D+00
     23 -0.293818D-03 -0.489456D-01  0.204216D-01 -0.126599D-02 -0.153440D-02
     24  0.108942D-03 -0.200592D-03 -0.170301D-02  0.243307D-03  0.642833D-03
     25  0.586179D-03  0.993743D-02 -0.478665D-02  0.218974D-03  0.538216D-03
     26  0.179022D-05  0.719686D-02  0.150368D-03  0.441115D-05 -0.148811D-04
     27  0.299624D-04 -0.156276D-03  0.277992D-03 -0.184153D-04 -0.121768D-04
     28  0.126130D-05  0.392132D-02 -0.589316D-03  0.000000D+00 -0.813196D-05
     29  0.985013D-03  0.149290D+01 -0.389092D-01 -0.147756D-02  0.100341D-01
     30  0.261671D-03 -0.912733D-02  0.123396D-01 -0.892858D-04 -0.380519D-03
     31  0.409367D-03  0.112062D+00  0.577934D-01  0.807870D-05  0.180108D-02
               21            22            23            24            25 
     21  0.123400D+11
     22  0.442048D+00  0.123400D+11
     23 -0.133074D-02  0.102409D+00  0.123400D+11
     24  0.364512D-04  0.136481D-01  0.167591D+02  0.123400D+11
     25 -0.401131D-03  0.326479D-01  0.172481D+02 -0.754852D+00  0.123400D+11
     26  0.109236D-03 -0.212992D-03 -0.757356D+00  0.393130D+00  0.170675D+02
     27  0.941923D-05  0.942290D-03 -0.568932D+00  0.139387D+00  0.173040D+02
     28  0.171878D-04  0.471897D-02 -0.538334D+00  0.125041D+00  0.175902D+02
     29 -0.512591D-02  0.149984D+00  0.172690D+02 -0.666397D+00  0.241929D+00
     30 -0.663175D-03 -0.240449D-03 -0.584110D+00  0.543798D-01  0.655805D+00
     31 -0.193300D-02 -0.491661D-02 -0.706380D+00  0.320297D+00  0.119236D+00
               26            27            28            29            30 
     26  0.123400D+11
     27 -0.752508D+00  0.123400D+11
     28 -0.767389D+00 -0.758794D+00  0.123400D+11
     29  0.403880D+00  0.346520D+00  0.141966D+01  0.123400D+11
     30 -0.265598D-02 -0.156283D-01  0.224440D-01  0.174108D+02  0.123400D+11
     31 -0.110430D-01 -0.638137D-02 -0.196114D-01  0.170306D+02 -0.885089D+00
               31 
     31  0.123400D+11
 Fermi Contact (FC) contribution to J (Hz):
                1             2             3             4             5 
      1  0.243533D+11
      2  0.541164D+02  0.243533D+11
      3 -0.806281D+01  0.148066D+03  0.385007D+12
      4  0.150086D+00  0.254258D+00 -0.237476D+00  0.243533D+11
      5 -0.411415D-01 -0.441375D-01  0.445748D-01  0.134777D+03  0.385007D+12
      6 -0.177286D+00  0.211696D+00  0.183115D-01  0.142579D+03 -0.262940D+02
      7  0.380436D-01 -0.475401D-01  0.765308D-01  0.130576D+03 -0.241851D+02
      8  0.101727D+02 -0.294692D+01 -0.175083D+01 -0.165346D+01 -0.125846D+00
      9  0.115658D+00  0.110606D+02 -0.148312D+01 -0.116962D-01 -0.998907D-03
     10  0.313194D+00  0.183557D+01  0.538513D+01 -0.160790D-01  0.754339D-02
     11  0.163730D+02  0.791785D+01  0.338734D+00  0.469319D-01  0.111211D+00
     12  0.364823D+01  0.925279D+00 -0.704641D+00 -0.220733D-01 -0.289833D-01
     13 -0.767284D+00  0.216997D+01  0.207256D-01  0.125727D+00  0.348048D-01
     14  0.140518D+01 -0.735235D+00  0.581533D+00  0.141853D+00  0.620271D-01
     15  0.167533D+01 -0.613700D+00  0.282356D+00  0.379709D-02  0.327896D-01
     16  0.754094D+01 -0.194888D+00 -0.156394D-01  0.361468D-01  0.734826D-02
     17  0.230744D+00 -0.743767D+00  0.204136D+01 -0.692961D-02 -0.785598D-02
     18 -0.316910D+00  0.176816D+01 -0.621275D+00  0.154874D-02  0.713107D-04
     19 -0.174844D-01  0.809679D+00 -0.646024D-01 -0.335256D-03 -0.371084D-03
     20  0.505449D+00 -0.404059D-01  0.594902D+00  0.418971D-03 -0.902889D-03
     21  0.515335D+00  0.530706D+00  0.642368D+00  0.231373D-03  0.200027D-03
     22 -0.508540D+00 -0.796129D+00 -0.961084D+00 -0.188655D-01  0.749348D-04
     23  0.106281D+01 -0.121549D+01  0.762183D+01  0.345480D+02 -0.489810D+01
     24 -0.832190D-01  0.299596D+01 -0.665147D+00 -0.482933D+01  0.326228D+01
     25 -0.142554D+00  0.386600D+01 -0.287419D+00 -0.178752D+00  0.337204D+01
     26  0.800141D-02 -0.111216D+00 -0.683339D-02  0.275775D+01 -0.167608D+00
     27  0.372381D-01 -0.940145D-01 -0.291351D-01  0.963562D+01  0.447479D+00
     28 -0.841973D-01  0.151118D+01 -0.197637D-01  0.264005D+01 -0.324900D+00
     29 -0.716463D+00  0.326729D+02 -0.663484D+01 -0.319157D+00  0.940431D+01
     30  0.834330D+01 -0.740656D+01  0.447783D+01  0.735422D+01  0.147816D+01
     31  0.815992D+00 -0.298868D+01  0.510483D+01  0.493073D+01 -0.757485D-01
                6             7             8             9            10 
      6  0.385007D+12
      7 -0.234722D+02  0.385007D+12
      8 -0.234719D+00  0.897725D-01  0.708114D+10
      9  0.344968D-01  0.109570D+00 -0.142218D+00  0.201170D+10
     10 -0.120742D-01 -0.782335D-01  0.603997D-02  0.711796D+02  0.385007D+12
     11  0.162364D+00  0.382887D-01 -0.194803D+01  0.175939D+00  0.380804D+00
     12 -0.953817D-02  0.285494D-01 -0.198959D+01  0.123946D+00 -0.752953D-02
     13  0.199001D+00 -0.193997D-01 -0.662755D+00  0.181928D+00  0.115243D+00
     14  0.601884D-01  0.986924D-01 -0.101918D+01 -0.162465D-01 -0.340683D-01
     15  0.200706D-01  0.437278D-01 -0.101648D+01 -0.888334D-02 -0.315067D-01
     16  0.315777D-01 -0.264024D-02 -0.759681D+00  0.576772D-01 -0.289378D-01
     17  0.684196D-02  0.418448D-01 -0.659864D-01  0.151788D+02  0.309676D+01
     18 -0.363841D-03  0.839726D-03 -0.835596D-01  0.725665D+01  0.768851D+00
     19 -0.277717D-03  0.515679D-03  0.292169D-03  0.794286D+00 -0.314058D+00
     20 -0.112033D-03 -0.575429D-03 -0.208086D-01  0.603698D+00 -0.319369D+00
     21  0.190630D-02  0.222791D-03 -0.880827D-02  0.109233D+01 -0.404046D+00
     22  0.564642D-02  0.109639D-02  0.387566D+00 -0.179970D+01 -0.182433D+01
     23 -0.486000D+01 -0.546355D+01  0.197234D-01  0.415090D+00 -0.259041D+00
     24  0.434631D+01  0.107575D+02 -0.158951D+00  0.239026D+00 -0.781736D+00
     25  0.117518D+02  0.274594D+01 -0.106217D+00 -0.389995D-01  0.230936D-01
     26 -0.215605D+00 -0.411857D+00 -0.461827D-01  0.932592D-01 -0.240057D-01
     27  0.297227D+01 -0.233296D+00 -0.374777D-01  0.304433D-01  0.828074D-02
     28  0.153497D+00 -0.112407D+00 -0.294613D-02 -0.261623D-01  0.744480D-01
     29  0.101575D+01  0.356348D+01 -0.306531D+00  0.489071D+00  0.397427D+01
     30 -0.419387D+00 -0.249428D+00 -0.282493D+00  0.135809D+01 -0.497436D+00
     31 -0.272501D+00 -0.658375D+00  0.709618D-01  0.384145D+01 -0.532609D+00
               11            12            13            14            15 
     11  0.201170D+10
     12  0.704283D+02  0.385007D+12
     13  0.968755D+01  0.247238D+01  0.243533D+11
     14 -0.132232D+01  0.168787D+01  0.153467D+03  0.385007D+12
     15 -0.122000D+01  0.537429D+01  0.159722D+03 -0.228384D+02  0.385007D+12
     16 -0.847825D+00  0.886283D+01  0.143431D+03 -0.228668D+02 -0.238526D+02
     17 -0.401647D-01 -0.172036D-02 -0.182629D-01  0.628042D-02  0.394779D-02
     18  0.951417D-02  0.949291D-02  0.228924D-01  0.997730D-02  0.629042D-02
     19  0.117966D-01  0.796736D-03 -0.257303D-03 -0.839516D-03 -0.475079D-03
     20 -0.522696D-02 -0.487519D-02 -0.218206D-02  0.118503D-02 -0.126774D-02
     21  0.345638D-01  0.706453D-05  0.180672D-01  0.283356D-02 -0.205883D-02
     22 -0.509375D-01  0.633029D-02 -0.912280D-02 -0.222561D-01 -0.830251D-02
     23 -0.342296D-02  0.204062D-01 -0.895333D-02 -0.188971D-02 -0.468272D-02
     24  0.445677D-01 -0.860759D-02  0.453957D-02  0.222784D-01  0.830465D-05
     25  0.126188D-04 -0.109754D-01  0.141559D-01  0.123257D-01  0.365937D-02
     26 -0.120830D-02  0.200402D-02 -0.476240D-03 -0.935469D-03 -0.504805D-03
     27  0.819266D-02 -0.444216D-02  0.561687D-02  0.293085D-01  0.138371D-01
     28  0.170198D-02 -0.320707D-02 -0.384255D-02  0.165510D-01  0.115455D-01
     29  0.528445D-01 -0.242571D+00 -0.245470D+00  0.634540D+00  0.731900D+00
     30 -0.816101D-01 -0.163924D+00 -0.275846D-01  0.767708D-01  0.110581D+00
     31  0.105413D+00 -0.214555D+00 -0.743692D-02 -0.506839D-02  0.554170D-02
               16            17            18            19            20 
     16  0.385007D+12
     17 -0.657264D-03  0.243533D+11
     18  0.211546D-02  0.537690D+02  0.243533D+11
     19 -0.114356D-03 -0.601531D+01  0.133472D+03  0.385007D+12
     20  0.517806D-02 -0.929165D+01  0.138665D+03 -0.230512D+02  0.385007D+12
     21  0.116371D-01 -0.933909D+01  0.143188D+03 -0.226969D+02 -0.287436D+02
     22 -0.830077D-02  0.101799D+02 -0.399825D+01 -0.348572D+01 -0.181444D+01
     23 -0.230556D-02 -0.965953D-01  0.403025D-01 -0.993413D-02 -0.120403D-01
     24  0.339898D-02 -0.157403D-02 -0.133633D-01  0.759117D-02  0.200564D-01
     25  0.459969D-02  0.196118D-01 -0.944657D-02  0.171827D-02  0.422333D-02
     26  0.558547D-04  0.564731D-01  0.117992D-02  0.137628D-03 -0.464288D-03
     27  0.934826D-03 -0.122628D-02  0.218137D-02 -0.574556D-03 -0.379917D-03
     28  0.393524D-04  0.307702D-01 -0.462430D-02  0.284675D-04 -0.253717D-03
     29  0.772930D-02  0.294627D+01 -0.767883D-01 -0.115943D-01  0.787370D-01
     30  0.816413D-02 -0.716213D-01  0.968275D-01 -0.278571D-02 -0.118722D-01
     31  0.127722D-01  0.879336D+00  0.453499D+00  0.252055D-03  0.561935D-01
               21            22            23            24            25 
     21  0.385007D+12
     22 -0.187043D+01  0.708114D+10
     23 -0.104422D-01 -0.108982D+00  0.243533D+11
     24  0.113728D-02 -0.577490D-01  0.131507D+03  0.385007D+12
     25 -0.314764D-02 -0.347432D-01  0.340395D+02 -0.592325D+01  0.243533D+11
     26  0.340815D-02  0.901228D-03 -0.594290D+01  0.122656D+02  0.133927D+03
     27  0.293880D-03 -0.398709D-02 -0.446436D+01  0.434886D+01  0.135782D+03
     28  0.536260D-03 -0.199673D-01 -0.422426D+01  0.390128D+01  0.138029D+03
     29 -0.402225D-01 -0.159610D+00  0.340808D+02 -0.522915D+01  0.477453D+00
     30 -0.206910D-01  0.101741D-02 -0.458345D+01  0.169665D+01  0.514604D+01
     31 -0.603094D-01  0.208035D-01 -0.554290D+01  0.999326D+01  0.935633D+00
               26            27            28            29            30 
     26  0.385007D+12
     27 -0.234782D+02  0.385007D+12
     28 -0.239425D+02 -0.236743D+02  0.385007D+12
     29  0.316921D+01  0.271911D+01  0.111399D+02  0.243533D+11
     30 -0.828665D-01 -0.487602D+00  0.700252D+00  0.136621D+03  0.385007D+12
     31 -0.344540D+00 -0.199098D+00 -0.611876D+00  0.133638D+03 -0.276147D+02
               31 
     31  0.385007D+12
 End of Minotr F.D. properties file   721 does not exist.
 End of Minotr F.D. properties file   722 does not exist.
 End of Minotr F.D. properties file   788 does not exist.
 Leave Link 1002 at Wed Jun 18 20:48:39 2014, MaxMem=  4294967296 cpu:    373722.5
 (Enter /home/ztw1e12/g09/l601.exe)
 Copying SCF densities to generalized density rwf, IOpCl= 0 IROHF=0.

 **********************************************************************

            Population analysis using the SCF density.

 **********************************************************************

 Orbital symmetries:
       Occupied  (A) (A) (A) (A) (A) (A) (A) (A) (A) (A) (A) (A)
                 (A) (A) (A) (A) (A) (A) (A) (A) (A) (A) (A) (A)
                 (A) (A) (A) (A) (A) (A) (A) (A) (A) (A) (A) (A)
                 (A) (A) (A) (A) (A) (A) (A) (A) (A) (A) (A) (A)
                 (A) (A) (A)
       Virtual   (A) (A) (A) (A) (A) (A) (A) (A) (A) (A) (A) (A)
                 (A) (A) (A) (A) (A) (A) (A) (A) (A) (A) (A) (A)
                 (A) (A) (A) (A) (A) (A) (A) (A) (A) (A) (A) (A)
                 (A) (A) (A) (A) (A) (A) (A) (A) (A) (A) (A) (A)
                 (A) (A) (A) (A) (A) (A) (A) (A) (A) (A) (A) (A)
                 (A) (A) (A) (A) (A) (A) (A) (A) (A) (A) (A) (A)
                 (A) (A) (A) (A) (A) (A) (A) (A) (A) (A) (A) (A)
                 (A) (A) (A) (A) (A) (A) (A) (A) (A) (A) (A) (A)
                 (A) (A) (A) (A) (A) (A) (A) (A) (A) (A) (A) (A)
                 (A) (A) (A) (A) (A) (A) (A) (A) (A) (A) (A) (A)
                 (A) (A) (A) (A) (A) (A) (A) (A) (A) (A) (A) (A)
                 (A) (A) (A) (A) (A) (A) (A) (A) (A) (A) (A) (A)
                 (A) (A) (A) (A) (A) (A) (A) (A) (A) (A) (A) (A)
                 (A) (A) (A) (A) (A) (A) (A) (A) (A) (A) (A) (A)
                 (A) (A) (A) (A) (A) (A) (A) (A) (A) (A) (A) (A)
                 (A) (A) (A) (A) (A) (A) (A) (A) (A) (A) (A) (A)
                 (A) (A) (A) (A) (A) (A) (A) (A) (A) (A) (A) (A)
                 (A) (A) (A) (A) (A) (A) (A) (A) (A) (A) (A) (A)
                 (A) (A) (A) (A) (A) (A) (A) (A) (A) (A) (A) (A)
                 (A) (A) (A) (A) (A) (A) (A) (A) (A) (A) (A) (A)
                 (A) (A) (A) (A) (A) (A) (A) (A) (A) (A) (A) (A)
                 (A) (A) (A) (A) (A) (A) (A) (A) (A) (A) (A) (A)
                 (A) (A) (A) (A) (A) (A) (A) (A) (A) (A) (A) (A)
                 (A) (A) (A) (A) (A) (A) (A) (A) (A) (A) (A) (A)
                 (A) (A) (A) (A) (A) (A) (A) (A) (A) (A) (A) (A)
                 (A) (A) (A) (A) (A) (A) (A) (A) (A) (A) (A) (A)
                 (A) (A) (A) (A) (A) (A) (A) (A) (A) (A) (A) (A)
                 (A) (A) (A) (A) (A) (A) (A) (A) (A) (A) (A) (A)
                 (A) (A) (A) (A) (A) (A) (A) (A) (A) (A) (A) (A)
                 (A) (A) (A) (A) (A) (A) (A) (A) (A) (A) (A) (A)
                 (A) (A) (A) (A) (A) (A) (A) (A) (A) (A) (A) (A)
                 (A) (A) (A) (A) (A) (A) (A) (A) (A) (A) (A) (A)
                 (A) (A) (A) (A) (A) (A) (A) (A) (A) (A) (A) (A)
                 (A) (A) (A) (A) (A) (A) (A) (A) (A) (A) (A) (A)
                 (A) (A) (A) (A) (A) (A) (A) (A) (A) (A) (A) (A)
                 (A) (A) (A) (A) (A) (A) (A) (A) (A) (A) (A) (A)
                 (A) (A) (A) (A) (A) (A) (A) (A) (A) (A) (A) (A)
                 (A) (A) (A) (A) (A) (A) (A) (A) (A) (A) (A) (A)
                 (A) (A) (A) (A) (A) (A) (A) (A) (A) (A) (A) (A)
                 (A) (A) (A) (A) (A) (A) (A) (A) (A) (A) (A) (A)
                 (A) (A) (A) (A) (A) (A) (A) (A) (A) (A) (A) (A)
                 (A) (A) (A) (A) (A) (A) (A) (A) (A) (A) (A) (A)
                 (A) (A) (A) (A) (A) (A) (A) (A) (A) (A) (A) (A)
                 (A) (A) (A) (A) (A) (A) (A) (A) (A) (A) (A) (A)
                 (A) (A) (A) (A) (A) (A) (A) (A) (A) (A) (A) (A)
                 (A) (A) (A) (A) (A) (A) (A) (A) (A) (A) (A) (A)
                 (A) (A) (A) (A) (A) (A) (A) (A) (A) (A) (A) (A)
                 (A) (A) (A) (A) (A) (A) (A) (A) (A) (A) (A) (A)
                 (A) (A) (A) (A) (A) (A) (A) (A) (A) (A) (A) (A)
                 (A) (A) (A) (A) (A) (A) (A) (A) (A) (A) (A) (A)
                 (A) (A) (A) (A) (A) (A) (A) (A) (A) (A) (A) (A)
                 (A) (A) (A) (A) (A) (A) (A) (A) (A) (A) (A) (A)
                 (A) (A) (A) (A) (A) (A) (A) (A) (A) (A) (A) (A)
                 (A) (A) (A) (A) (A) (A) (A) (A) (A) (A) (A) (A)
                 (A) (A) (A) (A) (A) (A) (A) (A) (A) (A) (A) (A)
                 (A) (A) (A) (A) (A) (A) (A) (A) (A) (A) (A) (A)
                 (A) (A) (A) (A) (A) (A) (A) (A) (A) (A) (A) (A)
                 (A) (A) (A) (A) (A) (A) (A) (A) (A) (A) (A) (A)
                 (A) (A) (A) (A) (A) (A) (A) (A) (A) (A) (A) (A)
                 (A) (A) (A) (A) (A) (A) (A) (A) (A) (A) (A) (A)
                 (A) (A) (A) (A) (A) (A) (A) (A) (A) (A) (A) (A)
                 (A) (A) (A) (A) (A) (A) (A) (A) (A) (A) (A) (A)
                 (A) (A) (A) (A) (A) (A) (A) (A) (A) (A) (A) (A)
                 (A) (A) (A) (A) (A) (A) (A) (A) (A) (A) (A) (A)
                 (A) (A) (A) (A) (A) (A) (A) (A) (A) (A) (A) (A)
                 (A) (A) (A) (A) (A) (A) (A) (A) (A) (A) (A) (A)
                 (A) (A) (A) (A) (A) (A) (A) (A) (A) (A) (A) (A)
                 (A) (A) (A) (A) (A) (A) (A) (A) (A) (A) (A) (A)
                 (A) (A) (A) (A) (A) (A) (A) (A) (A) (A) (A) (A)
                 (A) (A) (A) (A) (A) (A) (A) (A) (A) (A) (A) (A)
                 (A) (A) (A) (A) (A) (A) (A) (A) (A) (A) (A) (A)
                 (A) (A) (A) (A) (A) (A) (A) (A) (A) (A) (A) (A)
                 (A) (A) (A) (A) (A) (A) (A) (A) (A) (A) (A) (A)
                 (A) (A) (A) (A) (A)
 The electronic state is 1-A.
 Alpha  occ. eigenvalues --  -19.17138 -19.16302 -14.41905 -14.41373 -10.33453
 Alpha  occ. eigenvalues --  -10.33234 -10.29224 -10.27181 -10.25760 -10.25526
 Alpha  occ. eigenvalues --  -10.23705 -10.23555 -10.22774  -1.05383  -1.03962
 Alpha  occ. eigenvalues --   -0.94360  -0.94194  -0.83988  -0.78598  -0.74216
 Alpha  occ. eigenvalues --   -0.72082  -0.70115  -0.66208  -0.60643  -0.59930
 Alpha  occ. eigenvalues --   -0.58531  -0.54598  -0.50930  -0.49718  -0.47691
 Alpha  occ. eigenvalues --   -0.47479  -0.46944  -0.45365  -0.44839  -0.44198
 Alpha  occ. eigenvalues --   -0.42026  -0.42022  -0.40604  -0.40331  -0.40166
 Alpha  occ. eigenvalues --   -0.39545  -0.38941  -0.38104  -0.36506  -0.35275
 Alpha  occ. eigenvalues --   -0.34665  -0.33647  -0.28165  -0.27579  -0.26160
 Alpha  occ. eigenvalues --   -0.25922
 Alpha virt. eigenvalues --    0.01219   0.02202   0.02711   0.03593   0.04640
 Alpha virt. eigenvalues --    0.05067   0.06502   0.06977   0.07949   0.08087
 Alpha virt. eigenvalues --    0.09778   0.10438   0.10695   0.11350   0.12222
 Alpha virt. eigenvalues --    0.12441   0.13340   0.13891   0.14106   0.15554
 Alpha virt. eigenvalues --    0.15843   0.16989   0.17740   0.18557   0.19609
 Alpha virt. eigenvalues --    0.20486   0.22863   0.23373   0.24549   0.24923
 Alpha virt. eigenvalues --    0.25338   0.25958   0.26858   0.27523   0.27834
 Alpha virt. eigenvalues --    0.28577   0.29537   0.30958   0.31037   0.32290
 Alpha virt. eigenvalues --    0.33156   0.33374   0.34250   0.34789   0.36095
 Alpha virt. eigenvalues --    0.36608   0.37242   0.37775   0.38773   0.39030
 Alpha virt. eigenvalues --    0.39354   0.39662   0.39944   0.40424   0.41059
 Alpha virt. eigenvalues --    0.41284   0.41840   0.42339   0.42893   0.42989
 Alpha virt. eigenvalues --    0.43471   0.44519   0.44597   0.45308   0.45397
 Alpha virt. eigenvalues --    0.46322   0.46735   0.47552   0.47636   0.48491
 Alpha virt. eigenvalues --    0.49204   0.50801   0.51426   0.52164   0.52663
 Alpha virt. eigenvalues --    0.53311   0.53957   0.55192   0.55557   0.56531
 Alpha virt. eigenvalues --    0.57433   0.58097   0.59583   0.60726   0.61125
 Alpha virt. eigenvalues --    0.63091   0.64315   0.65556   0.65917   0.68024
 Alpha virt. eigenvalues --    0.68513   0.70386   0.71044   0.72523   0.73820
 Alpha virt. eigenvalues --    0.75026   0.75328   0.76261   0.76819   0.78042
 Alpha virt. eigenvalues --    0.79218   0.80652   0.82134   0.82646   0.83997
 Alpha virt. eigenvalues --    0.84370   0.85260   0.85743   0.86574   0.86690
 Alpha virt. eigenvalues --    0.88350   0.88911   0.89458   0.89583   0.90782
 Alpha virt. eigenvalues --    0.91996   0.92736   0.93773   0.94899   0.95607
 Alpha virt. eigenvalues --    0.96073   0.96491   0.96965   0.97508   0.98441
 Alpha virt. eigenvalues --    0.98956   0.99999   1.00757   1.02021   1.02191
 Alpha virt. eigenvalues --    1.02521   1.03695   1.04041   1.05048   1.05357
 Alpha virt. eigenvalues --    1.06256   1.07576   1.08641   1.09389   1.11132
 Alpha virt. eigenvalues --    1.12451   1.12568   1.13011   1.14449   1.15517
 Alpha virt. eigenvalues --    1.15760   1.16556   1.17096   1.17791   1.18647
 Alpha virt. eigenvalues --    1.19242   1.19966   1.20376   1.21617   1.21836
 Alpha virt. eigenvalues --    1.22081   1.22381   1.22728   1.23241   1.23660
 Alpha virt. eigenvalues --    1.24179   1.24585   1.25630   1.26056   1.26762
 Alpha virt. eigenvalues --    1.26931   1.28004   1.28155   1.28705   1.29264
 Alpha virt. eigenvalues --    1.29431   1.30827   1.31209   1.31546   1.32096
 Alpha virt. eigenvalues --    1.33491   1.34195   1.35020   1.36569   1.37129
 Alpha virt. eigenvalues --    1.38524   1.39721   1.40278   1.40851   1.41448
 Alpha virt. eigenvalues --    1.43128   1.43522   1.44985   1.46328   1.47799
 Alpha virt. eigenvalues --    1.48693   1.49456   1.51893   1.53839   1.56105
 Alpha virt. eigenvalues --    1.58043   1.58567   1.60341   1.62008   1.62718
 Alpha virt. eigenvalues --    1.64082   1.67424   1.68252   1.70283   1.74177
 Alpha virt. eigenvalues --    1.74501   1.75907   1.77449   1.79371   1.82297
 Alpha virt. eigenvalues --    1.83890   1.87271   1.89491   1.91084   1.91679
 Alpha virt. eigenvalues --    1.93419   1.96788   1.98087   1.99220   1.99649
 Alpha virt. eigenvalues --    2.00053   2.03008   2.04070   2.06903   2.07309
 Alpha virt. eigenvalues --    2.07950   2.10560   2.12328   2.13864   2.16208
 Alpha virt. eigenvalues --    2.17763   2.18974   2.19245   2.20856   2.22202
 Alpha virt. eigenvalues --    2.24163   2.25373   2.26947   2.28911   2.29998
 Alpha virt. eigenvalues --    2.32517   2.33045   2.36128   2.37507   2.38204
 Alpha virt. eigenvalues --    2.39565   2.41127   2.42000   2.42850   2.45011
 Alpha virt. eigenvalues --    2.45591   2.46637   2.47305   2.48378   2.49704
 Alpha virt. eigenvalues --    2.51920   2.52505   2.53189   2.53782   2.55177
 Alpha virt. eigenvalues --    2.55525   2.56191   2.59115   2.60480   2.61353
 Alpha virt. eigenvalues --    2.65241   2.67061   2.67483   2.68428   2.69080
 Alpha virt. eigenvalues --    2.69867   2.70957   2.71647   2.72146   2.73039
 Alpha virt. eigenvalues --    2.73333   2.73897   2.75728   2.76458   2.78261
 Alpha virt. eigenvalues --    2.78979   2.79682   2.81179   2.82417   2.83212
 Alpha virt. eigenvalues --    2.83772   2.84896   2.85263   2.86710   2.87577
 Alpha virt. eigenvalues --    2.87786   2.88157   2.88749   2.89623   2.90642
 Alpha virt. eigenvalues --    2.92111   2.93187   2.93464   2.94252   2.95464
 Alpha virt. eigenvalues --    2.96009   2.97173   2.97655   2.98332   2.99083
 Alpha virt. eigenvalues --    2.99519   3.00087   3.01338   3.01838   3.02793
 Alpha virt. eigenvalues --    3.03473   3.03619   3.04604   3.05462   3.05995
 Alpha virt. eigenvalues --    3.06765   3.08082   3.08581   3.09204   3.10319
 Alpha virt. eigenvalues --    3.10996   3.12615   3.13535   3.15163   3.15811
 Alpha virt. eigenvalues --    3.16795   3.17204   3.17699   3.18896   3.20815
 Alpha virt. eigenvalues --    3.21382   3.22331   3.22410   3.23260   3.24462
 Alpha virt. eigenvalues --    3.25742   3.26020   3.27203   3.27367   3.28210
 Alpha virt. eigenvalues --    3.28769   3.28940   3.29534   3.30530   3.31616
 Alpha virt. eigenvalues --    3.33231   3.33786   3.34333   3.35390   3.35879
 Alpha virt. eigenvalues --    3.36491   3.37547   3.38603   3.38794   3.39302
 Alpha virt. eigenvalues --    3.40304   3.40879   3.42412   3.42516   3.43487
 Alpha virt. eigenvalues --    3.44113   3.44359   3.44758   3.46626   3.47667
 Alpha virt. eigenvalues --    3.49207   3.50410   3.50496   3.51337   3.54059
 Alpha virt. eigenvalues --    3.54594   3.56549   3.57455   3.58528   3.60330
 Alpha virt. eigenvalues --    3.60386   3.61549   3.62884   3.64309   3.65911
 Alpha virt. eigenvalues --    3.66807   3.67212   3.69333   3.70114   3.71394
 Alpha virt. eigenvalues --    3.71793   3.72452   3.72962   3.74121   3.74629
 Alpha virt. eigenvalues --    3.75614   3.76171   3.78135   3.78524   3.80098
 Alpha virt. eigenvalues --    3.80537   3.81499   3.82713   3.83594   3.84624
 Alpha virt. eigenvalues --    3.85254   3.86191   3.87533   3.89033   3.89920
 Alpha virt. eigenvalues --    3.90929   3.91846   3.92202   3.93596   3.94028
 Alpha virt. eigenvalues --    3.94700   3.95577   3.98293   3.98665   3.99605
 Alpha virt. eigenvalues --    4.00271   4.01676   4.03586   4.05009   4.05405
 Alpha virt. eigenvalues --    4.06521   4.07244   4.07850   4.09507   4.10654
 Alpha virt. eigenvalues --    4.11043   4.12193   4.12833   4.13552   4.15316
 Alpha virt. eigenvalues --    4.15357   4.17178   4.18329   4.18888   4.19665
 Alpha virt. eigenvalues --    4.20160   4.21223   4.22414   4.23607   4.23998
 Alpha virt. eigenvalues --    4.24983   4.26366   4.26991   4.27772   4.29392
 Alpha virt. eigenvalues --    4.29899   4.31681   4.32317   4.32864   4.34064
 Alpha virt. eigenvalues --    4.35839   4.36178   4.37409   4.40465   4.41090
 Alpha virt. eigenvalues --    4.44065   4.45883   4.46242   4.48385   4.50339
 Alpha virt. eigenvalues --    4.50708   4.52599   4.53905   4.55596   4.56215
 Alpha virt. eigenvalues --    4.57966   4.59153   4.60165   4.60396   4.62307
 Alpha virt. eigenvalues --    4.62331   4.63552   4.64017   4.64219   4.65023
 Alpha virt. eigenvalues --    4.66123   4.68444   4.68921   4.70184   4.71310
 Alpha virt. eigenvalues --    4.71760   4.73780   4.74897   4.76597   4.76601
 Alpha virt. eigenvalues --    4.78625   4.79609   4.80067   4.81719   4.83685
 Alpha virt. eigenvalues --    4.84989   4.86709   4.87822   4.90310   4.91573
 Alpha virt. eigenvalues --    4.92547   4.94387   4.94713   4.96172   4.97188
 Alpha virt. eigenvalues --    4.98497   4.99667   5.00615   5.01363   5.02775
 Alpha virt. eigenvalues --    5.03072   5.03727   5.05061   5.07686   5.09848
 Alpha virt. eigenvalues --    5.11144   5.12055   5.13177   5.14662   5.15605
 Alpha virt. eigenvalues --    5.16611   5.17711   5.18175   5.20347   5.21021
 Alpha virt. eigenvalues --    5.22109   5.22583   5.23610   5.25358   5.25427
 Alpha virt. eigenvalues --    5.25922   5.27072   5.29337   5.29925   5.30988
 Alpha virt. eigenvalues --    5.31879   5.35478   5.36402   5.38844   5.39351
 Alpha virt. eigenvalues --    5.42438   5.44544   5.45555   5.48773   5.48927
 Alpha virt. eigenvalues --    5.52741   5.53492   5.55604   5.56750   5.58603
 Alpha virt. eigenvalues --    5.60716   5.61627   5.62649   5.64259   5.65284
 Alpha virt. eigenvalues --    5.66106   5.68664   5.69175   5.70905   5.72340
 Alpha virt. eigenvalues --    5.72863   5.75093   5.75746   5.76966   5.79062
 Alpha virt. eigenvalues --    5.80379   5.81766   5.84001   5.85745   5.88172
 Alpha virt. eigenvalues --    5.91104   5.94288   5.96455   6.01337   6.05886
 Alpha virt. eigenvalues --    6.12111   6.18861   6.21501   6.23297   6.27274
 Alpha virt. eigenvalues --    6.51780   6.53527   6.58069   6.63081   6.65459
 Alpha virt. eigenvalues --    6.66533   6.78267   6.81348   6.90473   6.92195
 Alpha virt. eigenvalues --    6.92875   6.96896   7.18056   7.20070   7.23901
 Alpha virt. eigenvalues --    7.27441   8.13347   8.31943   8.67585   8.73880
 Alpha virt. eigenvalues --    8.78305   8.80279   8.81351   8.82761   8.83332
 Alpha virt. eigenvalues --    8.85317   8.86757   8.88585   8.91844   8.92796
 Alpha virt. eigenvalues --    8.94242   8.94806   8.96710   8.99551   9.02420
 Alpha virt. eigenvalues --    9.04194   9.08094   9.10919   9.13855   9.16701
 Alpha virt. eigenvalues --    9.23246   9.60040   9.62518   9.77384   9.83393
 Alpha virt. eigenvalues --    9.89274   9.95258  10.10857  10.12325  10.15107
 Alpha virt. eigenvalues --   10.18224  10.19808  10.21395  10.22102  10.24673
 Alpha virt. eigenvalues --   10.26351  10.29078  10.29914  10.32312  10.34364
 Alpha virt. eigenvalues --   10.41185  11.75901  11.81121  12.03383  12.14283
 Alpha virt. eigenvalues --   12.15979  12.19798  12.23405  12.26153  12.31753
 Alpha virt. eigenvalues --   12.40108  12.44615  12.55702  12.58070  12.83254
 Alpha virt. eigenvalues --   12.93096  14.97204  15.04731  15.24230  15.27749
 Alpha virt. eigenvalues --   15.99482  16.05438  16.83860  16.90559  22.01027
 Alpha virt. eigenvalues --   22.11850  40.17266  40.29265  40.67196  40.67968
 Alpha virt. eigenvalues --   40.68922  40.72146  40.73370  40.74955  40.76931
 Alpha virt. eigenvalues --   40.77946  40.80524  40.81131  40.82292  40.82876
 Alpha virt. eigenvalues --   40.84009  40.84162  40.84503  40.85073  40.86378
 Alpha virt. eigenvalues --   40.86551  40.87408  40.88855  40.90462  40.90669
 Alpha virt. eigenvalues --   40.91613  40.92602  40.94510  46.33538  46.45135
 Alpha virt. eigenvalues --   46.48288  46.52071  46.55986  46.57207  46.63384
 Alpha virt. eigenvalues --   46.74560  46.77210  54.45714  54.47183  55.76656
 Alpha virt. eigenvalues --   55.84060  55.96031  55.98752  56.07498  56.17392
 Alpha virt. eigenvalues --   56.18003  56.20799  56.24542  56.29945  56.35697
 Alpha virt. eigenvalues --   56.43568  56.46626  56.57928  56.63523  56.68320
 Alpha virt. eigenvalues --   57.46733  57.49856  57.99350  58.01763  58.19286
 Alpha virt. eigenvalues --   58.25633  64.71068  64.77231  73.94346  73.98702
 Alpha virt. eigenvalues --   74.10013  74.11555  74.63749  74.67046  86.06872
 Alpha virt. eigenvalues --   86.16577 165.42868 165.53122 165.57310 165.60355
 Alpha virt. eigenvalues --  165.64116 165.64825 165.69822 165.79882 165.82460
 Alpha virt. eigenvalues --  226.59249 226.61592 230.58151 230.63971 235.39461
 Alpha virt. eigenvalues --  235.80982 236.18652 236.37527 236.57369 236.60565
 Alpha virt. eigenvalues --  236.74891 237.17807 237.45234 237.67936 237.72372
 Alpha virt. eigenvalues --  237.94760 238.11191 238.41044 238.52098 238.96798
 Alpha virt. eigenvalues --  308.80500 308.89178 624.54336 624.61174 624.63092
 Alpha virt. eigenvalues --  624.67095 624.69113 624.72117 624.75510 624.83744
 Alpha virt. eigenvalues --  624.84982 794.43125 794.62850 825.44879 826.97047
 Alpha virt. eigenvalues --  827.08982 827.86883 828.11306 828.36882 828.98589
 Alpha virt. eigenvalues --  830.48564 831.18425 831.77587 831.99769 832.48563
 Alpha virt. eigenvalues --  832.82967 833.72245 834.01624 835.66199 868.34194
 Alpha virt. eigenvalues --  868.399101165.932871166.012382485.580392485.71382
 Alpha virt. eigenvalues -- 2586.794542589.539822594.996472595.742852596.15447
 Alpha virt. eigenvalues -- 2596.484692598.772922602.206802604.916132606.90781
 Alpha virt. eigenvalues -- 2606.955342607.733302611.033122611.742162614.12604
 Alpha virt. eigenvalues -- 2616.226282740.320092740.343682740.371662740.40815
 Alpha virt. eigenvalues -- 2740.429202740.509512740.520972740.551162740.57475
 Alpha virt. eigenvalues -- 3787.319383787.376885073.314925073.385768292.86699
 Alpha virt. eigenvalues -- 8296.819998623.421858631.996078635.688288637.00011
 Alpha virt. eigenvalues -- 8641.197098648.023438648.831148662.404188668.77212
 Alpha virt. eigenvalues -- 8673.176358675.500388677.949218682.064548688.69126
 Alpha virt. eigenvalues -- 8692.050388704.14352******************************
 Alpha virt. eigenvalues -- **************************************************
 Alpha virt. eigenvalues -- **************************************************
 Alpha virt. eigenvalues -- **************************************************
 Alpha virt. eigenvalues -- **************************************************
 Alpha virt. eigenvalues -- **************************************************
 Alpha virt. eigenvalues -- **************************************************
 Alpha virt. eigenvalues -- **************************************************
 Alpha virt. eigenvalues -- **********
          Condensed to atoms (all electrons):
               1          2          3          4          5          6
     1  C    4.695624   0.186632  -0.067381   0.002835  -0.000593   0.019576
     2  C    0.186632   5.221142   0.400483  -0.014477  -0.000118  -0.000819
     3  H   -0.067381   0.400483   0.504963  -0.000521   0.000038   0.000024
     4  C    0.002835  -0.014477  -0.000521   5.074688   0.405174   0.375019
     5  H   -0.000593  -0.000118   0.000038   0.405174   0.530613  -0.009653
     6  H    0.019576  -0.000819   0.000024   0.375019  -0.009653   0.479787
     7  H   -0.001485  -0.000014  -0.000049   0.405178  -0.016021  -0.021577
     8  O    0.716802  -0.083198   0.004499  -0.018813  -0.000077   0.014694
     9  N   -0.062238   0.342933  -0.037051  -0.000428  -0.000008   0.000568
    10  H    0.000438  -0.035214   0.003198   0.000323   0.000045  -0.000050
    11  N    0.278730  -0.126531   0.011716   0.009840   0.000531  -0.017119
    12  H   -0.017847   0.009677   0.000234   0.000542  -0.000003  -0.000019
    13  C   -0.041616   0.009872  -0.001071  -0.001669  -0.000042   0.000193
    14  H    0.003133   0.000523   0.000076  -0.002967  -0.000184   0.005343
    15  H   -0.009430  -0.000200  -0.000308   0.000540   0.000009  -0.000796
    16  H    0.007070   0.000533  -0.000162  -0.000062  -0.000003   0.000123
    17  C   -0.006145  -0.057503   0.002535   0.000095   0.000003  -0.000043
    18  C   -0.005274   0.016699   0.001865   0.000002   0.000000   0.000006
    19  H    0.000424  -0.000133  -0.000247  -0.000003   0.000000  -0.000004
    20  H   -0.000133  -0.000427   0.000191   0.000000   0.000000   0.000000
    21  H    0.000749  -0.000828  -0.000199   0.000002   0.000000  -0.000002
    22  O   -0.003931   0.018552   0.016810  -0.000001   0.000000   0.000024
[...]
 Alpha virt. eigenvalues --    4.37507   4.38181   4.39100   4.41321   4.42613
 Alpha virt. eigenvalues --    4.44410   4.45785   4.48092   4.51217   4.51695
 Alpha virt. eigenvalues --    4.54126   4.55637   4.57935   4.58696   4.59897
 Alpha virt. eigenvalues --    4.63753   4.64174   4.64926   4.65909   4.67920
 Alpha virt. eigenvalues --    4.67934   4.70070   4.70798   4.71681   4.72203
 Alpha virt. eigenvalues --    4.73907   4.75432   4.76543   4.77820   4.78700
 Alpha virt. eigenvalues --    4.80063   4.80667   4.81847   4.82856   4.83262
 Alpha virt. eigenvalues --    4.85249   4.85843   4.86936   4.88849   4.90527
 Alpha virt. eigenvalues --    4.91891   4.92769   4.94495   4.95681   4.95940
 Alpha virt. eigenvalues --    4.97946   4.98525   5.00793   5.01097   5.01694
 Alpha virt. eigenvalues --    5.03142   5.03692   5.05168   5.06319   5.06706
 Alpha virt. eigenvalues --    5.07871   5.09339   5.09766   5.12027   5.12524
 Alpha virt. eigenvalues --    5.14367   5.14607   5.15468   5.17278   5.18475
 Alpha virt. eigenvalues --    5.19642   5.20028   5.21046   5.22363   5.23085
 Alpha virt. eigenvalues --    5.23426   5.25472   5.26698   5.27798   5.28462
 Alpha virt. eigenvalues --    5.29065   5.30120   5.31547   5.33516   5.33838
 Alpha virt. eigenvalues --    5.35280   5.36026   5.36858   5.37719   5.39616
 Alpha virt. eigenvalues --    5.43784   5.46382   5.47307   5.50486   5.55322
 Alpha virt. eigenvalues --    5.57950   5.59351   5.62151   5.66115   5.73048
 Alpha virt. eigenvalues --    5.73169   5.75303   5.76479   5.78148   5.78711
 Alpha virt. eigenvalues --    5.79478   5.80552   5.82102   5.84450   5.85390
 Alpha virt. eigenvalues --    5.88772   5.90079   5.90392   5.94614   5.96968
 Alpha virt. eigenvalues --    5.98184   6.00402   6.01962   6.05459   6.08510
 Alpha virt. eigenvalues --    6.22113   6.27369   6.35490   6.40407   6.48840
 Alpha virt. eigenvalues --    6.52686   6.53766   6.56800   6.67451   6.70091
 Alpha virt. eigenvalues --    6.88413   6.89694   6.92562   6.97770   7.10281
 Alpha virt. eigenvalues --    7.14686   7.16399   7.17869   9.49162   9.95890
 Alpha virt. eigenvalues --   11.59000  12.17145  12.37984  12.66342  13.03934
 Alpha virt. eigenvalues --   13.41257  13.53318  13.58819  13.69539  13.74064
 Alpha virt. eigenvalues --   13.97598
          Condensed to atoms (all electrons):
               1          2          3          4          5          6
     1  C    4.847194   0.151358  -0.068831   0.002486  -0.000231   0.018653
     2  C    0.151358   5.358474   0.438813  -0.004954  -0.000643   0.000141
     3  H   -0.068831   0.438813   0.459531  -0.000710   0.000031   0.000065
     4  C    0.002486  -0.004954  -0.000710   5.208096   0.410214   0.370732
     5  H   -0.000231  -0.000643   0.000031   0.410214   0.521973  -0.015770
     6  H    0.018653   0.000141   0.000065   0.370732  -0.015770   0.488451
     7  H   -0.002820   0.001037  -0.000075   0.403734  -0.022918  -0.025771
     8  O    0.708116  -0.081265   0.002472  -0.019037  -0.000099   0.015023
     9  N   -0.061832   0.281990  -0.037868  -0.000574   0.000004   0.000489
    10  H    0.001732  -0.032996   0.001365   0.000295   0.000038  -0.000063
    11  N    0.284346  -0.098935   0.004940   0.008437   0.000483  -0.016799
    12  H   -0.014797   0.007253  -0.000977   0.000492  -0.000001  -0.000023
    13  C   -0.062886   0.009430  -0.000889  -0.001744  -0.000045   0.000358
    14  H    0.003034   0.000399   0.000091  -0.003035  -0.000177   0.005314
    15  H   -0.009695  -0.000184  -0.000286   0.000507   0.000010  -0.000725
    16  H    0.008067   0.000541  -0.000123  -0.000076  -0.000004   0.000116
    17  C   -0.005307  -0.067343   0.001988   0.000168   0.000001  -0.000054
    18  C   -0.003957   0.013563   0.001735   0.000005   0.000000   0.000005
    19  H    0.000261   0.000665  -0.000238  -0.000002   0.000000  -0.000004
    20  H   -0.000159  -0.000441   0.000162   0.000000   0.000000   0.000000
    21  H    0.000694  -0.000782  -0.000173   0.000002   0.000000  -0.000001
    22  O   -0.001415   0.017097   0.016194  -0.000002   0.000000   0.000026
    23  C   -0.017087  -0.023240   0.010286   0.259016  -0.038227  -0.014070
    24  H   -0.007163   0.006447   0.000531  -0.031510  -0.004760  -0.003627
    25  C   -0.000170   0.001941   0.000322  -0.080435  -0.005994   0.006039
    26  H   -0.000076   0.000898  -0.000023  -0.007051  -0.000628   0.000192
    27  H   -0.000035  -0.000235   0.000008   0.008560  -0.000025  -0.000280
    28  H    0.000018  -0.000482   0.000018  -0.006394   0.004880  -0.000004
    29  C   -0.024438   0.244352  -0.033390  -0.048549   0.007819  -0.004988
    30  H    0.010695  -0.038117  -0.010727   0.008091  -0.000327  -0.000314
    31  H   -0.000960  -0.031693  -0.007280  -0.004797   0.000239   0.000023
               7          8          9         10         11         12
     1  C   -0.002820   0.708116  -0.061832   0.001732   0.284346  -0.014797
     2  C    0.001037  -0.081265   0.281990  -0.032996  -0.098935   0.007253
     3  H   -0.000075   0.002472  -0.037868   0.001365   0.004940  -0.000977
     4  C    0.403734  -0.019037  -0.000574   0.000295   0.008437   0.000492
     5  H   -0.022918  -0.000099   0.000004   0.000038   0.000483  -0.000001
     6  H   -0.025771   0.015023   0.000489  -0.000063  -0.016799  -0.000023
     7  H    0.539944   0.000149  -0.000091  -0.000013   0.001425   0.000059
     8  O    0.000149   7.841387   0.001157  -0.001284  -0.124415   0.005253
     9  N   -0.000091   0.001157   6.521631   0.383489   0.006034   0.000622
    10  H   -0.000013  -0.001284   0.383489   0.504108  -0.000270  -0.000008
    11  N    0.001425  -0.124415   0.006034  -0.000270   6.497011   0.373931
    12  H    0.000059   0.005253   0.000622  -0.000008   0.373931   0.537695
    13  C    0.000257   0.007338  -0.000298   0.000029   0.294153  -0.032463
    14  H   -0.000099   0.001629  -0.000019  -0.000005  -0.056324   0.002476
    15  H    0.000006   0.006499  -0.000042   0.000006  -0.040105   0.003134
    16  H   -0.000015   0.001485   0.000008   0.000000  -0.026669  -0.007645
    17  C    0.000002   0.013578   0.333974  -0.019626  -0.000482  -0.000065
    18  C    0.000000  -0.000164  -0.064368   0.000253  -0.000091   0.000001
    19  H    0.000000   0.000035   0.012704  -0.000629   0.000014   0.000001
    20  H    0.000000   0.000035  -0.001697  -0.000271   0.000005   0.000000
    21  H    0.000000   0.000158   0.000156   0.000192  -0.000003  -0.000001
    22  O    0.000000  -0.003209  -0.134766   0.004758  -0.003429  -0.000195
    23  C   -0.051552   0.013025   0.000284   0.002232  -0.002390   0.000035
    24  H    0.007806   0.002937   0.001256   0.001925   0.000514  -0.000015
    25  C   -0.008289   0.000262   0.001055  -0.000990   0.000087  -0.000026
    26  H    0.003514   0.000005  -0.000049  -0.000023  -0.000067  -0.000001
    27  H   -0.000072   0.000002  -0.000007   0.000148   0.000002   0.000000
    28  H   -0.000658   0.000002   0.000003   0.000079   0.000004   0.000000
    29  C   -0.006622  -0.005692  -0.065440  -0.003100   0.006604  -0.002420
    30  H    0.000362  -0.000576   0.003230   0.002168  -0.000017  -0.000149
    31  H    0.004400  -0.000086   0.004138   0.000521   0.001288   0.002625
              13         14         15         16         17         18
     1  C   -0.062886   0.003034  -0.009695   0.008067  -0.005307  -0.003957
     2  C    0.009430   0.000399  -0.000184   0.000541  -0.067343   0.013563
     3  H   -0.000889   0.000091  -0.000286  -0.000123   0.001988   0.001735
     4  C   -0.001744  -0.003035   0.000507  -0.000076   0.000168   0.000005
     5  H   -0.000045  -0.000177   0.000010  -0.000004   0.000001   0.000000
     6  H    0.000358   0.005314  -0.000725   0.000116  -0.000054   0.000005
     7  H    0.000257  -0.000099   0.000006  -0.000015   0.000002   0.000000
     8  O    0.007338   0.001629   0.006499   0.001485   0.013578  -0.000164
     9  N   -0.000298  -0.000019  -0.000042   0.000008   0.333974  -0.064368
    10  H    0.000029  -0.000005   0.000006   0.000000  -0.019626   0.000253
    11  N    0.294153  -0.056324  -0.040105  -0.026669  -0.000482  -0.000091
    12  H   -0.032463   0.002476   0.003134  -0.007645  -0.000065   0.000001
    13  C    4.779198   0.395649   0.402565   0.393835  -0.000197  -0.000007
    14  H    0.395649   0.618732  -0.052635  -0.029539  -0.000024   0.000000
    15  H    0.402565  -0.052635   0.586710  -0.024132   0.000092   0.000002
    16  H    0.393835  -0.029539  -0.024132   0.595861  -0.000007   0.000000
    17  C   -0.000197  -0.000024   0.000092  -0.000007   4.535132   0.278985
    18  C   -0.000007   0.000000   0.000002   0.000000   0.278985   4.995441
    19  H    0.000000   0.000000   0.000000   0.000000  -0.055349   0.392594
    20  H    0.000000   0.000000   0.000000   0.000000  -0.023019   0.382093
    21  H    0.000002   0.000000   0.000001   0.000000  -0.026775   0.390897
    22  O   -0.000195   0.000004   0.000076  -0.000002   0.720413  -0.070305
    23  C   -0.000319   0.000591  -0.000162  -0.000028   0.000508  -0.000178
    24  H   -0.000038   0.000020  -0.000013   0.000000   0.000420   0.000083
    25  C   -0.000032   0.000007  -0.000001  -0.000001   0.000113   0.000006
    26  H    0.000002   0.000006   0.000000   0.000000   0.000000   0.000000
    27  H    0.000000   0.000000   0.000000   0.000000   0.000005   0.000001
    28  H    0.000000  -0.000001   0.000000   0.000000  -0.000003   0.000000
    29  C   -0.000296  -0.000391   0.000113   0.000006   0.009447   0.000470
    30  H    0.000072  -0.000025   0.000011   0.000003  -0.000694  -0.000049
    31  H    0.000092  -0.000137   0.000052   0.000007  -0.000164   0.000035
              19         20         21         22         23         24
     1  C    0.000261  -0.000159   0.000694  -0.001415  -0.017087  -0.007163
     2  C    0.000665  -0.000441  -0.000782   0.017097  -0.023240   0.006447
     3  H   -0.000238   0.000162  -0.000173   0.016194   0.010286   0.000531
     4  C   -0.000002   0.000000   0.000002  -0.000002   0.259016  -0.031510
     5  H    0.000000   0.000000   0.000000   0.000000  -0.038227  -0.004760
     6  H   -0.000004   0.000000  -0.000001   0.000026  -0.014070  -0.003627
     7  H    0.000000   0.000000   0.000000   0.000000  -0.051552   0.007806
     8  O    0.000035   0.000035   0.000158  -0.003209   0.013025   0.002937
     9  N    0.012704  -0.001697   0.000156  -0.134766   0.000284   0.001256
    10  H   -0.000629  -0.000271   0.000192   0.004758   0.002232   0.001925
    11  N    0.000014   0.000005  -0.000003  -0.003429  -0.002390   0.000514
    12  H    0.000001   0.000000  -0.000001  -0.000195   0.000035  -0.000015
    13  C    0.000000   0.000000   0.000002  -0.000195  -0.000319  -0.000038
    14  H    0.000000   0.000000   0.000000   0.000004   0.000591   0.000020
    15  H    0.000000   0.000000   0.000001   0.000076  -0.000162  -0.000013
    16  H    0.000000   0.000000   0.000000  -0.000002  -0.000028   0.000000
    17  C   -0.055349  -0.023019  -0.026775   0.720413   0.000508   0.000420
    18  C    0.392594   0.382093   0.390897  -0.070305  -0.000178   0.000083
    19  H    0.605009  -0.027041  -0.024804   0.004635   0.000047   0.000090
    20  H   -0.027041   0.580050  -0.025695   0.001571   0.000014   0.000011
    21  H   -0.024804  -0.025695   0.563570   0.001932  -0.000015  -0.000037
    22  O    0.004635   0.001571   0.001932   7.851351  -0.000055  -0.000008
    23  C    0.000047   0.000014  -0.000015  -0.000055   5.314414   0.422189
    24  H    0.000090   0.000011  -0.000037  -0.000008   0.422189   0.508383
    25  C   -0.000009   0.000001  -0.000001   0.000001   0.282120  -0.031564
    26  H    0.000000   0.000000   0.000000   0.000000  -0.032510   0.007793
    27  H   -0.000001   0.000000   0.000000   0.000000  -0.036930  -0.006640
    28  H    0.000000   0.000000   0.000000   0.000000  -0.038884  -0.005828
    29  C   -0.000281   0.000007   0.000013   0.002445   0.204529  -0.056291
    30  H   -0.000030  -0.000041   0.000021  -0.000146  -0.058708  -0.003238
    31  H   -0.000005  -0.000003   0.000000   0.000073  -0.039946   0.004668
              25         26         27         28         29         30
     1  C   -0.000170  -0.000076  -0.000035   0.000018  -0.024438   0.010695
     2  C    0.001941   0.000898  -0.000235  -0.000482   0.244352  -0.038117
     3  H    0.000322  -0.000023   0.000008   0.000018  -0.033390  -0.010727
     4  C   -0.080435  -0.007051   0.008560  -0.006394  -0.048549   0.008091
     5  H   -0.005994  -0.000628  -0.000025   0.004880   0.007819  -0.000327
     6  H    0.006039   0.000192  -0.000280  -0.000004  -0.004988  -0.000314
     7  H   -0.008289   0.003514  -0.000072  -0.000658  -0.006622   0.000362
     8  O    0.000262   0.000005   0.000002   0.000002  -0.005692  -0.000576
     9  N    0.001055  -0.000049  -0.000007   0.000003  -0.065440   0.003230
    10  H   -0.000990  -0.000023   0.000148   0.000079  -0.003100   0.002168
    11  N    0.000087  -0.000067   0.000002   0.000004   0.006604  -0.000017
    12  H   -0.000026  -0.000001   0.000000   0.000000  -0.002420  -0.000149
    13  C   -0.000032   0.000002   0.000000   0.000000  -0.000296   0.000072
    14  H    0.000007   0.000006   0.000000  -0.000001  -0.000391  -0.000025
    15  H   -0.000001   0.000000   0.000000   0.000000   0.000113   0.000011
    16  H   -0.000001   0.000000   0.000000   0.000000   0.000006   0.000003
    17  C    0.000113   0.000000   0.000005  -0.000003   0.009447  -0.000694
    18  C    0.000006   0.000000   0.000001   0.000000   0.000470  -0.000049
    19  H   -0.000009   0.000000  -0.000001   0.000000  -0.000281  -0.000030
    20  H    0.000001   0.000000   0.000000   0.000000   0.000007  -0.000041
    21  H   -0.000001   0.000000   0.000000   0.000000   0.000013   0.000021
    22  O    0.000001   0.000000   0.000000   0.000000   0.002445  -0.000146
    23  C    0.282120  -0.032510  -0.036930  -0.038884   0.204529  -0.058708
    24  H   -0.031564   0.007793  -0.006640  -0.005828  -0.056291  -0.003238
    25  C    5.121955   0.393674   0.407502   0.409638  -0.068185  -0.012155
    26  H    0.393674   0.552905  -0.029492  -0.027767  -0.007694  -0.000864
    27  H    0.407502  -0.029492   0.544279  -0.017754  -0.007234   0.004420
    28  H    0.409638  -0.027767  -0.017754   0.535212   0.009744   0.000065
    29  C   -0.068185  -0.007694  -0.007234   0.009744   5.442987   0.421551
    30  H   -0.012155  -0.000864   0.004420   0.000065   0.421551   0.469264
    31  H   -0.003200   0.002731  -0.000055  -0.000121   0.407548  -0.001514
              31
     1  C   -0.000960
     2  C   -0.031693
     3  H   -0.007280
     4  C   -0.004797
     5  H    0.000239
     6  H    0.000023
     7  H    0.004400
     8  O   -0.000086
     9  N    0.004138
    10  H    0.000521
    11  N    0.001288
    12  H    0.002625
    13  C    0.000092
    14  H   -0.000137
    15  H    0.000052
    16  H    0.000007
    17  C   -0.000164
    18  C    0.000035
    19  H   -0.000005
    20  H   -0.000003
    21  H    0.000000
    22  O    0.000073
    23  C   -0.039946
    24  H    0.004668
    25  C   -0.003200
    26  H    0.002731
    27  H   -0.000055
    28  H   -0.000121
    29  C    0.407548
    30  H   -0.001514
    31  H    0.457897
 Mulliken charges:
               1
     1  C    0.245205
     2  C   -0.153090
     3  H    0.223036
     4  C   -0.471966
     5  H    0.144157
     6  H    0.176868
     7  H    0.156299
     8  O   -0.384722
     9  N   -0.185175
    10  H    0.155939
    11  N   -0.109282
    12  H    0.125211
    13  C   -0.183572
    14  H    0.114459
    15  H    0.128196
    16  H    0.088313
    17  C    0.304285
    18  C   -0.317051
    19  H    0.092338
    20  H    0.114418
    21  H    0.120650
    22  O   -0.406850
    23  C   -0.154990
    24  H    0.185661
    25  C   -0.413670
    26  H    0.144524
    27  H    0.133835
    28  H    0.138233
    29  C   -0.422623
    30  H    0.207740
    31  H    0.203623
 Sum of Mulliken charges =   0.00000
 Mulliken charges with hydrogens summed into heavy atoms:
               1
     1  C    0.245205
     2  C    0.069946
     4  C    0.005358
     8  O   -0.384722
     9  N   -0.029236
    11  N    0.015928
    13  C    0.147396
    17  C    0.304285
    18  C    0.010355
    22  O   -0.406850
    23  C    0.030671
    25  C    0.002922
    29  C   -0.011259
 Electronic spatial extent (au):  <R**2>=           2920.5184
 Charge=              0.0000 electrons
 Dipole moment (field-independent basis, Debye):
    X=             -3.4871    Y=             -2.0464    Z=             -1.9372  Tot=              4.4833
 Quadrupole moment (field-independent basis, Debye-Ang):
   XX=            -85.4058   YY=            -70.6912   ZZ=            -81.1848
   XY=            -10.1266   XZ=              4.2831   YZ=             -5.3697
 Traceless Quadrupole moment (field-independent basis, Debye-Ang):
   XX=             -6.3119   YY=              8.4027   ZZ=             -2.0908
   XY=            -10.1266   XZ=              4.2831   YZ=             -5.3697
 Octapole moment (field-independent basis, Debye-Ang**2):
  XXX=              0.6048  YYY=             31.0394  ZZZ=             -9.0127  XYY=             -0.2634
  XXY=            -17.8335  XXZ=             15.3990  XZZ=             -0.1198  YZZ=              2.8309
  YYZ=             -3.6374  XYZ=              3.7927
 Hexadecapole moment (field-independent basis, Debye-Ang**3):
 XXXX=          -2128.5723 YYYY=          -1354.6775 ZZZZ=           -338.1334 XXXY=            -80.5017
 XXXZ=             39.3183 YYYX=            -43.1461 YYYZ=            -16.3748 ZZZX=              1.1583
 ZZZY=            -19.7949 XXYY=           -582.1915 XXZZ=           -394.5822 YYZZ=           -294.5130
 XXYZ=             -1.7940 YYXZ=              4.0623 ZZXY=             -9.9777
 N-N= 8.755168312839D+02 E-N=-3.180750896651D+03  KE= 6.091215043303D+02
 Calculating spin-rotation constants.
 Leave Link  601 at Thu Jun 19 00:39:32 2014, MaxMem=  4294967296 cpu:        69.5
 (Enter /home/ztw1e12/g09/l9999.exe)

 Test job not archived.
 1\1\GINC-GREEN0610\SP\RM06\Gen\C9H18N2O2\ROOT\19-Jun-2014\0\\#P Geom=A
 llCheck Guess=TCheck SCRF=Check GenChk RM06/ChkBas NMR=ReadFC IOp(3/6=
 22)\\NMR spin-spin scan\\0,1\C,0,0.572624,0.742298,0.600131\C,0,0.1718
 45,0.132781,-0.736626\H,0,0.563717,0.795645,-1.513947\C,0,-2.374675,0.
 005981,1.385553\H,0,-3.023933,-0.568305,2.049606\H,0,-1.451158,0.20513
 4,1.928566\H,0,-2.867393,0.964449,1.191254\O,0,0.961889,0.067285,1.548
 855\N,0,0.776253,-1.166001,-0.914516\H,0,0.191654,-1.986403,-0.873239\
 N,0,0.458635,2.073228,0.659564\H,0,0.100664,2.566595,-0.143416\C,0,0.6
 67288,2.794638,1.89368\H,0,-0.063198,2.504199,2.651751\H,0,1.664194,2.
 604393,2.290246\H,0,0.566475,3.858764,1.703309\C,0,2.104814,-1.319578,
 -1.036139\C,0,2.600369,-2.719303,-1.195475\H,0,1.809211,-3.462884,-1.1
 27509\H,0,3.091264,-2.808447,-2.164642\H,0,3.350344,-2.918109,-0.43066
 6\O,0,2.872881,-0.357847,-1.037164\C,0,-2.159275,-0.743326,0.080795\H,
 0,-1.641204,-1.684698,0.305261\C,0,-3.505301,-1.08152,-0.534466\H,0,-4
 .041113,-0.163967,-0.798185\H,0,-3.395952,-1.676093,-1.443367\H,0,-4.1
 30824,-1.639977,0.164325\C,0,-1.338893,0.04491,-0.9386\H,0,-1.487834,-
 0.394247,-1.929611\H,0,-1.737742,1.063704,-0.994988\\Version=EM64L-G09
 RevD.01\State=1-A\HF=-613.5831817\RMSD=9.617e-09\Dipole=-1.6330599,0.1
 939733,-0.6377882\Quadrupole=-8.2252911,10.9046438,-2.6793527,-2.22259
 03,0.7256087,3.4865923\PG=C01 [X(C9H18N2O2)]\\@


 The arm of the moral universe is long, but it bends toward justice.
 -- Martin Luther King, Jr.
 Job cpu time:       2 days 13 hours 15 minutes 26.3 seconds.
 File lengths (MBytes):  RWF=   2456 Int=      0 D2E=      0 Chk=     48 Scr=      8
 Normal termination of Gaussian 09 at Thu Jun 19 00:39:33 2014.
