 Entering Link 1 = C:\G09W\l1.exe PID=     16112.
  
 Copyright (c) 1988,1990,1992,1993,1995,1998,2003,2009,2011,
            Gaussian, Inc.  All Rights Reserved.
  
 This is part of the Gaussian(R) 09 program.  It is based on
 the Gaussian(R) 03 system (copyright 2003, Gaussian, Inc.),
 the Gaussian(R) 98 system (copyright 1998, Gaussian, Inc.),
 the Gaussian(R) 94 system (copyright 1995, Gaussian, Inc.),
 the Gaussian 92(TM) system (copyright 1992, Gaussian, Inc.),
 the Gaussian 90(TM) system (copyright 1990, Gaussian, Inc.),
 the Gaussian 88(TM) system (copyright 1988, Gaussian, Inc.),
 the Gaussian 86(TM) system (copyright 1986, Carnegie Mellon
 University), and the Gaussian 82(TM) system (copyright 1983,
 Carnegie Mellon University). Gaussian is a federally registered
 trademark of Gaussian, Inc.
  
 This software contains proprietary and confidential information,
 including trade secrets, belonging to Gaussian, Inc.
  
 This software is provided under written license and may be
 used, copied, transmitted, or stored only in accord with that
 written license.
  
 The following legend is applicable only to US Government
 contracts under FAR:
  
                    RESTRICTED RIGHTS LEGEND
  
 Use, reproduction and disclosure by the US Government is
 subject to restrictions as set forth in subparagraphs (a)
 and (c) of the Commercial Computer Software - Restricted
 Rights clause in FAR 52.227-19.
  
 Gaussian, Inc.
 340 Quinnipiac St., Bldg. 40, Wallingford CT 06492
  
  
 ---------------------------------------------------------------
 Warning -- This program may not be used in any manner that
 competes with the business of Gaussian, Inc. or will provide
 assistance to any competitor of Gaussian, Inc.  The licensee
 of this program is prohibited from giving any competitor of
 Gaussian, Inc. access to this program.  By using this program,
 the user acknowledges that Gaussian, Inc. is engaged in the
 business of creating and licensing software in the field of
 computational chemistry and represents and warrants to the
 licensee that it is not a competitor of Gaussian, Inc. and that
 it will not use this program in any manner prohibited above.
 ---------------------------------------------------------------
  

 Cite this work as:
 Gaussian 09, Revision C.01,
 M. J. Frisch, G. W. Trucks, H. B. Schlegel, G. E. Scuseria, 
 M. A. Robb, J. R. Cheeseman, G. Scalmani, V. Barone, B. Mennucci, 
 G. A. Petersson, H. Nakatsuji, M. Caricato, X. Li, H. P. Hratchian, 
 A. F. Izmaylov, J. Bloino, G. Zheng, J. L. Sonnenberg, M. Hada, 
 M. Ehara, K. Toyota, R. Fukuda, J. Hasegawa, M. Ishida, T. Nakajima, 
 Y. Honda, O. Kitao, H. Nakai, T. Vreven, J. A. Montgomery, Jr., 
 J. E. Peralta, F. Ogliaro, M. Bearpark, J. J. Heyd, E. Brothers, 
 K. N. Kudin, V. N. Staroverov, T. Keith, R. Kobayashi, J. Normand, 
 K. Raghavachari, A. Rendell, J. C. Burant, S. S. Iyengar, J. Tomasi, 
 M. Cossi, N. Rega, J. M. Millam, M. Klene, J. E. Knox, J. B. Cross, 
 V. Bakken, C. Adamo, J. Jaramillo, R. Gomperts, R. E. Stratmann, 
 O. Yazyev, A. J. Austin, R. Cammi, C. Pomelli, J. W. Ochterski, 
 R. L. Martin, K. Morokuma, V. G. Zakrzewski, G. A. Voth, 
 P. Salvador, J. J. Dannenberg, S. Dapprich, A. D. Daniels, 
 O. Farkas, J. B. Foresman, J. V. Ortiz, J. Cioslowski, 
 and D. J. Fox, Gaussian, Inc., Wallingford CT, 2010.
 
 ******************************************
 Gaussian 09:  EM64W-G09RevC.01 23-Sep-2011
                18-Nov-2015 
 ******************************************
 %chk=E:\Spinach project\Collaborations\Australia\Philip Kuchel\FDG2233\geometry.
 chk
 ----------------------------
 #p opt pm6 geom=connectivity
 ----------------------------
 1/14=-1,18=20,19=15,26=1,38=1,57=2/1,3;
 2/9=110,12=2,17=6,18=5,40=1/2;
 3/5=2,16=1,25=1,41=3900000,71=1/1,2,3;
 4/35=1/1;
 5/5=2,35=1,38=5/2;
 6/7=2,8=2,9=2,10=2,28=1/1;
 7//1,2,3,16;
 1/14=-1,18=20,19=15/3(2);
 2/9=110/2;
 99//99;
 2/9=110/2;
 3/5=2,16=1,25=1,41=3900000,71=1,135=20/1,2,3;
 4/5=5,16=3,35=1/1;
 5/5=2,35=1,38=5/2;
 7//1,2,3,16;
 1/14=-1,18=20,19=15/3(-5);
 2/9=110/2;
 6/7=2,8=2,9=2,10=2,19=2,28=1/1;
 99/9=1/99;
 Leave Link    1 at Wed Nov 18 14:14:32 2015, MaxMem=          0 cpu:       0.0
 (Enter C:\G09W\l101.exe)
 -------------------
 Title Card Required
 -------------------
 Charge =  0 Multiplicity = 1
 Symbolic Z-Matrix:
 C                    -3.2336   -0.35361  -0.01527 
 C                    -1.7185   -0.35361  -0.01527 
 C                    -1.16657   1.05747  -0.01527 
 C                    -1.71623   1.86201   1.14539 
 C                    -3.78415   0.45205   1.1436 
 H                    -3.6092   -1.40783   0.04823 
 H                    -1.34369   1.42716   2.11 
 H                    -4.9027    0.48711   1.07867 
 F                    -1.27015  -1.01025   1.07574 
 F                    -1.26654  -1.01579  -1.10143 
 F                     0.1807    1.01653   0.06026 
 F                    -1.48986   1.66603  -1.17615 
 O                    -3.70869   0.1984   -1.24591 
 H                    -4.50552  -0.26295  -1.5176 
 O                    -1.23652   3.20682   1.0663 
 H                    -1.18566   3.58133   1.94877 
 C                    -3.41897  -0.24223   2.46883 
 H                    -4.16756  -0.02687   3.20241 
 H                    -2.47091   0.11743   2.81047 
 O                    -3.34647  -1.65539   2.26242 
 H                    -3.75067  -2.10897   3.00571 
 O                    -3.23135   1.86267   1.1449 
 
 NAtoms=     22 NQM=        0 NQMF=       0 NMMI=     22 NMMIF=      0
                NMic=       0 NMicF=      0.
                    Isotopes and Nuclear Properties:
 (Nuclear quadrupole moments (NQMom) in fm**2, nuclear magnetic moments (NMagM)
  in nuclear magnetons)

  Atom         1           2           3           4           5           6           7           8           9          10
 IAtWgt=          12          12          12          12          12           1           1           1          19          19
 AtmWgt=  12.0000000  12.0000000  12.0000000  12.0000000  12.0000000   1.0078250   1.0078250   1.0078250  18.9984033  18.9984033
 NucSpn=           0           0           0           0           0           1           1           1           1           1
 AtZEff=   0.0000000   0.0000000   0.0000000   0.0000000   0.0000000   0.0000000   0.0000000   0.0000000   0.0000000   0.0000000
 NQMom=    0.0000000   0.0000000   0.0000000   0.0000000   0.0000000   0.0000000   0.0000000   0.0000000   0.0000000   0.0000000
 NMagM=    0.0000000   0.0000000   0.0000000   0.0000000   0.0000000   2.7928460   2.7928460   2.7928460   2.6288670   2.6288670

  Atom        11          12          13          14          15          16          17          18          19          20
 IAtWgt=          19          19          16           1          16           1          12           1           1          16
 AtmWgt=  18.9984033  18.9984033  15.9949146   1.0078250  15.9949146   1.0078250  12.0000000   1.0078250   1.0078250  15.9949146
 NucSpn=           1           1           0           1           0           1           0           1           1           0
 AtZEff=   0.0000000   0.0000000   0.0000000   0.0000000   0.0000000   0.0000000   0.0000000   0.0000000   0.0000000   0.0000000
 NQMom=    0.0000000   0.0000000   0.0000000   0.0000000   0.0000000   0.0000000   0.0000000   0.0000000   0.0000000   0.0000000
 NMagM=    2.6288670   2.6288670   0.0000000   2.7928460   0.0000000   2.7928460   0.0000000   2.7928460   2.7928460   0.0000000

  Atom        21          22
 IAtWgt=           1          16
 AtmWgt=   1.0078250  15.9949146
 NucSpn=           1           0
 AtZEff=   0.0000000   0.0000000
 NQMom=    0.0000000   0.0000000
 NMagM=    2.7928460   0.0000000
 Leave Link  101 at Wed Nov 18 14:14:32 2015, MaxMem=   33554432 cpu:       0.0
 (Enter C:\G09W\l103.exe)

 GradGradGradGradGradGradGradGradGradGradGradGradGradGradGradGradGradGrad
 Berny optimization.
 Initialization pass.
                           ----------------------------
                           !    Initial Parameters    !
                           ! (Angstroms and Degrees)  !
 --------------------------                            --------------------------
 ! Name  Definition              Value          Derivative Info.                !
 --------------------------------------------------------------------------------
 ! R1    R(1,2)                  1.5151         estimate D2E/DX2                !
 ! R2    R(1,5)                  1.515          estimate D2E/DX2                !
 ! R3    R(1,6)                  1.1209         estimate D2E/DX2                !
 ! R4    R(1,13)                 1.43           estimate D2E/DX2                !
 ! R5    R(2,3)                  1.5152         estimate D2E/DX2                !
 ! R6    R(2,9)                  1.35           estimate D2E/DX2                !
 ! R7    R(2,10)                 1.35           estimate D2E/DX2                !
 ! R8    R(3,4)                  1.5154         estimate D2E/DX2                !
 ! R9    R(3,11)                 1.35           estimate D2E/DX2                !
 ! R10   R(3,12)                 1.35           estimate D2E/DX2                !
 ! R11   R(4,7)                  1.1218         estimate D2E/DX2                !
 ! R12   R(4,15)                 1.43           estimate D2E/DX2                !
 ! R13   R(4,22)                 1.5151         estimate D2E/DX2                !
 ! R14   R(5,8)                  1.121          estimate D2E/DX2                !
 ! R15   R(5,17)                 1.54           estimate D2E/DX2                !
 ! R16   R(5,22)                 1.5151         estimate D2E/DX2                !
 ! R17   R(13,14)                0.96           estimate D2E/DX2                !
 ! R18   R(15,16)                0.96           estimate D2E/DX2                !
 ! R19   R(17,18)                1.07           estimate D2E/DX2                !
 ! R20   R(17,19)                1.07           estimate D2E/DX2                !
 ! R21   R(17,20)                1.43           estimate D2E/DX2                !
 ! R22   R(20,21)                0.96           estimate D2E/DX2                !
 ! A1    A(2,1,5)              111.3094         estimate D2E/DX2                !
 ! A2    A(2,1,6)              109.5772         estimate D2E/DX2                !
 ! A3    A(2,1,13)             109.4042         estimate D2E/DX2                !
 ! A4    A(5,1,6)              109.5749         estimate D2E/DX2                !
 ! A5    A(5,1,13)             109.4074         estimate D2E/DX2                !
 ! A6    A(6,1,13)             107.4863         estimate D2E/DX2                !
 ! A7    A(1,2,3)              111.3625         estimate D2E/DX2                !
 ! A8    A(1,2,9)              109.3968         estimate D2E/DX2                !
 ! A9    A(1,2,10)             109.5595         estimate D2E/DX2                !
 ! A10   A(3,2,9)              109.3908         estimate D2E/DX2                !
 ! A11   A(3,2,10)             109.5638         estimate D2E/DX2                !
 ! A12   A(9,2,10)             107.4839         estimate D2E/DX2                !
 ! A13   A(2,3,4)              111.2413         estimate D2E/DX2                !
 ! A14   A(2,3,11)             109.59           estimate D2E/DX2                !
 ! A15   A(2,3,12)             109.4252         estimate D2E/DX2                !
 ! A16   A(4,3,11)             109.586          estimate D2E/DX2                !
 ! A17   A(4,3,12)             109.4158         estimate D2E/DX2                !
 ! A18   A(11,3,12)            107.5042         estimate D2E/DX2                !
 ! A19   A(3,4,7)              109.4111         estimate D2E/DX2                !
 ! A20   A(3,4,15)             109.5868         estimate D2E/DX2                !
 ! A21   A(3,4,22)             111.2657         estimate D2E/DX2                !
 ! A22   A(7,4,15)             107.5            estimate D2E/DX2                !
 ! A23   A(7,4,22)             109.4233         estimate D2E/DX2                !
 ! A24   A(15,4,22)            109.5746         estimate D2E/DX2                !
 ! A25   A(1,5,8)              109.5686         estimate D2E/DX2                !
 ! A26   A(1,5,17)             109.4108         estimate D2E/DX2                !
 ! A27   A(1,5,22)             111.2962         estimate D2E/DX2                !
 ! A28   A(8,5,17)             107.4917         estimate D2E/DX2                !
 ! A29   A(8,5,22)             109.5728         estimate D2E/DX2                !
 ! A30   A(17,5,22)            109.42           estimate D2E/DX2                !
 ! A31   A(1,13,14)            109.5            estimate D2E/DX2                !
 ! A32   A(4,15,16)            109.5            estimate D2E/DX2                !
 ! A33   A(5,17,18)            109.4712         estimate D2E/DX2                !
 ! A34   A(5,17,19)            109.4712         estimate D2E/DX2                !
 ! A35   A(5,17,20)            109.4712         estimate D2E/DX2                !
 ! A36   A(18,17,19)           109.4712         estimate D2E/DX2                !
 ! A37   A(18,17,20)           109.4713         estimate D2E/DX2                !
 ! A38   A(19,17,20)           109.4712         estimate D2E/DX2                !
 ! A39   A(17,20,21)           109.5            estimate D2E/DX2                !
 ! A40   A(4,22,5)             111.3744         estimate D2E/DX2                !
 ! D1    D(5,1,2,3)            -55.1928         estimate D2E/DX2                !
 ! D2    D(5,1,2,9)             65.8497         estimate D2E/DX2                !
 ! D3    D(5,1,2,10)          -176.5618         estimate D2E/DX2                !
 ! D4    D(6,1,2,3)           -176.5529         estimate D2E/DX2                !
 ! D5    D(6,1,2,9)            -55.5104         estimate D2E/DX2                !
 ! D6    D(6,1,2,10)            62.0781         estimate D2E/DX2                !
 ! D7    D(13,1,2,3)            65.8411         estimate D2E/DX2                !
 ! D8    D(13,1,2,9)          -173.1163         estimate D2E/DX2                !
 ! D9    D(13,1,2,10)          -55.5279         estimate D2E/DX2                !
 ! D10   D(2,1,5,8)            176.4253         estimate D2E/DX2                !
 ! D11   D(2,1,5,17)           -65.9633         estimate D2E/DX2                !
 ! D12   D(2,1,5,22)            55.0823         estimate D2E/DX2                !
 ! D13   D(6,1,5,8)            -62.2133         estimate D2E/DX2                !
 ! D14   D(6,1,5,17)            55.3981         estimate D2E/DX2                !
 ! D15   D(6,1,5,22)           176.4437         estimate D2E/DX2                !
 ! D16   D(13,1,5,8)            55.3933         estimate D2E/DX2                !
 ! D17   D(13,1,5,17)          173.0046         estimate D2E/DX2                !
 ! D18   D(13,1,5,22)          -65.9498         estimate D2E/DX2                !
 ! D19   D(2,1,13,14)          143.9818         estimate D2E/DX2                !
 ! D20   D(5,1,13,14)          -93.8373         estimate D2E/DX2                !
 ! D21   D(6,1,13,14)           25.0718         estimate D2E/DX2                !
 ! D22   D(1,2,3,4)             55.2571         estimate D2E/DX2                !
 ! D23   D(1,2,3,11)           176.5953         estimate D2E/DX2                !
 ! D24   D(1,2,3,12)           -65.7573         estimate D2E/DX2                !
 ! D25   D(9,2,3,4)            -65.7889         estimate D2E/DX2                !
 ! D26   D(9,2,3,11)            55.5492         estimate D2E/DX2                !
 ! D27   D(9,2,3,12)           173.1966         estimate D2E/DX2                !
 ! D28   D(10,2,3,4)           176.6237         estimate D2E/DX2                !
 ! D29   D(10,2,3,11)          -62.0382         estimate D2E/DX2                !
 ! D30   D(10,2,3,12)           55.6092         estimate D2E/DX2                !
 ! D31   D(2,3,4,7)             65.7936         estimate D2E/DX2                !
 ! D32   D(2,3,4,15)          -176.5742         estimate D2E/DX2                !
 ! D33   D(2,3,4,22)           -55.2366         estimate D2E/DX2                !
 ! D34   D(11,3,4,7)           -55.5468         estimate D2E/DX2                !
 ! D35   D(11,3,4,15)           62.0853         estimate D2E/DX2                !
 ! D36   D(11,3,4,22)         -176.5771         estimate D2E/DX2                !
 ! D37   D(12,3,4,7)          -173.1864         estimate D2E/DX2                !
 ! D38   D(12,3,4,15)          -55.5543         estimate D2E/DX2                !
 ! D39   D(12,3,4,22)           65.7833         estimate D2E/DX2                !
 ! D40   D(3,4,15,16)         -151.44           estimate D2E/DX2                !
 ! D41   D(7,4,15,16)          -32.6196         estimate D2E/DX2                !
 ! D42   D(22,4,15,16)          86.2087         estimate D2E/DX2                !
 ! D43   D(3,4,22,5)            55.2381         estimate D2E/DX2                !
 ! D44   D(7,4,22,5)           -65.785          estimate D2E/DX2                !
 ! D45   D(15,4,22,5)          176.5828         estimate D2E/DX2                !
 ! D46   D(1,5,17,18)         -150.6303         estimate D2E/DX2                !
 ! D47   D(1,5,17,19)           89.3697         estimate D2E/DX2                !
 ! D48   D(1,5,17,20)          -30.6302         estimate D2E/DX2                !
 ! D49   D(8,5,17,18)          -31.7237         estimate D2E/DX2                !
 ! D50   D(8,5,17,19)         -151.7237         estimate D2E/DX2                !
 ! D51   D(8,5,17,20)           88.2763         estimate D2E/DX2                !
 ! D52   D(22,5,17,18)          87.1929         estimate D2E/DX2                !
 ! D53   D(22,5,17,19)         -32.8071         estimate D2E/DX2                !
 ! D54   D(22,5,17,20)        -152.807          estimate D2E/DX2                !
 ! D55   D(1,5,22,4)           -55.1527         estimate D2E/DX2                !
 ! D56   D(8,5,22,4)          -176.4932         estimate D2E/DX2                !
 ! D57   D(17,5,22,4)           65.8876         estimate D2E/DX2                !
 ! D58   D(5,17,20,21)        -138.7493         estimate D2E/DX2                !
 ! D59   D(18,17,20,21)        -18.7493         estimate D2E/DX2                !
 ! D60   D(19,17,20,21)        101.2507         estimate D2E/DX2                !
 --------------------------------------------------------------------------------
 Trust Radius=3.00D-01 FncErr=1.00D-07 GrdErr=1.00D-07
 Number of steps in this run=    132 maximum allowed number of steps=    132.
 GradGradGradGradGradGradGradGradGradGradGradGradGradGradGradGradGradGrad

 Leave Link  103 at Wed Nov 18 14:14:32 2015, MaxMem=   33554432 cpu:       0.0
 (Enter C:\G09W\l202.exe)
                          Input orientation:                          
 ---------------------------------------------------------------------
 Center     Atomic      Atomic             Coordinates (Angstroms)
 Number     Number       Type             X           Y           Z
 ---------------------------------------------------------------------
      1          6           0       -3.233604   -0.353607   -0.015271
      2          6           0       -1.718498   -0.353607   -0.015271
      3          6           0       -1.166567    1.057471   -0.015271
      4          6           0       -1.716230    1.862008    1.145390
      5          6           0       -3.784155    0.452048    1.143605
      6          1           0       -3.609201   -1.407827    0.048231
      7          1           0       -1.343695    1.427163    2.110001
      8          1           0       -4.902703    0.487109    1.078667
      9          9           0       -1.270151   -1.010254    1.075737
     10          9           0       -1.266536   -1.015794   -1.101429
     11          9           0        0.180697    1.016532    0.060263
     12          9           0       -1.489862    1.666026   -1.176151
     13          8           0       -3.708694    0.198404   -1.245911
     14          1           0       -4.505522   -0.262949   -1.517604
     15          8           0       -1.236519    3.206821    1.066300
     16          1           0       -1.185656    3.581331    1.948771
     17          6           0       -3.418973   -0.242228    2.468830
     18          1           0       -4.167561   -0.026869    3.202408
     19          1           0       -2.470908    0.117429    2.810472
     20          8           0       -3.346467   -1.655394    2.262420
     21          1           0       -3.750672   -2.108972    3.005714
     22          8           0       -3.231355    1.862669    1.144901
 ---------------------------------------------------------------------
                    Distance matrix (angstroms):
                    1          2          3          4          5
     1  C    0.000000
     2  C    1.515106   0.000000
     3  C    2.502755   1.515180   0.000000
     4  C    2.925493   2.501217   1.515435   0.000000
     5  C    1.514985   2.501802   2.925970   2.502859   0.000000
     6  H    1.120931   2.165680   3.471050   3.934326   2.165546
     7  H    3.355545   2.797928   2.164446   1.121761   2.800110
     8  H    2.165501   3.470254   3.934555   3.471082   1.120980
     9  F    2.340221   1.350000   2.340196   2.907529   2.909149
    10  F    2.342559   1.350000   2.342683   3.678609   3.678742
    11  F    3.679733   2.343059   1.350000   2.343216   4.148773
    12  F    2.909844   2.340690   1.350000   2.340770   3.481205
    13  O    1.430000   2.404177   2.952098   3.529279   2.404125
    14  H    1.970533   3.167448   3.892190   4.403082   2.848443
    15  O    4.223126   3.752166   2.407155   1.430000   3.753025
    16  H    4.851318   4.430024   3.198077   1.970533   4.146432
    17  C    2.493497   3.012438   3.596292   3.013078   1.540000
    18  H    3.366377   4.056862   4.531580   3.715939   2.148263
    19  H    2.964524   2.961895   3.251125   2.526974   2.148263
    20  O    2.625884   3.087525   4.159265   4.034545   2.425826
    21  H    3.531999   4.041954   5.082353   4.834092   3.166606
    22  O    2.501576   2.923459   2.501538   1.515125   1.515071
                    6          7          8          9         10
     6  H    0.000000
     7  H    4.173797   0.000000
     8  H    2.515100   3.822812   0.000000
     9  F    2.585534   2.648794   3.929063   0.000000
    10  F    2.638841   4.035750   4.498138   2.177176   0.000000
    11  F    4.498998   2.587240   5.211371   2.691469   2.752156
    12  F    3.929285   3.298062   4.256939   3.504532   2.692140
    13  O    2.065110   4.285465   2.629196   3.577345   2.731169
    14  H    2.136814   5.100309   2.731476   4.213254   3.351270
    15  O    5.287822   2.065909   4.564854   4.217220   4.746623
    16  H    5.863217   2.165966   4.914033   4.674610   5.517592
    17  C    2.693345   2.687454   2.160079   2.673576   4.240063
    18  H    3.488215   3.358837   2.305403   3.726226   5.283647
    19  H    3.354414   1.864584   3.008229   2.392236   4.247079
    20  O    2.243424   3.679197   2.900597   2.476996   4.006330
    21  H    3.042750   4.370365   3.432248   3.329411   4.922864
    22  O    3.470100   2.164334   2.165631   3.479194   4.146331
                   11         12         13         14         15
    11  F    0.000000
    12  F    2.177459   0.000000
    13  O    4.183632   2.661202   0.000000
    14  H    5.107581   3.596073   0.960000   0.000000
    15  O    2.796065   2.732548   4.528636   5.422384   0.000000
    16  H    3.465772   3.677781   5.293005   6.149452   0.960000
    17  C    4.510354   4.544094   3.751986   4.131910   4.315801
    18  H    5.465264   5.404419   4.477594   4.737981   4.859086
    19  H    3.924671   4.387911   4.241806   4.797561   3.756355
    20  O    4.942628   5.128604   3.984490   4.191765   5.433574
    21  H    5.822381   6.070409   4.837567   4.943481   6.191926
    22  O    3.678924   2.908392   2.951883   3.637402   2.406718
                   16         17         18         19         20
    16  H    0.000000
    17  C    4.458449   0.000000
    18  H    4.845871   1.070000   0.000000
    19  H    3.793813   1.070000   1.747303   0.000000
    20  O    5.673691   1.430000   2.051796   2.051796   0.000000
    21  H    6.330559   1.970533   2.132520   2.575418   0.960000
    22  O    2.790141   2.493709   2.946213   2.529480   3.693084
                   21         22
    21  H    0.000000
    22  O    4.416588   0.000000
 Stoichiometry    C6H8F4O4
 Framework group  C1[X(C6H8F4O4)]
 Deg. of freedom    60
 Full point group                 C1      NOp   1
 Largest Abelian subgroup         C1      NOp   1
 Largest concise Abelian subgroup C1      NOp   1
                         Standard orientation:                         
 ---------------------------------------------------------------------
 Center     Atomic      Atomic             Coordinates (Angstroms)
 Number     Number       Type             X           Y           Z
 ---------------------------------------------------------------------
      1          6           0        1.015594   -0.610210    0.809755
      2          6           0        0.084605   -1.011324   -0.316261
      3          6           0       -1.229270   -0.260528   -0.240051
      4          6           0       -1.004899    1.238068   -0.219800
      5          6           0        1.239058    0.888038    0.832075
      6          1           0        1.998813   -1.134811    0.689089
      7          1           0       -0.565787    1.562564   -1.199714
      8          1           0        1.877405    1.159360    1.712696
      9          9           0        0.678521   -0.756220   -1.501455
     10          9           0       -0.149666   -2.339545   -0.257556
     11          9           0       -2.000056   -0.588454   -1.298754
     12          9           0       -1.893436   -0.629977    0.875696
     13          8           0        0.457173   -1.026002    2.058828
     14          1           0        1.161938   -1.305321    2.647799
     15          8           0       -2.258766    1.908510   -0.067404
     16          1           0       -2.212380    2.773045   -0.482164
     17          6           0        1.999338    1.311091   -0.438595
     18          1           0        2.590151    2.178142   -0.228685
     19          1           0        1.298550    1.536458   -1.215130
     20          8           0        2.852286    0.243967   -0.861236
     21          1           0        3.697270    0.601697   -1.143425
     22          8           0       -0.074541    1.639253    0.906738
 ---------------------------------------------------------------------
 Rotational constants (GHZ):      0.9105147      0.6905467      0.5947969
 Leave Link  202 at Wed Nov 18 14:14:32 2015, MaxMem=   33554432 cpu:       0.0
 (Enter C:\G09W\l301.exe)
 Standard basis: VSTO-6G (5D, 7F)
 Ernie: Thresh=  0.10000D-02 Tol=  0.10000D-05 Strict=F.
  NNHCO=     0 NNPyr=     0 NCTC=     0               EPep=         0.000000000
    EC=       568.135706954  ECS=         4.422187058   EG=         0.436412843
   EHC=         0.001861602  EAt=      -139.732854878  AtH=         2.798287655
 EPDDG=         0.000000000  ECC=       572.996168457 EAtT=       142.531142533
 There are    64 symmetry adapted basis functions of A   symmetry.
 Integral buffers will be    131072 words long.
 Regular integral format.
 Two-electron integral symmetry is turned off.
    64 basis functions,   384 primitive gaussians,    64 cartesian basis functions
    42 alpha electrons       42 beta electrons
       nuclear repulsion energy       715.5273109894 Hartrees.
 IExCor=    0 DFT=F Ex=HF Corr=None ExCW=0 ScaHFX=  1.000000
 ScaDFX=  1.000000  1.000000  1.000000  1.000000 ScalE2=  1.000000  1.000000
 IRadAn=      0 IRanWt=     -1 IRanGd=            0 ICorTp=0
 Leave Link  301 at Wed Nov 18 14:14:32 2015, MaxMem=   33554432 cpu:       0.0
 (Enter C:\G09W\l302.exe)
 Do NDO integrals.
 NPDir=0 NMtPBC=     1 NCelOv=     1 NCel=       1 NClECP=     1 NCelD=      1
         NCelK=      1 NCelE2=     1 NClLst=     1 CellRange=     0.0.
 One-electron integrals computed using PRISM.
 NBasis=    64 RedAO= F  NBF=    64
 NBsUse=    64 1.00D-04 NBFU=    64
 Leave Link  302 at Wed Nov 18 14:14:32 2015, MaxMem=   33554432 cpu:       0.0
 (Enter C:\G09W\l303.exe)
 DipDrv:  MaxL=1.
 Leave Link  303 at Wed Nov 18 14:14:32 2015, MaxMem=   33554432 cpu:       0.0
 (Enter C:\G09W\l401.exe)
 Simple Huckel Guess.
 Initial guess orbital symmetries:
       Occupied  (A) (A) (A) (A) (A) (A) (A) (A) (A) (A) (A) (A)
                 (A) (A) (A) (A) (A) (A) (A) (A) (A) (A) (A) (A)
                 (A) (A) (A) (A) (A) (A) (A) (A) (A) (A) (A) (A)
                 (A) (A) (A) (A) (A) (A)
       Virtual   (A) (A) (A) (A) (A) (A) (A) (A) (A) (A) (A) (A)
                 (A) (A) (A) (A) (A) (A) (A) (A) (A) (A)
 The electronic state of the initial guess is 1-A.
 Leave Link  401 at Wed Nov 18 14:14:32 2015, MaxMem=   33554432 cpu:       0.0
 (Enter C:\G09W\l502.exe)
 Closed shell SCF:
 Requested convergence on RMS density matrix=1.00D-08 within 128 cycles.
 Requested convergence on MAX density matrix=1.00D-06.
 Requested convergence on             energy=1.00D-06.
 No special actions if energy rises.
 Using DIIS extrapolation, IDIIS=  1040.
 Overlap will be assumed to be unity.
 Two-electron integral symmetry not used.
 Keep J ints in memory in canonical form, NReq=901177.
 IEnd=       90137 IEndB=       90137 NGot=    33554432 MDV=    33474042
 LenX=    33474042 LenY=    33469505
 Symmetry not used in FoFDir.
 MinBra= 0 MaxBra= 1 Meth=40.
 IRaf=       0 NMat=   1 IRICut=       1 DoRegI=T DoRafI=F ISym2E= 0 JSym2E=0.

 Cycle   1  Pass 1  IDiag  1:
 E= 0.660003954325362    
 DIIS: error= 8.49D-02 at cycle   1 NSaved=   1.
 NSaved= 1 IEnMin= 1 EnMin= 0.660003954325362     IErMin= 1 ErrMin= 8.49D-02
 ErrMax= 8.49D-02 EMaxC= 1.00D-01 BMatC= 3.65D-01 BMatP= 3.65D-01
 IDIUse=3 WtCom= 1.51D-01 WtEn= 8.49D-01
 Coeff-Com:  0.100D+01
 Coeff-En:   0.100D+01
 Coeff:      0.100D+01
 GapD=    2.000 DampG=2.000 DampE=0.500 DampFc=1.0000 IDamp=-1.
 RMSDP=1.36D-02 MaxDP=1.25D-01              OVMax= 0.00D+00

 Cycle   2  Pass 1  IDiag  1:
 E=-0.351190220156809     Delta-E=       -1.011194174482 Rises=F Damp=F
 DIIS: error= 2.70D-02 at cycle   2 NSaved=   2.
 NSaved= 2 IEnMin= 2 EnMin=-0.351190220156809     IErMin= 2 ErrMin= 2.70D-02
 ErrMax= 2.70D-02 EMaxC= 1.00D-01 BMatC= 5.27D-02 BMatP= 3.65D-01
 IDIUse=3 WtCom= 7.30D-01 WtEn= 2.70D-01
 Coeff-Com: -0.480D+00 0.148D+01
 Coeff-En:   0.000D+00 0.100D+01
 Coeff:     -0.350D+00 0.135D+01
 RMSDP=7.75D-03 MaxDP=9.40D-02 DE=-1.01D+00 OVMax= 0.00D+00

 Cycle   3  Pass 1  IDiag  1:
 E=-0.536225589282822     Delta-E=       -0.185035369126 Rises=F Damp=F
 DIIS: error= 6.78D-03 at cycle   3 NSaved=   3.
 NSaved= 3 IEnMin= 3 EnMin=-0.536225589282822     IErMin= 3 ErrMin= 6.78D-03
 ErrMax= 6.78D-03 EMaxC= 1.00D-01 BMatC= 3.26D-03 BMatP= 5.27D-02
 IDIUse=3 WtCom= 9.32D-01 WtEn= 6.78D-02
 Coeff-Com:  0.148D+00-0.557D+00 0.141D+01
 Coeff-En:   0.000D+00 0.000D+00 0.100D+01
 Coeff:      0.138D+00-0.520D+00 0.138D+01
 RMSDP=2.58D-03 MaxDP=3.24D-02 DE=-1.85D-01 OVMax= 0.00D+00

 Cycle   4  Pass 1  IDiag  3:
 E=-0.553797229337420     Delta-E=       -0.017571640055 Rises=F Damp=F
 DIIS: error= 2.35D-03 at cycle   4 NSaved=   4.
 NSaved= 4 IEnMin= 4 EnMin=-0.553797229337420     IErMin= 4 ErrMin= 2.35D-03
 ErrMax= 2.35D-03 EMaxC= 1.00D-01 BMatC= 4.33D-04 BMatP= 3.26D-03
 IDIUse=3 WtCom= 9.76D-01 WtEn= 2.35D-02
 Coeff-Com:  0.215D-01-0.674D-01-0.333D+00 0.138D+01
 Coeff-En:   0.000D+00 0.000D+00 0.000D+00 0.100D+01
 Coeff:      0.210D-01-0.659D-01-0.325D+00 0.137D+01
 Gap=     0.400 Goal=   None    Shift=    0.000
 RMSDP=1.30D-03 MaxDP=1.69D-02 DE=-1.76D-02 OVMax= 0.00D+00

 Cycle   5  Pass 1  IDiag  3:
 E=-0.556633438488689     Delta-E=       -0.002836209151 Rises=F Damp=F
 DIIS: error= 4.90D-04 at cycle   5 NSaved=   5.
 NSaved= 5 IEnMin= 5 EnMin=-0.556633438488689     IErMin= 5 ErrMin= 4.90D-04
 ErrMax= 4.90D-04 EMaxC= 1.00D-01 BMatC= 2.13D-05 BMatP= 4.33D-04
 IDIUse=3 WtCom= 9.95D-01 WtEn= 4.90D-03
 Coeff-Com: -0.605D-02 0.227D-01 0.710D-01-0.504D+00 0.142D+01
 Coeff-En:   0.000D+00 0.000D+00 0.000D+00 0.000D+00 0.100D+01
 Coeff:     -0.602D-02 0.226D-01 0.707D-01-0.501D+00 0.141D+01
 Gap=     0.401 Goal=   None    Shift=    0.000
 RMSDP=3.11D-04 MaxDP=3.97D-03 DE=-2.84D-03 OVMax= 0.00D+00

 Cycle   6  Pass 1  IDiag  3:
 E=-0.556775137319505     Delta-E=       -0.000141698831 Rises=F Damp=F
 DIIS: error= 8.23D-05 at cycle   6 NSaved=   6.
 NSaved= 6 IEnMin= 6 EnMin=-0.556775137319505     IErMin= 6 ErrMin= 8.23D-05
 ErrMax= 8.23D-05 EMaxC= 1.00D-01 BMatC= 1.11D-06 BMatP= 2.13D-05
 IDIUse=1 WtCom= 1.00D+00 WtEn= 0.00D+00
 Coeff-Com:  0.170D-02-0.587D-02-0.340D-01 0.222D+00-0.740D+00 0.156D+01
 Coeff:      0.170D-02-0.587D-02-0.340D-01 0.222D+00-0.740D+00 0.156D+01
 Gap=     0.401 Goal=   None    Shift=    0.000
 RMSDP=6.78D-05 MaxDP=7.47D-04 DE=-1.42D-04 OVMax= 0.00D+00

 Cycle   7  Pass 1  IDiag  3:
 E=-0.556782166629091     Delta-E=       -0.000007029310 Rises=F Damp=F
 DIIS: error= 2.46D-05 at cycle   7 NSaved=   7.
 NSaved= 7 IEnMin= 7 EnMin=-0.556782166629091     IErMin= 7 ErrMin= 2.46D-05
 ErrMax= 2.46D-05 EMaxC= 1.00D-01 BMatC= 5.74D-08 BMatP= 1.11D-06
 IDIUse=1 WtCom= 1.00D+00 WtEn= 0.00D+00
 Coeff-Com: -0.325D-04-0.135D-03 0.134D-01-0.691D-01 0.233D+00-0.618D+00
 Coeff-Com:  0.144D+01
 Coeff:     -0.325D-04-0.135D-03 0.134D-01-0.691D-01 0.233D+00-0.618D+00
 Coeff:      0.144D+01
 Gap=     0.401 Goal=   None    Shift=    0.000
 RMSDP=1.43D-05 MaxDP=1.73D-04 DE=-7.03D-06 OVMax= 0.00D+00

 Cycle   8  Pass 1  IDiag  3:
 E=-0.556782543897043     Delta-E=       -0.000000377268 Rises=F Damp=F
 DIIS: error= 9.23D-06 at cycle   8 NSaved=   8.
 NSaved= 8 IEnMin= 8 EnMin=-0.556782543897043     IErMin= 8 ErrMin= 9.23D-06
 ErrMax= 9.23D-06 EMaxC= 1.00D-01 BMatC= 7.50D-09 BMatP= 5.74D-08
 IDIUse=1 WtCom= 1.00D+00 WtEn= 0.00D+00
 Coeff-Com: -0.967D-04 0.505D-03-0.632D-02 0.295D-01-0.101D+00 0.305D+00
 Coeff-Com: -0.103D+01 0.180D+01
 Coeff:     -0.967D-04 0.505D-03-0.632D-02 0.295D-01-0.101D+00 0.305D+00
 Coeff:     -0.103D+01 0.180D+01
 Gap=     0.401 Goal=   None    Shift=    0.000
 RMSDP=6.40D-06 MaxDP=8.86D-05 DE=-3.77D-07 OVMax= 0.00D+00

 Cycle   9  Pass 1  IDiag  3:
 E=-0.556782601315945     Delta-E=       -0.000000057419 Rises=F Damp=F
 DIIS: error= 2.33D-06 at cycle   9 NSaved=   9.
 NSaved= 9 IEnMin= 9 EnMin=-0.556782601315945     IErMin= 9 ErrMin= 2.33D-06
 ErrMax= 2.33D-06 EMaxC= 1.00D-01 BMatC= 5.53D-10 BMatP= 7.50D-09
 IDIUse=1 WtCom= 1.00D+00 WtEn= 0.00D+00
 Coeff-Com:  0.209D-04-0.144D-03 0.246D-02-0.120D-01 0.430D-01-0.136D+00
 Coeff-Com:  0.497D+00-0.108D+01 0.168D+01
 Coeff:      0.209D-04-0.144D-03 0.246D-02-0.120D-01 0.430D-01-0.136D+00
 Coeff:      0.497D+00-0.108D+01 0.168D+01
 Gap=     0.401 Goal=   None    Shift=    0.000
 RMSDP=1.75D-06 MaxDP=2.24D-05 DE=-5.74D-08 OVMax= 0.00D+00

 Cycle  10  Pass 1  IDiag  3:
 E=-0.556782605300100     Delta-E=       -0.000000003984 Rises=F Damp=F
 DIIS: error= 6.35D-07 at cycle  10 NSaved=  10.
 NSaved=10 IEnMin=10 EnMin=-0.556782605300100     IErMin=10 ErrMin= 6.35D-07
 ErrMax= 6.35D-07 EMaxC= 1.00D-01 BMatC= 2.65D-11 BMatP= 5.53D-10
 IDIUse=1 WtCom= 1.00D+00 WtEn= 0.00D+00
 Coeff-Com: -0.128D-05 0.246D-04-0.650D-03 0.330D-02-0.125D-01 0.411D-01
 Coeff-Com: -0.156D+00 0.364D+00-0.730D+00 0.149D+01
 Coeff:     -0.128D-05 0.246D-04-0.650D-03 0.330D-02-0.125D-01 0.411D-01
 Coeff:     -0.156D+00 0.364D+00-0.730D+00 0.149D+01
 Gap=     0.401 Goal=   None    Shift=    0.000
 RMSDP=3.35D-07 MaxDP=3.54D-06 DE=-3.98D-09 OVMax= 0.00D+00

 Cycle  11  Pass 1  IDiag  3:
 E=-0.556782605473359     Delta-E=       -0.000000000173 Rises=F Damp=F
 DIIS: error= 2.32D-07 at cycle  11 NSaved=  11.
 NSaved=11 IEnMin=11 EnMin=-0.556782605473359     IErMin=11 ErrMin= 2.32D-07
 ErrMax= 2.32D-07 EMaxC= 1.00D-01 BMatC= 2.30D-12 BMatP= 2.65D-11
 IDIUse=1 WtCom= 1.00D+00 WtEn= 0.00D+00
 Coeff-Com: -0.278D-06-0.658D-05 0.227D-03-0.117D-02 0.462D-02-0.156D-01
 Coeff-Com:  0.601D-01-0.144D+00 0.313D+00-0.845D+00 0.163D+01
 Coeff:     -0.278D-06-0.658D-05 0.227D-03-0.117D-02 0.462D-02-0.156D-01
 Coeff:      0.601D-01-0.144D+00 0.313D+00-0.845D+00 0.163D+01
 Gap=     0.401 Goal=   None    Shift=    0.000
 RMSDP=1.01D-07 MaxDP=1.25D-06 DE=-1.73D-10 OVMax= 0.00D+00

 Cycle  12  Pass 1  IDiag  3:
 E=-0.556782605493595     Delta-E=       -0.000000000020 Rises=F Damp=F
 DIIS: error= 7.98D-08 at cycle  12 NSaved=  12.
 NSaved=12 IEnMin=12 EnMin=-0.556782605493595     IErMin=12 ErrMin= 7.98D-08
 ErrMax= 7.98D-08 EMaxC= 1.00D-01 BMatC= 2.28D-13 BMatP= 2.30D-12
 IDIUse=1 WtCom= 1.00D+00 WtEn= 0.00D+00
 Coeff-Com: -0.125D-06 0.353D-05-0.837D-04 0.422D-03-0.175D-02 0.616D-02
 Coeff-Com: -0.240D-01 0.585D-01-0.131D+00 0.387D+00-0.998D+00 0.170D+01
 Coeff:     -0.125D-06 0.353D-05-0.837D-04 0.422D-03-0.175D-02 0.616D-02
 Coeff:     -0.240D-01 0.585D-01-0.131D+00 0.387D+00-0.998D+00 0.170D+01
 Gap=     0.401 Goal=   None    Shift=    0.000
 RMSDP=3.61D-08 MaxDP=4.82D-07 DE=-2.02D-11 OVMax= 0.00D+00

 Cycle  13  Pass 1  IDiag  3:
 E=-0.556782605493254     Delta-E=        0.000000000000 Rises=F Damp=F
 DIIS: error= 2.31D-08 at cycle  13 NSaved=  13.
 NSaved=13 IEnMin=12 EnMin=-0.556782605493595     IErMin=13 ErrMin= 2.31D-08
 ErrMax= 2.31D-08 EMaxC= 1.00D-01 BMatC= 1.97D-14 BMatP= 2.28D-13
 IDIUse=1 WtCom= 1.00D+00 WtEn= 0.00D+00
 Coeff-Com:  0.139D-06-0.164D-05 0.260D-04-0.128D-03 0.564D-03-0.210D-02
 Coeff-Com:  0.831D-02-0.207D-01 0.475D-01-0.147D+00 0.433D+00-0.993D+00
 Coeff-Com:  0.167D+01
 Coeff:      0.139D-06-0.164D-05 0.260D-04-0.128D-03 0.564D-03-0.210D-02
 Coeff:      0.831D-02-0.207D-01 0.475D-01-0.147D+00 0.433D+00-0.993D+00
 Coeff:      0.167D+01
 Gap=     0.401 Goal=   None    Shift=    0.000
 RMSDP=1.07D-08 MaxDP=1.53D-07 DE= 3.41D-13 OVMax= 0.00D+00

 Cycle  14  Pass 1  IDiag  3:
 E=-0.556782605488024     Delta-E=        0.000000000005 Rises=F Damp=F
 DIIS: error= 6.39D-09 at cycle  14 NSaved=  14.
 NSaved=14 IEnMin=12 EnMin=-0.556782605493595     IErMin=14 ErrMin= 6.39D-09
 ErrMax= 6.39D-09 EMaxC= 1.00D-01 BMatC= 1.53D-15 BMatP= 1.97D-14
 IDIUse=1 WtCom= 1.00D+00 WtEn= 0.00D+00
 Coeff-Com: -0.330D-07 0.448D-06-0.568D-05 0.277D-04-0.136D-03 0.541D-03
 Coeff-Com: -0.218D-02 0.555D-02-0.133D-01 0.438D-01-0.141D+00 0.366D+00
 Coeff-Com: -0.832D+00 0.157D+01
 Coeff:     -0.330D-07 0.448D-06-0.568D-05 0.277D-04-0.136D-03 0.541D-03
 Coeff:     -0.218D-02 0.555D-02-0.133D-01 0.438D-01-0.141D+00 0.366D+00
 Coeff:     -0.832D+00 0.157D+01
 Gap=     0.401 Goal=   None    Shift=    0.000
 RMSDP=2.72D-09 MaxDP=4.11D-08 DE= 5.23D-12 OVMax= 0.00D+00

 Cycle  15  Pass 2  IDiag  1:
 RMSDP=2.72D-09 MaxDP=4.11D-08 DE= 5.23D-12 OVMax= 0.00D+00

 SCF Done:  E(RPM6) = -0.556782605488     A.U. after   15 cycles
             Convg  =    0.2717D-08             -V/T =  0.9912
 KE=-6.361270797022D+01 PE=-1.303823564911D+03 EE= 6.513521792859D+02
 Leave Link  502 at Wed Nov 18 14:14:32 2015, MaxMem=   33554432 cpu:       0.0
 (Enter C:\G09W\l601.exe)
 Copying SCF densities to generalized density rwf, IOpCl= 0 IROHF=0.

 **********************************************************************

            Population analysis using the SCF density.

 **********************************************************************

 Orbital symmetries:
       Occupied  (A) (A) (A) (A) (A) (A) (A) (A) (A) (A) (A) (A)
                 (A) (A) (A) (A) (A) (A) (A) (A) (A) (A) (A) (A)
                 (A) (A) (A) (A) (A) (A) (A) (A) (A) (A) (A) (A)
                 (A) (A) (A) (A) (A) (A)
       Virtual   (A) (A) (A) (A) (A) (A) (A) (A) (A) (A) (A) (A)
                 (A) (A) (A) (A) (A) (A) (A) (A) (A) (A)
 The electronic state is 1-A.
 Alpha  occ. eigenvalues --   -1.56570  -1.55871  -1.55616  -1.54961  -1.16526
 Alpha  occ. eigenvalues --   -1.14114  -1.13569  -1.09977  -1.02885  -1.01302
 Alpha  occ. eigenvalues --   -0.94564  -0.87308  -0.84143  -0.76367  -0.73548
 Alpha  occ. eigenvalues --   -0.72483  -0.69939  -0.69603  -0.67813  -0.67156
 Alpha  occ. eigenvalues --   -0.65635  -0.65050  -0.62572  -0.62275  -0.61563
 Alpha  occ. eigenvalues --   -0.61286  -0.60497  -0.59134  -0.58194  -0.57058
 Alpha  occ. eigenvalues --   -0.56642  -0.55542  -0.53058  -0.51111  -0.50382
 Alpha  occ. eigenvalues --   -0.50109  -0.48795  -0.46085  -0.43522  -0.43028
 Alpha  occ. eigenvalues --   -0.41632  -0.39113
 Alpha virt. eigenvalues --    0.00938   0.04322   0.04600   0.05461   0.06140
 Alpha virt. eigenvalues --    0.06617   0.07082   0.07579   0.08698   0.09253
 Alpha virt. eigenvalues --    0.09686   0.10418   0.10770   0.11146   0.13536
 Alpha virt. eigenvalues --    0.15506   0.15971   0.16749   0.18023   0.18305
 Alpha virt. eigenvalues --    0.18430   0.18989
          Condensed to atoms (all electrons):
              1          2          3          4          5          6
     1  C    3.977215   0.000000   0.000000   0.000000   0.000000   0.000000
     2  C    0.000000   3.733118   0.000000   0.000000   0.000000   0.000000
     3  C    0.000000   0.000000   3.795311   0.000000   0.000000   0.000000
     4  C    0.000000   0.000000   0.000000   3.711654   0.000000   0.000000
     5  C    0.000000   0.000000   0.000000   0.000000   3.916432   0.000000
     6  H    0.000000   0.000000   0.000000   0.000000   0.000000   0.826070
     7  H    0.000000   0.000000   0.000000   0.000000   0.000000   0.000000
     8  H    0.000000   0.000000   0.000000   0.000000   0.000000   0.000000
     9  F    0.000000   0.000000   0.000000   0.000000   0.000000   0.000000
    10  F    0.000000   0.000000   0.000000   0.000000   0.000000   0.000000
    11  F    0.000000   0.000000   0.000000   0.000000   0.000000   0.000000
    12  F    0.000000   0.000000   0.000000   0.000000   0.000000   0.000000
    13  O    0.000000   0.000000   0.000000   0.000000   0.000000   0.000000
    14  H    0.000000   0.000000   0.000000   0.000000   0.000000   0.000000
    15  O    0.000000   0.000000   0.000000   0.000000   0.000000   0.000000
    16  H    0.000000   0.000000   0.000000   0.000000   0.000000   0.000000
    17  C    0.000000   0.000000   0.000000   0.000000   0.000000   0.000000
    18  H    0.000000   0.000000   0.000000   0.000000   0.000000   0.000000
    19  H    0.000000   0.000000   0.000000   0.000000   0.000000   0.000000
    20  O    0.000000   0.000000   0.000000   0.000000   0.000000   0.000000
    21  H    0.000000   0.000000   0.000000   0.000000   0.000000   0.000000
    22  O    0.000000   0.000000   0.000000   0.000000   0.000000   0.000000
              7          8          9         10         11         12
     1  C    0.000000   0.000000   0.000000   0.000000   0.000000   0.000000
     2  C    0.000000   0.000000   0.000000   0.000000   0.000000   0.000000
     3  C    0.000000   0.000000   0.000000   0.000000   0.000000   0.000000
     4  C    0.000000   0.000000   0.000000   0.000000   0.000000   0.000000
     5  C    0.000000   0.000000   0.000000   0.000000   0.000000   0.000000
     6  H    0.000000   0.000000   0.000000   0.000000   0.000000   0.000000
     7  H    0.881150   0.000000   0.000000   0.000000   0.000000   0.000000
     8  H    0.000000   0.834239   0.000000   0.000000   0.000000   0.000000
     9  F    0.000000   0.000000   7.149463   0.000000   0.000000   0.000000
    10  F    0.000000   0.000000   0.000000   7.131515   0.000000   0.000000
    11  F    0.000000   0.000000   0.000000   0.000000   7.140750   0.000000
    12  F    0.000000   0.000000   0.000000   0.000000   0.000000   7.094091
    13  O    0.000000   0.000000   0.000000   0.000000   0.000000   0.000000
    14  H    0.000000   0.000000   0.000000   0.000000   0.000000   0.000000
    15  O    0.000000   0.000000   0.000000   0.000000   0.000000   0.000000
    16  H    0.000000   0.000000   0.000000   0.000000   0.000000   0.000000
    17  C    0.000000   0.000000   0.000000   0.000000   0.000000   0.000000
    18  H    0.000000   0.000000   0.000000   0.000000   0.000000   0.000000
    19  H    0.000000   0.000000   0.000000   0.000000   0.000000   0.000000
    20  O    0.000000   0.000000   0.000000   0.000000   0.000000   0.000000
    21  H    0.000000   0.000000   0.000000   0.000000   0.000000   0.000000
    22  O    0.000000   0.000000   0.000000   0.000000   0.000000   0.000000
             13         14         15         16         17         18
     1  C    0.000000   0.000000   0.000000   0.000000   0.000000   0.000000
     2  C    0.000000   0.000000   0.000000   0.000000   0.000000   0.000000
     3  C    0.000000   0.000000   0.000000   0.000000   0.000000   0.000000
     4  C    0.000000   0.000000   0.000000   0.000000   0.000000   0.000000
     5  C    0.000000   0.000000   0.000000   0.000000   0.000000   0.000000
     6  H    0.000000   0.000000   0.000000   0.000000   0.000000   0.000000
     7  H    0.000000   0.000000   0.000000   0.000000   0.000000   0.000000
     8  H    0.000000   0.000000   0.000000   0.000000   0.000000   0.000000
     9  F    0.000000   0.000000   0.000000   0.000000   0.000000   0.000000
    10  F    0.000000   0.000000   0.000000   0.000000   0.000000   0.000000
    11  F    0.000000   0.000000   0.000000   0.000000   0.000000   0.000000
    12  F    0.000000   0.000000   0.000000   0.000000   0.000000   0.000000
    13  O    6.497188   0.000000   0.000000   0.000000   0.000000   0.000000
    14  H    0.000000   0.685656   0.000000   0.000000   0.000000   0.000000
    15  O    0.000000   0.000000   6.469936   0.000000   0.000000   0.000000
    16  H    0.000000   0.000000   0.000000   0.684715   0.000000   0.000000
    17  C    0.000000   0.000000   0.000000   0.000000   4.077518   0.000000
    18  H    0.000000   0.000000   0.000000   0.000000   0.000000   0.871084
    19  H    0.000000   0.000000   0.000000   0.000000   0.000000   0.000000
    20  O    0.000000   0.000000   0.000000   0.000000   0.000000   0.000000
    21  H    0.000000   0.000000   0.000000   0.000000   0.000000   0.000000
    22  O    0.000000   0.000000   0.000000   0.000000   0.000000   0.000000
             19         20         21         22
     1  C    0.000000   0.000000   0.000000   0.000000
     2  C    0.000000   0.000000   0.000000   0.000000
     3  C    0.000000   0.000000   0.000000   0.000000
     4  C    0.000000   0.000000   0.000000   0.000000
     5  C    0.000000   0.000000   0.000000   0.000000
     6  H    0.000000   0.000000   0.000000   0.000000
     7  H    0.000000   0.000000   0.000000   0.000000
     8  H    0.000000   0.000000   0.000000   0.000000
     9  F    0.000000   0.000000   0.000000   0.000000
    10  F    0.000000   0.000000   0.000000   0.000000
    11  F    0.000000   0.000000   0.000000   0.000000
    12  F    0.000000   0.000000   0.000000   0.000000
    13  O    0.000000   0.000000   0.000000   0.000000
    14  H    0.000000   0.000000   0.000000   0.000000
    15  O    0.000000   0.000000   0.000000   0.000000
    16  H    0.000000   0.000000   0.000000   0.000000
    17  C    0.000000   0.000000   0.000000   0.000000
    18  H    0.000000   0.000000   0.000000   0.000000
    19  H    0.859933   0.000000   0.000000   0.000000
    20  O    0.000000   6.535079   0.000000   0.000000
    21  H    0.000000   0.000000   0.682850   0.000000
    22  O    0.000000   0.000000   0.000000   6.445035
 Mulliken atomic charges:
              1
     1  C    0.022785
     2  C    0.266882
     3  C    0.204689
     4  C    0.288346
     5  C    0.083568
     6  H    0.173930
     7  H    0.118850
     8  H    0.165761
     9  F   -0.149463
    10  F   -0.131515
    11  F   -0.140750
    12  F   -0.094091
    13  O   -0.497188
    14  H    0.314344
    15  O   -0.469936
    16  H    0.315285
    17  C   -0.077518
    18  H    0.128916
    19  H    0.140067
    20  O   -0.535079
    21  H    0.317150
    22  O   -0.445035
 Sum of Mulliken atomic charges =   0.00000
 Mulliken charges with hydrogens summed into heavy atoms:
              1
     1  C    0.196715
     2  C    0.266882
     3  C    0.204689
     4  C    0.407196
     5  C    0.249329
     9  F   -0.149463
    10  F   -0.131515
    11  F   -0.140750
    12  F   -0.094091
    13  O   -0.182843
    15  O   -0.154651
    17  C    0.191465
    20  O   -0.217929
    22  O   -0.445035
 Sum of Mulliken charges with hydrogens summed into heavy atoms =   0.00000
 Charge=              0.0000 electrons
 Dipole moment (field-independent basis, Debye):
    X=              5.4890    Y=              3.1471    Z=             -1.3095  Tot=              6.4613
 N-N= 7.155273109894D+02 E-N=-1.303823564907D+03  KE=-6.361270797022D+01
 Leave Link  601 at Wed Nov 18 14:14:32 2015, MaxMem=   33554432 cpu:       0.0
 (Enter C:\G09W\l701.exe)
 Compute integral first derivatives.
 ... and contract with generalized density number  0.
 Leave Link  701 at Wed Nov 18 14:14:32 2015, MaxMem=   33554432 cpu:       0.0
 (Enter C:\G09W\l702.exe)
 L702 exits ... SP integral derivatives will be done elsewhere.
 Leave Link  702 at Wed Nov 18 14:14:32 2015, MaxMem=   33554432 cpu:       0.0
 (Enter C:\G09W\l703.exe)
 Compute integral first derivatives, UseDBF=F ICtDFT=           0.
 Integral derivatives from FoFDir, PRISM(SPDF).
 Calling FoFJK, ICntrl=      2127 FMM=F ISym2X=0 I1Cent= 0 IOpClX= 0 NMat=1 NMatS=1 NMatT=0.
 FoFCou: FMM=F IPFlag=           0 FMFlag=      100000 FMFlg1=         800
         NFxFlg=           0 DoJE=F BraDBF=F KetDBF=F FulRan=T
         Omega=  0.000000  0.000000  1.000000  0.000000  0.000000 ICntrl=    2127 IOpCl=  0
         NMat0=    1 NMatS0=    1 NMatT0=    0 NMatD0=    1 NMtDS0=    0 NMtDT0=    0
         I1Cent=           0 NGrid=           0.
 Symmetry not used in FoFCou.
 Leave Link  703 at Wed Nov 18 14:14:32 2015, MaxMem=   33554432 cpu:       0.0
 (Enter C:\G09W\l716.exe)
 Dipole        = 2.15955657D+00 1.23818230D+00-5.15192799D-01
 ***** Axes restored to original set *****
 -------------------------------------------------------------------
 Center     Atomic                   Forces (Hartrees/Bohr)
 Number     Number              X              Y              Z
 -------------------------------------------------------------------
      1        6          -0.022789247   -0.014171592   -0.011118915
      2        6           0.000499619   -0.010448246   -0.015303926
      3        6           0.003964069    0.020462627   -0.014420986
      4        6          -0.018080641    0.018205929    0.028847339
      5        6           0.008664032    0.028550240    0.007075134
      6        1          -0.001527547   -0.005409787    0.002357704
      7        1          -0.008826894    0.001122554    0.002271111
      8        1           0.006623526    0.017219599   -0.003762668
      9        9           0.008784507   -0.012981693   -0.008447181
     10        9           0.004528957   -0.009549884    0.007763809
     11        9           0.003344266    0.008047204   -0.008565466
     12        9           0.012445136    0.000368938   -0.001380121
     13        8           0.013732713    0.006746482    0.001627581
     14        1          -0.007914602   -0.004321564   -0.004730565
     15        8          -0.018468834   -0.026240419   -0.016020970
     16        1          -0.002560160    0.006956232    0.010214881
     17        6          -0.009492513    0.006343407   -0.002018858
     18        1          -0.011811594    0.004758227    0.015211298
     19        1           0.017880828    0.002707502    0.011349317
     20        8           0.005183553    0.001573112   -0.010788401
     21        1          -0.003401079   -0.006438257    0.006084967
     22        8           0.019221907   -0.033500610    0.003754916
 -------------------------------------------------------------------
 Cartesian Forces:  Max     0.033500610 RMS     0.012335860
 Leave Link  716 at Wed Nov 18 14:14:32 2015, MaxMem=   33554432 cpu:       0.0
 (Enter C:\G09W\l103.exe)

 GradGradGradGradGradGradGradGradGradGradGradGradGradGradGradGradGradGrad
 Berny optimization.
 Internal  Forces:  Max     0.043192628 RMS     0.010145818
 Search for a local minimum.
 Step number   1 out of a maximum of  132
 All quantities printed in internal units (Hartrees-Bohrs-Radians)
 RMS Force = .10146D-01 SwitMx=.10000D-02 MixMth= 1
 Mixed Optimization -- RFO/linear search
 Second derivative matrix not updated -- first step.
 ITU=  0
     Eigenvalues ---    0.00237   0.00759   0.00773   0.00936   0.01295
     Eigenvalues ---    0.01295   0.01295   0.03166   0.03598   0.04949
     Eigenvalues ---    0.04994   0.05139   0.05155   0.05816   0.05943
     Eigenvalues ---    0.06119   0.06439   0.06765   0.07152   0.07565
     Eigenvalues ---    0.08450   0.09034   0.10348   0.11239   0.11534
     Eigenvalues ---    0.12613   0.12646   0.13704   0.14357   0.16000
     Eigenvalues ---    0.16000   0.16000   0.17251   0.18534   0.19102
     Eigenvalues ---    0.19911   0.22071   0.22436   0.28519   0.28623
     Eigenvalues ---    0.29608   0.29778   0.30833   0.30841   0.30842
     Eigenvalues ---    0.31386   0.31465   0.31470   0.37230   0.37230
     Eigenvalues ---    0.40989   0.40989   0.40989   0.55021   0.55021
     Eigenvalues ---    0.55021   0.55021   0.55473   0.55473   0.55473
 RFO step:  Lambda=-4.76237745D-02 EMin= 2.36824035D-03
 Linear search not attempted -- first point.
 Maximum step size (   0.300) exceeded in Quadratic search.
    -- Step size scaled by   0.839
 Iteration  1 RMS(Cart)=  0.09004089 RMS(Int)=  0.00254119
 Iteration  2 RMS(Cart)=  0.00432748 RMS(Int)=  0.00053073
 Iteration  3 RMS(Cart)=  0.00000556 RMS(Int)=  0.00053072
 Iteration  4 RMS(Cart)=  0.00000000 RMS(Int)=  0.00053072
 Variable       Old X    -DE/DX   Delta X   Delta X   Delta X     New X
                                 (Linear)    (Quad)   (Total)
    R1        2.86314   0.02407   0.00000   0.05888   0.05872   2.92186
    R2        2.86291   0.02895   0.00000   0.07020   0.07022   2.93313
    R3        2.11825   0.00573   0.00000   0.01328   0.01328   2.13153
    R4        2.70231   0.00167   0.00000   0.00307   0.00307   2.70538
    R5        2.86327   0.03566   0.00000   0.08690   0.08700   2.95027
    R6        2.55113   0.00241   0.00000   0.00338   0.00338   2.55451
    R7        2.55113  -0.00005   0.00000  -0.00006  -0.00006   2.55107
    R8        2.86376   0.02779   0.00000   0.06359   0.06356   2.92732
    R9        2.55113   0.00261   0.00000   0.00367   0.00367   2.55480
   R10        2.55113  -0.00163   0.00000  -0.00228  -0.00228   2.54885
   R11        2.11982  -0.00141   0.00000  -0.00328  -0.00328   2.11654
   R12        2.70231  -0.02487   0.00000  -0.04562  -0.04562   2.65668
   R13        2.86317  -0.03844   0.00000  -0.09275  -0.09259   2.77058
   R14        2.11834  -0.00585   0.00000  -0.01356  -0.01356   2.10478
   R15        2.91018   0.01265   0.00000   0.03190   0.03190   2.94208
   R16        2.86307  -0.04319   0.00000  -0.10462  -0.10471   2.75836
   R17        1.81414   0.00999   0.00000   0.01391   0.01391   1.82805
   R18        1.81414   0.01197   0.00000   0.01668   0.01668   1.83081
   R19        2.02201   0.01965   0.00000   0.03928   0.03928   2.06128
   R20        2.02201   0.02038   0.00000   0.04073   0.04073   2.06274
   R21        2.70231   0.00558   0.00000   0.01023   0.01023   2.71254
   R22        1.81414   0.00919   0.00000   0.01280   0.01280   1.82694
    A1        1.94271   0.00251   0.00000   0.01608   0.01589   1.95861
    A2        1.91248   0.00291   0.00000   0.02327   0.02328   1.93576
    A3        1.90946  -0.00960   0.00000  -0.05815  -0.05876   1.85070
    A4        1.91244  -0.00034   0.00000   0.01206   0.01101   1.92346
    A5        1.90952   0.00184   0.00000  -0.00817  -0.00815   1.90137
    A6        1.87599   0.00267   0.00000   0.01467   0.01515   1.89114
    A7        1.94364  -0.01872   0.00000  -0.03762  -0.03801   1.90563
    A8        1.90933   0.00718   0.00000   0.02206   0.02259   1.93192
    A9        1.91217   0.00762   0.00000   0.02180   0.02217   1.93435
   A10        1.90923   0.00738   0.00000   0.02181   0.02258   1.93181
   A11        1.91225   0.00988   0.00000   0.03389   0.03390   1.94615
   A12        1.87595  -0.01313   0.00000  -0.06283  -0.06298   1.81296
   A13        1.94153  -0.00789   0.00000  -0.01354  -0.01239   1.92913
   A14        1.91271   0.00709   0.00000   0.03096   0.03086   1.94357
   A15        1.90983   0.00349   0.00000   0.01008   0.00949   1.91932
   A16        1.91264   0.00353   0.00000   0.01248   0.01191   1.92454
   A17        1.90967   0.00295   0.00000   0.00873   0.00855   1.91821
   A18        1.87630  -0.00921   0.00000  -0.04996  -0.04970   1.82660
   A19        1.90958   0.00899   0.00000   0.06024   0.05976   1.96935
   A20        1.91265  -0.00336   0.00000  -0.01582  -0.01758   1.89507
   A21        1.94195   0.00404   0.00000   0.00154   0.00107   1.94302
   A22        1.87623   0.00544   0.00000   0.03908   0.03845   1.91468
   A23        1.90980  -0.00321   0.00000  -0.01436  -0.01498   1.89481
   A24        1.91244  -0.01183   0.00000  -0.06918  -0.06983   1.84261
   A25        1.91233  -0.00169   0.00000  -0.00405  -0.00562   1.90671
   A26        1.90958   0.01307   0.00000   0.07240   0.07171   1.98129
   A27        1.94248   0.00045   0.00000   0.00517   0.00538   1.94786
   A28        1.87608  -0.00021   0.00000   0.00718   0.00610   1.88219
   A29        1.91241  -0.00606   0.00000  -0.06626  -0.06620   1.84621
   A30        1.90974  -0.00556   0.00000  -0.01417  -0.01611   1.89363
   A31        1.91114   0.00327   0.00000   0.01322   0.01322   1.92436
   A32        1.91114   0.00216   0.00000   0.00874   0.00874   1.91987
   A33        1.91063   0.00314   0.00000   0.01344   0.01332   1.92395
   A34        1.91063   0.00873   0.00000   0.03564   0.03538   1.94601
   A35        1.91063  -0.01163   0.00000  -0.03664  -0.03644   1.87419
   A36        1.91063  -0.00390   0.00000  -0.01272  -0.01310   1.89753
   A37        1.91063   0.00465   0.00000   0.01542   0.01558   1.92621
   A38        1.91063  -0.00098   0.00000  -0.01514  -0.01475   1.89588
   A39        1.91114   0.00432   0.00000   0.01747   0.01747   1.92861
   A40        1.94385   0.01762   0.00000   0.03528   0.03423   1.97808
    D1       -0.96330   0.00439   0.00000   0.05316   0.05252  -0.91077
    D2        1.14929   0.00634   0.00000   0.07093   0.07073   1.22003
    D3       -3.08159  -0.00093   0.00000   0.02046   0.02043  -3.06116
    D4       -3.08143   0.00122   0.00000   0.01181   0.01091  -3.07052
    D5       -0.96884   0.00317   0.00000   0.02958   0.02912  -0.93972
    D6        1.08347  -0.00409   0.00000  -0.02089  -0.02118   1.06229
    D7        1.14914   0.00191   0.00000   0.01451   0.01409   1.16323
    D8       -3.02145   0.00386   0.00000   0.03227   0.03230  -2.98915
    D9       -0.96914  -0.00340   0.00000  -0.01819  -0.01801  -0.98715
   D10        3.07920  -0.01091   0.00000  -0.11177  -0.11240   2.96680
   D11       -1.15128  -0.00449   0.00000  -0.06305  -0.06391  -1.21519
   D12        0.96137  -0.00245   0.00000  -0.02916  -0.02997   0.93140
   D13       -1.08583  -0.00584   0.00000  -0.06388  -0.06396  -1.14978
   D14        0.96688   0.00057   0.00000  -0.01515  -0.01546   0.95141
   D15        3.07952   0.00262   0.00000   0.01873   0.01847   3.09800
   D16        0.96679  -0.00173   0.00000  -0.04386  -0.04393   0.92286
   D17        3.01950   0.00469   0.00000   0.00487   0.00456   3.02406
   D18       -1.15104   0.00674   0.00000   0.03875   0.03850  -1.11254
   D19        2.51296   0.00002   0.00000   0.00201   0.00143   2.51438
   D20       -1.63777  -0.00183   0.00000  -0.02041  -0.01965  -1.65742
   D21        0.43758   0.00033   0.00000  -0.00206  -0.00224   0.43535
   D22        0.96442  -0.00367   0.00000  -0.03015  -0.02981   0.93461
   D23        3.08217   0.00037   0.00000  -0.00252  -0.00200   3.08017
   D24       -1.14768  -0.00460   0.00000  -0.03905  -0.03876  -1.18644
   D25       -1.14823  -0.00550   0.00000  -0.04806  -0.04803  -1.19627
   D26        0.96952  -0.00146   0.00000  -0.02043  -0.02022   0.94930
   D27        3.02285  -0.00643   0.00000  -0.05696  -0.05698   2.96587
   D28        3.08266   0.00032   0.00000  -0.00450  -0.00471   3.07795
   D29       -1.08277   0.00436   0.00000   0.02313   0.02311  -1.05966
   D30        0.97056  -0.00060   0.00000  -0.01340  -0.01366   0.95691
   D31        1.14832   0.00005   0.00000  -0.00214  -0.00167   1.14664
   D32       -3.08180   0.00995   0.00000   0.07127   0.07168  -3.01012
   D33       -0.96406  -0.00453   0.00000  -0.02528  -0.02490  -0.98896
   D34       -0.96948  -0.00607   0.00000  -0.04056  -0.04048  -1.00996
   D35        1.08359   0.00383   0.00000   0.03285   0.03287   1.11646
   D36       -3.08185  -0.01065   0.00000  -0.06370  -0.06371   3.13763
   D37       -3.02267   0.00130   0.00000   0.00755   0.00783  -3.01484
   D38       -0.96960   0.01120   0.00000   0.08096   0.08118  -0.88842
   D39        1.14814  -0.00328   0.00000  -0.01559  -0.01539   1.13274
   D40       -2.64313  -0.00780   0.00000  -0.07657  -0.07552  -2.71865
   D41       -0.56932   0.00426   0.00000   0.00946   0.01014  -0.55918
   D42        1.50463  -0.00301   0.00000  -0.02354  -0.02527   1.47936
   D43        0.96409   0.01004   0.00000   0.05265   0.05249   1.01658
   D44       -1.14816  -0.00169   0.00000  -0.01421  -0.01330  -1.16146
   D45        3.08195   0.00051   0.00000  -0.01272  -0.01219   3.06976
   D46       -2.62899   0.00117   0.00000   0.01170   0.01181  -2.61718
   D47        1.55980  -0.00132   0.00000  -0.00278  -0.00305   1.55674
   D48       -0.53460   0.00166   0.00000   0.01638   0.01646  -0.51814
   D49       -0.55368   0.00627   0.00000   0.05115   0.05151  -0.50217
   D50       -2.64808   0.00378   0.00000   0.03667   0.03664  -2.61144
   D51        1.54071   0.00676   0.00000   0.05583   0.05615   1.59686
   D52        1.52180  -0.00418   0.00000  -0.03187  -0.03191   1.48989
   D53       -0.57259  -0.00667   0.00000  -0.04634  -0.04678  -0.61937
   D54       -2.66699  -0.00369   0.00000  -0.02718  -0.02727  -2.69426
   D55       -0.96260  -0.00145   0.00000  -0.01501  -0.01516  -0.97775
   D56       -3.08039   0.00446   0.00000   0.03128   0.03080  -3.04959
   D57        1.14995   0.01151   0.00000   0.06958   0.06806   1.21802
   D58       -2.42163   0.00115   0.00000   0.00297   0.00324  -2.41840
   D59       -0.32724   0.00071   0.00000   0.00644   0.00644  -0.32080
   D60        1.76716  -0.00183   0.00000  -0.00896  -0.00922   1.75794
         Item               Value     Threshold  Converged?
 Maximum Force            0.043193     0.000450     NO 
 RMS     Force            0.010146     0.000300     NO 
 Maximum Displacement     0.307501     0.001800     NO 
 RMS     Displacement     0.089909     0.001200     NO 
 Predicted change in Energy=-2.751466D-02
 GradGradGradGradGradGradGradGradGradGradGradGradGradGradGradGradGradGrad

 Leave Link  103 at Wed Nov 18 14:14:32 2015, MaxMem=   33554432 cpu:       0.0
 (Enter C:\G09W\l202.exe)
                          Input orientation:                          
 ---------------------------------------------------------------------
 Center     Atomic      Atomic             Coordinates (Angstroms)
 Number     Number       Type             X           Y           Z
 ---------------------------------------------------------------------
      1          6           0       -3.207566   -0.390011   -0.028254
      2          6           0       -1.663228   -0.400974   -0.102920
      3          6           0       -1.137149    1.068357   -0.061616
      4          6           0       -1.708599    1.815623    1.169097
      5          6           0       -3.731275    0.442913    1.172214
      6          1           0       -3.615816   -1.440447    0.018751
      7          1           0       -1.342166    1.396368    2.140902
      8          1           0       -4.833727    0.570243    1.077621
      9          9           0       -1.141045   -1.123837    0.913015
     10          9           0       -1.240746   -1.046950   -1.210454
     11          9           0        0.214156    1.107300   -0.047297
     12          9           0       -1.485208    1.714226   -1.193404
     13          8           0       -3.658087    0.214706   -1.245175
     14          1           0       -4.475306   -0.206545   -1.545992
     15          8           0       -1.353069    3.172462    1.074134
     16          1           0       -1.347807    3.576063    1.954873
     17          6           0       -3.443632   -0.211695    2.555194
     18          1           0       -4.219337    0.062921    3.271210
     19          1           0       -2.475224    0.099354    2.951329
     20          8           0       -3.424116   -1.633752    2.360804
     21          1           0       -3.879350   -2.081035    3.086993
     22          8           0       -3.174533    1.792224    1.173777
 ---------------------------------------------------------------------
                    Distance matrix (angstroms):
                    1          2          3          4          5
     1  C    0.000000
     2  C    1.546180   0.000000
     3  C    2.532701   1.561217   0.000000
     4  C    2.923246   2.556049   1.549069   0.000000
     5  C    1.552146   2.571950   2.939899   2.444496   0.000000
     6  H    1.127959   2.215379   3.527654   3.944966   2.211527
     7  H    3.372848   2.892793   2.236226   1.120024   2.748686
     8  H    2.188480   3.519801   3.900085   3.365376   1.113804
     9  F    2.386418   1.351787   2.399090   3.004683   3.038286
    10  F    2.386953   1.349966   2.409374   3.751729   3.754934
    11  F    3.735035   2.408850   1.351942   2.382924   4.182708
    12  F    2.958362   2.386403   1.348791   2.375204   3.501029
    13  O    1.431625   2.379762   2.912844   3.491725   2.429239
    14  H    1.986040   3.166708   3.869372   4.372132   2.892062
    15  O    4.164809   3.775063   2.400793   1.405856   3.621591
    16  H    4.808455   4.488967   3.224778   1.961317   4.013740
    17  C    2.600332   3.204876   3.715655   3.006929   1.556883
    18  H    3.480702   4.258361   4.649571   3.714115   2.188238
    19  H    3.107043   3.199703   3.436168   2.590298   2.204757
    20  O    2.702107   3.269618   4.289490   4.032537   2.412392
    21  H    3.607716   4.231943   5.229921   4.855351   3.171533
    22  O    2.491610   2.953662   2.490203   1.466128   1.459659
                    6          7          8          9         10
     6  H    0.000000
     7  H    4.209575   0.000000
     8  H    2.578253   3.742197   0.000000
     9  F    2.650366   2.810620   4.066067   0.000000
    10  F    2.703098   4.148695   4.556326   2.127198   0.000000
    11  F    4.600441   2.700725   5.199519   2.781500   2.847888
    12  F    3.995093   3.352475   4.204620   3.551063   2.772029
    13  O    2.082984   4.269113   2.627530   3.575608   2.726998
    14  H    2.170174   5.096968   2.759567   4.243281   3.358756
    15  O    5.245263   2.071864   4.345864   4.304543   4.799520
    16  H    5.835906   2.187627   4.685740   4.818431   5.603839
    17  C    2.823654   2.678370   2.174170   2.971643   4.441898
    18  H    3.633572   3.366569   2.333813   4.055288   5.494463
    19  H    3.503135   1.903381   3.048780   2.725978   4.489809
    20  O    2.357823   3.683002   2.913959   2.751094   4.226739
    21  H    3.145459   4.407349   3.460880   3.625014   5.147777
    22  O    3.461066   2.109408   2.062864   3.564615   4.181507
                   11         12         13         14         15
    11  F    0.000000
    12  F    2.137700   0.000000
    13  O    4.150410   2.640576   0.000000
    14  H    5.095423   3.571326   0.967363   0.000000
    15  O    2.824659   2.699193   4.409152   5.294442   0.000000
    16  H    3.541639   3.660187   5.184247   6.028717   0.968825
    17  C    4.678902   4.647213   3.830223   4.228960   4.244586
    18  H    5.635520   5.489540   4.553655   4.831519   4.765698
    19  H    4.152166   4.557056   4.361550   4.931512   3.771881
    20  O    5.152606   5.253638   4.058894   4.290102   5.389290
    21  H    6.061852   6.201429   4.907857   5.033232   6.167084
    22  O    3.666519   2.909201   2.928091   3.617214   2.287513
                   16         17         18         19         20
    16  H    0.000000
    17  C    4.370352   0.000000
    18  H    4.724467   1.090785   0.000000
    19  H    3.788337   1.091554   1.773579   0.000000
    20  O    5.622990   1.435415   2.083247   2.062225   0.000000
    21  H    6.300251   1.991756   2.178549   2.596935   0.966773
    22  O    2.670041   2.448759   2.912272   2.552359   3.634370
                   21         22
    21  H    0.000000
    22  O    4.377134   0.000000
 Stoichiometry    C6H8F4O4
 Framework group  C1[X(C6H8F4O4)]
 Deg. of freedom    60
 Full point group                 C1      NOp   1
 RotChk:  IX=0 Diff= 1.45D-01
 Largest Abelian subgroup         C1      NOp   1
 Largest concise Abelian subgroup C1      NOp   1
                         Standard orientation:                         
 ---------------------------------------------------------------------
 Center     Atomic      Atomic             Coordinates (Angstroms)
 Number     Number       Type             X           Y           Z
 ---------------------------------------------------------------------
      1          6           0        0.948219   -0.705277    0.822895
      2          6           0       -0.040421   -1.102828   -0.297470
      3          6           0       -1.277423   -0.151453   -0.251522
      4          6           0       -0.825796    1.329573   -0.298545
      5          6           0        1.302030    0.805521    0.784639
      6          1           0        1.887910   -1.326937    0.769871
      7          1           0       -0.340108    1.605272   -1.269395
      8          1           0        1.863963    1.074497    1.707917
      9          9           0        0.560609   -1.046492   -1.506981
     10          9           0       -0.406480   -2.396695   -0.177824
     11          9           0       -2.136386   -0.411472   -1.262621
     12          9           0       -1.991649   -0.378373    0.869916
     13          8           0        0.284457   -0.995963    2.057589
     14          1           0        0.920380   -1.316292    2.712403
     15          8           0       -1.948483    2.147342   -0.081157
     16          1           0       -1.800157    3.023338   -0.467489
     17          6           0        2.175370    1.208294   -0.439672
     18          1           0        2.815177    2.054148   -0.184742
     19          1           0        1.559023    1.481455   -1.298153
     20          8           0        2.972262    0.067527   -0.791852
     21          1           0        3.873598    0.339104   -1.012056
     22          8           0        0.103452    1.638560    0.792581
 ---------------------------------------------------------------------
 Rotational constants (GHZ):      0.8852015      0.6847502      0.5707384
 Leave Link  202 at Wed Nov 18 14:14:32 2015, MaxMem=   33554432 cpu:       0.0
 (Enter C:\G09W\l301.exe)
 Standard basis: VSTO-6G (5D, 7F)
 Ernie: Thresh=  0.10000D-02 Tol=  0.10000D-05 Strict=F.
  NNHCO=     0 NNPyr=     0 NCTC=     0               EPep=         0.000000000
    EC=       562.858462652  ECS=         4.372986535   EG=         0.422930038
   EHC=         0.001774308  EAt=      -139.732854878  AtH=         2.798287655
 EPDDG=         0.000000000  ECC=       567.656153533 EAtT=       142.531142533
 There are    64 symmetry adapted basis functions of A   symmetry.
 Integral buffers will be    131072 words long.
 Regular integral format.
 Two-electron integral symmetry is turned off.
    64 basis functions,   384 primitive gaussians,    64 cartesian basis functions
    42 alpha electrons       42 beta electrons
       nuclear repulsion energy       710.1872960655 Hartrees.
 IExCor=    0 DFT=F Ex=HF Corr=None ExCW=0 ScaHFX=  1.000000
 ScaDFX=  1.000000  1.000000  1.000000  1.000000 ScalE2=  1.000000  1.000000
 IRadAn=      0 IRanWt=     -1 IRanGd=            0 ICorTp=0
 Leave Link  301 at Wed Nov 18 14:14:32 2015, MaxMem=   33554432 cpu:       0.0
 (Enter C:\G09W\l302.exe)
 Do NDO integrals.
 NPDir=0 NMtPBC=     1 NCelOv=     1 NCel=       1 NClECP=     1 NCelD=      1
         NCelK=      1 NCelE2=     1 NClLst=     1 CellRange=     0.0.
 One-electron integrals computed using PRISM.
 NBasis=    64 RedAO= F  NBF=    64
 NBsUse=    64 1.00D-04 NBFU=    64
 Leave Link  302 at Wed Nov 18 14:14:32 2015, MaxMem=   33554432 cpu:       0.0
 (Enter C:\G09W\l303.exe)
 DipDrv:  MaxL=1.
 Leave Link  303 at Wed Nov 18 14:14:32 2015, MaxMem=   33554432 cpu:       0.0
 (Enter C:\G09W\l401.exe)
 Initial guess read from the read-write file.
 B after Tr=     0.000000    0.000000    0.000000
         Rot=    1.000000    0.000000    0.000000    0.000000 Ang=   0.00 deg.
 Guess basis will be translated and rotated to current coordinates.
 Initial guess orbital symmetries:
       Occupied  (A) (A) (A) (A) (A) (A) (A) (A) (A) (A) (A) (A)
                 (A) (A) (A) (A) (A) (A) (A) (A) (A) (A) (A) (A)
                 (A) (A) (A) (A) (A) (A) (A) (A) (A) (A) (A) (A)
                 (A) (A) (A) (A) (A) (A)
       Virtual   (A) (A) (A) (A) (A) (A) (A) (A) (A) (A) (A) (A)
                 (A) (A) (A) (A) (A) (A) (A) (A) (A) (A)
 The electronic state of the initial guess is 1-A.
 Leave Link  401 at Wed Nov 18 14:14:32 2015, MaxMem=   33554432 cpu:       0.0
 (Enter C:\G09W\l502.exe)
 Closed shell SCF:
 Requested convergence on RMS density matrix=1.00D-08 within 128 cycles.
 Requested convergence on MAX density matrix=1.00D-06.
 Requested convergence on             energy=1.00D-06.
 No special actions if energy rises.
 Using DIIS extrapolation, IDIIS=  1040.
 Overlap will be assumed to be unity.
 Two-electron integral symmetry not used.
 Keep J ints in memory in canonical form, NReq=901177.
 IEnd=       90137 IEndB=       90137 NGot=    33554432 MDV=    33474042
 LenX=    33474042 LenY=    33469505
 Symmetry not used in FoFDir.
 MinBra= 0 MaxBra= 1 Meth=40.
 IRaf=       0 NMat=   1 IRICut=       1 DoRegI=T DoRafI=F ISym2E= 0 JSym2E=0.

 Cycle   1  Pass 1  IDiag  1:
 E=-0.484569080981032    
 DIIS: error= 2.05D-02 at cycle   1 NSaved=   1.
 NSaved= 1 IEnMin= 1 EnMin=-0.484569080981032     IErMin= 1 ErrMin= 2.05D-02
 ErrMax= 2.05D-02 EMaxC= 1.00D-01 BMatC= 2.38D-02 BMatP= 2.38D-02
 IDIUse=3 WtCom= 7.95D-01 WtEn= 2.05D-01
 Coeff-Com:  0.100D+01
 Coeff-En:   0.100D+01
 Coeff:      0.100D+01
 GapD=    2.000 DampG=2.000 DampE=0.500 DampFc=1.0000 IDamp=-1.
 RMSDP=4.24D-03 MaxDP=3.86D-02              OVMax= 0.00D+00

 Cycle   2  Pass 1  IDiag  1:
 E=-0.564462985308410     Delta-E=       -0.079893904327 Rises=F Damp=F
 DIIS: error= 7.71D-03 at cycle   2 NSaved=   2.
 NSaved= 2 IEnMin= 2 EnMin=-0.564462985308410     IErMin= 2 ErrMin= 7.71D-03
 ErrMax= 7.71D-03 EMaxC= 1.00D-01 BMatC= 3.50D-03 BMatP= 2.38D-02
 IDIUse=3 WtCom= 9.23D-01 WtEn= 7.71D-02
 Coeff-Com: -0.540D+00 0.154D+01
 Coeff-En:   0.000D+00 0.100D+01
 Coeff:     -0.498D+00 0.150D+01
 RMSDP=2.65D-03 MaxDP=2.47D-02 DE=-7.99D-02 OVMax= 0.00D+00

 Cycle   3  Pass 1  IDiag  3:
 E=-0.580640510425155     Delta-E=       -0.016177525117 Rises=F Damp=F
 DIIS: error= 2.18D-03 at cycle   3 NSaved=   3.
 NSaved= 3 IEnMin= 3 EnMin=-0.580640510425155     IErMin= 3 ErrMin= 2.18D-03
 ErrMax= 2.18D-03 EMaxC= 1.00D-01 BMatC= 1.67D-04 BMatP= 3.50D-03
 IDIUse=3 WtCom= 9.78D-01 WtEn= 2.18D-02
 Coeff-Com:  0.263D+00-0.877D+00 0.161D+01
 Coeff-En:   0.000D+00 0.000D+00 0.100D+01
 Coeff:      0.258D+00-0.858D+00 0.160D+01
 Gap=     0.410 Goal=   None    Shift=    0.000
 RMSDP=7.31D-04 MaxDP=1.05D-02 DE=-1.62D-02 OVMax= 0.00D+00

 Cycle   4  Pass 1  IDiag  3:
 E=-0.581718259426907     Delta-E=       -0.001077749002 Rises=F Damp=F
 DIIS: error= 9.10D-04 at cycle   4 NSaved=   4.
 NSaved= 4 IEnMin= 4 EnMin=-0.581718259426907     IErMin= 4 ErrMin= 9.10D-04
 ErrMax= 9.10D-04 EMaxC= 1.00D-01 BMatC= 2.37D-05 BMatP= 1.67D-04
 IDIUse=3 WtCom= 9.91D-01 WtEn= 9.10D-03
 Coeff-Com: -0.205D+00 0.708D+00-0.161D+01 0.210D+01
 Coeff-En:   0.000D+00 0.000D+00 0.000D+00 0.100D+01
 Coeff:     -0.203D+00 0.701D+00-0.159D+01 0.209D+01
 Gap=     0.410 Goal=   None    Shift=    0.000
 RMSDP=3.89D-04 MaxDP=6.30D-03 DE=-1.08D-03 OVMax= 0.00D+00

 Cycle   5  Pass 1  IDiag  3:
 E=-0.581918236614911     Delta-E=       -0.000199977188 Rises=F Damp=F
 DIIS: error= 1.77D-04 at cycle   5 NSaved=   5.
 NSaved= 5 IEnMin= 5 EnMin=-0.581918236614911     IErMin= 5 ErrMin= 1.77D-04
 ErrMax= 1.77D-04 EMaxC= 1.00D-01 BMatC= 1.38D-06 BMatP= 2.37D-05
 IDIUse=3 WtCom= 9.98D-01 WtEn= 1.77D-03
 Coeff-Com:  0.377D-01-0.131D+00 0.325D+00-0.638D+00 0.141D+01
 Coeff-En:   0.000D+00 0.000D+00 0.000D+00 0.000D+00 0.100D+01
 Coeff:      0.377D-01-0.131D+00 0.325D+00-0.637D+00 0.141D+01
 Gap=     0.410 Goal=   None    Shift=    0.000
 RMSDP=8.94D-05 MaxDP=1.35D-03 DE=-2.00D-04 OVMax= 0.00D+00

 Cycle   6  Pass 1  IDiag  3:
 E=-0.581928921134136     Delta-E=       -0.000010684519 Rises=F Damp=F
 DIIS: error= 3.47D-05 at cycle   6 NSaved=   6.
 NSaved= 6 IEnMin= 6 EnMin=-0.581928921134136     IErMin= 6 ErrMin= 3.47D-05
 ErrMax= 3.47D-05 EMaxC= 1.00D-01 BMatC= 9.67D-08 BMatP= 1.38D-06
 IDIUse=1 WtCom= 1.00D+00 WtEn= 0.00D+00
 Coeff-Com:  0.372D-02-0.128D-01 0.226D-01 0.288D-01-0.420D+00 0.138D+01
 Coeff:      0.372D-02-0.128D-01 0.226D-01 0.288D-01-0.420D+00 0.138D+01
 Gap=     0.410 Goal=   None    Shift=    0.000
 RMSDP=2.06D-05 MaxDP=1.98D-04 DE=-1.07D-05 OVMax= 0.00D+00

 Cycle   7  Pass 1  IDiag  3:
 E=-0.581929569003137     Delta-E=       -0.000000647869 Rises=F Damp=F
 DIIS: error= 1.39D-05 at cycle   7 NSaved=   7.
 NSaved= 7 IEnMin= 7 EnMin=-0.581929569003137     IErMin= 7 ErrMin= 1.39D-05
 ErrMax= 1.39D-05 EMaxC= 1.00D-01 BMatC= 8.16D-09 BMatP= 9.67D-08
 IDIUse=1 WtCom= 1.00D+00 WtEn= 0.00D+00
 Coeff-Com: -0.186D-02 0.653D-02-0.134D-01-0.313D-02 0.167D+00-0.725D+00
 Coeff-Com:  0.157D+01
 Coeff:     -0.186D-02 0.653D-02-0.134D-01-0.313D-02 0.167D+00-0.725D+00
 Coeff:      0.157D+01
 Gap=     0.410 Goal=   None    Shift=    0.000
 RMSDP=5.63D-06 MaxDP=6.84D-05 DE=-6.48D-07 OVMax= 0.00D+00

 Cycle   8  Pass 1  IDiag  3:
 E=-0.581929624673990     Delta-E=       -0.000000055671 Rises=F Damp=F
 DIIS: error= 5.16D-06 at cycle   8 NSaved=   8.
 NSaved= 8 IEnMin= 8 EnMin=-0.581929624673990     IErMin= 8 ErrMin= 5.16D-06
 ErrMax= 5.16D-06 EMaxC= 1.00D-01 BMatC= 9.54D-10 BMatP= 8.16D-09
 IDIUse=1 WtCom= 1.00D+00 WtEn= 0.00D+00
 Coeff-Com:  0.562D-03-0.202D-02 0.404D-02 0.459D-02-0.839D-01 0.375D+00
 Coeff-Com: -0.107D+01 0.177D+01
 Coeff:      0.562D-03-0.202D-02 0.404D-02 0.459D-02-0.839D-01 0.375D+00
 Coeff:     -0.107D+01 0.177D+01
 Gap=     0.410 Goal=   None    Shift=    0.000
 RMSDP=2.25D-06 MaxDP=3.17D-05 DE=-5.57D-08 OVMax= 0.00D+00

 Cycle   9  Pass 1  IDiag  3:
 E=-0.581929631906746     Delta-E=       -0.000000007233 Rises=F Damp=F
 DIIS: error= 1.30D-06 at cycle   9 NSaved=   9.
 NSaved= 9 IEnMin= 9 EnMin=-0.581929631906746     IErMin= 9 ErrMin= 1.30D-06
 ErrMax= 1.30D-06 EMaxC= 1.00D-01 BMatC= 7.41D-11 BMatP= 9.54D-10
 IDIUse=1 WtCom= 1.00D+00 WtEn= 0.00D+00
 Coeff-Com: -0.116D-03 0.439D-03-0.719D-03-0.403D-02 0.428D-01-0.183D+00
 Coeff-Com:  0.543D+00-0.110D+01 0.171D+01
 Coeff:     -0.116D-03 0.439D-03-0.719D-03-0.403D-02 0.428D-01-0.183D+00
 Coeff:      0.543D+00-0.110D+01 0.171D+01
 Gap=     0.410 Goal=   None    Shift=    0.000
 RMSDP=6.28D-07 MaxDP=8.86D-06 DE=-7.23D-09 OVMax= 0.00D+00

 Cycle  10  Pass 1  IDiag  3:
[...]
 ! D59   D(18,17,20,21)         45.3799         -DE/DX =    0.0                 !
 ! D60   D(19,17,20,21)        162.1425         -DE/DX =    0.0                 !
 --------------------------------------------------------------------------------
 GradGradGradGradGradGradGradGradGradGradGradGradGradGradGradGradGradGrad

 Largest change from initial coordinates is atom   16       0.528 Angstoms.
 Leave Link  103 at Wed Nov 18 14:14:42 2015, MaxMem=   33554432 cpu:       0.0
 (Enter C:\G09W\l202.exe)
                          Input orientation:                          
 ---------------------------------------------------------------------
 Center     Atomic      Atomic             Coordinates (Angstroms)
 Number     Number       Type             X           Y           Z
 ---------------------------------------------------------------------
      1          6           0       -3.117637   -0.459513    0.129347
      2          6           0       -1.622603   -0.251515   -0.240228
      3          6           0       -1.129698    1.215571   -0.068401
      4          6           0       -1.539190    1.783177    1.332801
      5          6           0       -3.572754    0.374568    1.348009
      6          1           0       -3.332332   -1.546144    0.320620
      7          1           0       -0.991475    1.313285    2.176491
      8          1           0       -4.646463    0.670631    1.191880
      9          9           0       -0.844842   -1.071084    0.511637
     10          9           0       -1.386070   -0.716589   -1.486576
     11          9           0        0.206362    1.317412   -0.240194
     12          9           0       -1.606006    1.993527   -1.062614
     13          8           0       -3.935395    0.007794   -0.939481
     14          1           0       -3.919968   -0.618591   -1.700210
     15          8           0       -1.319795    3.152579    1.439984
     16          1           0       -1.997841    3.671439    0.926644
     17          6           0       -3.381777   -0.400991    2.668193
     18          1           0       -3.694079    0.211388    3.533139
     19          1           0       -2.341448   -0.742405    2.827741
     20          8           0       -4.123552   -1.619404    2.600661
     21          1           0       -5.080068   -1.450741    2.743257
     22          8           0       -2.966200    1.663118    1.472103
 ---------------------------------------------------------------------
                    Distance matrix (angstroms):
                    1          2          3          4          5
     1  C    0.000000
     2  C    1.554019   0.000000
     3  C    2.607089   1.557184   0.000000
     4  C    2.994905   2.573198   1.566278   0.000000
     5  C    1.545302   2.591826   2.946527   2.473822   0.000000
     6  H    1.124031   2.216707   3.553872   3.914620   2.191453
     7  H    3.442989   2.947448   2.251264   1.110226   2.868897
     8  H    2.177960   3.470593   3.775302   3.303448   1.124669
     9  F    2.384484   1.357169   2.376211   3.050121   3.198583
    10  F    2.382356   1.351157   2.410434   3.771096   3.742604
    11  F    3.787214   2.409698   1.350903   2.395454   4.206311
    12  F    3.118206   2.390985   1.349275   2.405561   3.507168
    13  O    1.424604   2.430062   3.176388   3.749273   2.344918
    14  H    2.004076   2.746667   3.716525   4.542659   3.224680
    15  O    4.242312   3.808236   2.462390   1.391001   3.577936
    16  H    4.353664   4.109983   2.788382   1.985159   3.677942
    17  C    2.553220   3.402344   3.895392   3.154202   1.543000
    18  H    3.516844   4.329387   4.533820   3.457681   2.194571
    19  H    2.822025   3.189066   3.699952   3.042537   2.225612
    20  O    2.909399   4.024490   4.911633   4.456900   2.418355
    21  H    3.415581   4.721588   5.533540   4.998543   2.747811
    22  O    2.516245   2.898819   2.438481   1.438811   1.429570
                    6          7          8          9         10
     6  H    0.000000
     7  H    4.135239   0.000000
     8  H    2.720317   3.839453   0.000000
     9  F    2.539641   2.911779   4.236582   0.000000
    10  F    2.782455   4.206442   4.441697   2.100346   0.000000
    11  F    4.586591   2.697256   5.100889   2.715730   2.868182
    12  F    4.174064   3.366329   4.009635   3.528382   2.751881
    13  O    2.089560   4.481099   2.342577   3.580676   2.706123
    14  H    2.299875   5.228482   3.248703   3.814895   2.544776
    15  O    5.232712   2.008292   4.157925   4.350487   4.851764
    16  H    5.419530   2.852328   4.011284   4.898281   5.045066
    17  C    2.612454   2.982291   2.219753   3.396439   4.620017
    18  H    3.679682   3.218499   2.568936   4.346534   5.602284
    19  H    2.813095   2.544095   3.160033   2.777084   4.418908
    20  O    2.414536   4.311670   2.739044   3.926145   5.001439
    21  H    2.988788   4.967661   2.663645   4.802229   5.663576
    22  O    3.429188   2.125579   1.971507   3.591451   4.112615
                   11         12         13         14         15
    11  F    0.000000
    12  F    2.101947   0.000000
    13  O    4.399801   3.063389   0.000000
    14  H    4.786058   3.547409   0.985548   0.000000
    15  O    2.918903   2.772781   4.732112   5.553687   0.000000
    16  H    3.429499   2.631742   4.545199   5.385099   0.996233
    17  C    4.928119   4.775562   3.672724   4.406806   4.288138
    18  H    5.538480   5.353224   4.483750   5.303568   4.320778
    19  H    4.488474   4.812594   4.158777   4.796811   4.259172
    20  O    5.953444   5.728079   3.900741   4.420471   5.655090
    21  H    6.671580   6.198124   4.123125   4.667195   6.085123
    22  O    3.621687   2.895528   3.081424   4.022367   2.220399
                   16         17         18         19         20
    16  H    0.000000
    17  C    4.640362   0.000000
    18  H    4.652203   1.104841   0.000000
    19  H    4.818117   1.106483   1.799144   0.000000
    20  O    5.942558   1.428048   2.098991   1.999147   0.000000
    21  H    6.247954   1.997949   2.303812   2.830003   0.981684
    22  O    2.295342   2.421546   2.623966   2.831010   3.658970
                   21         22
    21  H    0.000000
    22  O    3.972454   0.000000
 Stoichiometry    C6H8F4O4
 Framework group  C1[X(C6H8F4O4)]
 Deg. of freedom    60
 Full point group                 C1      NOp   1
 RotChk:  IX=0 Diff= 5.50D-15
 Largest Abelian subgroup         C1      NOp   1
 Largest concise Abelian subgroup C1      NOp   1
                         Standard orientation:                         
 ---------------------------------------------------------------------
 Center     Atomic      Atomic             Coordinates (Angstroms)
 Number     Number       Type             X           Y           Z
 ---------------------------------------------------------------------
      1          6           0        0.962726   -0.885407    0.479635
      2          6           0       -0.345579   -1.100034   -0.331073
      3          6           0       -1.400849    0.027925   -0.133755
      4          6           0       -0.749356    1.441208   -0.310995
      5          6           0        1.409586    0.592289    0.548134
      6          1           0        1.798236   -1.508002    0.058039
      7          1           0       -0.449952    1.661040   -1.357243
      8          1           0        1.898474    0.767247    1.545761
      9          9           0       -0.055098   -1.208710   -1.652329
     10          9           0       -0.860361   -2.320046   -0.062381
     11          9           0       -2.446378   -0.112476   -0.977614
     12          9           0       -1.991376   -0.083614    1.074293
     13          8           0        0.737640   -1.246201    1.839290
     14          1           0        0.698831   -2.225126    1.946548
     15          8           0       -1.597247    2.473406    0.076987
     16          1           0       -1.673579    2.528863    1.068742
     17          6           0        2.351663    0.953695   -0.619225
     18          1           0        2.650366    2.016226   -0.569456
     19          1           0        1.911965    0.751240   -1.614203
     20          8           0        3.490153    0.092574   -0.578794
     21          1           0        4.115670    0.378342    0.121754
     22          8           0        0.351924    1.552188    0.608267
 ---------------------------------------------------------------------
 Rotational constants (GHZ):      0.9013617      0.6296227      0.5067938
 Leave Link  202 at Wed Nov 18 14:14:42 2015, MaxMem=   33554432 cpu:       0.0
 (Enter C:\G09W\l601.exe)
 Copying SCF densities to generalized density rwf, IOpCl= 0 IROHF=0.

 **********************************************************************

            Population analysis using the SCF density.

 **********************************************************************

 Orbital symmetries:
       Occupied  (A) (A) (A) (A) (A) (A) (A) (A) (A) (A) (A) (A)
                 (A) (A) (A) (A) (A) (A) (A) (A) (A) (A) (A) (A)
                 (A) (A) (A) (A) (A) (A) (A) (A) (A) (A) (A) (A)
                 (A) (A) (A) (A) (A) (A)
       Virtual   (A) (A) (A) (A) (A) (A) (A) (A) (A) (A) (A) (A)
                 (A) (A) (A) (A) (A) (A) (A) (A) (A) (A)
 The electronic state is 1-A.
 Alpha  occ. eigenvalues --   -1.56917  -1.56549  -1.56129  -1.55553  -1.16686
 Alpha  occ. eigenvalues --   -1.15092  -1.12711  -1.11489  -1.02453  -1.00740
 Alpha  occ. eigenvalues --   -0.93214  -0.88477  -0.86338  -0.78520  -0.72775
 Alpha  occ. eigenvalues --   -0.72760  -0.70690  -0.69573  -0.69319  -0.68137
 Alpha  occ. eigenvalues --   -0.66042  -0.65055  -0.63703  -0.63081  -0.62567
 Alpha  occ. eigenvalues --   -0.61689  -0.60537  -0.59285  -0.58821  -0.57767
 Alpha  occ. eigenvalues --   -0.57093  -0.55786  -0.54653  -0.53378  -0.51990
 Alpha  occ. eigenvalues --   -0.50022  -0.49060  -0.46406  -0.44821  -0.42667
 Alpha  occ. eigenvalues --   -0.42027  -0.39969
 Alpha virt. eigenvalues --    0.01475   0.03399   0.03845   0.04693   0.05536
 Alpha virt. eigenvalues --    0.06037   0.06425   0.06955   0.07819   0.08694
 Alpha virt. eigenvalues --    0.09152   0.09958   0.10201   0.11825   0.14270
 Alpha virt. eigenvalues --    0.15187   0.15635   0.16870   0.17434   0.17839
 Alpha virt. eigenvalues --    0.18001   0.18574
          Condensed to atoms (all electrons):
              1          2          3          4          5          6
     1  C    3.973769   0.000000   0.000000   0.000000   0.000000   0.000000
     2  C    0.000000   3.759011   0.000000   0.000000   0.000000   0.000000
     3  C    0.000000   0.000000   3.828793   0.000000   0.000000   0.000000
     4  C    0.000000   0.000000   0.000000   3.670977   0.000000   0.000000
     5  C    0.000000   0.000000   0.000000   0.000000   3.902849   0.000000
     6  H    0.000000   0.000000   0.000000   0.000000   0.000000   0.823200
     7  H    0.000000   0.000000   0.000000   0.000000   0.000000   0.000000
     8  H    0.000000   0.000000   0.000000   0.000000   0.000000   0.000000
     9  F    0.000000   0.000000   0.000000   0.000000   0.000000   0.000000
    10  F    0.000000   0.000000   0.000000   0.000000   0.000000   0.000000
    11  F    0.000000   0.000000   0.000000   0.000000   0.000000   0.000000
    12  F    0.000000   0.000000   0.000000   0.000000   0.000000   0.000000
    13  O    0.000000   0.000000   0.000000   0.000000   0.000000   0.000000
    14  H    0.000000   0.000000   0.000000   0.000000   0.000000   0.000000
    15  O    0.000000   0.000000   0.000000   0.000000   0.000000   0.000000
    16  H    0.000000   0.000000   0.000000   0.000000   0.000000   0.000000
    17  C    0.000000   0.000000   0.000000   0.000000   0.000000   0.000000
    18  H    0.000000   0.000000   0.000000   0.000000   0.000000   0.000000
    19  H    0.000000   0.000000   0.000000   0.000000   0.000000   0.000000
    20  O    0.000000   0.000000   0.000000   0.000000   0.000000   0.000000
    21  H    0.000000   0.000000   0.000000   0.000000   0.000000   0.000000
    22  O    0.000000   0.000000   0.000000   0.000000   0.000000   0.000000
              7          8          9         10         11         12
     1  C    0.000000   0.000000   0.000000   0.000000   0.000000   0.000000
     2  C    0.000000   0.000000   0.000000   0.000000   0.000000   0.000000
     3  C    0.000000   0.000000   0.000000   0.000000   0.000000   0.000000
     4  C    0.000000   0.000000   0.000000   0.000000   0.000000   0.000000
     5  C    0.000000   0.000000   0.000000   0.000000   0.000000   0.000000
     6  H    0.000000   0.000000   0.000000   0.000000   0.000000   0.000000
     7  H    0.840256   0.000000   0.000000   0.000000   0.000000   0.000000
     8  H    0.000000   0.816196   0.000000   0.000000   0.000000   0.000000
     9  F    0.000000   0.000000   7.168860   0.000000   0.000000   0.000000
    10  F    0.000000   0.000000   0.000000   7.151011   0.000000   0.000000
    11  F    0.000000   0.000000   0.000000   0.000000   7.138810   0.000000
    12  F    0.000000   0.000000   0.000000   0.000000   0.000000   7.131748
    13  O    0.000000   0.000000   0.000000   0.000000   0.000000   0.000000
    14  H    0.000000   0.000000   0.000000   0.000000   0.000000   0.000000
    15  O    0.000000   0.000000   0.000000   0.000000   0.000000   0.000000
    16  H    0.000000   0.000000   0.000000   0.000000   0.000000   0.000000
    17  C    0.000000   0.000000   0.000000   0.000000   0.000000   0.000000
    18  H    0.000000   0.000000   0.000000   0.000000   0.000000   0.000000
    19  H    0.000000   0.000000   0.000000   0.000000   0.000000   0.000000
    20  O    0.000000   0.000000   0.000000   0.000000   0.000000   0.000000
    21  H    0.000000   0.000000   0.000000   0.000000   0.000000   0.000000
    22  O    0.000000   0.000000   0.000000   0.000000   0.000000   0.000000
             13         14         15         16         17         18
     1  C    0.000000   0.000000   0.000000   0.000000   0.000000   0.000000
     2  C    0.000000   0.000000   0.000000   0.000000   0.000000   0.000000
     3  C    0.000000   0.000000   0.000000   0.000000   0.000000   0.000000
     4  C    0.000000   0.000000   0.000000   0.000000   0.000000   0.000000
     5  C    0.000000   0.000000   0.000000   0.000000   0.000000   0.000000
     6  H    0.000000   0.000000   0.000000   0.000000   0.000000   0.000000
     7  H    0.000000   0.000000   0.000000   0.000000   0.000000   0.000000
     8  H    0.000000   0.000000   0.000000   0.000000   0.000000   0.000000
     9  F    0.000000   0.000000   0.000000   0.000000   0.000000   0.000000
    10  F    0.000000   0.000000   0.000000   0.000000   0.000000   0.000000
    11  F    0.000000   0.000000   0.000000   0.000000   0.000000   0.000000
    12  F    0.000000   0.000000   0.000000   0.000000   0.000000   0.000000
    13  O    6.513367   0.000000   0.000000   0.000000   0.000000   0.000000
    14  H    0.000000   0.674698   0.000000   0.000000   0.000000   0.000000
    15  O    0.000000   0.000000   6.481815   0.000000   0.000000   0.000000
    16  H    0.000000   0.000000   0.000000   0.656191   0.000000   0.000000
    17  C    0.000000   0.000000   0.000000   0.000000   4.080038   0.000000
    18  H    0.000000   0.000000   0.000000   0.000000   0.000000   0.853773
    19  H    0.000000   0.000000   0.000000   0.000000   0.000000   0.000000
    20  O    0.000000   0.000000   0.000000   0.000000   0.000000   0.000000
    21  H    0.000000   0.000000   0.000000   0.000000   0.000000   0.000000
    22  O    0.000000   0.000000   0.000000   0.000000   0.000000   0.000000
             19         20         21         22
     1  C    0.000000   0.000000   0.000000   0.000000
     2  C    0.000000   0.000000   0.000000   0.000000
     3  C    0.000000   0.000000   0.000000   0.000000
     4  C    0.000000   0.000000   0.000000   0.000000
     5  C    0.000000   0.000000   0.000000   0.000000
     6  H    0.000000   0.000000   0.000000   0.000000
     7  H    0.000000   0.000000   0.000000   0.000000
     8  H    0.000000   0.000000   0.000000   0.000000
     9  F    0.000000   0.000000   0.000000   0.000000
    10  F    0.000000   0.000000   0.000000   0.000000
    11  F    0.000000   0.000000   0.000000   0.000000
    12  F    0.000000   0.000000   0.000000   0.000000
    13  O    0.000000   0.000000   0.000000   0.000000
    14  H    0.000000   0.000000   0.000000   0.000000
    15  O    0.000000   0.000000   0.000000   0.000000
    16  H    0.000000   0.000000   0.000000   0.000000
    17  C    0.000000   0.000000   0.000000   0.000000
    18  H    0.000000   0.000000   0.000000   0.000000
    19  H    0.835924   0.000000   0.000000   0.000000
    20  O    0.000000   6.524339   0.000000   0.000000
    21  H    0.000000   0.000000   0.687905   0.000000
    22  O    0.000000   0.000000   0.000000   6.486472
 Mulliken atomic charges:
              1
     1  C    0.026231
     2  C    0.240989
     3  C    0.171207
     4  C    0.329023
     5  C    0.097151
     6  H    0.176800
     7  H    0.159744
     8  H    0.183804
     9  F   -0.168860
    10  F   -0.151011
    11  F   -0.138810
    12  F   -0.131748
    13  O   -0.513367
    14  H    0.325302
    15  O   -0.481815
    16  H    0.343809
    17  C   -0.080038
    18  H    0.146227
    19  H    0.164076
    20  O   -0.524339
    21  H    0.312095
    22  O   -0.486472
 Sum of Mulliken atomic charges =   0.00000
 Mulliken charges with hydrogens summed into heavy atoms:
              1
     1  C    0.203031
     2  C    0.240989
     3  C    0.171207
     4  C    0.488767
     5  C    0.280955
     9  F   -0.168860
    10  F   -0.151011
    11  F   -0.138810
    12  F   -0.131748
    13  O   -0.188065
    15  O   -0.138006
    17  C    0.230265
    20  O   -0.212244
    22  O   -0.486472
 Sum of Mulliken charges with hydrogens summed into heavy atoms =   0.00000
 Charge=              0.0000 electrons
 Dipole moment (field-independent basis, Debye):
    X=              3.2186    Y=              0.3627    Z=              0.7757  Tot=              3.3306
 N-N= 7.023185273649D+02 E-N=-1.277322464463D+03  KE=-6.331387128489D+01
 Leave Link  601 at Wed Nov 18 14:14:42 2015, MaxMem=   33554432 cpu:       0.0
 (Enter C:\G09W\l9999.exe)
 1|1|UNPC-KYNARETH|FOpt|RPM6|ZDO|C6H8F4O4|ADMINISTRATOR|18-Nov-2015|0||
 #p opt pm6 geom=connectivity||Title Card Required||0,1|C,-3.117636905,
 -0.4595134103,0.1293473133|C,-1.622603019,-0.251514929,-0.2402280755|C
 ,-1.1296982195,1.2155710783,-0.0684009698|C,-1.539189603,1.783177273,1
 .3328008576|C,-3.5727538251,0.3745678838,1.3480088587|H,-3.3323321368,
 -1.5461440448,0.3206198249|H,-0.991474973,1.3132852359,2.1764905624|H,
 -4.646463231,0.6706306858,1.1918796854|F,-0.844841755,-1.0710841607,0.
 5116370909|F,-1.3860698485,-0.7165893462,-1.4865764075|F,0.2063616394,
 1.3174117196,-0.2401936961|F,-1.6060059348,1.9935274369,-1.0626135119|
 O,-3.9353947679,0.0077938539,-0.9394806777|H,-3.9199683504,-0.61859092
 23,-1.7002101997|O,-1.3197954345,3.1525790161,1.4399841265|H,-1.997840
 8734,3.6714387572,0.9266438566|C,-3.3817767154,-0.4009911157,2.6681926
 555|H,-3.6940787932,0.2113882398,3.5331388655|H,-2.3414475592,-0.74240
 54901,2.827740661|O,-4.1235522005,-1.6194042645,2.6006608174|H,-5.0800
 675796,-1.4507409137,2.7432573001|O,-2.9662000746,1.663118457,1.472102
 5622||Version=EM64W-G09RevC.01|State=1-A|HF=-0.6050275|RMSD=3.044e-009
 |RMSF=1.093e-005|Dipole=-1.0915602,-0.4590605,0.561065|PG=C01 [X(C6H8F
 4O4)]||@


 LIVE PURE, SPEAK TRUE, RIGHT WRONG, FOLLOW THE KING...
 ELSE, WHEREFORE BORN......
           IDYLLS OF THE KING, TENNYSON
 Job cpu time:  0 days  0 hours  0 minutes 10.0 seconds.
 File lengths (MBytes):  RWF=      9 Int=      0 D2E=      0 Chk=      3 Scr=      1
 Normal termination of Gaussian 09 at Wed Nov 18 14:14:42 2015.
