 Entering Link 1 = C:\G09W\l1.exe PID=     13332.
  
 Copyright (c) 1988,1990,1992,1993,1995,1998,2003,2009,2011,
            Gaussian, Inc.  All Rights Reserved.
  
 This is part of the Gaussian(R) 09 program.  It is based on
 the Gaussian(R) 03 system (copyright 2003, Gaussian, Inc.),
 the Gaussian(R) 98 system (copyright 1998, Gaussian, Inc.),
 the Gaussian(R) 94 system (copyright 1995, Gaussian, Inc.),
 the Gaussian 92(TM) system (copyright 1992, Gaussian, Inc.),
 the Gaussian 90(TM) system (copyright 1990, Gaussian, Inc.),
 the Gaussian 88(TM) system (copyright 1988, Gaussian, Inc.),
 the Gaussian 86(TM) system (copyright 1986, Carnegie Mellon
 University), and the Gaussian 82(TM) system (copyright 1983,
 Carnegie Mellon University). Gaussian is a federally registered
 trademark of Gaussian, Inc.
  
 This software contains proprietary and confidential information,
 including trade secrets, belonging to Gaussian, Inc.
  
 This software is provided under written license and may be
 used, copied, transmitted, or stored only in accord with that
 written license.
  
 The following legend is applicable only to US Government
 contracts under FAR:
  
                    RESTRICTED RIGHTS LEGEND
  
 Use, reproduction and disclosure by the US Government is
 subject to restrictions as set forth in subparagraphs (a)
 and (c) of the Commercial Computer Software - Restricted
 Rights clause in FAR 52.227-19.
  
 Gaussian, Inc.
 340 Quinnipiac St., Bldg. 40, Wallingford CT 06492
  
  
 ---------------------------------------------------------------
 Warning -- This program may not be used in any manner that
 competes with the business of Gaussian, Inc. or will provide
 assistance to any competitor of Gaussian, Inc.  The licensee
 of this program is prohibited from giving any competitor of
 Gaussian, Inc. access to this program.  By using this program,
 the user acknowledges that Gaussian, Inc. is engaged in the
 business of creating and licensing software in the field of
 computational chemistry and represents and warrants to the
 licensee that it is not a competitor of Gaussian, Inc. and that
 it will not use this program in any manner prohibited above.
 ---------------------------------------------------------------
  

 Cite this work as:
 Gaussian 09, Revision C.01,
 M. J. Frisch, G. W. Trucks, H. B. Schlegel, G. E. Scuseria, 
 M. A. Robb, J. R. Cheeseman, G. Scalmani, V. Barone, B. Mennucci, 
 G. A. Petersson, H. Nakatsuji, M. Caricato, X. Li, H. P. Hratchian, 
 A. F. Izmaylov, J. Bloino, G. Zheng, J. L. Sonnenberg, M. Hada, 
 M. Ehara, K. Toyota, R. Fukuda, J. Hasegawa, M. Ishida, T. Nakajima, 
 Y. Honda, O. Kitao, H. Nakai, T. Vreven, J. A. Montgomery, Jr., 
 J. E. Peralta, F. Ogliaro, M. Bearpark, J. J. Heyd, E. Brothers, 
 K. N. Kudin, V. N. Staroverov, T. Keith, R. Kobayashi, J. Normand, 
 K. Raghavachari, A. Rendell, J. C. Burant, S. S. Iyengar, J. Tomasi, 
 M. Cossi, N. Rega, J. M. Millam, M. Klene, J. E. Knox, J. B. Cross, 
 V. Bakken, C. Adamo, J. Jaramillo, R. Gomperts, R. E. Stratmann, 
 O. Yazyev, A. J. Austin, R. Cammi, C. Pomelli, J. W. Ochterski, 
 R. L. Martin, K. Morokuma, V. G. Zakrzewski, G. A. Voth, 
 P. Salvador, J. J. Dannenberg, S. Dapprich, A. D. Daniels, 
 O. Farkas, J. B. Foresman, J. V. Ortiz, J. Cioslowski, 
 and D. J. Fox, Gaussian, Inc., Wallingford CT, 2010.
 
 ******************************************
 Gaussian 09:  EM64W-G09RevC.01 23-Sep-2011
                27-Apr-2016 
 ******************************************
 %chk=E:\Spinach project\Collaborations\Australia\Philip Kuchel\FDG2233\geometry_
 beta.chk
 ----------------------------
 #p opt pm6 geom=connectivity
 ----------------------------
 1/14=-1,18=20,19=15,26=1,38=1,57=2/1,3;
 2/9=110,12=2,17=6,18=5,40=1/2;
 3/5=2,16=1,25=1,41=3900000,71=1/1,2,3;
 4/35=1/1;
 5/5=2,35=1,38=5/2;
 6/7=2,8=2,9=2,10=2,28=1/1;
 7//1,2,3,16;
 1/14=-1,18=20,19=15/3(2);
 2/9=110/2;
 99//99;
 2/9=110/2;
 3/5=2,16=1,25=1,41=3900000,71=1,135=20/1,2,3;
 4/5=5,16=3,35=1/1;
 5/5=2,35=1,38=5/2;
 7//1,2,3,16;
 1/14=-1,18=20,19=15/3(-5);
 2/9=110/2;
 6/7=2,8=2,9=2,10=2,19=2,28=1/1;
 99/9=1/99;
 Leave Link    1 at Wed Apr 27 14:10:58 2016, MaxMem=          0 cpu:       0.0
 (Enter C:\G09W\l101.exe)
 -------------------
 Title Card Required
 -------------------
 Charge =  0 Multiplicity = 1
 Symbolic Z-Matrix:
 C                     0.96273  -0.88541   0.47964 
 C                    -0.34558  -1.10003  -0.33107 
 C                    -1.40085   0.02793  -0.13376 
 C                    -0.74936   1.44121  -0.311 
 C                     1.40959   0.59229   0.54813 
 H                     1.79824  -1.508     0.05804 
 H                     1.89847   0.76725   1.54576 
 F                    -0.0551   -1.20871  -1.65233 
 F                    -0.86036  -2.32005  -0.06238 
 F                    -2.44638  -0.11248  -0.97761 
 F                    -1.99138  -0.08361   1.07429 
 O                     0.73764  -1.2462    1.83929 
 H                     0.69883  -2.22513   1.94655 
 C                     2.35166   0.9537   -0.61923 
 H                     2.65037   2.01623  -0.56946 
 H                     1.91197   0.75124  -1.6142 
 O                     3.49015   0.09257  -0.57879 
 H                     4.11567   0.37834   0.12175 
 O                     0.35192   1.55219   0.60827 
 O                    -0.36372   1.72436  -1.65859 
 H                    -0.68968   2.59171  -1.90968 
 H                    -1.40158   2.23521  -0.01255 
 
 NAtoms=     22 NQM=        0 NQMF=       0 NMMI=     22 NMMIF=      0
                NMic=       0 NMicF=      0.
                    Isotopes and Nuclear Properties:
 (Nuclear quadrupole moments (NQMom) in fm**2, nuclear magnetic moments (NMagM)
  in nuclear magnetons)

  Atom         1           2           3           4           5           6           7           8           9          10
 IAtWgt=          12          12          12          12          12           1           1          19          19          19
 AtmWgt=  12.0000000  12.0000000  12.0000000  12.0000000  12.0000000   1.0078250   1.0078250  18.9984033  18.9984033  18.9984033
 NucSpn=           0           0           0           0           0           1           1           1           1           1
 AtZEff=   0.0000000   0.0000000   0.0000000   0.0000000   0.0000000   0.0000000   0.0000000   0.0000000   0.0000000   0.0000000
 NQMom=    0.0000000   0.0000000   0.0000000   0.0000000   0.0000000   0.0000000   0.0000000   0.0000000   0.0000000   0.0000000
 NMagM=    0.0000000   0.0000000   0.0000000   0.0000000   0.0000000   2.7928460   2.7928460   2.6288670   2.6288670   2.6288670

  Atom        11          12          13          14          15          16          17          18          19          20
 IAtWgt=          19          16           1          12           1           1          16           1          16          16
 AtmWgt=  18.9984033  15.9949146   1.0078250  12.0000000   1.0078250   1.0078250  15.9949146   1.0078250  15.9949146  15.9949146
 NucSpn=           1           0           1           0           1           1           0           1           0           0
 AtZEff=   0.0000000   0.0000000   0.0000000   0.0000000   0.0000000   0.0000000   0.0000000   0.0000000   0.0000000   0.0000000
 NQMom=    0.0000000   0.0000000   0.0000000   0.0000000   0.0000000   0.0000000   0.0000000   0.0000000   0.0000000   0.0000000
 NMagM=    2.6288670   0.0000000   2.7928460   0.0000000   2.7928460   2.7928460   0.0000000   2.7928460   0.0000000   0.0000000

  Atom        21          22
 IAtWgt=           1           1
 AtmWgt=   1.0078250   1.0078250
 NucSpn=           1           1
 AtZEff=   0.0000000   0.0000000
 NQMom=    0.0000000   0.0000000
 NMagM=    2.7928460   2.7928460
 Leave Link  101 at Wed Apr 27 14:10:58 2016, MaxMem=   33554432 cpu:       0.0
 (Enter C:\G09W\l103.exe)

 GradGradGradGradGradGradGradGradGradGradGradGradGradGradGradGradGradGrad
 Berny optimization.
 Initialization pass.
                           ----------------------------
                           !    Initial Parameters    !
                           ! (Angstroms and Degrees)  !
 --------------------------                            --------------------------
 ! Name  Definition              Value          Derivative Info.                !
 --------------------------------------------------------------------------------
 ! R1    R(1,2)                  1.554          estimate D2E/DX2                !
 ! R2    R(1,5)                  1.5453         estimate D2E/DX2                !
 ! R3    R(1,6)                  1.124          estimate D2E/DX2                !
 ! R4    R(1,12)                 1.4246         estimate D2E/DX2                !
 ! R5    R(2,3)                  1.5572         estimate D2E/DX2                !
 ! R6    R(2,8)                  1.3572         estimate D2E/DX2                !
 ! R7    R(2,9)                  1.3512         estimate D2E/DX2                !
 ! R8    R(3,4)                  1.5663         estimate D2E/DX2                !
 ! R9    R(3,10)                 1.3509         estimate D2E/DX2                !
 ! R10   R(3,11)                 1.3493         estimate D2E/DX2                !
 ! R11   R(4,19)                 1.4388         estimate D2E/DX2                !
 ! R12   R(4,20)                 1.43           estimate D2E/DX2                !
 ! R13   R(4,22)                 1.07           estimate D2E/DX2                !
 ! R14   R(5,7)                  1.1247         estimate D2E/DX2                !
 ! R15   R(5,14)                 1.543          estimate D2E/DX2                !
 ! R16   R(5,19)                 1.4296         estimate D2E/DX2                !
 ! R17   R(12,13)                0.9855         estimate D2E/DX2                !
 ! R18   R(14,15)                1.1048         estimate D2E/DX2                !
 ! R19   R(14,16)                1.1065         estimate D2E/DX2                !
 ! R20   R(14,17)                1.428          estimate D2E/DX2                !
 ! R21   R(17,18)                0.9817         estimate D2E/DX2                !
 ! R22   R(20,21)                0.96           estimate D2E/DX2                !
 ! A1    A(2,1,5)              113.4934         estimate D2E/DX2                !
 ! A2    A(2,1,6)              110.7087         estimate D2E/DX2                !
 ! A3    A(2,1,12)             109.2631         estimate D2E/DX2                !
 ! A4    A(5,1,6)              109.3502         estimate D2E/DX2                !
 ! A5    A(5,1,12)             104.215          estimate D2E/DX2                !
 ! A6    A(6,1,12)             109.581          estimate D2E/DX2                !
 ! A7    A(1,2,3)              113.8523         estimate D2E/DX2                !
 ! A8    A(1,2,8)              109.8006         estimate D2E/DX2                !
 ! A9    A(1,2,9)              109.9814         estimate D2E/DX2                !
 ! A10   A(3,2,8)              109.0511         estimate D2E/DX2                !
 ! A11   A(3,2,9)              111.7564         estimate D2E/DX2                !
 ! A12   A(8,2,9)              101.7031         estimate D2E/DX2                !
 ! A13   A(2,3,4)              110.9396         estimate D2E/DX2                !
 ! A14   A(2,3,10)             111.7187         estimate D2E/DX2                !
 ! A15   A(2,3,11)             110.4975         estimate D2E/DX2                !
 ! A16   A(4,3,10)             110.1828         estimate D2E/DX2                !
 ! A17   A(4,3,11)             110.9745         estimate D2E/DX2                !
 ! A18   A(10,3,11)            102.2373         estimate D2E/DX2                !
 ! A19   A(3,4,19)             108.4014         estimate D2E/DX2                !
 ! A20   A(3,4,20)             113.4205         estimate D2E/DX2                !
 ! A21   A(3,4,22)             112.6104         estimate D2E/DX2                !
 ! A22   A(19,4,20)            112.3584         estimate D2E/DX2                !
 ! A23   A(19,4,22)            103.3629         estimate D2E/DX2                !
 ! A24   A(20,4,22)            106.2782         estimate D2E/DX2                !
 ! A25   A(1,5,7)              108.2872         estimate D2E/DX2                !
 ! A26   A(1,5,14)             111.5304         estimate D2E/DX2                !
 ! A27   A(1,5,19)             115.4678         estimate D2E/DX2                !
 ! A28   A(7,5,14)             111.6695         estimate D2E/DX2                !
 ! A29   A(7,5,19)             100.3605         estimate D2E/DX2                !
 ! A30   A(14,5,19)            109.0422         estimate D2E/DX2                !
 ! A31   A(1,12,13)            111.2014         estimate D2E/DX2                !
 ! A32   A(5,14,15)            110.8695         estimate D2E/DX2                !
 ! A33   A(5,14,16)            113.2555         estimate D2E/DX2                !
 ! A34   A(5,14,17)            108.9107         estimate D2E/DX2                !
 ! A35   A(15,14,16)           108.8994         estimate D2E/DX2                !
 ! A36   A(15,14,17)           111.2906         estimate D2E/DX2                !
 ! A37   A(16,14,17)           103.411          estimate D2E/DX2                !
 ! A38   A(14,17,18)           110.65           estimate D2E/DX2                !
 ! A39   A(4,19,5)             119.1842         estimate D2E/DX2                !
 ! A40   A(4,20,21)            109.5            estimate D2E/DX2                !
 ! D1    D(5,1,2,3)            -37.7154         estimate D2E/DX2                !
 ! D2    D(5,1,2,8)             84.8666         estimate D2E/DX2                !
 ! D3    D(5,1,2,9)           -164.0144         estimate D2E/DX2                !
 ! D4    D(6,1,2,3)           -161.1216         estimate D2E/DX2                !
 ! D5    D(6,1,2,8)            -38.5396         estimate D2E/DX2                !
 ! D6    D(6,1,2,9)             72.5794         estimate D2E/DX2                !
 ! D7    D(12,1,2,3)            78.1045         estimate D2E/DX2                !
 ! D8    D(12,1,2,8)          -159.3135         estimate D2E/DX2                !
 ! D9    D(12,1,2,9)           -48.1945         estimate D2E/DX2                !
 ! D10   D(2,1,5,7)            146.3785         estimate D2E/DX2                !
 ! D11   D(2,1,5,14)           -90.3613         estimate D2E/DX2                !
 ! D12   D(2,1,5,19)            34.836          estimate D2E/DX2                !
 ! D13   D(6,1,5,7)            -89.4748         estimate D2E/DX2                !
 ! D14   D(6,1,5,14)            33.7854         estimate D2E/DX2                !
 ! D15   D(6,1,5,19)           158.9827         estimate D2E/DX2                !
 ! D16   D(12,1,5,7)            27.6148         estimate D2E/DX2                !
 ! D17   D(12,1,5,14)          150.875          estimate D2E/DX2                !
 ! D18   D(12,1,5,19)          -83.9277         estimate D2E/DX2                !
 ! D19   D(2,1,12,13)           74.6575         estimate D2E/DX2                !
 ! D20   D(5,1,12,13)         -163.7313         estimate D2E/DX2                !
 ! D21   D(6,1,12,13)          -46.8017         estimate D2E/DX2                !
 ! D22   D(1,2,3,4)             49.0099         estimate D2E/DX2                !
 ! D23   D(1,2,3,10)           172.3812         estimate D2E/DX2                !
 ! D24   D(1,2,3,11)           -74.5095         estimate D2E/DX2                !
 ! D25   D(8,2,3,4)            -73.9824         estimate D2E/DX2                !
 ! D26   D(8,2,3,10)            49.3888         estimate D2E/DX2                !
 ! D27   D(8,2,3,11)           162.4982         estimate D2E/DX2                !
 ! D28   D(9,2,3,4)            174.3717         estimate D2E/DX2                !
 ! D29   D(9,2,3,10)           -62.257          estimate D2E/DX2                !
 ! D30   D(9,2,3,11)            50.8523         estimate D2E/DX2                !
 ! D31   D(2,3,4,19)           -56.0679         estimate D2E/DX2                !
 ! D32   D(2,3,4,20)            69.4529         estimate D2E/DX2                !
 ! D33   D(2,3,4,22)          -169.7965         estimate D2E/DX2                !
 ! D34   D(10,3,4,19)          179.6827         estimate D2E/DX2                !
 ! D35   D(10,3,4,20)          -54.7966         estimate D2E/DX2                !
 ! D36   D(10,3,4,22)           65.9541         estimate D2E/DX2                !
 ! D37   D(11,3,4,19)           67.1774         estimate D2E/DX2                !
 ! D38   D(11,3,4,20)         -167.3018         estimate D2E/DX2                !
 ! D39   D(11,3,4,22)          -46.5512         estimate D2E/DX2                !
 ! D40   D(3,4,19,5)            57.32           estimate D2E/DX2                !
 ! D41   D(20,4,19,5)          -68.8219         estimate D2E/DX2                !
 ! D42   D(22,4,19,5)          177.0217         estimate D2E/DX2                !
 ! D43   D(3,4,20,21)          131.3027         estimate D2E/DX2                !
 ! D44   D(19,4,20,21)        -105.3201         estimate D2E/DX2                !
 ! D45   D(22,4,20,21)           7.0415         estimate D2E/DX2                !
 ! D46   D(1,5,14,15)          179.0259         estimate D2E/DX2                !
 ! D47   D(1,5,14,16)           56.2641         estimate D2E/DX2                !
 ! D48   D(1,5,14,17)          -58.1968         estimate D2E/DX2                !
 ! D49   D(7,5,14,15)          -59.6603         estimate D2E/DX2                !
 ! D50   D(7,5,14,16)          177.5779         estimate D2E/DX2                !
 ! D51   D(7,5,14,17)           63.117          estimate D2E/DX2                !
 ! D52   D(19,5,14,15)          50.3298         estimate D2E/DX2                !
 ! D53   D(19,5,14,16)         -72.432          estimate D2E/DX2                !
 ! D54   D(19,5,14,17)         173.1071         estimate D2E/DX2                !
 ! D55   D(1,5,19,4)           -47.4427         estimate D2E/DX2                !
 ! D56   D(7,5,19,4)          -163.5714         estimate D2E/DX2                !
 ! D57   D(14,5,19,4)           79.0284         estimate D2E/DX2                !
 ! D58   D(5,14,17,18)         -77.1441         estimate D2E/DX2                !
 ! D59   D(15,14,17,18)         45.3798         estimate D2E/DX2                !
 ! D60   D(16,14,17,18)        162.1425         estimate D2E/DX2                !
 --------------------------------------------------------------------------------
 Trust Radius=3.00D-01 FncErr=1.00D-07 GrdErr=1.00D-07
 Number of steps in this run=    132 maximum allowed number of steps=    132.
 GradGradGradGradGradGradGradGradGradGradGradGradGradGradGradGradGradGrad

 Leave Link  103 at Wed Apr 27 14:10:59 2016, MaxMem=   33554432 cpu:       0.0
 (Enter C:\G09W\l202.exe)
                          Input orientation:                          
 ---------------------------------------------------------------------
 Center     Atomic      Atomic             Coordinates (Angstroms)
 Number     Number       Type             X           Y           Z
 ---------------------------------------------------------------------
      1          6           0        0.962726   -0.885407    0.479635
      2          6           0       -0.345579   -1.100034   -0.331073
      3          6           0       -1.400849    0.027925   -0.133755
      4          6           0       -0.749356    1.441208   -0.310995
      5          6           0        1.409586    0.592289    0.548134
      6          1           0        1.798236   -1.508002    0.058039
      7          1           0        1.898474    0.767247    1.545761
      8          9           0       -0.055098   -1.208710   -1.652329
      9          9           0       -0.860361   -2.320046   -0.062381
     10          9           0       -2.446378   -0.112476   -0.977614
     11          9           0       -1.991376   -0.083614    1.074293
     12          8           0        0.737640   -1.246201    1.839290
     13          1           0        0.698831   -2.225126    1.946548
     14          6           0        2.351663    0.953695   -0.619225
     15          1           0        2.650366    2.016226   -0.569456
     16          1           0        1.911965    0.751240   -1.614203
     17          8           0        3.490153    0.092574   -0.578794
     18          1           0        4.115670    0.378342    0.121754
     19          8           0        0.351924    1.552188    0.608267
     20          8           0       -0.363716    1.724357   -1.658589
     21          1           0       -0.689685    2.591709   -1.909678
     22          1           0       -1.401580    2.235206   -0.012547
 ---------------------------------------------------------------------
                    Distance matrix (angstroms):
                    1          2          3          4          5
     1  C    0.000000
     2  C    1.554019   0.000000
     3  C    2.607088   1.557184   0.000000
     4  C    2.994905   2.573198   1.566278   0.000000
     5  C    1.545303   2.591827   2.946527   2.473822   0.000000
     6  H    1.124031   2.216707   3.553871   3.914620   2.191453
     7  H    2.177961   3.470593   3.775302   3.303448   1.124669
     8  F    2.384483   1.357169   2.376211   3.050121   3.198583
     9  F    2.382355   1.351157   2.410433   3.771096   3.742604
    10  F    3.787214   2.409698   1.350904   2.395454   4.206312
    11  F    3.118206   2.390985   1.349275   2.405560   3.507168
    12  O    1.424604   2.430062   3.176388   3.749273   2.344918
    13  H    2.004076   2.746667   3.716525   4.542659   3.224680
    14  C    2.553221   3.402345   3.895392   3.154203   1.543000
    15  H    3.516844   4.329387   4.533819   3.457681   2.194570
    16  H    2.822025   3.189066   3.699952   3.042538   2.225613
    17  O    2.909400   4.024490   4.911633   4.456901   2.418355
    18  H    3.415581   4.721588   5.533539   4.998543   2.747811
    19  O    2.516246   2.898819   2.438481   1.438811   1.429570
    20  O    3.625233   3.120867   2.505722   1.430000   3.048902
    21  H    4.530961   4.029810   3.198850   1.970533   3.800718
    22  H    3.945936   3.512894   2.210607   1.070000   3.303966
                    6          7          8          9         10
     6  H    0.000000
     7  H    2.720317   0.000000
     8  F    2.539642   4.236582   0.000000
     9  F    2.782455   4.441697   2.100345   0.000000
    10  F    4.586591   5.100889   2.715730   2.868182   0.000000
    11  F    4.174064   4.009636   3.528382   2.751881   2.101947
    12  O    2.089559   2.342577   3.580676   2.706123   4.399801
    13  H    2.299875   3.248703   3.814895   2.544776   4.786058
    14  C    2.612455   2.219754   3.396439   4.620017   4.928119
    15  H    3.679682   2.568936   4.346534   5.602284   5.538480
    16  H    2.813095   3.160033   2.777084   4.418907   4.488475
    17  O    2.414536   2.739044   3.926146   5.001439   5.953445
    18  H    2.988788   2.663644   4.802230   5.663576   6.671580
    19  O    3.429188   1.971508   3.591451   4.112615   3.621687
    20  O    4.250764   4.037502   2.949266   4.376269   2.859224
    21  H    5.183559   4.686927   3.861620   5.250426   3.356684
    22  H    4.924978   3.933648   4.045053   4.587562   2.744917
                   11         12         13         14         15
    11  F    0.000000
    12  O    3.063390   0.000000
    13  H    3.547410   0.985548   0.000000
    14  C    4.775563   3.672725   4.406807   0.000000
    15  H    5.353224   4.483749   5.303568   1.104841   0.000000
    16  H    4.812594   4.158777   4.796811   1.106483   1.799145
    17  O    5.728080   3.900741   4.420471   1.428049   2.098992
    18  H    6.198124   4.123125   4.667195   1.997949   2.303812
    19  O    2.895528   3.081424   4.022368   2.421546   2.623966
    20  O    3.658781   4.719360   5.452012   3.007903   3.218088
    21  H    4.213767   5.551718   6.324583   3.687567   3.644628
    22  H    2.627929   4.486174   5.305124   4.012127   4.095896
                   16         17         18         19         20
    16  H    0.000000
    17  O    1.999147   0.000000
    18  H    2.830003   0.981683   0.000000
    19  O    2.831010   3.658971   3.972454   0.000000
    20  O    2.475409   4.322150   5.004626   2.383363   0.000000
    21  H    3.200502   5.048561   5.667199   2.916436   0.960000
    22  H    3.968253   5.370341   5.822888   1.981590   2.011860
                   21         22
    21  H    0.000000
    22  H    2.057424   0.000000
 Stoichiometry    C6H8F4O4
 Framework group  C1[X(C6H8F4O4)]
 Deg. of freedom    60
 Full point group                 C1      NOp   1
 Largest Abelian subgroup         C1      NOp   1
 Largest concise Abelian subgroup C1      NOp   1
                         Standard orientation:                         
 ---------------------------------------------------------------------
 Center     Atomic      Atomic             Coordinates (Angstroms)
 Number     Number       Type             X           Y           Z
 ---------------------------------------------------------------------
      1          6           0       -0.708259   -1.153858   -0.123089
      2          6           0        0.631908   -0.780438    0.569360
      3          6           0        1.446472    0.312569   -0.183396
      4          6           0        0.538620    1.535868   -0.547500
      5          6           0       -1.432358    0.055524   -0.756364
      6          1           0       -1.400250   -1.665414    0.600031
      7          1           0       -1.964454   -0.297022   -1.682358
      8          9           0        0.392675   -0.359983    1.837387
      9          9           0        1.366713   -1.893849    0.783842
     10          9           0        2.515160    0.722479    0.534114
     11          9           0        2.024597   -0.205279   -1.287093
     12          8           0       -0.443559   -2.018715   -1.223750
     13          1           0       -0.219104   -2.927910   -0.916683
     14          6           0       -2.404251    0.719582    0.241284
     15          1           0       -2.902738    1.592718   -0.216774
     16          1           0       -1.915174    1.038395    1.181213
     17          8           0       -3.356289   -0.251879    0.676267
     18          1           0       -4.038174   -0.401569   -0.013899
     19          8           0       -0.580523    1.058300   -1.315370
     20          8           0        0.131113    2.299914    0.590512
     21          1           0        0.288729    3.232093    0.423775
     22          1           0        1.020115    2.221956   -1.212591
 ---------------------------------------------------------------------
 Rotational constants (GHZ):      0.9363331      0.6372310      0.5416609
 Leave Link  202 at Wed Apr 27 14:10:59 2016, MaxMem=   33554432 cpu:       0.0
 (Enter C:\G09W\l301.exe)
 Standard basis: VSTO-6G (5D, 7F)
 Ernie: Thresh=  0.10000D-02 Tol=  0.10000D-05 Strict=F.
  NNHCO=     0 NNPyr=     0 NCTC=     0               EPep=         0.000000000
    EC=       558.926241253  ECS=         4.381836075   EG=         0.428621870
   EHC=         0.001714510  EAt=      -139.732854878  AtH=         2.798287655
 EPDDG=         0.000000000  ECC=       563.738413707 EAtT=       142.531142533
 There are    64 symmetry adapted basis functions of A   symmetry.
 Integral buffers will be    131072 words long.
 Regular integral format.
 Two-electron integral symmetry is turned off.
    64 basis functions,   384 primitive gaussians,    64 cartesian basis functions
    42 alpha electrons       42 beta electrons
       nuclear repulsion energy       706.2695562397 Hartrees.
 IExCor=    0 DFT=F Ex=HF Corr=None ExCW=0 ScaHFX=  1.000000
 ScaDFX=  1.000000  1.000000  1.000000  1.000000 ScalE2=  1.000000  1.000000
 IRadAn=      0 IRanWt=     -1 IRanGd=            0 ICorTp=0
 Leave Link  301 at Wed Apr 27 14:10:59 2016, MaxMem=   33554432 cpu:       0.0
 (Enter C:\G09W\l302.exe)
 Do NDO integrals.
 NPDir=0 NMtPBC=     1 NCelOv=     1 NCel=       1 NClECP=     1 NCelD=      1
         NCelK=      1 NCelE2=     1 NClLst=     1 CellRange=     0.0.
 One-electron integrals computed using PRISM.
 NBasis=    64 RedAO= F  NBF=    64
 NBsUse=    64 1.00D-04 NBFU=    64
 Leave Link  302 at Wed Apr 27 14:10:59 2016, MaxMem=   33554432 cpu:       0.0
 (Enter C:\G09W\l303.exe)
 DipDrv:  MaxL=1.
 Leave Link  303 at Wed Apr 27 14:10:59 2016, MaxMem=   33554432 cpu:       0.0
 (Enter C:\G09W\l401.exe)
 Simple Huckel Guess.
 Initial guess orbital symmetries:
       Occupied  (A) (A) (A) (A) (A) (A) (A) (A) (A) (A) (A) (A)
                 (A) (A) (A) (A) (A) (A) (A) (A) (A) (A) (A) (A)
                 (A) (A) (A) (A) (A) (A) (A) (A) (A) (A) (A) (A)
                 (A) (A) (A) (A) (A) (A)
       Virtual   (A) (A) (A) (A) (A) (A) (A) (A) (A) (A) (A) (A)
                 (A) (A) (A) (A) (A) (A) (A) (A) (A) (A)
 The electronic state of the initial guess is 1-A.
 Leave Link  401 at Wed Apr 27 14:10:59 2016, MaxMem=   33554432 cpu:       0.0
 (Enter C:\G09W\l502.exe)
 Closed shell SCF:
 Requested convergence on RMS density matrix=1.00D-08 within 128 cycles.
 Requested convergence on MAX density matrix=1.00D-06.
 Requested convergence on             energy=1.00D-06.
 No special actions if energy rises.
 Using DIIS extrapolation, IDIIS=  1040.
 Overlap will be assumed to be unity.
 Two-electron integral symmetry not used.
 Keep J ints in memory in canonical form, NReq=901177.
 IEnd=       90137 IEndB=       90137 NGot=    33554432 MDV=    33474042
 LenX=    33474042 LenY=    33469505
 Symmetry not used in FoFDir.
 MinBra= 0 MaxBra= 1 Meth=40.
 IRaf=       0 NMat=   1 IRICut=       1 DoRegI=T DoRafI=F ISym2E= 0 JSym2E=0.

 Cycle   1  Pass 1  IDiag  1:
 E= 0.613380378390730    
 DIIS: error= 8.52D-02 at cycle   1 NSaved=   1.
 NSaved= 1 IEnMin= 1 EnMin= 0.613380378390730     IErMin= 1 ErrMin= 8.52D-02
 ErrMax= 8.52D-02 EMaxC= 1.00D-01 BMatC= 3.69D-01 BMatP= 3.69D-01
 IDIUse=3 WtCom= 1.48D-01 WtEn= 8.52D-01
 Coeff-Com:  0.100D+01
 Coeff-En:   0.100D+01
 Coeff:      0.100D+01
 GapD=    2.000 DampG=2.000 DampE=0.500 DampFc=1.0000 IDamp=-1.
 RMSDP=1.36D-02 MaxDP=1.21D-01              OVMax= 0.00D+00

 Cycle   2  Pass 1  IDiag  1:
 E=-0.398570211469178     Delta-E=       -1.011950589860 Rises=F Damp=F
 DIIS: error= 2.56D-02 at cycle   2 NSaved=   2.
 NSaved= 2 IEnMin= 2 EnMin=-0.398570211469178     IErMin= 2 ErrMin= 2.56D-02
 ErrMax= 2.56D-02 EMaxC= 1.00D-01 BMatC= 5.23D-02 BMatP= 3.69D-01
 IDIUse=3 WtCom= 7.44D-01 WtEn= 2.56D-01
 Coeff-Com: -0.479D+00 0.148D+01
 Coeff-En:   0.000D+00 0.100D+01
 Coeff:     -0.356D+00 0.136D+01
 RMSDP=7.68D-03 MaxDP=8.29D-02 DE=-1.01D+00 OVMax= 0.00D+00

 Cycle   3  Pass 1  IDiag  1:
 E=-0.579606403356252     Delta-E=       -0.181036191887 Rises=F Damp=F
 DIIS: error= 5.84D-03 at cycle   3 NSaved=   3.
 NSaved= 3 IEnMin= 3 EnMin=-0.579606403356252     IErMin= 3 ErrMin= 5.84D-03
 ErrMax= 5.84D-03 EMaxC= 1.00D-01 BMatC= 3.04D-03 BMatP= 5.23D-02
 IDIUse=3 WtCom= 9.42D-01 WtEn= 5.84D-02
 Coeff-Com:  0.135D+00-0.514D+00 0.138D+01
 Coeff-En:   0.000D+00 0.000D+00 0.100D+01
 Coeff:      0.127D+00-0.484D+00 0.136D+01
 RMSDP=2.48D-03 MaxDP=2.96D-02 DE=-1.81D-01 OVMax= 0.00D+00

 Cycle   4  Pass 1  IDiag  3:
 E=-0.596199503004868     Delta-E=       -0.016593099649 Rises=F Damp=F
 DIIS: error= 2.17D-03 at cycle   4 NSaved=   4.
 NSaved= 4 IEnMin= 4 EnMin=-0.596199503004868     IErMin= 4 ErrMin= 2.17D-03
 ErrMax= 2.17D-03 EMaxC= 1.00D-01 BMatC= 4.42D-04 BMatP= 3.04D-03
 IDIUse=3 WtCom= 9.78D-01 WtEn= 2.17D-02
 Coeff-Com:  0.227D-01-0.662D-01-0.397D+00 0.144D+01
 Coeff-En:   0.000D+00 0.000D+00 0.000D+00 0.100D+01
 Coeff:      0.222D-01-0.647D-01-0.388D+00 0.143D+01
 Gap=     0.419 Goal=   None    Shift=    0.000
 RMSDP=1.38D-03 MaxDP=1.71D-02 DE=-1.66D-02 OVMax= 0.00D+00

 Cycle   5  Pass 1  IDiag  3:
 E=-0.599183847077597     Delta-E=       -0.002984344073 Rises=F Damp=F
 DIIS: error= 4.29D-04 at cycle   5 NSaved=   5.
 NSaved= 5 IEnMin= 5 EnMin=-0.599183847077597     IErMin= 5 ErrMin= 4.29D-04
 ErrMax= 4.29D-04 EMaxC= 1.00D-01 BMatC= 1.81D-05 BMatP= 4.42D-04
 IDIUse=3 WtCom= 9.96D-01 WtEn= 4.29D-03
 Coeff-Com: -0.464D-02 0.152D-01 0.110D+00-0.533D+00 0.141D+01
 Coeff-En:   0.000D+00 0.000D+00 0.000D+00 0.000D+00 0.100D+01
 Coeff:     -0.462D-02 0.152D-01 0.109D+00-0.531D+00 0.141D+01
 Gap=     0.419 Goal=   None    Shift=    0.000
 RMSDP=2.91D-04 MaxDP=2.98D-03 DE=-2.98D-03 OVMax= 0.00D+00

 Cycle   6  Pass 1  IDiag  3:
 E=-0.599304815002142     Delta-E=       -0.000120967925 Rises=F Damp=F
 DIIS: error= 8.48D-05 at cycle   6 NSaved=   6.
 NSaved= 6 IEnMin= 6 EnMin=-0.599304815002142     IErMin= 6 ErrMin= 8.48D-05
 ErrMax= 8.48D-05 EMaxC= 1.00D-01 BMatC= 8.64D-07 BMatP= 1.81D-05
 IDIUse=1 WtCom= 1.00D+00 WtEn= 0.00D+00
 Coeff-Com:  0.117D-02-0.300D-02-0.503D-01 0.233D+00-0.734D+00 0.155D+01
 Coeff:      0.117D-02-0.300D-02-0.503D-01 0.233D+00-0.734D+00 0.155D+01
 Gap=     0.419 Goal=   None    Shift=    0.000
 RMSDP=6.10D-05 MaxDP=7.28D-04 DE=-1.21D-04 OVMax= 0.00D+00

 Cycle   7  Pass 1  IDiag  3:
 E=-0.599310241003423     Delta-E=       -0.000005426001 Rises=F Damp=F
 DIIS: error= 1.75D-05 at cycle   7 NSaved=   7.
 NSaved= 7 IEnMin= 7 EnMin=-0.599310241003423     IErMin= 7 ErrMin= 1.75D-05
 ErrMax= 1.75D-05 EMaxC= 1.00D-01 BMatC= 3.41D-08 BMatP= 8.64D-07
 IDIUse=1 WtCom= 1.00D+00 WtEn= 0.00D+00
 Coeff-Com:  0.772D-05-0.554D-03 0.189D-01-0.778D-01 0.252D+00-0.640D+00
 Coeff-Com:  0.145D+01
 Coeff:      0.772D-05-0.554D-03 0.189D-01-0.778D-01 0.252D+00-0.640D+00
 Coeff:      0.145D+01
 Gap=     0.419 Goal=   None    Shift=    0.000
 RMSDP=1.07D-05 MaxDP=1.19D-04 DE=-5.43D-06 OVMax= 0.00D+00

 Cycle   8  Pass 1  IDiag  3:
 E=-0.599310450541452     Delta-E=       -0.000000209538 Rises=F Damp=F
 DIIS: error= 6.14D-06 at cycle   8 NSaved=   8.
 NSaved= 8 IEnMin= 8 EnMin=-0.599310450541452     IErMin= 8 ErrMin= 6.14D-06
 ErrMax= 6.14D-06 EMaxC= 1.00D-01 BMatC= 3.50D-09 BMatP= 3.41D-08
 IDIUse=1 WtCom= 1.00D+00 WtEn= 0.00D+00
 Coeff-Com: -0.514D-04 0.440D-03-0.843D-02 0.334D-01-0.111D+00 0.302D+00
 Coeff-Com: -0.909D+00 0.169D+01
 Coeff:     -0.514D-04 0.440D-03-0.843D-02 0.334D-01-0.111D+00 0.302D+00
 Coeff:     -0.909D+00 0.169D+01
 Gap=     0.419 Goal=   None    Shift=    0.000
 RMSDP=4.05D-06 MaxDP=4.54D-05 DE=-2.10D-07 OVMax= 0.00D+00

 Cycle   9  Pass 1  IDiag  3:
 E=-0.599310475910215     Delta-E=       -0.000000025369 Rises=F Damp=F
 DIIS: error= 2.52D-06 at cycle   9 NSaved=   9.
 NSaved= 9 IEnMin= 9 EnMin=-0.599310475910215     IErMin= 9 ErrMin= 2.52D-06
 ErrMax= 2.52D-06 EMaxC= 1.00D-01 BMatC= 3.08D-10 BMatP= 3.50D-09
 IDIUse=1 WtCom= 1.00D+00 WtEn= 0.00D+00
 Coeff-Com:  0.140D-04-0.150D-03 0.306D-02-0.122D-01 0.423D-01-0.121D+00
 Coeff-Com:  0.394D+00-0.956D+00 0.165D+01
 Coeff:      0.140D-04-0.150D-03 0.306D-02-0.122D-01 0.423D-01-0.121D+00
 Coeff:      0.394D+00-0.956D+00 0.165D+01
 Gap=     0.419 Goal=   None    Shift=    0.000
 RMSDP=1.28D-06 MaxDP=1.79D-05 DE=-2.54D-08 OVMax= 0.00D+00

 Cycle  10  Pass 1  IDiag  3:
 E=-0.599310478201574     Delta-E=       -0.000000002291 Rises=F Damp=F
 DIIS: error= 5.73D-07 at cycle  10 NSaved=  10.
 NSaved=10 IEnMin=10 EnMin=-0.599310478201574     IErMin=10 ErrMin= 5.73D-07
 ErrMax= 5.73D-07 EMaxC= 1.00D-01 BMatC= 2.43D-11 BMatP= 3.08D-10
 IDIUse=1 WtCom= 1.00D+00 WtEn= 0.00D+00
 Coeff-Com: -0.223D-05 0.360D-04-0.792D-03 0.314D-02-0.118D-01 0.355D-01
 Coeff-Com: -0.120D+00 0.335D+00-0.824D+00 0.158D+01
 Coeff:     -0.223D-05 0.360D-04-0.792D-03 0.314D-02-0.118D-01 0.355D-01
 Coeff:     -0.120D+00 0.335D+00-0.824D+00 0.158D+01
 Gap=     0.419 Goal=   None    Shift=    0.000
 RMSDP=3.49D-07 MaxDP=4.54D-06 DE=-2.29D-09 OVMax= 0.00D+00

 Cycle  11  Pass 1  IDiag  3:
 E=-0.599310478380517     Delta-E=       -0.000000000179 Rises=F Damp=F
 DIIS: error= 1.70D-07 at cycle  11 NSaved=  11.
 NSaved=11 IEnMin=11 EnMin=-0.599310478380517     IErMin=11 ErrMin= 1.70D-07
 ErrMax= 1.70D-07 EMaxC= 1.00D-01 BMatC= 1.97D-12 BMatP= 2.43D-11
 IDIUse=1 WtCom= 1.00D+00 WtEn= 0.00D+00
 Coeff-Com: -0.174D-06-0.755D-05 0.207D-03-0.820D-03 0.337D-02-0.106D-01
 Coeff-Com:  0.361D-01-0.109D+00 0.314D+00-0.846D+00 0.161D+01
 Coeff:     -0.174D-06-0.755D-05 0.207D-03-0.820D-03 0.337D-02-0.106D-01
 Coeff:      0.361D-01-0.109D+00 0.314D+00-0.846D+00 0.161D+01
 Gap=     0.419 Goal=   None    Shift=    0.000
 RMSDP=9.95D-08 MaxDP=1.47D-06 DE=-1.79D-10 OVMax= 0.00D+00

 Cycle  12  Pass 1  IDiag  3:
 E=-0.599310478388702     Delta-E=       -0.000000000008 Rises=F Damp=F
 DIIS: error= 3.25D-08 at cycle  12 NSaved=  12.
 NSaved=12 IEnMin=12 EnMin=-0.599310478388702     IErMin=12 ErrMin= 3.25D-08
 ErrMax= 3.25D-08 EMaxC= 1.00D-01 BMatC= 1.26D-13 BMatP= 1.97D-12
 IDIUse=1 WtCom= 1.00D+00 WtEn= 0.00D+00
 Coeff-Com: -0.886D-07 0.247D-05-0.474D-04 0.180D-03-0.832D-03 0.280D-02
 Coeff-Com: -0.955D-02 0.303D-01-0.936D-01 0.290D+00-0.759D+00 0.154D+01
 Coeff:     -0.886D-07 0.247D-05-0.474D-04 0.180D-03-0.832D-03 0.280D-02
 Coeff:     -0.955D-02 0.303D-01-0.936D-01 0.290D+00-0.759D+00 0.154D+01
 Gap=     0.419 Goal=   None    Shift=    0.000
 RMSDP=2.46D-08 MaxDP=2.50D-07 DE=-8.19D-12 OVMax= 0.00D+00

 Cycle  13  Pass 1  IDiag  3:
 E=-0.599310478393818     Delta-E=       -0.000000000005 Rises=F Damp=F
 DIIS: error= 1.34D-08 at cycle  13 NSaved=  13.
 NSaved=13 IEnMin=13 EnMin=-0.599310478393818     IErMin=13 ErrMin= 1.34D-08
 ErrMax= 1.34D-08 EMaxC= 1.00D-01 BMatC= 1.07D-14 BMatP= 1.26D-13
 IDIUse=1 WtCom= 1.00D+00 WtEn= 0.00D+00
 Coeff-Com:  0.895D-07-0.100D-05 0.119D-04-0.417D-04 0.237D-03-0.871D-03
 Coeff-Com:  0.301D-02-0.100D-01 0.331D-01-0.112D+00 0.337D+00-0.909D+00
 Coeff-Com:  0.166D+01
 Coeff:      0.895D-07-0.100D-05 0.119D-04-0.417D-04 0.237D-03-0.871D-03
 Coeff:      0.301D-02-0.100D-01 0.331D-01-0.112D+00 0.337D+00-0.909D+00
 Coeff:      0.166D+01
 Gap=     0.419 Goal=   None    Shift=    0.000
 RMSDP=7.27D-09 MaxDP=9.57D-08 DE=-5.12D-12 OVMax= 0.00D+00

 Cycle  14  Pass 2  IDiag  1:
 RMSDP=7.27D-09 MaxDP=9.57D-08 DE=-5.12D-12 OVMax= 0.00D+00

 SCF Done:  E(RPM6) = -0.599310478394     A.U. after   14 cycles
             Convg  =    0.7268D-08             -V/T =  0.9905
 KE=-6.340575872893D+01 PE=-1.285467864546D+03 EE= 6.420047565563D+02
 Leave Link  502 at Wed Apr 27 14:10:59 2016, MaxMem=   33554432 cpu:       0.0
 (Enter C:\G09W\l601.exe)
 Copying SCF densities to generalized density rwf, IOpCl= 0 IROHF=0.

 **********************************************************************

            Population analysis using the SCF density.

 **********************************************************************

 Orbital symmetries:
       Occupied  (A) (A) (A) (A) (A) (A) (A) (A) (A) (A) (A) (A)
                 (A) (A) (A) (A) (A) (A) (A) (A) (A) (A) (A) (A)
                 (A) (A) (A) (A) (A) (A) (A) (A) (A) (A) (A) (A)
                 (A) (A) (A) (A) (A) (A)
       Virtual   (A) (A) (A) (A) (A) (A) (A) (A) (A) (A) (A) (A)
                 (A) (A) (A) (A) (A) (A) (A) (A) (A) (A)
 The electronic state is 1-A.
 Alpha  occ. eigenvalues --   -1.56748  -1.56197  -1.55877  -1.55139  -1.16365
 Alpha  occ. eigenvalues --   -1.14217  -1.11868  -1.11539  -1.01906  -1.01639
 Alpha  occ. eigenvalues --   -0.92158  -0.88500  -0.85655  -0.77252  -0.73072
 Alpha  occ. eigenvalues --   -0.71937  -0.70314  -0.69749  -0.69033  -0.67007
 Alpha  occ. eigenvalues --   -0.65978  -0.64807  -0.63147  -0.62745  -0.61909
 Alpha  occ. eigenvalues --   -0.61658  -0.60844  -0.58604  -0.58265  -0.57210
 Alpha  occ. eigenvalues --   -0.56404  -0.55084  -0.54152  -0.52880  -0.51864
 Alpha  occ. eigenvalues --   -0.49030  -0.47264  -0.46583  -0.44238  -0.42943
 Alpha  occ. eigenvalues --   -0.41582  -0.39843
 Alpha virt. eigenvalues --    0.02042   0.03051   0.04143   0.04827   0.06186
 Alpha virt. eigenvalues --    0.06303   0.07204   0.07742   0.07963   0.09020
 Alpha virt. eigenvalues --    0.09998   0.10469   0.11036   0.11650   0.14963
 Alpha virt. eigenvalues --    0.16362   0.16432   0.17531   0.17602   0.18425
 Alpha virt. eigenvalues --    0.18782   0.20063
          Condensed to atoms (all electrons):
              1          2          3          4          5          6
     1  C    3.968815   0.000000   0.000000   0.000000   0.000000   0.000000
     2  C    0.000000   3.750934   0.000000   0.000000   0.000000   0.000000
     3  C    0.000000   0.000000   3.786008   0.000000   0.000000   0.000000
     4  C    0.000000   0.000000   0.000000   3.692308   0.000000   0.000000
     5  C    0.000000   0.000000   0.000000   0.000000   3.909026   0.000000
     6  H    0.000000   0.000000   0.000000   0.000000   0.000000   0.823313
     7  H    0.000000   0.000000   0.000000   0.000000   0.000000   0.000000
     8  F    0.000000   0.000000   0.000000   0.000000   0.000000   0.000000
     9  F    0.000000   0.000000   0.000000   0.000000   0.000000   0.000000
    10  F    0.000000   0.000000   0.000000   0.000000   0.000000   0.000000
    11  F    0.000000   0.000000   0.000000   0.000000   0.000000   0.000000
    12  O    0.000000   0.000000   0.000000   0.000000   0.000000   0.000000
    13  H    0.000000   0.000000   0.000000   0.000000   0.000000   0.000000
    14  C    0.000000   0.000000   0.000000   0.000000   0.000000   0.000000
    15  H    0.000000   0.000000   0.000000   0.000000   0.000000   0.000000
    16  H    0.000000   0.000000   0.000000   0.000000   0.000000   0.000000
    17  O    0.000000   0.000000   0.000000   0.000000   0.000000   0.000000
    18  H    0.000000   0.000000   0.000000   0.000000   0.000000   0.000000
    19  O    0.000000   0.000000   0.000000   0.000000   0.000000   0.000000
    20  O    0.000000   0.000000   0.000000   0.000000   0.000000   0.000000
    21  H    0.000000   0.000000   0.000000   0.000000   0.000000   0.000000
    22  H    0.000000   0.000000   0.000000   0.000000   0.000000   0.000000
              7          8          9         10         11         12
     1  C    0.000000   0.000000   0.000000   0.000000   0.000000   0.000000
     2  C    0.000000   0.000000   0.000000   0.000000   0.000000   0.000000
     3  C    0.000000   0.000000   0.000000   0.000000   0.000000   0.000000
     4  C    0.000000   0.000000   0.000000   0.000000   0.000000   0.000000
     5  C    0.000000   0.000000   0.000000   0.000000   0.000000   0.000000
     6  H    0.000000   0.000000   0.000000   0.000000   0.000000   0.000000
     7  H    0.820833   0.000000   0.000000   0.000000   0.000000   0.000000
     8  F    0.000000   7.151564   0.000000   0.000000   0.000000   0.000000
     9  F    0.000000   0.000000   7.158479   0.000000   0.000000   0.000000
    10  F    0.000000   0.000000   0.000000   7.143043   0.000000   0.000000
    11  F    0.000000   0.000000   0.000000   0.000000   7.126956   0.000000
    12  O    0.000000   0.000000   0.000000   0.000000   0.000000   6.518574
    13  H    0.000000   0.000000   0.000000   0.000000   0.000000   0.000000
    14  C    0.000000   0.000000   0.000000   0.000000   0.000000   0.000000
    15  H    0.000000   0.000000   0.000000   0.000000   0.000000   0.000000
    16  H    0.000000   0.000000   0.000000   0.000000   0.000000   0.000000
    17  O    0.000000   0.000000   0.000000   0.000000   0.000000   0.000000
    18  H    0.000000   0.000000   0.000000   0.000000   0.000000   0.000000
    19  O    0.000000   0.000000   0.000000   0.000000   0.000000   0.000000
    20  O    0.000000   0.000000   0.000000   0.000000   0.000000   0.000000
    21  H    0.000000   0.000000   0.000000   0.000000   0.000000   0.000000
    22  H    0.000000   0.000000   0.000000   0.000000   0.000000   0.000000
             13         14         15         16         17         18
     1  C    0.000000   0.000000   0.000000   0.000000   0.000000   0.000000
     2  C    0.000000   0.000000   0.000000   0.000000   0.000000   0.000000
     3  C    0.000000   0.000000   0.000000   0.000000   0.000000   0.000000
     4  C    0.000000   0.000000   0.000000   0.000000   0.000000   0.000000
     5  C    0.000000   0.000000   0.000000   0.000000   0.000000   0.000000
     6  H    0.000000   0.000000   0.000000   0.000000   0.000000   0.000000
     7  H    0.000000   0.000000   0.000000   0.000000   0.000000   0.000000
     8  F    0.000000   0.000000   0.000000   0.000000   0.000000   0.000000
     9  F    0.000000   0.000000   0.000000   0.000000   0.000000   0.000000
    10  F    0.000000   0.000000   0.000000   0.000000   0.000000   0.000000
    11  F    0.000000   0.000000   0.000000   0.000000   0.000000   0.000000
    12  O    0.000000   0.000000   0.000000   0.000000   0.000000   0.000000
    13  H    0.675538   0.000000   0.000000   0.000000   0.000000   0.000000
    14  C    0.000000   4.070313   0.000000   0.000000   0.000000   0.000000
    15  H    0.000000   0.000000   0.859899   0.000000   0.000000   0.000000
    16  H    0.000000   0.000000   0.000000   0.817761   0.000000   0.000000
    17  O    0.000000   0.000000   0.000000   0.000000   6.531036   0.000000
    18  H    0.000000   0.000000   0.000000   0.000000   0.000000   0.691316
    19  O    0.000000   0.000000   0.000000   0.000000   0.000000   0.000000
    20  O    0.000000   0.000000   0.000000   0.000000   0.000000   0.000000
    21  H    0.000000   0.000000   0.000000   0.000000   0.000000   0.000000
    22  H    0.000000   0.000000   0.000000   0.000000   0.000000   0.000000
             19         20         21         22
     1  C    0.000000   0.000000   0.000000   0.000000
     2  C    0.000000   0.000000   0.000000   0.000000
     3  C    0.000000   0.000000   0.000000   0.000000
     4  C    0.000000   0.000000   0.000000   0.000000
     5  C    0.000000   0.000000   0.000000   0.000000
     6  H    0.000000   0.000000   0.000000   0.000000
     7  H    0.000000   0.000000   0.000000   0.000000
     8  F    0.000000   0.000000   0.000000   0.000000
     9  F    0.000000   0.000000   0.000000   0.000000
    10  F    0.000000   0.000000   0.000000   0.000000
    11  F    0.000000   0.000000   0.000000   0.000000
    12  O    0.000000   0.000000   0.000000   0.000000
    13  H    0.000000   0.000000   0.000000   0.000000
    14  C    0.000000   0.000000   0.000000   0.000000
    15  H    0.000000   0.000000   0.000000   0.000000
    16  H    0.000000   0.000000   0.000000   0.000000
    17  O    0.000000   0.000000   0.000000   0.000000
    18  H    0.000000   0.000000   0.000000   0.000000
    19  O    6.436319   0.000000   0.000000   0.000000
    20  O    0.000000   6.537266   0.000000   0.000000
    21  H    0.000000   0.000000   0.672282   0.000000
    22  H    0.000000   0.000000   0.000000   0.858417
 Mulliken atomic charges:
              1
     1  C    0.031185
     2  C    0.249066
     3  C    0.213992
     4  C    0.307692
     5  C    0.090974
     6  H    0.176687
     7  H    0.179167
     8  F   -0.151564
     9  F   -0.158479
    10  F   -0.143043
    11  F   -0.126956
    12  O   -0.518574
    13  H    0.324462
    14  C   -0.070313
    15  H    0.140101
    16  H    0.182239
    17  O   -0.531036
    18  H    0.308684
    19  O   -0.436319
    20  O   -0.537266
    21  H    0.327718
    22  H    0.141583
 Sum of Mulliken atomic charges =   0.00000
 Mulliken charges with hydrogens summed into heavy atoms:
              1
     1  C    0.207872
     2  C    0.249066
     3  C    0.213992
     4  C    0.449275
     5  C    0.270141
     8  F   -0.151564
     9  F   -0.158479
    10  F   -0.143043
    11  F   -0.126956
    12  O   -0.194112
    14  C    0.252027
    17  O   -0.222352
    19  O   -0.436319
    20  O   -0.209548
 Sum of Mulliken charges with hydrogens summed into heavy atoms =   0.00000
 Charge=              0.0000 electrons
 Dipole moment (field-independent basis, Debye):
    X=             -1.9413    Y=              1.5377    Z=             -1.3669  Tot=              2.8287
 N-N= 7.062695562397D+02 E-N=-1.285467864639D+03  KE=-6.340575872893D+01
 Leave Link  601 at Wed Apr 27 14:11:00 2016, MaxMem=   33554432 cpu:       0.0
 (Enter C:\G09W\l701.exe)
 Compute integral first derivatives.
 ... and contract with generalized density number  0.
 Leave Link  701 at Wed Apr 27 14:11:00 2016, MaxMem=   33554432 cpu:       0.0
 (Enter C:\G09W\l702.exe)
 L702 exits ... SP integral derivatives will be done elsewhere.
 Leave Link  702 at Wed Apr 27 14:11:00 2016, MaxMem=   33554432 cpu:       0.0
 (Enter C:\G09W\l703.exe)
 Compute integral first derivatives, UseDBF=F ICtDFT=           0.
 Integral derivatives from FoFDir, PRISM(SPDF).
 Calling FoFJK, ICntrl=      2127 FMM=F ISym2X=0 I1Cent= 0 IOpClX= 0 NMat=1 NMatS=1 NMatT=0.
 FoFCou: FMM=F IPFlag=           0 FMFlag=      100000 FMFlg1=         800
         NFxFlg=           0 DoJE=F BraDBF=F KetDBF=F FulRan=T
         Omega=  0.000000  0.000000  1.000000  0.000000  0.000000 ICntrl=    2127 IOpCl=  0
         NMat0=    1 NMatS0=    1 NMatT0=    0 NMatD0=    1 NMtDS0=    0 NMtDT0=    0
         I1Cent=           0 NGrid=           0.
 Symmetry not used in FoFCou.
 Leave Link  703 at Wed Apr 27 14:11:00 2016, MaxMem=   33554432 cpu:       0.0
 (Enter C:\G09W\l716.exe)
 Dipole        =-7.63778890D-01 6.04962509D-01-5.37785124D-01
 ***** Axes restored to original set *****
 -------------------------------------------------------------------
 Center     Atomic                   Forces (Hartrees/Bohr)
 Number     Number              X              Y              Z
 -------------------------------------------------------------------
      1        6          -0.000120472    0.000605235   -0.000451774
      2        6           0.002115130    0.000593605   -0.003005743
      3        6           0.008939820   -0.001284993   -0.012366883
      4        6           0.009060906   -0.004107979    0.007020010
      5        6           0.003161497   -0.001819375   -0.001843254
      6        1          -0.000148191    0.000141529   -0.000109387
      7        1          -0.000587270    0.000179362   -0.000056517
      8        9          -0.000797883   -0.000683702    0.001904931
      9        9          -0.000694444   -0.000612705    0.000440046
     10        9          -0.000821805    0.000904826    0.000250881
     11        9           0.000897296    0.003499427   -0.000616524
     12        8          -0.000218266   -0.000692920    0.000777291
     13        1           0.000063493    0.000300307    0.000028578
     14        6           0.000658324    0.000290974    0.001086259
     15        1          -0.000358862   -0.000607939   -0.000228253
     16        1          -0.002375096    0.000357685   -0.001159203
     17        8           0.001396679    0.000085125    0.001069904
     18        1          -0.000276005   -0.000420056   -0.000473906
     19        8          -0.012175243    0.002144329   -0.016536826
     20        8           0.007421677   -0.024759262    0.015155034
     21        1          -0.001258180    0.009886681   -0.004708407
     22        1          -0.013883104    0.015999845    0.013823745
 -------------------------------------------------------------------
 Cartesian Forces:  Max     0.024759262 RMS     0.006197139
 Leave Link  716 at Wed Apr 27 14:11:00 2016, MaxMem=   33554432 cpu:       0.0
 (Enter C:\G09W\l103.exe)

 GradGradGradGradGradGradGradGradGradGradGradGradGradGradGradGradGradGrad
 Berny optimization.
 Internal  Forces:  Max     0.024191031 RMS     0.004108820
 Search for a local minimum.
 Step number   1 out of a maximum of  132
 All quantities printed in internal units (Hartrees-Bohrs-Radians)
 RMS Force = .41088D-02 SwitMx=.10000D-02 MixMth= 1
 Mixed Optimization -- RFO/linear search
 Second derivative matrix not updated -- first step.
 ITU=  0
     Eigenvalues ---    0.00230   0.00359   0.00493   0.01162   0.01295
     Eigenvalues ---    0.01321   0.01366   0.03033   0.03330   0.04313
     Eigenvalues ---    0.04465   0.04941   0.05070   0.05190   0.05395
     Eigenvalues ---    0.05791   0.06223   0.06930   0.07397   0.07445
     Eigenvalues ---    0.08122   0.09405   0.10634   0.11172   0.11522
     Eigenvalues ---    0.12706   0.13493   0.13696   0.15267   0.16000
     Eigenvalues ---    0.16000   0.16000   0.17757   0.19048   0.19165
     Eigenvalues ---    0.20629   0.21974   0.22338   0.25585   0.26632
     Eigenvalues ---    0.27001   0.27679   0.28255   0.31095   0.31159
     Eigenvalues ---    0.32975   0.33152   0.37230   0.38455   0.39895
     Eigenvalues ---    0.40989   0.41271   0.41774   0.50322   0.51059
     Eigenvalues ---    0.53524   0.54776   0.54830   0.55176   0.55473
 RFO step:  Lambda=-1.09917157D-02 EMin= 2.30000000D-03
 Linear search not attempted -- first point.
 Iteration  1 RMS(Cart)=  0.06145772 RMS(Int)=  0.00316773
 Iteration  2 RMS(Cart)=  0.00366404 RMS(Int)=  0.00096076
 Iteration  3 RMS(Cart)=  0.00001649 RMS(Int)=  0.00096066
 Iteration  4 RMS(Cart)=  0.00000002 RMS(Int)=  0.00096066
 Variable       Old X    -DE/DX   Delta X   Delta X   Delta X     New X
                                 (Linear)    (Quad)   (Total)
    R1        2.93667  -0.00079   0.00000  -0.00431  -0.00499   2.93168
    R2        2.92020   0.00033   0.00000  -0.00270  -0.00339   2.91681
    R3        2.12411  -0.00015   0.00000  -0.00046  -0.00046   2.12365
    R4        2.69211   0.00089   0.00000   0.00208   0.00208   2.69420
    R5        2.94265  -0.00041   0.00000   0.00061   0.00060   2.94325
    R6        2.56468  -0.00197   0.00000  -0.00361  -0.00361   2.56107
    R7        2.55332   0.00091   0.00000   0.00162   0.00162   2.55494
    R8        2.95984  -0.00806   0.00000  -0.02545  -0.02473   2.93511
    R9        2.55284   0.00039   0.00000   0.00069   0.00069   2.55353
   R10        2.54976  -0.00123   0.00000  -0.00219  -0.00219   2.54757
   R11        2.71896  -0.01904   0.00000  -0.04574  -0.04513   2.67383
   R12        2.70231  -0.01113   0.00000  -0.02644  -0.02644   2.67587
   R13        2.02201   0.02419   0.00000   0.06311   0.06311   2.08512
   R14        2.12532  -0.00028   0.00000  -0.00086  -0.00086   2.12446
   R15        2.91585  -0.00087   0.00000  -0.00298  -0.00298   2.91287
   R16        2.70150   0.00345   0.00000   0.00699   0.00708   2.70857
   R17        1.86242  -0.00030   0.00000  -0.00058  -0.00058   1.86184
   R18        2.08785  -0.00069   0.00000  -0.00202  -0.00202   2.08583
   R19        2.09095   0.00192   0.00000   0.00564   0.00564   2.09659
   R20        2.69862   0.00111   0.00000   0.00263   0.00263   2.70125
   R21        1.85511  -0.00064   0.00000  -0.00122  -0.00122   1.85389
   R22        1.81414   0.01059   0.00000   0.01872   0.01872   1.83286
    A1        1.98083  -0.00252   0.00000  -0.00609  -0.00628   1.97455
    A2        1.93223  -0.00020   0.00000  -0.00290  -0.00265   1.92958
    A3        1.90700   0.00162   0.00000   0.00429   0.00412   1.91112
    A4        1.90852   0.00067   0.00000   0.00102   0.00123   1.90975
    A5        1.81890   0.00095   0.00000   0.00256   0.00245   1.82134
    A6        1.91255  -0.00042   0.00000   0.00170   0.00167   1.91422
    A7        1.98710  -0.00117   0.00000  -0.00207  -0.00270   1.98440
    A8        1.91638  -0.00071   0.00000   0.00145   0.00207   1.91845
    A9        1.91954   0.00182   0.00000   0.00254   0.00233   1.92187
   A10        1.90330   0.00082   0.00000   0.00208   0.00207   1.90537
   A11        1.95052  -0.00031   0.00000  -0.00208  -0.00166   1.94886
   A12        1.77505  -0.00038   0.00000  -0.00179  -0.00189   1.77316
   A13        1.93626   0.00142   0.00000   0.01911   0.02011   1.95637
   A14        1.94986  -0.00062   0.00000   0.00419   0.00393   1.95379
   A15        1.92855   0.00282   0.00000   0.00872   0.00846   1.93701
   A16        1.92305   0.00111   0.00000  -0.00146  -0.00244   1.92061
   A17        1.93687  -0.00525   0.00000  -0.03133  -0.03127   1.90560
   A18        1.78438   0.00032   0.00000  -0.00172  -0.00173   1.78265
   A19        1.89196   0.00713   0.00000   0.01945   0.01658   1.90854
   A20        1.97956  -0.01246   0.00000  -0.08553  -0.08847   1.89109
   A21        1.96542   0.00176   0.00000   0.03569   0.03600   2.00142
   A22        1.96102  -0.00456   0.00000  -0.07629  -0.08025   1.88078
   A23        1.80402  -0.00234   0.00000   0.00393   0.00420   1.80822
   A24        1.85490   0.01131   0.00000   0.11124   0.11357   1.96847
   A25        1.88997   0.00076   0.00000   0.00145   0.00110   1.89107
   A26        1.94657  -0.00183   0.00000  -0.00368  -0.00314   1.94343
   A27        2.01529   0.00097   0.00000   0.00152   0.00128   2.01657
   A28        1.94900   0.00096   0.00000   0.00945   0.00940   1.95840
   A29        1.75162  -0.00084   0.00000  -0.00294  -0.00272   1.74890
   A30        1.90315   0.00019   0.00000  -0.00485  -0.00504   1.89810
   A31        1.94083   0.00010   0.00000   0.00057   0.00057   1.94140
   A32        1.93504   0.00023   0.00000  -0.00014  -0.00017   1.93487
   A33        1.97668  -0.00161   0.00000  -0.01199  -0.01201   1.96467
   A34        1.90085   0.00021   0.00000   0.00245   0.00246   1.90331
   A35        1.90065   0.00012   0.00000  -0.00258  -0.00264   1.89802
   A36        1.94239  -0.00012   0.00000   0.00138   0.00138   1.94377
   A37        1.80486   0.00122   0.00000   0.01161   0.01163   1.81649
   A38        1.93121   0.00048   0.00000   0.00283   0.00283   1.93404
   A39        2.08016  -0.00057   0.00000  -0.00190  -0.00085   2.07930
   A40        1.91114   0.00485   0.00000   0.02836   0.02836   1.93950
    D1       -0.65826  -0.00050   0.00000   0.00731   0.00769  -0.65056
    D2        1.48120  -0.00079   0.00000   0.00965   0.01003   1.49124
    D3       -2.86259  -0.00066   0.00000   0.00963   0.01012  -2.85248
    D4       -2.81210   0.00064   0.00000   0.01271   0.01271  -2.79940
    D5       -0.67264   0.00034   0.00000   0.01505   0.01505  -0.65760
    D6        1.26675   0.00048   0.00000   0.01502   0.01513   1.28188
    D7        1.36318   0.00023   0.00000   0.00965   0.00964   1.37282
    D8       -2.78054  -0.00006   0.00000   0.01199   0.01198  -2.76856
    D9       -0.84115   0.00007   0.00000   0.01196   0.01206  -0.82909
   D10        2.55479   0.00150   0.00000   0.01934   0.01886   2.57364
   D11       -1.57710   0.00204   0.00000   0.02982   0.02940  -1.54771
   D12        0.60800   0.00153   0.00000   0.02121   0.02081   0.62881
   D13       -1.56163  -0.00006   0.00000   0.01195   0.01185  -1.54978
   D14        0.58967   0.00048   0.00000   0.02243   0.02239   0.61205
   D15        2.77477  -0.00003   0.00000   0.01382   0.01380   2.78857
   D16        0.48197   0.00026   0.00000   0.01573   0.01564   0.49761
   D17        2.63327   0.00081   0.00000   0.02621   0.02618   2.65944
   D18       -1.46481   0.00029   0.00000   0.01761   0.01759  -1.44722
   D19        1.30302   0.00074   0.00000   0.00266   0.00285   1.30587
   D20       -2.85765  -0.00086   0.00000  -0.00086  -0.00104  -2.85869
   D21       -0.81684   0.00022   0.00000   0.00246   0.00246  -0.81438
   D22        0.85538  -0.00390   0.00000  -0.03679  -0.03588   0.81951
   D23        3.00862  -0.00187   0.00000  -0.02173  -0.02115   2.98747
   D24       -1.30044  -0.00017   0.00000  -0.01625  -0.01591  -1.31635
   D25       -1.29124  -0.00278   0.00000  -0.03879  -0.03823  -1.32947
   D26        0.86200  -0.00075   0.00000  -0.02373  -0.02350   0.83849
   D27        2.83613   0.00095   0.00000  -0.01825  -0.01826   2.81787
   D28        3.04336  -0.00263   0.00000  -0.03671  -0.03625   3.00711
   D29       -1.08659  -0.00060   0.00000  -0.02166  -0.02152  -1.10811
   D30        0.88754   0.00110   0.00000  -0.01618  -0.01628   0.87126
   D31       -0.97857   0.00328   0.00000   0.03566   0.03570  -0.94287
   D32        1.21218  -0.00612   0.00000  -0.11033  -0.10949   1.10269
   D33       -2.96351   0.00087   0.00000  -0.00031  -0.00094  -2.96444
   D34        3.13605   0.00228   0.00000   0.01786   0.01794  -3.12919
   D35       -0.95638  -0.00713   0.00000  -0.12813  -0.12725  -1.08363
   D36        1.15112  -0.00013   0.00000  -0.01811  -0.01869   1.13242
   D37        1.17247   0.00418   0.00000   0.03821   0.03827   1.21074
   D38       -2.91997  -0.00522   0.00000  -0.10778  -0.10692  -3.02688
   D39       -0.81247   0.00177   0.00000   0.00224   0.00164  -0.81083
   D40        1.00042  -0.00492   0.00000  -0.02010  -0.01982   0.98061
   D41       -1.20117   0.00909   0.00000   0.13036   0.12972  -1.07144
   D42        3.08961  -0.00080   0.00000   0.03204   0.03246   3.12207
   D43        2.29166   0.00287   0.00000   0.09213   0.08720   2.37886
   D44       -1.83818  -0.00088   0.00000  -0.00861  -0.00283  -1.84101
   D45        0.12290   0.00053   0.00000   0.02189   0.02104   0.14394
   D46        3.12459  -0.00036   0.00000  -0.00277  -0.00273   3.12186
   D47        0.98199   0.00049   0.00000   0.00947   0.00947   0.99147
   D48       -1.01573  -0.00022   0.00000   0.00052   0.00055  -1.01518
   D49       -1.04127   0.00001   0.00000   0.00314   0.00309  -1.03818
   D50        3.09932   0.00085   0.00000   0.01538   0.01530   3.11462
   D51        1.10160   0.00014   0.00000   0.00643   0.00638   1.10798
   D52        0.87842  -0.00040   0.00000   0.00181   0.00186   0.88029
   D53       -1.26418   0.00045   0.00000   0.01405   0.01407  -1.25011
   D54        3.02129  -0.00026   0.00000   0.00510   0.00515   3.02644
   D55       -0.82803   0.00239   0.00000  -0.01235  -0.01343  -0.84146
   D56       -2.85486   0.00159   0.00000  -0.01291  -0.01361  -2.86847
   D57        1.37931   0.00083   0.00000  -0.02025  -0.02094   1.35836
   D58       -1.34642  -0.00045   0.00000  -0.00141  -0.00141  -1.34782
   D59        0.79203  -0.00010   0.00000   0.00098   0.00097   0.79300
   D60        2.82992   0.00066   0.00000   0.00507   0.00506   2.83498
         Item               Value     Threshold  Converged?
 Maximum Force            0.024191     0.000450     NO 
 RMS     Force            0.004109     0.000300     NO 
 Maximum Displacement     0.407428     0.001800     NO 
 RMS     Displacement     0.062979     0.001200     NO 
 Predicted change in Energy=-5.993592D-03
 GradGradGradGradGradGradGradGradGradGradGradGradGradGradGradGradGradGrad

 Leave Link  103 at Wed Apr 27 14:11:00 2016, MaxMem=   33554432 cpu:       0.0
 (Enter C:\G09W\l202.exe)
                          Input orientation:                          
 ---------------------------------------------------------------------
 Center     Atomic      Atomic             Coordinates (Angstroms)
 Number     Number       Type             X           Y           Z
 ---------------------------------------------------------------------
      1          6           0        0.959459   -0.882298    0.482350
      2          6           0       -0.341688   -1.096346   -0.334951
      3          6           0       -1.394761    0.035023   -0.142972
      4          6           0       -0.761465    1.448441   -0.259562
      5          6           0        1.393139    0.597224    0.555506
      6          1           0        1.798432   -1.496996    0.056710
      7          1           0        1.893902    0.770651    1.546977
      8          9           0       -0.045831   -1.210010   -1.652630
      9          9           0       -0.863622   -2.314555   -0.067568
     10          9           0       -2.426190   -0.083094   -1.007916
     11          9           0       -2.011459   -0.076975    1.050574
     12          8           0        0.734502   -1.252287    1.840710
     13          1           0        0.702964   -2.231670    1.943250
     14          6           0        2.302509    0.974759   -0.630452
     15          1           0        2.591296    2.038938   -0.581087
     16          1           0        1.824275    0.780228   -1.612472
     17          8           0        3.450385    0.122898   -0.627905
     18          1           0        4.093372    0.406459    0.056636
     19          8           0        0.326133    1.550533    0.639734
     20          8           0       -0.252605    1.602089   -1.572017
     21          1           0       -0.474083    2.474702   -1.932871
     22          1           0       -1.425408    2.276877    0.041038
 ---------------------------------------------------------------------
                    Distance matrix (angstroms):
                    1          2          3          4          5
     1  C    0.000000
     2  C    1.551380   0.000000
     3  C    2.602855   1.557502   0.000000
     4  C    2.990711   2.580278   1.553192   0.000000
     5  C    1.543507   2.582773   2.928536   2.455855   0.000000
     6  H    1.123789   2.212246   3.547314   3.915188   2.190620
     7  H    2.176891   3.467736   3.769931   3.282371   1.124213
     8  F    2.382466   1.355260   2.376717   3.085470   3.195715
     9  F    2.382728   1.352014   2.410044   3.769275   3.736261
    10  F    3.784473   2.413444   1.351268   2.382633   4.182630
    11  F    3.130140   2.397277   1.348115   2.367664   3.505841
    12  O    1.425707   2.432284   3.182125   3.734032   2.346538
    13  H    2.005199   2.751447   3.727019   4.532124   3.225650
    14  C    2.547700   3.371732   3.845848   3.122479   1.541423
    15  H    3.511041   4.300346   4.482886   3.419513   2.192251
    16  H    2.810726   3.137671   3.616207   2.993814   2.217994
    17  O    2.906510   3.994020   4.870146   4.430849   2.420271
    18  H    3.415193   4.699098   5.504308   4.975455   2.752548
    19  O    2.518836   2.898614   2.422989   1.414930   1.433316
    20  O    3.444083   2.969818   2.408814   1.416010   2.871339
    21  H    4.376960   3.914493   3.162818   1.983875   3.633657
    22  H    3.982804   3.562927   2.249602   1.103398   3.321162
                    6          7          8          9         10
     6  H    0.000000
     7  H    2.715186   0.000000
     8  F    2.530912   4.233565   0.000000
     9  F    2.787540   4.441755   2.097910   0.000000
    10  F    4.580391   5.091125   2.711403   2.881891   0.000000
    11  F    4.185630   4.027000   3.529133   2.752188   2.099862
    12  O    2.091527   2.350057   3.579684   2.706278   4.412670
    13  H    2.301918   3.254120   3.812459   2.550382   4.808053
    14  C    2.614547   2.224819   3.366417   4.600088   4.860260
    15  H    3.679436   2.573629   4.319526   5.581493   5.464464
    16  H    2.823577   3.160231   2.731292   4.380548   4.379185
    17  O    2.412821   2.751788   3.879463   4.986563   5.892451
    18  H    2.981592   2.681683   4.761047   5.656070   6.624018
    19  O    3.434387   1.972107   3.607477   4.105448   3.599829
    20  O    4.057566   3.876456   2.820843   4.239907   2.807583
    21  H    4.989703   4.540978   3.720085   5.154423   3.347922
    22  H    4.963417   3.943905   4.114623   4.626948   2.769717
                   11         12         13         14         15
    11  F    0.000000
    12  O    3.089657   0.000000
    13  H    3.578782   0.985242   0.000000
    14  C    4.747875   3.677638   4.411766   0.000000
    15  H    5.322101   4.488312   5.308123   1.103771   0.000000
    16  H    4.747575   4.152492   4.792914   1.109465   1.799008
    17  O    5.717429   3.919339   4.438823   1.429438   2.100342
    18  H    6.204078   4.149261   4.691898   2.000561   2.308226
    19  O    2.877831   3.076509   4.018236   2.418874   2.619142
    20  O    3.576424   4.557253   5.288472   2.794405   3.043116
    21  H    4.216102   5.439764   6.209645   3.414028   3.378426
    22  H    2.627401   4.512098   5.336233   4.005469   4.071556
                   16         17         18         19         20
    16  H    0.000000
    17  O    2.011390   0.000000
    18  H    2.841553   0.981038   0.000000
    19  O    2.812513   3.661421   3.980075   0.000000
    20  O    2.233948   4.097743   4.792657   2.286797   0.000000
    21  H    2.873386   4.757664   5.394201   2.848285   0.969907
    22  H    3.941382   5.372194   5.827147   1.988444   2.105410
                   21         22
    21  H    0.000000
    22  H    2.200106   0.000000
 Stoichiometry    C6H8F4O4
 Framework group  C1[X(C6H8F4O4)]
 Deg. of freedom    60
 Full point group                 C1      NOp   1
 RotChk:  IX=3 Diff= 4.09D-02
 Largest Abelian subgroup         C1      NOp   1
 Largest concise Abelian subgroup C1      NOp   1
                         Standard orientation:                         
 ---------------------------------------------------------------------
 Center     Atomic      Atomic             Coordinates (Angstroms)
 Number     Number       Type             X           Y           Z
 ---------------------------------------------------------------------
      1          6           0       -0.678801   -1.163346   -0.149329
      2          6           0        0.641725   -0.769360    0.563248
      3          6           0        1.432131    0.359362   -0.162742
      4          6           0        0.515921    1.546171   -0.568268
      5          6           0       -1.414603    0.041967   -0.772410
      6          1           0       -1.367704   -1.694684    0.562004
      7          1           0       -1.944889   -0.307968   -1.699878
      8          9           0        0.382070   -0.382953    1.836039
      9          9           0        1.407322   -1.865687    0.762921
     10          9           0        2.468994    0.807204    0.579066
     11          9           0        2.053479   -0.115841   -1.260704
     12          8           0       -0.386789   -2.010852   -1.257978
     13          1           0       -0.150173   -2.919604   -0.959844
     14          6           0       -2.378003    0.694948    0.238263
     15          1           0       -2.884603    1.567639   -0.209039
     16          1           0       -1.865337    1.017901    1.167665
     17          8           0       -3.320772   -0.283104    0.683117
     18          1           0       -4.011970   -0.435275    0.003762
     19          8           0       -0.572623    1.059200   -1.329817
     20          8           0       -0.008268    2.128054    0.611444
     21          1           0        0.026042    3.096408    0.568632
     22          1           0        0.989248    2.286248   -1.235902
 ---------------------------------------------------------------------
 Rotational constants (GHZ):      0.9542374      0.6429411      0.5544661
 Leave Link  202 at Wed Apr 27 14:11:00 2016, MaxMem=   33554432 cpu:       0.0
 (Enter C:\G09W\l301.exe)
 Standard basis: VSTO-6G (5D, 7F)
 Ernie: Thresh=  0.10000D-02 Tol=  0.10000D-05 Strict=F.
  NNHCO=     0 NNPyr=     0 NCTC=     0               EPep=         0.000000000
    EC=       562.097711279  ECS=         4.400425831   EG=         0.425873667
   EHC=         0.001684434  EAt=      -139.732854878  AtH=         2.798287655
 EPDDG=         0.000000000  ECC=       566.925695211 EAtT=       142.531142533
 There are    64 symmetry adapted basis functions of A   symmetry.
 Integral buffers will be    131072 words long.
 Regular integral format.
 Two-electron integral symmetry is turned off.
    64 basis functions,   384 primitive gaussians,    64 cartesian basis functions
    42 alpha electrons       42 beta electrons
       nuclear repulsion energy       709.4568377435 Hartrees.
 IExCor=    0 DFT=F Ex=HF Corr=None ExCW=0 ScaHFX=  1.000000
 ScaDFX=  1.000000  1.000000  1.000000  1.000000 ScalE2=  1.000000  1.000000
 IRadAn=      0 IRanWt=     -1 IRanGd=            0 ICorTp=0
 Leave Link  301 at Wed Apr 27 14:11:00 2016, MaxMem=   33554432 cpu:       0.0
 (Enter C:\G09W\l302.exe)
 Do NDO integrals.
 NPDir=0 NMtPBC=     1 NCelOv=     1 NCel=       1 NClECP=     1 NCelD=      1
         NCelK=      1 NCelE2=     1 NClLst=     1 CellRange=     0.0.
 One-electron integrals computed using PRISM.
 NBasis=    64 RedAO= F  NBF=    64
 NBsUse=    64 1.00D-04 NBFU=    64
 Leave Link  302 at Wed Apr 27 14:11:00 2016, MaxMem=   33554432 cpu:       0.0
 (Enter C:\G09W\l303.exe)
 DipDrv:  MaxL=1.
 Leave Link  303 at Wed Apr 27 14:11:00 2016, MaxMem=   33554432 cpu:       0.0
 (Enter C:\G09W\l401.exe)
 Initial guess read from the read-write file.
 B after Tr=     0.000000    0.000000    0.000000
         Rot=    1.000000    0.000000    0.000000    0.000000 Ang=   0.00 deg.
 Guess basis will be translated and rotated to current coordinates.
 Initial guess orbital symmetries:
       Occupied  (A) (A) (A) (A) (A) (A) (A) (A) (A) (A) (A) (A)
                 (A) (A) (A) (A) (A) (A) (A) (A) (A) (A) (A) (A)
                 (A) (A) (A) (A) (A) (A) (A) (A) (A) (A) (A) (A)
                 (A) (A) (A) (A) (A) (A)
       Virtual   (A) (A) (A) (A) (A) (A) (A) (A) (A) (A) (A) (A)
                 (A) (A) (A) (A) (A) (A) (A) (A) (A) (A)
 The electronic state of the initial guess is 1-A.
 Leave Link  401 at Wed Apr 27 14:11:01 2016, MaxMem=   33554432 cpu:       1.0
 (Enter C:\G09W\l502.exe)
 Closed shell SCF:
 Requested convergence on RMS density matrix=1.00D-08 within 128 cycles.
 Requested convergence on MAX density matrix=1.00D-06.
 Requested convergence on             energy=1.00D-06.
 No special actions if energy rises.
 Using DIIS extrapolation, IDIIS=  1040.
 Overlap will be assumed to be unity.
 Two-electron integral symmetry not used.
 Keep J ints in memory in canonical form, NReq=901177.
 IEnd=       90137 IEndB=       90137 NGot=    33554432 MDV=    33474042
 LenX=    33474042 LenY=    33469505
 Symmetry not used in FoFDir.
 MinBra= 0 MaxBra= 1 Meth=40.
 IRaf=       0 NMat=   1 IRICut=       1 DoRegI=T DoRafI=F ISym2E= 0 JSym2E=0.

 Cycle   1  Pass 1  IDiag  1:
 E=-0.581305189345471    
 DIIS: error= 1.46D-02 at cycle   1 NSaved=   1.
 NSaved= 1 IEnMin= 1 EnMin=-0.581305189345471     IErMin= 1 ErrMin= 1.46D-02
 ErrMax= 1.46D-02 EMaxC= 1.00D-01 BMatC= 6.20D-03 BMatP= 6.20D-03
 IDIUse=3 WtCom= 8.54D-01 WtEn= 1.46D-01
 Coeff-Com:  0.100D+01
 Coeff-En:   0.100D+01
 Coeff:      0.100D+01
 GapD=    2.000 DampG=2.000 DampE=0.500 DampFc=1.0000 IDamp=-1.
 RMSDP=2.13D-03 MaxDP=3.56D-02              OVMax= 0.00D+00

 Cycle   2  Pass 1  IDiag  3:
 E=-0.601655619094345     Delta-E=       -0.020350429749 Rises=F Damp=F
 DIIS: error= 5.47D-03 at cycle   2 NSaved=   2.
 NSaved= 2 IEnMin= 2 EnMin=-0.601655619094345     IErMin= 2 ErrMin= 5.47D-03
 ErrMax= 5.47D-03 EMaxC= 1.00D-01 BMatC= 8.50D-04 BMatP= 6.20D-03
 IDIUse=3 WtCom= 9.45D-01 WtEn= 5.47D-02
 Coeff-Com: -0.540D+00 0.154D+01
 Coeff-En:   0.000D+00 0.100D+01
 Coeff:     -0.510D+00 0.151D+01
 Gap=     0.421 Goal=   None    Shift=    0.000
 RMSDP=1.27D-03 MaxDP=2.03D-02 DE=-2.04D-02 OVMax= 0.00D+00

 Cycle   3  Pass 1  IDiag  3:
 E=-0.605283538635831     Delta-E=       -0.003627919541 Rises=F Damp=F
 DIIS: error= 4.92D-04 at cycle   3 NSaved=   3.
 NSaved= 3 IEnMin= 3 EnMin=-0.605283538635831     IErMin= 3 ErrMin= 4.92D-04
 ErrMax= 4.92D-04 EMaxC= 1.00D-01 BMatC= 1.91D-05 BMatP= 8.50D-04
 IDIUse=3 WtCom= 9.95D-01 WtEn= 4.92D-03
 Coeff-Com:  0.210D+00-0.669D+00 0.146D+01
 Coeff-En:   0.000D+00 0.000D+00 0.100D+01
 Coeff:      0.209D+00-0.666D+00 0.146D+01
 Gap=     0.421 Goal=   None    Shift=    0.000
 RMSDP=2.22D-04 MaxDP=2.29D-03 DE=-3.63D-03 OVMax= 0.00D+00

 Cycle   4  Pass 1  IDiag  3:
 E=-0.605394392694961     Delta-E=       -0.000110854059 Rises=F Damp=F
 DIIS: error= 2.35D-04 at cycle   4 NSaved=   4.
 NSaved= 4 IEnMin= 4 EnMin=-0.605394392694961     IErMin= 4 ErrMin= 2.35D-04
 ErrMax= 2.35D-04 EMaxC= 1.00D-01 BMatC= 2.91D-06 BMatP= 1.91D-05
 IDIUse=3 WtCom= 9.98D-01 WtEn= 2.35D-03
 Coeff-Com: -0.141D+00 0.459D+00-0.123D+01 0.191D+01
 Coeff-En:   0.000D+00 0.000D+00 0.000D+00 0.100D+01
 Coeff:     -0.140D+00 0.458D+00-0.123D+01 0.191D+01
 Gap=     0.421 Goal=   None    Shift=    0.000
 RMSDP=1.18D-04 MaxDP=1.46D-03 DE=-1.11D-04 OVMax= 0.00D+00

 Cycle   5  Pass 1  IDiag  3:
 E=-0.605417459507862     Delta-E=       -0.000023066813 Rises=F Damp=F
 DIIS: error= 7.27D-05 at cycle   5 NSaved=   5.
 NSaved= 5 IEnMin= 5 EnMin=-0.605417459507862     IErMin= 5 ErrMin= 7.27D-05
 ErrMax= 7.27D-05 EMaxC= 1.00D-01 BMatC= 3.12D-07 BMatP= 2.91D-06
 IDIUse=1 WtCom= 1.00D+00 WtEn= 0.00D+00
 Coeff-Com:  0.286D-01-0.938D-01 0.286D+00-0.803D+00 0.158D+01
 Coeff:      0.286D-01-0.938D-01 0.286D+00-0.803D+00 0.158D+01
 Gap=     0.421 Goal=   None    Shift=    0.000
 RMSDP=4.71D-05 MaxDP=6.13D-04 DE=-2.31D-05 OVMax= 0.00D+00

 Cycle   6  Pass 1  IDiag  3:
 E=-0.605420099571688     Delta-E=       -0.000002640064 Rises=F Damp=F
 DIIS: error= 1.33D-05 at cycle   6 NSaved=   6.
 NSaved= 6 IEnMin= 6 EnMin=-0.605420099571688     IErMin= 6 ErrMin= 1.33D-05
 ErrMax= 1.33D-05 EMaxC= 1.00D-01 BMatC= 1.52D-08 BMatP= 3.12D-07
 IDIUse=1 WtCom= 1.00D+00 WtEn= 0.00D+00
 Coeff-Com:  0.793D-03-0.262D-02-0.562D-02 0.134D+00-0.543D+00 0.142D+01
 Coeff:      0.793D-03-0.262D-02-0.562D-02 0.134D+00-0.543D+00 0.142D+01
 Gap=     0.421 Goal=   None    Shift=    0.000
 RMSDP=8.58D-06 MaxDP=9.45D-05 DE=-2.64D-06 OVMax= 0.00D+00

 Cycle   7  Pass 1  IDiag  3:
 E=-0.605420204342522     Delta-E=       -0.000000104771 Rises=F Damp=F
 DIIS: error= 3.40D-06 at cycle   7 NSaved=   7.
 NSaved= 7 IEnMin= 7 EnMin=-0.605420204342522     IErMin= 7 ErrMin= 3.40D-06
 ErrMax= 3.40D-06 EMaxC= 1.00D-01 BMatC= 9.21D-10 BMatP= 1.52D-08
 IDIUse=1 WtCom= 1.00D+00 WtEn= 0.00D+00
 Coeff-Com: -0.891D-03 0.294D-02-0.376D-02-0.346D-01 0.179D+00-0.631D+00
 Coeff-Com:  0.149D+01
 Coeff:     -0.891D-03 0.294D-02-0.376D-02-0.346D-01 0.179D+00-0.631D+00
 Coeff:      0.149D+01
 Gap=     0.421 Goal=   None    Shift=    0.000
 RMSDP=1.97D-06 MaxDP=2.59D-05 DE=-1.05D-07 OVMax= 0.00D+00

 Cycle   8  Pass 1  IDiag  3:
 E=-0.605420210603029     Delta-E=       -0.000000006261 Rises=F Damp=F
 DIIS: error= 1.23D-06 at cycle   8 NSaved=   8.
 NSaved= 8 IEnMin= 8 EnMin=-0.605420210603029     IErMin= 8 ErrMin= 1.23D-06
 ErrMax= 1.23D-06 EMaxC= 1.00D-01 BMatC= 8.20D-11 BMatP= 9.21D-10
 IDIUse=1 WtCom= 1.00D+00 WtEn= 0.00D+00
 Coeff-Com:  0.269D-03-0.893D-03 0.726D-03 0.154D-01-0.748D-01 0.276D+00
 Coeff-Com: -0.844D+00 0.163D+01
 Coeff:      0.269D-03-0.893D-03 0.726D-03 0.154D-01-0.748D-01 0.276D+00
 Coeff:     -0.844D+00 0.163D+01
 Gap=     0.421 Goal=   None    Shift=    0.000
 RMSDP=6.21D-07 MaxDP=8.79D-06 DE=-6.26D-09 OVMax= 0.00D+00

 Cycle   9  Pass 1  IDiag  3:
 E=-0.605420211205797     Delta-E=       -0.000000000603 Rises=F Damp=F
 DIIS: error= 4.95D-07 at cycle   9 NSaved=   9.
 NSaved= 9 IEnMin= 9 EnMin=-0.605420211205797     IErMin= 9 ErrMin= 4.95D-07
 ErrMax= 4.95D-07 EMaxC= 1.00D-01 BMatC= 9.76D-12 BMatP= 8.20D-11
 IDIUse=1 WtCom= 1.00D+00 WtEn= 0.00D+00
 Coeff-Com: -0.724D-04 0.245D-03 0.273D-03-0.981D-02 0.433D-01-0.156D+00
 Coeff-Com:  0.505D+00-0.123D+01 0.184D+01
 Coeff:     -0.724D-04 0.245D-03 0.273D-03-0.981D-02 0.433D-01-0.156D+00
 Coeff:      0.505D+00-0.123D+01 0.184D+01
 Gap=     0.421 Goal=   None    Shift=    0.000
 RMSDP=2.35D-07 MaxDP=2.99D-06 DE=-6.03D-10 OVMax= 0.00D+00

 Cycle  10  Pass 1  IDiag  3:
 E=-0.605420211285832     Delta-E=       -0.000000000080 Rises=F Damp=F
 DIIS: error= 1.39D-07 at cycle  10 NSaved=  10.
 NSaved=10 IEnMin=10 EnMin=-0.605420211285832     IErMin=10 ErrMin= 1.39D-07
 ErrMax= 1.39D-07 EMaxC= 1.00D-01 BMatC= 8.23D-13 BMatP= 9.76D-12
 IDIUse=1 WtCom= 1.00D+00 WtEn= 0.00D+00
 Coeff-Com:  0.106D-04-0.378D-04-0.282D-03 0.433D-02-0.181D-01 0.640D-01
 Coeff-Com: -0.207D+00 0.532D+00-0.103D+01 0.166D+01
 Coeff:      0.106D-04-0.378D-04-0.282D-03 0.433D-02-0.181D-01 0.640D-01
 Coeff:     -0.207D+00 0.532D+00-0.103D+01 0.166D+01
 Gap=     0.421 Goal=   None    Shift=    0.000
 RMSDP=6.96D-08 MaxDP=1.13D-06 DE=-8.00D-11 OVMax= 0.00D+00

 Cycle  11  Pass 1  IDiag  3:
 E=-0.605420211291630     Delta-E=       -0.000000000006 Rises=F Damp=F
 DIIS: error= 3.01D-08 at cycle  11 NSaved=  11.
 NSaved=11 IEnMin=11 EnMin=-0.605420211291630     IErMin=11 ErrMin= 3.01D-08
[...]
 ! D59   D(15,14,17,18)         46.026          -DE/DX =    0.0                 !
 ! D60   D(16,14,17,18)        163.1413         -DE/DX =    0.0                 !
 --------------------------------------------------------------------------------
 GradGradGradGradGradGradGradGradGradGradGradGradGradGradGradGradGradGrad

 Largest change from initial coordinates is atom   21       0.126 Angstoms.
 Leave Link  103 at Wed Apr 27 14:11:09 2016, MaxMem=   33554432 cpu:       0.0
 (Enter C:\G09W\l202.exe)
                          Input orientation:                          
 ---------------------------------------------------------------------
 Center     Atomic      Atomic             Coordinates (Angstroms)
 Number     Number       Type             X           Y           Z
 ---------------------------------------------------------------------
      1          6           0        0.959480   -0.866551    0.495517
      2          6           0       -0.333671   -1.115059   -0.328693
      3          6           0       -1.403458    0.006424   -0.190524
      4          6           0       -0.797376    1.438638   -0.215461
      5          6           0        1.399386    0.612041    0.536581
      6          1           0        1.805601   -1.490914    0.097913
      7          1           0        1.919099    0.803481    1.513186
      8          9           0       -0.029967   -1.299968   -1.634403
      9          9           0       -0.855411   -2.319846    0.002777
     10          9           0       -2.361274   -0.091315   -1.137318
     11          9           0       -2.112191   -0.155497    0.949998
     12          8           0        0.715470   -1.201876    1.859535
     13          1           0        0.696092   -2.178262    1.988289
     14          6           0        2.285792    0.965800   -0.674373
     15          1           0        2.574368    2.030165   -0.657460
     16          1           0        1.789423    0.741008   -1.642642
     17          8           0        3.435926    0.119519   -0.672831
     18          1           0        4.085664    0.417904   -0.001970
     19          8           0        0.330356    1.568930    0.626787
     20          8           0       -0.410443    1.638898   -1.561475
     21          1           0       -0.143367    2.571797   -1.721799
     22          1           0       -1.476241    2.239274    0.159446
 ---------------------------------------------------------------------
                    Distance matrix (angstroms):
                    1          2          3          4          5
     1  C    0.000000
     2  C    1.553486   0.000000
     3  C    2.610788   1.556040   0.000000
     4  C    2.984280   2.597924   1.555376   0.000000
     5  C    1.543191   2.595199   2.958275   2.464668   0.000000
     6  H    1.124206   2.213537   3.552926   3.931408   2.186289
     7  H    2.178423   3.485439   3.818025   3.281902   1.122724
     8  F    2.388182   1.353257   2.382839   3.178407   3.226763
     9  F    2.376697   1.354104   2.397760   3.765262   3.736980
    10  F    3.780814   2.411038   1.350328   2.374101   4.176028
    11  F    3.185485   2.391432   1.352520   2.372403   3.618176
    12  O    1.425667   2.428287   3.186313   3.683290   2.346965
    13  H    2.004577   2.749404   3.732050   4.490983   3.223023
    14  C    2.546617   3.363190   3.842535   3.152792   1.541839
    15  H    3.511151   4.296185   4.487389   3.451655   2.194855
    16  H    2.800853   3.111104   3.583679   3.035632   2.217605
    17  O    2.910353   3.981516   4.864674   4.457590   2.419246
    18  H    3.416189   4.689056   5.507752   4.993151   2.746601
    19  O    2.518848   2.925349   2.472960   1.413555   1.437566
    20  O    3.519259   3.018265   2.351714   1.414770   2.954954
    21  H    4.237334   3.945866   3.242495   1.995202   3.364670
    22  H    3.961292   3.577051   2.261282   1.114644   3.325559
                    6          7          8          9         10
     6  H    0.000000
     7  H    2.698171   0.000000
     8  F    2.531144   4.258013   0.000000
     9  F    2.788757   4.442343   2.098062   0.000000
    10  F    4.565909   5.113456   2.672626   2.921266   0.000000
    11  F    4.225930   4.181880   3.510640   2.676029   2.103105
    12  O    2.091707   2.364346   3.573919   2.676765   4.436309
    13  H    2.297168   3.257646   3.797692   2.523780   4.844819
    14  C    2.619628   2.224011   3.379068   4.595776   4.788218
    15  H    3.682334   2.577952   4.338982   5.578699   5.393654
    16  H    2.830419   3.159109   2.734196   4.367078   4.263379
    17  O    2.417747   2.747224   3.866779   4.982220   5.819599
    18  H    2.975273   2.671774   4.749141   5.648851   6.565922
    19  O    3.437834   1.973758   3.670611   4.113150   3.621236
    20  O    4.178534   3.946926   2.964290   4.279782   2.641834
    21  H    4.859573   4.224433   3.874410   5.235393   3.514668
    22  H    4.968760   3.927142   4.223249   4.603863   2.810076
                   11         12         13         14         15
    11  F    0.000000
    12  O    3.149260   0.000000
    13  H    3.613321   0.985030   0.000000
    14  C    4.820595   3.685840   4.416112   0.000000
    15  H    5.415244   4.498538   5.314016   1.102921   0.000000
    16  H    4.769496   4.146494   4.785517   1.111062   1.802401
    17  O    5.787125   3.944596   4.457359   1.427936   2.095969
    18  H    6.296701   4.176972   4.710670   1.997963   2.305009
    19  O    3.007349   3.057016   4.003611   2.424976   2.626331
    20  O    3.524670   4.587046   5.328786   2.917138   3.143156
    21  H    4.295684   5.272965   6.085434   3.094695   2.968546
    22  H    2.600833   4.419889   5.251507   4.058310   4.137450
                   16         17         18         19         20
    16  H    0.000000
    17  O    2.009416   0.000000
    18  H    2.840585   0.980432   0.000000
    19  O    2.822169   3.665291   3.977755   0.000000
    20  O    2.377437   4.229983   4.913030   2.311313   0.000000
    21  H    2.663405   4.463780   5.047947   2.597309   0.983531
    22  H    4.019563   5.414372   5.854761   1.982816   2.111385
                   21         22
    21  H    0.000000
    22  H    2.329422   0.000000
 Stoichiometry    C6H8F4O4
 Framework group  C1[X(C6H8F4O4)]
 Deg. of freedom    60
 Full point group                 C1      NOp   1
 RotChk:  IX=0 Diff= 1.79D-15
 Largest Abelian subgroup         C1      NOp   1
 Largest concise Abelian subgroup C1      NOp   1
                         Standard orientation:                         
 ---------------------------------------------------------------------
 Center     Atomic      Atomic             Coordinates (Angstroms)
 Number     Number       Type             X           Y           Z
 ---------------------------------------------------------------------
      1          6           0       -0.697057   -1.156159   -0.186056
      2          6           0        0.627193   -0.794055    0.540965
      3          6           0        1.429123    0.357942   -0.130653
      4          6           0        0.529242    1.530516   -0.614883
      5          6           0       -1.445287    0.063093   -0.764862
      6          1           0       -1.385063   -1.715614    0.504956
      7          1           0       -2.003458   -0.262701   -1.682910
      8          9           0        0.383071   -0.487601    1.836262
      9          9           0        1.392791   -1.904217    0.663432
     10          9           0        2.394650    0.839824    0.681093
     11          9           0        2.145015   -0.113128   -1.177029
     12          8           0       -0.399814   -1.962508   -1.323586
     13          1           0       -0.171977   -2.883221   -1.057765
     14          6           0       -2.375288    0.699857    0.287230
     15          1           0       -2.886349    1.588088   -0.120565
     16          1           0       -1.832814    0.987970    1.213066
     17          8           0       -3.316267   -0.278541    0.730288
     18          1           0       -4.021467   -0.409730    0.061910
     19          8           0       -0.608204    1.087394   -1.327620
     20          8           0        0.121330    2.181341    0.573229
     21          1           0       -0.338722    3.028255    0.377211
     22          1           0        1.016198    2.224388   -1.338656
 ---------------------------------------------------------------------
 Rotational constants (GHZ):      0.9442895      0.6418509      0.5499050
 Leave Link  202 at Wed Apr 27 14:11:09 2016, MaxMem=   33554432 cpu:       0.0
 (Enter C:\G09W\l601.exe)
 Copying SCF densities to generalized density rwf, IOpCl= 0 IROHF=0.

 **********************************************************************

            Population analysis using the SCF density.

 **********************************************************************

 Orbital symmetries:
       Occupied  (A) (A) (A) (A) (A) (A) (A) (A) (A) (A) (A) (A)
                 (A) (A) (A) (A) (A) (A) (A) (A) (A) (A) (A) (A)
                 (A) (A) (A) (A) (A) (A) (A) (A) (A) (A) (A) (A)
                 (A) (A) (A) (A) (A) (A)
       Virtual   (A) (A) (A) (A) (A) (A) (A) (A) (A) (A) (A) (A)
                 (A) (A) (A) (A) (A) (A) (A) (A) (A) (A)
 The electronic state is 1-A.
 Alpha  occ. eigenvalues --   -1.56375  -1.56141  -1.55692  -1.55063  -1.17011
 Alpha  occ. eigenvalues --   -1.13854  -1.12167  -1.10873  -1.02312  -1.01729
 Alpha  occ. eigenvalues --   -0.92289  -0.88564  -0.86225  -0.77215  -0.72645
 Alpha  occ. eigenvalues --   -0.72274  -0.70252  -0.69913  -0.68571  -0.67221
 Alpha  occ. eigenvalues --   -0.65316  -0.64609  -0.63467  -0.62557  -0.61703
 Alpha  occ. eigenvalues --   -0.61504  -0.60522  -0.58830  -0.58115  -0.57022
 Alpha  occ. eigenvalues --   -0.56666  -0.55642  -0.54642  -0.53169  -0.51523
 Alpha  occ. eigenvalues --   -0.49155  -0.47873  -0.45755  -0.44078  -0.43617
 Alpha  occ. eigenvalues --   -0.41682  -0.40208
 Alpha virt. eigenvalues --    0.02124   0.03728   0.04435   0.04833   0.06058
 Alpha virt. eigenvalues --    0.06553   0.07096   0.07627   0.07854   0.09145
 Alpha virt. eigenvalues --    0.09898   0.10452   0.10956   0.11674   0.14628
 Alpha virt. eigenvalues --    0.15997   0.16214   0.16959   0.17422   0.18088
 Alpha virt. eigenvalues --    0.18471   0.19534
          Condensed to atoms (all electrons):
              1          2          3          4          5          6
     1  C    3.969531   0.000000   0.000000   0.000000   0.000000   0.000000
     2  C    0.000000   3.745677   0.000000   0.000000   0.000000   0.000000
     3  C    0.000000   0.000000   3.777470   0.000000   0.000000   0.000000
     4  C    0.000000   0.000000   0.000000   3.694983   0.000000   0.000000
     5  C    0.000000   0.000000   0.000000   0.000000   3.904348   0.000000
     6  H    0.000000   0.000000   0.000000   0.000000   0.000000   0.823916
     7  H    0.000000   0.000000   0.000000   0.000000   0.000000   0.000000
     8  F    0.000000   0.000000   0.000000   0.000000   0.000000   0.000000
     9  F    0.000000   0.000000   0.000000   0.000000   0.000000   0.000000
    10  F    0.000000   0.000000   0.000000   0.000000   0.000000   0.000000
    11  F    0.000000   0.000000   0.000000   0.000000   0.000000   0.000000
    12  O    0.000000   0.000000   0.000000   0.000000   0.000000   0.000000
    13  H    0.000000   0.000000   0.000000   0.000000   0.000000   0.000000
    14  C    0.000000   0.000000   0.000000   0.000000   0.000000   0.000000
    15  H    0.000000   0.000000   0.000000   0.000000   0.000000   0.000000
    16  H    0.000000   0.000000   0.000000   0.000000   0.000000   0.000000
    17  O    0.000000   0.000000   0.000000   0.000000   0.000000   0.000000
    18  H    0.000000   0.000000   0.000000   0.000000   0.000000   0.000000
    19  O    0.000000   0.000000   0.000000   0.000000   0.000000   0.000000
    20  O    0.000000   0.000000   0.000000   0.000000   0.000000   0.000000
    21  H    0.000000   0.000000   0.000000   0.000000   0.000000   0.000000
    22  H    0.000000   0.000000   0.000000   0.000000   0.000000   0.000000
              7          8          9         10         11         12
     1  C    0.000000   0.000000   0.000000   0.000000   0.000000   0.000000
     2  C    0.000000   0.000000   0.000000   0.000000   0.000000   0.000000
     3  C    0.000000   0.000000   0.000000   0.000000   0.000000   0.000000
     4  C    0.000000   0.000000   0.000000   0.000000   0.000000   0.000000
     5  C    0.000000   0.000000   0.000000   0.000000   0.000000   0.000000
     6  H    0.000000   0.000000   0.000000   0.000000   0.000000   0.000000
     7  H    0.822442   0.000000   0.000000   0.000000   0.000000   0.000000
     8  F    0.000000   7.147885   0.000000   0.000000   0.000000   0.000000
     9  F    0.000000   0.000000   7.160117   0.000000   0.000000   0.000000
    10  F    0.000000   0.000000   0.000000   7.133768   0.000000   0.000000
    11  F    0.000000   0.000000   0.000000   0.000000   7.138581   0.000000
    12  O    0.000000   0.000000   0.000000   0.000000   0.000000   6.517564
    13  H    0.000000   0.000000   0.000000   0.000000   0.000000   0.000000
    14  C    0.000000   0.000000   0.000000   0.000000   0.000000   0.000000
    15  H    0.000000   0.000000   0.000000   0.000000   0.000000   0.000000
    16  H    0.000000   0.000000   0.000000   0.000000   0.000000   0.000000
    17  O    0.000000   0.000000   0.000000   0.000000   0.000000   0.000000
    18  H    0.000000   0.000000   0.000000   0.000000   0.000000   0.000000
    19  O    0.000000   0.000000   0.000000   0.000000   0.000000   0.000000
    20  O    0.000000   0.000000   0.000000   0.000000   0.000000   0.000000
    21  H    0.000000   0.000000   0.000000   0.000000   0.000000   0.000000
    22  H    0.000000   0.000000   0.000000   0.000000   0.000000   0.000000
             13         14         15         16         17         18
     1  C    0.000000   0.000000   0.000000   0.000000   0.000000   0.000000
     2  C    0.000000   0.000000   0.000000   0.000000   0.000000   0.000000
     3  C    0.000000   0.000000   0.000000   0.000000   0.000000   0.000000
     4  C    0.000000   0.000000   0.000000   0.000000   0.000000   0.000000
     5  C    0.000000   0.000000   0.000000   0.000000   0.000000   0.000000
     6  H    0.000000   0.000000   0.000000   0.000000   0.000000   0.000000
     7  H    0.000000   0.000000   0.000000   0.000000   0.000000   0.000000
     8  F    0.000000   0.000000   0.000000   0.000000   0.000000   0.000000
     9  F    0.000000   0.000000   0.000000   0.000000   0.000000   0.000000
    10  F    0.000000   0.000000   0.000000   0.000000   0.000000   0.000000
    11  F    0.000000   0.000000   0.000000   0.000000   0.000000   0.000000
    12  O    0.000000   0.000000   0.000000   0.000000   0.000000   0.000000
    13  H    0.675169   0.000000   0.000000   0.000000   0.000000   0.000000
    14  C    0.000000   4.074676   0.000000   0.000000   0.000000   0.000000
    15  H    0.000000   0.000000   0.864172   0.000000   0.000000   0.000000
    16  H    0.000000   0.000000   0.000000   0.816444   0.000000   0.000000
    17  O    0.000000   0.000000   0.000000   0.000000   6.527681   0.000000
    18  H    0.000000   0.000000   0.000000   0.000000   0.000000   0.690934
    19  O    0.000000   0.000000   0.000000   0.000000   0.000000   0.000000
    20  O    0.000000   0.000000   0.000000   0.000000   0.000000   0.000000
    21  H    0.000000   0.000000   0.000000   0.000000   0.000000   0.000000
    22  H    0.000000   0.000000   0.000000   0.000000   0.000000   0.000000
             19         20         21         22
     1  C    0.000000   0.000000   0.000000   0.000000
     2  C    0.000000   0.000000   0.000000   0.000000
     3  C    0.000000   0.000000   0.000000   0.000000
     4  C    0.000000   0.000000   0.000000   0.000000
     5  C    0.000000   0.000000   0.000000   0.000000
     6  H    0.000000   0.000000   0.000000   0.000000
     7  H    0.000000   0.000000   0.000000   0.000000
     8  F    0.000000   0.000000   0.000000   0.000000
     9  F    0.000000   0.000000   0.000000   0.000000
    10  F    0.000000   0.000000   0.000000   0.000000
    11  F    0.000000   0.000000   0.000000   0.000000
    12  O    0.000000   0.000000   0.000000   0.000000
    13  H    0.000000   0.000000   0.000000   0.000000
    14  C    0.000000   0.000000   0.000000   0.000000
    15  H    0.000000   0.000000   0.000000   0.000000
    16  H    0.000000   0.000000   0.000000   0.000000
    17  O    0.000000   0.000000   0.000000   0.000000
    18  H    0.000000   0.000000   0.000000   0.000000
    19  O    6.457479   0.000000   0.000000   0.000000
    20  O    0.000000   6.550694   0.000000   0.000000
    21  H    0.000000   0.000000   0.668218   0.000000
    22  H    0.000000   0.000000   0.000000   0.838252
 Mulliken atomic charges:
              1
     1  C    0.030469
     2  C    0.254323
     3  C    0.222530
     4  C    0.305017
     5  C    0.095652
     6  H    0.176084
     7  H    0.177558
     8  F   -0.147885
     9  F   -0.160117
    10  F   -0.133768
    11  F   -0.138581
    12  O   -0.517564
    13  H    0.324831
    14  C   -0.074676
    15  H    0.135828
    16  H    0.183556
    17  O   -0.527681
    18  H    0.309066
    19  O   -0.457479
    20  O   -0.550694
    21  H    0.331782
    22  H    0.161748
 Sum of Mulliken atomic charges =   0.00000
 Mulliken charges with hydrogens summed into heavy atoms:
              1
     1  C    0.206553
     2  C    0.254323
     3  C    0.222530
     4  C    0.466765
     5  C    0.273211
     8  F   -0.147885
     9  F   -0.160117
    10  F   -0.133768
    11  F   -0.138581
    12  O   -0.192733
    14  C    0.244708
    17  O   -0.218615
    19  O   -0.457479
    20  O   -0.218912
 Sum of Mulliken charges with hydrogens summed into heavy atoms =   0.00000
 Charge=              0.0000 electrons
 Dipole moment (field-independent basis, Debye):
    X=             -2.9596    Y=              1.3465    Z=             -1.5127  Tot=              3.5862
 N-N= 7.082960047764D+02 E-N=-1.289489767540D+03  KE=-6.343554605052D+01
 Leave Link  601 at Wed Apr 27 14:11:09 2016, MaxMem=   33554432 cpu:       0.0
 (Enter C:\G09W\l9999.exe)
 1|1|UNPC-KYNARETH|FOpt|RPM6|ZDO|C6H8F4O4|ADMINISTRATOR|27-Apr-2016|0||
 #p opt pm6 geom=connectivity||Title Card Required||0,1|C,0.9594800035,
 -0.8665512709,0.4955171456|C,-0.3336708381,-1.1150586513,-0.3286932625
 |C,-1.4034584979,0.0064240077,-0.1905237118|C,-0.7973760783,1.43863787
 23,-0.2154607552|C,1.3993857128,0.6120412753,0.5365808067|H,1.80560120
 2,-1.490914145,0.0979132363|H,1.919098713,0.8034805875,1.5131862931|F,
 -0.0299674603,-1.2999677542,-1.634402733|F,-0.8554106148,-2.3198461275
 ,0.0027770297|F,-2.3612744645,-0.091314825,-1.1373184048|F,-2.11219123
 36,-0.1554967764,0.949997906|O,0.7154702934,-1.2018761431,1.8595348328
 |H,0.6960924272,-2.1782624904,1.9882893366|C,2.2857915344,0.9658000625
 ,-0.6743726376|H,2.574367697,2.0301646312,-0.6574596185|H,1.789422725,
 0.7410077515,-1.6426421872|O,3.4359259313,0.1195194107,-0.6728309145|H
 ,4.0856641595,0.4179039202,-0.0019700703|O,0.3303559127,1.5689295267,0
 .6267870281|O,-0.4104431219,1.6388982587,-1.5614748148|H,-0.1433668177
 ,2.571796541,-1.7217990335|H,-1.4762407546,2.2392742883,0.1594463788||
 Version=EM64W-G09RevC.01|State=1-A|HF=-0.6070433|RMSD=4.521e-009|RMSF=
 1.065e-005|Dipole=0.9777074,0.9587258,0.3399849|PG=C01 [X(C6H8F4O4)]||
 @


 YOU CAN LEAD A BOY TO COLLEGE....
 BUT YOU CANNOT MAKE HIM THINK....
           ELBERT HUBBARD
 Job cpu time:  0 days  0 hours  0 minutes 11.0 seconds.
 File lengths (MBytes):  RWF=      9 Int=      0 D2E=      0 Chk=      3 Scr=      1
 Normal termination of Gaussian 09 at Wed Apr 27 14:11:09 2016.
