 Entering Link 1 = C:\G16W\l1.exe PID=     49168.
  
 Copyright (c) 1988-2019, Gaussian, Inc.  All Rights Reserved.
  
 This is part of the Gaussian(R) 16 program.  It is based on
 the Gaussian(R) 09 system (copyright 2009, Gaussian, Inc.),
 the Gaussian(R) 03 system (copyright 2003, Gaussian, Inc.),
 the Gaussian(R) 98 system (copyright 1998, Gaussian, Inc.),
 the Gaussian(R) 94 system (copyright 1995, Gaussian, Inc.),
 the Gaussian 92(TM) system (copyright 1992, Gaussian, Inc.),
 the Gaussian 90(TM) system (copyright 1990, Gaussian, Inc.),
 the Gaussian 88(TM) system (copyright 1988, Gaussian, Inc.),
 the Gaussian 86(TM) system (copyright 1986, Carnegie Mellon
 University), and the Gaussian 82(TM) system (copyright 1983,
 Carnegie Mellon University). Gaussian is a federally registered
 trademark of Gaussian, Inc.
  
 This software contains proprietary and confidential information,
 including trade secrets, belonging to Gaussian, Inc.
  
 This software is provided under written license and may be
 used, copied, transmitted, or stored only in accord with that
 written license.
  
 The following legend is applicable only to US Government
 contracts under FAR:
  
                    RESTRICTED RIGHTS LEGEND
  
 Use, reproduction and disclosure by the US Government is
 subject to restrictions as set forth in subparagraphs (a)
 and (c) of the Commercial Computer Software - Restricted
 Rights clause in FAR 52.227-19.
  
 Gaussian, Inc.
 340 Quinnipiac St., Bldg. 40, Wallingford CT 06492
  
  
 ---------------------------------------------------------------
 Warning -- This program may not be used in any manner that
 competes with the business of Gaussian, Inc. or will provide
 assistance to any competitor of Gaussian, Inc.  The licensee
 of this program is prohibited from giving any competitor of
 Gaussian, Inc. access to this program.  By using this program,
 the user acknowledges that Gaussian, Inc. is engaged in the
 business of creating and licensing software in the field of
 computational chemistry and represents and warrants to the
 licensee that it is not a competitor of Gaussian, Inc. and that
 it will not use this program in any manner prohibited above.
 ---------------------------------------------------------------
  

 Cite this work as:
 Gaussian 16, Revision C.01,
 M. J. Frisch, G. W. Trucks, H. B. Schlegel, G. E. Scuseria, 
 M. A. Robb, J. R. Cheeseman, G. Scalmani, V. Barone, 
 G. A. Petersson, H. Nakatsuji, X. Li, M. Caricato, A. V. Marenich, 
 J. Bloino, B. G. Janesko, R. Gomperts, B. Mennucci, H. P. Hratchian, 
 J. V. Ortiz, A. F. Izmaylov, J. L. Sonnenberg, D. Williams-Young, 
 F. Ding, F. Lipparini, F. Egidi, J. Goings, B. Peng, A. Petrone, 
 T. Henderson, D. Ranasinghe, V. G. Zakrzewski, J. Gao, N. Rega, 
 G. Zheng, W. Liang, M. Hada, M. Ehara, K. Toyota, R. Fukuda, 
 J. Hasegawa, M. Ishida, T. Nakajima, Y. Honda, O. Kitao, H. Nakai, 
 T. Vreven, K. Throssell, J. A. Montgomery, Jr., J. E. Peralta, 
 F. Ogliaro, M. J. Bearpark, J. J. Heyd, E. N. Brothers, K. N. Kudin, 
 V. N. Staroverov, T. A. Keith, R. Kobayashi, J. Normand, 
 K. Raghavachari, A. P. Rendell, J. C. Burant, S. S. Iyengar, 
 J. Tomasi, M. Cossi, J. M. Millam, M. Klene, C. Adamo, R. Cammi, 
 J. W. Ochterski, R. L. Martin, K. Morokuma, O. Farkas, 
 J. B. Foresman, and D. J. Fox, Gaussian, Inc., Wallingford CT, 2019.
 
 ******************************************
 Gaussian 16:  EM64W-G16RevC.01 30-May-2019
                14-Nov-2024 
 ******************************************
 %Mem=30GB
 %NProcShared=30
 Will use up to   30 processors via shared memory.
 %Chk=ir_efg.chk
 ----------------------------------------------------------------------
 #p m06/GenECP scrf=(smd,solvent=benzene) scf=tight integral=(grid=ultr
 afine) pop=minimal output=pickett IOp(6/82=1)
 ----------------------------------------------------------------------
 1/38=1,172=1/1;
 2/12=2,17=6,18=5,40=1/2;
 3/5=7,11=2,16=1,17=8,25=1,30=1,70=32201,72=12,74=-54,75=-5/1,2,3;
 4//1;
 5/5=2,32=2,38=5,53=12/2;
 6/7=2,8=2,9=2,10=2,28=1,82=1/1;
 99/5=1,9=1,10=1024/99;
 Leave Link    1 at Thu Nov 14 17:16:47 2024, MaxMem=  4026531840 cpu:               0.0 elap:               0.1
 (Enter C:\G16W\l101.exe)
 -------------------------------
 EFG tensors on the two deuteria
 -------------------------------
 Symbolic Z-matrix:
 Charge =  1 Multiplicity = 1
 Ir(Iso=193)          -0.39316   0.52862  -0.28985 
 N(Iso=15)            -0.62025   2.35421   0.77082 
 C(Iso=12)            -1.24813   3.41423   0.15023 
 C(Iso=12)            -1.42555   4.6672    0.7733 
 C(Iso=12)            -0.91973   4.85618   2.08638 
 C(Iso=12)            -0.28927   3.77415   2.73159 
 C(Iso=12)            -0.16046   2.54344   2.05538 
 H(Iso=1)              0.32214   1.68782   2.53176 
 H(Iso=1)              0.10692   3.86937   3.74666 
 H(Iso=1)             -1.02651   5.84002   2.55444 
 C(Iso=12)            -2.07893   5.85641   0.09536 
 N(Iso=15)            -2.90532   5.59528  -0.98369 
 H(Iso=1)             -3.33595   6.39326  -1.45363 
 H(Iso=1)             -3.1793    4.65566  -1.26678 
 O(Iso=16)            -1.86616   7.0328    0.51766 
 H(Iso=1)             -1.56506   3.21218  -0.87511 
 N(Iso=15)            -0.85327  -0.60731   1.49824 
 C(Iso=12)            -1.89834  -0.22941   2.31649 
 C(Iso=12)            -2.23651  -0.93841   3.48415 
 C(Iso=12)            -1.48572  -2.07913   3.85242 
 C(Iso=12)            -0.42184  -2.48905   3.01175 
 C(Iso=12)            -0.15494  -1.73651   1.84532 
 H(Iso=1)              0.63164  -2.06857   1.16403 
 C(Iso=12)             0.43882  -3.71616   3.22561 
 N(Iso=15)             0.50233  -4.22396   4.50812 
 H(Iso=1)              0.11873  -3.73888   5.3182 
 H(Iso=1)              1.07416  -5.05574   4.66435 
 O(Iso=16)             1.06648  -4.24213   2.2531 
 H(Iso=1)             -1.75899  -2.6447    4.75021 
 H(Iso=1)             -3.08367  -0.60068   4.08812 
 H(Iso=1)             -2.46624   0.6446    1.99096 
 H(Iso=2)             -1.96232   0.57369  -0.57677 
 H(Iso=2)             -0.17556   1.4      -1.63006 
 C(Iso=12)            -0.38973  -1.09092  -1.47978 
 N(Iso=15)            -1.50182  -1.9022   -1.80049 
 C(Iso=12)            -1.15991  -2.90845  -2.73084 
 C(Iso=12)             0.17334  -2.75296  -3.02146 
 H(Iso=1)              0.83343  -3.31068  -3.67911 
 N(Iso=15)             0.63648  -1.65218  -2.26348 
 C(Iso=12)             2.01115  -1.19729  -2.42824 
 C(Iso=12)             2.28883  -0.26565  -3.47306 
 C(Iso=12)             3.63982   0.07668  -3.71888 
 C(Iso=12)             4.70625  -0.49996  -2.97789 
 C(Iso=12)             4.38825  -1.43484  -1.9637 
 C(Iso=12)             3.04902  -1.81035  -1.67425 
 C(Iso=12)             2.77796  -2.84638  -0.59513 
 H(Iso=1)              3.51964  -3.66352  -0.63933 
 H(Iso=1)              2.86056  -2.4038    0.41667 
 H(Iso=1)              1.77707  -3.29961  -0.6752 
 H(Iso=1)              5.19952  -1.90731  -1.39434 
 C(Iso=12)             6.15204  -0.15912  -3.30644 
 H(Iso=1)              6.27489   0.91287  -3.54622 
 H(Iso=1)              6.83016  -0.40627  -2.47077 
 H(Iso=1)              6.49868  -0.72915  -4.19047 
 H(Iso=1)              3.86715   0.78756  -4.52402 
 C(Iso=12)             1.17389   0.32945  -4.31825 
 H(Iso=1)              0.44611   0.87954  -3.69226 
 H(Iso=1)              1.57934   1.02244  -5.07496 
 H(Iso=1)              0.60683  -0.45754  -4.85116 
 H(Iso=1)             -1.89019  -3.62737  -3.08964 
 C(Iso=12)            -2.88178  -1.75421  -1.35169 
 C(Iso=12)            -3.38674  -2.63144  -0.35462 
 C(Iso=12)            -4.74845  -2.49209   0.02568 
 C(Iso=12)            -5.60394  -1.54203  -0.58057 
 C(Iso=12)            -5.07285  -0.72339  -1.61384 
 C(Iso=12)            -3.72374  -0.81912  -2.02547 
 C(Iso=12)            -3.20126   0.03098  -3.17138 
 H(Iso=1)             -4.00469   0.66035  -3.59119 
 H(Iso=1)             -2.37637   0.68609  -2.83413 
 H(Iso=1)             -2.80244  -0.5974   -3.99092 
 H(Iso=1)             -5.73131  -0.00702  -2.12254 
 C(Iso=12)            -7.06273  -1.41685  -0.16681 
 H(Iso=1)             -7.31118  -2.10245   0.66149 
 H(Iso=1)             -7.30208  -0.38735   0.16092 
 H(Iso=1)             -7.73823  -1.65181  -1.01134 
 H(Iso=1)             -5.14928  -3.1585    0.80054 
 C(Iso=12)            -2.54692  -3.7444    0.25339 
 H(Iso=1)             -1.46656  -3.53066   0.22365 
 H(Iso=1)             -2.8373   -3.93141   1.30223 
 H(Iso=1)             -2.70329  -4.69333  -0.29694 
 N(Iso=15)             1.76603   0.78613   0.14796 
 C(Iso=12)             2.51067   1.61878  -0.66024 
 C(Iso=12)             3.79795   2.06539  -0.30635 
 C(Iso=12)             4.36984   1.65733   0.9206 
 C(Iso=12)             3.62034   0.79668   1.75921 
 C(Iso=12)             2.3339    0.39293   1.33059 
 H(Iso=1)              1.75219  -0.25257   1.99164 
 C(Iso=12)             4.04704   0.30766   3.12672 
 N(Iso=15)             5.39383   0.36719   3.42764 
 H(Iso=1)              6.10683   0.63703   2.75168 
 H(Iso=1)              5.69163   0.05759   4.35413 
 O(Iso=16)             3.18811  -0.13768   3.9535 
 H(Iso=1)              5.35441   2.03847   1.21465 
 H(Iso=1)              4.3339    2.73582  -0.98403 
 H(Iso=1)              2.03041   1.92824  -1.58909 
 
 ITRead=  0  0  0  0  0  0  0  0  0  0  0  0  0  0  0  0  0  0  0  0
 ITRead=  0  0  0  0  0  0  0  0  0  0  0  0  0  0  0  0  0  0  0  0
 ITRead=  0  0  0  0  0  0  0  0  0  0  0  0  0  0  0  0  0  0  0  0
 ITRead=  0  0  0  0  0  0  0  0  0  0  0  0  0  0  0  0  0  0  0  0
 ITRead=  0  0  0  0  0  0  0  0  0  0  0  0  0  0  0
 MicOpt= -1 -1 -1 -1 -1 -1 -1 -1 -1 -1 -1 -1 -1 -1 -1 -1 -1 -1 -1 -1
 MicOpt= -1 -1 -1 -1 -1 -1 -1 -1 -1 -1 -1 -1 -1 -1 -1 -1 -1 -1 -1 -1
 MicOpt= -1 -1 -1 -1 -1 -1 -1 -1 -1 -1 -1 -1 -1 -1 -1 -1 -1 -1 -1 -1
 MicOpt= -1 -1 -1 -1 -1 -1 -1 -1 -1 -1 -1 -1 -1 -1 -1 -1 -1 -1 -1 -1
 MicOpt= -1 -1 -1 -1 -1 -1 -1 -1 -1 -1 -1 -1 -1 -1 -1
 NAtoms=     95 NQM=       95 NQMF=       0 NMMI=      0 NMMIF=      0
                NMic=       0 NMicF=      0.
                    Isotopes and Nuclear Properties:
 (Nuclear quadrupole moments (NQMom) in fm**2, nuclear magnetic moments (NMagM)
  in nuclear magnetons)

  Atom         1           2           3           4           5           6           7           8           9          10
 IAtWgt=         193          15          12          12          12          12          12           1           1           1
 AtmWgt= 192.9633000  15.0001090  12.0000000  12.0000000  12.0000000  12.0000000  12.0000000   1.0078250   1.0078250   1.0078250
 NucSpn=           3           1           0           0           0           0           0           1           1           1
 AtZEff=   0.0000000   0.0000000   0.0000000   0.0000000   0.0000000   0.0000000   0.0000000   0.0000000   0.0000000   0.0000000
 NQMom=   75.1000000   0.0000000   0.0000000   0.0000000   0.0000000   0.0000000   0.0000000   0.0000000   0.0000000   0.0000000
 NMagM=    0.1592000  -0.2831900   0.0000000   0.0000000   0.0000000   0.0000000   0.0000000   2.7928460   2.7928460   2.7928460
 AtZNuc=  77.0000000   7.0000000   6.0000000   6.0000000   6.0000000   6.0000000   6.0000000   1.0000000   1.0000000   1.0000000

  Atom        11          12          13          14          15          16          17          18          19          20
 IAtWgt=          12          15           1           1          16           1          15          12          12          12
 AtmWgt=  12.0000000  15.0001090   1.0078250   1.0078250  15.9949146   1.0078250  15.0001090  12.0000000  12.0000000  12.0000000
 NucSpn=           0           1           1           1           0           1           1           0           0           0
 AtZEff=   0.0000000   0.0000000   0.0000000   0.0000000   0.0000000   0.0000000   0.0000000   0.0000000   0.0000000   0.0000000
 NQMom=    0.0000000   0.0000000   0.0000000   0.0000000   0.0000000   0.0000000   0.0000000   0.0000000   0.0000000   0.0000000
 NMagM=    0.0000000  -0.2831900   2.7928460   2.7928460   0.0000000   2.7928460  -0.2831900   0.0000000   0.0000000   0.0000000
 AtZNuc=   6.0000000   7.0000000   1.0000000   1.0000000   8.0000000   1.0000000   7.0000000   6.0000000   6.0000000   6.0000000

  Atom        21          22          23          24          25          26          27          28          29          30
 IAtWgt=          12          12           1          12          15           1           1          16           1           1
 AtmWgt=  12.0000000  12.0000000   1.0078250  12.0000000  15.0001090   1.0078250   1.0078250  15.9949146   1.0078250   1.0078250
 NucSpn=           0           0           1           0           1           1           1           0           1           1
 AtZEff=   0.0000000   0.0000000   0.0000000   0.0000000   0.0000000   0.0000000   0.0000000   0.0000000   0.0000000   0.0000000
 NQMom=    0.0000000   0.0000000   0.0000000   0.0000000   0.0000000   0.0000000   0.0000000   0.0000000   0.0000000   0.0000000
 NMagM=    0.0000000   0.0000000   2.7928460   0.0000000  -0.2831900   2.7928460   2.7928460   0.0000000   2.7928460   2.7928460
 AtZNuc=   6.0000000   6.0000000   1.0000000   6.0000000   7.0000000   1.0000000   1.0000000   8.0000000   1.0000000   1.0000000

  Atom        31          32          33          34          35          36          37          38          39          40
 IAtWgt=           1           2           2          12          15          12          12           1          15          12
 AtmWgt=   1.0078250   2.0141018   2.0141018  12.0000000  15.0001090  12.0000000  12.0000000   1.0078250  15.0001090  12.0000000
 NucSpn=           1           2           2           0           1           0           0           1           1           0
 AtZEff=   0.0000000   0.0000000   0.0000000   0.0000000   0.0000000   0.0000000   0.0000000   0.0000000   0.0000000   0.0000000
 NQMom=    0.0000000   0.2860000   0.2860000   0.0000000   0.0000000   0.0000000   0.0000000   0.0000000   0.0000000   0.0000000
 NMagM=    2.7928460   0.8574380   0.8574380   0.0000000  -0.2831900   0.0000000   0.0000000   2.7928460  -0.2831900   0.0000000
 AtZNuc=   1.0000000   1.0000000   1.0000000   6.0000000   7.0000000   6.0000000   6.0000000   1.0000000   7.0000000   6.0000000

  Atom        41          42          43          44          45          46          47          48          49          50
 IAtWgt=          12          12          12          12          12          12           1           1           1           1
 AtmWgt=  12.0000000  12.0000000  12.0000000  12.0000000  12.0000000  12.0000000   1.0078250   1.0078250   1.0078250   1.0078250
 NucSpn=           0           0           0           0           0           0           1           1           1           1
 AtZEff=   0.0000000   0.0000000   0.0000000   0.0000000   0.0000000   0.0000000   0.0000000   0.0000000   0.0000000   0.0000000
 NQMom=    0.0000000   0.0000000   0.0000000   0.0000000   0.0000000   0.0000000   0.0000000   0.0000000   0.0000000   0.0000000
 NMagM=    0.0000000   0.0000000   0.0000000   0.0000000   0.0000000   0.0000000   2.7928460   2.7928460   2.7928460   2.7928460
 AtZNuc=   6.0000000   6.0000000   6.0000000   6.0000000   6.0000000   6.0000000   1.0000000   1.0000000   1.0000000   1.0000000

  Atom        51          52          53          54          55          56          57          58          59          60
 IAtWgt=          12           1           1           1           1          12           1           1           1           1
 AtmWgt=  12.0000000   1.0078250   1.0078250   1.0078250   1.0078250  12.0000000   1.0078250   1.0078250   1.0078250   1.0078250
 NucSpn=           0           1           1           1           1           0           1           1           1           1
 AtZEff=   0.0000000   0.0000000   0.0000000   0.0000000   0.0000000   0.0000000   0.0000000   0.0000000   0.0000000   0.0000000
 NQMom=    0.0000000   0.0000000   0.0000000   0.0000000   0.0000000   0.0000000   0.0000000   0.0000000   0.0000000   0.0000000
 NMagM=    0.0000000   2.7928460   2.7928460   2.7928460   2.7928460   0.0000000   2.7928460   2.7928460   2.7928460   2.7928460
 AtZNuc=   6.0000000   1.0000000   1.0000000   1.0000000   1.0000000   6.0000000   1.0000000   1.0000000   1.0000000   1.0000000

  Atom        61          62          63          64          65          66          67          68          69          70
 IAtWgt=          12          12          12          12          12          12          12           1           1           1
 AtmWgt=  12.0000000  12.0000000  12.0000000  12.0000000  12.0000000  12.0000000  12.0000000   1.0078250   1.0078250   1.0078250
 NucSpn=           0           0           0           0           0           0           0           1           1           1
 AtZEff=   0.0000000   0.0000000   0.0000000   0.0000000   0.0000000   0.0000000   0.0000000   0.0000000   0.0000000   0.0000000
 NQMom=    0.0000000   0.0000000   0.0000000   0.0000000   0.0000000   0.0000000   0.0000000   0.0000000   0.0000000   0.0000000
 NMagM=    0.0000000   0.0000000   0.0000000   0.0000000   0.0000000   0.0000000   0.0000000   2.7928460   2.7928460   2.7928460
 AtZNuc=   6.0000000   6.0000000   6.0000000   6.0000000   6.0000000   6.0000000   6.0000000   1.0000000   1.0000000   1.0000000

  Atom        71          72          73          74          75          76          77          78          79          80
 IAtWgt=           1          12           1           1           1           1          12           1           1           1
 AtmWgt=   1.0078250  12.0000000   1.0078250   1.0078250   1.0078250   1.0078250  12.0000000   1.0078250   1.0078250   1.0078250
 NucSpn=           1           0           1           1           1           1           0           1           1           1
 AtZEff=   0.0000000   0.0000000   0.0000000   0.0000000   0.0000000   0.0000000   0.0000000   0.0000000   0.0000000   0.0000000
 NQMom=    0.0000000   0.0000000   0.0000000   0.0000000   0.0000000   0.0000000   0.0000000   0.0000000   0.0000000   0.0000000
 NMagM=    2.7928460   0.0000000   2.7928460   2.7928460   2.7928460   2.7928460   0.0000000   2.7928460   2.7928460   2.7928460
 AtZNuc=   1.0000000   6.0000000   1.0000000   1.0000000   1.0000000   1.0000000   6.0000000   1.0000000   1.0000000   1.0000000

  Atom        81          82          83          84          85          86          87          88          89          90
 IAtWgt=          15          12          12          12          12          12           1          12          15           1
 AtmWgt=  15.0001090  12.0000000  12.0000000  12.0000000  12.0000000  12.0000000   1.0078250  12.0000000  15.0001090   1.0078250
 NucSpn=           1           0           0           0           0           0           1           0           1           1
 AtZEff=   0.0000000   0.0000000   0.0000000   0.0000000   0.0000000   0.0000000   0.0000000   0.0000000   0.0000000   0.0000000
 NQMom=    0.0000000   0.0000000   0.0000000   0.0000000   0.0000000   0.0000000   0.0000000   0.0000000   0.0000000   0.0000000
 NMagM=   -0.2831900   0.0000000   0.0000000   0.0000000   0.0000000   0.0000000   2.7928460   0.0000000  -0.2831900   2.7928460
 AtZNuc=   7.0000000   6.0000000   6.0000000   6.0000000   6.0000000   6.0000000   1.0000000   6.0000000   7.0000000   1.0000000

  Atom        91          92          93          94          95
 IAtWgt=           1          16           1           1           1
 AtmWgt=   1.0078250  15.9949146   1.0078250   1.0078250   1.0078250
 NucSpn=           1           0           1           1           1
 AtZEff=   0.0000000   0.0000000   0.0000000   0.0000000   0.0000000
 NQMom=    0.0000000   0.0000000   0.0000000   0.0000000   0.0000000
 NMagM=    2.7928460   0.0000000   2.7928460   2.7928460   2.7928460
 AtZNuc=   1.0000000   8.0000000   1.0000000   1.0000000   1.0000000
 Leave Link  101 at Thu Nov 14 17:16:47 2024, MaxMem=  4026531840 cpu:               0.0 elap:               0.2
 (Enter C:\G16W\l202.exe)
 Stoichiometry    C39H44IrN8O3(1+)
 Framework group  C1[X(C39H44IrN8O3)]
 Deg. of freedom   279
 Full point group                 C1      NOp   1
 Largest Abelian subgroup         C1      NOp   1
 Largest concise Abelian subgroup C1      NOp   1
                         Standard orientation:                         
 ---------------------------------------------------------------------
 Center     Atomic      Atomic             Coordinates (Angstroms)
 Number     Number       Type             X           Y           Z
 ---------------------------------------------------------------------
      1         77           0       -0.393160    0.528619   -0.289849
      2          7           0       -0.620250    2.354209    0.770821
      3          6           0       -1.248130    3.414229    0.150231
      4          6           0       -1.425550    4.667199    0.773301
      5          6           0       -0.919730    4.856179    2.086381
      6          6           0       -0.289270    3.774149    2.731591
      7          6           0       -0.160460    2.543439    2.055381
      8          1           0        0.322140    1.687819    2.531761
      9          1           0        0.106920    3.869369    3.746661
     10          1           0       -1.026510    5.840019    2.554441
     11          6           0       -2.078930    5.856409    0.095361
     12          7           0       -2.905320    5.595279   -0.983689
     13          1           0       -3.335950    6.393259   -1.453629
     14          1           0       -3.179300    4.655659   -1.266779
     15          8           0       -1.866160    7.032799    0.517661
     16          1           0       -1.565060    3.212179   -0.875109
     17          7           0       -0.853270   -0.607311    1.498241
     18          6           0       -1.898340   -0.229411    2.316491
     19          6           0       -2.236510   -0.938411    3.484151
     20          6           0       -1.485719   -2.079131    3.852421
     21          6           0       -0.421839   -2.489051    3.011751
     22          6           0       -0.154940   -1.736511    1.845321
     23          1           0        0.631641   -2.068571    1.164031
     24          6           0        0.438821   -3.716161    3.225611
     25          7           0        0.502331   -4.223961    4.508121
     26          1           0        0.118731   -3.738881    5.318201
     27          1           0        1.074161   -5.055741    4.664351
     28          8           0        1.066481   -4.242131    2.253101
     29          1           0       -1.758989   -2.644701    4.750211
     30          1           0       -3.083670   -0.600681    4.088121
     31          1           0       -2.466240    0.644599    1.990961
     32          1           0       -1.962320    0.573689   -0.576769
     33          1           0       -0.175560    1.399999   -1.630059
     34          6           0       -0.389730   -1.090921   -1.479779
     35          7           0       -1.501819   -1.902201   -1.800489
     36          6           0       -1.159909   -2.908451   -2.730839
     37          6           0        0.173341   -2.752961   -3.021459
     38          1           0        0.833431   -3.310681   -3.679109
     39          7           0        0.636480   -1.652181   -2.263479
     40          6           0        2.011150   -1.197290   -2.428239
     41          6           0        2.288830   -0.265650   -3.473059
     42          6           0        3.639820    0.076680   -3.718879
     43          6           0        4.706250   -0.499960   -2.977889
     44          6           0        4.388250   -1.434840   -1.963699
     45          6           0        3.049020   -1.810350   -1.674249
     46          6           0        2.777961   -2.846380   -0.595129
     47          1           0        3.519641   -3.663520   -0.639329
     48          1           0        2.860561   -2.403800    0.416671
     49          1           0        1.777071   -3.299610   -0.675199
     50          1           0        5.199521   -1.907310   -1.394339
     51          6           0        6.152040   -0.159120   -3.306439
     52          1           0        6.274890    0.912870   -3.546219
     53          1           0        6.830160   -0.406270   -2.470769
     54          1           0        6.498680   -0.729150   -4.190469
     55          1           0        3.867150    0.787560   -4.524019
     56          6           0        1.173890    0.329449   -4.318249
     57          1           0        0.446110    0.879539   -3.692259
     58          1           0        1.579340    1.022439   -5.074959
     59          1           0        0.606830   -0.457541   -4.851159
     60          1           0       -1.890189   -3.627371   -3.089639
     61          6           0       -2.881780   -1.754211   -1.351689
     62          6           0       -3.386739   -2.631441   -0.354619
     63          6           0       -4.748449   -2.492091    0.025681
     64          6           0       -5.603940   -1.542031   -0.580569
     65          6           0       -5.072850   -0.723391   -1.613839
     66          6           0       -3.723740   -0.819121   -2.025469
     67          6           0       -3.201260    0.030979   -3.171379
     68          1           0       -4.004690    0.660349   -3.591189
     69          1           0       -2.376370    0.686089   -2.834129
     70          1           0       -2.802440   -0.597401   -3.990919
     71          1           0       -5.731310   -0.007021   -2.122539
     72          6           0       -7.062730   -1.416851   -0.166809
     73          1           0       -7.311179   -2.102451    0.661491
     74          1           0       -7.302080   -0.387351    0.160921
     75          1           0       -7.738230   -1.651811   -1.011339
     76          1           0       -5.149279   -3.158501    0.800541
     77          6           0       -2.546919   -3.744401    0.253391
     78          1           0       -1.466559   -3.530661    0.223651
     79          1           0       -2.837299   -3.931411    1.302231
     80          1           0       -2.703289   -4.693331   -0.296939
     81          7           0        1.766030    0.786130    0.147961
     82          6           0        2.510670    1.618780   -0.660239
     83          6           0        3.797950    2.065390   -0.306349
     84          6           0        4.369840    1.657330    0.920601
     85          6           0        3.620340    0.796680    1.759211
     86          6           0        2.333900    0.392930    1.330591
     87          1           0        1.752190   -0.252570    1.991641
     88          6           0        4.047040    0.307660    3.126721
     89          7           0        5.393830    0.367190    3.427641
     90          1           0        6.106830    0.637030    2.751681
     91          1           0        5.691630    0.057590    4.354131
     92          8           0        3.188110   -0.137680    3.953501
     93          1           0        5.354410    2.038470    1.214651
     94          1           0        4.333900    2.735820   -0.984029
     95          1           0        2.030410    1.928240   -1.589089
 ---------------------------------------------------------------------
 Rotational constants (GHZ):           0.0572004           0.0497110           0.0444231
 Leave Link  202 at Thu Nov 14 17:16:47 2024, MaxMem=  4026531840 cpu:               0.0 elap:               0.1
 (Enter C:\G16W\l301.exe)
 General basis read from cards:  (5D, 7F)
 Centers:       3      4      5      6      7     11     18     19     20     21
 Centers:      22     24     34     36     37     40     41     42     43     44
 Centers:      45     46     51     56     61     62     63     64     65     66
 Centers:      67     72     77     82     83     84     85     86     88      8
 Centers:       9     10     13     14     16     23     26     27     29     30
 Centers:      31     32     33     38     47     48     49     50     52     53
 Centers:      54     55     57     58     59     60     68     69     70     71
 Centers:      73     74     75     76     78     79     80     87     90     91
 Centers:      93     94     95      2     12     17     25     35     39     81
 Centers:      89     15     28     92
 cc-pVDZ
 ****
 Centers:       1
 S 9 1.00
     Exponent=  3.4204800000D+01 Coefficients=  1.7330000000D-02
     Exponent=  2.1376800000D+01 Coefficients= -1.5320300000D-01
     Exponent=  1.3362400000D+01 Coefficients=  4.4193300000D-01
     Exponent=  8.3483500000D+00 Coefficients= -1.8869200000D-01
     Exponent=  4.7316300000D+00 Coefficients= -7.1222500000D-01
     Exponent=  1.3078500000D+00 Coefficients=  8.5290500000D-01
     Exponent=  6.2433400000D-01 Coefficients=  4.9974600000D-01
     Exponent=  1.9387100000D-01 Coefficients=  3.5249000000D-02
     Exponent=  8.7949000000D-02 Coefficients= -7.0780000000D-03
 S 9 1.00
     Exponent=  3.4204800000D+01 Coefficients=  5.7000000000D-03
     Exponent=  2.1376800000D+01 Coefficients=  1.8686000000D-02
     Exponent=  1.3362400000D+01 Coefficients= -1.0988200000D-01
     Exponent=  8.3483500000D+00 Coefficients= -1.2623000000D-01
     Exponent=  4.7316300000D+00 Coefficients=  7.8763900000D-01
     Exponent=  1.3078500000D+00 Coefficients= -1.7027670000D+00
     Exponent=  6.2433400000D-01 Coefficients=  4.3833400000D-01
     Exponent=  1.9387100000D-01 Coefficients=  2.1004080000D+00
     Exponent=  8.7949000000D-02 Coefficients= -1.2318660000D+00
 S 9 1.00
     Exponent=  3.4204800000D+01 Coefficients= -6.0010000000D-03
     Exponent=  2.1376800000D+01 Coefficients=  5.3885000000D-02
     Exponent=  1.3362400000D+01 Coefficients= -1.6060200000D-01
     Exponent=  8.3483500000D+00 Coefficients=  8.0395000000D-02
     Exponent=  4.7316300000D+00 Coefficients=  2.5759400000D-01
     Exponent=  1.3078500000D+00 Coefficients= -4.2375100000D-01
     Exponent=  6.2433400000D-01 Coefficients= -3.4835400000D-01
     Exponent=  1.9387100000D-01 Coefficients=  2.8003100000D-01
     Exponent=  8.7949000000D-02 Coefficients=  6.5455700000D-01
 S 9 1.00
     Exponent=  3.4204800000D+01 Coefficients= -1.4500000000D-04
     Exponent=  2.1376800000D+01 Coefficients=  1.5500000000D-04
     Exponent=  1.3362400000D+01 Coefficients=  4.5800000000D-04
     Exponent=  8.3483500000D+00 Coefficients=  2.7310000000D-03
     Exponent=  4.7316300000D+00 Coefficients= -1.1160000000D-02
     Exponent=  1.3078500000D+00 Coefficients=  3.2263000000D-02
     Exponent=  6.2433400000D-01 Coefficients= -3.0980000000D-02
     Exponent=  1.9387100000D-01 Coefficients= -1.9260000000D-03
     Exponent=  8.7949000000D-02 Coefficients=  2.4447000000D-02
 S 1 1.00
     Exponent=  3.7539000000D-02 Coefficients=  1.0000000000D+00
 P 8 1.00
     Exponent=  2.0720400000D+01 Coefficients= -1.3202000000D-02
     Exponent=  1.2967700000D+01 Coefficients=  7.3952000000D-02
     Exponent=  5.7222400000D+00 Coefficients= -2.8431200000D-01
     Exponent=  1.5503800000D+00 Coefficients=  5.1022300000D-01
     Exponent=  7.8266000000D-01 Coefficients=  4.7950200000D-01
     Exponent=  3.8551500000D-01 Coefficients=  1.6977200000D-01
     Exponent=  1.7060900000D-01 Coefficients=  1.6668000000D-02
     Exponent=  7.2829000000D-02 Coefficients=  1.2420000000D-03
 P 8 1.00
     Exponent=  2.0720400000D+01 Coefficients=  6.8620000000D-03
     Exponent=  1.2967700000D+01 Coefficients= -4.2229000000D-02
     Exponent=  5.7222400000D+00 Coefficients=  1.7714700000D-01
     Exponent=  1.5503800000D+00 Coefficients= -4.2011300000D-01
     Exponent=  7.8266000000D-01 Coefficients= -4.3819700000D-01
     Exponent=  3.8551500000D-01 Coefficients=  4.0345300000D-01
     Exponent=  1.7060900000D-01 Coefficients=  7.0481500000D-01
     Exponent=  7.2829000000D-02 Coefficients=  1.6927300000D-01
 P 8 1.00
     Exponent=  2.0720400000D+01 Coefficients=  1.2146000000D-02
     Exponent=  1.2967700000D+01 Coefficients= -7.2302000000D-02
     Exponent=  5.7222400000D+00 Coefficients=  3.1210500000D-01
     Exponent=  1.5503800000D+00 Coefficients= -1.1249840000D+00
     Exponent=  7.8266000000D-01 Coefficients=  9.2840000000D-03
     Exponent=  3.8551500000D-01 Coefficients=  1.6533010000D+00
     Exponent=  1.7060900000D-01 Coefficients= -6.5278600000D-01
     Exponent=  7.2829000000D-02 Coefficients= -6.1664200000D-01
 P 8 1.00
     Exponent=  2.0720400000D+01 Coefficients=  3.5200000000D-03
     Exponent=  1.2967700000D+01 Coefficients= -2.1520000000D-02
     Exponent=  5.7222400000D+00 Coefficients=  8.9092000000D-02
     Exponent=  1.5503800000D+00 Coefficients= -1.9241800000D-01
     Exponent=  7.8266000000D-01 Coefficients= -2.0896700000D-01
     Exponent=  3.8551500000D-01 Coefficients=  4.6730000000D-03
     Exponent=  1.7060900000D-01 Coefficients=  3.8284600000D-01
     Exponent=  7.2829000000D-02 Coefficients=  5.3996300000D-01
 P 1 1.00
     Exponent=  3.0571000000D-02 Coefficients=  1.0000000000D+00
 D 7 1.00
     Exponent=  9.1412500000D+01 Coefficients=  2.4000000000D-05
     Exponent=  9.7301300000D+00 Coefficients=  1.5217000000D-02
     Exponent=  6.0771200000D+00 Coefficients= -6.5724000000D-02
     Exponent=  1.6882000000D+00 Coefficients=  2.3400500000D-01
     Exponent=  8.2378600000D-01 Coefficients=  3.8453500000D-01
     Exponent=  3.8206800000D-01 Coefficients=  3.5584900000D-01
     Exponent=  1.6696500000D-01 Coefficients=  2.1197600000D-01
 D 7 1.00
     Exponent=  9.1412500000D+01 Coefficients= -8.0000000000D-06
     Exponent=  9.7301300000D+00 Coefficients=  3.0614000000D-02
     Exponent=  6.0771200000D+00 Coefficients= -1.3017900000D-01
     Exponent=  1.6882000000D+00 Coefficients=  7.7669700000D-01
     Exponent=  8.2378600000D-01 Coefficients=  1.0464500000D-01
     Exponent=  3.8206800000D-01 Coefficients= -1.0602650000D+00
     Exponent=  1.6696500000D-01 Coefficients=  1.6971600000D-01
 D 7 1.00
     Exponent=  9.1412500000D+01 Coefficients= -1.3000000000D-05
     Exponent=  9.7301300000D+00 Coefficients= -1.8313000000D-02
     Exponent=  6.0771200000D+00 Coefficients=  7.8022000000D-02
     Exponent=  1.6882000000D+00 Coefficients= -3.2544600000D-01
     Exponent=  8.2378600000D-01 Coefficients= -4.7939500000D-01
     Exponent=  3.8206800000D-01 Coefficients=  1.3914800000D-01
     Exponent=  1.6696500000D-01 Coefficients=  5.8313400000D-01
 D 1 1.00
     Exponent=  6.7231000000D-02 Coefficients=  1.0000000000D+00
 F 1 1.00
     Exponent=  1.1759000000D+00 Coefficients=  1.0000000000D+00
 F 1 1.00
     Exponent=  3.8470000000D-01 Coefficients=  1.0000000000D+00
 G 1 1.00
     Exponent=  9.5770000000D-01 Coefficients=  1.0000000000D+00
 ****
 ======================================================================================================
                                       Pseudopotential Parameters
 ======================================================================================================
  Center     Atomic      Valence      Angular      Power
  Number     Number     Electrons     Momentum     of R      Exponent        Coefficient   SO-Coeffient
 ======================================================================================================
    1         77           17
                                      H and up 
                                                     2        1.0000000        0.00000000    0.00000000
                                      S - H
                                                     2       13.8314740      426.95814900    0.00000000
                                                     2        7.0479140       65.33881300    0.00000000
                                      P - H
                                                     2       11.1064330       88.07544200    0.00000000
                                                     2       10.4565520      176.12477000    0.00000000
                                                     2        6.3796140       12.68226000    0.00000000
                                                     2        5.0647260       24.63594900    0.00000000
                                      D - H
                                                     2        7.5487540       46.43325800    0.00000000
                                                     2        7.2653080       69.63807400    0.00000000
                                                     2        3.8009690        6.15024800    0.00000000
                                                     2        3.7182800        9.46356000    0.00000000
                                      F - H
                                                     2        3.0987060        9.48361000    0.00000000
                                                     2        3.0494610       12.64274200    0.00000000
                                      G - H
                                                     2        4.9697900      -10.41069700    0.00000000
                                                     2        4.9356140      -12.86319600    0.00000000
    2          7
                                   No pseudopotential on this center.
    3          6
                                   No pseudopotential on this center.
    4          6
                                   No pseudopotential on this center.
    5          6
                                   No pseudopotential on this center.
    6          6
                                   No pseudopotential on this center.
    7          6
                                   No pseudopotential on this center.
    8          1
                                   No pseudopotential on this center.
    9          1
                                   No pseudopotential on this center.
   10          1
                                   No pseudopotential on this center.
   11          6
                                   No pseudopotential on this center.
   12          7
                                   No pseudopotential on this center.
   13          1
                                   No pseudopotential on this center.
   14          1
                                   No pseudopotential on this center.
   15          8
                                   No pseudopotential on this center.
   16          1
                                   No pseudopotential on this center.
   17          7
                                   No pseudopotential on this center.
   18          6
                                   No pseudopotential on this center.
   19          6
                                   No pseudopotential on this center.
   20          6
                                   No pseudopotential on this center.
   21          6
                                   No pseudopotential on this center.
   22          6
                                   No pseudopotential on this center.
   23          1
                                   No pseudopotential on this center.
   24          6
                                   No pseudopotential on this center.
   25          7
                                   No pseudopotential on this center.
   26          1
                                   No pseudopotential on this center.
   27          1
                                   No pseudopotential on this center.
   28          8
                                   No pseudopotential on this center.
   29          1
                                   No pseudopotential on this center.
   30          1
                                   No pseudopotential on this center.
   31          1
                                   No pseudopotential on this center.
   32          1
                                   No pseudopotential on this center.
   33          1
                                   No pseudopotential on this center.
   34          6
                                   No pseudopotential on this center.
   35          7
                                   No pseudopotential on this center.
   36          6
                                   No pseudopotential on this center.
   37          6
                                   No pseudopotential on this center.
   38          1
                                   No pseudopotential on this center.
   39          7
                                   No pseudopotential on this center.
   40          6
                                   No pseudopotential on this center.
   41          6
                                   No pseudopotential on this center.
   42          6
                                   No pseudopotential on this center.
   43          6
                                   No pseudopotential on this center.
   44          6
                                   No pseudopotential on this center.
   45          6
                                   No pseudopotential on this center.
   46          6
                                   No pseudopotential on this center.
   47          1
                                   No pseudopotential on this center.
   48          1
                                   No pseudopotential on this center.
   49          1
                                   No pseudopotential on this center.
   50          1
                                   No pseudopotential on this center.
   51          6
                                   No pseudopotential on this center.
   52          1
                                   No pseudopotential on this center.
   53          1
                                   No pseudopotential on this center.
   54          1
                                   No pseudopotential on this center.
   55          1
                                   No pseudopotential on this center.
   56          6
                                   No pseudopotential on this center.
   57          1
                                   No pseudopotential on this center.
   58          1
                                   No pseudopotential on this center.
   59          1
                                   No pseudopotential on this center.
   60          1
                                   No pseudopotential on this center.
   61          6
                                   No pseudopotential on this center.
   62          6
                                   No pseudopotential on this center.
   63          6
                                   No pseudopotential on this center.
   64          6
                                   No pseudopotential on this center.
   65          6
                                   No pseudopotential on this center.
   66          6
                                   No pseudopotential on this center.
   67          6
                                   No pseudopotential on this center.
   68          1
                                   No pseudopotential on this center.
   69          1
                                   No pseudopotential on this center.
   70          1
                                   No pseudopotential on this center.
   71          1
                                   No pseudopotential on this center.
   72          6
                                   No pseudopotential on this center.
   73          1
                                   No pseudopotential on this center.
   74          1
                                   No pseudopotential on this center.
   75          1
                                   No pseudopotential on this center.
   76          1
                                   No pseudopotential on this center.
   77          6
                                   No pseudopotential on this center.
   78          1
                                   No pseudopotential on this center.
   79          1
                                   No pseudopotential on this center.
   80          1
                                   No pseudopotential on this center.
   81          7
                                   No pseudopotential on this center.
   82          6
                                   No pseudopotential on this center.
   83          6
                                   No pseudopotential on this center.
   84          6
                                   No pseudopotential on this center.
   85          6
                                   No pseudopotential on this center.
   86          6
                                   No pseudopotential on this center.
   87          1
                                   No pseudopotential on this center.
   88          6
                                   No pseudopotential on this center.
   89          7
                                   No pseudopotential on this center.
   90          1
                                   No pseudopotential on this center.
   91          1
                                   No pseudopotential on this center.
   92          8
                                   No pseudopotential on this center.
   93          1
                                   No pseudopotential on this center.
   94          1
                                   No pseudopotential on this center.
   95          1
                                   No pseudopotential on this center.
 ======================================================================================================
 Ernie: Thresh=  0.10000D-02 Tol=  0.10000D-05 Strict=F.
 Ernie:  130 primitive shells out of 1415 were deleted.
 There are  1049 symmetry adapted cartesian basis functions of A   symmetry.
 There are   983 symmetry adapted basis functions of A   symmetry.
   983 basis functions,  2177 primitive gaussians,  1049 cartesian basis functions
   187 alpha electrons      187 beta electrons
       nuclear repulsion energy      7434.0798653222 Hartrees.
 IExCor= 4235 DFT=T Ex+Corr=M06 ExCW=0 ScaHFX=  0.270000
 ScaDFX=  1.000000  1.000000  1.000000  1.000000 ScalE2=  1.000000  1.000000
 IRadAn=      5 IRanWt=     -1 IRanGd=            0 ICorTp=0 IEmpDi=  4
 NAtoms=   95 NActive=   95 NUniq=   95 SFac= 1.00D+00 NAtFMM=   60 NAOKFM=T Big=T
 Integral buffers will be    131072 words long.
 Raffenetti 2 integral format.
 Two-electron integral symmetry is turned on.
 ------------------------------------------------------------------------------
 Polarizable Continuum Model (PCM)
 =================================
 Model                : PCM.
 Atomic radii         : SMD-Coulomb.
 Polarization charges : Total charges.
 Charge compensation  : None.
 Solution method      : On-the-fly selection.
 Cavity type          : VdW (van der Waals Surface) (Alpha=1.000).
 Cavity algorithm     : GePol (No added spheres)
                        Default sphere list used, NSphG=   95.
                        Lebedev-Laikov grids with approx.  5.0 points / Ang**2.
                        Smoothing algorithm: York/Karplus (Gamma=1.0000).
                        Polarization charges: spherical gaussians, with
                                              point-specific exponents (IZeta= 3).
                        Self-potential: point-specific (ISelfS= 7).
                        Self-field    : sphere-specific E.n sum rule (ISelfD= 2).
 Solvent              : Benzene, Eps=   2.270600 Eps(inf)=   2.253301
 ------------------------------------------------------------------------------
 GePol: Number of generator spheres                  =      95
 GePol: Total number of spheres                      =      95
 GePol: Number of exposed spheres                    =      95 (100.00%)
 GePol: Number of points                             =    7224
 GePol: Average weight of points                     =       0.11
 GePol: Minimum weight of points                     =   0.25D-10
 GePol: Maximum weight of points                     =    0.17992
 GePol: Number of points with low weight             =     433
 GePol: Fraction of low-weight points (<1% of avg)   =       5.99%
 GePol: Cavity surface area                          =    790.444 Ang**2
 GePol: Cavity volume                                =    799.646 Ang**3
 ------------------------------------------------------------------------------
 Atomic radii for non-electrostatic terms: SMD-CDS.
 ------------------------------------------------------------------------------
 PCM non-electrostatic energy =        -0.0223800385 Hartrees.
 Nuclear repulsion after PCM non-electrostatic terms =     7434.0574852837 Hartrees.
 Leave Link  301 at Thu Nov 14 17:16:48 2024, MaxMem=  4026531840 cpu:               0.0 elap:               0.8
 (Enter C:\G16W\l302.exe)
 NPDir=0 NMtPBC=     1 NCelOv=     1 NCel=       1 NClECP=     1 NCelD=      1
         NCelK=      1 NCelE2=     1 NClLst=     1 CellRange=     0.0.
 One-electron integrals computed using PRISM.
 One-electron integral symmetry used in STVInt
   1 Symmetry operations used in ECPInt.
 ECPInt:  NShTT=  101025 NPrTT=  828767 LenC2=   80682 LenP2D=  305583.
 LDataN:  DoStor=T MaxTD1= 9 Len=  602
 NBasis=   983 RedAO= T EigKep=  1.94D-04  NBF=   983
 NBsUse=   983 1.00D-06 EigRej= -1.00D+00 NBFU=   983
 Precomputing XC quadrature grid using
 IXCGrd= 4 IRadAn=           5 IRanWt=          -1 IRanGd=           0 AccXCQ= 0.00D+00.
 Defaulting to unpruned grid for atomic number  77.
 Generated NRdTot=       0 NPtTot=           0 NUsed=           0 NTot=          32
 NSgBfM=   991   990   990   990   991 MxSgAt=    95 MxSgA2=    95.
 Leave Link  302 at Thu Nov 14 17:17:00 2024, MaxMem=  4026531840 cpu:              12.0 elap:              11.7
 (Enter C:\G16W\l303.exe)
 DipDrv:  MaxL=1.
 Leave Link  303 at Thu Nov 14 17:17:01 2024, MaxMem=  4026531840 cpu:               1.0 elap:               0.6
 (Enter C:\G16W\l401.exe)
 ExpMin= 3.06D-02 ExpMax= 1.17D+04 ExpMxC= 4.01D+02 IAcc=3 IRadAn=         5 AccDes= 0.00D+00
 Harris functional with IExCor= 1009 and IRadAn=       5 diagonalized for initial guess.
 HarFok:  IExCor= 1009 AccDes= 0.00D+00 IRadAn=         5 IDoV= 1 UseB2=F ITyADJ=14
 ICtDFT=  3500011 ScaDFX=  1.000000  1.000000  1.000000  1.000000
 Defaulting to unpruned grid for atomic number  77.
 FoFCou: FMM=F IPFlag=           0 FMFlag=      100000 FMFlg1=        2001
         NFxFlg=           0 DoJE=T BraDBF=F KetDBF=T FulRan=T
         wScrn=  0.000000 ICntrl=       500 IOpCl=  0 I1Cent=   200000004 NGrid=           0
         NMat0=    1 NMatS0=      1 NMatT0=    0 NMatD0=    1 NMtDS0=    0 NMtDT0=    0
 Petite list used in FoFCou.
 Harris En= -2278.81334670662    
 JPrj=0 DoOrth=F DoCkMO=F.
 Leave Link  401 at Thu Nov 14 17:17:32 2024, MaxMem=  4026531840 cpu:              31.0 elap:              31.2
 (Enter C:\G16W\l502.exe)
 Integral symmetry usage will be decided dynamically.
 Closed shell SCF:
 Using DIIS extrapolation, IDIIS=  1040.
 NGot=  4026531840 LenX=  4024286166 LenY=  4023184716
 Requested convergence on RMS density matrix=1.00D-08 within 128 cycles.
 Requested convergence on MAX density matrix=1.00D-06.
 Requested convergence on             energy=1.00D-06.
 No special actions if energy rises.
 Fock matrices will be formed incrementally for  20 cycles.

 Cycle   1  Pass 1  IDiag  1:
 FoFJK:  IHMeth= 1 ICntrl=       0 DoSepK=F KAlg= 0 I1Cent=           0 FoldK=F
 IRaf= 990000000 NMat=       1 IRICut=       1 DoRegI=T DoRafI=F ISym2E= 0 IDoP0=0 IntGTp=1.
 FoFCou: FMM=T IPFlag=           0 FMFlag=      100000 FMFlg1=        2001
         NFxFlg=           0 DoJE=F BraDBF=F KetDBF=F FulRan=T
         wScrn=  0.000000 ICntrl=         0 IOpCl=  0 I1Cent=           0 NGrid=           0
         NMat0=    1 NMatS0=      1 NMatT0=    0 NMatD0=    1 NMtDS0=    0 NMtDT0=    0
 Symmetry not used in FoFCou.
 FMM levels:  10  Number of levels for PrismC:   9
 Defaulting to unpruned grid for atomic number  77.
 Defaulting to unpruned grid for atomic number  77.
 Defaulting to unpruned grid for atomic number  77.
 Defaulting to unpruned grid for atomic number  77.
 Defaulting to unpruned grid for atomic number  77.
 Defaulting to unpruned grid for atomic number  77.
 Defaulting to unpruned grid for atomic number  77.
 Defaulting to unpruned grid for atomic number  77.
 Defaulting to unpruned grid for atomic number  77.
 Defaulting to unpruned grid for atomic number  77.
 Defaulting to unpruned grid for atomic number  77.
 Defaulting to unpruned grid for atomic number  77.
 Defaulting to unpruned grid for atomic number  77.
 Defaulting to unpruned grid for atomic number  77.
 Defaulting to unpruned grid for atomic number  77.
 Defaulting to unpruned grid for atomic number  77.
 Defaulting to unpruned grid for atomic number  77.
 Defaulting to unpruned grid for atomic number  77.
 Defaulting to unpruned grid for atomic number  77.
 Defaulting to unpruned grid for atomic number  77.
 Defaulting to unpruned grid for atomic number  77.
 Defaulting to unpruned grid for atomic number  77.
 Defaulting to unpruned grid for atomic number  77.
 Defaulting to unpruned grid for atomic number  77.
 Defaulting to unpruned grid for atomic number  77.
 Defaulting to unpruned grid for atomic number  77.
 Defaulting to unpruned grid for atomic number  77.
 Defaulting to unpruned grid for atomic number  77.
 Defaulting to unpruned grid for atomic number  77.
 Defaulting to unpruned grid for atomic number  77.
 Inv3:  Mode=1 IEnd=   156558528.
 Iteration    1 A*A^-1 deviation from unit magnitude is 5.00D-15 for   2829.
 Iteration    1 A*A^-1 deviation from orthogonality  is 3.90D-15 for   5972   1760.
 Iteration    1 A^-1*A deviation from unit magnitude is 4.77D-15 for    625.
 Iteration    1 A^-1*A deviation from orthogonality  is 2.68D-15 for   3449   3276.
 E= -2278.48878339774    
 DIIS: error= 1.98D-02 at cycle   1 NSaved=   1.
 NSaved= 1 IEnMin= 1 EnMin= -2278.48878339774     IErMin= 1 ErrMin= 1.98D-02
 ErrMax= 1.98D-02  0.00D+00 EMaxC= 1.00D-01 BMatC= 9.86D-01 BMatP= 9.86D-01
 IDIUse=3 WtCom= 8.02D-01 WtEn= 1.98D-01
 Coeff-Com:  0.100D+01
 Coeff-En:   0.100D+01
 Coeff:      0.100D+01
 Gap=     0.300 Goal=   None    Shift=    0.000
 GapD=    0.300 DampG=1.000 DampE=0.250 DampFc=0.2500 IDamp=-1.
 Damping current iteration by 2.50D-01
 RMSDP=2.57D-03 MaxDP=1.98D-01              OVMax= 2.96D-01

 Cycle   2  Pass 1  IDiag  1:
 RMSU=  6.40D-04    CP:  9.94D-01
 E= -2278.81947547697     Delta-E=       -0.330692079227 Rises=F Damp=T
 DIIS: error= 9.14D-03 at cycle   2 NSaved=   2.
 NSaved= 2 IEnMin= 2 EnMin= -2278.81947547697     IErMin= 2 ErrMin= 9.14D-03
 ErrMax= 9.14D-03  0.00D+00 EMaxC= 1.00D-01 BMatC= 1.90D-01 BMatP= 9.86D-01
 IDIUse=3 WtCom= 9.09D-01 WtEn= 9.14D-02
 Coeff-Com: -0.499D+00 0.150D+01
 Coeff-En:   0.000D+00 0.100D+01
 Coeff:     -0.454D+00 0.145D+01
 Gap=     0.361 Goal=   None    Shift=    0.000
 RMSDP=9.42D-04 MaxDP=4.80D-02 DE=-3.31D-01 OVMax= 3.33D-01

 Cycle   3  Pass 1  IDiag  1:
 RMSU=  8.75D-04    CP:  9.78D-01  1.49D+00
 E= -2279.19335542109     Delta-E=       -0.373879944122 Rises=F Damp=F
 DIIS: error= 1.21D-02 at cycle   3 NSaved=   3.
 NSaved= 3 IEnMin= 3 EnMin= -2279.19335542109     IErMin= 2 ErrMin= 9.14D-03
 ErrMax= 1.21D-02  0.00D+00 EMaxC= 1.00D-01 BMatC= 2.69D-01 BMatP= 1.90D-01
 IDIUse=2 WtCom= 0.00D+00 WtEn= 1.00D+00
 Coeff-En:   0.000D+00 0.000D+00 0.100D+01
 Coeff:      0.000D+00 0.000D+00 0.100D+01
 Gap=     0.397 Goal=   None    Shift=    0.000
 RMSDP=1.36D-03 MaxDP=1.47D-01 DE=-3.74D-01 OVMax= 2.41D-01

 Cycle   4  Pass 1  IDiag  1:
 RMSU=  6.99D-04    CP:  9.81D-01  2.35D+00 -1.74D-01
 E= -2277.98637451145     Delta-E=        1.206980909641 Rises=F Damp=F
 DIIS: error= 2.68D-02 at cycle   4 NSaved=   4.
 NSaved= 4 IEnMin= 3 EnMin= -2279.19335542109     IErMin= 2 ErrMin= 9.14D-03
 ErrMax= 2.68D-02  0.00D+00 EMaxC= 1.00D-01 BMatC= 1.73D+00 BMatP= 1.90D-01
 IDIUse=2 WtCom= 0.00D+00 WtEn= 1.00D+00
 Coeff-En:   0.000D+00 0.000D+00 0.792D+00 0.208D+00
 Coeff:      0.000D+00 0.000D+00 0.792D+00 0.208D+00
 Gap=     0.229 Goal=   None    Shift=    0.000
 RMSDP=6.89D-04 MaxDP=8.91D-02 DE= 1.21D+00 OVMax= 1.55D-01

 Cycle   5  Pass 1  IDiag  1:
 RMSU=  1.90D-04    CP:  9.82D-01  1.79D+00  3.39D-01  5.24D-01
 E= -2279.31932697355     Delta-E=       -1.332952462102 Rises=F Damp=F
 DIIS: error= 8.09D-03 at cycle   5 NSaved=   5.
 NSaved= 5 IEnMin= 5 EnMin= -2279.31932697355     IErMin= 5 ErrMin= 8.09D-03
 ErrMax= 8.09D-03  0.00D+00 EMaxC= 1.00D-01 BMatC= 1.41D-01 BMatP= 1.90D-01
 IDIUse=3 WtCom= 9.19D-01 WtEn= 8.09D-02
 Coeff-Com: -0.661D-01 0.152D+00 0.338D+00-0.756D-01 0.652D+00
 Coeff-En:   0.000D+00 0.000D+00 0.377D+00 0.000D+00 0.623D+00
 Coeff:     -0.608D-01 0.140D+00 0.341D+00-0.695D-01 0.650D+00
 Gap=     0.160 Goal=   None    Shift=    0.000
 RMSDP=2.93D-04 MaxDP=3.03D-02 DE=-1.33D+00 OVMax= 8.06D-02

 Cycle   6  Pass 1  IDiag  1:
 RMSU=  8.30D-05    CP:  9.81D-01  1.64D+00  5.93D-01  3.32D-01  7.63D-01
 E= -2279.44060928601     Delta-E=       -0.121282312459 Rises=F Damp=F
 DIIS: error= 9.97D-04 at cycle   6 NSaved=   6.
 NSaved= 6 IEnMin= 6 EnMin= -2279.44060928601     IErMin= 6 ErrMin= 9.97D-04
 ErrMax= 9.97D-04  0.00D+00 EMaxC= 1.00D-01 BMatC= 2.64D-03 BMatP= 1.41D-01
 IDIUse=3 WtCom= 9.90D-01 WtEn= 9.97D-03
 Coeff-Com: -0.305D-01 0.506D-01 0.161D+00-0.713D-01 0.423D+00 0.467D+00
 Coeff-En:   0.000D+00 0.000D+00 0.000D+00 0.000D+00 0.000D+00 0.100D+01
 Coeff:     -0.302D-01 0.501D-01 0.160D+00-0.706D-01 0.419D+00 0.472D+00
 Gap=     0.150 Goal=   None    Shift=    0.000
 RMSDP=5.30D-05 MaxDP=5.21D-03 DE=-1.21D-01 OVMax= 1.02D-02

 Cycle   7  Pass 1  IDiag  1:
 RMSU=  3.00D-05    CP:  9.81D-01  1.65D+00  6.00D-01  3.11D-01  8.68D-01
                    CP:  5.77D-01
 E= -2279.44281934729     Delta-E=       -0.002210061279 Rises=F Damp=F
 DIIS: error= 4.42D-04 at cycle   7 NSaved=   7.
 NSaved= 7 IEnMin= 7 EnMin= -2279.44281934729     IErMin= 7 ErrMin= 4.42D-04
 ErrMax= 4.42D-04  0.00D+00 EMaxC= 1.00D-01 BMatC= 2.43D-04 BMatP= 2.64D-03
 IDIUse=3 WtCom= 9.96D-01 WtEn= 4.42D-03
 Coeff-Com: -0.290D-02 0.373D-02 0.247D-01-0.146D-01 0.601D-01 0.227D+00
 Coeff-Com:  0.702D+00
 Coeff-En:   0.000D+00 0.000D+00 0.000D+00 0.000D+00 0.000D+00 0.292D-01
 Coeff-En:   0.971D+00
 Coeff:     -0.289D-02 0.371D-02 0.246D-01-0.145D-01 0.598D-01 0.226D+00
 Coeff:      0.703D+00
 Gap=     0.151 Goal=   None    Shift=    0.000
 RMSDP=1.63D-05 MaxDP=1.35D-03 DE=-2.21D-03 OVMax= 3.39D-03

 Cycle   8  Pass 1  IDiag  1:
 RMSU=  1.24D-05    CP:  9.81D-01  1.65D+00  6.01D-01  3.13D-01  8.68D-01
                    CP:  6.63D-01  7.51D-01
 E= -2279.44298022105     Delta-E=       -0.000160873764 Rises=F Damp=F
 DIIS: error= 1.22D-04 at cycle   8 NSaved=   8.
 NSaved= 8 IEnMin= 8 EnMin= -2279.44298022105     IErMin= 8 ErrMin= 1.22D-04
 ErrMax= 1.22D-04  0.00D+00 EMaxC= 1.00D-01 BMatC= 5.10D-05 BMatP= 2.43D-04
 IDIUse=3 WtCom= 9.99D-01 WtEn= 1.22D-03
 Coeff-Com:  0.275D-02-0.454D-02-0.376D-02 0.145D-03-0.192D-01 0.838D-01
 Coeff-Com:  0.438D+00 0.503D+00
 Coeff-En:   0.000D+00 0.000D+00 0.000D+00 0.000D+00 0.000D+00 0.000D+00
 Coeff-En:   0.650D-01 0.935D+00
 Coeff:      0.274D-02-0.453D-02-0.375D-02 0.145D-03-0.192D-01 0.837D-01
 Coeff:      0.438D+00 0.503D+00
 Gap=     0.150 Goal=   None    Shift=    0.000
 RMSDP=7.49D-06 MaxDP=6.46D-04 DE=-1.61D-04 OVMax= 1.38D-03

 Cycle   9  Pass 1  IDiag  1:
 RMSU=  3.90D-06    CP:  9.81D-01  1.64D+00  6.03D-01  3.12D-01  8.66D-01
                    CP:  6.81D-01  8.70D-01  6.29D-01
 E= -2279.44302616655     Delta-E=       -0.000045945500 Rises=F Damp=F
 DIIS: error= 5.40D-05 at cycle   9 NSaved=   9.
 NSaved= 9 IEnMin= 9 EnMin= -2279.44302616655     IErMin= 9 ErrMin= 5.40D-05
 ErrMax= 5.40D-05  0.00D+00 EMaxC= 1.00D-01 BMatC= 3.68D-06 BMatP= 5.10D-05
 IDIUse=1 WtCom= 1.00D+00 WtEn= 0.00D+00
 Coeff-Com:  0.224D-02-0.362D-02-0.353D-02 0.115D-02-0.158D-01 0.348D-01
 Coeff-Com:  0.209D+00 0.280D+00 0.497D+00
 Coeff:      0.224D-02-0.362D-02-0.353D-02 0.115D-02-0.158D-01 0.348D-01
 Coeff:      0.209D+00 0.280D+00 0.497D+00
 Gap=     0.150 Goal=   None    Shift=    0.000
 RMSDP=2.29D-06 MaxDP=1.87D-04 DE=-4.59D-05 OVMax= 4.59D-04

 Cycle  10  Pass 1  IDiag  1:
 RMSU=  1.56D-06    CP:  9.81D-01  1.64D+00  6.03D-01  3.12D-01  8.67D-01
                    CP:  6.84D-01  8.73D-01  7.04D-01  7.11D-01
 E= -2279.44302920780     Delta-E=       -0.000003041247 Rises=F Damp=F
 DIIS: error= 1.27D-05 at cycle  10 NSaved=  10.
 NSaved=10 IEnMin=10 EnMin= -2279.44302920780     IErMin=10 ErrMin= 1.27D-05
 ErrMax= 1.27D-05  0.00D+00 EMaxC= 1.00D-01 BMatC= 4.80D-07 BMatP= 3.68D-06
 IDIUse=1 WtCom= 1.00D+00 WtEn= 0.00D+00
 Coeff-Com:  0.554D-03-0.717D-03-0.141D-02 0.681D-03-0.550D-02 0.377D-04
 Coeff-Com:  0.113D-01 0.191D-01 0.245D+00 0.731D+00
 Coeff:      0.554D-03-0.717D-03-0.141D-02 0.681D-03-0.550D-02 0.377D-04
 Coeff:      0.113D-01 0.191D-01 0.245D+00 0.731D+00
 Gap=     0.150 Goal=   None    Shift=    0.000
 RMSDP=9.18D-07 MaxDP=9.21D-05 DE=-3.04D-06 OVMax= 1.84D-04

 Cycle  11  Pass 1  IDiag  1:
 RMSU=  5.19D-07    CP:  9.81D-01  1.64D+00  6.04D-01  3.12D-01  8.67D-01
                    CP:  6.87D-01  8.84D-01  7.06D-01  8.30D-01  8.37D-01
 E= -2279.44302966629     Delta-E=       -0.000000458498 Rises=F Damp=F
 DIIS: error= 4.24D-06 at cycle  11 NSaved=  11.
 NSaved=11 IEnMin=11 EnMin= -2279.44302966629     IErMin=11 ErrMin= 4.24D-06
 ErrMax= 4.24D-06  0.00D+00 EMaxC= 1.00D-01 BMatC= 6.83D-08 BMatP= 4.80D-07
 IDIUse=1 WtCom= 1.00D+00 WtEn= 0.00D+00
 Coeff-Com:  0.139D-03-0.172D-03-0.535D-03 0.273D-03-0.161D-02-0.320D-02
 Coeff-Com: -0.137D-01-0.184D-01 0.949D-01 0.443D+00 0.499D+00
 Coeff:      0.139D-03-0.172D-03-0.535D-03 0.273D-03-0.161D-02-0.320D-02
 Coeff:     -0.137D-01-0.184D-01 0.949D-01 0.443D+00 0.499D+00
 Gap=     0.150 Goal=   None    Shift=    0.000
 RMSDP=2.98D-07 MaxDP=2.76D-05 DE=-4.58D-07 OVMax= 6.41D-05

 Cycle  12  Pass 1  IDiag  1:
 RMSU=  2.22D-07    CP:  9.81D-01  1.64D+00  6.04D-01  3.12D-01  8.68D-01
                    CP:  6.88D-01  8.85D-01  7.09D-01  8.39D-01  9.07D-01
                    CP:  7.51D-01
 E= -2279.44302972771     Delta-E=       -0.000000061413 Rises=F Damp=F
 DIIS: error= 2.12D-06 at cycle  12 NSaved=  12.
 NSaved=12 IEnMin=12 EnMin= -2279.44302972771     IErMin=12 ErrMin= 2.12D-06
 ErrMax= 2.12D-06  0.00D+00 EMaxC= 1.00D-01 BMatC= 8.79D-09 BMatP= 6.83D-08
 IDIUse=1 WtCom= 1.00D+00 WtEn= 0.00D+00
 Coeff-Com: -0.506D-04 0.599D-04-0.469D-05-0.798D-05 0.369D-03-0.165D-02
 Coeff-Com: -0.946D-02-0.146D-01-0.394D-03 0.973D-01 0.263D+00 0.666D+00
 Coeff:     -0.506D-04 0.599D-04-0.469D-05-0.798D-05 0.369D-03-0.165D-02
 Coeff:     -0.946D-02-0.146D-01-0.394D-03 0.973D-01 0.263D+00 0.666D+00
 Gap=     0.150 Goal=   None    Shift=    0.000
 RMSDP=1.33D-07 MaxDP=1.15D-05 DE=-6.14D-08 OVMax= 4.23D-05

 Cycle  13  Pass 1  IDiag  1:
 RMSU=  8.80D-08    CP:  9.81D-01  1.64D+00  6.04D-01  3.12D-01  8.68D-01
                    CP:  6.88D-01  8.86D-01  7.11D-01  8.47D-01  9.27D-01
                    CP:  8.48D-01  8.18D-01
 E= -2279.44302973489     Delta-E=       -0.000000007178 Rises=F Damp=F
 DIIS: error= 9.96D-07 at cycle  13 NSaved=  13.
 NSaved=13 IEnMin=13 EnMin= -2279.44302973489     IErMin=13 ErrMin= 9.96D-07
 ErrMax= 9.96D-07  0.00D+00 EMaxC= 1.00D-01 BMatC= 1.84D-09 BMatP= 8.79D-09
 IDIUse=1 WtCom= 1.00D+00 WtEn= 0.00D+00
 Coeff-Com: -0.523D-04 0.713D-04 0.415D-04-0.288D-04 0.355D-03-0.714D-03
 Coeff-Com: -0.425D-02-0.704D-02-0.968D-02 0.138D-01 0.993D-01 0.410D+00
 Coeff-Com:  0.499D+00
 Coeff:     -0.523D-04 0.713D-04 0.415D-04-0.288D-04 0.355D-03-0.714D-03
 Coeff:     -0.425D-02-0.704D-02-0.968D-02 0.138D-01 0.993D-01 0.410D+00
 Coeff:      0.499D+00
 Gap=     0.150 Goal=   None    Shift=    0.000
 RMSDP=4.78D-08 MaxDP=3.77D-06 DE=-7.18D-09 OVMax= 8.71D-06

 Cycle  14  Pass 1  IDiag  1:
 RMSU=  3.11D-08    CP:  9.81D-01  1.64D+00  6.04D-01  3.12D-01  8.68D-01
                    CP:  6.88D-01  8.86D-01  7.11D-01  8.48D-01  9.29D-01
                    CP:  8.56D-01  9.12D-01  6.96D-01
 E= -2279.44302973694     Delta-E=       -0.000000002055 Rises=F Damp=F
 DIIS: error= 2.74D-07 at cycle  14 NSaved=  14.
 NSaved=14 IEnMin=14 EnMin= -2279.44302973694     IErMin=14 ErrMin= 2.74D-07
 ErrMax= 2.74D-07  0.00D+00 EMaxC= 1.00D-01 BMatC= 1.26D-10 BMatP= 1.84D-09
 IDIUse=1 WtCom= 1.00D+00 WtEn= 0.00D+00
 Coeff-Com: -0.102D-04 0.119D-04 0.251D-04-0.120D-04 0.103D-03 0.359D-05
 Coeff-Com:  0.143D-05-0.557D-03-0.446D-02-0.126D-01-0.628D-02 0.681D-01
 Coeff-Com:  0.222D+00 0.734D+00
 Coeff:     -0.102D-04 0.119D-04 0.251D-04-0.120D-04 0.103D-03 0.359D-05
 Coeff:      0.143D-05-0.557D-03-0.446D-02-0.126D-01-0.628D-02 0.681D-01
 Coeff:      0.222D+00 0.734D+00
 Gap=     0.150 Goal=   None    Shift=    0.000
 RMSDP=1.63D-08 MaxDP=1.59D-06 DE=-2.06D-09 OVMax= 2.87D-06

 Cycle  15  Pass 1  IDiag  1:
 RMSU=  1.26D-08    CP:  9.81D-01  1.64D+00  6.04D-01  3.12D-01  8.68D-01
                    CP:  6.88D-01  8.86D-01  7.11D-01  8.49D-01  9.31D-01
                    CP:  8.64D-01  9.20D-01  7.72D-01  8.80D-01
 E= -2279.44302973683     Delta-E=        0.000000000107 Rises=F Damp=F
 DIIS: error= 9.16D-08 at cycle  15 NSaved=  15.
 NSaved=15 IEnMin=14 EnMin= -2279.44302973694     IErMin=15 ErrMin= 9.16D-08
 ErrMax= 9.16D-08  0.00D+00 EMaxC= 1.00D-01 BMatC= 3.95D-11 BMatP= 1.26D-10
 IDIUse=1 WtCom= 1.00D+00 WtEn= 0.00D+00
 Coeff-Com: -0.520D-06 0.128D-05 0.888D-05-0.262D-05 0.104D-04 0.769D-04
 Coeff-Com:  0.494D-03 0.486D-03-0.139D-02-0.916D-02-0.172D-01-0.118D-01
 Coeff-Com:  0.725D-01 0.454D+00 0.512D+00
 Coeff:     -0.520D-06 0.128D-05 0.888D-05-0.262D-05 0.104D-04 0.769D-04
 Coeff:      0.494D-03 0.486D-03-0.139D-02-0.916D-02-0.172D-01-0.118D-01
 Coeff:      0.725D-01 0.454D+00 0.512D+00
 Gap=     0.150 Goal=   None    Shift=    0.000
 RMSDP=7.85D-09 MaxDP=6.50D-07 DE= 1.07D-10 OVMax= 1.68D-06

 Error on total polarization charges =  0.08533
 SCF Done:  E(RM06) =  -2279.44302974     A.U. after   15 cycles
            NFock= 15  Conv=0.78D-08     -V/T= 2.0399
 KE= 2.192000588684D+03 PE=-2.010592019160D+04 EE= 8.200419087891D+03
 SMD-CDS (non-electrostatic) energy       (kcal/mol) =     -14.04
 (included in total energy above)
 Leave Link  502 at Thu Nov 14 18:01:04 2024, MaxMem=  4026531840 cpu:            2612.0 elap:            2612.2
 (Enter C:\G16W\l601.exe)
 Copying SCF densities to generalized density rwf, IOpCl= 0 IROHF=0.

 **********************************************************************

            Population analysis using the SCF Density.

 **********************************************************************

 Orbital symmetries:
       Occupied  (A) (A) (A) (A) (A) (A) (A) (A) (A) (A) (A) (A)
                 (A) (A) (A) (A) (A) (A) (A) (A) (A) (A) (A) (A)
                 (A) (A) (A) (A) (A) (A) (A) (A) (A) (A) (A) (A)
                 (A) (A) (A) (A) (A) (A) (A) (A) (A) (A) (A) (A)
                 (A) (A) (A) (A) (A) (A) (A) (A) (A) (A) (A) (A)
                 (A) (A) (A) (A) (A) (A) (A) (A) (A) (A) (A) (A)
                 (A) (A) (A) (A) (A) (A) (A) (A) (A) (A) (A) (A)
                 (A) (A) (A) (A) (A) (A) (A) (A) (A) (A) (A) (A)
                 (A) (A) (A) (A) (A) (A) (A) (A) (A) (A) (A) (A)
                 (A) (A) (A) (A) (A) (A) (A) (A) (A) (A) (A) (A)
                 (A) (A) (A) (A) (A) (A) (A) (A) (A) (A) (A) (A)
                 (A) (A) (A) (A) (A) (A) (A) (A) (A) (A) (A) (A)
                 (A) (A) (A) (A) (A) (A) (A) (A) (A) (A) (A) (A)
                 (A) (A) (A) (A) (A) (A) (A) (A) (A) (A) (A) (A)
                 (A) (A) (A) (A) (A) (A) (A) (A) (A) (A) (A) (A)
                 (A) (A) (A) (A) (A) (A) (A)
       Virtual   (A) (A) (A) (A) (A) (A) (A) (A) (A) (A) (A) (A)
                 (A) (A) (A) (A) (A) (A) (A) (A) (A) (A) (A) (A)
                 (A) (A) (A) (A) (A) (A) (A) (A) (A) (A) (A) (A)
                 (A) (A) (A) (A) (A) (A) (A) (A) (A) (A) (A) (A)
                 (A) (A) (A) (A) (A) (A) (A) (A) (A) (A) (A) (A)
                 (A) (A) (A) (A) (A) (A) (A) (A) (A) (A) (A) (A)
                 (A) (A) (A) (A) (A) (A) (A) (A) (A) (A) (A) (A)
                 (A) (A) (A) (A) (A) (A) (A) (A) (A) (A) (A) (A)
                 (A) (A) (A) (A) (A) (A) (A) (A) (A) (A) (A) (A)
                 (A) (A) (A) (A) (A) (A) (A) (A) (A) (A) (A) (A)
                 (A) (A) (A) (A) (A) (A) (A) (A) (A) (A) (A) (A)
                 (A) (A) (A) (A) (A) (A) (A) (A) (A) (A) (A) (A)
                 (A) (A) (A) (A) (A) (A) (A) (A) (A) (A) (A) (A)
                 (A) (A) (A) (A) (A) (A) (A) (A) (A) (A) (A) (A)
                 (A) (A) (A) (A) (A) (A) (A) (A) (A) (A) (A) (A)
                 (A) (A) (A) (A) (A) (A) (A) (A) (A) (A) (A) (A)
                 (A) (A) (A) (A) (A) (A) (A) (A) (A) (A) (A) (A)
                 (A) (A) (A) (A) (A) (A) (A) (A) (A) (A) (A) (A)
                 (A) (A) (A) (A) (A) (A) (A) (A) (A) (A) (A) (A)
                 (A) (A) (A) (A) (A) (A) (A) (A) (A) (A) (A) (A)
                 (A) (A) (A) (A) (A) (A) (A) (A) (A) (A) (A) (A)
                 (A) (A) (A) (A) (A) (A) (A) (A) (A) (A) (A) (A)
                 (A) (A) (A) (A) (A) (A) (A) (A) (A) (A) (A) (A)
                 (A) (A) (A) (A) (A) (A) (A) (A) (A) (A) (A) (A)
                 (A) (A) (A) (A) (A) (A) (A) (A) (A) (A) (A) (A)
                 (A) (A) (A) (A) (A) (A) (A) (A) (A) (A) (A) (A)
                 (A) (A) (A) (A) (A) (A) (A) (A) (A) (A) (A) (A)
                 (A) (A) (A) (A) (A) (A) (A) (A) (A) (A) (A) (A)
                 (A) (A) (A) (A) (A) (A) (A) (A) (A) (A) (A) (A)
                 (A) (A) (A) (A) (A) (A) (A) (A) (A) (A) (A) (A)
                 (A) (A) (A) (A) (A) (A) (A) (A) (A) (A) (A) (A)
                 (A) (A) (A) (A) (A) (A) (A) (A) (A) (A) (A) (A)
                 (A) (A) (A) (A) (A) (A) (A) (A) (A) (A) (A) (A)
                 (A) (A) (A) (A) (A) (A) (A) (A) (A) (A) (A) (A)
                 (A) (A) (A) (A) (A) (A) (A) (A) (A) (A) (A) (A)
                 (A) (A) (A) (A) (A) (A) (A) (A) (A) (A) (A) (A)
                 (A) (A) (A) (A) (A) (A) (A) (A) (A) (A) (A) (A)
                 (A) (A) (A) (A) (A) (A) (A) (A) (A) (A) (A) (A)
                 (A) (A) (A) (A) (A) (A) (A) (A) (A) (A) (A) (A)
                 (A) (A) (A) (A) (A) (A) (A) (A) (A) (A) (A) (A)
                 (A) (A) (A) (A) (A) (A) (A) (A) (A) (A) (A) (A)
                 (A) (A) (A) (A) (A) (A) (A) (A) (A) (A) (A) (A)
                 (A) (A) (A) (A) (A) (A) (A) (A) (A) (A) (A) (A)
                 (A) (A) (A) (A) (A) (A) (A) (A) (A) (A) (A) (A)
                 (A) (A) (A) (A) (A) (A) (A) (A) (A) (A) (A) (A)
                 (A) (A) (A) (A) (A) (A) (A) (A) (A) (A) (A) (A)
                 (A) (A) (A) (A) (A) (A) (A) (A) (A) (A) (A) (A)
                 (A) (A) (A) (A) (A) (A) (A) (A) (A) (A) (A) (A)
                 (A) (A) (A) (A) (A) (A) (A) (A) (A) (A) (A) (A)
                 (A) (A) (A) (A) (A) (A) (A) (A) (A) (A) (A) (A)
                 (A) (A) (A) (A) (A) (A) (A) (A) (A) (A) (A) (A)
                 (A) (A) (A) (A) (A) (A) (A) (A) (A) (A) (A) (A)
                 (A) (A) (A) (A) (A) (A) (A) (A) (A) (A) (A) (A)
                 (A) (A) (A) (A) (A) (A) (A) (A) (A) (A) (A) (A)
                 (A) (A) (A) (A) (A) (A) (A) (A) (A) (A) (A) (A)
                 (A) (A) (A) (A) (A) (A) (A) (A) (A) (A) (A) (A)
                 (A) (A) (A) (A) (A) (A) (A) (A) (A) (A) (A) (A)
                 (A) (A) (A) (A) (A) (A) (A) (A) (A) (A) (A) (A)
                 (A) (A) (A) (A) (A) (A) (A) (A) (A) (A) (A) (A)
                 (A) (A) (A) (A) (A) (A) (A) (A) (A) (A) (A) (A)
                 (A) (A) (A) (A) (A) (A) (A) (A) (A) (A) (A) (A)
                 (A) (A) (A) (A) (A) (A) (A) (A) (A) (A) (A) (A)
                 (A) (A) (A) (A) (A) (A) (A) (A) (A) (A) (A) (A)
                 (A) (A) (A) (A) (A) (A) (A) (A) (A) (A) (A) (A)
                 (A) (A) (A) (A) (A) (A) (A) (A) (A) (A) (A) (A)
                 (A) (A) (A) (A) (A) (A) (A) (A) (A) (A) (A) (A)
                 (A) (A) (A) (A)
 The electronic state is 1-A.
 Alpha  occ. eigenvalues --  -19.23048 -19.22941 -19.22656 -14.49870 -14.49578
 Alpha  occ. eigenvalues --  -14.49501 -14.49329 -14.48788 -14.46338 -14.46159
 Alpha  occ. eigenvalues --  -14.45924 -10.40895 -10.40737 -10.40509 -10.36085
 Alpha  occ. eigenvalues --  -10.35523 -10.35418 -10.35223 -10.35074 -10.34893
 Alpha  occ. eigenvalues --  -10.34834 -10.33488 -10.33374 -10.32948 -10.32839
 Alpha  occ. eigenvalues --  -10.32790 -10.32734 -10.32725 -10.32506 -10.32374
 Alpha  occ. eigenvalues --  -10.32299 -10.32130 -10.31946 -10.31811 -10.30673
 Alpha  occ. eigenvalues --  -10.30615 -10.30429 -10.30311 -10.30276 -10.29939
 Alpha  occ. eigenvalues --  -10.28402 -10.28384 -10.28125 -10.28087 -10.27888
 Alpha  occ. eigenvalues --  -10.27881 -10.27803 -10.27744 -10.27533 -10.27526
 Alpha  occ. eigenvalues --   -3.64039  -2.06154  -2.05468  -2.05297  -1.07163
 Alpha  occ. eigenvalues --   -1.07036  -1.06887  -1.06480  -1.01397  -1.00877
 Alpha  occ. eigenvalues --   -1.00510  -0.97295  -0.95107  -0.94959  -0.94669
 Alpha  occ. eigenvalues --   -0.90027  -0.88600  -0.87122  -0.86955  -0.86851
 Alpha  occ. eigenvalues --   -0.83000  -0.82929  -0.82728  -0.82570  -0.82075
 Alpha  occ. eigenvalues --   -0.81902  -0.80758  -0.79307  -0.74655  -0.73483
 Alpha  occ. eigenvalues --   -0.73269  -0.71698  -0.71578  -0.71503  -0.71356
 Alpha  occ. eigenvalues --   -0.71204  -0.71044  -0.69669  -0.69419  -0.69260
 Alpha  occ. eigenvalues --   -0.65516  -0.64894  -0.64267  -0.64022  -0.63878
 Alpha  occ. eigenvalues --   -0.61803  -0.61546  -0.60419  -0.60265  -0.59753
 Alpha  occ. eigenvalues --   -0.59680  -0.59504  -0.57418  -0.57076  -0.56659
 Alpha  occ. eigenvalues --   -0.56487  -0.55634  -0.55159  -0.54751  -0.53605
 Alpha  occ. eigenvalues --   -0.53493  -0.52479  -0.52405  -0.52353  -0.52136
 Alpha  occ. eigenvalues --   -0.49940  -0.49764  -0.49683  -0.49390  -0.49315
 Alpha  occ. eigenvalues --   -0.48988  -0.48615  -0.48212  -0.48023  -0.47647
 Alpha  occ. eigenvalues --   -0.47389  -0.47156  -0.47085  -0.46811  -0.46559
 Alpha  occ. eigenvalues --   -0.46352  -0.45940  -0.45850  -0.45680  -0.45275
 Alpha  occ. eigenvalues --   -0.45073  -0.44858  -0.44614  -0.44412  -0.44318
 Alpha  occ. eigenvalues --   -0.44203  -0.44073  -0.43979  -0.43820  -0.43807
 Alpha  occ. eigenvalues --   -0.43328  -0.43167  -0.42829  -0.42800  -0.42711
 Alpha  occ. eigenvalues --   -0.42500  -0.42206  -0.42198  -0.40882  -0.40377
 Alpha  occ. eigenvalues --   -0.40022  -0.39967  -0.38395  -0.38348  -0.37861
 Alpha  occ. eigenvalues --   -0.37535  -0.37465  -0.37277  -0.36512  -0.36415
 Alpha  occ. eigenvalues --   -0.35874  -0.35245  -0.33846  -0.33111  -0.32777
 Alpha  occ. eigenvalues --   -0.32434  -0.32323  -0.32151  -0.31985  -0.31802
 Alpha  occ. eigenvalues --   -0.31767  -0.30681  -0.30510  -0.30462  -0.30365
 Alpha  occ. eigenvalues --   -0.28219  -0.28055  -0.27791  -0.27661  -0.26194
 Alpha  occ. eigenvalues --   -0.25798  -0.24848
 Alpha virt. eigenvalues --   -0.09887  -0.09539  -0.09413  -0.08402  -0.08016
 Alpha virt. eigenvalues --   -0.07694  -0.04385  -0.03940  -0.03864  -0.03485
 Alpha virt. eigenvalues --   -0.02730  -0.01955  -0.01262  -0.00572   0.00099
 Alpha virt. eigenvalues --    0.00528   0.00693   0.00876   0.01695   0.01985
 Alpha virt. eigenvalues --    0.02306   0.03264   0.03608   0.03964   0.04633
 Alpha virt. eigenvalues --    0.05362   0.05661   0.05913   0.06182   0.06326
 Alpha virt. eigenvalues --    0.06364   0.06771   0.07111   0.07235   0.07516
 Alpha virt. eigenvalues --    0.07651   0.07823   0.07924   0.08099   0.08425
 Alpha virt. eigenvalues --    0.08841   0.09245   0.09330   0.09425   0.09642
 Alpha virt. eigenvalues --    0.09811   0.10026   0.10417   0.10592   0.11049
 Alpha virt. eigenvalues --    0.11167   0.11660   0.12131   0.12266   0.12534
 Alpha virt. eigenvalues --    0.12646   0.12822   0.12911   0.13050   0.13486
 Alpha virt. eigenvalues --    0.13770   0.14255   0.14333   0.14495   0.14919
 Alpha virt. eigenvalues --    0.15015   0.15453   0.15624   0.16003   0.17389
 Alpha virt. eigenvalues --    0.17915   0.18225   0.18459   0.18813   0.19084
 Alpha virt. eigenvalues --    0.19375   0.19447   0.19718   0.20227   0.20322
 Alpha virt. eigenvalues --    0.20468   0.20951   0.21155   0.21232   0.21891
 Alpha virt. eigenvalues --    0.21989   0.22195   0.22642   0.22958   0.23056
 Alpha virt. eigenvalues --    0.23240   0.23299   0.24157   0.25038   0.26197
 Alpha virt. eigenvalues --    0.26541   0.26938   0.27690   0.27918   0.28330
 Alpha virt. eigenvalues --    0.28617   0.28875   0.29139   0.29548   0.29972
 Alpha virt. eigenvalues --    0.30109   0.30213   0.30646   0.30937   0.31316
 Alpha virt. eigenvalues --    0.31981   0.32292   0.33318   0.34127   0.34311
 Alpha virt. eigenvalues --    0.35336   0.35589   0.35851   0.36197   0.36790
 Alpha virt. eigenvalues --    0.36914   0.37102   0.37457   0.37999   0.38222
 Alpha virt. eigenvalues --    0.38696   0.38958   0.39843   0.39953   0.40491
 Alpha virt. eigenvalues --    0.40611   0.40837   0.40910   0.41237   0.41509
 Alpha virt. eigenvalues --    0.41720   0.41890   0.42166   0.42409   0.42687
 Alpha virt. eigenvalues --    0.42948   0.43098   0.43564   0.43695   0.43823
 Alpha virt. eigenvalues --    0.44263   0.44537   0.44661   0.44784   0.44963
 Alpha virt. eigenvalues --    0.45247   0.45436   0.45685   0.45964   0.46008
 Alpha virt. eigenvalues --    0.46303   0.46545   0.46673   0.46816   0.47072
 Alpha virt. eigenvalues --    0.47678   0.47783   0.48249   0.48545   0.48732
 Alpha virt. eigenvalues --    0.48793   0.49070   0.49344   0.49487   0.49699
 Alpha virt. eigenvalues --    0.49794   0.50281   0.50737   0.50989   0.51047
 Alpha virt. eigenvalues --    0.51544   0.51839   0.52035   0.52648   0.53005
 Alpha virt. eigenvalues --    0.53176   0.53439   0.53733   0.54058   0.54231
 Alpha virt. eigenvalues --    0.54496   0.54860   0.55304   0.55464   0.55756
 Alpha virt. eigenvalues --    0.56142   0.56201   0.56487   0.56775   0.57041
 Alpha virt. eigenvalues --    0.57280   0.57534   0.57891   0.58070   0.58345
 Alpha virt. eigenvalues --    0.58477   0.58586   0.58617   0.58971   0.59103
 Alpha virt. eigenvalues --    0.59234   0.59326   0.59499   0.59815   0.60214
 Alpha virt. eigenvalues --    0.60320   0.60442   0.60674   0.60848   0.61052
 Alpha virt. eigenvalues --    0.61376   0.61521   0.61725   0.62169   0.62507
 Alpha virt. eigenvalues --    0.62622   0.62791   0.62937   0.63170   0.63315
 Alpha virt. eigenvalues --    0.63704   0.63734   0.63881   0.64323   0.64507
 Alpha virt. eigenvalues --    0.64770   0.64925   0.65331   0.65452   0.65635
 Alpha virt. eigenvalues --    0.66008   0.66026   0.66281   0.66348   0.66578
 Alpha virt. eigenvalues --    0.66952   0.67561   0.67917   0.68197   0.68472
 Alpha virt. eigenvalues --    0.68804   0.69110   0.69287   0.69724   0.69992
 Alpha virt. eigenvalues --    0.70490   0.70998   0.71197   0.71236   0.71633
 Alpha virt. eigenvalues --    0.72376   0.72695   0.73380   0.73820   0.73984
 Alpha virt. eigenvalues --    0.74638   0.74893   0.75356   0.75651   0.76324
 Alpha virt. eigenvalues --    0.76957   0.77762   0.78024   0.78482   0.78903
 Alpha virt. eigenvalues --    0.79695   0.80116   0.80393   0.81233   0.81684
 Alpha virt. eigenvalues --    0.82327   0.82516   0.82635   0.82910   0.83705
 Alpha virt. eigenvalues --    0.83972   0.84117   0.84585   0.85321   0.85385
 Alpha virt. eigenvalues --    0.85646   0.85743   0.86198   0.86570   0.86914
 Alpha virt. eigenvalues --    0.87224   0.87464   0.87825   0.88219   0.88296
 Alpha virt. eigenvalues --    0.88419   0.88713   0.89092   0.89387   0.89597
 Alpha virt. eigenvalues --    0.90154   0.90254   0.91033   0.91368   0.91714
 Alpha virt. eigenvalues --    0.92029   0.92350   0.92653   0.93188   0.93369
[...]
 Alpha virt. eigenvalues --    2.67827   2.68091   2.68289   2.68904   2.69046
 Alpha virt. eigenvalues --    2.69457   2.70385   2.70461   2.70695   2.71799
 Alpha virt. eigenvalues --    2.72152   2.72733   2.73274   2.73677   2.74702
 Alpha virt. eigenvalues --    2.75039   2.76397   2.78457   2.80082   2.80730
 Alpha virt. eigenvalues --    2.82393   2.82665   2.83750   2.85226   2.86034
 Alpha virt. eigenvalues --    2.87305   2.95699   3.02094   3.02379   3.02750
 Alpha virt. eigenvalues --    3.07465   3.07944   3.10362   3.10655   3.10977
 Alpha virt. eigenvalues --    3.12260   3.13252   3.15679   3.17009   3.18265
 Alpha virt. eigenvalues --    3.18954   3.19695   3.21536   3.22427   3.24631
 Alpha virt. eigenvalues --    3.27245   3.28625   3.32998   3.33622   3.35126
 Alpha virt. eigenvalues --    3.37255   3.37873   3.39313   3.39637   3.40443
 Alpha virt. eigenvalues --    3.40637   3.41191   3.42158   3.43171   3.44636
 Alpha virt. eigenvalues --    3.48075   3.50989   3.52323   3.62604   3.72337
 Alpha virt. eigenvalues --    3.75410   3.90400   3.93785   4.06498   4.07321
 Alpha virt. eigenvalues --   70.24799
          Condensed to atoms (all electrons):
 Mulliken charges:
               1
     1  Ir  -0.655233
     2  N   -0.217803
     3  C    0.146814
     4  C   -0.070419
     5  C    0.089162
     6  C   -0.006772
     7  C    0.093878
     8  H    0.093988
     9  H    0.049251
    10  H    0.048588
    11  C    0.184218
    12  N   -0.149532
    13  H    0.153705
    14  H    0.145387
    15  O   -0.328698
    16  H    0.098987
    17  N   -0.213491
    18  C    0.097594
    19  C   -0.001063
    20  C    0.032717
    21  C   -0.040488
    22  C    0.162275
    23  H    0.027186
    24  C    0.181286
    25  N   -0.140897
    26  H    0.144701
    27  H    0.153750
    28  O   -0.334921
    29  H    0.040219
    30  H    0.045955
    31  H    0.108937
    32  H    0.102879
    33  H    0.054642
    34  C    0.277675
    35  N   -0.233183
    36  C    0.040893
    37  C    0.043295
    38  H    0.061812
    39  N   -0.226517
    40  C    0.043769
    41  C   -0.078112
    42  C   -0.032608
    43  C   -0.091541
    44  C   -0.034555
    45  C   -0.084906
    46  C    0.021762
    47  H    0.068772
    48  H    0.071056
    49  H    0.052351
    50  H   -0.012012
    51  C   -0.020579
    52  H    0.058466
    53  H    0.050027
    54  H    0.085015
    55  H   -0.008111
    56  C   -0.011838
    57  H    0.100949
    58  H    0.050567
    59  H    0.070433
    60  H    0.061846
    61  C    0.045533
    62  C   -0.079510
    63  C   -0.030503
    64  C   -0.091360
    65  C   -0.034682
    66  C   -0.063138
    67  C   -0.018629
    68  H    0.045700
    69  H    0.132852
    70  H    0.068418
    71  H   -0.010411
    72  C   -0.022457
    73  H    0.048522
    74  H    0.069265
    75  H    0.076246
    76  H   -0.010869
    77  C    0.007759
    78  H    0.040640
    79  H    0.054599
    80  H    0.083272
    81  N   -0.207080
    82  C    0.136900
    83  C    0.002595
    84  C    0.032960
    85  C   -0.067395
    86  C    0.158846
    87  H    0.036268
    88  C    0.185660
    89  N   -0.140832
    90  H    0.142354
    91  H    0.152858
    92  O   -0.343775
    93  H    0.038331
    94  H    0.040913
    95  H    0.098625
 Sum of Mulliken charges =   1.00000
 Mulliken charges with hydrogens summed into heavy atoms:
               1
     1  Ir  -0.497713
     2  N   -0.217803
     3  C    0.245800
     4  C   -0.070419
     5  C    0.137750
     6  C    0.042479
     7  C    0.187866
    11  C    0.184218
    12  N    0.149561
    15  O   -0.328698
    17  N   -0.213491
    18  C    0.206530
    19  C    0.044891
    20  C    0.072936
    21  C   -0.040488
    22  C    0.189461
    24  C    0.181286
    25  N    0.157554
    28  O   -0.334921
    34  C    0.277675
    35  N   -0.233183
    36  C    0.102739
    37  C    0.105106
    39  N   -0.226517
    40  C    0.043769
    41  C   -0.078112
    42  C   -0.040719
    43  C   -0.091541
    44  C   -0.046568
    45  C   -0.084906
    46  C    0.213941
    51  C    0.172929
    56  C    0.210111
    61  C    0.045533
    62  C   -0.079510
    63  C   -0.041372
    64  C   -0.091360
    65  C   -0.045093
    66  C   -0.063138
    67  C    0.228342
    72  C    0.171576
    77  C    0.186270
    81  N   -0.207080
    82  C    0.235525
    83  C    0.043508
    84  C    0.071291
    85  C   -0.067395
    86  C    0.195113
    88  C    0.185660
    89  N    0.154380
    92  O   -0.343775
 Electronic spatial extent (au):  <R**2>=          29599.7196
 Charge=              1.0000 electrons
 Dipole moment (field-independent basis, Debye):
    X=              2.8800    Y=             -1.3256    Z=              4.0053  Tot=              5.1082
 Quadrupole moment (field-independent basis, Debye-Ang):
   XX=           -207.5825   YY=           -299.0544   ZZ=           -240.2257
   XY=             11.7407   XZ=              3.4904   YZ=            -21.1460
 Traceless Quadrupole moment (field-independent basis, Debye-Ang):
   XX=             41.3717   YY=            -50.1002   ZZ=              8.7285
   XY=             11.7407   XZ=              3.4904   YZ=            -21.1460
 Octapole moment (field-independent basis, Debye-Ang**2):
  XXX=            221.7969  YYY=           -184.3670  ZZZ=            173.2110  XYY=            -35.9157
  XXY=            101.4020  XXZ=             58.9487  XZZ=              7.5707  YZZ=            -81.0722
  YYZ=             21.3156  XYZ=             55.2344
 Hexadecapole moment (field-independent basis, Debye-Ang**3):
 XXXX=         -13137.1562 YYYY=         -14229.3458 ZZZZ=          -8545.6873 XXXY=            104.3063
 XXXZ=            797.9242 YYYX=             50.5290 YYYZ=           -806.9972 ZZZX=             48.8889
 ZZZY=           -822.9719 XXYY=          -4505.8629 XXZZ=          -3729.6889 YYZZ=          -2770.6511
 XXYZ=           -237.1738 YYXZ=            309.3712 ZZXY=            -45.8934
 N-N= 7.434057485284D+03 E-N=-2.010592011915D+04  KE= 2.192000588684D+03
 No NMR shielding tensors so no spin-rotation constants.
 Leave Link  601 at Thu Nov 14 18:01:08 2024, MaxMem=  4026531840 cpu:               3.0 elap:               3.3
 (Enter C:\G16W\l9999.exe)

 Test job not archived.
 1|1|UNPC-KYNARETH|SP|RM06|GenECP|C39H44Ir1N8O3(1+)|ADMINISTRATOR|14-No
 v-2024|0||#p m06/GenECP scrf=(smd,solvent=benzene) scf=tight integral=
 (grid=ultrafine) pop=minimal output=pickett IOp(6/82=1)||EFG tensors o
 n the two deuteria||1,1|Ir,0,-0.39316,0.52862,-0.28985|N,0,-0.62025,2.
 35421,0.77082|C,0,-1.24813,3.41423,0.15023|C,0,-1.42555,4.6672,0.7733|
 C,0,-0.91973,4.85618,2.08638|C,0,-0.28927,3.77415,2.73159|C,0,-0.16046
 ,2.54344,2.05538|H,0,0.32214,1.68782,2.53176|H,0,0.10692,3.86937,3.746
 66|H,0,-1.02651,5.84002,2.55444|C,0,-2.07893,5.85641,0.09536|N,0,-2.90
 532,5.59528,-0.98369|H,0,-3.33595,6.39326,-1.45363|H,0,-3.1793,4.65566
 ,-1.26678|O,0,-1.86616,7.0328,0.51766|H,0,-1.56506,3.21218,-0.87511|N,
 0,-0.85327,-0.60731,1.49824|C,0,-1.89834,-0.22941,2.31649|C,0,-2.23651
 ,-0.93841,3.48415|C,0,-1.48572,-2.07913,3.85242|C,0,-0.42184,-2.48905,
 3.01175|C,0,-0.15494,-1.73651,1.84532|H,0,0.63164,-2.06857,1.16403|C,0
 ,0.43882,-3.71616,3.22561|N,0,0.50233,-4.22396,4.50812|H,0,0.11873,-3.
 73888,5.3182|H,0,1.07416,-5.05574,4.66435|O,0,1.06648,-4.24213,2.2531|
 H,0,-1.75899,-2.6447,4.75021|H,0,-3.08367,-0.60068,4.08812|H,0,-2.4662
 4,0.6446,1.99096|H,0,-1.96232,0.57369,-0.57677|H,0,-0.17556,1.4,-1.630
 06|C,0,-0.38973,-1.09092,-1.47978|N,0,-1.50182,-1.9022,-1.80049|C,0,-1
 .15991,-2.90845,-2.73084|C,0,0.17334,-2.75296,-3.02146|H,0,0.83343,-3.
 31068,-3.67911|N,0,0.63648,-1.65218,-2.26348|C,0,2.01115,-1.19729,-2.4
 2824|C,0,2.28883,-0.26565,-3.47306|C,0,3.63982,0.07668,-3.71888|C,0,4.
 70625,-0.49996,-2.97789|C,0,4.38825,-1.43484,-1.9637|C,0,3.04902,-1.81
 035,-1.67425|C,0,2.77796,-2.84638,-0.59513|H,0,3.51964,-3.66352,-0.639
 33|H,0,2.86056,-2.4038,0.41667|H,0,1.77707,-3.29961,-0.6752|H,0,5.1995
 2,-1.90731,-1.39434|C,0,6.15204,-0.15912,-3.30644|H,0,6.27489,0.91287,
 -3.54622|H,0,6.83016,-0.40627,-2.47077|H,0,6.49868,-0.72915,-4.19047|H
 ,0,3.86715,0.78756,-4.52402|C,0,1.17389,0.32945,-4.31825|H,0,0.44611,0
 .87954,-3.69226|H,0,1.57934,1.02244,-5.07496|H,0,0.60683,-0.45754,-4.8
 5116|H,0,-1.89019,-3.62737,-3.08964|C,0,-2.88178,-1.75421,-1.35169|C,0
 ,-3.38674,-2.63144,-0.35462|C,0,-4.74845,-2.49209,0.02568|C,0,-5.60394
 ,-1.54203,-0.58057|C,0,-5.07285,-0.72339,-1.61384|C,0,-3.72374,-0.8191
 2,-2.02547|C,0,-3.20126,0.03098,-3.17138|H,0,-4.00469,0.66035,-3.59119
 |H,0,-2.37637,0.68609,-2.83413|H,0,-2.80244,-0.5974,-3.99092|H,0,-5.73
 131,-0.00702,-2.12254|C,0,-7.06273,-1.41685,-0.16681|H,0,-7.31118,-2.1
 0245,0.66149|H,0,-7.30208,-0.38735,0.16092|H,0,-7.73823,-1.65181,-1.01
 134|H,0,-5.14928,-3.1585,0.80054|C,0,-2.54692,-3.7444,0.25339|H,0,-1.4
 6656,-3.53066,0.22365|H,0,-2.8373,-3.93141,1.30223|H,0,-2.70329,-4.693
 33,-0.29694|N,0,1.76603,0.78613,0.14796|C,0,2.51067,1.61878,-0.66024|C
 ,0,3.79795,2.06539,-0.30635|C,0,4.36984,1.65733,0.9206|C,0,3.62034,0.7
 9668,1.75921|C,0,2.3339,0.39293,1.33059|H,0,1.75219,-0.25257,1.99164|C
 ,0,4.04704,0.30766,3.12672|N,0,5.39383,0.36719,3.42764|H,0,6.10683,0.6
 3703,2.75168|H,0,5.69163,0.05759,4.35413|O,0,3.18811,-0.13768,3.9535|H
 ,0,5.35441,2.03847,1.21465|H,0,4.3339,2.73582,-0.98403|H,0,2.03041,1.9
 2824,-1.58909||Version=EM64W-G16RevC.01|State=1-A|HF=-2279.4430297|RMS
 D=7.846e-009|Dipole=1.1330605,-0.521517,1.5758114|Quadrupole=30.758831
 5,-37.248258,6.4894266,8.7288892,2.5950038,-15.7215118|PG=C01 [X(C39H4
 4Ir1N8O3)]||@
 DoSRE=F DoSRN=F DoDH=F DoFC=F DoNQ=T DoQCD=F DoSCD=F
 Inertia tensor (amu-bohr**2): 
                 1             2             3 
      1   0.315623D+05  0.173749D+03 -0.208755D+03
      2   0.173749D+03  0.362989D+05 -0.433937D+02
      3  -0.208755D+03 -0.433937D+02  0.406209D+05
 Principal inertia moments (amu-bohr**2):
 Iaa = 0.315512D+05 Ibb= 0.363047D+05 Icc= 0.406262D+05
 Rotation matrix to Principal Axis frame: 
                 1             2             3 
      1   0.999078D+00  0.360921D-01 -0.232339D-01
      2  -0.363542D-01  0.999279D+00 -0.109575D-01
      3   0.228217D-01  0.117921D-01  0.999670D+00
                Principal axis orientation:                
 ---------------------------------------------------------------------
 Center     Atomic                     Coordinates (Angstroms)
 Number     Number                        X           Y           Z
 ---------------------------------------------------------------------
      1         77                   -0.402412    0.469080   -0.294292
      2          7                   -0.671454    2.297664    0.751301
      3          6                   -1.351455    3.326940    0.133888
      4          6                   -1.560042    4.579951    0.747145
      5          6                   -1.031592    4.802535    2.045969
      6          6                   -0.347652    3.751648    2.688175
      7          6                   -0.189652    2.518500    2.022680
      8          1                    0.334481    1.686533    2.497066
      9          1                    0.067877    3.873068    3.692661
     10          1                   -1.163358    5.787331    2.505575
     11          6                   -2.271525    5.736727    0.071579
     12          7                   -3.112286    5.433235   -0.985053
     13          1                   -3.582253    6.209556   -1.453577
     14          1                   -3.358315    4.481066   -1.251388
     15          8                   -2.092080    6.924928    0.475906
     16          1                   -1.684147    3.101507   -0.881536
     17          7                   -0.779995   -0.661552    1.516345
     18          6                   -1.819166   -0.311995    2.354466
     19          6                   -2.104601   -1.018920    3.537366
     20          6                   -1.304629   -2.127377    3.900570
     21          6                   -0.246013   -2.508517    3.039951
     22          6                   -0.033337   -1.760641    1.859459
     23          1                    0.749042   -2.072106    1.163757
     24          6                    0.663345   -3.701157    3.247190
     25          7                    0.774526   -4.191175    4.533366
     26          1                    0.392133   -3.710737    5.346776
     27          1                    1.379634   -4.999875    4.685373
     28          8                    1.287354   -4.215562    2.266182
     29          1                   -1.536597   -2.691815    4.810610
     30          1                   -2.949475   -0.704887    4.157119
     31          1                   -2.425746    0.537050    2.032661
     32          1                   -1.978312    0.454099   -0.545153
     33          1                   -0.247277    1.331881   -1.648663
     34          6                   -0.367264   -1.163201   -1.466163
     35          7                   -1.456155   -2.017815   -1.752039
     36          6                   -1.099211   -3.021970   -2.679000
     37          6                    0.220525   -2.821899   -3.002204
     38          1                    0.885273   -3.363148   -3.668863
     39          7                    0.660519   -1.696259   -2.267297
     40          6                    2.013624   -1.194025   -2.468926
     41          6                    2.233335   -0.265356   -3.530061
     42          6                    3.565025    0.122589   -3.810940
     43          6                    4.668346   -0.406408   -3.088653
     44          6                    4.407771   -1.340132   -2.057166
     45          6                    3.090032   -1.760293   -1.732581
     46          6                    2.881514   -2.792634   -0.636167
     47          1                    3.651208   -3.582937   -0.688631
     48          1                    2.971039   -2.335461    0.368531
     49          1                    1.896195   -3.282606   -0.687990
     50          1                    5.248463   -1.776267   -1.501665
     51          6                    6.092914   -0.017506   -3.454421
     52          1                    6.171207    1.055317   -3.708722
     53          1                    6.798465   -0.230149   -2.632074
     54          1                    6.439782   -0.585039   -4.339967
     55          1                    3.747927    0.831667   -4.628885
     56          6                    1.078499    0.279108   -4.355589
     57          1                    0.345678    0.809916   -3.718924
     58          1                    1.441113    0.977309   -5.129063
     59          1                    0.528410   -0.534065   -4.866524
     60          1                   -1.810871   -3.770960   -3.012837
     61          6                   -2.829981   -1.914445   -1.272947
     62          6                   -3.279830   -2.797510   -0.254861
     63          6                   -4.636672   -2.702923    0.155424
     64          6                   -5.539748   -1.791574   -0.441160
     65          6                   -5.062489   -0.966540   -1.495398
     66          6                   -3.720536   -1.018363   -1.937189
     67          6                   -3.255594   -0.163531   -3.104175
     68          1                   -4.090745    0.431437   -3.512076
     69          1                   -2.447584    0.524855   -2.793380
     70          1                   -2.853001   -0.786728   -3.925825
     71          1                   -5.757995   -0.280451   -1.996481
     72          6                   -6.992301   -1.714256    0.004986
     73          1                   -7.196695   -2.398561    0.846297
     74          1                   -7.261378   -0.690272    0.326888
     75          1                   -7.677910   -1.983385   -0.820997
     76          1                   -4.995222   -3.374182    0.946644
     77          6                   -2.386447   -3.872187    0.345631
     78          1                   -1.315532   -3.619959    0.288458
     79          1                   -2.645825   -4.057175    1.402921
     80          1                   -2.520735   -4.832566   -0.190486
     81          7                    1.755418    0.809496    0.090386
     82          6                    2.450657    1.658891   -0.743972
     83          6                    3.728591    2.155813   -0.425001
     84          6                    4.342789    1.783156    0.792728
     85          6                    3.644407    0.905965    1.657906
     86          6                    2.364049    0.451021    1.263740
     87          1                    1.821428   -0.207213    1.945160
     88          6                    4.119700    0.448823    3.020409
     89          7                    5.469952    0.560467    3.289286
     90          1                    6.157059    0.847876    2.594026
     91          1                    5.799877    0.272764    4.211944
     92          8                    3.296620   -0.017447    3.871752
     93          1                    5.319307    2.203024    1.059629
     94          1                    4.224208    2.837112   -1.122256
     95          1                    1.938391    1.939841   -1.664748
 ---------------------------------------------------------------------
 Rotational constants (MHZ):
     57.2003727     49.7109829     44.4230956
 Nuclear quadrupole coupling constants [Chi] (MHz):
  1  Ir(193
   aa=    -3.9122   ba=     0.3745   ca=     0.8181
   ab=     0.3745   bb=     3.1515   cb=     3.0287
   ac=     0.8181   bc=     3.0287   cc=     0.7607
 32  H(2)  
   aa=     0.1083   ba=     0.0001   ca=     0.0281
   ab=     0.0001   bb=    -0.0556   cb=     0.0045
   ac=     0.0281   bc=     0.0045   cc=    -0.0526
 33  H(2)  
   aa=    -0.0552   ba=     0.0081   ca=    -0.0145
   ab=     0.0081   bb=    -0.0063   cb=    -0.0739
   ac=    -0.0145   bc=    -0.0739   cc=     0.0615
 Dipole moment (Debye):
      3.0168959     -1.1734336      3.9516034  Tot=      5.1082068

 Atoms with significant hyperfine tensors:  Ir1-193,H32-2,H33-2

--------------------------------------------------------------------------------
 EFG tensors on the two deuteria                         
   99  1000  50  0.1760E-11  0.1000E+07  0.1000E+01 1.0000000000
a 334  1  0  0  0  1  1   1  0  1  0
     10000   0.57200373E+02    0.0000E+00   /  A  /
     20000   0.49710983E+02    0.0000E+00   /  B  /
     30000   0.44423096E+02    0.0000E+00   /  C  /
 110010000  -0.58682704E+01    0.0000E+00   /  (1 Ir-193) 3/2*Chi_aa           /
 110040000   0.59768234E+00    0.0000E+00   /  (1 Ir-193) 1/4*(Chi_bb-Chi_cc)  /
 110610000   0.37450228E+00    0.0000E+00   /  (1 Ir-193) Chi_ab               /
 110410000   0.81814891E+00    0.0000E+00   /  (1 Ir-193) Chi_ac               /
 110210000   0.30287330E+01    0.0000E+00   /  (1 Ir-193) Chi_bc               /
 220010000   0.16242395E+00    0.0000E+00   /  (32 H-2) 3/2*Chi_aa             /
 220410000   0.28097826E-01    0.0000E+00   /  (32 H-2) Chi_ac                 /
 330010000  -0.82781313E-01    0.0000E+00   /  (33 H-2) 3/2*Chi_aa             /
 330040000  -0.16963199E-01    0.0000E+00   /  (33 H-2) 1/4*(Chi_bb-Chi_cc)    /
 330410000  -0.14456792E-01    0.0000E+00   /  (33 H-2) Chi_ac                 /
 330210000  -0.73903583E-01    0.0000E+00   /  (33 H-2) Chi_bc                 /
--------------------------------------------------------------------------------



 CHRISTMAS IS ON TOP OF A STEEP HILL.
 THE CLOSER YOU GET, THE STEEPER THE HILL IS.
          -- LINUS, OF PEANUTS
 Job cpu time:       0 days  0 hours 44 minutes 22.0 seconds.
 Elapsed time:       0 days  0 hours 44 minutes 20.5 seconds.
 File lengths (MBytes):  RWF=   1381 Int=      0 D2E=      0 Chk=     59 Scr=      1
 Normal termination of Gaussian 16 at Thu Nov 14 18:01:09 2024.
