 Entering Gaussian System, Link 0=/home/luca/Vubuntu_share/CODES/GAUSSIAN/g16//g16
 Initial command:
 /home/luca/Vubuntu_share/CODES/GAUSSIAN/g16/l1.exe "/home/luca/Vubuntu_share/CODES/GAUSSIAN/TEST/CH3/SCR/Gau-4153.inp" -scrdir="/home/luca/Vubuntu_share/CODES/GAUSSIAN/TEST/CH3/SCR/"
 Entering Link 1 = /home/luca/Vubuntu_share/CODES/GAUSSIAN/g16/l1.exe PID=      4155.
  
 Copyright (c) 1988,1990,1992,1993,1995,1998,2003,2009,2016,
            Gaussian, Inc.  All Rights Reserved.
  
 This is part of the Gaussian(R) 16 program.  It is based on
 the Gaussian(R) 09 system (copyright 2009, Gaussian, Inc.),
 the Gaussian(R) 03 system (copyright 2003, Gaussian, Inc.),
 the Gaussian(R) 98 system (copyright 1998, Gaussian, Inc.),
 the Gaussian(R) 94 system (copyright 1995, Gaussian, Inc.),
 the Gaussian 92(TM) system (copyright 1992, Gaussian, Inc.),
 the Gaussian 90(TM) system (copyright 1990, Gaussian, Inc.),
 the Gaussian 88(TM) system (copyright 1988, Gaussian, Inc.),
 the Gaussian 86(TM) system (copyright 1986, Carnegie Mellon
 University), and the Gaussian 82(TM) system (copyright 1983,
 Carnegie Mellon University). Gaussian is a federally registered
 trademark of Gaussian, Inc.
  
 This software contains proprietary and confidential information,
 including trade secrets, belonging to Gaussian, Inc.
  
 This software is provided under written license and may be
 used, copied, transmitted, or stored only in accord with that
 written license.
  
 The following legend is applicable only to US Government
 contracts under FAR:
  
                    RESTRICTED RIGHTS LEGEND
  
 Use, reproduction and disclosure by the US Government is
 subject to restrictions as set forth in subparagraphs (a)
 and (c) of the Commercial Computer Software - Restricted
 Rights clause in FAR 52.227-19.
  
 Gaussian, Inc.
 340 Quinnipiac St., Bldg. 40, Wallingford CT 06492
  
  
 ---------------------------------------------------------------
 Warning -- This program may not be used in any manner that
 competes with the business of Gaussian, Inc. or will provide
 assistance to any competitor of Gaussian, Inc.  The licensee
 of this program is prohibited from giving any competitor of
 Gaussian, Inc. access to this program.  By using this program,
 the user acknowledges that Gaussian, Inc. is engaged in the
 business of creating and licensing software in the field of
 computational chemistry and represents and warrants to the
 licensee that it is not a competitor of Gaussian, Inc. and that
 it will not use this program in any manner prohibited above.
 ---------------------------------------------------------------
  

 Cite this work as:
 Gaussian 16, Revision A.03,
 M. J. Frisch, G. W. Trucks, H. B. Schlegel, G. E. Scuseria, 
 M. A. Robb, J. R. Cheeseman, G. Scalmani, V. Barone, 
 G. A. Petersson, H. Nakatsuji, X. Li, M. Caricato, A. V. Marenich, 
 J. Bloino, B. G. Janesko, R. Gomperts, B. Mennucci, H. P. Hratchian, 
 J. V. Ortiz, A. F. Izmaylov, J. L. Sonnenberg, D. Williams-Young, 
 F. Ding, F. Lipparini, F. Egidi, J. Goings, B. Peng, A. Petrone, 
 T. Henderson, D. Ranasinghe, V. G. Zakrzewski, J. Gao, N. Rega, 
 G. Zheng, W. Liang, M. Hada, M. Ehara, K. Toyota, R. Fukuda, 
 J. Hasegawa, M. Ishida, T. Nakajima, Y. Honda, O. Kitao, H. Nakai, 
 T. Vreven, K. Throssell, J. A. Montgomery, Jr., J. E. Peralta, 
 F. Ogliaro, M. J. Bearpark, J. J. Heyd, E. N. Brothers, K. N. Kudin, 
 V. N. Staroverov, T. A. Keith, R. Kobayashi, J. Normand, 
 K. Raghavachari, A. P. Rendell, J. C. Burant, S. S. Iyengar, 
 J. Tomasi, M. Cossi, J. M. Millam, M. Klene, C. Adamo, R. Cammi, 
 J. W. Ochterski, R. L. Martin, K. Morokuma, O. Farkas, 
 J. B. Foresman, and D. J. Fox, Gaussian, Inc., Wallingford CT, 2016.
 
 ******************************************
 Gaussian 16:  ES64L-G16RevA.03 25-Dec-2016
                22-Apr-2019 
 ******************************************
 %NProcShared=4
 Will use up to    4 processors via shared memory.
 %Mem=6000MB
 %Chk=g.chk
 ------------------------------------------
 #p nmr=(giao,spinspin,mixed) ub3lyp/EPR-II
 ------------------------------------------
 1/38=1,172=1/1;
 2/12=2,17=6,18=5,40=1/2;
 3/5=21,10=1100000,11=2,25=1,30=1,74=-5,116=2/1,2,3,8;
 4//1;
 5/5=2,38=5/2;
 8/6=1,10=90,11=11/1;
 10/13=100,45=16,47=3/2;
 6/7=2,8=2,9=2,10=2,28=1/1;
 99/9=1/99;
 Leave Link    1 at Mon Apr 22 22:19:25 2019, MaxMem=   786432000 cpu:               0.8 elap:               0.3
 (Enter /home/luca/Vubuntu_share/CODES/GAUSSIAN/g16/l101.exe)
 -------------------
 Title Card Required
 -------------------
 Symbolic Z-matrix:
 Charge =  0 Multiplicity = 2
 C                    -0.33397  -0.43137   0. 
 H                    -0.33327  -1.51071  0. 
 H                    -0.3343    0.10833   0.93464 
 H                    -0.3343    0.10833  -0.93464 
 
 ITRead=  0  0  0  0
 MicOpt= -1 -1 -1 -1
 NAtoms=      4 NQM=        4 NQMF=       0 NMMI=      0 NMMIF=      0
                NMic=       0 NMicF=      0.
                    Isotopes and Nuclear Properties:
 (Nuclear quadrupole moments (NQMom) in fm**2, nuclear magnetic moments (NMagM)
  in nuclear magnetons)

  Atom         1           2           3           4
 IAtWgt=          12           1           1           1
 AtmWgt=  12.0000000   1.0078250   1.0078250   1.0078250
 NucSpn=           0           1           1           1
 AtZEff=  -0.0000000  -0.0000000  -0.0000000  -0.0000000
 NQMom=    0.0000000   0.0000000   0.0000000   0.0000000
 NMagM=    0.0000000   2.7928460   2.7928460   2.7928460
 AtZNuc=   6.0000000   1.0000000   1.0000000   1.0000000
 Leave Link  101 at Mon Apr 22 22:19:26 2019, MaxMem=   786432000 cpu:               2.4 elap:               0.8
 (Enter /home/luca/Vubuntu_share/CODES/GAUSSIAN/g16/l202.exe)
                          Input orientation:                          
 ---------------------------------------------------------------------
 Center     Atomic      Atomic             Coordinates (Angstroms)
 Number     Number       Type             X           Y           Z
 ---------------------------------------------------------------------
      1          6           0       -0.333971   -0.431366    0.000000
      2          1           0       -0.333267   -1.510710   -0.000000
      3          1           0       -0.334297    0.108334    0.934642
      4          1           0       -0.334297    0.108334   -0.934642
 ---------------------------------------------------------------------
                    Distance matrix (angstroms):
                    1          2          3          4
     1  C    0.000000
     2  H    1.079345   0.000000
     3  H    1.079274   1.869455   0.000000
     4  H    1.079274   1.869455   1.869283   0.000000
 Stoichiometry    CH3(2)
 Framework group  C1[X(CH3)]
 Deg. of freedom     6
 Full point group                 C1      NOp   1
 Largest Abelian subgroup         C1      NOp   1
 Largest concise Abelian subgroup C1      NOp   1
                         Standard orientation:                         
 ---------------------------------------------------------------------
 Center     Atomic      Atomic             Coordinates (Angstroms)
 Number     Number       Type             X           Y           Z
 ---------------------------------------------------------------------
      1          6           0        0.000006    0.000000   -0.000006
      2          1           0        1.079351   -0.000002    0.000012
      3          1           0       -0.539696   -0.934641    0.000012
      4          1           0       -0.539692    0.934643    0.000012
 ---------------------------------------------------------------------
 Rotational constants (GHZ):         287.0197124         286.9496016         143.4923264
 Leave Link  202 at Mon Apr 22 22:19:27 2019, MaxMem=   786432000 cpu:               0.4 elap:               0.2
 (Enter /home/luca/Vubuntu_share/CODES/GAUSSIAN/g16/l301.exe)
 Standard basis: EPR-II (5D, 7F)
 Converting basis for Fermi contact spin-spin IFCMod=1.
 UnConB:  Uncontracting AO basis from     52 functions to     71 functions (excluding duplicates).
 Ernie: Thresh=  0.10000D-02 Tol=  0.10000D-05 Strict=F.
 There are    72 symmetry adapted cartesian basis functions of A   symmetry.
 There are    71 symmetry adapted basis functions of A   symmetry.
    71 basis functions,    72 primitive gaussians,    72 cartesian basis functions
     5 alpha electrons        4 beta electrons
       nuclear repulsion energy         9.6745839205 Hartrees.
 IExCor=  402 DFT=T Ex+Corr=B3LYP ExCW=0 ScaHFX=  0.200000
 ScaDFX=  0.800000  0.720000  1.000000  0.810000 ScalE2=  1.000000  1.000000
 IRadAn= 199590 IRanWt=     -1 IRanGd=            0 ICorTp=0 IEmpDi=  4
 NAtoms=    4 NActive=    4 NUniq=    4 SFac= 1.00D+00 NAtFMM=   60 NAOKFM=F Big=F
 Integral buffers will be    131072 words long.
 Raffenetti 2 integral format.
 Two-electron integral symmetry is turned on.
 Leave Link  301 at Mon Apr 22 22:19:28 2019, MaxMem=   786432000 cpu:               0.8 elap:               0.4
 (Enter /home/luca/Vubuntu_share/CODES/GAUSSIAN/g16/l302.exe)
 NPDir=0 NMtPBC=     1 NCelOv=     1 NCel=       1 NClECP=     1 NCelD=      1
         NCelK=      1 NCelE2=     1 NClLst=     1 CellRange=     0.0.
 One-electron integrals computed using PRISM.
 One-electron integral symmetry used in STVInt
 NBasis=    71 RedAO= T EigKep=  1.05D-02  NBF=    71
 NBsUse=    71 1.00D-06 EigRej= -1.00D+00 NBFU=    71
 Precomputing XC quadrature grid using
 IXCGrd= 4 IRadAn=      199590 IRanWt=          -1 IRanGd=           0 AccXCQ= 0.00D+00.
 Generated NRdTot=       0 NPtTot=           0 NUsed=           0 NTot=          32
 NSgBfM=    62    62    62    62    62 MxSgAt=     4 MxSgA2=     4.
 Leave Link  302 at Mon Apr 22 22:19:30 2019, MaxMem=   786432000 cpu:               3.0 elap:               1.4
 (Enter /home/luca/Vubuntu_share/CODES/GAUSSIAN/g16/l303.exe)
 DipDrv:  MaxL=1.
 Leave Link  303 at Mon Apr 22 22:19:31 2019, MaxMem=   786432000 cpu:               0.5 elap:               0.4
 (Enter /home/luca/Vubuntu_share/CODES/GAUSSIAN/g16/l308.exe)
 Leave Link  308 at Mon Apr 22 22:19:32 2019, MaxMem=   786432000 cpu:               0.3 elap:               0.2
 (Enter /home/luca/Vubuntu_share/CODES/GAUSSIAN/g16/l401.exe)
 ExpMin= 4.79D-02 ExpMax= 6.22D+04 ExpMxC= 6.22D+04 IAcc=4 IRadAn=    199590 AccDes= 0.00D+00
 Harris functional with IExCor=  402 and IRadAn=  199590 diagonalized for initial guess.
 HarFok:  IExCor=  402 AccDes= 0.00D+00 IRadAn=    199590 IDoV= 1 UseB2=F ITyADJ=14
 ICtDFT=  3500011 ScaDFX=  1.000000  1.000000  1.000000  1.000000
 FoFCou: FMM=F IPFlag=           0 FMFlag=      100000 FMFlg1=           0
         NFxFlg=           0 DoJE=T BraDBF=F KetDBF=T FulRan=T
         wScrn=  0.000000 ICntrl=       500 IOpCl=  0 I1Cent=   200000004 NGrid=           0
         NMat0=    1 NMatS0=      1 NMatT0=    0 NMatD0=    1 NMtDS0=    0 NMtDT0=    0
 Petite list used in FoFCou.
 Harris En= -39.8533708103995    
 JPrj=0 DoOrth=F DoCkMO=F.
 Initial guess <Sx>= 0.0000 <Sy>= 0.0000 <Sz>= 0.5000 <S**2>= 0.7500 S= 0.5000
 Leave Link  401 at Mon Apr 22 22:19:34 2019, MaxMem=   786432000 cpu:               4.6 elap:               1.9
 (Enter /home/luca/Vubuntu_share/CODES/GAUSSIAN/g16/l502.exe)
 Keep R1 and R2 ints in memory in canonical form, NReq=10124888.
 FoFCou: FMM=F IPFlag=           0 FMFlag=           0 FMFlg1=           0
         NFxFlg=           0 DoJE=F BraDBF=F KetDBF=F FulRan=T
         wScrn=  0.000000 ICntrl=       600 IOpCl=  0 I1Cent=           0 NGrid=           0
         NMat0=    1 NMatS0=   2556 NMatT0=    0 NMatD0=    1 NMtDS0=    0 NMtDT0=    0
 Symmetry not used in FoFCou.
 Two-electron integral symmetry not used.
 UHF open shell SCF:
 Using DIIS extrapolation, IDIIS=  1040.
 NGot=   786432000 LenX=   779884666 LenY=   779879041
 Requested convergence on RMS density matrix=1.00D-08 within 128 cycles.
 Requested convergence on MAX density matrix=1.00D-06.
 Requested convergence on             energy=1.00D-06.
 No special actions if energy rises.

 Cycle   1  Pass 1  IDiag  1:
 E= -39.8075854686798    
 DIIS: error= 8.37D-02 at cycle   1 NSaved=   1.
 NSaved= 1 IEnMin= 1 EnMin= -39.8075854686798     IErMin= 1 ErrMin= 8.37D-02
 ErrMax= 8.37D-02  0.00D+00 EMaxC= 1.00D-01 BMatC= 9.53D-01 BMatP= 9.53D-01
 IDIUse=3 WtCom= 1.63D-01 WtEn= 8.37D-01
 Coeff-Com:  0.100D+01
 Coeff-En:   0.100D+01
 Coeff:      0.100D+01
 Gap=     0.182 Goal=   None    Shift=    0.000
 Gap=     0.369 Goal=   None    Shift=    0.000
 GapD=    0.182 DampG=1.000 DampE=0.500 DampFc=0.5000 IDamp=-1.
 Damping current iteration by 5.00D-01
 RMSDP=3.59D-03 MaxDP=1.43D-01              OVMax= 1.61D-01

 Cycle   2  Pass 1  IDiag  1:
 E= -39.8307537601111     Delta-E=       -0.023168291431 Rises=F Damp=T
 DIIS: error= 4.24D-02 at cycle   2 NSaved=   2.
 NSaved= 2 IEnMin= 2 EnMin= -39.8307537601111     IErMin= 2 ErrMin= 4.24D-02
 ErrMax= 4.24D-02  0.00D+00 EMaxC= 1.00D-01 BMatC= 2.03D-01 BMatP= 9.53D-01
 IDIUse=3 WtCom= 5.76D-01 WtEn= 4.24D-01
 Coeff-Com: -0.524D+00 0.152D+01
 Coeff-En:   0.582D-03 0.999D+00
 Coeff:     -0.301D+00 0.130D+01
 Gap=     0.276 Goal=   None    Shift=    0.000
 Gap=     0.344 Goal=   None    Shift=    0.000
 RMSDP=8.71D-04 MaxDP=4.12D-02 DE=-2.32D-02 OVMax= 1.21D-01

 Cycle   3  Pass 1  IDiag  1:
 E= -39.8499145815612     Delta-E=       -0.019160821450 Rises=F Damp=F
 DIIS: error= 1.61D-02 at cycle   3 NSaved=   3.
 NSaved= 3 IEnMin= 3 EnMin= -39.8499145815612     IErMin= 3 ErrMin= 1.61D-02
 ErrMax= 1.61D-02  0.00D+00 EMaxC= 1.00D-01 BMatC= 2.26D-02 BMatP= 2.03D-01
 IDIUse=3 WtCom= 8.39D-01 WtEn= 1.61D-01
 Coeff-Com: -0.262D+00 0.511D+00 0.751D+00
 Coeff-En:   0.000D+00 0.000D+00 0.100D+01
 Coeff:     -0.220D+00 0.429D+00 0.791D+00
 Gap=     0.255 Goal=   None    Shift=    0.000
 Gap=     0.343 Goal=   None    Shift=    0.000
 RMSDP=6.95D-04 MaxDP=2.44D-02 DE=-1.92D-02 OVMax= 3.03D-02

 Cycle   4  Pass 1  IDiag  1:
 E= -39.8553421908052     Delta-E=       -0.005427609244 Rises=F Damp=F
 DIIS: error= 2.70D-03 at cycle   4 NSaved=   4.
 NSaved= 4 IEnMin= 4 EnMin= -39.8553421908052     IErMin= 4 ErrMin= 2.70D-03
 ErrMax= 2.70D-03  0.00D+00 EMaxC= 1.00D-01 BMatC= 5.38D-04 BMatP= 2.26D-02
 IDIUse=3 WtCom= 9.73D-01 WtEn= 2.70D-02
 Coeff-Com:  0.484D-01-0.969D-01 0.187D-01 0.103D+01
 Coeff-En:   0.000D+00 0.000D+00 0.000D+00 0.100D+01
 Coeff:      0.471D-01-0.943D-01 0.182D-01 0.103D+01
 Gap=     0.259 Goal=   None    Shift=    0.000
 Gap=     0.342 Goal=   None    Shift=    0.000
 RMSDP=1.03D-04 MaxDP=4.75D-03 DE=-5.43D-03 OVMax= 5.55D-03

 Cycle   5  Pass 1  IDiag  1:
 E= -39.8554780133999     Delta-E=       -0.000135822595 Rises=F Damp=F
 DIIS: error= 1.39D-04 at cycle   5 NSaved=   5.
 NSaved= 5 IEnMin= 5 EnMin= -39.8554780133999     IErMin= 5 ErrMin= 1.39D-04
 ErrMax= 1.39D-04  0.00D+00 EMaxC= 1.00D-01 BMatC= 1.20D-06 BMatP= 5.38D-04
 IDIUse=3 WtCom= 9.99D-01 WtEn= 1.39D-03
 Coeff-Com:  0.189D-01-0.366D-01-0.623D-01-0.457D-01 0.113D+01
 Coeff-En:   0.000D+00 0.000D+00 0.000D+00 0.000D+00 0.100D+01
 Coeff:      0.188D-01-0.365D-01-0.622D-01-0.457D-01 0.113D+01
 Gap=     0.259 Goal=   None    Shift=    0.000
 Gap=     0.342 Goal=   None    Shift=    0.000
 RMSDP=1.29D-05 MaxDP=3.68D-04 DE=-1.36D-04 OVMax= 5.10D-04

 Cycle   6  Pass 1  IDiag  1:
 E= -39.8554788240020     Delta-E=       -0.000000810602 Rises=F Damp=F
 DIIS: error= 2.23D-05 at cycle   6 NSaved=   6.
 NSaved= 6 IEnMin= 6 EnMin= -39.8554788240020     IErMin= 6 ErrMin= 2.23D-05
 ErrMax= 2.23D-05  0.00D+00 EMaxC= 1.00D-01 BMatC= 3.98D-08 BMatP= 1.20D-06
 IDIUse=1 WtCom= 1.00D+00 WtEn= 0.00D+00
 Coeff-Com: -0.236D-02 0.460D-02 0.843D-02 0.634D-02-0.288D+00 0.127D+01
 Coeff:     -0.236D-02 0.460D-02 0.843D-02 0.634D-02-0.288D+00 0.127D+01
 Gap=     0.259 Goal=   None    Shift=    0.000
 Gap=     0.342 Goal=   None    Shift=    0.000
 RMSDP=2.27D-06 MaxDP=6.37D-05 DE=-8.11D-07 OVMax= 1.09D-04

 Cycle   7  Pass 1  IDiag  1:
 E= -39.8554788504345     Delta-E=       -0.000000026432 Rises=F Damp=F
 DIIS: error= 2.06D-06 at cycle   7 NSaved=   7.
 NSaved= 7 IEnMin= 7 EnMin= -39.8554788504345     IErMin= 7 ErrMin= 2.06D-06
 ErrMax= 2.06D-06  0.00D+00 EMaxC= 1.00D-01 BMatC= 3.26D-10 BMatP= 3.98D-08
 IDIUse=1 WtCom= 1.00D+00 WtEn= 0.00D+00
 Coeff-Com: -0.184D-03 0.363D-03-0.142D-03-0.380D-02 0.207D-01-0.103D+00
 Coeff-Com:  0.109D+01
 Coeff:     -0.184D-03 0.363D-03-0.142D-03-0.380D-02 0.207D-01-0.103D+00
 Coeff:      0.109D+01
 Gap=     0.259 Goal=   None    Shift=    0.000
 Gap=     0.342 Goal=   None    Shift=    0.000
 RMSDP=1.94D-07 MaxDP=9.69D-06 DE=-2.64D-08 OVMax= 1.06D-05

 Cycle   8  Pass 1  IDiag  1:
 E= -39.8554788506084     Delta-E=       -0.000000000174 Rises=F Damp=F
 DIIS: error= 2.73D-07 at cycle   8 NSaved=   8.
 NSaved= 8 IEnMin= 8 EnMin= -39.8554788506084     IErMin= 8 ErrMin= 2.73D-07
 ErrMax= 2.73D-07  0.00D+00 EMaxC= 1.00D-01 BMatC= 4.80D-12 BMatP= 3.26D-10
 IDIUse=1 WtCom= 1.00D+00 WtEn= 0.00D+00
 Coeff-Com:  0.290D-04-0.569D-04-0.514D-04 0.140D-03 0.107D-02-0.563D-02
 Coeff-Com: -0.990D-01 0.110D+01
 Coeff:      0.290D-04-0.569D-04-0.514D-04 0.140D-03 0.107D-02-0.563D-02
 Coeff:     -0.990D-01 0.110D+01
 Gap=     0.259 Goal=   None    Shift=    0.000
 Gap=     0.342 Goal=   None    Shift=    0.000
 RMSDP=2.38D-08 MaxDP=7.82D-07 DE=-1.74D-10 OVMax= 1.07D-06

 Cycle   9  Pass 1  IDiag  1:
 E= -39.8554788506108     Delta-E=       -0.000000000002 Rises=F Damp=F
 DIIS: error= 1.79D-08 at cycle   9 NSaved=   9.
 NSaved= 9 IEnMin= 9 EnMin= -39.8554788506108     IErMin= 9 ErrMin= 1.79D-08
 ErrMax= 1.79D-08  0.00D+00 EMaxC= 1.00D-01 BMatC= 3.48D-14 BMatP= 4.80D-12
 IDIUse=1 WtCom= 1.00D+00 WtEn= 0.00D+00
 Coeff-Com:  0.280D-05-0.550D-05-0.137D-05 0.388D-04-0.461D-04-0.214D-03
 Coeff-Com: -0.480D-02 0.300D-01 0.975D+00
 Coeff:      0.280D-05-0.550D-05-0.137D-05 0.388D-04-0.461D-04-0.214D-03
 Coeff:     -0.480D-02 0.300D-01 0.975D+00
 Gap=     0.259 Goal=   None    Shift=    0.000
 Gap=     0.342 Goal=   None    Shift=    0.000
 RMSDP=1.56D-09 MaxDP=3.50D-08 DE=-2.39D-12 OVMax= 6.70D-08

 SCF Done:  E(UB3LYP) =  -39.8554788506     A.U. after    9 cycles
            NFock=  9  Conv=0.16D-08     -V/T= 2.0059
 <Sx>= 0.0000 <Sy>= 0.0000 <Sz>= 0.5000 <S**2>= 0.7535 S= 0.5017
 <L.S>=  0.00000000000    
 KE= 3.962183972037D+01 PE=-1.112869360645D+02 EE= 2.213503357299D+01
 Annihilation of the first spin contaminant:
 S**2 before annihilation     0.7535,   after     0.7500
 Leave Link  502 at Mon Apr 22 22:19:42 2019, MaxMem=   786432000 cpu:              23.4 elap:               7.3
 (Enter /home/luca/Vubuntu_share/CODES/GAUSSIAN/g16/l801.exe)
 DoSCS=F DFT=T ScalE2(SS,OS)=  1.000000  1.000000
 Range of M.O.s used for correlation:     1    71
 NBasis=    71 NAE=     5 NBE=     4 NFC=     0 NFV=     0
 NROrb=     71 NOA=     5 NOB=     4 NVA=    66 NVB=    67
 Leave Link  801 at Mon Apr 22 22:19:43 2019, MaxMem=   786432000 cpu:               0.2 elap:               0.2
 (Enter /home/luca/Vubuntu_share/CODES/GAUSSIAN/g16/l1002.exe)
 Minotr:  UHF open shell wavefunction.
          IDoAtm=1111
          Direct CPHF calculation.
          Differentiating once with respect to Fermi-contact.
          Electric field/nuclear overlap derivatives assumed to be zero.
          Requested convergence is 1.0D-10 RMS, and 1.0D-09 maximum.
          Secondary convergence is 1.0D-12 RMS, and 1.0D-12 maximum.
          NewPWx=T KeepS1=F KeepF1=F KeepIn=T MapXYZ=F SortEE=F KeepMc=T.
 Keep R1, R2, and R3 ints in memory in canonical form, NReq=15434105.
 FoFCou: FMM=F IPFlag=           0 FMFlag=           0 FMFlg1=           0
         NFxFlg=           0 DoJE=F BraDBF=F KetDBF=F FulRan=T
         wScrn=  0.000000 ICntrl=       600 IOpCl=  0 I1Cent=           0 NGrid=           0
         NMat0=    1 NMatS0=   2556 NMatT0=    0 NMatD0=    1 NMtDS0=    0 NMtDT0=    0
 Symmetry not used in FoFCou.
 Two-electron integral symmetry not used.
          MDV=     786432000 using IRadAn=  199590.
          Solving linear equations simultaneously, MaxMat=       0.
          There are     4 degrees of freedom in the 1st order CPHF.  IDoFFX=0 NUNeed=     4.
      4 vectors produced by pass  0 Test12= 1.50D-18 2.50D-10 XBig12= 3.93D+01 1.81D+00.
 AX will form     4 AO Fock derivatives at one time.
      4 vectors produced by pass  1 Test12= 1.50D-18 2.50D-10 XBig12= 2.32D-01 1.70D-01.
      4 vectors produced by pass  2 Test12= 1.50D-18 2.50D-10 XBig12= 3.48D-03 2.54D-02.
      4 vectors produced by pass  3 Test12= 1.50D-18 2.50D-10 XBig12= 6.79D-05 3.15D-03.
      4 vectors produced by pass  4 Test12= 1.50D-18 2.50D-10 XBig12= 1.15D-06 6.47D-04.
      4 vectors produced by pass  5 Test12= 1.50D-18 2.50D-10 XBig12= 5.84D-09 2.22D-05.
      4 vectors produced by pass  6 Test12= 1.50D-18 2.50D-10 XBig12= 2.48D-11 1.37D-06.
      4 vectors produced by pass  7 Test12= 1.50D-18 2.50D-10 XBig12= 6.24D-14 6.67D-08.
      4 vectors produced by pass  8 Test12= 1.50D-18 2.50D-10 XBig12= 2.01D-16 4.32D-09.
      3 vectors produced by pass  9 Test12= 1.50D-18 2.50D-10 XBig12= 2.15D-18 5.17D-10.
 InvSVY:  IOpt=1 It=  1 EMax= 2.22D-16
 Solved reduced A of dimension    39 with     4 vectors.
 Max diff in FC couplings:  IJMax=     4     1 Diff= 9.04D-06 IJMaxR=     4     3 DiffR= 7.14D-06
 Fermi Contact (FC) contribution to K (Hz):
                1             2             3             4 
      1  0.123400D+11
      2  0.219628D+02  0.123400D+11
      3  0.219600D+02  0.175000D+00  0.123400D+11
      4  0.219600D+02  0.174999D+00  0.174598D+00  0.123400D+11
 Fermi Contact (FC) contribution to J (Hz):
                1             2             3             4 
      1  0.243533D+11
      2  0.172340D+03  0.385007D+12
      3  0.172318D+03  0.545998D+01  0.385007D+12
      4  0.172318D+03  0.545996D+01  0.544746D+01  0.385007D+12
 End of Minotr F.D. properties file   721 does not exist.
 End of Minotr F.D. properties file   722 does not exist.
 End of Minotr F.D. properties file   788 does not exist.
 Leave Link 1002 at Mon Apr 22 22:20:22 2019, MaxMem=   786432000 cpu:             139.2 elap:              38.6
 (Enter /home/luca/Vubuntu_share/CODES/GAUSSIAN/g16/l601.exe)
 Copying SCF densities to generalized density rwf, IOpCl= 1 IROHF=0.

 **********************************************************************

            Population analysis using the SCF density.

 **********************************************************************

 Orbital symmetries:
 Alpha Orbitals:
       Occupied  (A) (A) (A) (A) (A)
       Virtual   (A) (A) (A) (A) (A) (A) (A) (A) (A) (A) (A) (A)
                 (A) (A) (A) (A) (A) (A) (A) (A) (A) (A) (A) (A)
                 (A) (A) (A) (A) (A) (A) (A) (A) (A) (A) (A) (A)
                 (A) (A) (A) (A) (A) (A) (A) (A) (A) (A) (A) (A)
                 (A) (A) (A) (A) (A) (A) (A) (A) (A) (A) (A) (A)
                 (A) (A) (A) (A) (A) (A)
 Beta  Orbitals:
       Occupied  (A) (A) (A) (A)
       Virtual   (A) (A) (A) (A) (A) (A) (A) (A) (A) (A) (A) (A)
                 (A) (A) (A) (A) (A) (A) (A) (A) (A) (A) (A) (A)
                 (A) (A) (A) (A) (A) (A) (A) (A) (A) (A) (A) (A)
                 (A) (A) (A) (A) (A) (A) (A) (A) (A) (A) (A) (A)
                 (A) (A) (A) (A) (A) (A) (A) (A) (A) (A) (A) (A)
                 (A) (A) (A) (A) (A) (A) (A)
 The electronic state is 2-A.
 Alpha  occ. eigenvalues --  -10.18641  -0.68898  -0.42446  -0.42445  -0.23490
 Alpha virt. eigenvalues --    0.02451   0.19509   0.19511   0.20471   0.24406
 Alpha virt. eigenvalues --    0.24407   0.27751   0.64965   0.84361   0.85442
 Alpha virt. eigenvalues --    0.85445   0.95915   0.95917   1.27464   1.27471
 Alpha virt. eigenvalues --    1.36031   1.43479   1.53480   1.79168   1.84317
 Alpha virt. eigenvalues --    1.84322   1.85893   1.85895   2.17783   2.17793
 Alpha virt. eigenvalues --    2.47549   2.59365   2.59367   5.04392   5.28354
 Alpha virt. eigenvalues --    5.28360   5.42722   7.49369   7.69476   7.69480
 Alpha virt. eigenvalues --   22.21594  32.87271  32.93150  32.93154  38.52017
 Alpha virt. eigenvalues --   38.64172  38.64175  83.18955 230.01983 230.07955
 Alpha virt. eigenvalues --  230.07957 312.154021334.769821366.965391367.01762
 Alpha virt. eigenvalues -- 1367.017645509.246215509.294275509.294277343.05606
 Alpha virt. eigenvalues -- **************************************************
 Alpha virt. eigenvalues -- **************************************************
 Alpha virt. eigenvalues -- **********
  Beta  occ. eigenvalues --  -10.17208  -0.64932  -0.41473  -0.41472
  Beta virt. eigenvalues --   -0.07284   0.03030   0.19699   0.19701   0.22654
  Beta virt. eigenvalues --    0.25191   0.25192   0.33150   0.67662   0.85609
  Beta virt. eigenvalues --    0.85611   0.86127   0.99628   0.99630   1.27827
  Beta virt. eigenvalues --    1.27834   1.35641   1.49597   1.56510   1.85636
  Beta virt. eigenvalues --    1.87264   1.87268   1.88084   1.88087   2.18081
  Beta virt. eigenvalues --    2.18091   2.48059   2.60931   2.60933   5.06346
  Beta virt. eigenvalues --    5.28244   5.28251   5.44230   7.56179   7.71010
  Beta virt. eigenvalues --    7.71014  22.24324  32.86153  32.92041  32.92045
  Beta virt. eigenvalues --   38.54769  38.64729  38.64733  83.19954 230.00568
  Beta virt. eigenvalues --  230.06540 230.06543 312.157611334.771331366.94441
  Beta virt. eigenvalues -- 1366.996651366.996665509.220855509.268915509.26891
  Beta virt. eigenvalues -- 7343.05705****************************************
  Beta virt. eigenvalues -- **************************************************
  Beta virt. eigenvalues -- ********************
          Condensed to atoms (all electrons):
               1          2          3          4
     1  C    5.116505   0.407417   0.407422   0.407422
     2  H    0.407417   0.526979  -0.023665  -0.023665
     3  H    0.407422  -0.023665   0.527000  -0.023673
     4  H    0.407422  -0.023665  -0.023673   0.527000
          Atomic-Atomic Spin Densities.
               1          2          3          4
     1  C    1.142066  -0.000070  -0.000069  -0.000069
     2  H   -0.000070  -0.048588   0.000687   0.000687
     3  H   -0.000069   0.000687  -0.048591   0.000687
     4  H   -0.000069   0.000687   0.000687  -0.048591
 Mulliken charges and spin densities:
               1          2
     1  C   -0.338765   1.141858
     2  H    0.112934  -0.047285
     3  H    0.112916  -0.047286
     4  H    0.112916  -0.047286
 Sum of Mulliken charges =  -0.00000   1.00000
 Mulliken charges and spin densities with hydrogens summed into heavy atoms:
               1          2
     1  C   -0.000000   1.000000
 Electronic spatial extent (au):  <R**2>=             29.8683
 Charge=             -0.0000 electrons
 Dipole moment (field-independent basis, Debye):
    X=             -0.0001    Y=              0.0000    Z=              0.0000  Tot=              0.0001
 Quadrupole moment (field-independent basis, Debye-Ang):
   XX=             -7.1669   YY=             -7.1675   ZZ=             -9.0540
   XY=              0.0000   XZ=             -0.0000   YZ=             -0.0000
 Traceless Quadrupole moment (field-independent basis, Debye-Ang):
   XX=              0.6293   YY=              0.6287   ZZ=             -1.2579
   XY=              0.0000   XZ=             -0.0000   YZ=             -0.0000
 Octapole moment (field-independent basis, Debye-Ang**2):
  XXX=              0.9514  YYY=              0.0000  ZZZ=              0.0001  XYY=             -0.9516
  XXY=             -0.0000  XXZ=              0.0000  XZZ=             -0.0001  YZZ=             -0.0000
  YYZ=              0.0000  XYZ=              0.0000
 Hexadecapole moment (field-independent basis, Debye-Ang**3):
 XXXX=            -14.5357 YYYY=            -14.5352 ZZZZ=            -11.0536 XXXY=              0.0000
 XXXZ=              0.0000 YYYX=             -0.0000 YYYZ=              0.0000 ZZZX=             -0.0000
 ZZZY=              0.0000 XXYY=             -4.8451 XXZZ=             -4.6712 YYZZ=             -4.6709
 XXYZ=             -0.0000 YYXZ=             -0.0000 ZZXY=              0.0000
 N-N= 9.674583920535D+00 E-N=-1.112869362203D+02  KE= 3.962183972037D+01
                          Isotropic Fermi Contact Couplings
        Atom                 a.u.       MegaHertz       Gauss      10(-4) cm-1
     1  C(13)              0.07434      83.57514      29.82169      27.87767
     2  H(1)              -0.01475     -65.95149     -23.53313     -21.99905
     3  H(1)              -0.01475     -65.94535     -23.53094     -21.99700
     4  H(1)              -0.01475     -65.94535     -23.53094     -21.99700
 --------------------------------------------------------
       Center         ----  Spin Dipole Couplings  ----
                      3XX-RR        3YY-RR        3ZZ-RR
 --------------------------------------------------------
     1   Atom       -0.586644     -0.586642      1.173286
     2   Atom        0.077436     -0.075876     -0.001560
     3   Atom       -0.037545      0.039100     -0.001554
     4   Atom       -0.037546      0.039100     -0.001554
 --------------------------------------------------------
                        XY            XZ            YZ
 --------------------------------------------------------
     1   Atom       -0.000000      0.000000      0.000000
     2   Atom       -0.000000      0.000002     -0.000000
     3   Atom        0.066399     -0.000001     -0.000001
     4   Atom       -0.066398     -0.000001      0.000001
 --------------------------------------------------------


 ---------------------------------------------------------------------------------
              Anisotropic Spin Dipole Couplings in Principal Axis System
 ---------------------------------------------------------------------------------

       Atom             a.u.   MegaHertz   Gauss  10(-4) cm-1        Axes

              Baa    -0.5866   -78.722   -28.090   -26.259  1.0000  0.0000 -0.0000
     1 C(13)  Bbb    -0.5866   -78.722   -28.090   -26.259 -0.0000  1.0000 -0.0000
              Bcc     1.1733   157.444    56.180    52.518  0.0000  0.0000  1.0000
 
              Baa    -0.0759   -40.484   -14.446   -13.504  0.0000  1.0000 -0.0000
     2 H(1)   Bbb    -0.0016    -0.832    -0.297    -0.278 -0.0000  0.0000  1.0000
              Bcc     0.0774    41.316    14.743    13.782  1.0000 -0.0000  0.0000
 
              Baa    -0.0759   -40.490   -14.448   -13.506  0.8660 -0.5001  0.0000
     3 H(1)   Bbb    -0.0016    -0.829    -0.296    -0.277  0.0000  0.0000  1.0000
              Bcc     0.0774    41.319    14.744    13.783  0.5001  0.8660 -0.0000
 
              Baa    -0.0759   -40.490   -14.448   -13.506  0.8660  0.5001  0.0000
     4 H(1)   Bbb    -0.0016    -0.829    -0.296    -0.277  0.0000 -0.0000  1.0000
              Bcc     0.0774    41.319    14.744    13.783 -0.5001  0.8660  0.0000
 

 ---------------------------------------------------------------------------------

 No NMR shielding tensors so no spin-rotation constants.
 Leave Link  601 at Mon Apr 22 22:20:24 2019, MaxMem=   786432000 cpu:               2.1 elap:               0.9
 (Enter /home/luca/Vubuntu_share/CODES/GAUSSIAN/g16/l9999.exe)
 1\1\GINC-LUCA-VIRTUALBOX\SP\UB3LYP\Gen\C1H3(2)\LUCA\22-Apr-2019\0\\#p 
 nmr=(giao,spinspin,mixed) ub3lyp/EPR-II\\Title Card Required\\0,2\C,0,
 -0.3339714954,-0.4313659937,0.0000000003\H,0,-0.3332673922,-1.51071043
 02,-0.0000000004\H,0,-0.3342966464,0.1083339622,0.9346417306\H,0,-0.33
 42966461,0.1083339617,-0.9346417306\\Version=ES64L-G16RevA.03\State=2-
 A\HF=-39.8554789\S2=0.753456\S2-1=0.\S2A=0.750006\RMSD=1.559e-09\Dipol
 e=0.0000165,0.0000208,0.\Quadrupole=-0.9352306,0.4678342,0.4673964,-0.
 000892,0.,0.\PG=C01 [X(C1H3)]\\@


 I DON'T EXACTLY UNDERSTAND WHAT YOU ARE SAYING,
 BUT YOU ARE ABSOLUTELY RIGHT.
     M.S.GORDON, IN A NDSU FACULTY MEETING
 Leave Link 9999 at Mon Apr 22 22:20:24 2019, MaxMem=   786432000 cpu:               0.5 elap:               0.2
 Job cpu time:       0 days  0 hours  2 minutes 58.8 seconds.
 Elapsed time:       0 days  0 hours  0 minutes 53.0 seconds.
 File lengths (MBytes):  RWF=     10 Int=      0 D2E=      0 Chk=      2 Scr=      1
 Normal termination of Gaussian 16 at Mon Apr 22 22:20:25 2019.
 (Enter /home/luca/Vubuntu_share/CODES/GAUSSIAN/g16/l1.exe)
 Link1:  Proceeding to internal job step number  2.
 ----------------------------------------------------------------------
 #P Geom=AllCheck Guess=TCheck SCRF=Check GenChk UB3LYP/ChkBas NMR=Read
 FC IOp(3/6=22)
 ----------------------------------------------------------------------
 1/29=7,38=1,40=1,172=1/1;
 2/12=2,40=1/2;
 3/5=7,6=22,11=2,14=-4,25=1,30=1,67=1,70=2,74=-5,82=7,116=2/1,2,3,8;
 4/5=101/1;
 5/5=2,38=6/2;
 8/6=1,10=90,11=11/1;
 10/13=100,45=16,47=4/2;
 6/7=2,8=2,9=2,10=2,28=1/1;
 99/9=1/99;
 Leave Link    1 at Mon Apr 22 22:20:25 2019, MaxMem=   786432000 cpu:               0.4 elap:               0.1
 (Enter /home/luca/Vubuntu_share/CODES/GAUSSIAN/g16/l101.exe)
 Structure from the checkpoint file:  "g.chk"
 -------------------
 Title Card Required
 -------------------
 Charge =  0 Multiplicity = 2
 Z-Matrix found in chk file.
 C,0,-0.3339714954,-0.4313659937,0.0000000003
 H,0,-0.3332673922,-1.5107104302,-0.0000000004
 H,0,-0.3342966464,0.1083339622,0.9346417306
 H,0,-0.3342966461,0.1083339617,-0.9346417306
 Recover connectivity data from disk.
 ITRead=  0  0  0  0
 MicOpt= -1 -1 -1 -1
 NAtoms=      4 NQM=        4 NQMF=       0 NMMI=      0 NMMIF=      0
                NMic=       0 NMicF=      0.
                    Isotopes and Nuclear Properties:
 (Nuclear quadrupole moments (NQMom) in fm**2, nuclear magnetic moments (NMagM)
  in nuclear magnetons)

  Atom         1           2           3           4
 IAtWgt=          12           1           1           1
 AtmWgt=  12.0000000   1.0078250   1.0078250   1.0078250
 NucSpn=           0           1           1           1
 AtZEff=   3.6000000   1.0000000   1.0000000   1.0000000
 NQMom=    0.0000000   0.0000000   0.0000000   0.0000000
 NMagM=    0.0000000   2.7928460   2.7928460   2.7928460
 AtZNuc=   6.0000000   1.0000000   1.0000000   1.0000000
 Leave Link  101 at Mon Apr 22 22:20:26 2019, MaxMem=   786432000 cpu:               0.8 elap:               0.4
 (Enter /home/luca/Vubuntu_share/CODES/GAUSSIAN/g16/l202.exe)
                          Input orientation:                          
 ---------------------------------------------------------------------
 Center     Atomic      Atomic             Coordinates (Angstroms)
 Number     Number       Type             X           Y           Z
 ---------------------------------------------------------------------
      1          6           0       -0.333971   -0.431366    0.000000
      2          1           0       -0.333267   -1.510710   -0.000000
      3          1           0       -0.334297    0.108334    0.934642
      4          1           0       -0.334297    0.108334   -0.934642
 ---------------------------------------------------------------------
                    Distance matrix (angstroms):
                    1          2          3          4
     1  C    0.000000
     2  H    1.079345   0.000000
     3  H    1.079274   1.869455   0.000000
     4  H    1.079274   1.869455   1.869283   0.000000
 Stoichiometry    CH3(2)
 Framework group  C1[X(CH3)]
 Deg. of freedom     6
 Full point group                 C1      NOp   1
 RotChk:  IX=0 Diff= 2.00D-11
 Largest Abelian subgroup         C1      NOp   1
 Largest concise Abelian subgroup C1      NOp   1
                         Standard orientation:                         
 ---------------------------------------------------------------------
 Center     Atomic      Atomic             Coordinates (Angstroms)
 Number     Number       Type             X           Y           Z
 ---------------------------------------------------------------------
      1          6           0        0.000006    0.000000   -0.000006
      2          1           0        1.079351   -0.000002    0.000012
      3          1           0       -0.539696   -0.934641    0.000012
      4          1           0       -0.539692    0.934643    0.000012
 ---------------------------------------------------------------------
 Rotational constants (GHZ):         287.0197124         286.9496016         143.4923264
 Leave Link  202 at Mon Apr 22 22:20:26 2019, MaxMem=   786432000 cpu:               0.3 elap:               0.1
 (Enter /home/luca/Vubuntu_share/CODES/GAUSSIAN/g16/l301.exe)
 Basis read from chk: "g.chk" (5D, 7F)
 No pseudopotential information found on chk file.
 There are    39 symmetry adapted cartesian basis functions of A   symmetry.
 There are    38 symmetry adapted basis functions of A   symmetry.
    38 basis functions,    58 primitive gaussians,    39 cartesian basis functions
     5 alpha electrons        4 beta electrons
       nuclear repulsion energy         9.6745839205 Hartrees.
 IExCor=  402 DFT=T Ex+Corr=B3LYP ExCW=0 ScaHFX=  0.200000
 ScaDFX=  0.800000  0.720000  1.000000  0.810000 ScalE2=  1.000000  1.000000
 IRadAn=      5 IRanWt=     -1 IRanGd=            0 ICorTp=0 IEmpDi=  4
 NAtoms=    4 NActive=    4 NUniq=    4 SFac= 1.00D+00 NAtFMM=   60 NAOKFM=F Big=F
 Integral buffers will be    131072 words long.
 Raffenetti 2 integral format.
 Two-electron integral symmetry is turned on.
 No density basis found on file 20724.
 Leave Link  301 at Mon Apr 22 22:20:27 2019, MaxMem=   786432000 cpu:               1.9 elap:               0.7
 (Enter /home/luca/Vubuntu_share/CODES/GAUSSIAN/g16/l302.exe)
 NPDir=0 NMtPBC=     1 NCelOv=     1 NCel=       1 NClECP=     1 NCelD=      1
         NCelK=      1 NCelE2=     1 NClLst=     1 CellRange=     0.0.
 One-electron integrals computed using PRISM.
 One-electron integral symmetry used in STVInt
 NBasis=    38 RedAO= T EigKep=  1.80D-02  NBF=    38
 NBsUse=    38 1.00D-06 EigRej= -1.00D+00 NBFU=    38
 Precomputing XC quadrature grid using
 IXCGrd= 4 IRadAn=           5 IRanWt=          -1 IRanGd=           0 AccXCQ= 0.00D+00.
 Generated NRdTot=       0 NPtTot=           0 NUsed=           0 NTot=          32
 NSgBfM=    39    39    39    39    39 MxSgAt=     4 MxSgA2=     4.
 Leave Link  302 at Mon Apr 22 22:20:27 2019, MaxMem=   786432000 cpu:               0.8 elap:               0.3
 (Enter /home/luca/Vubuntu_share/CODES/GAUSSIAN/g16/l303.exe)
 DipDrv:  MaxL=1.
 Leave Link  303 at Mon Apr 22 22:20:27 2019, MaxMem=   786432000 cpu:               0.1 elap:               0.2
 (Enter /home/luca/Vubuntu_share/CODES/GAUSSIAN/g16/l308.exe)
 Leave Link  308 at Mon Apr 22 22:20:28 2019, MaxMem=   786432000 cpu:               0.4 elap:               0.2
 (Enter /home/luca/Vubuntu_share/CODES/GAUSSIAN/g16/l401.exe)
 Initial guess from the checkpoint file:  "g.chk"
 B after Tr=     0.000000   -0.000000   -0.000000
         Rot=    1.000000   -0.000000   -0.000000    0.000000 Ang=   0.00 deg.
 Guess basis will be translated and rotated to current coordinates.
 JPrj=2 DoOrth=T DoCkMO=T.
 Initial guess <Sx>= 0.0000 <Sy>= 0.0000 <Sz>= 0.5000 <S**2>= 0.7534 S= 0.5017
 Leave Link  401 at Mon Apr 22 22:20:29 2019, MaxMem=   786432000 cpu:               0.8 elap:               0.3
 (Enter /home/luca/Vubuntu_share/CODES/GAUSSIAN/g16/l502.exe)
 Keep R1 and R2 ints in memory in canonical form, NReq=4002286.
 FoFCou: FMM=F IPFlag=           0 FMFlag=           0 FMFlg1=           0
         NFxFlg=           0 DoJE=F BraDBF=F KetDBF=F FulRan=T
         wScrn=  0.000000 ICntrl=       600 IOpCl=  0 I1Cent=           0 NGrid=           0
         NMat0=    1 NMatS0=    741 NMatT0=    0 NMatD0=    1 NMtDS0=    0 NMtDT0=    0
 Symmetry not used in FoFCou.
 Two-electron integral symmetry not used.
 UHF open shell SCF:
 Using DIIS extrapolation, IDIIS=  1040.
 NGot=   786432000 LenX=   785878318 LenY=   785876356
 Requested convergence on RMS density matrix=1.00D-08 within 128 cycles.
 Requested convergence on MAX density matrix=1.00D-06.
 Requested convergence on             energy=1.00D-06.
 No special actions if energy rises.

 Cycle   1  Pass 1  IDiag  1:
 E= -39.8498880852467    
 DIIS: error= 1.64D-02 at cycle   1 NSaved=   1.
 NSaved= 1 IEnMin= 1 EnMin= -39.8498880852467     IErMin= 1 ErrMin= 1.64D-02
 ErrMax= 1.64D-02  0.00D+00 EMaxC= 1.00D-01 BMatC= 2.65D-02 BMatP= 2.65D-02
 IDIUse=3 WtCom= 8.36D-01 WtEn= 1.64D-01
 Coeff-Com:  0.100D+01
 Coeff-En:   0.100D+01
 Coeff:      0.100D+01
 Gap=     0.261 Goal=   None    Shift=    0.000
 Gap=     0.343 Goal=   None    Shift=    0.000
 GapD=    0.261 DampG=1.000 DampE=0.500 DampFc=0.5000 IDamp=-1.
 Damping current iteration by 5.00D-01
 RMSDP=7.35D-04 MaxDP=1.06D-02              OVMax= 9.32D-03

 Cycle   2  Pass 1  IDiag  1:
 E= -39.8502259822245     Delta-E=       -0.000337896978 Rises=F Damp=T
 DIIS: error= 8.12D-03 at cycle   2 NSaved=   2.
 NSaved= 2 IEnMin= 2 EnMin= -39.8502259822245     IErMin= 2 ErrMin= 8.12D-03
 ErrMax= 8.12D-03  0.00D+00 EMaxC= 1.00D-01 BMatC= 6.83D-03 BMatP= 2.65D-02
 IDIUse=3 WtCom= 9.19D-01 WtEn= 8.12D-02
 Coeff-Com: -0.995D+00 0.200D+01
 Coeff-En:   0.000D+00 0.100D+01
 Coeff:     -0.915D+00 0.191D+01
 Gap=     0.255 Goal=   None    Shift=    0.000
 Gap=     0.343 Goal=   None    Shift=    0.000
 RMSDP=4.12D-04 MaxDP=5.19D-03 DE=-3.38D-04 OVMax= 6.82D-03

 Cycle   3  Pass 1  IDiag  1:
 E= -39.8505007624317     Delta-E=       -0.000274780207 Rises=F Damp=F
 DIIS: error= 1.80D-03 at cycle   3 NSaved=   3.
 NSaved= 3 IEnMin= 3 EnMin= -39.8505007624317     IErMin= 3 ErrMin= 1.80D-03
 ErrMax= 1.80D-03  0.00D+00 EMaxC= 1.00D-01 BMatC= 2.54D-04 BMatP= 6.83D-03
 IDIUse=3 WtCom= 9.82D-01 WtEn= 1.80D-02
 Coeff-Com: -0.490D+00 0.964D+00 0.526D+00
 Coeff-En:   0.000D+00 0.000D+00 0.100D+01
 Coeff:     -0.481D+00 0.946D+00 0.535D+00
 Gap=     0.258 Goal=   None    Shift=    0.000
 Gap=     0.343 Goal=   None    Shift=    0.000
 RMSDP=1.91D-04 MaxDP=4.71D-03 DE=-2.75D-04 OVMax= 3.44D-03

 Cycle   4  Pass 1  IDiag  1:
 E= -39.8505707342320     Delta-E=       -0.000069971800 Rises=F Damp=F
 DIIS: error= 4.10D-05 at cycle   4 NSaved=   4.
 NSaved= 4 IEnMin= 4 EnMin= -39.8505707342320     IErMin= 4 ErrMin= 4.10D-05
 ErrMax= 4.10D-05  0.00D+00 EMaxC= 1.00D-01 BMatC= 1.61D-07 BMatP= 2.54D-04
 IDIUse=1 WtCom= 1.00D+00 WtEn= 0.00D+00
 Coeff-Com: -0.247D-02 0.477D-02 0.267D-01 0.971D+00
 Coeff:     -0.247D-02 0.477D-02 0.267D-01 0.971D+00
 Gap=     0.258 Goal=   None    Shift=    0.000
 Gap=     0.343 Goal=   None    Shift=    0.000
 RMSDP=4.29D-06 MaxDP=8.30D-05 DE=-7.00D-05 OVMax= 6.80D-05

 Cycle   5  Pass 1  IDiag  1:
 E= -39.8505707759747     Delta-E=       -0.000000041743 Rises=F Damp=F
 DIIS: error= 2.16D-06 at cycle   5 NSaved=   5.
 NSaved= 5 IEnMin= 5 EnMin= -39.8505707759747     IErMin= 5 ErrMin= 2.16D-06
 ErrMax= 2.16D-06  0.00D+00 EMaxC= 1.00D-01 BMatC= 2.59D-10 BMatP= 1.61D-07
 IDIUse=1 WtCom= 1.00D+00 WtEn= 0.00D+00
 Coeff-Com:  0.149D-02-0.293D-02-0.104D-02-0.107D-01 0.101D+01
 Coeff:      0.149D-02-0.293D-02-0.104D-02-0.107D-01 0.101D+01
 Gap=     0.258 Goal=   None    Shift=    0.000
 Gap=     0.343 Goal=   None    Shift=    0.000
 RMSDP=2.28D-07 MaxDP=4.71D-06 DE=-4.17D-08 OVMax= 5.44D-06

 Cycle   6  Pass 1  IDiag  1:
 E= -39.8505707760723     Delta-E=       -0.000000000098 Rises=F Damp=F
 DIIS: error= 2.94D-07 at cycle   6 NSaved=   6.
 NSaved= 6 IEnMin= 6 EnMin= -39.8505707760723     IErMin= 6 ErrMin= 2.94D-07
 ErrMax= 2.94D-07  0.00D+00 EMaxC= 1.00D-01 BMatC= 4.86D-12 BMatP= 2.59D-10
 IDIUse=1 WtCom= 1.00D+00 WtEn= 0.00D+00
 Coeff-Com: -0.143D-03 0.283D-03-0.444D-03-0.194D-01-0.107D+00 0.113D+01
 Coeff:     -0.143D-03 0.283D-03-0.444D-03-0.194D-01-0.107D+00 0.113D+01
 Gap=     0.258 Goal=   None    Shift=    0.000
 Gap=     0.343 Goal=   None    Shift=    0.000
 RMSDP=5.89D-08 MaxDP=1.15D-06 DE=-9.76D-11 OVMax= 9.65D-07

 Cycle   7  Pass 1  IDiag  1:
 E= -39.8505707760759     Delta-E=       -0.000000000004 Rises=F Damp=F
 DIIS: error= 5.96D-08 at cycle   7 NSaved=   7.
 NSaved= 7 IEnMin= 7 EnMin= -39.8505707760759     IErMin= 7 ErrMin= 5.96D-08
 ErrMax= 5.96D-08  0.00D+00 EMaxC= 1.00D-01 BMatC= 2.70D-13 BMatP= 4.86D-12
 IDIUse=1 WtCom= 1.00D+00 WtEn= 0.00D+00
 Coeff-Com:  0.589D-05-0.123D-04 0.151D-03 0.556D-02 0.796D-02-0.346D+00
 Coeff-Com:  0.133D+01
 Coeff:      0.589D-05-0.123D-04 0.151D-03 0.556D-02 0.796D-02-0.346D+00
 Coeff:      0.133D+01
 Gap=     0.258 Goal=   None    Shift=    0.000
 Gap=     0.343 Goal=   None    Shift=    0.000
 RMSDP=1.57D-08 MaxDP=3.05D-07 DE=-3.65D-12 OVMax= 2.88D-07

 Cycle   8  Pass 1  IDiag  1:
 E= -39.8505707760761     Delta-E=       -0.000000000000 Rises=F Damp=F
 DIIS: error= 9.93D-09 at cycle   8 NSaved=   8.
 NSaved= 8 IEnMin= 8 EnMin= -39.8505707760761     IErMin= 8 ErrMin= 9.93D-09
 ErrMax= 9.93D-09  0.00D+00 EMaxC= 1.00D-01 BMatC= 7.50D-15 BMatP= 2.70D-13
 IDIUse=1 WtCom= 1.00D+00 WtEn= 0.00D+00
 Coeff-Com:  0.526D-05-0.103D-04-0.591D-05 0.562D-04 0.276D-02 0.123D-01
 Coeff-Com: -0.213D+00 0.120D+01
 Coeff:      0.526D-05-0.103D-04-0.591D-05 0.562D-04 0.276D-02 0.123D-01
 Coeff:     -0.213D+00 0.120D+01
 Gap=     0.258 Goal=   None    Shift=    0.000
 Gap=     0.343 Goal=   None    Shift=    0.000
 RMSDP=2.44D-09 MaxDP=5.19D-08 DE=-2.06D-13 OVMax= 4.47D-08

 SCF Done:  E(UB3LYP) =  -39.8505707761     A.U. after    8 cycles
            NFock=  8  Conv=0.24D-08     -V/T= 2.0079
 <Sx>= 0.0000 <Sy>= 0.0000 <Sz>= 0.5000 <S**2>= 0.7533 S= 0.5017
 <L.S>=  0.00000000000    
 KE= 3.953866564057D+01 PE=-1.111917616811D+02 EE= 2.212794134391D+01
 Annihilation of the first spin contaminant:
 S**2 before annihilation     0.7533,   after     0.7500
 Leave Link  502 at Mon Apr 22 22:20:31 2019, MaxMem=   786432000 cpu:               7.1 elap:               2.3
 (Enter /home/luca/Vubuntu_share/CODES/GAUSSIAN/g16/l801.exe)
 DoSCS=F DFT=T ScalE2(SS,OS)=  1.000000  1.000000
 Range of M.O.s used for correlation:     1    38
 NBasis=    38 NAE=     5 NBE=     4 NFC=     0 NFV=     0
 NROrb=     38 NOA=     5 NOB=     4 NVA=    33 NVB=    34
 Leave Link  801 at Mon Apr 22 22:20:31 2019, MaxMem=   786432000 cpu:               0.2 elap:               0.1
 (Enter /home/luca/Vubuntu_share/CODES/GAUSSIAN/g16/l1002.exe)
 Minotr:  UHF open shell wavefunction.
          IDoAtm=1111
          Direct CPHF calculation.
          Differentiating once with respect to magnetic field using GIAOs.
          Differentiating once with respect to nuclear magnetic moments.
          Differentiating once with respect to Fermi-contact and electric field gradient.
          Electric field/nuclear overlap derivatives assumed to be zero.
          Requested convergence is 1.0D-08 RMS, and 1.0D-07 maximum.
          Secondary convergence is 1.0D-12 RMS, and 1.0D-12 maximum.
          NewPWx=T KeepS1=F KeepF1=F KeepIn=T MapXYZ=F SortEE=F KeepMc=T.
 Keep R1, R2, and R3 ints in memory in canonical form, NReq=6318353.
 FoFCou: FMM=F IPFlag=           0 FMFlag=           0 FMFlg1=           0
         NFxFlg=           0 DoJE=F BraDBF=F KetDBF=F FulRan=T
         wScrn=  0.000000 ICntrl=       600 IOpCl=  0 I1Cent=           0 NGrid=           0
         NMat0=    1 NMatS0=    741 NMatT0=    0 NMatD0=    1 NMtDS0=    0 NMtDT0=    0
 Symmetry not used in FoFCou.
 Two-electron integral symmetry not used.
          MDV=     786432000 using IRadAn=       5.
          Solving linear equations simultaneously, MaxMat=       0.
 FoFJK:  IHMeth= 1 ICntrl=    6127 DoSepK=F KAlg= 0 I1Cent=           0 FoldK=F
 IRaf=         1 NMat=       1 IRICut=       1 DoRegI=T DoRafI=F ISym2E= 0 IDoP0=0 IntGTp=1.
          There are    15 degrees of freedom in the 1st order CPHF.  IDoFFX=0 NUNeed=    15.
     15 vectors produced by pass  0 Test12= 2.01D-15 6.67D-09 XBig12= 1.06D+01 2.61D+00.
 AX will form    15 AO Fock derivatives at one time.
     15 vectors produced by pass  1 Test12= 2.01D-15 6.67D-09 XBig12= 9.22D-03 4.80D-02.
     15 vectors produced by pass  2 Test12= 2.01D-15 6.67D-09 XBig12= 1.55D-06 5.93D-04.
     15 vectors produced by pass  3 Test12= 2.01D-15 6.67D-09 XBig12= 1.54D-09 1.99D-05.
      8 vectors produced by pass  4 Test12= 2.01D-15 6.67D-09 XBig12= 8.97D-13 5.50D-07.
      1 vectors produced by pass  5 Test12= 2.01D-15 6.67D-09 XBig12= 1.52D-15 2.75D-08.
 InvSVY:  IOpt=1 It=  1 EMax= 1.33D-15
 Solved reduced A of dimension    69 with    15 vectors.
 Calculating GIAO nuclear magnetic shielding tensors.
 SCF GIAO Magnetic shielding tensor (ppm):
      1  C    Isotropic =    99.5528   Anisotropy =   127.8313
   XX=    56.9338   YX=    -0.0000   ZX=     0.0000
   XY=    -0.0000   YY=    56.9510   ZY=    -0.0000
   XZ=     0.0000   YZ=    -0.0000   ZZ=   184.7737
   Eigenvalues:    56.9338    56.9510   184.7737
      2  H    Isotropic =    27.4912   Anisotropy =     0.9977
   XX=    26.3134   YX=     0.0000   ZX=    -0.0001
   XY=     0.0000   YY=    28.0039   ZY=     0.0000
   XZ=     0.0001   YZ=    -0.0000   ZZ=    28.1563
   Eigenvalues:    26.3134    28.0039    28.1563
      3  H    Isotropic =    27.4929   Anisotropy =     0.9977
   XX=    27.5826   YX=    -0.7326   ZX=     0.0000
   XY=    -0.7316   YY=    26.7380   ZY=     0.0001
   XZ=    -0.0001   YZ=    -0.0001   ZZ=    28.1580
   Eigenvalues:    26.3152    28.0054    28.1580
      4  H    Isotropic =    27.4929   Anisotropy =     0.9977
   XX=    27.5826   YX=     0.7326   ZX=     0.0000
   XY=     0.7316   YY=    26.7380   ZY=    -0.0001
   XZ=    -0.0001   YZ=     0.0001   ZZ=    28.1580
   Eigenvalues:    26.3152    28.0054    28.1580
 g value of the free electron [g_e]: 0.20023193D+01
 relativistic mass correction [g_RMC]:-0.12690382D-03
 diamagnetic correction to g tensor [g_DC]:
   XX= 0.71966926D-04   YX= 0.14180274D-15   ZX=-0.20846543D-13
   XY= 0.15695033D-15   YY= 0.71966815D-04   ZY=-0.40206435D-19
   XZ= 0.67596064D-13   YZ= 0.22981032D-18   ZZ= 0.34023045D-04
 orbital Zeeman and spin-orbit coupling contribution to g tensor [g_OZ/SOC]:
   XX= 0.65807510D-03   YX=-0.21405906D-14   ZX= 0.19763067D-13
   XY=-0.19245920D-14   YY= 0.65801756D-03   ZY=-0.45077682D-18
   XZ= 0.19670101D-12   YZ=-0.70384907D-17   ZZ= 0.19476312D-05
 g tensor [g = g_e + g_RMC + g_DC + g_OZ/SOC]:
   XX= 0.20029224D+01   YX=-0.19987879D-14   ZX=-0.10834761D-14
   XY=-0.17676417D-14   YY= 0.20029224D+01   ZY=-0.49098326D-18
   XZ= 0.26429708D-12   YZ=-0.68086804D-17   ZZ= 0.20022284D+01
 g shifts relative to the free electron (ppm):
   xx=          -90.9   yy=          603.1   zz=          603.1
 Max diff in PS couplings:  IJMax=     2     1 Diff= 2.41D-10 IJMaxR=     2     1 DiffR= 2.83D-08
          There are    24 degrees of freedom in the 1st order CPHF.  IDoFFX=0 NUNeed=    24.
     20 vectors produced by pass  0 Test12= 1.25D-15 4.17D-09 XBig12= 7.94D+00 1.65D+00.
     20 vectors produced by pass  1 Test12= 1.25D-15 4.17D-09 XBig12= 1.98D-01 1.96D-01.
     20 vectors produced by pass  2 Test12= 1.25D-15 4.17D-09 XBig12= 1.32D-03 1.29D-02.
     20 vectors produced by pass  3 Test12= 1.25D-15 4.17D-09 XBig12= 1.58D-06 4.31D-04.
     19 vectors produced by pass  4 Test12= 1.25D-15 4.17D-09 XBig12= 1.56D-09 2.14D-05.
     11 vectors produced by pass  5 Test12= 1.25D-15 4.17D-09 XBig12= 1.81D-12 5.93D-07.
      3 vectors produced by pass  6 Test12= 1.25D-15 4.17D-09 XBig12= 5.52D-15 4.52D-08.
 InvSVY:  IOpt=1 It=  1 EMax= 1.22D-15
 Solved reduced A of dimension   113 with    20 vectors.
 Max diff in SD couplings:  IJMax=     3     1 Diff= 2.04D-09 IJMaxR=     4     2 DiffR= 5.70D-08
 Fermi Contact contribution taken from checkpoint file:
 "g.chk"
 There are a total of       89888 grid points.
 ElSum from          density=       17.9999993185
 Fermi Contact (FC) contribution to K (Hz):
                1             2             3             4 
      1  0.000000D+00
      2  0.219628D+02  0.000000D+00
      3  0.219600D+02  0.175000D+00  0.000000D+00
      4  0.219600D+02  0.174999D+00  0.174598D+00  0.000000D+00
 Fermi Contact (FC) contribution to J (Hz):
                1             2             3             4 
      1  0.000000D+00
      2  0.172340D+03  0.000000D+00
      3  0.172318D+03  0.545998D+01  0.000000D+00
      4  0.172318D+03  0.545996D+01  0.544746D+01  0.000000D+00
 Spin-dipolar (SD) contribution to K (Hz):
                1             2             3             4 
      1  0.000000D+00
      2  0.439237D-01  0.000000D+00
      3  0.439449D-01  0.277121D-02  0.000000D+00
      4  0.439449D-01  0.277121D-02  0.278081D-02  0.000000D+00
 Spin-dipolar (SD) contribution to J (Hz):
                1             2             3             4 
      1  0.000000D+00
      2  0.344665D+00  0.000000D+00
      3  0.344831D+00  0.864617D-01  0.000000D+00
      4  0.344831D+00  0.864617D-01  0.867613D-01  0.000000D+00
 Paramagnetic spin-orbit (PSO) contribution to K (Hz):
                1             2             3             4 
      1  0.000000D+00
      2 -0.853056D-02  0.000000D+00
      3 -0.856244D-02  0.989696D-01  0.000000D+00
      4 -0.856244D-02  0.989696D-01  0.989683D-01  0.000000D+00
 Paramagnetic spin-orbit (PSO) contribution to J (Hz):
                1             2             3             4 
      1  0.000000D+00
      2 -0.669385D-01  0.000000D+00
      3 -0.671887D-01  0.308785D+01  0.000000D+00
      4 -0.671887D-01  0.308785D+01  0.308781D+01  0.000000D+00
 Diamagnetic spin-orbit (DSO) contribution to K (Hz):
                1             2             3             4 
      1  0.000000D+00
      2  0.153816D-01  0.000000D+00
      3  0.153813D-01 -0.140560D+00  0.000000D+00
      4  0.153813D-01 -0.140560D+00 -0.140549D+00  0.000000D+00
 Diamagnetic spin-orbit (DSO) contribution to J (Hz):
                1             2             3             4 
      1  0.000000D+00
      2  0.120698D+00  0.000000D+00
      3  0.120695D+00 -0.438547D+01  0.000000D+00
      4  0.120695D+00 -0.438547D+01 -0.438513D+01  0.000000D+00
 Total nuclear spin-spin coupling K (Hz): 
                1             2             3             4 
      1  0.000000D+00
      2  0.220135D+02  0.000000D+00
      3  0.220108D+02  0.136180D+00  0.000000D+00
      4  0.220108D+02  0.136180D+00  0.135798D+00  0.000000D+00
 Total nuclear spin-spin coupling J (Hz): 
                1             2             3             4 
      1  0.000000D+00
      2  0.172738D+03  0.000000D+00
      3  0.172716D+03  0.424882D+01  0.000000D+00
      4  0.172716D+03  0.424880D+01  0.423690D+01  0.000000D+00
 End of Minotr F.D. properties file   721 does not exist.
 End of Minotr F.D. properties file   722 does not exist.
 End of Minotr F.D. properties file   788 does not exist.
 Leave Link 1002 at Mon Apr 22 22:20:40 2019, MaxMem=   786432000 cpu:              28.9 elap:               8.7
 (Enter /home/luca/Vubuntu_share/CODES/GAUSSIAN/g16/l601.exe)
 Copying SCF densities to generalized density rwf, IOpCl= 1 IROHF=0.

 **********************************************************************

            Population analysis using the SCF density.

 **********************************************************************

 Orbital symmetries:
 Alpha Orbitals:
       Occupied  (A) (A) (A) (A) (A)
       Virtual   (A) (A) (A) (A) (A) (A) (A) (A) (A) (A) (A) (A)
                 (A) (A) (A) (A) (A) (A) (A) (A) (A) (A) (A) (A)
                 (A) (A) (A) (A) (A) (A) (A) (A) (A)
 Beta  Orbitals:
       Occupied  (A) (A) (A) (A)
       Virtual   (A) (A) (A) (A) (A) (A) (A) (A) (A) (A) (A) (A)
                 (A) (A) (A) (A) (A) (A) (A) (A) (A) (A) (A) (A)
                 (A) (A) (A) (A) (A) (A) (A) (A) (A) (A)
 The electronic state is 2-A.
 Alpha  occ. eigenvalues --  -10.19653  -0.68708  -0.42225  -0.42224  -0.23207
 Alpha virt. eigenvalues --    0.02587   0.19679   0.19680   0.20653   0.26953
 Alpha virt. eigenvalues --    0.26954   0.31002   0.65386   0.84552   0.85981
 Alpha virt. eigenvalues --    0.85983   0.96185   0.96187   1.35296   1.35306
 Alpha virt. eigenvalues --    1.36279   1.43773   1.58805   1.84593   1.84597
 Alpha virt. eigenvalues --    2.18240   2.18250   2.44005   2.44009   2.47799
 Alpha virt. eigenvalues --    5.00293   5.00294   5.10391   5.51564  29.74620
 Alpha virt. eigenvalues --   36.61899  36.61900  36.81333
  Beta  occ. eigenvalues --  -10.18261  -0.64742  -0.41207  -0.41206
  Beta virt. eigenvalues --   -0.06914   0.03155   0.19863   0.19864   0.22822
  Beta virt. eigenvalues --    0.27764   0.27765   0.37266   0.68088   0.86169
  Beta virt. eigenvalues --    0.86171   0.86316   0.99875   0.99878   1.35681
  Beta virt. eigenvalues --    1.35691   1.35905   1.49960   1.60127   1.87540
  Beta virt. eigenvalues --    1.87545   2.18542   2.18552   2.44851   2.44855
  Beta virt. eigenvalues --    2.48309   4.99819   4.99820   5.11696   5.53530
  Beta virt. eigenvalues --   29.76709  36.60707  36.60707  36.80153
          Condensed to atoms (all electrons):
               1          2          3          4
     1  C    5.341929   0.403292   0.403297   0.403297
     2  H    0.403292   0.447099  -0.017158  -0.017158
     3  H    0.403297  -0.017158   0.447082  -0.017165
     4  H    0.403297  -0.017158  -0.017165   0.447082
          Atomic-Atomic Spin Densities.
               1          2          3          4
     1  C    1.114829  -0.002263  -0.002265  -0.002265
     2  H   -0.002263  -0.032617  -0.000567  -0.000567
     3  H   -0.002265  -0.000567  -0.032612  -0.000567
     4  H   -0.002265  -0.000567  -0.000567  -0.032612
 Mulliken charges and spin densities:
               1          2
     1  C   -0.551815   1.108036
     2  H    0.183926  -0.036015
     3  H    0.183944  -0.036011
     4  H    0.183944  -0.036011
 Sum of Mulliken charges =  -0.00000   1.00000
 Mulliken charges and spin densities with hydrogens summed into heavy atoms:
               1          2
     1  C   -0.000000   1.000000
 Electronic spatial extent (au):  <R**2>=             29.5921
 Charge=             -0.0000 electrons
 Dipole moment (field-independent basis, Debye):
    X=             -0.0001    Y=              0.0000    Z=              0.0000  Tot=              0.0001
 Quadrupole moment (field-independent basis, Debye-Ang):
   XX=             -7.0011   YY=             -7.0017   ZZ=             -9.0141
   XY=              0.0000   XZ=             -0.0000   YZ=              0.0000
 Traceless Quadrupole moment (field-independent basis, Debye-Ang):
   XX=              0.6712   YY=              0.6706   ZZ=             -1.3418
   XY=              0.0000   XZ=             -0.0000   YZ=              0.0000
 Octapole moment (field-independent basis, Debye-Ang**2):
  XXX=              1.0066  YYY=              0.0000  ZZZ=              0.0001  XYY=             -1.0068
  XXY=             -0.0000  XXZ=              0.0000  XZZ=             -0.0001  YZZ=             -0.0000
  YYZ=              0.0000  XYZ=              0.0000
 Hexadecapole moment (field-independent basis, Debye-Ang**3):
 XXXX=            -13.8554 YYYY=            -13.8549 ZZZZ=            -10.7555 XXXY=              0.0000
 XXXZ=              0.0000 YYYX=             -0.0000 YYYZ=              0.0000 ZZZX=             -0.0000
 ZZZY=              0.0000 XXYY=             -4.6183 XXZZ=             -4.5199 YYZZ=             -4.5196
 XXYZ=             -0.0000 YYXZ=             -0.0000 ZZXY=              0.0000
 N-N= 9.674583920535D+00 E-N=-1.111917617726D+02  KE= 3.953866564057D+01
                          Isotropic Fermi Contact Couplings
        Atom                 a.u.       MegaHertz       Gauss      10(-4) cm-1
     1  C(13)              0.07524      84.57893      30.17987      28.21249
     2  H(1)              -0.01477     -66.02932     -23.56090     -22.02501
     3  H(1)              -0.01477     -66.02281     -23.55858     -22.02284
     4  H(1)              -0.01477     -66.02281     -23.55858     -22.02284
 --------------------------------------------------------
       Center         ----  Spin Dipole Couplings  ----
                      3XX-RR        3YY-RR        3ZZ-RR
 --------------------------------------------------------
     1   Atom       -0.553814     -0.553811      1.107625
     2   Atom        0.076891     -0.075333     -0.001558
     3   Atom       -0.037274      0.038827     -0.001552
     4   Atom       -0.037275      0.038827     -0.001552
 --------------------------------------------------------
                        XY            XZ            YZ
 --------------------------------------------------------
     1   Atom       -0.000000     -0.000000      0.000000
     2   Atom       -0.000000      0.000002     -0.000000
     3   Atom        0.065927     -0.000001     -0.000001
     4   Atom       -0.065927     -0.000001      0.000001
 --------------------------------------------------------


 ---------------------------------------------------------------------------------
              Anisotropic Spin Dipole Couplings in Principal Axis System
 ---------------------------------------------------------------------------------

       Atom             a.u.   MegaHertz   Gauss  10(-4) cm-1        Axes

              Baa    -0.5538   -74.316   -26.518   -24.789  1.0000  0.0000  0.0000
     1 C(13)  Bbb    -0.5538   -74.316   -26.518   -24.789 -0.0000  1.0000 -0.0000
              Bcc     1.1076   148.633    53.036    49.579 -0.0000  0.0000  1.0000
 
              Baa    -0.0753   -40.194   -14.342   -13.407  0.0000  1.0000 -0.0000
     2 H(1)   Bbb    -0.0016    -0.831    -0.297    -0.277 -0.0000  0.0000  1.0000
              Bcc     0.0769    41.025    14.639    13.685  1.0000 -0.0000  0.0000
 
              Baa    -0.0753   -40.200   -14.344   -13.409  0.8660 -0.5001  0.0000
     3 H(1)   Bbb    -0.0016    -0.828    -0.296    -0.276  0.0000  0.0000  1.0000
              Bcc     0.0769    41.028    14.640    13.685  0.5001  0.8660 -0.0000
 
              Baa    -0.0753   -40.200   -14.344   -13.409  0.8660  0.5001  0.0000
     4 H(1)   Bbb    -0.0016    -0.828    -0.296    -0.276  0.0000 -0.0000  1.0000
              Bcc     0.0769    41.028    14.640    13.685 -0.5001  0.8660  0.0000
 

 ---------------------------------------------------------------------------------

 Calculating spin-rotation constants.
 Leave Link  601 at Mon Apr 22 22:20:41 2019, MaxMem=   786432000 cpu:               1.2 elap:               0.6
 (Enter /home/luca/Vubuntu_share/CODES/GAUSSIAN/g16/l9999.exe)

 Test job not archived.
 1\1\GINC-LUCA-VIRTUALBOX\SP\UB3LYP\Gen\C1H3(2)\LUCA\22-Apr-2019\0\\#P 
 Geom=AllCheck Guess=TCheck SCRF=Check GenChk UB3LYP/ChkBas NMR=ReadFC 
 IOp(3/6=22)\\Title Card Required\\0,2\C,0,-0.3339714954,-0.4313659937,
 0.0000000003\H,0,-0.3332673922,-1.5107104302,-0.0000000004\H,0,-0.3342
 966464,0.1083339622,0.9346417306\H,0,-0.3342966461,0.1083339617,-0.934
 6417306\\Version=ES64L-G16RevA.03\State=2-A\HF=-39.8505708\S2=0.753343
 \S2-1=0.\S2A=0.750005\RMSD=2.436e-09\Dipole=0.0000171,0.0000233,0.\Qua
 drupole=-0.9976107,0.4990208,0.4985899,-0.0009514,0.,0.\PG=C01 [X(C1H3
 )]\\@


 THE 2ND LAW OF THERMODYNAMICS HAS THE SAME
 DEGREE OF TRUTH AS THE STATEMENT THAT IF YOU THROW
 A TUMBLERFULL OF WATER INTO THE SEA, YOU CANNOT GET
 THE SAME TUMBLERFULL OF WATER OUT AGAIN.
          - J.C. MAXWELL, LETTER TO LORD RAYLEIGH, DECEMBER 6,1870
 Job cpu time:       0 days  0 hours  0 minutes 43.8 seconds.
 Elapsed time:       0 days  0 hours  0 minutes 14.3 seconds.
 File lengths (MBytes):  RWF=     10 Int=      0 D2E=      0 Chk=      2 Scr=      1
 Normal termination of Gaussian 16 at Mon Apr 22 22:20:41 2019.
