
                                 *****************
                                 * O   R   C   A *
                                 *****************

           --- An Ab Initio, DFT and Semiempirical electronic structure package ---

                  #######################################################
                  #                        -***-                        #
                  #          Department of theory and spectroscopy      #
                  #               Directorship: Frank Neese             #
                  #        Max Planck Institute fuer Kohlenforschung    #
                  #                Kaiser Wilhelm Platz 1               #
                  #                 D-45470 Muelheim/Ruhr               #
                  #                      Germany                        #
                  #                                                     #
                  #                  All rights reserved                #
                  #                        -***-                        #
                  #######################################################


                         Program Version 4.1.1  - RELEASE  -


 With contributions from (in alphabetic order):
   Daniel Aravena         : Magnetic Properties
   Michael Atanasov       : Ab Initio Ligand Field Theory
   Alexander A. Auer      : GIAO ZORA
   Ute Becker             : Parallelization
   Giovanni Bistoni       : ED, Open-shell LED
   Martin Brehm           : Molecular dynamics
   Dmytro Bykov           : SCF Hessian
   Vijay G. Chilkuri      : MRCI spin determinant printing
   Dipayan Datta          : RHF DLPNO-CCSD density
   Achintya Kumar Dutta   : EOM-CC, STEOM-CC
   Dmitry Ganyushin       : Spin-Orbit,Spin-Spin,Magnetic field MRCI
   Miquel Garcia          : C-PCM Hessian
   Yang Guo               : DLPNO-NEVPT2, CIM, IAO-localization
   Andreas Hansen         : Spin unrestricted coupled pair/coupled cluster methods
   Benjamin Helmich-Paris : CASSCF linear response (MC-RPA)
   Lee Huntington         : MR-EOM, pCC
   Robert Izsak           : Overlap fitted RIJCOSX, COSX-SCS-MP3, EOM
   Christian Kollmar      : KDIIS, OOCD, Brueckner-CCSD(T), CCSD density
   Simone Kossmann        : Meta GGA functionals, TD-DFT gradient, OOMP2, MP2 Hessian
   Martin Krupicka        : AUTO-CI
   Lucas Lang             : DCDCAS
   Dagmar Lenk            : GEPOL surface, SMD
   Dimitrios Liakos       : Extrapolation schemes; parallel MDCI
   Dimitrios Manganas     : ROCIS; embedding schemes
   Dimitrios Pantazis     : SARC Basis sets
   Taras Petrenko         : DFT Hessian,TD-DFT gradient, ASA, ECA, R-Raman, ABS, FL, XAS/XES, NRVS
   Peter Pinski           : DLPNO-MP2, DLPNO-MP2 Gradient
   Christoph Reimann      : Effective Core Potentials
   Marius Retegan         : Local ZFS, SOC
   Christoph Riplinger    : Optimizer, TS searches, QM/MM, DLPNO-CCSD(T), (RO)-DLPNO pert. Triples
   Tobias Risthaus        : Range-separated hybrids, TD-DFT gradient, RPA, STAB
   Michael Roemelt        : Restricted open shell CIS
   Masaaki Saitow         : Open-shell DLPNO
   Barbara Sandhoefer     : DKH picture change effects
   Avijit Sen             : IP-ROCIS
   Kantharuban Sivalingam : CASSCF convergence, NEVPT2, FIC-MRCI
   Bernardo de Souza      : ESD, SOC TD-DFT
   Georgi Stoychev        : AutoAux, RI-MP2 NMR
   Willem Van den Heuvel  : Paramagnetic NMR
   Boris Wezisla          : Elementary symmetry handling
   Frank Wennmohs         : Technical directorship


 We gratefully acknowledge several colleagues who have allowed us to
 interface, adapt or use parts of their codes:
   Stefan Grimme, W. Hujo, H. Kruse,             : VdW corrections, initial TS optimization,
                  C. Bannwarth                     DFT functionals, gCP, sTDA/sTD-DF
   Ed Valeev                                     : LibInt (2-el integral package), F12 methods
   Garnet Chan, S. Sharma, J. Yang, R. Olivares  : DMRG
   Ulf Ekstrom                                   : XCFun DFT Library
   Mihaly Kallay                                 : mrcc  (arbitrary order and MRCC methods)
   Andreas Klamt, Michael Diedenhofen            : otool_cosmo (COSMO solvation model)
   Jiri Pittner, Ondrej Demel                    : Mk-CCSD
   Frank Weinhold                                : gennbo (NPA and NBO analysis)
   Christopher J. Cramer and Donald G. Truhlar   : smd solvation model
   Lars Goerigk                                  : TD-DFT with DH, B97 family of functionals
   V. Asgeirsson, H. Jonsson                     : NEB implementation
   FAccTs GmbH                                   : IRC, NEB, NEB-TS, Multilevel


 Your calculation uses the libint2 library for the computation of 2-el integrals
 For citations please refer to: http://libint.valeyev.net

 This ORCA versions uses:
   CBLAS   interface :  Fast vector & matrix operations
   LAPACKE interface :  Fast linear algebra routines
   SCALAPACK package :  Parallel linear algebra routines


----- Orbital basis set information -----
Your calculation utilizes the basis: EPR-III
   V. Barone, in Recent Advances in Density Functional Methods, Part 1 (ed. D. P. Chong), World Scientific, Singapore, 1995, p. 287.
   N. Rega, M. Cossi and V. Barone, J. Chem. Phys. 105, 11060 (1996).

================================================================================
                                        WARNINGS
                       Please study these warnings very carefully!
================================================================================


INFO   : the flag for use of LIBINT has been found!

================================================================================
                                       INPUT FILE
================================================================================
NAME = orca.in
|  1> #! UKS B3LYP def2-TZVP def2/JK TightSCF 
|  2> ! UKS B3LYP EPR-III Grid7 GridX9 TightSCF 
|  3> 
|  4> *xyz 0 2
|  5>   C   -0.33397149536848     -0.43136599369745      0.00000000032564
|  6>   H   -0.33326739217975     -1.51071043023817     -0.00000000036557
|  7>   H   -0.33429664635140      0.10833396220140      0.93464173060979
|  8>   H   -0.33429664610037      0.10833396173422     -0.93464173056986
|  9> *
| 10> 
| 11> %eprnmr
| 12>   gtensor 1
| 13>    #ori GIAO
| 14>    #Nuclei = 1, 2, 3, 4 {shift}
| 15>    #Nuclei = 1, 2, 3, 4 {sall, aiso, adip}
| 16>     LocMet PM
| 17>     gtensor 1
| 18>     Nuclei = all H {aiso, adip, rho}
| 19>     Nuclei = all C {aiso, adip, rho}
| 20> end
| 21> 
| 22>                          ****END OF INPUT****
================================================================================

                       ****************************
                       * Single Point Calculation *
                       ****************************

---------------------------------
CARTESIAN COORDINATES (ANGSTROEM)
---------------------------------
  C     -0.333971   -0.431366    0.000000
  H     -0.333267   -1.510710   -0.000000
  H     -0.334297    0.108334    0.934642
  H     -0.334297    0.108334   -0.934642

----------------------------
CARTESIAN COORDINATES (A.U.)
----------------------------
  NO LB      ZA    FRAG     MASS         X           Y           Z
   0 C     6.0000    0    12.011   -0.631115   -0.815164    0.000000
   1 H     1.0000    0     1.008   -0.629784   -2.854829   -0.000000
   2 H     1.0000    0     1.008   -0.631729    0.204722    1.766217
   3 H     1.0000    0     1.008   -0.631729    0.204722   -1.766217

--------------------------------
INTERNAL COORDINATES (ANGSTROEM)
--------------------------------
 C      0   0   0     0.000000000000     0.00000000     0.00000000
 H      1   0   0     1.079344666199     0.00000000     0.00000000
 H      1   2   0     1.079273511261   120.00388025     0.00000000
 H      1   2   3     1.079273511556   120.00388014   179.99669962

---------------------------
INTERNAL COORDINATES (A.U.)
---------------------------
 C      0   0   0     0.000000000000     0.00000000     0.00000000
 H      1   0   0     2.039665823225     0.00000000     0.00000000
 H      1   2   0     2.039531359878   120.00388025     0.00000000
 H      1   2   3     2.039531360437   120.00388014   179.99669962

---------------------
BASIS SET INFORMATION
---------------------
There are 2 groups of distinct atoms

 Group   1 Type C   : 12s8p2d1f contracted to 8s5p2d1f pattern {51111111/41111/11/1}
 Group   2 Type H   : 7s2p contracted to 5s2p pattern {31111/11}

Atom   0C    basis set group =>   1
Atom   1H    basis set group =>   2
Atom   2H    basis set group =>   2
Atom   3H    basis set group =>   2

Checking for AutoStart:
The File: orca.gbw exists
Trying to determine its content:
     ... Fine, the file contains calculation information
     ... Fine, the calculation information was read
     ... Fine, the file contains a basis set
     ... Fine, the basis set was read
     ... Fine, the file contains a geometry
     ... Fine, the geometry was read
     ... Fine, the file contains a set of orbitals
     ... Fine, the orbitals can be read
     => possible old guess file was deleted
     => GBW file was renamed to GES file
     => GES file is set as startup file
     => Guess is set to MORead
     ... now leaving AutoStart

------------------------------------------------------------------------------
                           ORCA GTO INTEGRAL CALCULATION
------------------------------------------------------------------------------

                         BASIS SET STATISTICS AND STARTUP INFO

 # of primitive gaussian shells          ...   50
 # of primitive gaussian functions       ...   92
 # of contracted shells                  ...   37
 # of contracted basis functions         ...   73
 Highest angular momentum                ...    3
 Maximum contraction depth               ...    5
 Integral package used                   ... LIBINT
 Integral threshhold            Thresh   ...  2.500e-11
 Primitive cut-off              TCut     ...  2.500e-12


------------------------------ INTEGRAL EVALUATION ----------------------------


 * One electron integrals 
 Pre-screening matrix                    ... done
 Shell pair data                         ... done (   0.000 sec)

-------------------------------------------------------------------------------
                                 ORCA SCF
-------------------------------------------------------------------------------

------------
SCF SETTINGS
------------
Hamiltonian:
 Density Functional     Method          .... DFT(GTOs)
 Exchange Functional    Exchange        .... B88
   X-Alpha parameter    XAlpha          ....  0.666667
   Becke's b parameter  XBeta           ....  0.004200
 Correlation Functional Correlation     .... LYP
 LDA part of GGA corr.  LDAOpt          .... VWN-5
 Gradients option       PostSCFGGA      .... off
 Hybrid DFT is turned on
   Fraction HF Exchange ScalHFX         ....  0.200000
   Scaling of DF-GGA-X  ScalDFX         ....  0.720000
   Scaling of DF-GGA-C  ScalDFC         ....  0.810000
   Scaling of DF-LDA-C  ScalLDAC        ....  1.000000
   Perturbative correction              ....  0.000000
   Density functional embedding theory  .... OFF
   NL short-range parameter             ....  4.800000


General Settings:
 Integral files         IntName         .... orca
 Hartree-Fock type      HFTyp           .... UHF
 Total Charge           Charge          ....    0
 Multiplicity           Mult            ....    2
 Number of Electrons    NEL             ....    9
 Basis Dimension        Dim             ....   73
 Nuclear Repulsion      ENuc            ....      9.6745838726 Eh

Convergence Acceleration:
 DIIS                   CNVDIIS         .... on
   Start iteration      DIISMaxIt       ....    12
   Startup error        DIISStart       ....  0.200000
   # of expansion vecs  DIISMaxEq       ....     5
   Bias factor          DIISBfac        ....   1.050
   Max. coefficient     DIISMaxC        ....  10.000
 Newton-Raphson         CNVNR           .... off
 SOSCF                  CNVSOSCF        .... off
 Level Shifting         CNVShift        .... on
   Level shift para.    LevelShift      ....    0.2500
   Turn off err/grad.   ShiftErr        ....    0.0010
 Zerner damping         CNVZerner       .... off
 Static damping         CNVDamp         .... on
   Fraction old density DampFac         ....    0.7000
   Max. Damping (<1)    DampMax         ....    0.9800
   Min. Damping (>=0)   DampMin         ....    0.0000
   Turn off err/grad.   DampErr         ....    0.1000
 Fernandez-Rico         CNVRico         .... off

SCF Procedure:
 Maximum # iterations   MaxIter         ....   125
 SCF integral mode      SCFMode         .... Direct
   Integral package                     .... LIBINT
 Reset frequency        DirectResetFreq ....    20
 Integral Threshold     Thresh          ....  2.500e-11 Eh
 Primitive CutOff       TCut            ....  2.500e-12 Eh

Convergence Tolerance:
 Convergence Check Mode ConvCheckMode   .... Total+1el-Energy
 Convergence forced     ConvForced      .... 0
 Energy Change          TolE            ....  1.000e-08 Eh
 1-El. energy change                    ....  1.000e-05 Eh
 DIIS Error             TolErr          ....  5.000e-07


Diagonalization of the overlap matrix:
Smallest eigenvalue                        ... 1.600e-03
Time for diagonalization                   ...    0.002 sec
Threshold for overlap eigenvalues          ... 1.000e-08
Number of eigenvalues below threshold      ... 0
Time for construction of square roots      ...    0.001 sec
Total time needed                          ...    0.003 sec

---------------------
INITIAL GUESS: MOREAD
---------------------
Guess MOs are being read from file: orca.ges
Input Geometry matches current geometry (good)
Input basis set matches current basis set (good)
MOs were renormalized
MOs were reorthogonalized (Cholesky)
                      ------------------
                      INITIAL GUESS DONE (   0.0 sec)
                      ------------------
-------------------
DFT GRID GENERATION
-------------------

General Integration Accuracy     IntAcc      ...  5.670
Radial Grid Type                 RadialGrid  ... Gauss-Chebyshev
Angular Grid (max. acc.)         AngularGrid ... Lebedev-770
Angular grid pruning method      GridPruning ... 3 (G Style)
Weight generation scheme         WeightScheme... Becke
Basis function cutoff            BFCut       ...    1.0000e-11
Integration weight cutoff        WCut        ...    1.0000e-14
Grids for H and He will be reduced by one unit

# of grid points (after initial pruning)     ...  78542 (   0.0 sec)
# of grid points (after weights+screening)   ...  77009 (   0.0 sec)
nearest neighbour list constructed           ...    0.0 sec
Grid point re-assignment to atoms done       ...    0.0 sec
Grid point division into batches done        ...    1.6 sec
Reduced shell lists constructed in    1.8 sec

Total number of grid points                  ...    77009
Total number of batches                      ...     1206
Average number of points per batch           ...       63
Average number of grid points per atom       ...    19252
Average number of shells per batch           ...    26.51 (71.65%)
Average number of basis functions per batch  ...    56.31 (77.14%)
Average number of large shells per batch     ...    23.85 (89.98%)
Average number of large basis fcns per batch ...    50.97 (90.50%)
Maximum spatial batch extension              ...  20.36, 17.94, 15.99 au
Average spatial batch extension              ...   2.21,  2.10,  2.03 au

Time for grid setup =    1.900 sec

--------------
SCF ITERATIONS
--------------
ITER       Energy         Delta-E        Max-DP      RMS-DP      [F,P]     Damp
               ***  Starting incremental Fock matrix formation  ***
  0    -39.8289367542   0.000000000000 0.00169134  0.00003195  0.0017783 0.7000
  1    -39.8289429737  -0.000006219532 0.00154289  0.00002805  0.0013205 0.7000
                               ***Turning on DIIS***
  2    -39.8289477780  -0.000004804330 0.00406608  0.00007205  0.0009298 0.0000
  3    -39.8289598521  -0.000012074034 0.00031247  0.00000566  0.0001697 0.0000
  4    -39.8289599356  -0.000000083494 0.00005271  0.00000137  0.0001487 0.0000
  5    -39.8289599692  -0.000000033597 0.00001101  0.00000034  0.0000314 0.0000
                 **** Energy Check signals convergence ****

               *****************************************************
               *                     SUCCESS                       *
               *           SCF CONVERGED AFTER   6 CYCLES          *
               *****************************************************


----------------
TOTAL SCF ENERGY
----------------

Total Energy       :          -39.82895997 Eh           -1083.80110 eV

Components:
Nuclear Repulsion  :            9.67458387 Eh             263.25881 eV
Electronic Energy  :          -49.50354384 Eh           -1347.05991 eV
One Electron Energy:          -71.65579777 Eh           -1949.85339 eV
Two Electron Energy:           22.15225392 Eh             602.79347 eV

Virial components:
Potential Energy   :          -79.45412644 Eh           -2162.05670 eV
Kinetic Energy     :           39.62516647 Eh            1078.25560 eV
Virial Ratio       :            2.00514303


DFT components:
N(Alpha)           :        5.000000041849 electrons
N(Beta)            :        4.000000040677 electrons
N(Total)           :        9.000000082527 electrons
E(X)               :       -4.913356152823 Eh       
E(C)               :       -0.309705446118 Eh       
E(XC)              :       -5.223061598941 Eh       
DFET-embed. en.    :        0.000000000000 Eh       

---------------
SCF CONVERGENCE
---------------

  Last Energy change         ...   -1.7559e-09  Tolerance :   1.0000e-08
  Last MAX-Density change    ...    2.7495e-06  Tolerance :   1.0000e-07
  Last RMS-Density change    ...    7.2394e-08  Tolerance :   5.0000e-09
  Last DIIS Error            ...    2.7981e-06  Tolerance :   5.0000e-07

             **** THE GBW FILE WAS UPDATED (orca.gbw) ****
             **** DENSITY FILE WAS UPDATED (orca.scfp.tmp) ****
             **** ENERGY FILE WAS UPDATED (orca.en.tmp) ****
----------------------
UHF SPIN CONTAMINATION
----------------------

Warning: in a DFT calculation there is little theoretical justification to 
         calculate <S**2> as in Hartree-Fock theory. We will do it anyways
         but you should keep in mind that the values have only limited relevance

Expectation value of <S**2>     :     0.753621
Ideal value S*(S+1) for S=0.5   :     0.750000
Deviation                       :     0.003621

----------------
ORBITAL ENERGIES
----------------
                 SPIN UP ORBITALS
  NO   OCC          E(Eh)            E(eV) 
   0   1.0000     -10.183986      -277.1203 
   1   1.0000      -0.687603       -18.7106 
   2   1.0000      -0.423137       -11.5141 
   3   1.0000      -0.423126       -11.5138 
   4   1.0000      -0.234652        -6.3852 
   5   0.0000       0.001167         0.0318 
   6   0.0000       0.036783         1.0009 
   7   0.0000       0.036785         1.0010 
   8   0.0000       0.047555         1.2940 
   9   0.0000       0.091773         2.4973 
  10   0.0000       0.092646         2.5210 
  11   0.0000       0.092648         2.5211 
  12   0.0000       0.223298         6.0763 
  13   0.0000       0.223305         6.0764 
  14   0.0000       0.247931         6.7465 
  15   0.0000       0.276271         7.5177 
  16   0.0000       0.307897         8.3783 
  17   0.0000       0.307898         8.3783 
  18   0.0000       0.341254         9.2860 
  19   0.0000       0.559079        15.2133 
  20   0.0000       0.559101        15.2139 
  21   0.0000       0.744675        20.2636 
  22   0.0000       0.744689        20.2640 
  23   0.0000       0.764995        20.8166 
  24   0.0000       0.841422        22.8963 
  25   0.0000       0.888450        24.1760 
  26   0.0000       0.888482        24.1768 
  27   0.0000       0.943679        25.6788 
  28   0.0000       0.963804        26.2264 
  29   0.0000       1.063853        28.9489 
  30   0.0000       1.086765        29.5724 
  31   0.0000       1.086803        29.5734 
  32   0.0000       1.165413        31.7125 
  33   0.0000       1.165414        31.7125 
  34   0.0000       1.472585        40.0711 
  35   0.0000       1.493667        40.6447 
  36   0.0000       1.493706        40.6458 
  37   0.0000       1.707890        46.4741 
  38   0.0000       1.736879        47.2629 
  39   0.0000       1.736906        47.2636 
  40   0.0000       2.720170        74.0196 
  41   0.0000       2.720172        74.0196 
  42   0.0000       2.896242        78.8108 
  43   0.0000       2.905017        79.0495 
  44   0.0000       2.937334        79.9289 
  45   0.0000       2.937348        79.9293 
  46   0.0000       2.988075        81.3097 
  47   0.0000       3.169957        86.2589 
  48   0.0000       3.169985        86.2597 
  49   0.0000       3.247441        88.3674 
  50   0.0000       3.247447        88.3675 
  51   0.0000       3.712930       101.0340 
  52   0.0000       3.818968       103.9194 
  53   0.0000       3.818979       103.9197 
  54   0.0000       3.862291       105.0983 
  55   0.0000       4.016945       109.3066 
  56   0.0000       4.017102       109.3109 
  57   0.0000       4.139398       112.6387 
  58   0.0000       4.142690       112.7283 
  59   0.0000       4.142691       112.7284 
  60   0.0000       4.698868       127.8627 
  61   0.0000       4.987020       135.7037 
  62   0.0000       5.380312       146.4057 
  63   0.0000       5.380478       146.4103 
  64   0.0000       5.531832       150.5288 
  65   0.0000       6.130795       166.8274 
  66   0.0000       6.130841       166.8287 
  67   0.0000       7.755802       211.0461 
  68   0.0000      29.081888       791.3584 
  69   0.0000      37.132553      1010.4281 
  70   0.0000      37.217557      1012.7412 
  71   0.0000      37.217571      1012.7416 
  72   0.0000     133.541185      3633.8404 

                 SPIN DOWN ORBITALS
  NO   OCC          E(Eh)            E(eV) 
   0   1.0000     -10.169551      -276.7275 
   1   1.0000      -0.648113       -17.6360 
   2   1.0000      -0.413671       -11.2566 
   3   1.0000      -0.413659       -11.2562 
   4   0.0000      -0.077268        -2.1026 
   5   0.0000       0.004293         0.1168 
   6   0.0000       0.036406         0.9907 
   7   0.0000       0.036408         0.9907 
   8   0.0000       0.060840         1.6556 
   9   0.0000       0.092733         2.5234 
  10   0.0000       0.092734         2.5234 
  11   0.0000       0.098258         2.6737 
  12   0.0000       0.224397         6.1062 
  13   0.0000       0.224405         6.1064 
  14   0.0000       0.268265         7.2998 
  15   0.0000       0.310698         8.4545 
  16   0.0000       0.312638         8.5073 
  17   0.0000       0.312639         8.5073 
  18   0.0000       0.355508         9.6739 
  19   0.0000       0.586200        15.9513 
  20   0.0000       0.586224        15.9520 
  21   0.0000       0.745525        20.2868 
  22   0.0000       0.745539        20.2872 
  23   0.0000       0.793232        21.5849 
  24   0.0000       0.839217        22.8363 
  25   0.0000       0.892683        24.2911 
  26   0.0000       0.892715        24.2920 
  27   0.0000       0.961904        26.1747 
  28   0.0000       0.983679        26.7673 
  29   0.0000       1.108341        30.1595 
  30   0.0000       1.108380        30.1606 
  31   0.0000       1.123597        30.5746 
  32   0.0000       1.177813        32.0499 
  33   0.0000       1.177816        32.0500 
  34   0.0000       1.498538        40.7773 
  35   0.0000       1.498576        40.7783 
  36   0.0000       1.500621        40.8340 
  37   0.0000       1.710121        46.5348 
  38   0.0000       1.746098        47.5137 
  39   0.0000       1.746125        47.5145 
  40   0.0000       2.760849        75.1265 
  41   0.0000       2.760850        75.1265 
  42   0.0000       2.904648        79.0395 
  43   0.0000       2.943291        80.0910 
  44   0.0000       2.943306        80.0914 
  45   0.0000       2.974263        80.9338 
  46   0.0000       3.041778        82.7710 
  47   0.0000       3.220784        87.6420 
  48   0.0000       3.220809        87.6427 
  49   0.0000       3.305816        89.9558 
  50   0.0000       3.305822        89.9560 
  51   0.0000       3.773675       102.6869 
  52   0.0000       3.817275       103.8733 
  53   0.0000       3.817283       103.8736 
  54   0.0000       3.865131       105.1756 
  55   0.0000       4.031586       109.7050 
  56   0.0000       4.031747       109.7094 
  57   0.0000       4.146187       112.8235 
  58   0.0000       4.146191       112.8236 
  59   0.0000       4.165972       113.3619 
  60   0.0000       4.698913       127.8639 
  61   0.0000       5.010627       136.3461 
  62   0.0000       5.378902       146.3674 
  63   0.0000       5.379069       146.3719 
  64   0.0000       5.528626       150.4416 
  65   0.0000       6.133709       166.9067 
  66   0.0000       6.133759       166.9081 
  67   0.0000       7.791215       212.0097 
  68   0.0000      29.108765       792.0898 
  69   0.0000      37.120895      1010.1109 
  70   0.0000      37.205693      1012.4184 
  71   0.0000      37.205709      1012.4188 
  72   0.0000     133.549048      3634.0543 

                    ********************************
                    * MULLIKEN POPULATION ANALYSIS *
                    ********************************

--------------------------------------------
MULLIKEN ATOMIC CHARGES AND SPIN POPULATIONS
--------------------------------------------
   0 C :   -0.426439    1.102981
   1 H :    0.142146   -0.034328
   2 H :    0.142147   -0.034327
   3 H :    0.142147   -0.034326
Sum of atomic charges         :   -0.0000000
Sum of atomic spin populations:    1.0000000

-----------------------------------------------------
MULLIKEN REDUCED ORBITAL CHARGES AND SPIN POPULATIONS
-----------------------------------------------------
CHARGE
  0 C s       :     3.332651  s :     3.332651
      pz      :     1.049709  p :     3.067407
      px      :     0.968012
      py      :     1.049686
      dz2     :     0.008021  d :     0.023347
      dxz     :     0.000000
      dyz     :     0.008747
      dx2y2   :     0.006579
      dxy     :     0.000000
      f0      :     0.000265  f :     0.003034
      f+1     :     0.000003
      f-1     :     0.001556
      f+2     :     0.000442
      f-2     :     0.000000
      f+3     :     0.000005
      f-3     :     0.000763
  1 H s       :     0.831244  s :     0.831244
      pz      :     0.006210  p :     0.026610
      px      :     0.010659
      py      :     0.009741
  2 H s       :     0.831241  s :     0.831241
      pz      :     0.008858  p :     0.026612
      px      :     0.010660
      py      :     0.007094
  3 H s       :     0.831241  s :     0.831241
      pz      :     0.008858  p :     0.026612
      px      :     0.010660
      py      :     0.007094

SPIN
  0 C s       :     0.066960  s :     0.066960
      pz      :     0.036184  p :     1.040381
      px      :     0.968011
      py      :     0.036186
      dz2     :    -0.000526  d :    -0.002997
      dxz     :     0.000000
      dyz     :     0.000891
      dx2y2   :    -0.003362
      dxy     :    -0.000000
      f0      :    -0.000244  f :    -0.001362
      f+1     :     0.000003
      f-1     :    -0.000104
      f+2     :    -0.000407
      f-2     :    -0.000000
      f+3     :     0.000005
      f-3     :    -0.000615
  1 H s       :    -0.044588  s :    -0.044588
      pz      :    -0.000303  p :     0.010260
      px      :     0.010659
      py      :    -0.000096
  2 H s       :    -0.044587  s :    -0.044587
      pz      :    -0.000148  p :     0.010260
      px      :     0.010660
      py      :    -0.000252
  3 H s       :    -0.044586  s :    -0.044586
      pz      :    -0.000148  p :     0.010260
      px      :     0.010660
      py      :    -0.000252


                     *******************************
                     * LOEWDIN POPULATION ANALYSIS *
                     *******************************

-------------------------------------------
LOEWDIN ATOMIC CHARGES AND SPIN POPULATIONS
-------------------------------------------
   0 C :   -0.149031    0.907108
   1 H :    0.049700    0.030956
   2 H :    0.049666    0.030968
   3 H :    0.049666    0.030968

----------------------------------------------------
LOEWDIN REDUCED ORBITAL CHARGES AND SPIN POPULATIONS
----------------------------------------------------
CHARGE
  0 C s       :     2.880813  s :     2.880813
      pz      :     1.148708  p :     3.169050
      px      :     0.871662
      py      :     1.148680
      dz2     :     0.033450  d :     0.091635
      dxz     :     0.000000
      dyz     :     0.042191
      dx2y2   :     0.015994
      dxy     :     0.000000
      f0      :     0.000759  f :     0.007533
      f+1     :     0.000072
      f-1     :     0.003208
      f+2     :     0.001267
      f-2     :     0.000000
      f+3     :     0.000120
      f-3     :     0.002106
  1 H s       :     0.805101  s :     0.805101
      pz      :     0.031532  p :     0.145199
      px      :     0.042710
      py      :     0.070958
  2 H s       :     0.805112  s :     0.805112
      pz      :     0.061107  p :     0.145223
      px      :     0.042718
      py      :     0.041398
  3 H s       :     0.805112  s :     0.805112
      pz      :     0.061107  p :     0.145223
      px      :     0.042718
      py      :     0.041398

SPIN
  0 C s       :     0.019094  s :     0.019094
      pz      :     0.012571  p :     0.896804
      px      :     0.871662
      py      :     0.012571
      dz2     :    -0.002280  d :    -0.007463
      dxz     :    -0.000000
      dyz     :    -0.001660
      dx2y2   :    -0.003523
      dxy     :    -0.000000
      f0      :    -0.000225  f :    -0.001328
      f+1     :     0.000072
      f-1     :    -0.000339
      f+2     :    -0.000375
      f-2     :    -0.000000
      f+3     :     0.000120
      f-3     :    -0.000582
  1 H s       :    -0.016879  s :    -0.016879
      pz      :     0.000515  p :     0.047836
      px      :     0.042710
      py      :     0.004611
  2 H s       :    -0.016876  s :    -0.016876
      pz      :     0.003587  p :     0.047844
      px      :     0.042718
      py      :     0.001540
  3 H s       :    -0.016876  s :    -0.016876
      pz      :     0.003587  p :     0.047844
      px      :     0.042718
      py      :     0.001540


                      *****************************
                      * MAYER POPULATION ANALYSIS *
                      *****************************

  NA   - Mulliken gross atomic population
  ZA   - Total nuclear charge
  QA   - Mulliken gross atomic charge
  VA   - Mayer's total valence
  BVA  - Mayer's bonded valence
  FA   - Mayer's free valence

  ATOM       NA         ZA         QA         VA         BVA        FA
  0 C      6.4264     6.0000    -0.4264     3.8776     2.9326     0.9451
  1 H      0.8579     1.0000     0.1421     0.9837     0.9817     0.0020
  2 H      0.8579     1.0000     0.1421     0.9837     0.9817     0.0020
  3 H      0.8579     1.0000     0.1421     0.9837     0.9817     0.0020

  Mayer bond orders larger than 0.1
B(  0-C ,  1-H ) :   0.9775 B(  0-C ,  2-H ) :   0.9775 B(  0-C ,  3-H ) :   0.9775 


-------
TIMINGS
-------

Total SCF time: 0 days 0 hours 0 min 9 sec 

Total time                  ....       9.409 sec
Sum of individual times     ....       9.126 sec  ( 97.0%)

Fock matrix formation       ....       7.204 sec  ( 76.6%)
  XC integration            ....       4.719 sec  ( 65.5% of F)
    Basis function eval.    ....       1.197 sec  ( 25.4% of XC)
    Density eval.           ....       1.048 sec  ( 22.2% of XC)
    XC-Functional eval.     ....       0.944 sec  ( 20.0% of XC)
    XC-Potential eval.      ....       1.378 sec  ( 29.2% of XC)
Diagonalization             ....       0.013 sec  (  0.1%)
Density matrix formation    ....       0.001 sec  (  0.0%)
Population analysis         ....       0.005 sec  (  0.0%)
Initial guess               ....       0.002 sec  (  0.0%)
Orbital Transformation      ....       0.000 sec  (  0.0%)
Orbital Orthonormalization  ....       0.001 sec  (  0.0%)
DIIS solution               ....       0.003 sec  (  0.0%)
Grid generation             ....       1.900 sec  ( 20.2%)

-------------------------   --------------------
FINAL SINGLE POINT ENERGY       -39.828959970921
-------------------------   --------------------

   --->>> g-tensor requested, so NeedSOC=true

                            ***************************************
                            *     ORCA property calculations      *
                            ***************************************

                                    ---------------------
                                    Active property flags
                                    ---------------------
   (+) Dipole Moment
   (+) g-tensor
   (+) Nuclear properties (Hyperfine,Quadrupole)
   (+) Spin-Orbit Integrals are needed


------------------------------------------------------------------------------
                       ORCA ELECTRIC PROPERTIES CALCULATION
------------------------------------------------------------------------------

Dipole Moment Calculation                       ... on
Quadrupole Moment Calculation                   ... off
Polarizability Calculation                      ... off
GBWName                                         ... orca.gbw
Electron density file                           ... orca.scfp.tmp
The origin for moment calculation is the CENTER OF MASS  = (-0.631108, -0.815157  0.000000)

-------------
DIPOLE MOMENT
-------------
                                X             Y             Z
Electronic contribution:     -0.00003      -0.00001       0.00000
Nuclear contribution   :      0.00004       0.00004      -0.00000
                        -----------------------------------------
Total Dipole Moment    :      0.00002       0.00003       0.00000
                        -----------------------------------------
Magnitude (a.u.)       :      0.00003
Magnitude (Debye)      :      0.00008



--------------------
Rotational spectrum 
--------------------
 
Rotational constants in cm-1:     9.572294     9.569956     4.785562 
Rotational constants in MHz : 286970.160304 286900.061612 143467.553402 

 Dipole components along the rotational axes: 
x,y,z [a.u.] :     0.000028     0.000000    -0.000015 
x,y,z [Debye]:     0.000072     0.000000    -0.000039 

 
------------------------------------------------------------------------------
                         ORCA SPIN-ORBIT COUPLING CALCULATION
------------------------------------------------------------------------------

GBW file                                    ... orca.gbw
Input density                               ... orca.scfp.tmp
Output integrals                            ... orca
Operator type                               ... Mean-field/Effective potential
   One-Electron Terms                       ... 1
   Coulomb Contribution                     ... 2
   Exchange Contribution                    ... 3
   Correlation Contribution                 ... 0
   Maximum number of centers                ... 4
Setting up the integration grid             ... done
Evaluating density on the grid              ... (NumEl=    9.000000) done
Evaluating Coulomb term semi-analytically   ... done
One-Center Exchange (+SOO)                  ... done
Evaluating the spin-orbit operator          ... done
Total time for SOC: 10.367
------------------------------------------------------------------------------
                                ORCA EPR/NMR CALCULATION
------------------------------------------------------------------------------

GBWName                      ... orca.gbw
Electron density file        ... orca.scfp.tmp
Spin density file            ... orca.scfr.tmp
Spin-orbit integrals         ... orca
Origin for angular momentum  ... Center of electronic charge
Coordinates of the origin    ...   -0.63110505   -0.81515510   -0.00000000 (bohrs)
Details of the CP(SCF) procedure:
       Solver   = POPLE   
       MaxIter  =    64   
       Tolerance=    1.000e-06
       Op-0     =   0-  4 =>   5- 72
       Op-1     =   0-  3 =>   4- 72
Multiplicity                 ... 2
g-tensor                     ... 1
NMR chemical shifts          ... 0
Number of nuclei for epr/nmr ... 4
   Nucleus:   1H 
       Hyperfine : Isotope=    1 I=   0.500 P= 533.551
       Quadrupole: Isotope=    2 I=   1.000 Q=   0.003
       Spin-Orbit: Zeff=   1.000
       Ncuelar Spin-Spin: Gn=   0.000
       rho(0)=Y f(grad)=N a(iso)=Y a(dip)=Y a(orb)=N sigma(nmr)=N spin-spin(nmr)=all-N,DSO-N,PSO-N,FC-N,SD-N
   Nucleus:   2H 
       Hyperfine : Isotope=    1 I=   0.500 P= 533.551
       Quadrupole: Isotope=    2 I=   1.000 Q=   0.003
       Spin-Orbit: Zeff=   1.000
       Ncuelar Spin-Spin: Gn=   0.000
       rho(0)=Y f(grad)=N a(iso)=Y a(dip)=Y a(orb)=N sigma(nmr)=N spin-spin(nmr)=all-N,DSO-N,PSO-N,FC-N,SD-N
   Nucleus:   3H 
       Hyperfine : Isotope=    1 I=   0.500 P= 533.551
       Quadrupole: Isotope=    2 I=   1.000 Q=   0.003
       Spin-Orbit: Zeff=   1.000
       Ncuelar Spin-Spin: Gn=   0.000
       rho(0)=Y f(grad)=N a(iso)=Y a(dip)=Y a(orb)=N sigma(nmr)=N spin-spin(nmr)=all-N,DSO-N,PSO-N,FC-N,SD-N
   Nucleus:   0C 
       Hyperfine : Isotope=   13 I=   0.500 P= 134.190
       Quadrupole: Isotope=   13 I=   0.500 Q=   0.000
       Spin-Orbit: Zeff=   3.600
       Ncuelar Spin-Spin: Gn=   0.000
       rho(0)=Y f(grad)=N a(iso)=Y a(dip)=Y a(orb)=N sigma(nmr)=N spin-spin(nmr)=all-N,DSO-N,PSO-N,FC-N,SD-N
Forming RHS of the CP-SCF equations         ... 
Using LibInt in CPSCF-CP

Calculating angular momentum integrals               ... done

------------------------------------------------------------------------------
                           ORCA CP-SCF CALCULATION
------------------------------------------------------------------------------

Input orbitals are from        ... orca.gbw
Input Perturbation             ... orca.pin.tmp
Wavefunction output            ... orca.pout.tmp
Perturbation mode              ... Imaginary perturbation
Solver                         ... POPLE
Max. number of iterations      ... 64
Convergence tolerance          ... 1.000e-06
Integral handling              ... Direct
Number of perturbations        ... 3
Number of operators            ... 2
Orbital ranges used for CP-SCF:
 Operator 0:  Orbitals   0...  4  to   5... 72
 Operator 1:  Orbitals   0...  3  to   4... 72
DFT calculation                         ... on
Variables per vector in CP-SCF ... 616
Number of vectors sought       ... 3
     CP-SCF ITERATION   0: 
     CP-SCF ITERATION   1:      0.000008868856
     CP-SCF ITERATION   2:      0.000000510084

Forming final perturbed densities           ... done
Transforming perturbed density to AO basis  ... done

Magnetic field perturbation calculated in  1.690 sec

-------------------
ELECTRONIC G-MATRIX
-------------------

 The g-matrix: 
              2.0022269   -0.0000004   -0.0000000
             -0.0000004    2.0029021   -0.0000000
             -0.0000000   -0.0000000    2.0029021

 gel          2.0023193    2.0023193    2.0023193
 gRMC        -0.0001268   -0.0001268   -0.0001268
 gDSO(tot)    0.0000285    0.0000681    0.0000681
 gPSO(tot)    0.0000058    0.0006415    0.0006415
             ----------   ----------   ----------
 g(tot)       2.0022269    2.0029021    2.0029021 iso=  2.0026770
 Delta-g     -0.0000924    0.0005828    0.0005828 iso=  0.0003577
 Orientation: 
  X           0.9999998    0.0000000   -0.0006254
  Y           0.0006254   -0.0000478    0.9999998
  Z           0.0000000   -1.0000000   -0.0000478

Notes:  (1) The g-matrix conforms to the "BgS" spin Hamiltonian convention. 
        (2) The principal values are square roots of the eigenvalues of g*gT.
        (3) Orientations are eigenvectors of g*gT written as column vectors.
        (4) Individual contributions are projections of the full matrices onto the eigenvectors of g*gT.
        (5) Tensor is right-handed.


-----------------------------------------
ELECTRIC AND MAGNETIC HYPERFINE STRUCTURE
-----------------------------------------

 -----------------------------------------------------------
 Nucleus   1H : A:ISTP=    1 I=  0.5 P=533.5514 MHz/au**3
                Q:ISTP=    2 I=  1.0 Q=  0.0029 barn     
 -----------------------------------------------------------
 Raw HFC matrix (all values in MHz): 
 ------------------------------
               -63.8685              -0.0245               0.0000
                -0.0245             -26.5445               0.0000
                 0.0000               0.0000            -104.9893

 A(FC)         -65.1341             -65.1341             -65.1341
 A(SD)          38.5896               1.2656             -39.8552
             ----------           ----------           ----------
 A(Tot)        -26.5445             -63.8685            -104.9893    A(iso)=  -65.1341
 Orientation: 
  X           0.0006551            0.9999998           -0.0000000
  Y          -0.9999998            0.0006551           -0.0000000
  Z          -0.0000000            0.0000000            1.0000000

Notes:  (1) The A matrix conforms to the "SAI" spin Hamiltonian convention.
        (2) Tensor is right-handed.

 RHO(0)=      0.483086009 a.u.**-3

 -----------------------------------------------------------
 Nucleus   2H : A:ISTP=    1 I=  0.5 P=533.5514 MHz/au**3
                Q:ISTP=    2 I=  1.0 Q=  0.0029 barn     
 -----------------------------------------------------------
 Raw HFC matrix (all values in MHz): 
 ------------------------------
               -63.8588               0.0140              -0.0210
                 0.0140             -85.3703              33.9739
                -0.0210              33.9739             -46.1533

 A(FC)         -65.1274             -65.1274             -65.1274
 A(SD)          38.5922               1.2687             -39.8609
             ----------           ----------           ----------
 A(Tot)        -26.5353             -63.8588            -104.9883    A(iso)=  -65.1274
 Orientation: 
  X          -0.0002983           -0.9999998            0.0005505
  Y           0.5000602           -0.0006259           -0.8659904
  Z           0.8659906            0.0000170            0.5000603

Notes:  (1) The A matrix conforms to the "SAI" spin Hamiltonian convention.
        (2) Tensor is right-handed.

 RHO(0)=      0.483135563 a.u.**-3

 -----------------------------------------------------------
 Nucleus   3H : A:ISTP=    1 I=  0.5 P=533.5514 MHz/au**3
                Q:ISTP=    2 I=  1.0 Q=  0.0029 barn     
 -----------------------------------------------------------
 Raw HFC matrix (all values in MHz): 
 ------------------------------
               -63.8588               0.0140               0.0210
                 0.0140             -85.3703             -33.9739
                 0.0210             -33.9739             -46.1533

 A(FC)         -65.1274             -65.1274             -65.1274
 A(SD)          38.5922               1.2687             -39.8609
             ----------           ----------           ----------
 A(Tot)        -26.5353             -63.8587            -104.9883    A(iso)=  -65.1274
 Orientation: 
  X           0.0002983           -0.9999998            0.0005505
  Y          -0.5000602           -0.0006259           -0.8659904
  Z           0.8659906           -0.0000170           -0.5000603

Notes:  (1) The A matrix conforms to the "SAI" spin Hamiltonian convention.
        (2) Tensor is right-handed.

 RHO(0)=      0.483135565 a.u.**-3

 -----------------------------------------------------------
 Nucleus   0C : A:ISTP=   13 I=  0.5 P=134.1903 MHz/au**3
                Q:ISTP=   13 I=  0.5 Q=  0.0000 barn     
 -----------------------------------------------------------
 Raw HFC matrix (all values in MHz): 
 ------------------------------
               241.6843               0.1532               0.0000
                 0.1532               0.6053              -0.0000
                 0.0000              -0.0000               0.6058

 A(FC)          80.9651              80.9651              80.9651
 A(SD)         -80.3599             -80.3594             160.7193
             ----------           ----------           ----------
 A(Tot)          0.6052               0.6058             241.6844    A(iso)=   80.9651
 Orientation: 
  X          -0.0006357            0.0000000            0.9999998
  Y           0.9999998           -0.0000711            0.0006357
  Z           0.0000711            1.0000000            0.0000000

Notes:  (1) The A matrix conforms to the "SAI" spin Hamiltonian convention.
        (2) Tensor is right-handed.

 RHO(0)=    123.289310785 a.u.**-3


------------------------------------------------------------------------------- 
----------------------------------------------------------------------------
                           ORCA EULER ANGLE PROGRAM
----------------------------------------------------------------------------

Only g-tensor available        -->  using g-tensor as reference tensor

Reference tensor               ...  g

g-tensor ordering              ...  |g_min> --> |gx>
                                    |g_mid> --> |gy>
                                    |g_max> --> |gz>

A- and EFG-tensor ordering     ...  the axes |Ax>, |Qx>, |Ay>, etc. are assigned
                                    such that the Euler rotation is minimal. You
                                    can find the respective eigenvalues as Ax,
                                    EFGx, Ay, etc. in the tables below.
                                    The relation of |Ax>, |Ay>,  etc. to Amin, Amid, etc.
                                    (as printed in the ORCA EPR/NMR CALCULATION Output)
                                    is obtained in the detailed printout.

Euler rotation around          ...  z - y - z
   First rotation              -->  by alpha around z
   Second rotation             -->  by beta around y'
   Third rotation              -->  by gamma around z''
   Positive / Negative angle   -->  clockwise / counterclockwise rotation

Plot EFG-tensors                    (-)
Plot HFC-tensors                    (-)
Detailed Printout                   (-)

-------------------------------------------------------------------------
          Euler rotation of hyperfine tensor to g-tensor
-------------------------------------------------------------------------

-------------------------------------------------------------------
 Atom  |   Alpha    Beta    Gamma   |   Ax       Ay       Az 
       |          [degrees]         |           [MHz]         
-------------------------------------------------------------------
  1H       -0.0      0.0      0.0     -63.87  -104.99   -26.54
  2H      -90.0     30.0     90.0     -63.86   -26.54  -104.99
  3H       90.0     30.0    -90.0     -63.86   -26.54  -104.99
  0C       -0.0      0.0      0.0     241.68     0.61     0.61
-------------------------------------------------------------------


Timings for individual modules:

Sum of individual times         ...       22.191 sec (=   0.370 min)
GTO integral calculation        ...        0.398 sec (=   0.007 min)   1.8 %
Spin-Orbit-Coupling Matrices    ...       10.367 sec (=   0.173 min)  46.7 %
SCF iterations                  ...        9.451 sec (=   0.158 min)  42.6 %
EPR/NMR calculation             ...        1.975 sec (=   0.033 min)   8.9 %
                             ****ORCA TERMINATED NORMALLY****
TOTAL RUN TIME: 0 days 0 hours 0 minutes 22 seconds 364 msec
