 Entering Gaussian System, Link 0=g09
 Initial command:
 /home/ik1r11/g09-64-D01/l1.exe "/home/ik1r11/steven/l2_parker_funk/linda_dsymm_runs/l2_yb/l2_yb_methanol/Gau-23787.inp" -scrdir="/home/ik1r11/steven/l2_parker_funk/linda_dsymm_runs/l2_yb/l2_yb_methanol/"
 Entering Link 1 = /home/ik1r11/g09-64-D01/l1.exe PID=     23788.
  
 Copyright (c) 1988,1990,1992,1993,1995,1998,2003,2009,2013,
            Gaussian, Inc.  All Rights Reserved.
  
 This is part of the Gaussian(R) 09 program.  It is based on
 the Gaussian(R) 03 system (copyright 2003, Gaussian, Inc.),
 the Gaussian(R) 98 system (copyright 1998, Gaussian, Inc.),
 the Gaussian(R) 94 system (copyright 1995, Gaussian, Inc.),
 the Gaussian 92(TM) system (copyright 1992, Gaussian, Inc.),
 the Gaussian 90(TM) system (copyright 1990, Gaussian, Inc.),
 the Gaussian 88(TM) system (copyright 1988, Gaussian, Inc.),
 the Gaussian 86(TM) system (copyright 1986, Carnegie Mellon
 University), and the Gaussian 82(TM) system (copyright 1983,
 Carnegie Mellon University). Gaussian is a federally registered
 trademark of Gaussian, Inc.
  
 This software contains proprietary and confidential information,
 including trade secrets, belonging to Gaussian, Inc.
  
 This software is provided under written license and may be
 used, copied, transmitted, or stored only in accord with that
 written license.
  
 The following legend is applicable only to US Government
 contracts under FAR:
  
                    RESTRICTED RIGHTS LEGEND
  
 Use, reproduction and disclosure by the US Government is
 subject to restrictions as set forth in subparagraphs (a)
 and (c) of the Commercial Computer Software - Restricted
 Rights clause in FAR 52.227-19.
  
 Gaussian, Inc.
 340 Quinnipiac St., Bldg. 40, Wallingford CT 06492
  
  
 ---------------------------------------------------------------
 Warning -- This program may not be used in any manner that
 competes with the business of Gaussian, Inc. or will provide
 assistance to any competitor of Gaussian, Inc.  The licensee
 of this program is prohibited from giving any competitor of
 Gaussian, Inc. access to this program.  By using this program,
 the user acknowledges that Gaussian, Inc. is engaged in the
 business of creating and licensing software in the field of
 computational chemistry and represents and warrants to the
 licensee that it is not a competitor of Gaussian, Inc. and that
 it will not use this program in any manner prohibited above.
 ---------------------------------------------------------------
  

 Cite this work as:
 Gaussian 09, Revision D.01,
 M. J. Frisch, G. W. Trucks, H. B. Schlegel, G. E. Scuseria, 
 M. A. Robb, J. R. Cheeseman, G. Scalmani, V. Barone, B. Mennucci, 
 G. A. Petersson, H. Nakatsuji, M. Caricato, X. Li, H. P. Hratchian, 
 A. F. Izmaylov, J. Bloino, G. Zheng, J. L. Sonnenberg, M. Hada, 
 M. Ehara, K. Toyota, R. Fukuda, J. Hasegawa, M. Ishida, T. Nakajima, 
 Y. Honda, O. Kitao, H. Nakai, T. Vreven, J. A. Montgomery, Jr., 
 J. E. Peralta, F. Ogliaro, M. Bearpark, J. J. Heyd, E. Brothers, 
 K. N. Kudin, V. N. Staroverov, T. Keith, R. Kobayashi, J. Normand, 
 K. Raghavachari, A. Rendell, J. C. Burant, S. S. Iyengar, J. Tomasi, 
 M. Cossi, N. Rega, J. M. Millam, M. Klene, J. E. Knox, J. B. Cross, 
 V. Bakken, C. Adamo, J. Jaramillo, R. Gomperts, R. E. Stratmann, 
 O. Yazyev, A. J. Austin, R. Cammi, C. Pomelli, J. W. Ochterski, 
 R. L. Martin, K. Morokuma, V. G. Zakrzewski, G. A. Voth, 
 P. Salvador, J. J. Dannenberg, S. Dapprich, A. D. Daniels, 
 O. Farkas, J. B. Foresman, J. V. Ortiz, J. Cioslowski, 
 and D. J. Fox, Gaussian, Inc., Wallingford CT, 2013.
 
 ******************************************
 Gaussian 09:  ES64L-G09RevD.01 24-Apr-2013
                22-Nov-2015 
 ******************************************
 %LindaWorkers=green0576:1,green0584:1,green0623:1,green0636:1,green0650:1,green0
 651:1,green0732:1,green0739:1
 %Mem=16GB
 %NProcShared=16
 Will use up to   16 processors via shared memory.
 %Chk=l2_parker_funk_yb.chk
 SetLPE:  input flags=""
 SetLPE:    new flags=" -nodelist 'green0576 green0584 green0623 green0636 green0650 green0651 green0732 green0739'"
 Will use up to    8 processors via Linda.
 ----------------------------------------------------------------------
 #p opt=cartesian m06/Gen guess=mix pseudo=read scf=(tight,qc,vtl) inte
 gral=(grid=ultrafine) scrf=(pcm,solvent=methanol) nosymm
 ----------------------------------------------------------------------
 1/10=7,14=-1,18=10,26=4,38=1/1,3;
 2/12=2,15=1,17=6,18=5,29=2,40=1/2;
 3/5=7,11=2,16=1,17=8,25=1,30=1,70=2201,71=1,72=3,74=-54,75=-5/1,2,3;
 4/13=-1/1;
 5/5=2,8=3,17=3,32=2,38=5,53=3/8;
 6/7=2,8=2,9=2,10=2,28=1/1;
 7/7=1,29=1,30=1/1,2,3,16;
 1/10=7,14=-1,18=10,26=4/3(2);
 2/15=1,29=1/2;
 99/12=1/99;
 2/15=1,29=1/2;
 3/5=7,6=1,11=2,16=1,17=8,25=1,30=1,70=2205,71=1,72=3,74=-54,75=-5,82=7/1,2,3;
 4/5=5,16=3,69=1/1;
 5/5=2,8=3,17=3,32=2,38=5,53=3/8;
 7/7=1,30=1/1,2,3,16;
 1/14=-1,18=10,26=4/3(-5);
 2/15=1,29=1/2;
 6/7=2,8=2,9=2,10=2,19=2,28=1/1;
 99/9=1,12=1/99;
 Leave Link    1 at Sun Nov 22 06:54:42 2015, MaxMem=  2147483648 cpu:         6.6
 (Enter /home/ik1r11/g09-64-D01/l101.exe)
 ---------------------------------------
 Parker's L2 ligand complex with Yb(III)
 ---------------------------------------
 Symbolic Z-matrix:
 Charge =  0 Multiplicity = 2
 C                    -2.94166  -3.78561   1.59097 
 H                    -2.82267  -4.7317    2.12502 
 C                    -4.01142  -3.57412   0.72496 
 H                    -4.76391  -4.35341   0.57916 
 P                     1.74181   2.5436   -0.59284 
 P                    -3.07373   0.23665  -0.59284 
 P                     1.33192  -2.78026  -0.59284 
 O                     1.45057   1.05109  -0.2277 
 O                     3.06256   3.16006  -0.19245 
 O                    -1.63556   0.73068  -0.2277 
 O                    -4.26797   1.07222  -0.19245 
 O                     0.18499  -1.78177  -0.2277 
 O                     1.20541  -4.23228  -0.19245 
 N                    -1.28923   1.10485   3.14566 
 N                    -0.31221  -1.66893   3.14566 
 N                     1.60144   0.56409   3.14566 
 N                    -0.33013   2.62453   1.12015 
 N                    -2.10785  -1.59817   1.12015 
 N                     2.43798  -1.02637   1.12015 
 C                    -2.10164   0.03412   3.73413 
 H                    -2.66065   0.40103   4.62362 
 H                    -2.85317  -0.25275   2.98403 
 C                    -1.28398  -1.17883   4.15222 
 H                    -1.99153  -1.98624   4.41806 
 H                    -0.74283  -0.95772   5.08722 
 C                     1.02127  -1.83713   3.73413 
 H                     0.98303  -2.5047    4.62362 
 H                     1.64547  -2.34454   2.98403 
 C                     1.08037   1.80301   3.73413 
 H                     1.2077    2.59729   2.98403 
 C                    -0.3789    1.70138   4.15222 
 H                    -0.72437   2.71784   4.41806 
 H                    -0.458     1.12217   5.08722 
 C                    -2.17159   2.13662   2.5805 
 H                    -2.91511   1.65656   1.91312 
 H                    -2.73979   2.65691   3.38106 
 C                    -1.39942   3.12      1.7537 
 C                    -1.8076    4.44035   1.59097 
 H                    -2.68644   4.81035   2.12502 
 C                    -1.08957   5.26105   0.72496 
 H                    -1.38822   6.30237   0.57916 
 C                     0.        4.73479   0.04243 
 H                     0.58513   5.33377  -0.66053 
 C                     0.34005   3.40113   0.26057 
 C                     1.36039   2.70271  -2.36114 
 C                     2.24378   3.36116  -3.21645 
 H                     3.15656   3.79668  -2.79836 
 C                     1.95735   3.4393   -4.57866 
 H                     2.64786   3.95136  -5.25465 
 C                     0.79103   2.86214  -5.07914 
 H                     0.56849   2.92605  -6.14823 
 C                    -0.09301   2.2019   -4.22378 
 H                    -1.00505   1.73843  -4.61425 
 C                     0.19025   2.12059  -2.86395 
 H                    -0.49666   1.59933  -2.18508 
 C                    -0.76457  -2.94896   2.5805 
 H                     0.02293  -3.35284   1.91312 
 H                    -0.93106  -3.70118   3.38106 
 C                    -2.00229  -2.77194   1.7537 
 C                    -4.10044  -2.36739   0.04243 
 H                    -4.91174  -2.16014  -0.66053 
 C                    -3.11549  -1.40608   0.26057 
 C                    -3.02081  -0.17322  -2.36114 
 C                    -1.93161  -0.89554  -2.86395 
 H                    -1.13673  -1.22979  -2.18508 
 C                    -1.86039  -1.1815   -4.22378 
 H                    -1.003    -1.73961  -4.61425 
 C                    -2.8742   -0.74602  -5.07914 
 H                    -2.81828  -0.9707   -6.14823 
 C                    -3.95719  -0.02454  -4.57866 
 H                    -4.74591   0.31744  -5.25465 
 C                    -4.03274   0.26259  -3.21645 
 H                    -4.8663    0.83532  -2.79836 
 C                     1.66042  -2.52949  -2.36114 
 C                     1.74136  -1.22506  -2.86395 
 H                     1.63339  -0.36954  -2.18508 
 C                     1.78897  -3.62375  -3.21645 
 H                     1.70974  -4.632    -2.79836 
 C                     1.66289  -0.52255   4.15222 
 H                     2.7159   -0.7316    4.41806 
 H                     1.20083  -0.16445   5.08722 
 H                     1.67763   2.10368   4.62362 
 C                     2.93616   0.81234   2.5805 
 H                     2.89218   1.69628   1.91312 
 H                     3.67085   1.04427   3.38106 
 C                     3.40171  -0.34807   1.7537 
 C                     4.74926  -0.65475   1.59097 
 H                     5.50911  -0.07865   2.12502 
 C                     5.10099  -1.68693   0.72496 
 H                     6.15212  -1.94896   0.57916 
 C                     4.10044  -2.36739   0.04243 
 H                     4.32661  -3.17362  -0.66053 
 C                     2.77544  -1.99505   0.26057 
 C                     1.95341  -1.0204   -4.22378 
 H                     2.00805   0.00119  -4.61425 
 C                     2.08317  -2.11612  -5.07914 
 H                     2.24979  -1.95535  -6.14823 
 C                     1.99985  -3.41476  -4.57866 
 H                     2.09805  -4.2688   -5.25465 
 Yb                    0.        0.        1.02192 
 
 NAtoms=    100 NQM=      100 NQMF=       0 NMMI=      0 NMMIF=      0
                NMic=       0 NMicF=      0.
                    Isotopes and Nuclear Properties:
 (Nuclear quadrupole moments (NQMom) in fm**2, nuclear magnetic moments (NMagM)
  in nuclear magnetons)

  Atom         1           2           3           4           5           6           7           8           9          10
 IAtWgt=          12           1          12           1          31          31          31          16          16          16
 AtmWgt=  12.0000000   1.0078250  12.0000000   1.0078250  30.9737634  30.9737634  30.9737634  15.9949146  15.9949146  15.9949146
 NucSpn=           0           1           0           1           1           1           1           0           0           0
 AtZEff=   0.0000000   0.0000000   0.0000000   0.0000000   0.0000000   0.0000000   0.0000000   0.0000000   0.0000000   0.0000000
 NQMom=    0.0000000   0.0000000   0.0000000   0.0000000   0.0000000   0.0000000   0.0000000   0.0000000   0.0000000   0.0000000
 NMagM=    0.0000000   2.7928460   0.0000000   2.7928460   1.1316000   1.1316000   1.1316000   0.0000000   0.0000000   0.0000000
 AtZNuc=   6.0000000   1.0000000   6.0000000   1.0000000  15.0000000  15.0000000  15.0000000   8.0000000   8.0000000   8.0000000

  Atom        11          12          13          14          15          16          17          18          19          20
 IAtWgt=          16          16          16          14          14          14          14          14          14          12
 AtmWgt=  15.9949146  15.9949146  15.9949146  14.0030740  14.0030740  14.0030740  14.0030740  14.0030740  14.0030740  12.0000000
 NucSpn=           0           0           0           2           2           2           2           2           2           0
 AtZEff=   0.0000000   0.0000000   0.0000000   0.0000000   0.0000000   0.0000000   0.0000000   0.0000000   0.0000000   0.0000000
 NQMom=    0.0000000   0.0000000   0.0000000   2.0440000   2.0440000   2.0440000   2.0440000   2.0440000   2.0440000   0.0000000
 NMagM=    0.0000000   0.0000000   0.0000000   0.4037610   0.4037610   0.4037610   0.4037610   0.4037610   0.4037610   0.0000000
 AtZNuc=   8.0000000   8.0000000   8.0000000   7.0000000   7.0000000   7.0000000   7.0000000   7.0000000   7.0000000   6.0000000

  Atom        21          22          23          24          25          26          27          28          29          30
 IAtWgt=           1           1          12           1           1          12           1           1          12           1
 AtmWgt=   1.0078250   1.0078250  12.0000000   1.0078250   1.0078250  12.0000000   1.0078250   1.0078250  12.0000000   1.0078250
 NucSpn=           1           1           0           1           1           0           1           1           0           1
 AtZEff=   0.0000000   0.0000000   0.0000000   0.0000000   0.0000000   0.0000000   0.0000000   0.0000000   0.0000000   0.0000000
 NQMom=    0.0000000   0.0000000   0.0000000   0.0000000   0.0000000   0.0000000   0.0000000   0.0000000   0.0000000   0.0000000
 NMagM=    2.7928460   2.7928460   0.0000000   2.7928460   2.7928460   0.0000000   2.7928460   2.7928460   0.0000000   2.7928460
 AtZNuc=   1.0000000   1.0000000   6.0000000   1.0000000   1.0000000   6.0000000   1.0000000   1.0000000   6.0000000   1.0000000

  Atom        31          32          33          34          35          36          37          38          39          40
 IAtWgt=          12           1           1          12           1           1          12          12           1          12
 AtmWgt=  12.0000000   1.0078250   1.0078250  12.0000000   1.0078250   1.0078250  12.0000000  12.0000000   1.0078250  12.0000000
 NucSpn=           0           1           1           0           1           1           0           0           1           0
 AtZEff=   0.0000000   0.0000000   0.0000000   0.0000000   0.0000000   0.0000000   0.0000000   0.0000000   0.0000000   0.0000000
 NQMom=    0.0000000   0.0000000   0.0000000   0.0000000   0.0000000   0.0000000   0.0000000   0.0000000   0.0000000   0.0000000
 NMagM=    0.0000000   2.7928460   2.7928460   0.0000000   2.7928460   2.7928460   0.0000000   0.0000000   2.7928460   0.0000000
 AtZNuc=   6.0000000   1.0000000   1.0000000   6.0000000   1.0000000   1.0000000   6.0000000   6.0000000   1.0000000   6.0000000

  Atom        41          42          43          44          45          46          47          48          49          50
 IAtWgt=           1          12           1          12          12          12           1          12           1          12
 AtmWgt=   1.0078250  12.0000000   1.0078250  12.0000000  12.0000000  12.0000000   1.0078250  12.0000000   1.0078250  12.0000000
 NucSpn=           1           0           1           0           0           0           1           0           1           0
 AtZEff=   0.0000000   0.0000000   0.0000000   0.0000000   0.0000000   0.0000000   0.0000000   0.0000000   0.0000000   0.0000000
 NQMom=    0.0000000   0.0000000   0.0000000   0.0000000   0.0000000   0.0000000   0.0000000   0.0000000   0.0000000   0.0000000
 NMagM=    2.7928460   0.0000000   2.7928460   0.0000000   0.0000000   0.0000000   2.7928460   0.0000000   2.7928460   0.0000000
 AtZNuc=   1.0000000   6.0000000   1.0000000   6.0000000   6.0000000   6.0000000   1.0000000   6.0000000   1.0000000   6.0000000

  Atom        51          52          53          54          55          56          57          58          59          60
 IAtWgt=           1          12           1          12           1          12           1           1          12          12
 AtmWgt=   1.0078250  12.0000000   1.0078250  12.0000000   1.0078250  12.0000000   1.0078250   1.0078250  12.0000000  12.0000000
 NucSpn=           1           0           1           0           1           0           1           1           0           0
 AtZEff=   0.0000000   0.0000000   0.0000000   0.0000000   0.0000000   0.0000000   0.0000000   0.0000000   0.0000000   0.0000000
 NQMom=    0.0000000   0.0000000   0.0000000   0.0000000   0.0000000   0.0000000   0.0000000   0.0000000   0.0000000   0.0000000
 NMagM=    2.7928460   0.0000000   2.7928460   0.0000000   2.7928460   0.0000000   2.7928460   2.7928460   0.0000000   0.0000000
 AtZNuc=   1.0000000   6.0000000   1.0000000   6.0000000   1.0000000   6.0000000   1.0000000   1.0000000   6.0000000   6.0000000

  Atom        61          62          63          64          65          66          67          68          69          70
 IAtWgt=           1          12          12          12           1          12           1          12           1          12
 AtmWgt=   1.0078250  12.0000000  12.0000000  12.0000000   1.0078250  12.0000000   1.0078250  12.0000000   1.0078250  12.0000000
 NucSpn=           1           0           0           0           1           0           1           0           1           0
 AtZEff=   0.0000000   0.0000000   0.0000000   0.0000000   0.0000000   0.0000000   0.0000000   0.0000000   0.0000000   0.0000000
 NQMom=    0.0000000   0.0000000   0.0000000   0.0000000   0.0000000   0.0000000   0.0000000   0.0000000   0.0000000   0.0000000
 NMagM=    2.7928460   0.0000000   0.0000000   0.0000000   2.7928460   0.0000000   2.7928460   0.0000000   2.7928460   0.0000000
 AtZNuc=   1.0000000   6.0000000   6.0000000   6.0000000   1.0000000   6.0000000   1.0000000   6.0000000   1.0000000   6.0000000

  Atom        71          72          73          74          75          76          77          78          79          80
 IAtWgt=           1          12           1          12          12           1          12           1          12           1
 AtmWgt=   1.0078250  12.0000000   1.0078250  12.0000000  12.0000000   1.0078250  12.0000000   1.0078250  12.0000000   1.0078250
 NucSpn=           1           0           1           0           0           1           0           1           0           1
 AtZEff=   0.0000000   0.0000000   0.0000000   0.0000000   0.0000000   0.0000000   0.0000000   0.0000000   0.0000000   0.0000000
 NQMom=    0.0000000   0.0000000   0.0000000   0.0000000   0.0000000   0.0000000   0.0000000   0.0000000   0.0000000   0.0000000
 NMagM=    2.7928460   0.0000000   2.7928460   0.0000000   0.0000000   2.7928460   0.0000000   2.7928460   0.0000000   2.7928460
 AtZNuc=   1.0000000   6.0000000   1.0000000   6.0000000   6.0000000   1.0000000   6.0000000   1.0000000   6.0000000   1.0000000

  Atom        81          82          83          84          85          86          87          88          89          90
 IAtWgt=           1           1          12           1           1          12          12           1          12           1
 AtmWgt=   1.0078250   1.0078250  12.0000000   1.0078250   1.0078250  12.0000000  12.0000000   1.0078250  12.0000000   1.0078250
 NucSpn=           1           1           0           1           1           0           0           1           0           1
 AtZEff=   0.0000000   0.0000000   0.0000000   0.0000000   0.0000000   0.0000000   0.0000000   0.0000000   0.0000000   0.0000000
 NQMom=    0.0000000   0.0000000   0.0000000   0.0000000   0.0000000   0.0000000   0.0000000   0.0000000   0.0000000   0.0000000
 NMagM=    2.7928460   2.7928460   0.0000000   2.7928460   2.7928460   0.0000000   0.0000000   2.7928460   0.0000000   2.7928460
 AtZNuc=   1.0000000   1.0000000   6.0000000   1.0000000   1.0000000   6.0000000   6.0000000   1.0000000   6.0000000   1.0000000

  Atom        91          92          93          94          95          96          97          98          99         100
 IAtWgt=          12           1          12          12           1          12           1          12           1         174
 AtmWgt=  12.0000000   1.0078250  12.0000000  12.0000000   1.0078250  12.0000000   1.0078250  12.0000000   1.0078250 173.9390000
 NucSpn=           0           1           0           0           1           0           1           0           1           0
 AtZEff=   0.0000000   0.0000000   0.0000000   0.0000000   0.0000000   0.0000000   0.0000000   0.0000000   0.0000000   0.0000000
 NQMom=    0.0000000   0.0000000   0.0000000   0.0000000   0.0000000   0.0000000   0.0000000   0.0000000   0.0000000   0.0000000
 NMagM=    0.0000000   2.7928460   0.0000000   0.0000000   2.7928460   0.0000000   2.7928460   0.0000000   2.7928460   0.0000000
 AtZNuc=   6.0000000   1.0000000   6.0000000   6.0000000   1.0000000   6.0000000   1.0000000   6.0000000   1.0000000  70.0000000
 Leave Link  101 at Sun Nov 22 06:54:42 2015, MaxMem=  2147483648 cpu:         2.5
 (Enter /home/ik1r11/g09-64-D01/l103.exe)

 GradGradGradGradGradGradGradGradGradGradGradGradGradGradGradGradGradGrad
 Berny optimization.
 Initialization pass.
 No Z-matrix variables, so optimization will use Cartesian coordinates.
 Trust Radius=3.00D-01 FncErr=1.00D-07 GrdErr=1.00D-06
 Number of steps in this run=    310 maximum allowed number of steps=    600.
 GradGradGradGradGradGradGradGradGradGradGradGradGradGradGradGradGradGrad

 Leave Link  103 at Sun Nov 22 06:54:42 2015, MaxMem=  2147483648 cpu:         0.9
 (Enter /home/ik1r11/g09-64-D01/l202.exe)
 Symmetry turned off by external request.
 Stoichiometry    C42H42N6O6P3Yb(2)
 Framework group  C3[C3(Yb),X(C42H42N6O6P3)]
 Deg. of freedom    98
 Full point group                 C3      NOp   3
                          Input orientation:                          
 ---------------------------------------------------------------------
 Center     Atomic      Atomic             Coordinates (Angstroms)
 Number     Number       Type             X           Y           Z
 ---------------------------------------------------------------------
      1          6           0       -2.941658   -3.785606    1.590965
      2          1           0       -2.822668   -4.731699    2.125021
      3          6           0       -4.011422   -3.574122    0.724961
      4          1           0       -4.763905   -4.353414    0.579164
      5         15           0        1.741813    2.543602   -0.592836
      6         15           0       -3.073730    0.236653   -0.592836
      7         15           0        1.331917   -2.780255   -0.592836
      8          8           0        1.450567    1.051092   -0.227699
      9          8           0        3.062556    3.160058   -0.192451
     10          8           0       -1.635556    0.730682   -0.227699
     11          8           0       -4.267968    1.072222   -0.192451
     12          8           0        0.184989   -1.781774   -0.227699
     13          8           0        1.205412   -4.232280   -0.192451
     14          7           0       -1.289233    1.104848    3.145662
     15          7           0       -0.312210   -1.668932    3.145662
     16          7           0        1.601443    0.564085    3.145662
     17          7           0       -0.330128    2.624533    1.120149
     18          7           0       -2.107848   -1.598166    1.120149
     19          7           0        2.437976   -1.026367    1.120149
     20          6           0       -2.101639    0.034122    3.734133
     21          1           0       -2.660650    0.401027    4.623618
     22          1           0       -2.853169   -0.252748    2.984030
     23          6           0       -1.283984   -1.178826    4.152216
     24          1           0       -1.991530   -1.986238    4.418062
     25          1           0       -0.742830   -0.957720    5.087223
     26          6           0        1.021269   -1.837134    3.734133
     27          1           0        0.983025   -2.504704    4.623618
     28          1           0        1.645471   -2.344543    2.984030
     29          6           0        1.080370    1.803012    3.734133
     30          1           0        1.207698    2.597291    2.984030
     31          6           0       -0.378901    1.701376    4.152216
     32          1           0       -0.724368    2.717835    4.418062
     33          1           0       -0.457995    1.122170    5.087223
     34          6           0       -2.171585    2.136616    2.580500
     35          1           0       -2.915110    1.656559    1.913119
     36          1           0       -2.739788    2.656911    3.381055
     37          6           0       -1.399423    3.120001    1.753704
     38          6           0       -1.807602    4.440354    1.590965
     39          1           0       -2.686438    4.810352    2.125021
     40          6           0       -1.089570    5.261054    0.724961
     41          1           0       -1.388215    6.302370    0.579164
     42          6           0        0.000000    4.734786    0.042428
     43          1           0        0.585134    5.333765   -0.660533
     44          6           0        0.340046    3.401131    0.260571
     45          6           0        1.360391    2.702706   -2.361137
     46          6           0        2.243776    3.361163   -3.216448
     47          1           0        3.156558    3.796679   -2.798357
     48          6           0        1.957345    3.439298   -4.578664
     49          1           0        2.647864    3.951360   -5.254648
     50          6           0        0.791026    2.862136   -5.079140
     51          1           0        0.568486    2.926050   -6.148225
     52          6           0       -0.093014    2.201900   -4.223778
     53          1           0       -1.005051    1.738428   -4.614252
     54          6           0        0.190250    2.120594   -2.863951
     55          1           0       -0.496663    1.599329   -2.185077
     56          6           0       -0.764571   -2.948956    2.580500
     57          1           0        0.022933   -3.352839    1.913119
     58          1           0       -0.931058   -3.701181    3.381055
     59          6           0       -2.002289   -2.771936    1.753704
     60          6           0       -4.100445   -2.367393    0.042428
     61          1           0       -4.911743   -2.160142   -0.660533
     62          6           0       -3.115489   -1.406077    0.260571
     63          6           0       -3.020808   -0.173220   -2.361137
     64          6           0       -1.931613   -0.895536   -2.863951
     65          1           0       -1.136728   -1.229787   -2.185077
     66          6           0       -1.860394   -1.181502   -4.223778
     67          1           0       -1.002997   -1.739614   -4.614252
     68          6           0       -2.874195   -0.746019   -5.079140
     69          1           0       -2.818277   -0.970702   -6.148225
     70          6           0       -3.957192   -0.024538   -4.578664
     71          1           0       -4.745910    0.317438   -5.254648
     72          6           0       -4.032741    0.262586   -3.216448
     73          1           0       -4.866299    0.835320   -2.798357
     74          6           0        1.660417   -2.529486   -2.361137
     75          6           0        1.741363   -1.225058   -2.863951
     76          1           0        1.633391   -0.369542   -2.185077
     77          6           0        1.788965   -3.623748   -3.216448
     78          1           0        1.709741   -4.631999   -2.798357
     79          6           0        1.662885   -0.522550    4.152216
     80          1           0        2.715898   -0.731597    4.418062
     81          1           0        1.200825   -0.164450    5.087223
     82          1           0        1.677625    2.103677    4.623618
     83          6           0        2.936156    0.812340    2.580500
     84          1           0        2.892177    1.696280    1.913119
     85          1           0        3.670846    1.044271    3.381055
     86          6           0        3.401712   -0.348065    1.753704
     87          6           0        4.749260   -0.654748    1.590965
     88          1           0        5.509106   -0.078653    2.125021
     89          6           0        5.100991   -1.686932    0.724961
     90          1           0        6.152120   -1.948956    0.579164
     91          6           0        4.100445   -2.367393    0.042428
     92          1           0        4.326609   -3.173623   -0.660533
     93          6           0        2.775443   -1.995054    0.260571
     94          6           0        1.953408   -1.020397   -4.223778
     95          1           0        2.008048    0.001186   -4.614252
     96          6           0        2.083169   -2.116117   -5.079140
     97          1           0        2.249791   -1.955348   -6.148225
     98          6           0        1.999847   -3.414759   -4.578664
     99          1           0        2.098046   -4.268797   -5.254648
    100         70           0        0.000000    0.000000    1.021916
 ---------------------------------------------------------------------
 Rotational constants (GHZ):      0.0544392      0.0472380      0.0472380
 Leave Link  202 at Sun Nov 22 06:54:42 2015, MaxMem=  2147483648 cpu:         0.7
 (Enter /home/ik1r11/g09-64-D01/l301.exe)
 General basis read from cards:  (5D, 7F)
 Centers:       2      4     21     22     24     25     27     28     30     32
 Centers:      33     35     36     39     41     43     47     49     51     53
 Centers:      55     57     58     61     65     67     69     71     73     76
 Centers:      78     80     81     82     84     85     88     90     92     95
 Centers:      97     99      1      3     20     23     26     29     31     34
 Centers:      37     38     40     42     44     45     46     48     50     52
 Centers:      54     56     59     60     62     63     64     66     68     70
 Centers:      72     74     75     77     79     83     86     87     89     91
 Centers:      93     94     96     98     14     15     16     17     18     19
 Centers:       8      9     10     11     12     13      5      6      7
 cc-pVDZ
 ****
 Centers:     100
 S 10 1.00
     Exponent=  3.9049209000D+03 Coefficients=  1.8267000000D-03
     Exponent=  5.8142070000D+02 Coefficients=  7.8226000000D-03
     Exponent=  6.0205801000D+01 Coefficients= -7.1814700000D-02
     Exponent=  3.5415177000D+01 Coefficients=  6.1116630000D-01
     Exponent=  2.0832457000D+01 Coefficients= -1.1560736000D+00
     Exponent=  5.0623380000D+00 Coefficients=  9.6341730000D-01
     Exponent=  2.5668820000D+00 Coefficients=  4.2126740000D-01
     Exponent=  9.3052200000D-01 Coefficients=  2.1047500000D-02
     Exponent=  3.9509700000D-01 Coefficients= -2.5999000000D-03
     Exponent=  6.3976000000D-02 Coefficients=  1.6015000000D-03
 S 10 1.00
     Exponent=  3.9049209000D+03 Coefficients=  1.1896000000D-03
     Exponent=  5.8142070000D+02 Coefficients=  5.0206000000D-03
     Exponent=  6.0205801000D+01 Coefficients= -2.4377400000D-02
     Exponent=  3.5415177000D+01 Coefficients=  2.6701570000D-01
     Exponent=  2.0832457000D+01 Coefficients= -5.5738270000D-01
     Exponent=  5.0623380000D+00 Coefficients=  6.8843170000D-01
     Exponent=  2.5668820000D+00 Coefficients=  4.4239660000D-01
     Exponent=  9.3052200000D-01 Coefficients= -7.4973030000D-01
     Exponent=  3.9509700000D-01 Coefficients= -6.2112320000D-01
     Exponent=  6.3976000000D-02 Coefficients= -3.8758300000D-02
 S 10 1.00
     Exponent=  3.9049209000D+03 Coefficients=  2.9800000000D-04
     Exponent=  5.8142070000D+02 Coefficients=  1.2603000000D-03
     Exponent=  6.0205801000D+01 Coefficients= -5.7303000000D-03
     Exponent=  3.5415177000D+01 Coefficients=  6.4220500000D-02
     Exponent=  2.0832457000D+01 Coefficients= -1.3532700000D-01
     Exponent=  5.0623380000D+00 Coefficients=  1.7670510000D-01
     Exponent=  2.5668820000D+00 Coefficients=  1.1664370000D-01
     Exponent=  9.3052200000D-01 Coefficients= -2.2621560000D-01
     Exponent=  3.9509700000D-01 Coefficients= -3.8927390000D-01
     Exponent=  6.3976000000D-02 Coefficients=  5.6210100000D-01
 S 1 1.00
     Exponent=  2.1348000000D-02 Coefficients=  1.0000000000D+00
 S 1 1.00
     Exponent=  3.7633000000D-02 Coefficients=  1.0000000000D+00
 P 7 1.00
     Exponent=  2.1817019000D+03 Coefficients=  8.1670000000D-04
     Exponent=  5.1881230000D+02 Coefficients=  6.1056000000D-03
     Exponent=  1.6585316000D+02 Coefficients=  2.1592800000D-02
     Exponent=  5.4609241000D+01 Coefficients=  5.1249700000D-02
     Exponent=  1.4062358000D+01 Coefficients= -2.6514200000D-01
     Exponent=  8.3744620000D+00 Coefficients=  5.1791530000D-01
     Exponent=  3.7346160000D+00 Coefficients=  6.2906420000D-01
 P 7 1.00
     Exponent=  2.1817019000D+03 Coefficients= -4.8610000000D-04
     Exponent=  5.1881230000D+02 Coefficients= -3.3905000000D-03
     Exponent=  1.6585316000D+02 Coefficients= -1.3265200000D-02
     Exponent=  5.4609241000D+01 Coefficients= -2.6385800000D-02
     Exponent=  1.4062358000D+01 Coefficients=  1.1280650000D-01
     Exponent=  8.3744620000D+00 Coefficients= -3.1346850000D-01
     Exponent=  3.7346160000D+00 Coefficients= -3.1077330000D-01
 P 1 1.00
     Exponent=  2.5009100000D-01 Coefficients=  1.0000000000D+00
 P 1 1.00
     Exponent=  6.4490700000D-01 Coefficients=  1.0000000000D+00
 P 1 1.00
     Exponent=  1.4920890000D+00 Coefficients=  1.0000000000D+00
 D 5 1.00
     Exponent=  4.1188272000D+02 Coefficients=  2.6090000000D-03
     Exponent=  1.2506366000D+02 Coefficients=  2.0300400000D-02
     Exponent=  4.8173240000D+01 Coefficients=  7.5175000000D-02
     Exponent=  2.0318386000D+01 Coefficients=  1.5053210000D-01
     Exponent=  8.2583120000D+00 Coefficients=  3.3554840000D-01
 D 1 1.00
     Exponent=  8.0364200000D-01 Coefficients=  1.0000000000D+00
 D 1 1.00
     Exponent=  1.8859960000D+00 Coefficients=  1.0000000000D+00
 D 1 1.00
     Exponent=  3.9927740000D+00 Coefficients=  1.0000000000D+00
 F 6 1.00
     Exponent=  1.7713956000D+02 Coefficients= -3.3253000000D-03
     Exponent=  6.2966765000D+01 Coefficients= -3.2959600000D-02
     Exponent=  2.8015546000D+01 Coefficients= -1.3697920000D-01
     Exponent=  1.2992549000D+01 Coefficients= -2.6734370000D-01
     Exponent=  5.9129910000D+00 Coefficients= -3.5094450000D-01
     Exponent=  2.5840960000D+00 Coefficients= -3.3127190000D-01
 F 1 1.00
     Exponent=  3.5902100000D-01 Coefficients=  1.0000000000D+00
 F 1 1.00
     Exponent=  1.0387640000D+00 Coefficients=  1.0000000000D+00
 ****
 ======================================================================================================
                                       Pseudopotential Parameters
 ======================================================================================================
  Center     Atomic      Valence      Angular      Power
  Number     Number     Electrons     Momentum     of R      Exponent        Coefficient   SO-Coeffient
 ======================================================================================================
    1          6
                                   No pseudopotential on this center.
    2          1
                                   No pseudopotential on this center.
    3          6
                                   No pseudopotential on this center.
    4          1
                                   No pseudopotential on this center.
    5         15
                                   No pseudopotential on this center.
    6         15
                                   No pseudopotential on this center.
    7         15
                                   No pseudopotential on this center.
    8          8
                                   No pseudopotential on this center.
    9          8
                                   No pseudopotential on this center.
   10          8
                                   No pseudopotential on this center.
   11          8
                                   No pseudopotential on this center.
   12          8
                                   No pseudopotential on this center.
   13          8
                                   No pseudopotential on this center.
   14          7
                                   No pseudopotential on this center.
   15          7
                                   No pseudopotential on this center.
   16          7
                                   No pseudopotential on this center.
   17          7
                                   No pseudopotential on this center.
   18          7
                                   No pseudopotential on this center.
   19          7
                                   No pseudopotential on this center.
   20          6
                                   No pseudopotential on this center.
   21          1
                                   No pseudopotential on this center.
   22          1
                                   No pseudopotential on this center.
   23          6
                                   No pseudopotential on this center.
   24          1
                                   No pseudopotential on this center.
   25          1
                                   No pseudopotential on this center.
   26          6
                                   No pseudopotential on this center.
   27          1
                                   No pseudopotential on this center.
   28          1
                                   No pseudopotential on this center.
   29          6
                                   No pseudopotential on this center.
   30          1
                                   No pseudopotential on this center.
   31          6
                                   No pseudopotential on this center.
   32          1
                                   No pseudopotential on this center.
   33          1
                                   No pseudopotential on this center.
   34          6
                                   No pseudopotential on this center.
   35          1
                                   No pseudopotential on this center.
   36          1
                                   No pseudopotential on this center.
   37          6
                                   No pseudopotential on this center.
   38          6
                                   No pseudopotential on this center.
   39          1
                                   No pseudopotential on this center.
   40          6
                                   No pseudopotential on this center.
   41          1
                                   No pseudopotential on this center.
   42          6
                                   No pseudopotential on this center.
   43          1
                                   No pseudopotential on this center.
   44          6
                                   No pseudopotential on this center.
   45          6
                                   No pseudopotential on this center.
   46          6
                                   No pseudopotential on this center.
   47          1
                                   No pseudopotential on this center.
   48          6
                                   No pseudopotential on this center.
   49          1
                                   No pseudopotential on this center.
   50          6
                                   No pseudopotential on this center.
   51          1
                                   No pseudopotential on this center.
   52          6
                                   No pseudopotential on this center.
   53          1
                                   No pseudopotential on this center.
   54          6
                                   No pseudopotential on this center.
   55          1
                                   No pseudopotential on this center.
   56          6
                                   No pseudopotential on this center.
   57          1
                                   No pseudopotential on this center.
   58          1
                                   No pseudopotential on this center.
   59          6
                                   No pseudopotential on this center.
   60          6
                                   No pseudopotential on this center.
   61          1
                                   No pseudopotential on this center.
   62          6
                                   No pseudopotential on this center.
   63          6
                                   No pseudopotential on this center.
   64          6
                                   No pseudopotential on this center.
   65          1
                                   No pseudopotential on this center.
   66          6
                                   No pseudopotential on this center.
   67          1
                                   No pseudopotential on this center.
   68          6
                                   No pseudopotential on this center.
   69          1
                                   No pseudopotential on this center.
   70          6
                                   No pseudopotential on this center.
   71          1
                                   No pseudopotential on this center.
   72          6
                                   No pseudopotential on this center.
   73          1
                                   No pseudopotential on this center.
   74          6
                                   No pseudopotential on this center.
   75          6
                                   No pseudopotential on this center.
   76          1
                                   No pseudopotential on this center.
   77          6
                                   No pseudopotential on this center.
   78          1
                                   No pseudopotential on this center.
   79          6
                                   No pseudopotential on this center.
   80          1
                                   No pseudopotential on this center.
   81          1
                                   No pseudopotential on this center.
   82          1
                                   No pseudopotential on this center.
   83          6
                                   No pseudopotential on this center.
   84          1
                                   No pseudopotential on this center.
   85          1
                                   No pseudopotential on this center.
   86          6
                                   No pseudopotential on this center.
   87          6
                                   No pseudopotential on this center.
   88          1
                                   No pseudopotential on this center.
   89          6
                                   No pseudopotential on this center.
   90          1
                                   No pseudopotential on this center.
   91          6
                                   No pseudopotential on this center.
   92          1
                                   No pseudopotential on this center.
   93          6
                                   No pseudopotential on this center.
   94          6
                                   No pseudopotential on this center.
   95          1
                                   No pseudopotential on this center.
   96          6
                                   No pseudopotential on this center.
   97          1
                                   No pseudopotential on this center.
   98          6
                                   No pseudopotential on this center.
   99          1
                                   No pseudopotential on this center.
  100         70           42
                                      H and up 
                                                     2        1.0000000        0.00000000    0.00000000
                                      S - H
                                                     2       32.4244840      891.01377700    0.00000000
                                      P - H
                                                     2       18.6562320      264.03695300    0.00000000
                                      D - H
                                                     2       10.4902220       73.92391900    0.00000000
                                      F - H
                                                     2       20.7741830      -39.59217300    0.00000000
                                      G - H
                                                     2       28.4310280      -34.63863800    0.00000000
 ======================================================================================================
 Ernie: Thresh=  0.10000D-02 Tol=  0.10000D-05 Strict=F.
 Ernie:  146 primitive shells out of 1613 were deleted.
  1081 basis functions,  2488 primitive gaussians,  1151 cartesian basis functions
   236 alpha electrons      235 beta electrons
       nuclear repulsion energy     12412.6651089486 Hartrees.
 IExCor= 4235 DFT=T Ex+Corr=M06 ExCW=0 ScaHFX=  0.270000
 ScaDFX=  1.000000  1.000000  1.000000  1.000000 ScalE2=  1.000000  1.000000
 IRadAn=      5 IRanWt=     -1 IRanGd=            0 ICorTp=0 IEmpDi=  4
 NAtoms=  100 NActive=  100 NUniq=  100 SFac= 1.00D+00 NAtFMM=   60 NAOKFM=T Big=T
 Integral buffers will be    131072 words long.
 Raffenetti 2 integral format.
 Two-electron integral symmetry is turned off.
 ------------------------------------------------------------------------------
 Polarizable Continuum Model (PCM)
 =================================
 Model                : PCM (using non-symmetric T matrix).
 Atomic radii         : UFF (Universal Force Field).
 Polarization charges : Total charges.
 Charge compensation  : None.
 Solution method      : On-the-fly selection.
 Cavity type          : Scaled VdW (van der Waals Surface) (Alpha=1.100).
 Cavity algorithm     : GePol (No added spheres)
                        Default sphere list used, NSphG=  100.
                        Lebedev-Laikov grids with approx.  5.0 points / Ang**2.
                        Smoothing algorithm: Karplus/York (Gamma=1.0000).
                        Polarization charges: spherical gaussians, with
                                              point-specific exponents (IZeta= 3).
                        Self-potential: point-specific (ISelfS= 7).
                        Self-field    : sphere-specific E.n sum rule (ISelfD= 2).
 1st derivatives      : Analytical E(r).r(x)/FMM algorithm (CHGder, D1EAlg=3).
                        Cavity 1st derivative terms included.
 Solvent              : Methanol, Eps=  32.613000 Eps(inf)=   1.765709
 ------------------------------------------------------------------------------
 GePol: Number of generator spheres                  =     100
 GePol: Total number of spheres                      =     100
 GePol: Number of exposed spheres                    =      99 ( 99.00%)
 GePol: Number of points                             =    5824
 GePol: Average weight of points                     =       0.12
 GePol: Minimum weight of points                     =   0.41D-10
 GePol: Maximum weight of points                     =    0.20577
 GePol: Number of points with low weight             =     464
 GePol: Fraction of low-weight points (<1% of avg)   =       7.97%
 GePol: Cavity surface area                          =    727.771 Ang**2
 GePol: Cavity volume                                =   1015.848 Ang**3
 Leave Link  301 at Sun Nov 22 06:54:43 2015, MaxMem=  2147483648 cpu:         9.8
 (Enter /home/ik1r11/g09-64-D01/linda-exe/l302.exel)
 NPDir=0 NMtPBC=     1 NCelOv=     1 NCel=       1 NClECP=     1 NCelD=      1
         NCelK=      1 NCelE2=     1 NClLst=     1 CellRange=     0.0.
 One-electron integrals computed using PRISM.
   1 Symmetry operations used in ECPInt.
 ECPInt:  NShTT=  120786 NPrTT= 1079839 LenC2=  102277 LenP2D=  402655.
 LDataN:  DoStor=T MaxTD1= 8 Len=  415
 NBasis=  1081 RedAO= T EigKep=  2.78D-04  NBF=  1081
 NBsUse=  1081 1.00D-06 EigRej= -1.00D+00 NBFU=  1081
 Precomputing XC quadrature grid using
 IXCGrd= 4 IRadAn=           5 IRanWt=          -1 IRanGd=           0 AccXCQ= 0.00D+00.
 Defaulting to unpruned grid for atomic number  70.
 Generated NRdTot=       0 NPtTot=           0 NUsed=           0 NTot=          32
 NSgBfM=  1072  1074  1084  1091  1091 MxSgAt=   100 MxSgA2=   100.
 Leave Link  302 at Sun Nov 22 06:55:30 2015, MaxMem=  2147483648 cpu:       682.6
 (Enter /home/ik1r11/g09-64-D01/l303.exe)
 DipDrv:  MaxL=1.
 Leave Link  303 at Sun Nov 22 06:55:31 2015, MaxMem=  2147483648 cpu:         7.3
 (Enter /home/ik1r11/g09-64-D01/linda-exe/l401.exel)
 ExpMin= 2.13D-02 ExpMax= 9.48D+04 ExpMxC= 3.24D+03 IAcc=3 IRadAn=         5 AccDes= 0.00D+00
 Harris functional with IExCor= 1009 and IRadAn=       5 diagonalized for initial guess.
 HarFok:  IExCor= 1009 AccDes= 0.00D+00 IRadAn=         5 IDoV= 1 UseB2=F ITyADJ=14
 ICtDFT=  3500011 ScaDFX=  1.000000  1.000000  1.000000  1.000000
 Defaulting to unpruned grid for atomic number  70.
 Defaulting to unpruned grid for atomic number  70.
 Defaulting to unpruned grid for atomic number  70.
 Defaulting to unpruned grid for atomic number  70.
 Defaulting to unpruned grid for atomic number  70.
 Defaulting to unpruned grid for atomic number  70.
 Defaulting to unpruned grid for atomic number  70.
 Defaulting to unpruned grid for atomic number  70.
 Defaulting to unpruned grid for atomic number  70.
 Defaulting to unpruned grid for atomic number  70.
 Defaulting to unpruned grid for atomic number  70.
 Defaulting to unpruned grid for atomic number  70.
 Defaulting to unpruned grid for atomic number  70.
 Defaulting to unpruned grid for atomic number  70.
 Defaulting to unpruned grid for atomic number  70.
 Defaulting to unpruned grid for atomic number  70.
 FoFCou: FMM=F IPFlag=           0 FMFlag=      100000 FMFlg1=        2001
         NFxFlg=           0 DoJE=T BraDBF=F KetDBF=T FulRan=T
         wScrn=  0.000000 ICntrl=     500 IOpCl=  0 I1Cent=   200000004 NGrid=           0
         NMat0=    1 NMatS0=      1 NMatT0=    0 NMatD0=    1 NMtDS0=    0 NMtDT0=    0
 Symmetry not used in FoFCou.
 Harris En= -4589.37183946740    
 JPrj=0 DoOrth=F DoCkMO=T.
 Mixing orbitals, IMix= 1 IMixAn=  0 NRI=1 NE=  236 Coef=  7.07106781D-01  7.07106781D-01
 Mixing orbitals, IMix= 1 IMixAn=  0 NRI=1 NE=  235 Coef= -7.07106781D-01  7.07106781D-01
 Initial guess <Sx>= 0.0000 <Sy>= 0.0000 <Sz>= 0.5000 <S**2>= 1.0000 S= 0.6180
 Leave Link  401 at Sun Nov 22 06:55:51 2015, MaxMem=  2147483648 cpu:       273.8
 (Enter /home/ik1r11/g09-64-D01/linda-exe/l508.exel)
 Direct SCF.
 Very tight linear equation convergence will be used.
 UM06 wavefunction.
 Quadratic Convergence SCF Method.
 Line search only if initial step raises energy.
 Two-electron integral symmetry not used.
 ReadGW:  IGet=1 IStart=         402 Next=         402 LGW=           0.
 Fock matrices will be formed incrementally for  20 cycles.
 Inv3:  Mode=1 IEnd=   101756928.
 Iteration    1 A*A^-1 deviation from unit magnitude is 5.33D-15 for   5802.
 Iteration    1 A*A^-1 deviation from orthogonality  is 3.59D-15 for   5333   5204.
 Iteration    1 A^-1*A deviation from unit magnitude is 4.88D-15 for   5802.
 Iteration    1 A^-1*A deviation from orthogonality  is 2.09D-10 for   3777   3652.
 Iteration    2 A*A^-1 deviation from unit magnitude is 3.77D-15 for    623.
 Iteration    2 A*A^-1 deviation from orthogonality  is 3.99D-15 for   4573   2325.
 Iteration    2 A^-1*A deviation from unit magnitude is 1.11D-15 for    252.
 Iteration    2 A^-1*A deviation from orthogonality  is 3.50D-16 for   4157   1815.
 FoFJK:  IHMeth= 1 ICntrl=       0 DoSepK=F KAlg= 0 I1Cent=   0 FoldK=F
 IRaf= 990000000 NMat=   1 IRICut=       1 DoRegI=T DoRafI=F ISym2E= 0.
 Defaulting to unpruned grid for atomic number  70.
 Defaulting to unpruned grid for atomic number  70.
 Defaulting to unpruned grid for atomic number  70.
 Defaulting to unpruned grid for atomic number  70.
 Defaulting to unpruned grid for atomic number  70.
 Defaulting to unpruned grid for atomic number  70.
 Defaulting to unpruned grid for atomic number  70.
 Defaulting to unpruned grid for atomic number  70.
 Defaulting to unpruned grid for atomic number  70.
 Defaulting to unpruned grid for atomic number  70.
 Defaulting to unpruned grid for atomic number  70.
 Defaulting to unpruned grid for atomic number  70.
 Defaulting to unpruned grid for atomic number  70.
 Defaulting to unpruned grid for atomic number  70.
 Defaulting to unpruned grid for atomic number  70.
 Defaulting to unpruned grid for atomic number  70.
 Iteration   1 EE= -4583.42277422710                                    Grad=6.451D+00 Max rot=   50.0799 deg.
 Gradient too large for Newton-Raphson -- use scaled steepest descent instead.
 Alpha Gap=     0.023 HL deriv= 1.96D+00
  Beta Gap=    -0.008 HL deriv= 2.33D-02
     ILin= 1 X=0.000D+00 Y=-4.583422774227D+03 DE= 0.00D+00 F= -3.48D+01
 RMSU=  1.76D-02    CP:  1.02D+00
     ILin= 2 X=3.000D-01 Y=-4.575708923930D+03 DE= 7.71D+00 F=  1.18D+02
     Reject lnstep minimum 1.700D-01 FVal=-4.597305240021D+03 Lims=  0.00D+00  3.00D-01
 RMSU=  1.77D-03    CP:  1.00D+00  5.16D-01
     ILin= 3 X=2.000D-01 Y=-4.583940256474D+03 DE=-5.17D-01 F=  4.74D+01
     A contracting polynomial of degree  3 produced  0.1046
 RMSU=  9.13D-05    CP:  9.98D-01  1.77D-01  1.03D+00
 Iteration   2 EE= -4585.77645904335     Delta-E=       -2.353684816255 Grad=3.022D+00 Max rot=   23.5180 deg.
 Gradient too large for Newton-Raphson -- use scaled steepest descent instead.
 Alpha Gap=     0.164 HL deriv= 9.27D-01
  Beta Gap=     0.013 HL deriv= 1.04D-01
     ILin= 1 X=0.000D+00 Y=-4.585776459043D+03 DE= 0.00D+00 F= -6.17D+00
 RMSU=  9.56D-04    CP:  9.84D-01  1.04D-01  8.50D-01  2.32D+00
     ILin= 2 X=3.000D-01 Y=-4.586971895608D+03 DE=-1.20D+00 F= -1.70D+00
 RMSU=  6.31D-05    CP:  9.80D-01  8.40D-02  7.74D-01  2.75D+00  1.31D+00
     ILin= 3 X=4.000D-01 Y=-4.587062290280D+03 DE=-1.29D+00 F= -9.33D-02
 RMSU=  1.09D-04    CP:  9.72D-01  5.08D-02  5.99D-01  3.00D+00  1.90D+00
                    CP:  3.00D+00
     ILin= 4 X=6.000D-01 Y=-4.586745000173D+03 DE=-9.69D-01 F=  3.30D+00
     An  expanding polynomial of degree  4 produced  0.4057
     Minimum is close to point  3 DX=  5.71D-03 DF= -2.68D-04 DXR=  1.41D-02 DFR=  2.08D-04 which will be used.
 Iteration   3 EE= -4587.06229027952     Delta-E=       -1.285831236171 Grad=1.028D+00 Max rot=    7.0879 deg.
 Gradient too large for Newton-Raphson -- use scaled steepest descent instead.
 Alpha Gap=     0.223 HL deriv= 1.85D-01
  Beta Gap=     0.041 HL deriv= 4.53D-02
     ILin= 1 X=0.000D+00 Y=-4.587062290280D+03 DE= 0.00D+00 F= -1.13D+00
 RMSU=  1.66D-04    CP:  9.80D-01  6.15D-02  6.74D-01  2.82D+00  1.31D+00
                    CP:  2.02D+00 -3.10D-02
     ILin= 2 X=2.000D-01 Y=-4.587233006536D+03 DE=-1.71D-01 F= -5.86D-01
 RMSU=  4.92D-06    CP:  9.79D-01  5.14D-02  6.17D-01  2.82D+00  1.30D+00
                    CP:  2.48D+00 -4.61D-02  1.49D+00
     ILin= 3 X=3.000D-01 Y=-4.587278726296D+03 DE=-2.16D-01 F= -3.31D-01
 RMSU=  5.70D-08    CP:  9.79D-01  4.21D-02  5.57D-01  2.81D+00  1.30D+00
                    CP:  2.91D+00 -6.10D-02  1.97D+00  2.67D+00
     ILin= 4 X=4.000D-01 Y=-4.587299502841D+03 DE=-2.37D-01 F= -8.68D-02
 RMSU=  3.33D-05    CP:  9.79D-01  2.58D-02  4.23D-01  2.74D+00  1.30D+00
                    CP:  3.00D+00  2.40D-01  2.91D+00  3.00D+00 -3.00D+00
     ILin= 5 X=6.000D-01 Y=-4.587270672278D+03 DE=-2.08D-01 F=  3.68D-01
     An  expanding polynomial of degree  5 produced  0.4367
     Minimum is close to point  4 DX=  3.67D-02 DF= -1.59D-03 DXR=  8.41D-02 DFR=  6.69D-03 which will be used.
 Iteration   4 EE= -4587.29950284121     Delta-E=       -0.237212561682 Grad=8.175D-01 Max rot=    6.4900 deg.
 Gradient too large for Newton-Raphson -- use scaled steepest descent instead.
 Alpha Gap=     0.271 HL deriv= 1.13D-01
  Beta Gap=     0.041 HL deriv= 2.87D-02
     ILin= 1 X=0.000D+00 Y=-4.587299502841D+03 DE= 0.00D+00 F= -3.56D-01
 RMSU=  2.34D-04    CP:  9.75D-01  2.28D-02  3.85D-01  3.00D+00  1.52D+00
                    CP:  3.00D+00  6.26D-01  2.00D+00 -3.00D+00 -3.00D+00
                    CP:  4.15D-01
     ILin= 2 X=4.000D-01 Y=-4.587375092062D+03 DE=-7.56D-02 F= -1.14D-02
 RMSU=  3.81D-05    CP:  9.71D-01  1.20D-02  2.45D-01  3.00D+00  1.67D+00
                    CP:  3.00D+00  1.40D+00  2.04D+00 -3.00D+00 -3.00D+00
                    CP:  4.04D-01  1.75D+00
     ILin= 3 X=7.000D-01 Y=-4.587334363248D+03 DE=-3.49D-02 F=  2.89D-01
     An  expanding polynomial of degree  3 produced  0.4037
     Minimum is close to point  2 DX=  3.68D-03 DF= -6.27D-06 DXR=  9.10D-03 DFR=  8.29D-05 which will be used.
 Iteration   5 EE= -4587.37509206178     Delta-E=       -0.075589220574 Grad=3.552D-01 Max rot=    2.5096 deg.
 Gradient too large for Newton-Raphson -- use scaled steepest descent instead.
 Alpha Gap=     0.268 HL deriv= 7.39D-02
  Beta Gap=     0.043 HL deriv= 6.28D-03
     ILin= 1 X=0.000D+00 Y=-4.587375092062D+03 DE= 0.00D+00 F= -1.44D-01
 RMSU=  7.88D-05    CP:  9.75D-01  1.34D-02  2.72D-01  3.00D+00  1.51D+00
                    CP:  3.00D+00  9.42D-01  2.65D+00 -1.11D+00 -3.00D+00
                    CP:  1.20D+00  9.56D-01  4.62D-01
     ILin= 2 X=4.000D-01 Y=-4.587404869227D+03 DE=-2.98D-02 F= -7.63D-03
 RMSU=  2.00D-05    CP:  9.75D-01  7.65D-03  1.81D-01  2.96D+00  1.51D+00
                    CP:  3.00D+00  1.15D+00  3.00D+00  3.00D+00 -3.00D+00
                    CP:  1.59D+00  9.24D-01  7.85D-01  1.74D+00
     ILin= 3 X=7.000D-01 Y=-4.587393086605D+03 DE=-1.80D-02 F=  8.48D-02
     An  expanding polynomial of degree  3 produced  0.4291
     Minimum is close to point  2 DX=  2.91D-02 DF= -1.38D-04 DXR=  6.79D-02 DFR=  4.63D-03 which will be used.
 Iteration   6 EE= -4587.40486922733     Delta-E=       -0.029777165546 Grad=3.002D-01 Max rot=    2.2968 deg.
 Gradient too large for Newton-Raphson -- use scaled steepest descent instead.
 Alpha Gap=     0.271 HL deriv= 4.88D-02
  Beta Gap=     0.045 HL deriv= 1.24D-02
     ILin= 1 X=0.000D+00 Y=-4.587404869227D+03 DE= 0.00D+00 F= -5.65D-02
 RMSU=  4.10D-05    CP:  9.73D-01  8.51D-03  1.92D-01  3.00D+00  1.58D+00
                    CP:  3.00D+00  1.28D+00  2.71D+00 -3.00D+00 -3.00D+00
                    CP:  1.49D+00  1.35D+00  8.10D-01  1.26D+00 -5.26D-02
     ILin= 2 X=4.000D-01 Y=-4.587416488314D+03 DE=-1.16D-02 F= -6.03D-04
 RMSU=  4.11D-06    CP:  9.72D-01  5.44D-03  1.31D-01  3.00D+00  1.62D+00
                    CP:  3.00D+00  1.54D+00  2.75D+00 -3.00D+00 -3.00D+00
                    CP:  1.60D+00  1.65D+00  1.25D+00  1.46D+00 -6.79D-02
                    CP:  1.74D+00
     ILin= 3 X=7.000D-01 Y=-4.587409884785D+03 DE=-5.02D-03 F=  4.52D-02
     An  expanding polynomial of degree  3 produced  0.3991
     Minimum is close to point  2 DX= -8.85D-04 DF= -5.71D-08 DXR=  2.22D-03 DFR=  4.92D-06 which will be used.
 Iteration   7 EE= -4587.41648831436     Delta-E=       -0.011619087036 Grad=1.452D-01 Max rot=    0.9478 deg.
 Gradient too large for Newton-Raphson -- use scaled steepest descent instead.
 Alpha Gap=     0.272 HL deriv= 3.27D-02
  Beta Gap=     0.045 HL deriv= 9.24D-03
     ILin= 1 X=0.000D+00 Y=-4.587416488314D+03 DE= 0.00D+00 F= -2.51D-02
 RMSU=  1.44D-05    CP:  9.73D-01  5.85D-03  1.43D-01  3.00D+00  1.57D+00
                    CP:  3.00D+00  1.36D+00  2.97D+00 -4.51D-01 -3.00D+00
                    CP:  1.74D+00  1.32D+00  1.00D+00  1.81D+00 -4.60D-03
                    CP:  1.12D+00  7.48D-01
     ILin= 2 X=4.000D-01 Y=-4.587421667588D+03 DE=-5.18D-03 F= -1.02D-03
 RMSU=  6.42D-06    CP:  9.73D-01  3.50D-03  9.19D-02  2.98D+00  1.56D+00
                    CP:  3.00D+00  1.44D+00  3.00D+00  2.75D+00 -3.00D+00
                    CP:  1.94D+00  1.29D+00  1.18D+00  2.36D+00  1.85D+00
                    CP:  1.26D+00  6.07D-01  1.90D+00
     ILin= 3 X=8.000D-01 Y=-4.587417459375D+03 DE=-9.71D-04 F=  2.19D-02
     An  expanding polynomial of degree  3 produced  0.4207
     Minimum is close to point  2 DX=  2.07D-02 DF= -1.26D-05 DXR=  4.92D-02 DFR=  2.42D-03 which will be used.
 Iteration   8 EE= -4587.42166758811     Delta-E=       -0.005179273750 Grad=1.213D-01 Max rot=    0.9723 deg.
 Gradient too large for Newton-Raphson -- use scaled steepest descent instead.
 Alpha Gap=     0.271 HL deriv= 2.21D-02
  Beta Gap=     0.046 HL deriv= 9.45D-03
     ILin= 1 X=0.000D+00 Y=-4.587421667588D+03 DE= 0.00D+00 F= -1.17D-02
 RMSU=  7.85D-06    CP:  9.72D-01  4.33D-03  1.09D-01  3.00D+00  1.59D+00
                    CP:  3.00D+00  1.49D+00  3.00D+00 -8.37D-01 -3.00D+00
                    CP:  1.88D+00  1.49D+00  1.19D+00  2.00D+00  1.95D-03
                    CP:  1.83D+00  1.41D+00  1.45D+00  7.18D-02
     ILin= 2 X=4.000D-01 Y=-4.587424216993D+03 DE=-2.55D-03 F= -9.07D-04
 Restarting incremental Fock formation.
     ILin= 3 X=8.000D-01 Y=-4.587422280634D+03 DE=-6.13D-04 F=  1.07D-02
     An  expanding polynomial of degree  3 produced  0.4273
     Minimum is close to point  2 DX=  2.73D-02 DF= -1.05D-05 DXR=  6.40D-02 DFR=  4.11D-03 which will be used.
 Iteration   9 EE= -4587.42421699339     Delta-E=       -0.002549405275 Grad=6.888D-02 Max rot=    0.8835 deg.
 Gradient too large for Newton-Raphson -- use scaled steepest descent instead.
 Alpha Gap=     0.271 HL deriv= 1.50D-02
  Beta Gap=     0.047 HL deriv= 8.39D-03
     ILin= 1 X=0.000D+00 Y=-4.587424216993D+03 DE= 0.00D+00 F= -6.32D-03
 RMSU=  6.77D-05    CP:  1.00D+00
     ILin= 2 X=4.000D-01 Y=-4.587425749598D+03 DE=-1.53D-03 F= -1.37D-03
 RMSU=  5.40D-05    CP:  1.00D+00  9.60D-01
     ILin= 3 X=8.000D-01 Y=-4.587425327258D+03 DE=-1.11D-03 F=  3.45D-03
     An  expanding polynomial of degree  3 produced  0.5136
 RMSU=  1.65D-07    CP:  1.00D+00  9.89D-01  2.84D-01
 Iteration  10 EE= -4587.42582606426     Delta-E=       -0.001609070867 Grad=7.940D-02 Max rot=    1.0974 deg.
 Gradient too large for Newton-Raphson -- use scaled steepest descent instead.
 Alpha Gap=     0.269 HL deriv= 8.93D-03
  Beta Gap=     0.047 HL deriv= 7.72D-03
     ILin= 1 X=0.000D+00 Y=-4.587425826064D+03 DE= 0.00D+00 F= -6.06D-03
 RMSU=  1.86D-05    CP:  1.00D+00  2.66D-01  7.30D-01 -1.97D+00
     ILin= 2 X=5.000D-01 Y=-4.587426873670D+03 DE=-1.05D-03 F=  1.97D-03
     Accept linear search using points  1 and  2.
     An  expanding polynomial of degree  2 produced  0.2883
 RMSU=  1.76D-07    CP:  1.00D+00  5.72D-01  5.41D-01  2.26D-01  5.76D-01
 Iteration  11 EE= -4587.42692125188     Delta-E=       -0.001095187625 Grad=3.351D-02 Max rot=    1.0337 deg.
 Gradient too large for Newton-Raphson -- use scaled steepest descent instead.
 Alpha Gap=     0.269 HL deriv= 6.96D-03
  Beta Gap=     0.048 HL deriv= 7.25D-03
     ILin= 1 X=0.000D+00 Y=-4.587426921252D+03 DE= 0.00D+00 F= -2.50D-03
 RMSU=  3.18D-06    CP:  1.00D+00  5.25D-01  1.14D+00 -3.00D+00  1.26D+00
                    CP: -6.38D-01
     ILin= 2 X=5.000D-01 Y=-4.587428036474D+03 DE=-1.12D-03 F= -1.96D-03
 RMSU=  1.80D-06    CP:  1.00D+00  4.78D-01  1.74D+00 -3.00D+00  1.95D+00
                    CP: -3.00D+00  2.10D+00
     ILin= 3 X=1.000D+00 Y=-4.587428886486D+03 DE=-1.97D-03 F= -1.44D-03
 RMSU=  6.09D-06    CP:  1.00D+00  3.93D-01  2.81D+00 -3.00D+00  3.00D+00
                    CP: -3.00D+00  3.00D+00  3.00D+00
     ILin= 4 X=1.900D+00 Y=-4.587429771572D+03 DE=-2.85D-03 F= -5.33D-04
     Reject lnstep minimum 4.028D+00 FVal=-4.587430638475D+03 Lims=  1.00D+00  1.90D+00
 RMSU=  1.12D-04    CP:  1.00D+00  2.25D-01  3.00D+00 -3.00D+00  3.00D+00
                    CP: -3.00D+00  3.00D+00  3.00D+00  3.00D+00
     ILin= 5 X=3.700D+00 Y=-4.587429165151D+03 DE=-2.24D-03 F=  1.19D-03
     An  expanding polynomial of degree  5 produced  2.4462
 RMSU=  7.35D-06    CP:  1.00D+00  3.42D-01  3.00D+00 -3.00D+00  3.00D+00
                    CP: -3.00D+00  3.00D+00  3.00D+00  3.00D+00  2.20D-01
 Iteration  12 EE= -4587.42991661194     Delta-E=       -0.002995360064 Grad=1.516D-01 Max rot=    1.6830 deg.
 Gradient too large for Newton-Raphson -- use scaled steepest descent instead.
 Alpha Gap=     0.261 HL deriv= 6.05D-03
  Beta Gap=     0.052 HL deriv= 2.68D-03
     ILin= 1 X=0.000D+00 Y=-4.587429916612D+03 DE= 0.00D+00 F= -2.05D-02
 RMSU=  6.85D-05    CP:  9.99D-01 -1.07D+00  2.20D+00 -3.00D+00  3.00D+00
                    CP: -3.00D+00  3.00D+00  3.00D+00  3.00D+00  2.12D-01
                    CP: -1.31D+00
     ILin= 2 X=8.000D-01 Y=-4.587419840513D+03 DE= 1.01D-02 F=  4.76D-02
     Reject lnstep minimum 2.974D-01 FVal=-4.587433886132D+03 Lims=  0.00D+00  8.00D-01
 RMSU=  2.11D-06    CP:  1.00D+00 -1.87D-01  2.98D+00 -3.00D+00  3.00D+00
                    CP: -3.00D+00  3.00D+00  3.00D+00  3.00D+00  9.13D-02
                    CP: -2.80D-01  4.41D-01
     ILin= 3 X=3.000D-01 Y=-4.587432477468D+03 DE=-2.56D-03 F=  3.68D-03
     A contracting polynomial of degree  3 produced  0.2510
 RMSU=  2.44D-08    CP:  1.00D+00 -1.00D-01  3.00D+00 -3.00D+00  3.00D+00
                    CP: -3.00D+00  3.00D+00  3.00D+00  3.00D+00  1.06D-01
                    CP: -9.22D-02  3.72D-01  8.97D-01
 Iteration  13 EE= -4587.43255838641     Delta-E=       -0.002641774463 Grad=4.309D-02 Max rot=    1.3717 deg.
 Gradient too large for Newton-Raphson -- use scaled steepest descent instead.
 Alpha Gap=     0.262 HL deriv= 4.79D-03
  Beta Gap=     0.051 HL deriv= 3.06D-03
     ILin= 1 X=0.000D+00 Y=-4.587432558386D+03 DE= 0.00D+00 F= -3.08D-03
 RMSU=  5.62D-05    CP:  1.00D+00  1.65D+00  2.39D+00 -3.00D+00  3.00D+00
                    CP: -3.00D+00  3.00D+00  3.00D+00  3.00D+00  3.75D-01
                    CP: -3.00D+00  1.41D+00 -3.00D+00  3.00D+00
     ILin= 2 X=2.400D+00 Y=-4.587436789309D+03 DE=-4.23D-03 F= -6.26D-04
 RMSU=  4.60D-05    CP:  1.00D+00  3.00D+00  1.63D+00 -3.00D+00  3.00D+00
                    CP: -3.00D+00  3.00D+00  3.00D+00  3.00D+00  6.86D-01
                    CP: -3.00D+00  2.37D+00 -3.00D+00  3.00D+00  2.32D+00
     ILin= 3 X=4.900D+00 Y=-4.587436137410D+03 DE=-3.58D-03 F=  1.04D-03
     An  expanding polynomial of degree  3 produced  3.3343
 RMSU=  7.15D-06    CP:  1.00D+00  2.33D+00  2.11D+00 -3.00D+00  3.00D+00
                    CP: -3.00D+00  3.00D+00  3.00D+00  3.00D+00  4.92D-01
                    CP: -3.00D+00  1.78D+00 -3.00D+00  3.00D+00  1.50D+00
                    CP:  1.60D-01
 Iteration  14 EE= -4587.43703740782     Delta-E=       -0.004479021409 Grad=2.497D-01 Max rot=    2.8014 deg.
 Gradient too large for Newton-Raphson -- use scaled steepest descent instead.
 Alpha Gap=     0.255 HL deriv= 8.10D-03
  Beta Gap=     0.065 HL deriv= 4.01D-04
     ILin= 1 X=0.000D+00 Y=-4.587437037408D+03 DE= 0.00D+00 F= -4.94D-02
 RMSU=  4.59D-05    CP:  9.99D-01 -1.25D+00  1.86D+00 -3.00D+00  3.00D+00
                    CP: -3.00D+00  3.00D+00  3.00D+00  3.00D+00  5.66D-01
                    CP: -3.00D+00  2.15D+00 -3.00D+00  3.00D+00  1.65D+00
                    CP:  4.35D-01  2.99D+00
     ILin= 2 X=9.000D-01 Y=-4.587398222640D+03 DE= 3.88D-02 F=  1.44D-01
     Reject lnstep minimum 2.795D-01 FVal=-4.587444941698D+03 Lims=  0.00D+00  9.00D-01
 RMSU=  2.44D-06    CP:  1.00D+00  1.14D+00  2.03D+00 -3.00D+00  3.00D+00
                    CP: -3.00D+00  3.00D+00  3.00D+00  3.00D+00  5.17D-01
                    CP: -3.00D+00  1.91D+00 -3.00D+00  3.00D+00  1.56D+00
                    CP:  2.27D-01  1.50D+00  3.38D-01
     ILin= 3 X=3.000D-01 Y=-4.587443150562D+03 DE=-6.11D-03 F=  9.58D-03
     A contracting polynomial of degree  3 produced  0.2463
 RMSU=  2.73D-09    CP:  1.00D+00  1.35D+00  2.04D+00 -3.00D+00  3.00D+00
                    CP: -3.00D+00  3.00D+00  3.00D+00  3.00D+00  5.12D-01
                    CP: -3.00D+00  1.88D+00 -3.00D+00  3.00D+00  1.55D+00
                    CP:  2.13D-01  1.40D+00  2.78D-01  8.94D-01
 Iteration  15 EE= -4587.44336997524     Delta-E=       -0.006332567420 Grad=5.650D-02 Max rot=    1.9249 deg.
 Gradient too large for Newton-Raphson -- use scaled steepest descent instead.
 Alpha Gap=     0.257 HL deriv= 6.50D-03
  Beta Gap=     0.060 HL deriv= 5.36D-04
     ILin= 1 X=0.000D+00 Y=-4.587443369975D+03 DE= 0.00D+00 F= -5.64D-03
 Restarting incremental Fock formation.
     ILin= 2 X=3.300D+00 Y=-4.587455532127D+03 DE=-1.22D-02 F= -2.00D-03
 RMSU=  2.43D-04    CP:  1.00D+00
     ILin= 3 X=6.300D+00 Y=-4.587457413531D+03 DE=-1.40D-02 F=  8.00D-04
 RMSU=  1.20D-04    CP:  1.00D+00  2.87D+00
     ILin= 4 X=1.200D+01 Y=-4.587433090655D+03 DE= 1.03D-02 F=  8.36D-03
     An  expanding polynomial of degree  4 produced  5.4143
 RMSU=  7.37D-07    CP:  1.00D+00  7.04D-01 -3.78D-02
 Iteration  16 EE= -4587.45773368619     Delta-E=       -0.014363710958 Grad=3.452D-01 Max rot=    4.1156 deg.
 Gradient too large for Newton-Raphson -- use scaled steepest descent instead.
 Alpha Gap=     0.246 HL deriv= 2.27D-02
  Beta Gap=     0.110 HL deriv= 1.13D-02
     ILin= 1 X=0.000D+00 Y=-4.587457733686D+03 DE= 0.00D+00 F= -1.01D-01
 RMSU=  3.01D-04    CP:  9.97D-01 -4.45D-01 -1.37D-01 -3.00D+00
     ILin= 2 X=1.200D+00 Y=-4.587326152298D+03 DE= 1.32D-01 F=  3.33D-01
     Reject lnstep minimum 2.371D-01 FVal=-4.587467543016D+03 Lims=  0.00D+00  1.20D+00
 RMSU=  4.78D-06    CP:  1.00D+00  5.10D-01 -8.02D-02 -3.00D+00  1.62D-01
     ILin= 3 X=2.000D-01 Y=-4.587471239344D+03 DE=-1.35D-02 F= -3.40D-02
     A contracting polynomial of degree  3 produced  0.2906
 RMSU=  7.32D-07    CP:  1.00D+00  4.23D-01 -9.60D-02 -3.00D+00  2.38D-01
                    CP:  1.28D+00
 Iteration  17 EE= -4587.47292241719     Delta-E=       -0.015188730995 Grad=1.247D-01 Max rot=    1.9451 deg.
 Gradient too large for Newton-Raphson -- use scaled steepest descent instead.
 Alpha Gap=     0.251 HL deriv= 1.71D-02
  Beta Gap=     0.082 HL deriv= 2.96D-03
     ILin= 1 X=0.000D+00 Y=-4.587472922417D+03 DE= 0.00D+00 F= -5.63D-02
 RMSU=  6.83D-04    CP:  1.00D+00 -3.14D-01  3.00D+00 -3.00D+00  1.22D+00
                    CP: -3.00D+00  3.00D+00
     ILin= 2 X=2.300D+00 Y=-4.587465627571D+03 DE= 7.29D-03 F= -3.30D-02
 RMSU=  1.04D-04    CP:  1.00D+00  1.80D-01  1.71D+00 -3.00D+00  1.29D+00
                    CP: -3.00D+00  3.00D+00  7.19D-01
     ILin= 3 X=1.600D+00 Y=-4.587461714953D+03 DE= 1.12D-02 F=  2.42D-02
 RMSU=  1.33D-05    CP:  1.00D+00  3.49D-01  9.73D-01 -3.00D+00  1.16D+00
                    CP: -3.00D+00  3.00D+00  5.28D-01  1.21D+00
     ILin= 4 X=1.200D+00 Y=-4.587475286286D+03 DE=-2.36D-03 F=  3.85D-02
     A contracting polynomial of degree  4 produced  0.5291
 RMSU=  6.28D-06    CP:  1.00D+00  4.53D-01  8.72D-02 -3.00D+00  7.11D-01
                    CP: -3.00D+00  3.00D+00  2.07D-01  8.54D-01  1.91D+00
 Iteration  18 EE= -4587.49025432074     Delta-E=       -0.017331903549 Grad=3.247D-01 Max rot=    2.2768 deg.
 Gradient too large for Newton-Raphson -- use scaled steepest descent instead.
 Alpha Gap=     0.246 HL deriv= 9.28D-03
  Beta Gap=     0.041 HL deriv= 1.63D-03
     ILin= 1 X=0.000D+00 Y=-4.587490254321D+03 DE= 0.00D+00 F= -9.13D-02
 RMSU=  1.16D-04    CP:  1.00D+00  3.94D-01 -9.31D-03 -3.00D+00  5.98D-01
                    CP: -3.00D+00  3.00D+00  3.24D-01  6.92D-01  3.00D+00
                    CP:  8.99D-01
     ILin= 2 X=4.000D-01 Y=-4.587496612634D+03 DE=-6.36D-03 F=  5.87D-02
     Accept linear search using points  1 and  2.
     An  expanding polynomial of degree  2 produced  0.2038
 RMSU=  3.98D-06    CP:  1.00D+00  4.24D-01  3.40D-02 -3.00D+00  6.54D-01
                    CP: -3.00D+00  3.00D+00  2.66D-01  7.74D-01  3.00D+00
                    CP:  9.54D-01  4.58D-01
 Iteration  19 EE= -4587.50099388366     Delta-E=       -0.010739562920 Grad=8.455D-02 Max rot=    1.3037 deg.
 Gradient too large for Newton-Raphson -- use scaled steepest descent instead.
 Alpha Gap=     0.247 HL deriv= 7.88D-03
  Beta Gap=     0.093 HL deriv= 3.04D-03
     ILin= 1 X=0.000D+00 Y=-4.587500993884D+03 DE= 0.00D+00 F= -2.43D-02
 RMSU=  2.14D-05    CP:  1.00D+00  4.81D-01  2.92D-01 -3.00D+00  8.68D-01
                    CP: -3.00D+00  3.00D+00  4.07D-01  9.07D-01  3.00D+00
                    CP:  8.80D-01  7.22D-01  8.96D-01
     ILin= 2 X=5.000D-01 Y=-4.587510876986D+03 DE=-9.88D-03 F= -1.53D-02
 RMSU=  1.46D-06    CP:  1.00D+00  4.96D-01  4.26D-01 -3.00D+00  9.45D-01
                    CP: -3.00D+00  3.00D+00  4.66D-01  9.26D-01  3.00D+00
                    CP:  9.23D-01  8.16D-01  1.06D+00  1.41D+00
     ILin= 3 X=7.000D-01 Y=-4.587513599842D+03 DE=-1.26D-02 F= -1.20D-02
 RMSU=  2.48D-06    CP:  1.00D+00  5.11D-01  7.42D-01 -3.00D+00  1.08D+00
                    CP: -3.00D+00  3.00D+00  5.84D-01  9.04D-01  3.00D+00
                    CP:  1.13D+00  9.90D-01  1.66D+00  2.22D+00  3.00D+00
     ILin= 4 X=1.100D+00 Y=-4.587517261579D+03 DE=-1.63D-02 F= -6.65D-03
 RMSU=  3.64D-06    CP:  1.00D+00  5.03D-01  1.11D+00 -3.00D+00  1.18D+00
                    CP: -3.00D+00  3.00D+00  7.04D-01  7.99D-01  3.00D+00
                    CP:  1.46D+00  1.15D+00  2.44D+00  3.00D+00  3.00D+00
                    CP:  3.00D+00
     ILin= 5 X=1.500D+00 Y=-4.587519223409D+03 DE=-1.82D-02 F= -3.54D-03
 RMSU=  2.57D-05    CP:  1.00D+00  4.45D-01  1.72D+00 -3.00D+00  1.28D+00
                    CP: -3.00D+00  3.00D+00  8.79D-01  4.93D-01  3.00D+00
                    CP:  2.16D+00  1.40D+00  3.00D+00  3.00D+00  3.00D+00
                    CP:  3.00D+00  3.00D+00
     ILin= 6 X=2.100D+00 Y=-4.587520909411D+03 DE=-1.99D-02 F= -2.67D-03
 RMSU=  2.21D-05    CP:  1.00D+00  2.57D-01  2.67D+00 -3.00D+00  1.27D+00
                    CP: -3.00D+00  3.00D+00  1.12D+00 -2.59D-01  3.00D+00
                    CP:  3.00D+00  1.83D+00  3.00D+00  3.00D+00  3.00D+00
                    CP:  3.00D+00  3.00D+00  2.66D+00
     ILin= 7 X=3.000D+00 Y=-4.587523277416D+03 DE=-2.23D-02 F= -1.15D-03
 RMSU=  9.17D-05    CP:  1.00D+00 -1.51D-01  3.00D+00 -3.00D+00  1.01D+00
                    CP: -3.00D+00  3.00D+00  1.37D+00 -1.62D+00  3.00D+00
                    CP:  3.00D+00  2.67D+00 -3.00D+00  3.00D+00  3.00D+00
                    CP:  3.00D+00  3.00D+00  3.00D+00  3.00D+00
     ILin= 8 X=4.200D+00 Y=-4.587507747073D+03 DE=-6.75D-03 F=  3.77D-02
     An  expanding polynomial of degree  8 produced  3.1082
     Minimum is close to point  7 DX=  1.08D-01 DF= -6.46D-05 DXR=  3.48D-02 DFR=  2.90D-03 which will be used.
 Iteration  20 EE= -4587.52327741569     Delta-E=       -0.022283532035 Grad=2.709D-01 Max rot=    1.8879 deg.
 Gradient too large for Newton-Raphson -- use scaled steepest descent instead.
 Alpha Gap=     0.244 HL deriv= 1.18D-02
  Beta Gap=     0.025 HL deriv= 1.47D-03
     ILin= 1 X=0.000D+00 Y=-4.587523277416D+03 DE= 0.00D+00 F= -4.36D-02
 Restarting incremental Fock formation.
     ILin= 2 X=8.000D-01 Y=-4.587519928589D+03 DE= 3.35D-03 F=  5.42D-02
     Reject lnstep minimum 3.806D-01 FVal=-4.587533857190D+03 Lims=  0.00D+00  8.00D-01
 RMSU=  8.98D-05    CP:  9.99D-01
     ILin= 3 X=4.000D-01 Y=-4.587531392248D+03 DE=-8.11D-03 F=  3.62D-03
     A contracting polynomial of degree  3 produced  0.3658
     Minimum is close to point  3 DX= -3.42D-02 DF= -7.16D-05 DXR=  9.35D-02 DFR=  8.82D-03 which will be used.
 Iteration  21 EE= -4587.53139224825     Delta-E=       -0.008114832555 Grad=8.695D-02 Max rot=    0.6858 deg.
 Gradient too large for Newton-Raphson -- use scaled steepest descent instead.
 Alpha Gap=     0.240 HL deriv= 7.64D-03
  Beta Gap=     0.121 HL deriv= 4.06D-03
     ILin= 1 X=0.000D+00 Y=-4.587531392248D+03 DE= 0.00D+00 F= -5.82D-03
 RMSU=  1.25D-04    CP:  9.98D-01  4.69D-01
     ILin= 2 X=1.100D+00 Y=-4.587531937120D+03 DE=-5.45D-04 F=  4.79D-03
     Accept linear search using points  1 and  2.
     An  expanding polynomial of degree  2 produced  0.6079
 RMSU=  1.11D-06    CP:  9.99D-01  7.07D-01  5.53D-01
 Iteration  22 EE= -4587.53313544135     Delta-E=       -0.001743193101 Grad=6.139D-02 Max rot=    0.4512 deg.
 Gradient too large for Newton-Raphson -- use scaled steepest descent instead.
 Alpha Gap=     0.242 HL deriv= 3.74D-03
  Beta Gap=     0.086 HL deriv= 2.35D-03
     ILin= 1 X=0.000D+00 Y=-4.587533135441D+03 DE= 0.00D+00 F= -3.48D-03
 RMSU=  1.21D-05    CP:  9.99D-01  3.48D-01  5.90D-01  1.62D-01
     ILin= 2 X=5.000D-01 Y=-4.587533943667D+03 DE=-8.08D-04 F=  2.86D-04
     Accept linear search using points  1 and  2.
     An  expanding polynomial of degree  2 produced  0.3346
 RMSU=  1.43D-07    CP:  9.99D-01  4.67D-01  5.78D-01  5.31D-01  6.69D-01
 Iteration  23 EE= -4587.53388548318     Delta-E=       -0.000750041836 Grad=1.949D-02 Max rot=    0.3271 deg.
 Gradient too large for Newton-Raphson -- use scaled steepest descent instead.
 Alpha Gap=     0.241 HL deriv= 2.69D-03
  Beta Gap=     0.107 HL deriv= 1.92D-03
     ILin= 1 X=0.000D+00 Y=-4.587533885483D+03 DE= 0.00D+00 F= -1.03D-03
 RMSU=  3.72D-06    CP:  9.99D-01  3.40D-01  7.13D-01 -2.49D-01  1.44D+00
                    CP: -2.02D+00
     ILin= 2 X=5.000D-01 Y=-4.587534353819D+03 DE=-4.68D-04 F= -8.44D-04
 RMSU=  5.17D-07    CP:  9.98D-01  2.39D-01  8.20D-01 -1.18D+00  2.05D+00
                    CP: -3.00D+00  1.80D+00
     ILin= 3 X=9.000D-01 Y=-4.587534661903D+03 DE=-7.76D-04 F= -6.97D-04
 RMSU=  3.94D-06    CP:  9.98D-01  3.85D-02  1.03D+00 -3.00D+00  3.00D+00
                    CP: -3.00D+00  3.00D+00  3.00D+00
     ILin= 4 X=1.700D+00 Y=-4.587535102183D+03 DE=-1.22D-03 F= -4.05D-04
 RMSU=  2.57D-05    CP:  9.98D-01 -3.59D-01  1.46D+00 -3.00D+00  3.00D+00
                    CP: -3.00D+00  3.00D+00  3.00D+00  3.00D+00
     ILin= 5 X=3.300D+00 Y=-4.587535287848D+03 DE=-1.40D-03 F=  1.71D-04
     Accept linear search using points  4 and  5.
     An  expanding polynomial of degree  5 produced  3.0091
     Minimum is close to point  5 DX= -2.91D-01 DF= -1.50D-05 DXR=  9.67D-02 DFR=  1.07D-02 which will be used.
 Iteration  24 EE= -4587.53528784789     Delta-E=       -0.001402364705 Grad=5.779D-02 Max rot=    0.4728 deg.
 Gradient too large for Newton-Raphson -- use scaled steepest descent instead.
 Alpha Gap=     0.242 HL deriv= 4.64D-03
  Beta Gap=     0.099 HL deriv= 2.17D-03
     ILin= 1 X=0.000D+00 Y=-4.587535287848D+03 DE= 0.00D+00 F= -2.45D-03
 RMSU=  1.98D-05    CP:  9.99D-01 -1.79D-01  9.68D-01 -3.00D+00  3.00D+00
                    CP: -3.00D+00  3.00D+00  3.00D+00  3.00D+00  2.31D+00
     ILin= 2 X=1.000D+00 Y=-4.587535448348D+03 DE=-1.60D-04 F=  2.13D-03
     Accept linear search using points  1 and  2.
     An  expanding polynomial of degree  2 produced  0.5351
 RMSU=  3.43D-07    CP:  9.98D-01 -2.63D-01  1.20D+00 -3.00D+00  3.00D+00
                    CP: -3.00D+00  3.00D+00  3.00D+00  3.00D+00  1.70D+00
                    CP:  5.40D-01
 Iteration  25 EE= -4587.53594363614     Delta-E=       -0.000655788252 Grad=3.551D-02 Max rot=    0.2633 deg.
 Gradient too large for Newton-Raphson -- use scaled steepest descent instead.
 Alpha Gap=     0.241 HL deriv= 2.53D-03
  Beta Gap=     0.120 HL deriv= 2.42D-03
     ILin= 1 X=0.000D+00 Y=-4.587535943636D+03 DE= 0.00D+00 F= -1.39D-03
 RMSU=  2.11D-05    CP:  9.98D-01  2.42D-01  1.18D+00 -3.00D+00  3.00D+00
                    CP: -3.00D+00  3.00D+00  3.00D+00  3.00D+00  2.55D+00
                    CP:  1.52D+00 -3.00D+00
     ILin= 2 X=1.300D+00 Y=-4.587535508475D+03 DE= 4.35D-04 F=  2.03D-03
     Reject lnstep minimum 4.677D-01 FVal=-4.587536188242D+03 Lims=  0.00D+00  1.30D+00
 RMSU=  4.63D-07    CP:  9.98D-01 -6.91D-02  1.19D+00 -3.00D+00  3.00D+00
                    CP: -3.00D+00  3.00D+00  3.00D+00  3.00D+00  2.03D+00
[...]
              Bcc     0.0074     0.992     0.354     0.331  0.1387  0.9524 -0.2713
 
              Baa    -0.0020    -0.274    -0.098    -0.091 -0.2962  0.7955  0.5286
    45 C(13)  Bbb    -0.0015    -0.195    -0.070    -0.065  0.9393  0.1423  0.3121
              Bcc     0.0035     0.469     0.168     0.157 -0.1731 -0.5890  0.7894
 
              Baa    -0.0009    -0.118    -0.042    -0.039  0.8101  0.2014  0.5506
    46 C(13)  Bbb    -0.0005    -0.063    -0.023    -0.021 -0.4464  0.8208  0.3565
              Bcc     0.0013     0.181     0.065     0.060 -0.3802 -0.5346  0.7548
 
              Baa    -0.0006    -0.329    -0.117    -0.110 -0.1850  0.7644  0.6176
    47 H(1)   Bbb    -0.0006    -0.311    -0.111    -0.104  0.8529 -0.1873  0.4874
              Bcc     0.0012     0.640     0.229     0.214 -0.4882 -0.6169  0.6173
 
              Baa    -0.0006    -0.080    -0.028    -0.027 -0.6494  0.7328  0.2032
    48 C(13)  Bbb    -0.0004    -0.052    -0.018    -0.017  0.7159  0.4990  0.4882
              Bcc     0.0010     0.131     0.047     0.044 -0.2564 -0.4626  0.8487
 
              Baa    -0.0003    -0.164    -0.058    -0.055 -0.6829  0.7046  0.1930
    49 H(1)   Bbb    -0.0003    -0.156    -0.056    -0.052  0.6646  0.4895  0.5646
              Bcc     0.0006     0.320     0.114     0.107 -0.3033 -0.5138  0.8025
 
              Baa    -0.0006    -0.086    -0.031    -0.029  0.8078  0.5043  0.3050
    50 C(13)  Bbb    -0.0001    -0.018    -0.006    -0.006 -0.5867  0.7380  0.3335
              Bcc     0.0008     0.104     0.037     0.035 -0.0569 -0.4484  0.8920
 
              Baa    -0.0003    -0.175    -0.062    -0.058  0.9147  0.3653  0.1727
    51 H(1)   Bbb    -0.0003    -0.168    -0.060    -0.056 -0.4031  0.8552  0.3258
              Bcc     0.0006     0.343     0.122     0.114 -0.0287 -0.3676  0.9295
 
              Baa    -0.0009    -0.126    -0.045    -0.042 -0.5270  0.7840  0.3280
    52 C(13)  Bbb    -0.0007    -0.096    -0.034    -0.032  0.8493  0.4997  0.1703
              Bcc     0.0017     0.222     0.079     0.074  0.0304 -0.3683  0.9292
 
              Baa    -0.0007    -0.369    -0.132    -0.123 -0.3439  0.8789  0.3305
    53 H(1)   Bbb    -0.0007    -0.364    -0.130    -0.121  0.9209  0.3845 -0.0644
              Bcc     0.0014     0.733     0.261     0.244  0.1836 -0.2822  0.9416
 
              Baa    -0.0018    -0.242    -0.086    -0.081  0.9760  0.1810  0.1211
    54 C(13)  Bbb    -0.0015    -0.197    -0.070    -0.066 -0.2174  0.8424  0.4931
              Bcc     0.0033     0.439     0.157     0.147 -0.0127 -0.5076  0.8615
 
              Baa    -0.0032    -1.688    -0.602    -0.563 -0.0404  0.9031  0.4276
    55 H(1)   Bbb    -0.0030    -1.575    -0.562    -0.525  0.9902  0.0934 -0.1037
              Bcc     0.0061     3.263     1.164     1.088  0.1335 -0.4192  0.8980
 
              Baa    -0.0039    -0.526    -0.188    -0.176 -0.1938  0.5013  0.8433
    56 C(13)  Bbb    -0.0033    -0.446    -0.159    -0.149  0.9525 -0.1098  0.2842
              Bcc     0.0072     0.972     0.347     0.324  0.2351  0.8583 -0.4562
 
              Baa    -0.0036    -1.918    -0.684    -0.640  0.8747  0.1226  0.4689
    57 H(1)   Bbb    -0.0035    -1.878    -0.670    -0.626 -0.4847  0.2249  0.8453
              Bcc     0.0071     3.796     1.354     1.266  0.0018  0.9666 -0.2561
 
              Baa    -0.0017    -0.894    -0.319    -0.298 -0.2743  0.5692  0.7751
    58 H(1)   Bbb    -0.0016    -0.876    -0.313    -0.292  0.9388 -0.0163  0.3442
              Bcc     0.0033     1.770     0.632     0.590  0.2085  0.8221 -0.5298
 
              Baa    -0.0043    -0.577    -0.206    -0.193 -0.3704  0.4710  0.8006
    59 C(13)  Bbb    -0.0033    -0.438    -0.156    -0.146  0.7447 -0.3645  0.5590
              Bcc     0.0076     1.015     0.362     0.339  0.5551  0.8033 -0.2157
 
              Baa    -0.0016    -0.213    -0.076    -0.071 -0.2706  0.7328 -0.6243
    60 C(13)  Bbb    -0.0012    -0.164    -0.059    -0.055 -0.4411  0.4821  0.7570
              Bcc     0.0028     0.378     0.135     0.126  0.8557  0.4802  0.1928
 
              Baa    -0.0009    -0.454    -0.162    -0.151 -0.4380  0.4823  0.7586
    61 H(1)   Bbb    -0.0008    -0.434    -0.155    -0.145 -0.1276  0.8019 -0.5836
              Bcc     0.0017     0.888     0.317     0.296  0.8899  0.3525  0.2897
 
              Baa    -0.0043    -0.574    -0.205    -0.191 -0.4358  0.5655  0.7002
    62 C(13)  Bbb    -0.0031    -0.414    -0.148    -0.138 -0.0959  0.7443 -0.6609
              Bcc     0.0074     0.988     0.352     0.329  0.8949  0.3552  0.2701
 
              Baa    -0.0020    -0.274    -0.098    -0.091  0.5397  0.6554 -0.5284
    63 C(13)  Bbb    -0.0015    -0.196    -0.070    -0.066 -0.5924  0.7416  0.3148
              Bcc     0.0035     0.471     0.168     0.157  0.5982  0.1431  0.7885
 
              Baa    -0.0018    -0.240    -0.086    -0.080 -0.6526  0.7464  0.1304
    64 C(13)  Bbb    -0.0015    -0.196    -0.070    -0.065  0.6114  0.6204 -0.4912
              Bcc     0.0033     0.437     0.156     0.146  0.4476  0.2409  0.8612
 
              Baa    -0.0031    -1.673    -0.597    -0.558  0.7608  0.4870 -0.4290
    65 H(1)   Bbb    -0.0029    -1.563    -0.558    -0.522 -0.5763  0.8110 -0.1013
              Bcc     0.0061     3.237     1.155     1.080  0.2986  0.3243  0.8976
 
              Baa    -0.0009    -0.126    -0.045    -0.042  0.4186  0.8469 -0.3279
    66 C(13)  Bbb    -0.0007    -0.096    -0.034    -0.032  0.8548 -0.4894 -0.1728
              Bcc     0.0016     0.221     0.079     0.074  0.3068  0.2079  0.9288
 
              Baa    -0.0007    -0.367    -0.131    -0.122  0.5899  0.7364 -0.3312
    67 H(1)   Bbb    -0.0007    -0.362    -0.129    -0.121  0.7922 -0.6073  0.0606
              Bcc     0.0014     0.729     0.260     0.243  0.1565  0.2981  0.9416
 
              Baa    -0.0006    -0.086    -0.031    -0.029  0.8379 -0.4509 -0.3077
    68 C(13)  Bbb    -0.0001    -0.018    -0.006    -0.006  0.3478  0.8754 -0.3358
              Bcc     0.0008     0.104     0.037     0.035  0.4208  0.1743  0.8903
 
              Baa    -0.0003    -0.174    -0.062    -0.058  0.7691 -0.6147 -0.1750
    69 H(1)   Bbb    -0.0003    -0.168    -0.060    -0.056  0.5438  0.7733 -0.3262
              Bcc     0.0006     0.342     0.122     0.114  0.3358  0.1558  0.9290
 
              Baa    -0.0006    -0.079    -0.028    -0.027  0.3090  0.9299 -0.1995
    70 C(13)  Bbb    -0.0004    -0.052    -0.018    -0.017  0.7894 -0.3678 -0.4916
              Bcc     0.0010     0.131     0.047     0.044  0.5305  0.0056  0.8477
 
              Baa    -0.0003    -0.164    -0.058    -0.055  0.2679  0.9446 -0.1896
    71 H(1)   Bbb    -0.0003    -0.156    -0.056    -0.052  0.7546 -0.3280 -0.5684
              Bcc     0.0006     0.319     0.114     0.107  0.5991 -0.0092  0.8006
 
              Baa    -0.0009    -0.118    -0.042    -0.039 -0.5776  0.5993  0.5543
    72 C(13)  Bbb    -0.0005    -0.063    -0.023    -0.021  0.4888  0.7977 -0.3532
              Bcc     0.0013     0.181     0.065     0.060  0.6538 -0.0669  0.7537
 
              Baa    -0.0006    -0.329    -0.117    -0.110 -0.5681 -0.5439  0.6176
    73 H(1)   Bbb    -0.0006    -0.311    -0.111    -0.104 -0.2620  0.8310  0.4908
              Bcc     0.0012     0.640     0.228     0.214  0.7802 -0.1170  0.6145
 
              Baa    -0.0020    -0.274    -0.098    -0.091  0.8404 -0.1325  0.5255
    74 C(13)  Bbb    -0.0015    -0.196    -0.070    -0.065  0.3388  0.8853 -0.3185
              Bcc     0.0035     0.470     0.168     0.157 -0.4230  0.4457  0.7889
 
              Baa    -0.0018    -0.244    -0.087    -0.081  0.2996  0.9437 -0.1400
    75 C(13)  Bbb    -0.0015    -0.200    -0.071    -0.067  0.8528 -0.1991  0.4827
              Bcc     0.0033     0.443     0.158     0.148 -0.4277  0.2640  0.8645
 
              Baa    -0.0032    -1.718    -0.613    -0.573  0.8060 -0.4169  0.4202
    76 H(1)   Bbb    -0.0030    -1.605    -0.573    -0.535  0.4161  0.9039  0.0987
              Bcc     0.0062     3.323     1.186     1.108 -0.4210  0.0953  0.9020
 
              Baa    -0.0009    -0.118    -0.042    -0.039  0.2174  0.8020 -0.5564
    77 C(13)  Bbb    -0.0005    -0.064    -0.023    -0.021  0.9372 -0.0121  0.3486
              Bcc     0.0014     0.182     0.065     0.061 -0.2729  0.5972  0.7542
 
              Baa    -0.0006    -0.328    -0.117    -0.110  0.7618 -0.2079  0.6135
    78 H(1)   Bbb    -0.0006    -0.311    -0.111    -0.104  0.5763  0.6501 -0.4953
              Bcc     0.0012     0.639     0.228     0.213 -0.2959  0.7309  0.6150
 
              Baa    -0.0032    -0.432    -0.154    -0.144  0.4609  0.8821 -0.0969
    79 C(13)  Bbb    -0.0032    -0.426    -0.152    -0.142  0.7583 -0.4482 -0.4735
              Bcc     0.0064     0.858     0.306     0.286  0.4611 -0.1447  0.8755
 
              Baa    -0.0017    -0.923    -0.329    -0.308  0.3362  0.9394 -0.0671
    80 H(1)   Bbb    -0.0017    -0.914    -0.326    -0.305  0.7157 -0.3012 -0.6301
              Bcc     0.0034     1.837     0.655     0.613  0.6121 -0.1638  0.7736
 
              Baa    -0.0019    -1.032    -0.368    -0.344  0.4651  0.8795 -0.1007
    81 H(1)   Bbb    -0.0019    -1.028    -0.367    -0.343  0.8396 -0.4743 -0.2648
              Bcc     0.0039     2.060     0.735     0.687  0.2807 -0.0387  0.9590
 
              Baa    -0.0016    -0.866    -0.309    -0.289  0.8762  0.1064 -0.4701
    82 H(1)   Bbb    -0.0016    -0.863    -0.308    -0.288 -0.3023  0.8810 -0.3641
              Bcc     0.0032     1.729     0.617     0.577  0.3754  0.4611  0.8040
 
              Baa    -0.0039    -0.528    -0.188    -0.176 -0.3315 -0.4312  0.8391
    83 C(13)  Bbb    -0.0033    -0.445    -0.159    -0.148 -0.3897  0.8726  0.2945
              Bcc     0.0072     0.972     0.347     0.324  0.8592  0.2294  0.4573
 
              Baa    -0.0036    -1.916    -0.684    -0.639 -0.5478  0.6952  0.4654
    84 H(1)   Bbb    -0.0035    -1.877    -0.670    -0.626  0.0474 -0.5296  0.8469
              Bcc     0.0071     3.793     1.353     1.265  0.8353  0.4860  0.2572
 
              Baa    -0.0017    -0.895    -0.319    -0.298 -0.3432 -0.5434  0.7661
    85 H(1)   Bbb    -0.0016    -0.876    -0.313    -0.292 -0.4682  0.8060  0.3620
              Bcc     0.0033     1.771     0.632     0.591  0.8143  0.2345  0.5311
 
              Baa    -0.0043    -0.584    -0.208    -0.195 -0.2208 -0.5554  0.8018
    86 C(13)  Bbb    -0.0033    -0.438    -0.156    -0.146 -0.0631  0.8285  0.5565
              Bcc     0.0076     1.021     0.364     0.341  0.9733 -0.0722  0.2180
 
              Baa    -0.0017    -0.224    -0.080    -0.075  0.0566  0.7694  0.6362
    87 C(13)  Bbb    -0.0013    -0.172    -0.061    -0.057 -0.1984 -0.6159  0.7624
              Bcc     0.0030     0.396     0.141     0.132  0.9785 -0.1694  0.1178
 
              Baa    -0.0009    -0.463    -0.165    -0.154 -0.2091 -0.5111  0.8337
    88 H(1)   Bbb    -0.0008    -0.445    -0.159    -0.149 -0.1002  0.8593  0.5016
              Bcc     0.0017     0.908     0.324     0.303  0.9727 -0.0214  0.2309
 
              Baa    -0.0014    -0.194    -0.069    -0.065 -0.1764 -0.6060  0.7756
    89 C(13)  Bbb    -0.0007    -0.095    -0.034    -0.032  0.2830  0.7235  0.6297
              Bcc     0.0022     0.289     0.103     0.096  0.9428 -0.3306 -0.0439
 
              Baa    -0.0006    -0.296    -0.106    -0.099 -0.1759 -0.6008  0.7798
    90 H(1)   Bbb    -0.0005    -0.276    -0.098    -0.092  0.2808  0.7286  0.6247
              Bcc     0.0011     0.572     0.204     0.191  0.9435 -0.3289 -0.0405
 
              Baa    -0.0016    -0.216    -0.077    -0.072  0.4961  0.6025  0.6251
    91 C(13)  Bbb    -0.0012    -0.165    -0.059    -0.055 -0.1949 -0.6243  0.7565
              Bcc     0.0028     0.381     0.136     0.127  0.8461 -0.4972 -0.1923
 
              Baa    -0.0009    -0.456    -0.163    -0.152 -0.1950 -0.6202  0.7598
    92 H(1)   Bbb    -0.0008    -0.435    -0.155    -0.145  0.6295  0.5149  0.5819
              Bcc     0.0017     0.891     0.318     0.297  0.7522 -0.5917 -0.2900
 
              Baa    -0.0043    -0.580    -0.207    -0.193 -0.2697 -0.6628  0.6985
    93 C(13)  Bbb    -0.0031    -0.416    -0.149    -0.139  0.5946  0.4559  0.6622
              Bcc     0.0074     0.996     0.355     0.332  0.7574 -0.5940 -0.2712
 
              Baa    -0.0009    -0.127    -0.045    -0.042  0.9436  0.0800  0.3214
    94 C(13)  Bbb    -0.0007    -0.097    -0.035    -0.032 -0.0236  0.9841 -0.1758
              Bcc     0.0017     0.224     0.080     0.075 -0.3304  0.1583  0.9305
 
              Baa    -0.0007    -0.373    -0.133    -0.124  0.9369 -0.1307  0.3241
    95 H(1)   Bbb    -0.0007    -0.367    -0.131    -0.122  0.1175  0.9913  0.0600
              Bcc     0.0014     0.740     0.264     0.247 -0.3292 -0.0182  0.9441
 
              Baa    -0.0006    -0.086    -0.031    -0.029 -0.0479  0.9497 -0.3095
    96 C(13)  Bbb    -0.0001    -0.019    -0.007    -0.006  0.9334  0.1529  0.3246
              Bcc     0.0008     0.105     0.037     0.035 -0.3555  0.2733  0.8938
 
              Baa    -0.0003    -0.175    -0.063    -0.058  0.1236  0.9761 -0.1786
    97 H(1)   Bbb    -0.0003    -0.169    -0.060    -0.056  0.9453 -0.0610  0.3206
              Bcc     0.0006     0.344     0.123     0.115 -0.3020  0.2084  0.9302
 
              Baa    -0.0006    -0.080    -0.028    -0.027  0.9572  0.2126  0.1963
    98 C(13)  Bbb    -0.0004    -0.052    -0.019    -0.017 -0.0912  0.8654 -0.4926
              Bcc     0.0010     0.132     0.047     0.044 -0.2746  0.4536  0.8478
 
              Baa    -0.0003    -0.164    -0.059    -0.055  0.9487  0.2560  0.1853
    99 H(1)   Bbb    -0.0003    -0.156    -0.056    -0.052 -0.1090  0.8155 -0.5684
              Bcc     0.0006     0.320     0.114     0.107 -0.2967  0.5191  0.8016
 
              Baa    -0.3346   -31.559   -11.261   -10.527 -0.0059 -0.0068  1.0000
   100 Yb(171 Bbb     0.1574    14.840     5.295     4.950  0.8397  0.5430  0.0086
              Bcc     0.1773    16.719     5.966     5.577 -0.5430  0.8397  0.0025
 

 ---------------------------------------------------------------------------------

 No NMR shielding tensors so no spin-rotation constants.
 Leave Link  601 at Mon Nov 23 19:03:44 2015, MaxMem=  2147483648 cpu:        30.7
 (Enter /home/ik1r11/g09-64-D01/l9999.exe)
 1\1\GINC-GREEN0576\FOpt\UM06\Gen\C42H42N6O6P3Yb1(2)\ROOT\23-Nov-2015\0
 \\#p opt=cartesian m06/Gen guess=mix pseudo=read scf=(tight,qc,vtl) in
 tegral=(grid=ultrafine) scrf=(pcm,solvent=methanol) nosymm\\Parker's L
 2 ligand complex with Yb(III)\\0,2\C,-3.0239342729,-3.6962825039,1.670
 8244461\H,-2.9337129965,-4.6233090601,2.2416112872\C,-4.1173622274,-3.
 4630064952,0.8422645866\H,-4.9141645882,-4.2054122846,0.7569827188\P,1
 .7289717394,2.5112547851,-0.6560648974\P,-3.0380604475,0.234673552,-0.
 6517464359\P,1.3275777921,-2.7546046388,-0.6481759293\O,1.4393299495,1
 .0283422202,-0.2740646087\O,3.0929635223,3.1071258991,-0.3544604506\O,
 -1.6059276248,0.7192587254,-0.2740352931\O,-4.2317834313,1.1214898224,
 -0.3426256143\O,0.184096441,-1.7662519561,-0.2674358748\O,1.1719407899
 ,-4.2338585461,-0.3412398871\N,-1.2687360691,1.0937034697,3.1242893084
 \N,-0.3159252978,-1.6475021608,3.1254121854\N,1.5815480713,0.549726513
 4,3.1290902678\N,-0.2985388589,2.596970097,1.0956434829\N,-2.099657802
 2,-1.5647714059,1.0968763683\N,2.408288999,-1.0342950107,1.1011299916\
 C,-2.1025256784,0.0400820528,3.7259791919\H,-2.6520904848,0.425782257,
 4.6094702461\H,-2.8619625549,-0.2459658517,2.9823034898\C,-1.288220826
 8,-1.1695907463,4.1475061938\H,-1.9863882115,-1.9820576888,4.415799436
 6\H,-0.7432844042,-0.9479361121,5.0776322222\C,1.0114525858,-1.8423075
 967,3.7315197832\H,0.9488675578,-2.5076956234,4.617331243\H,1.63841461
 66,-2.3625641587,2.9918872873\C,1.0843080984,1.795079215,3.7366408271\
 H,1.2239679899,2.5999135505,2.999591011\C,-0.3729943357,1.6960487508,4
 .1503276837\H,-0.7274990378,2.7074842331,4.4167850303\H,-0.4584942301,
 1.1135718702,5.0803323685\C,-2.1387404121,2.1356517802,2.5628274998\H,
 -2.8743393121,1.6633119535,1.8833337855\H,-2.715368859,2.6519972729,3.
 3566145624\C,-1.3398976503,3.1165296949,1.7604844292\C,-1.6846802311,4
 .4623578456,1.6662706064\H,-2.5340332609,4.8478138552,2.2349533709\C,-
 0.9347193954,5.2928598372,0.8389718538\H,-1.1795830899,6.3539878204,0.
 753143872\C,0.1228289078,4.7472347275,0.1197164602\H,0.7288689227,5.35
 53947691,-0.5574681186\C,0.3989151113,3.3909000153,0.2700996456\C,1.27
 90743351,2.6944367186,-2.4082207395\C,2.1010021978,3.4093497297,-3.280
 7053764\H,3.0122104291,3.8745737825,-2.8931823171\C,1.7609926027,3.511
 6170562,-4.6293000723\H,2.4044942583,4.0689307417,-5.3153481525\C,0.60
 12282182,2.8988292293,-5.10283034\H,0.3372536503,2.9781328143,-6.16101
 03382\C,-0.2216677329,2.1823955292,-4.2313958153\H,-1.1256530531,1.688
 9417607,-4.603743296\C,0.114678834,2.0797917457,-2.884447102\H,-0.5209
 664468,1.5154241312,-2.190616705\C,-0.7829998117,-2.9243345779,2.56873
 80717\H,-0.0053358143,-3.328369811,1.8924017035\H,-0.9437106978,-3.678
 146783,3.3657018051\C,-2.0304757701,-2.7249775024,1.7639270382\C,-4.17
 28351794,-2.2750476418,0.1215398991\H,-5.0024622222,-2.0546126068,-0.5
 558417232\C,-3.1357673941,-1.3582854883,0.2712218062\C,-2.979625573,-0
 .2409918405,-2.405095403\C,-1.8688903615,-0.9432125445,-2.8881673321\H
 ,-1.0607236226,-1.2169838343,-2.1982913071\C,-1.7960385276,-1.28069432
 41,-4.2367653124\H,-0.9210174358,-1.8201639015,-4.6145429879\C,-2.8299
 988555,-0.9187745063,-5.1028680753\H,-2.7715030157,-1.1828574396,-6.16
 23533575\C,-3.9366854724,-0.2195588087,-4.6222951648\H,-4.7428559347,0
 .0643182012,-5.3040868412\C,-4.0122501484,0.1198025056,-3.2718757656\H
 ,-4.8681280324,0.6761707645,-2.8782575166\C,1.7037982831,-2.4582228044
 ,-2.4014682411\C,1.7284696121,-1.1426709544,-2.8794351993\H,1.54146213
 62,-0.314046528,-2.1850412942\C,1.9305727516,-3.5251804364,-3.27200081
 05\H,1.897210573,-4.5469594877,-2.8823033276\C,1.6546890771,-0.5322813
 084,4.1502594001\H,2.7079495701,-0.732527801,4.414898429\H,1.193919101
 7,-0.1703944547,5.0820734018\H,1.689067714,2.0711305433,4.6251126359\C
 ,2.9205540039,0.7876330979,2.573418157\H,2.8800799788,1.6631813009,1.8
 968154604\H,3.6525946106,1.0277228368,3.3707922369\C,3.3757691153,-0.3
 908782105,1.7691438485\C,4.7149384366,-0.7604471808,1.6764932294\H,5.4
 702692777,-0.2164664402,2.2482396589\C,5.0641639801,-1.8219802683,0.84
 72275597\H,6.106708582,-2.1370337616,0.7625812526\C,4.0660299549,-2.46
 6932008,0.1252808883\H,4.2934718256,-3.2946120463,-0.5521983767\C,2.75
 16534174,-2.0325300177,0.2744624301\C,1.9803393413,-0.9000483636,-4.22
 68764385\H,1.9872048746,0.1292024386,-4.6011057791\C,2.207868349,-1.96
 8412372,-5.0966613322\H,2.4041631985,-1.7774867762,-6.1553045028\C,2.1
 829169662,-3.2792503437,-4.6213423033\H,2.3581754531,-4.1130868018,-5.
 3064622969\Yb,0.0048998891,-0.0042536969,1.054853397\\Version=ES64L-G0
 9RevD.01\HF=-4587.5469425\S2=0.750657\S2-1=0.\S2A=0.75\RMSD=0.000e+00\
 RMSF=6.364e-06\Dipole=-0.031036,0.0033684,5.9544541\Quadrupole=-20.229
 1283,-20.4834774,40.7126057,0.1399019,0.2184099,-0.0342006\PG=C01 [X(C
 42H42N6O6P3Yb1)]\\@


 WE HAVE SEEN THAT MAN ON THE AVERAGE DOES NOT LIVE ABOVE
 TWO-AND-TWENTY YEARS.  DURING THESE TWO AND TWENTY
 YEARS HE IS LIABLE TO TWO AND TWENTY THOUSAND EVILS,
 MANY OF WHICH ARE INCURABLE.  YET EVEN IN THIS DREADFUL STATE
 MEN STILL STRUT AND POSE ON THE STAGE OF LIFE.
 THEY MAKE LOVE AT THE RISK OF DESTRUCTION,
 INTRIGUE, CARRY ON WAR, AND FORM PROJECTS, JUST AS IF THEY
 WERE TO LIVE IN LUXURY AND HAPPINESS FOR A THOUSAND
 AGES.

                                              -- VOLTAIRE
 Job cpu time:       0 days  0 hours 14 minutes 51.9 seconds.
 File lengths (MBytes):  RWF=   2060 Int=      0 D2E=      0 Chk=    116 Scr=      8
 Normal termination of Gaussian 09 at Mon Nov 23 19:03:44 2015.
