 Entering Gaussian System, Link 0=g09
 Initial command:
 /home/ik1r11/g09-64-D01/l1.exe "/home/ik1r11/steven/l2_parker_funk/linda_dsymm_runs/l2_tm/l2_tm_methanol/Gau-8582.inp" -scrdir="/home/ik1r11/steven/l2_parker_funk/linda_dsymm_runs/l2_tm/l2_tm_methanol/"
 Entering Link 1 = /home/ik1r11/g09-64-D01/l1.exe PID=      8583.
  
 Copyright (c) 1988,1990,1992,1993,1995,1998,2003,2009,2013,
            Gaussian, Inc.  All Rights Reserved.
  
 This is part of the Gaussian(R) 09 program.  It is based on
 the Gaussian(R) 03 system (copyright 2003, Gaussian, Inc.),
 the Gaussian(R) 98 system (copyright 1998, Gaussian, Inc.),
 the Gaussian(R) 94 system (copyright 1995, Gaussian, Inc.),
 the Gaussian 92(TM) system (copyright 1992, Gaussian, Inc.),
 the Gaussian 90(TM) system (copyright 1990, Gaussian, Inc.),
 the Gaussian 88(TM) system (copyright 1988, Gaussian, Inc.),
 the Gaussian 86(TM) system (copyright 1986, Carnegie Mellon
 University), and the Gaussian 82(TM) system (copyright 1983,
 Carnegie Mellon University). Gaussian is a federally registered
 trademark of Gaussian, Inc.
  
 This software contains proprietary and confidential information,
 including trade secrets, belonging to Gaussian, Inc.
  
 This software is provided under written license and may be
 used, copied, transmitted, or stored only in accord with that
 written license.
  
 The following legend is applicable only to US Government
 contracts under FAR:
  
                    RESTRICTED RIGHTS LEGEND
  
 Use, reproduction and disclosure by the US Government is
 subject to restrictions as set forth in subparagraphs (a)
 and (c) of the Commercial Computer Software - Restricted
 Rights clause in FAR 52.227-19.
  
 Gaussian, Inc.
 340 Quinnipiac St., Bldg. 40, Wallingford CT 06492
  
  
 ---------------------------------------------------------------
 Warning -- This program may not be used in any manner that
 competes with the business of Gaussian, Inc. or will provide
 assistance to any competitor of Gaussian, Inc.  The licensee
 of this program is prohibited from giving any competitor of
 Gaussian, Inc. access to this program.  By using this program,
 the user acknowledges that Gaussian, Inc. is engaged in the
 business of creating and licensing software in the field of
 computational chemistry and represents and warrants to the
 licensee that it is not a competitor of Gaussian, Inc. and that
 it will not use this program in any manner prohibited above.
 ---------------------------------------------------------------
  

 Cite this work as:
 Gaussian 09, Revision D.01,
 M. J. Frisch, G. W. Trucks, H. B. Schlegel, G. E. Scuseria, 
 M. A. Robb, J. R. Cheeseman, G. Scalmani, V. Barone, B. Mennucci, 
 G. A. Petersson, H. Nakatsuji, M. Caricato, X. Li, H. P. Hratchian, 
 A. F. Izmaylov, J. Bloino, G. Zheng, J. L. Sonnenberg, M. Hada, 
 M. Ehara, K. Toyota, R. Fukuda, J. Hasegawa, M. Ishida, T. Nakajima, 
 Y. Honda, O. Kitao, H. Nakai, T. Vreven, J. A. Montgomery, Jr., 
 J. E. Peralta, F. Ogliaro, M. Bearpark, J. J. Heyd, E. Brothers, 
 K. N. Kudin, V. N. Staroverov, T. Keith, R. Kobayashi, J. Normand, 
 K. Raghavachari, A. Rendell, J. C. Burant, S. S. Iyengar, J. Tomasi, 
 M. Cossi, N. Rega, J. M. Millam, M. Klene, J. E. Knox, J. B. Cross, 
 V. Bakken, C. Adamo, J. Jaramillo, R. Gomperts, R. E. Stratmann, 
 O. Yazyev, A. J. Austin, R. Cammi, C. Pomelli, J. W. Ochterski, 
 R. L. Martin, K. Morokuma, V. G. Zakrzewski, G. A. Voth, 
 P. Salvador, J. J. Dannenberg, S. Dapprich, A. D. Daniels, 
 O. Farkas, J. B. Foresman, J. V. Ortiz, J. Cioslowski, 
 and D. J. Fox, Gaussian, Inc., Wallingford CT, 2013.
 
 ******************************************
 Gaussian 09:  ES64L-G09RevD.01 24-Apr-2013
                28-Nov-2015 
 ******************************************
 %LindaWorkers=green0022:1,green0079:1,green0156:1,green0206:1,green0306:1,green0
 335:1,green0454:1,green0464:1
 %Mem=16GB
 %NProcShared=16
 Will use up to   16 processors via shared memory.
 %Chk=l2_parker_funk_tm.chk
 SetLPE:  input flags=""
 SetLPE:    new flags=" -nodelist 'green0022 green0079 green0156 green0206 green0306 green0335 green0454 green0464'"
 Will use up to    8 processors via Linda.
 ----------------------------------------------------------------------
 #p opt=cartesian m06/Gen guess=mix pseudo=read geom=checkpoint scf=(ti
 ght,xqc,vtl,maxconventionalcycles=10,novaracc,noincfock) integral=(gri
 d=ultrafine) scrf=(pcm,solvent=methanol) nosymm
 ----------------------------------------------------------------------
 1/10=7,14=-1,18=10,26=4,29=2,38=1/1,3;
 2/12=2,15=1,29=2,40=1/2;
 3/5=7,11=2,14=-4,16=1,17=8,25=1,30=1,70=2201,71=1,72=3,74=-54,75=-5/1,2,3;
 4/13=-1/1;
 5/5=100002,8=3,13=1,17=3,32=2,38=1,53=3,85=10/2,8;
 6/7=2,8=2,9=2,10=2,28=1/1;
 7/7=1,29=1,30=1/1,2,3,16;
 1/10=7,14=-1,18=10,26=4/3(2);
 2/15=1,29=1/2;
 99/12=1/99;
 2/15=1,29=1/2;
 3/5=7,6=1,11=2,14=-2,16=1,17=8,25=1,30=1,70=2205,71=1,72=3,74=-54,75=-5,82=7/1,2,3;
 4/5=5,16=3,69=1/1;
 5/5=100002,8=3,13=1,17=3,32=2,38=1,53=3,85=10/2,8;
 7/7=1,30=1/1,2,3,16;
 1/14=-1,18=10,26=4/3(-5);
 2/15=1,29=1/2;
 6/7=2,8=2,9=2,10=2,19=2,28=1/1;
 99/9=1,12=1/99;
 Leave Link    1 at Sat Nov 28 16:03:07 2015, MaxMem=  2147483648 cpu:         7.2
 (Enter /home/ik1r11/g09-64-D01/l101.exe)
 ---------------------------------------
 Parker's L2 ligand complex with Tm(III)
 ---------------------------------------
 Structure from the checkpoint file:  "l2_parker_funk_tm.chk"
 Charge =  0 Multiplicity = 3
 No Z-Matrix found in file; cartesian coordinates used.
  C                                                -3.041302420815     -3.694978296556      1.693286375982
  H                                                -2.951260437829     -4.615158670961      2.275060487452
  C                                                -4.134758511296     -3.471271038184      0.862083387708
  H                                                -4.931787814089     -4.214410678545      0.785748565012
  P                                                 1.737607614578      2.528494471800     -0.673476196683
  P                                                -3.070068568250      0.213486259014     -0.671530654679
  P                                                 1.328352671564     -2.758670521466     -0.674577670114
  O                                                 1.460503308277      1.046031617580     -0.285401092423
  O                                                 3.100099205313      3.137472161039     -0.392496005111
  O                                                -1.655122920426      0.732686654389     -0.276132943132
  O                                                -4.288541741244      1.074601912185     -0.389249059314
  O                                                 0.180117630547     -1.778405617829     -0.286917632983
  O                                                 1.171473033562     -4.243135311243     -0.395753141909
  N                                                -1.260217377374      1.112303503864      3.121160756088
  N                                                -0.329422643565     -1.640493186082      3.135607818357
  N                                                 1.589637180998      0.539995409455      3.138855752530
  N                                                -0.291218122344      2.613088705656      1.082525179504
  N                                                -2.116458833686     -1.570162924883      1.094365187005
  N                                                 2.405449349813     -1.049979444148      1.095857494475
  C                                                -2.103648628053      0.063936511689      3.721451517637
  H                                                -2.655891689623      0.456921291582      4.599802835208
  H                                                -2.860750892268     -0.218972651290      2.973830938062
  C                                                -1.301518414041     -1.150964315510      4.151830632325
  H                                                -2.008510361743     -1.955906382776      4.419668884323
  H                                                -0.758911015708     -0.930894179347      5.083702731305
  C                                                 0.995631344004     -1.842608338307      3.745522737893
  H                                                 0.925901375207     -2.506521890011      4.631819285763
  H                                                 1.620259103306     -2.368948226711      3.008147942198
  C                                                 1.099601382475      1.792644363096      3.736004762300
  H                                                 1.246223707089      2.591403184157      2.993369572867
  C                                                -0.359293090649      1.707694105562      4.147706940846
  H                                                -0.704840324806      2.722799193976      4.411357687638
  H                                                -0.452241502725      1.127627186698      5.078428609462
  C                                                -2.124496026815      2.161272021171      2.560726714489
  H                                                -2.860182437839      1.692502897262      1.879542324939
  H                                                -2.699241157737      2.676773107798      3.356075022847
  C                                                -1.318976377219      3.140554621339      1.763011958461
  C                                                -1.641163412985      4.493242679951      1.692479087182
  H                                                -2.479335022775      4.884634427123      2.273619396341
  C                                                -0.881547959997      5.323859028908      0.873726001634
  H                                                -1.108040161764      6.390558823392      0.807020138757
  C                                                 0.163029382286      4.771886694377      0.140846909857
  H                                                 0.778150946607      5.380692484107     -0.527536287728
  C                                                 0.416873596715      3.408391993940      0.267284945035
  C                                                 1.262948485056      2.708484134228     -2.420130381786
  C                                                 2.064065612395      3.436762776878     -3.301035039429
  H                                                 2.973289503544      3.913941497677     -2.923459175001
  C                                                 1.706943379116      3.536587556170     -4.645275045976
  H                                                 2.334441121811      4.104139275800     -5.337699241303
  C                                                 0.550543235045      2.908127825216     -5.106488109421
  H                                                 0.273164181317      2.985210933645     -6.161355890955
  C                                                -0.251806906525      2.178908229632     -4.226807004851
  H                                                -1.153172294730      1.673261422004     -4.589063001240
  C                                                 0.101829811901      2.078720549023     -2.884163103820
  H                                                -0.518887746473      1.504744509626     -2.184927782133
  C                                                -0.800089442145     -2.917244026053      2.581255988952
  H                                                -0.021453359542     -3.322214004023      1.906776983737
  H                                                -0.960375550550     -3.669533568957      3.379714890393
  C                                                -2.047666834357     -2.723005105321      1.774756785986
  C                                                -4.190308195546     -2.291451269044      0.128417753113
  H                                                -5.020693014899     -2.077704567672     -0.550181968247
  C                                                -3.153591442198     -1.372354374235      0.267171851107
  C                                                -2.980237910406     -0.280136659708     -2.419364974760
  C                                                -1.842270597221     -0.947137373670     -2.888523010932
  H                                                -1.029038336914     -1.185188294307     -2.191875930905
  C                                                -1.749433278425     -1.298194849669     -4.232529057861
  H                                                -0.852238481756     -1.808372079672     -4.598985164766
  C                                                -2.791166428166     -0.986287662174     -5.107972114469
  H                                                -2.717171916603     -1.261208612340     -6.163685459212
  C                                                -3.925686168142     -0.323120182468     -4.641359886744
  H                                                -4.738339118158     -0.078398473559     -5.330361914917
  C                                                -4.020767381059      0.030919320579     -3.296047443049
  H                                                -4.898714329587      0.560490198954     -2.914313348020
  C                                                 1.718163541299     -2.434589194008     -2.420410100873
  C                                                 1.767005175063     -1.111333131446     -2.874442142948
  H                                                 1.600378216302     -0.291732019306     -2.164227809400
  C                                                 1.921951944049     -3.489617873155     -3.310814776960
  H                                                 1.870360107041     -4.517333564995     -2.939278429621
  C                                                 1.649632585779     -0.537561424738      4.163404957890
  H                                                 2.700054025315     -0.747767701391      4.432101879059
  H                                                 1.189571369543     -0.168831463624      5.092986134611
  H                                                 1.703559932637      2.072542587240      4.623944481629
  C                                                 2.929198827009      0.762353899117      2.579740560345
  H                                                 2.893889284794      1.635997640119      1.900554083844
  H                                                 3.665752157848      0.998802441981      3.374160540533
  C                                                 3.374317084618     -0.421922994245      1.777028747313
  C                                                 4.709168397685     -0.810735697610      1.700212971834
  H                                                 5.465047746856     -0.279168759821      2.282891219069
  C                                                 5.053829767348     -1.875431386496      0.873050758237
  H                                                 6.092775014857     -2.205507983747      0.801085587618
  C                                                 4.055565585764     -2.504131963562      0.137369155263
  H                                                 4.279088463642     -3.333963213099     -0.538828320241
  C                                                 2.745350929769     -2.051720311214      0.271346314906
  C                                                 2.017008482834     -0.849165794084     -4.218567367288
  H                                                 2.041145432011      0.186356002200     -4.574098847214
  C                                                 2.219205561947     -1.905651041961     -5.108747060361
  H                                                 2.412887550697     -1.699293595278     -6.164960314506
  C                                                 2.172587980293     -3.224162608312     -4.656744762655
  H                                                 2.328867451186     -4.048521934484     -5.357683608251
  Tm                                               -0.010643177644     -0.000723677899      1.048049047270
 Recover connectivity data from disk.
 NAtoms=    100 NQM=      100 NQMF=       0 NMMI=      0 NMMIF=      0
                NMic=       0 NMicF=      0.
                    Isotopes and Nuclear Properties:
 (Nuclear quadrupole moments (NQMom) in fm**2, nuclear magnetic moments (NMagM)
  in nuclear magnetons)

  Atom         1           2           3           4           5           6           7           8           9          10
 IAtWgt=          12           1          12           1          31          31          31          16          16          16
 AtmWgt=  12.0000000   1.0078250  12.0000000   1.0078250  30.9737634  30.9737634  30.9737634  15.9949146  15.9949146  15.9949146
 NucSpn=           0           1           0           1           1           1           1           0           0           0
 AtZEff=  -3.6000000  -1.0000000  -3.6000000  -1.0000000 -12.9400000 -12.9400000 -12.9400000  -5.6000000  -5.6000000  -5.6000000
 NQMom=    0.0000000   0.0000000   0.0000000   0.0000000   0.0000000   0.0000000   0.0000000   0.0000000   0.0000000   0.0000000
 NMagM=    0.0000000   2.7928460   0.0000000   2.7928460   1.1316000   1.1316000   1.1316000   0.0000000   0.0000000   0.0000000
 AtZNuc=   6.0000000   1.0000000   6.0000000   1.0000000  15.0000000  15.0000000  15.0000000   8.0000000   8.0000000   8.0000000

  Atom        11          12          13          14          15          16          17          18          19          20
 IAtWgt=          16          16          16          14          14          14          14          14          14          12
 AtmWgt=  15.9949146  15.9949146  15.9949146  14.0030740  14.0030740  14.0030740  14.0030740  14.0030740  14.0030740  12.0000000
 NucSpn=           0           0           0           2           2           2           2           2           2           0
 AtZEff=  -5.6000000  -5.6000000  -5.6000000  -4.5500000  -4.5500000  -4.5500000  -4.5500000  -4.5500000  -4.5500000  -3.6000000
 NQMom=    0.0000000   0.0000000   0.0000000   2.0440000   2.0440000   2.0440000   2.0440000   2.0440000   2.0440000   0.0000000
 NMagM=    0.0000000   0.0000000   0.0000000   0.4037610   0.4037610   0.4037610   0.4037610   0.4037610   0.4037610   0.0000000
 AtZNuc=   8.0000000   8.0000000   8.0000000   7.0000000   7.0000000   7.0000000   7.0000000   7.0000000   7.0000000   6.0000000

  Atom        21          22          23          24          25          26          27          28          29          30
 IAtWgt=           1           1          12           1           1          12           1           1          12           1
 AtmWgt=   1.0078250   1.0078250  12.0000000   1.0078250   1.0078250  12.0000000   1.0078250   1.0078250  12.0000000   1.0078250
 NucSpn=           1           1           0           1           1           0           1           1           0           1
 AtZEff=  -1.0000000  -1.0000000  -3.6000000  -1.0000000  -1.0000000  -3.6000000  -1.0000000  -1.0000000  -3.6000000  -1.0000000
 NQMom=    0.0000000   0.0000000   0.0000000   0.0000000   0.0000000   0.0000000   0.0000000   0.0000000   0.0000000   0.0000000
 NMagM=    2.7928460   2.7928460   0.0000000   2.7928460   2.7928460   0.0000000   2.7928460   2.7928460   0.0000000   2.7928460
 AtZNuc=   1.0000000   1.0000000   6.0000000   1.0000000   1.0000000   6.0000000   1.0000000   1.0000000   6.0000000   1.0000000

  Atom        31          32          33          34          35          36          37          38          39          40
 IAtWgt=          12           1           1          12           1           1          12          12           1          12
 AtmWgt=  12.0000000   1.0078250   1.0078250  12.0000000   1.0078250   1.0078250  12.0000000  12.0000000   1.0078250  12.0000000
 NucSpn=           0           1           1           0           1           1           0           0           1           0
 AtZEff=  -3.6000000  -1.0000000  -1.0000000  -3.6000000  -1.0000000  -1.0000000  -3.6000000  -3.6000000  -1.0000000  -3.6000000
 NQMom=    0.0000000   0.0000000   0.0000000   0.0000000   0.0000000   0.0000000   0.0000000   0.0000000   0.0000000   0.0000000
 NMagM=    0.0000000   2.7928460   2.7928460   0.0000000   2.7928460   2.7928460   0.0000000   0.0000000   2.7928460   0.0000000
 AtZNuc=   6.0000000   1.0000000   1.0000000   6.0000000   1.0000000   1.0000000   6.0000000   6.0000000   1.0000000   6.0000000

  Atom        41          42          43          44          45          46          47          48          49          50
 IAtWgt=           1          12           1          12          12          12           1          12           1          12
 AtmWgt=   1.0078250  12.0000000   1.0078250  12.0000000  12.0000000  12.0000000   1.0078250  12.0000000   1.0078250  12.0000000
 NucSpn=           1           0           1           0           0           0           1           0           1           0
 AtZEff=  -1.0000000  -3.6000000  -1.0000000  -3.6000000  -3.6000000  -3.6000000  -1.0000000  -3.6000000  -1.0000000  -3.6000000
 NQMom=    0.0000000   0.0000000   0.0000000   0.0000000   0.0000000   0.0000000   0.0000000   0.0000000   0.0000000   0.0000000
 NMagM=    2.7928460   0.0000000   2.7928460   0.0000000   0.0000000   0.0000000   2.7928460   0.0000000   2.7928460   0.0000000
 AtZNuc=   1.0000000   6.0000000   1.0000000   6.0000000   6.0000000   6.0000000   1.0000000   6.0000000   1.0000000   6.0000000

  Atom        51          52          53          54          55          56          57          58          59          60
 IAtWgt=           1          12           1          12           1          12           1           1          12          12
 AtmWgt=   1.0078250  12.0000000   1.0078250  12.0000000   1.0078250  12.0000000   1.0078250   1.0078250  12.0000000  12.0000000
 NucSpn=           1           0           1           0           1           0           1           1           0           0
 AtZEff=  -1.0000000  -3.6000000  -1.0000000  -3.6000000  -1.0000000  -3.6000000  -1.0000000  -1.0000000  -3.6000000  -3.6000000
 NQMom=    0.0000000   0.0000000   0.0000000   0.0000000   0.0000000   0.0000000   0.0000000   0.0000000   0.0000000   0.0000000
 NMagM=    2.7928460   0.0000000   2.7928460   0.0000000   2.7928460   0.0000000   2.7928460   2.7928460   0.0000000   0.0000000
 AtZNuc=   1.0000000   6.0000000   1.0000000   6.0000000   1.0000000   6.0000000   1.0000000   1.0000000   6.0000000   6.0000000

  Atom        61          62          63          64          65          66          67          68          69          70
 IAtWgt=           1          12          12          12           1          12           1          12           1          12
 AtmWgt=   1.0078250  12.0000000  12.0000000  12.0000000   1.0078250  12.0000000   1.0078250  12.0000000   1.0078250  12.0000000
 NucSpn=           1           0           0           0           1           0           1           0           1           0
 AtZEff=  -1.0000000  -3.6000000  -3.6000000  -3.6000000  -1.0000000  -3.6000000  -1.0000000  -3.6000000  -1.0000000  -3.6000000
 NQMom=    0.0000000   0.0000000   0.0000000   0.0000000   0.0000000   0.0000000   0.0000000   0.0000000   0.0000000   0.0000000
 NMagM=    2.7928460   0.0000000   0.0000000   0.0000000   2.7928460   0.0000000   2.7928460   0.0000000   2.7928460   0.0000000
 AtZNuc=   1.0000000   6.0000000   6.0000000   6.0000000   1.0000000   6.0000000   1.0000000   6.0000000   1.0000000   6.0000000

  Atom        71          72          73          74          75          76          77          78          79          80
 IAtWgt=           1          12           1          12          12           1          12           1          12           1
 AtmWgt=   1.0078250  12.0000000   1.0078250  12.0000000  12.0000000   1.0078250  12.0000000   1.0078250  12.0000000   1.0078250
 NucSpn=           1           0           1           0           0           1           0           1           0           1
 AtZEff=  -1.0000000  -3.6000000  -1.0000000  -3.6000000  -3.6000000  -1.0000000  -3.6000000  -1.0000000  -3.6000000  -1.0000000
 NQMom=    0.0000000   0.0000000   0.0000000   0.0000000   0.0000000   0.0000000   0.0000000   0.0000000   0.0000000   0.0000000
 NMagM=    2.7928460   0.0000000   2.7928460   0.0000000   0.0000000   2.7928460   0.0000000   2.7928460   0.0000000   2.7928460
 AtZNuc=   1.0000000   6.0000000   1.0000000   6.0000000   6.0000000   1.0000000   6.0000000   1.0000000   6.0000000   1.0000000

  Atom        81          82          83          84          85          86          87          88          89          90
 IAtWgt=           1           1          12           1           1          12          12           1          12           1
 AtmWgt=   1.0078250   1.0078250  12.0000000   1.0078250   1.0078250  12.0000000  12.0000000   1.0078250  12.0000000   1.0078250
 NucSpn=           1           1           0           1           1           0           0           1           0           1
 AtZEff=  -1.0000000  -1.0000000  -3.6000000  -1.0000000  -1.0000000  -3.6000000  -3.6000000  -1.0000000  -3.6000000  -1.0000000
 NQMom=    0.0000000   0.0000000   0.0000000   0.0000000   0.0000000   0.0000000   0.0000000   0.0000000   0.0000000   0.0000000
 NMagM=    2.7928460   2.7928460   0.0000000   2.7928460   2.7928460   0.0000000   0.0000000   2.7928460   0.0000000   2.7928460
 AtZNuc=   1.0000000   1.0000000   6.0000000   1.0000000   1.0000000   6.0000000   6.0000000   1.0000000   6.0000000   1.0000000

  Atom        91          92          93          94          95          96          97          98          99         100
 IAtWgt=          12           1          12          12           1          12           1          12           1         169
 AtmWgt=  12.0000000   1.0078250  12.0000000  12.0000000   1.0078250  12.0000000   1.0078250  12.0000000   1.0078250 168.9344000
 NucSpn=           0           1           0           0           1           0           1           0           1           1
 AtZEff=  -3.6000000  -1.0000000  -3.6000000  -3.6000000  -1.0000000  -3.6000000  -1.0000000  -3.6000000  -1.0000000-972.9000000
 NQMom=    0.0000000   0.0000000   0.0000000   0.0000000   0.0000000   0.0000000   0.0000000   0.0000000   0.0000000   0.0000000
 NMagM=    0.0000000   2.7928460   0.0000000   0.0000000   2.7928460   0.0000000   2.7928460   0.0000000   2.7928460  -0.2316000
 AtZNuc=   6.0000000   1.0000000   6.0000000   6.0000000   1.0000000   6.0000000   1.0000000   6.0000000   1.0000000  69.0000000
 Leave Link  101 at Sat Nov 28 16:03:07 2015, MaxMem=  2147483648 cpu:         2.3
 (Enter /home/ik1r11/g09-64-D01/l103.exe)

 GradGradGradGradGradGradGradGradGradGradGradGradGradGradGradGradGradGrad
 Berny optimization.
 Initialization pass.
 No Z-matrix variables, so optimization will use Cartesian coordinates.
 Trust Radius=3.00D-01 FncErr=1.00D-07 GrdErr=1.00D-06
 Number of steps in this run=    310 maximum allowed number of steps=    600.
 GradGradGradGradGradGradGradGradGradGradGradGradGradGradGradGradGradGrad

 Leave Link  103 at Sat Nov 28 16:03:08 2015, MaxMem=  2147483648 cpu:         0.7
 (Enter /home/ik1r11/g09-64-D01/l202.exe)
 Symmetry turned off by external request.
 Stoichiometry    C42H42N6O6P3Tm(3)
 Framework group  C1[X(C42H42N6O6P3Tm)]
 Deg. of freedom   294
 Full point group                 C1      NOp   1
                          Input orientation:                          
 ---------------------------------------------------------------------
 Center     Atomic      Atomic             Coordinates (Angstroms)
 Number     Number       Type             X           Y           Z
 ---------------------------------------------------------------------
      1          6           0       -3.041302   -3.694978    1.693286
      2          1           0       -2.951260   -4.615159    2.275060
      3          6           0       -4.134759   -3.471271    0.862083
      4          1           0       -4.931788   -4.214411    0.785749
      5         15           0        1.737608    2.528494   -0.673476
      6         15           0       -3.070069    0.213486   -0.671531
      7         15           0        1.328353   -2.758671   -0.674578
      8          8           0        1.460503    1.046032   -0.285401
      9          8           0        3.100099    3.137472   -0.392496
     10          8           0       -1.655123    0.732687   -0.276133
     11          8           0       -4.288542    1.074602   -0.389249
     12          8           0        0.180118   -1.778406   -0.286918
     13          8           0        1.171473   -4.243135   -0.395753
     14          7           0       -1.260217    1.112304    3.121161
     15          7           0       -0.329423   -1.640493    3.135608
     16          7           0        1.589637    0.539995    3.138856
     17          7           0       -0.291218    2.613089    1.082525
     18          7           0       -2.116459   -1.570163    1.094365
     19          7           0        2.405449   -1.049979    1.095857
     20          6           0       -2.103649    0.063937    3.721452
     21          1           0       -2.655892    0.456921    4.599803
     22          1           0       -2.860751   -0.218973    2.973831
     23          6           0       -1.301518   -1.150964    4.151831
     24          1           0       -2.008510   -1.955906    4.419669
     25          1           0       -0.758911   -0.930894    5.083703
     26          6           0        0.995631   -1.842608    3.745523
     27          1           0        0.925901   -2.506522    4.631819
     28          1           0        1.620259   -2.368948    3.008148
     29          6           0        1.099601    1.792644    3.736005
     30          1           0        1.246224    2.591403    2.993370
     31          6           0       -0.359293    1.707694    4.147707
     32          1           0       -0.704840    2.722799    4.411358
     33          1           0       -0.452242    1.127627    5.078429
     34          6           0       -2.124496    2.161272    2.560727
     35          1           0       -2.860182    1.692503    1.879542
     36          1           0       -2.699241    2.676773    3.356075
     37          6           0       -1.318976    3.140555    1.763012
     38          6           0       -1.641163    4.493243    1.692479
     39          1           0       -2.479335    4.884634    2.273619
     40          6           0       -0.881548    5.323859    0.873726
     41          1           0       -1.108040    6.390559    0.807020
     42          6           0        0.163029    4.771887    0.140847
     43          1           0        0.778151    5.380692   -0.527536
     44          6           0        0.416874    3.408392    0.267285
     45          6           0        1.262948    2.708484   -2.420130
     46          6           0        2.064066    3.436763   -3.301035
     47          1           0        2.973290    3.913941   -2.923459
     48          6           0        1.706943    3.536588   -4.645275
     49          1           0        2.334441    4.104139   -5.337699
     50          6           0        0.550543    2.908128   -5.106488
     51          1           0        0.273164    2.985211   -6.161356
     52          6           0       -0.251807    2.178908   -4.226807
     53          1           0       -1.153172    1.673261   -4.589063
     54          6           0        0.101830    2.078721   -2.884163
     55          1           0       -0.518888    1.504745   -2.184928
     56          6           0       -0.800089   -2.917244    2.581256
     57          1           0       -0.021453   -3.322214    1.906777
     58          1           0       -0.960376   -3.669534    3.379715
     59          6           0       -2.047667   -2.723005    1.774757
     60          6           0       -4.190308   -2.291451    0.128418
     61          1           0       -5.020693   -2.077705   -0.550182
     62          6           0       -3.153591   -1.372354    0.267172
     63          6           0       -2.980238   -0.280137   -2.419365
     64          6           0       -1.842271   -0.947137   -2.888523
     65          1           0       -1.029038   -1.185188   -2.191876
     66          6           0       -1.749433   -1.298195   -4.232529
     67          1           0       -0.852238   -1.808372   -4.598985
     68          6           0       -2.791166   -0.986288   -5.107972
     69          1           0       -2.717172   -1.261209   -6.163685
     70          6           0       -3.925686   -0.323120   -4.641360
     71          1           0       -4.738339   -0.078398   -5.330362
     72          6           0       -4.020767    0.030919   -3.296047
     73          1           0       -4.898714    0.560490   -2.914313
     74          6           0        1.718164   -2.434589   -2.420410
     75          6           0        1.767005   -1.111333   -2.874442
     76          1           0        1.600378   -0.291732   -2.164228
     77          6           0        1.921952   -3.489618   -3.310815
     78          1           0        1.870360   -4.517334   -2.939278
     79          6           0        1.649633   -0.537561    4.163405
     80          1           0        2.700054   -0.747768    4.432102
     81          1           0        1.189571   -0.168831    5.092986
     82          1           0        1.703560    2.072543    4.623944
     83          6           0        2.929199    0.762354    2.579741
     84          1           0        2.893889    1.635998    1.900554
     85          1           0        3.665752    0.998802    3.374161
     86          6           0        3.374317   -0.421923    1.777029
     87          6           0        4.709168   -0.810736    1.700213
     88          1           0        5.465048   -0.279169    2.282891
     89          6           0        5.053830   -1.875431    0.873051
     90          1           0        6.092775   -2.205508    0.801086
     91          6           0        4.055566   -2.504132    0.137369
     92          1           0        4.279088   -3.333963   -0.538828
     93          6           0        2.745351   -2.051720    0.271346
     94          6           0        2.017008   -0.849166   -4.218567
     95          1           0        2.041145    0.186356   -4.574099
     96          6           0        2.219206   -1.905651   -5.108747
     97          1           0        2.412888   -1.699294   -6.164960
     98          6           0        2.172588   -3.224163   -4.656745
     99          1           0        2.328867   -4.048522   -5.357684
    100         69           0       -0.010643   -0.000724    1.048049
 ---------------------------------------------------------------------
 Rotational constants (GHZ):      0.0546858      0.0469336      0.0467389
 Leave Link  202 at Sat Nov 28 16:03:08 2015, MaxMem=  2147483648 cpu:         1.0
 (Enter /home/ik1r11/g09-64-D01/l301.exe)
 General basis read from cards:  (5D, 7F)
 Centers:       2      4     21     22     24     25     27     28     30     32
 Centers:      33     35     36     39     41     43     47     49     51     53
 Centers:      55     57     58     61     65     67     69     71     73     76
 Centers:      78     80     81     82     84     85     88     90     92     95
 Centers:      97     99      1      3     20     23     26     29     31     34
 Centers:      37     38     40     42     44     45     46     48     50     52
 Centers:      54     56     59     60     62     63     64     66     68     70
 Centers:      72     74     75     77     79     83     86     87     89     91
 Centers:      93     94     96     98     14     15     16     17     18     19
 Centers:       8      9     10     11     12     13      5      6      7
 cc-pVDZ
 ****
 Centers:     100
 S 10 1.00
     Exponent=  3.8487352510D+03 Coefficients=  2.0315000000D-03
     Exponent=  5.7469944500D+02 Coefficients=  8.7934000000D-03
     Exponent=  4.9292900000D+01 Coefficients= -1.2306900000D-01
     Exponent=  3.2860236000D+01 Coefficients=  8.4263450000D-01
     Exponent=  2.1154020000D+01 Coefficients= -1.3179453000D+00
     Exponent=  4.6913310000D+00 Coefficients=  1.0278532000D+00
     Exponent=  2.2850100000D+00 Coefficients=  3.4731340000D-01
     Exponent=  9.2100400000D-01 Coefficients=  1.1612100000D-02
     Exponent=  3.8987700000D-01 Coefficients= -3.3500000000D-04
     Exponent=  6.7784000000D-02 Coefficients=  6.0420000000D-04
 S 10 1.00
     Exponent=  3.8487352510D+03 Coefficients=  1.3653000000D-03
     Exponent=  5.7469944500D+02 Coefficients=  5.9242000000D-03
     Exponent=  4.9292900000D+01 Coefficients= -3.9729300000D-02
     Exponent=  3.2860236000D+01 Coefficients=  3.6049280000D-01
     Exponent=  2.1154020000D+01 Coefficients= -6.2586970000D-01
     Exponent=  4.6913310000D+00 Coefficients=  7.5131940000D-01
     Exponent=  2.2850100000D+00 Coefficients=  3.9544270000D-01
     Exponent=  9.2100400000D-01 Coefficients= -7.6171560000D-01
     Exponent=  3.8987700000D-01 Coefficients= -6.2954670000D-01
     Exponent=  6.7784000000D-02 Coefficients= -4.9048600000D-02
 S 10 1.00
     Exponent=  3.8487352510D+03 Coefficients=  3.5070000000D-04
     Exponent=  5.7469944500D+02 Coefficients=  1.5265000000D-03
     Exponent=  4.9292900000D+01 Coefficients= -9.4537000000D-03
     Exponent=  3.2860236000D+01 Coefficients=  8.8261900000D-02
     Exponent=  2.1154020000D+01 Coefficients= -1.5476470000D-01
     Exponent=  4.6913310000D+00 Coefficients=  1.9752940000D-01
     Exponent=  2.2850100000D+00 Coefficients=  1.0666790000D-01
     Exponent=  9.2100400000D-01 Coefficients= -2.3566960000D-01
     Exponent=  3.8987700000D-01 Coefficients= -3.9584540000D-01
     Exponent=  6.7784000000D-02 Coefficients=  3.9860290000D-01
 S 1 1.00
     Exponent=  2.1990000000D-02 Coefficients=  1.0000000000D+00
 S 1 1.00
     Exponent=  4.5189000000D-02 Coefficients=  1.0000000000D+00
 P 7 1.00
     Exponent=  2.0807927150D+03 Coefficients=  7.3640000000D-04
     Exponent=  4.9496669500D+02 Coefficients=  5.4991000000D-03
     Exponent=  1.5834055900D+02 Coefficients=  1.9302000000D-02
     Exponent=  5.1636751000D+01 Coefficients=  4.7842900000D-02
     Exponent=  1.3897251000D+01 Coefficients= -2.6037740000D-01
     Exponent=  7.9923310000D+00 Coefficients=  5.0317650000D-01
     Exponent=  3.5902200000D+00 Coefficients=  6.3467060000D-01
 P 7 1.00
     Exponent=  2.0807927150D+03 Coefficients= -4.3100000000D-04
     Exponent=  4.9496669500D+02 Coefficients= -2.9714000000D-03
     Exponent=  1.5834055900D+02 Coefficients= -1.1692400000D-02
     Exponent=  5.1636751000D+01 Coefficients= -2.3701700000D-02
     Exponent=  1.3897251000D+01 Coefficients=  1.1172220000D-01
     Exponent=  7.9923310000D+00 Coefficients= -3.0331810000D-01
     Exponent=  3.5902200000D+00 Coefficients= -3.1659120000D-01
 P 1 1.00
     Exponent=  2.4100100000D-01 Coefficients=  1.0000000000D+00
 P 1 1.00
     Exponent=  6.2220100000D-01 Coefficients=  1.0000000000D+00
 P 1 1.00
     Exponent=  1.4315150000D+00 Coefficients=  1.0000000000D+00
 D 5 1.00
     Exponent=  4.9429816700D+02 Coefficients=  1.3783000000D-03
     Exponent=  1.4972597100D+02 Coefficients=  1.1393000000D-02
     Exponent=  5.7695625000D+01 Coefficients=  4.6879600000D-02
     Exponent=  2.4542322000D+01 Coefficients=  1.0803250000D-01
     Exponent=  9.7203230000D+00 Coefficients=  2.7141510000D-01
 D 1 1.00
     Exponent=  9.5419400000D-01 Coefficients=  1.0000000000D+00
 D 1 1.00
     Exponent=  2.2454690000D+00 Coefficients=  1.0000000000D+00
 D 1 1.00
     Exponent=  4.7410450000D+00 Coefficients=  1.0000000000D+00
 F 6 1.00
     Exponent=  1.5675151300D+02 Coefficients= -4.3548000000D-03
     Exponent=  5.6290379000D+01 Coefficients= -4.1700300000D-02
     Exponent=  2.5277532000D+01 Coefficients= -1.5008510000D-01
     Exponent=  1.1599823000D+01 Coefficients= -2.7540620000D-01
     Exponent=  5.2806760000D+00 Coefficients= -3.5054310000D-01
     Exponent=  2.3172570000D+00 Coefficients= -3.2242740000D-01
 F 1 1.00
     Exponent=  3.2925200000D-01 Coefficients=  1.0000000000D+00
 F 1 1.00
     Exponent=  9.3902800000D-01 Coefficients=  1.0000000000D+00
 ****
 ======================================================================================================
                                       Pseudopotential Parameters
 ======================================================================================================
  Center     Atomic      Valence      Angular      Power
  Number     Number     Electrons     Momentum     of R      Exponent        Coefficient   SO-Coeffient
 ======================================================================================================
    1          6
                                   No pseudopotential on this center.
    2          1
                                   No pseudopotential on this center.
    3          6
                                   No pseudopotential on this center.
    4          1
                                   No pseudopotential on this center.
    5         15
                                   No pseudopotential on this center.
    6         15
                                   No pseudopotential on this center.
    7         15
                                   No pseudopotential on this center.
    8          8
                                   No pseudopotential on this center.
    9          8
                                   No pseudopotential on this center.
   10          8
                                   No pseudopotential on this center.
   11          8
                                   No pseudopotential on this center.
   12          8
                                   No pseudopotential on this center.
   13          8
                                   No pseudopotential on this center.
   14          7
                                   No pseudopotential on this center.
   15          7
                                   No pseudopotential on this center.
   16          7
                                   No pseudopotential on this center.
   17          7
                                   No pseudopotential on this center.
   18          7
                                   No pseudopotential on this center.
   19          7
                                   No pseudopotential on this center.
   20          6
                                   No pseudopotential on this center.
   21          1
                                   No pseudopotential on this center.
   22          1
                                   No pseudopotential on this center.
   23          6
                                   No pseudopotential on this center.
   24          1
                                   No pseudopotential on this center.
   25          1
                                   No pseudopotential on this center.
   26          6
                                   No pseudopotential on this center.
   27          1
                                   No pseudopotential on this center.
   28          1
                                   No pseudopotential on this center.
   29          6
                                   No pseudopotential on this center.
   30          1
                                   No pseudopotential on this center.
   31          6
                                   No pseudopotential on this center.
   32          1
                                   No pseudopotential on this center.
   33          1
                                   No pseudopotential on this center.
   34          6
                                   No pseudopotential on this center.
   35          1
                                   No pseudopotential on this center.
   36          1
                                   No pseudopotential on this center.
   37          6
                                   No pseudopotential on this center.
   38          6
                                   No pseudopotential on this center.
   39          1
                                   No pseudopotential on this center.
   40          6
                                   No pseudopotential on this center.
   41          1
                                   No pseudopotential on this center.
   42          6
                                   No pseudopotential on this center.
   43          1
                                   No pseudopotential on this center.
   44          6
                                   No pseudopotential on this center.
   45          6
                                   No pseudopotential on this center.
   46          6
                                   No pseudopotential on this center.
   47          1
                                   No pseudopotential on this center.
   48          6
                                   No pseudopotential on this center.
   49          1
                                   No pseudopotential on this center.
   50          6
                                   No pseudopotential on this center.
   51          1
                                   No pseudopotential on this center.
   52          6
                                   No pseudopotential on this center.
   53          1
                                   No pseudopotential on this center.
   54          6
                                   No pseudopotential on this center.
   55          1
                                   No pseudopotential on this center.
   56          6
                                   No pseudopotential on this center.
   57          1
                                   No pseudopotential on this center.
   58          1
                                   No pseudopotential on this center.
   59          6
                                   No pseudopotential on this center.
   60          6
                                   No pseudopotential on this center.
   61          1
                                   No pseudopotential on this center.
   62          6
                                   No pseudopotential on this center.
   63          6
                                   No pseudopotential on this center.
   64          6
                                   No pseudopotential on this center.
   65          1
                                   No pseudopotential on this center.
   66          6
                                   No pseudopotential on this center.
   67          1
                                   No pseudopotential on this center.
   68          6
                                   No pseudopotential on this center.
   69          1
                                   No pseudopotential on this center.
   70          6
                                   No pseudopotential on this center.
   71          1
                                   No pseudopotential on this center.
   72          6
                                   No pseudopotential on this center.
   73          1
                                   No pseudopotential on this center.
   74          6
                                   No pseudopotential on this center.
   75          6
                                   No pseudopotential on this center.
   76          1
                                   No pseudopotential on this center.
   77          6
                                   No pseudopotential on this center.
   78          1
                                   No pseudopotential on this center.
   79          6
                                   No pseudopotential on this center.
   80          1
                                   No pseudopotential on this center.
   81          1
                                   No pseudopotential on this center.
   82          1
                                   No pseudopotential on this center.
   83          6
                                   No pseudopotential on this center.
   84          1
                                   No pseudopotential on this center.
   85          1
                                   No pseudopotential on this center.
   86          6
                                   No pseudopotential on this center.
   87          6
                                   No pseudopotential on this center.
   88          1
                                   No pseudopotential on this center.
   89          6
                                   No pseudopotential on this center.
   90          1
                                   No pseudopotential on this center.
   91          6
                                   No pseudopotential on this center.
   92          1
                                   No pseudopotential on this center.
   93          6
                                   No pseudopotential on this center.
   94          6
                                   No pseudopotential on this center.
   95          1
                                   No pseudopotential on this center.
   96          6
                                   No pseudopotential on this center.
   97          1
                                   No pseudopotential on this center.
   98          6
                                   No pseudopotential on this center.
   99          1
                                   No pseudopotential on this center.
  100         69           41
                                      H and up 
                                                     2        1.0000000        0.00000000    0.00000000
                                      S - H
                                                     2       31.1441220      845.51074300    0.00000000
                                      P - H
                                                     2       18.0923530      258.58523900    0.00000000
                                      D - H
                                                     2       11.4691590       80.72905900    0.00000000
                                      F - H
                                                     2       23.6055440      -48.70126600    0.00000000
                                      G - H
                                                     2       27.3297810      -33.39549600    0.00000000
 ======================================================================================================
 Ernie: Thresh=  0.10000D-02 Tol=  0.10000D-05 Strict=F.
 Ernie:  146 primitive shells out of 1613 were deleted.
  1081 basis functions,  2488 primitive gaussians,  1151 cartesian basis functions
   236 alpha electrons      234 beta electrons
       nuclear repulsion energy     12338.0532715351 Hartrees.
 IExCor= 4235 DFT=T Ex+Corr=M06 ExCW=0 ScaHFX=  0.270000
 ScaDFX=  1.000000  1.000000  1.000000  1.000000 ScalE2=  1.000000  1.000000
 IRadAn=      5 IRanWt=     -1 IRanGd=            0 ICorTp=0 IEmpDi=  4
 NAtoms=  100 NActive=  100 NUniq=  100 SFac= 1.00D+00 NAtFMM=   60 NAOKFM=T Big=T
 Integral buffers will be    131072 words long.
 Raffenetti 2 integral format.
 Two-electron integral symmetry is turned off.
 ------------------------------------------------------------------------------
 Polarizable Continuum Model (PCM)
 =================================
 Model                : PCM (using non-symmetric T matrix).
 Atomic radii         : UFF (Universal Force Field).
 Polarization charges : Total charges.
 Charge compensation  : None.
 Solution method      : On-the-fly selection.
 Cavity type          : Scaled VdW (van der Waals Surface) (Alpha=1.100).
 Cavity algorithm     : GePol (No added spheres)
                        Default sphere list used, NSphG=  100.
                        Lebedev-Laikov grids with approx.  5.0 points / Ang**2.
                        Smoothing algorithm: Karplus/York (Gamma=1.0000).
                        Polarization charges: spherical gaussians, with
                                              point-specific exponents (IZeta= 3).
                        Self-potential: point-specific (ISelfS= 7).
                        Self-field    : sphere-specific E.n sum rule (ISelfD= 2).
 1st derivatives      : Analytical E(r).r(x)/FMM algorithm (CHGder, D1EAlg=3).
                        Cavity 1st derivative terms included.
 Solvent              : Methanol, Eps=  32.613000 Eps(inf)=   1.765709
 ------------------------------------------------------------------------------
 GePol: Number of generator spheres                  =     100
 GePol: Total number of spheres                      =     100
 GePol: Number of exposed spheres                    =      98 ( 98.00%)
 GePol: Number of points                             =    5805
 GePol: Average weight of points                     =       0.12
 GePol: Minimum weight of points                     =   0.17D-11
 GePol: Maximum weight of points                     =    0.20577
 GePol: Number of points with low weight             =     463
 GePol: Fraction of low-weight points (<1% of avg)   =       7.98%
 GePol: Cavity surface area                          =    722.425 Ang**2
 GePol: Cavity volume                                =   1012.898 Ang**3
 Leave Link  301 at Sat Nov 28 16:03:09 2015, MaxMem=  2147483648 cpu:         9.4
 (Enter /home/ik1r11/g09-64-D01/linda-exe/l302.exel)
 NPDir=0 NMtPBC=     1 NCelOv=     1 NCel=       1 NClECP=     1 NCelD=      1
         NCelK=      1 NCelE2=     1 NClLst=     1 CellRange=     0.0.
 One-electron integrals computed using PRISM.
   1 Symmetry operations used in ECPInt.
 ECPInt:  NShTT=  120786 NPrTT= 1079839 LenC2=  102029 LenP2D=  402381.
 LDataN:  DoStor=T MaxTD1= 8 Len=  415
 NBasis=  1081 RedAO= T EigKep=  2.79D-04  NBF=  1081
 NBsUse=  1081 1.00D-06 EigRej= -1.00D+00 NBFU=  1081
 Precomputing XC quadrature grid using
 IXCGrd= 4 IRadAn=           5 IRanWt=          -1 IRanGd=           0 AccXCQ= 0.00D+00.
 Defaulting to unpruned grid for atomic number  69.
 Generated NRdTot=       0 NPtTot=           0 NUsed=           0 NTot=          32
 NSgBfM=  1069  1075  1086  1094  1094 MxSgAt=   100 MxSgA2=   100.
 Leave Link  302 at Sat Nov 28 16:04:02 2015, MaxMem=  2147483648 cpu:       770.4
 (Enter /home/ik1r11/g09-64-D01/l303.exe)
 DipDrv:  MaxL=1.
 Leave Link  303 at Sat Nov 28 16:04:03 2015, MaxMem=  2147483648 cpu:         7.2
 (Enter /home/ik1r11/g09-64-D01/linda-exe/l401.exel)
 ExpMin= 2.20D-02 ExpMax= 9.48D+04 ExpMxC= 3.24D+03 IAcc=3 IRadAn=         5 AccDes= 0.00D+00
 Harris functional with IExCor= 1009 and IRadAn=       5 diagonalized for initial guess.
 HarFok:  IExCor= 1009 AccDes= 0.00D+00 IRadAn=         5 IDoV= 1 UseB2=F ITyADJ=14
 ICtDFT=  3500011 ScaDFX=  1.000000  1.000000  1.000000  1.000000
 Defaulting to unpruned grid for atomic number  69.
 Defaulting to unpruned grid for atomic number  69.
 Defaulting to unpruned grid for atomic number  69.
 Defaulting to unpruned grid for atomic number  69.
 Defaulting to unpruned grid for atomic number  69.
 Defaulting to unpruned grid for atomic number  69.
 Defaulting to unpruned grid for atomic number  69.
 Defaulting to unpruned grid for atomic number  69.
 Defaulting to unpruned grid for atomic number  69.
 Defaulting to unpruned grid for atomic number  69.
 Defaulting to unpruned grid for atomic number  69.
 Defaulting to unpruned grid for atomic number  69.
 Defaulting to unpruned grid for atomic number  69.
 Defaulting to unpruned grid for atomic number  69.
 Defaulting to unpruned grid for atomic number  69.
 Defaulting to unpruned grid for atomic number  69.
 FoFCou: FMM=F IPFlag=           0 FMFlag=      100000 FMFlg1=        2001
         NFxFlg=           0 DoJE=T BraDBF=F KetDBF=T FulRan=T
         wScrn=  0.000000 ICntrl=     500 IOpCl=  0 I1Cent=   200000004 NGrid=           0
         NMat0=    1 NMatS0=      1 NMatT0=    0 NMatD0=    1 NMtDS0=    0 NMtDT0=    0
 Symmetry not used in FoFCou.
 Harris En= -4515.46338780212    
 JPrj=0 DoOrth=F DoCkMO=T.
 Mixing orbitals, IMix= 1 IMixAn=  0 NRI=1 NE=  236 Coef=  7.07106781D-01  7.07106781D-01
 Mixing orbitals, IMix= 1 IMixAn=  0 NRI=1 NE=  234 Coef= -7.07106781D-01  7.07106781D-01
 Initial guess <Sx>= 0.0000 <Sy>= 0.0000 <Sz>= 1.0000 <S**2>= 2.0000 S= 1.0000
 Leave Link  401 at Sat Nov 28 16:04:24 2015, MaxMem=  2147483648 cpu:       278.7
 (Enter /home/ik1r11/g09-64-D01/linda-exe/l502.exel)
 UHF open shell SCF:
 Using DIIS extrapolation, IDIIS=  1040.
 Two-electron integral symmetry not used.
 IVT=     4001571 IEndB=     4001571 NGot=  2147483648 MDV=  2144808150
 LenX=  2144808150 LenY=  2143482198
 Requested convergence on RMS density matrix=1.00D-08 within  10 cycles.
 Requested convergence on MAX density matrix=1.00D-06.
 Requested convergence on             energy=1.00D-06.
 No special actions if energy rises.

 Cycle   1  Pass 1  IDiag  1:
 FoFJK:  IHMeth= 1 ICntrl=       0 DoSepK=F KAlg= 0 I1Cent=   0 FoldK=F
 IRaf= 990000000 NMat=   1 IRICut=       1 DoRegI=T DoRafI=F ISym2E= 0.
 FoFCou: FMM=T IPFlag=           0 FMFlag=      100000 FMFlg1=        2001
         NFxFlg=           0 DoJE=F BraDBF=F KetDBF=F FulRan=T
         wScrn=  0.000000 ICntrl=       0 IOpCl=  1 I1Cent=           0 NGrid=           0
         NMat0=    1 NMatS0=      1 NMatT0=    0 NMatD0=    1 NMtDS0=    0 NMtDT0=    0
 Symmetry not used in FoFCou.
 FMM levels:  10  Number of levels for PrismC:   9
 Defaulting to unpruned grid for atomic number  69.
 Defaulting to unpruned grid for atomic number  69.
 Defaulting to unpruned grid for atomic number  69.
 Defaulting to unpruned grid for atomic number  69.
 Defaulting to unpruned grid for atomic number  69.
 Defaulting to unpruned grid for atomic number  69.
 Defaulting to unpruned grid for atomic number  69.
 Defaulting to unpruned grid for atomic number  69.
 Defaulting to unpruned grid for atomic number  69.
 Defaulting to unpruned grid for atomic number  69.
 Defaulting to unpruned grid for atomic number  69.
 Defaulting to unpruned grid for atomic number  69.
 Defaulting to unpruned grid for atomic number  69.
 Defaulting to unpruned grid for atomic number  69.
 Defaulting to unpruned grid for atomic number  69.
 Defaulting to unpruned grid for atomic number  69.
 Inv3:  Mode=1 IEnd=   101094075.
 Iteration    1 A*A^-1 deviation from unit magnitude is 6.66D-15 for   1087.
 Iteration    1 A*A^-1 deviation from orthogonality  is 1.09D-14 for   5764   2844.
 Iteration    1 A^-1*A deviation from unit magnitude is 7.22D-15 for    362.
 Iteration    1 A^-1*A deviation from orthogonality  is 4.89D-06 for   5762   5476.
 Iteration    2 A*A^-1 deviation from unit magnitude is 1.18D-14 for   1089.
 Iteration    2 A*A^-1 deviation from orthogonality  is 1.05D-14 for   4641   1088.
 Iteration    2 A^-1*A deviation from unit magnitude is 1.33D-15 for   1663.
 Iteration    2 A^-1*A deviation from orthogonality  is 7.22D-16 for   5805   2090.
 E= -4508.70013912681    
 DIIS: error= 5.00D-01 at cycle   1 NSaved=   1.
 NSaved= 1 IEnMin= 1 EnMin= -4508.70013912681     IErMin= 1 ErrMin= 5.00D-01
 ErrMax= 5.00D-01  0.00D+00 EMaxC= 1.00D-01 BMatC= 8.10D+01 BMatP= 8.10D+01
 IDIUse=3 WtCom= 0.00D+00 WtEn= 1.00D+00
 Coeff-Com:  0.100D+01
 Coeff-En:   0.100D+01
 Coeff:      0.100D+01
 Gap=     0.024 Goal=   None    Shift=    0.000
 Gap=     0.003 Goal=   None    Shift=    0.000
 GapD=    0.003 DampG=0.250 DampE=0.125 DampFc=0.1250 IDamp=-1.
 Damping current iteration by 1.25D-01
 RMSDP=1.44D-02 MaxDP=9.21D+00              OVMax= 9.84D-01

 Cycle   2  Pass 1  IDiag  1:
 E= -4511.12888118695     Delta-E=       -2.428742060139 Rises=F Damp=T
 DIIS: error= 1.85D-01 at cycle   2 NSaved=   2.
 NSaved= 2 IEnMin= 2 EnMin= -4511.12888118695     IErMin= 2 ErrMin= 1.85D-01
 ErrMax= 1.85D-01  0.00D+00 EMaxC= 1.00D-01 BMatC= 1.46D+01 BMatP= 8.10D+01
 IDIUse=3 WtCom= 0.00D+00 WtEn= 1.00D+00
 Coeff-Com: -0.555D+00 0.155D+01
 Coeff-En:   0.764D-03 0.999D+00
 Coeff:      0.764D-03 0.999D+00
 Gap=     0.022 Goal=   None    Shift=    0.000
 Gap=     0.001 Goal=   None    Shift=    0.000
 RMSDP=3.13D-03 MaxDP=8.54D-01 DE=-2.43D+00 OVMax= 7.00D-01

 Cycle   3  Pass 1  IDiag  1:
 E= -4510.19966564597     Delta-E=        0.929215540978 Rises=F Damp=F
 DIIS: error= 4.08D-01 at cycle   3 NSaved=   3.
 NSaved= 3 IEnMin= 2 EnMin= -4511.12888118695     IErMin= 2 ErrMin= 1.85D-01
 ErrMax= 4.08D-01  0.00D+00 EMaxC= 1.00D-01 BMatC= 5.96D+01 BMatP= 1.46D+01
 IDIUse=2 WtCom= 0.00D+00 WtEn= 1.00D+00
 EnCoef did   100 forward-backward iterations
 Coeff-En:   0.425D+00 0.234D-01 0.552D+00
 Coeff:      0.425D+00 0.234D-01 0.552D+00
 Gap=     0.054 Goal=   None    Shift=    0.000
 Gap=     0.129 Goal=   None    Shift=    0.000
 RMSDP=3.37D-03 MaxDP=6.22D-01 DE= 9.29D-01 OVMax= 9.55D-01

 Cycle   4  Pass 1  IDiag  1:
 E= -4489.82167999657     Delta-E=       20.377985649400 Rises=F Damp=F
 DIIS: error= 7.07D-01 at cycle   4 NSaved=   4.
 NSaved= 4 IEnMin= 2 EnMin= -4511.12888118695     IErMin= 2 ErrMin= 1.85D-01
 ErrMax= 7.07D-01  0.00D+00 EMaxC= 1.00D-01 BMatC= 2.12D+02 BMatP= 1.46D+01
 IDIUse=2 WtCom= 0.00D+00 WtEn= 1.00D+00
 EnCoef did   100 forward-backward iterations
 Coeff-En:   0.459D+00 0.117D-01 0.467D+00 0.621D-01
 Coeff:      0.459D+00 0.117D-01 0.467D+00 0.621D-01
 Gap=    -0.159 Goal=   None    Shift=    0.000
 Gap=     0.002 Goal=   None    Shift=    0.000
 RMSDP=2.37D-03 MaxDP=7.31D-01 DE= 2.04D+01 OVMax= 8.35D-01

 Cycle   5  Pass 1  IDiag  1:
 E= -4513.73360238858     Delta-E=      -23.911922392013 Rises=F Damp=F
 DIIS: error= 3.73D-02 at cycle   5 NSaved=   5.
 NSaved= 5 IEnMin= 5 EnMin= -4513.73360238858     IErMin= 5 ErrMin= 3.73D-02
 ErrMax= 3.73D-02  0.00D+00 EMaxC= 1.00D-01 BMatC= 1.28D+00 BMatP= 1.46D+01
 IDIUse=3 WtCom= 6.27D-01 WtEn= 3.73D-01
 Coeff-Com:  0.153D+00 0.111D-01 0.153D+00-0.181D-01 0.701D+00
 Coeff-En:   0.000D+00 0.000D+00 0.000D+00 0.000D+00 0.100D+01
 Coeff:      0.956D-01 0.696D-02 0.959D-01-0.114D-01 0.813D+00
 Gap=     0.280 Goal=   None    Shift=    0.000
 Gap=     0.053 Goal=   None    Shift=    0.000
 RMSDP=1.56D-03 MaxDP=5.89D-01 DE=-2.39D+01 OVMax= 6.91D-01

 Cycle   6  Pass 1  IDiag  1:
 E= -4511.32096919783     Delta-E=        2.412633190757 Rises=F Damp=F
 DIIS: error= 2.15D-01 at cycle   6 NSaved=   6.
 NSaved= 6 IEnMin= 5 EnMin= -4513.73360238858     IErMin= 5 ErrMin= 3.73D-02
 ErrMax= 2.15D-01  0.00D+00 EMaxC= 1.00D-01 BMatC= 2.20D+01 BMatP= 1.28D+00
 IDIUse=2 WtCom= 0.00D+00 WtEn= 1.00D+00
 Coeff-En:   0.000D+00 0.000D+00 0.000D+00 0.000D+00 0.846D+00 0.154D+00
 Coeff:      0.000D+00 0.000D+00 0.000D+00 0.000D+00 0.846D+00 0.154D+00
 Gap=     0.223 Goal=   None    Shift=    0.000
 Gap=     0.002 Goal=   None    Shift=    0.000
 RMSDP=1.10D-03 MaxDP=5.79D-01 DE= 2.41D+00 OVMax= 9.35D-01

 Cycle   7  Pass 1  IDiag  1:
 E= -4513.76082811421     Delta-E=       -2.439858916387 Rises=F Damp=F
 DIIS: error= 4.03D-02 at cycle   7 NSaved=   7.
 NSaved= 7 IEnMin= 7 EnMin= -4513.76082811421     IErMin= 5 ErrMin= 3.73D-02
 ErrMax= 4.03D-02  0.00D+00 EMaxC= 1.00D-01 BMatC= 1.29D+00 BMatP= 1.28D+00
 IDIUse=3 WtCom= 6.27D-01 WtEn= 3.73D-01
 EnCoef did     6 forward-backward iterations
 Coeff-Com: -0.137D-01-0.157D-02-0.339D-01-0.624D-02 0.565D+00 0.115D+00
 Coeff-Com:  0.376D+00
 Coeff-En:   0.000D+00 0.000D+00 0.000D+00 0.000D+00 0.513D+00 0.575D-01
 Coeff-En:   0.429D+00
 Coeff:     -0.861D-02-0.981D-03-0.213D-01-0.391D-02 0.546D+00 0.934D-01
 Coeff:      0.396D+00
 Gap=     0.220 Goal=   None    Shift=    0.000
 Gap=     0.079 Goal=   None    Shift=    0.000
 RMSDP=4.90D-04 MaxDP=4.35D-02 DE=-2.44D+00 OVMax= 7.01D-02

 Cycle   8  Pass 1  IDiag  1:
 E= -4513.95521427663     Delta-E=       -0.194386162417 Rises=F Damp=F
 DIIS: error= 6.72D-03 at cycle   8 NSaved=   8.
 NSaved= 8 IEnMin= 8 EnMin= -4513.95521427663     IErMin= 8 ErrMin= 6.72D-03
 ErrMax= 6.72D-03  0.00D+00 EMaxC= 1.00D-01 BMatC= 2.70D-02 BMatP= 1.28D+00
 IDIUse=3 WtCom= 9.33D-01 WtEn= 6.72D-02
 Coeff-Com: -0.499D-02-0.185D-01-0.142D-01-0.887D-03 0.106D+00 0.281D-01
 Coeff-Com:  0.153D+00 0.751D+00
 Coeff-En:   0.000D+00 0.000D+00 0.000D+00 0.000D+00 0.000D+00 0.000D+00
 Coeff-En:   0.000D+00 0.100D+01
 Coeff:     -0.465D-02-0.172D-01-0.132D-01-0.827D-03 0.985D-01 0.262D-01
 Coeff:      0.143D+00 0.768D+00
 Gap=     0.213 Goal=   None    Shift=    0.000
 Gap=     0.104 Goal=   None    Shift=    0.000
 RMSDP=8.97D-05 MaxDP=1.67D-02 DE=-1.94D-01 OVMax= 2.17D-02

 Cycle   9  Pass 1  IDiag  1:
 E= -4513.95969108103     Delta-E=       -0.004476804395 Rises=F Damp=F
 DIIS: error= 4.87D-03 at cycle   9 NSaved=   9.
 NSaved= 9 IEnMin= 9 EnMin= -4513.95969108103     IErMin= 9 ErrMin= 4.87D-03
 ErrMax= 4.87D-03  0.00D+00 EMaxC= 1.00D-01 BMatC= 1.22D-02 BMatP= 2.70D-02
 IDIUse=3 WtCom= 9.51D-01 WtEn= 4.87D-02
 Coeff-Com: -0.115D-02-0.756D-02-0.604D-04-0.352D-03-0.136D-01 0.108D-01
 Coeff-Com:  0.577D-02 0.381D+00 0.625D+00
 Coeff-En:   0.000D+00 0.000D+00 0.000D+00 0.000D+00 0.000D+00 0.000D+00
 Coeff-En:   0.000D+00 0.000D+00 0.100D+01
 Coeff:     -0.109D-02-0.719D-02-0.575D-04-0.335D-03-0.129D-01 0.102D-01
 Coeff:      0.549D-02 0.362D+00 0.644D+00
 Gap=     0.212 Goal=   None    Shift=    0.000
 Gap=     0.103 Goal=   None    Shift=    0.000
 RMSDP=4.51D-05 MaxDP=1.37D-02 DE=-4.48D-03 OVMax= 1.62D-02

 Cycle  10  Pass 1  IDiag  1:
 E= -4513.96177174004     Delta-E=       -0.002080659018 Rises=F Damp=F
 DIIS: error= 1.54D-03 at cycle  10 NSaved=  10.
 NSaved=10 IEnMin=10 EnMin= -4513.96177174004     IErMin=10 ErrMin= 1.54D-03
 ErrMax= 1.54D-03  0.00D+00 EMaxC= 1.00D-01 BMatC= 1.77D-03 BMatP= 1.22D-02
 IDIUse=3 WtCom= 9.85D-01 WtEn= 1.54D-02
 Coeff-Com:  0.713D-04-0.181D-02 0.146D-02-0.132D-03-0.219D-01 0.431D-02
 Coeff-Com: -0.243D-01 0.339D-01 0.251D+00 0.758D+00
 Coeff-En:   0.000D+00 0.000D+00 0.000D+00 0.000D+00 0.000D+00 0.000D+00
 Coeff-En:   0.000D+00 0.000D+00 0.000D+00 0.100D+01
 Coeff:      0.702D-04-0.178D-02 0.144D-02-0.130D-03-0.216D-01 0.424D-02
 Coeff:     -0.239D-01 0.334D-01 0.247D+00 0.761D+00
 Gap=     0.211 Goal=   None    Shift=    0.000
 Gap=     0.101 Goal=   None    Shift=    0.000
 RMSDP=3.38D-05 MaxDP=1.34D-02 DE=-2.08D-03 OVMax= 1.85D-02

 >>>>>>>>>> Convergence criterion not met.
 Error on total polarization charges =  0.01638
 SCF Done:  E(UM06) =  -4513.96177174     A.U. after   11 cycles
            NFock= 10  Conv=0.34D-04     -V/T= 2.1090
 <Sx>= 0.0000 <Sy>= 0.0000 <Sz>= 1.0000 <S**2>= 2.0023 S= 1.0008
 <L.S>= 0.000000000000E+00
 KE= 4.070469038120D+03 PE=-3.533903854090D+04 EE= 1.441655445951D+04
 Annihilation of the first spin contaminant:
 S**2 before annihilation     2.0023,   after     2.0000
 Leave Link  502 at Sat Nov 28 16:14:37 2015, MaxMem=  2147483648 cpu:      9225.8
 (Enter /home/ik1r11/g09-64-D01/linda-exe/l508.exel)
 Direct SCF.
 Very tight linear equation convergence will be used.
 UM06 wavefunction.
 Quadratic Convergence SCF Method.
 Line search only if initial step raises energy.
 Two-electron integral symmetry not used.
 ReadGW:  IGet=1 IStart=         402 Next=         402 LGW=           0.
 FoFJK:  IHMeth= 1 ICntrl=       0 DoSepK=F KAlg= 0 I1Cent=   0 FoldK=F
 IRaf= 990000000 NMat=   1 IRICut=       1 DoRegI=T DoRafI=F ISym2E= 0.
 FoFCou: FMM=T IPFlag=           0 FMFlag=      100000 FMFlg1=        2001
         NFxFlg=           0 DoJE=F BraDBF=F KetDBF=F FulRan=T
         wScrn=  0.000000 ICntrl=       0 IOpCl=  1 I1Cent=           0 NGrid=           0
         NMat0=    1 NMatS0=      1 NMatT0=    0 NMatD0=    1 NMtDS0=    0 NMtDT0=    0
 Symmetry not used in FoFCou.
 FMM levels:  10  Number of levels for PrismC:   9
 Defaulting to unpruned grid for atomic number  69.
 Defaulting to unpruned grid for atomic number  69.
 Defaulting to unpruned grid for atomic number  69.
 Defaulting to unpruned grid for atomic number  69.
 Defaulting to unpruned grid for atomic number  69.
 Defaulting to unpruned grid for atomic number  69.
 Defaulting to unpruned grid for atomic number  69.
 Defaulting to unpruned grid for atomic number  69.
 Defaulting to unpruned grid for atomic number  69.
 Defaulting to unpruned grid for atomic number  69.
 Defaulting to unpruned grid for atomic number  69.
 Defaulting to unpruned grid for atomic number  69.
 Defaulting to unpruned grid for atomic number  69.
 Defaulting to unpruned grid for atomic number  69.
 Defaulting to unpruned grid for atomic number  69.
 Defaulting to unpruned grid for atomic number  69.
 Iteration   1 EE= -4513.96272824907                                    Grad=1.979D-02 Max rot=    0.2472 deg.
 Gradient too large for Newton-Raphson -- use scaled steepest descent instead.
 Alpha Gap=     0.211 HL deriv= 1.60D-05
  Beta Gap=     0.095 HL deriv= 1.55D-03
     ILin= 1 X=0.000D+00 Y=-4.513962728249D+03 DE= 0.00D+00 F= -1.03D-03
     ILin= 2 X=3.000D-01 Y=-4.513962988783D+03 DE=-2.61D-04 F= -7.07D-04
     ILin= 3 X=6.000D-01 Y=-4.513963152533D+03 DE=-4.24D-04 F= -3.84D-04
     ILin= 4 X=1.200D+00 Y=-4.513963187682D+03 DE=-4.59D-04 F=  2.68D-04
     Accept linear search using points  3 and  4.
     An  expanding polynomial of degree  4 produced  0.9221
 Iteration   2 EE= -4513.96322002368     Delta-E=       -0.000491774612 Grad=3.608D-02 Max rot=    0.2020 deg.
 Gradient too large for Newton-Raphson -- use scaled steepest descent instead.
 Alpha Gap=     0.211 HL deriv= 5.62D-05
  Beta Gap=     0.113 HL deriv= 1.51D-03
     ILin= 1 X=0.000D+00 Y=-4.513963220024D+03 DE= 0.00D+00 F= -1.67D-03
     ILin= 2 X=5.000D-01 Y=-4.513963572275D+03 DE=-3.52D-04 F=  2.57D-04
     Accept linear search using points  1 and  2.
     An  expanding polynomial of degree  2 produced  0.3095
 Iteration   3 EE= -4513.96355172195     Delta-E=       -0.000331698269 Grad=1.131D-02 Max rot=    0.1988 deg.
 Gradient too large for Newton-Raphson -- use scaled steepest descent instead.
 Alpha Gap=     0.211 HL deriv= 1.76D-05
  Beta Gap=     0.100 HL deriv= 1.68D-03
     ILin= 1 X=0.000D+00 Y=-4.513963551722D+03 DE= 0.00D+00 F= -5.10D-04
     ILin= 2 X=5.000D-01 Y=-4.513963793683D+03 DE=-2.42D-04 F= -4.58D-04
     ILin= 3 X=1.100D+00 Y=-4.513964049368D+03 DE=-4.98D-04 F= -3.94D-04
     ILin= 4 X=2.100D+00 Y=-4.513964389841D+03 DE=-8.38D-04 F= -2.86D-04
     Reject lnstep minimum 4.646D+00 FVal=-4.513964757696D+03 Lims=  1.10D+00  2.10D+00
     ILin= 5 X=4.300D+00 Y=-4.513964752298D+03 DE=-1.20D-03 F= -4.22D-05
     ILin= 6 X=8.500D+00 Y=-4.513963942091D+03 DE=-3.90D-04 F=  4.26D-04
     An  expanding polynomial of degree  6 produced  4.6758
     Minimum is close to point  5 DX=  3.76D-01 DF= -7.93D-06 DXR=  8.04D-02 DFR=  6.60D-03 which will be used.
 Iteration   4 EE= -4513.96475229758     Delta-E=       -0.001200575633 Grad=5.100D-02 Max rot=    0.3134 deg.
 Gradient too large for Newton-Raphson -- use scaled steepest descent instead.
 Alpha Gap=     0.212 HL deriv= 1.22D-04
  Beta Gap=     0.118 HL deriv= 5.53D-05
     ILin= 1 X=0.000D+00 Y=-4.513964752298D+03 DE= 0.00D+00 F= -2.47D-03
     ILin= 2 X=1.200D+00 Y=-4.513962627177D+03 DE= 2.13D-03 F=  5.94D-03
     Reject lnstep minimum 2.897D-01 FVal=-4.513965044479D+03 Lims=  0.00D+00  1.20D+00
     ILin= 3 X=3.000D-01 Y=-4.513965171242D+03 DE=-4.19D-04 F= -3.27D-04
     A contracting polynomial of degree  3 produced  0.3484
 Iteration   5 EE= -4513.96517874323     Delta-E=       -0.000426445647 Grad=1.139D-02 Max rot=    0.1550 deg.
 Gradient too large for Newton-Raphson -- use scaled steepest descent instead.
 Alpha Gap=     0.211 HL deriv= 3.76D-05
  Beta Gap=     0.100 HL deriv= 1.40D-03
     ILin= 1 X=0.000D+00 Y=-4.513965178743D+03 DE= 0.00D+00 F= -3.06D-04
     ILin= 2 X=1.300D+00 Y=-4.513965343682D+03 DE=-1.65D-04 F=  5.40D-05
     Accept linear search using points  1 and  2.
     An  expanding polynomial of degree  2 produced  1.1815
 Iteration   6 EE= -4513.96534810719     Delta-E=       -0.000169363964 Grad=3.087D-02 Max rot=    0.1872 deg.
 Gradient too large for Newton-Raphson -- use scaled steepest descent instead.
 Alpha Gap=     0.211 HL deriv= 3.27D-05
  Beta Gap=     0.115 HL deriv= 2.98D-04
     ILin= 1 X=0.000D+00 Y=-4.513965348107D+03 DE= 0.00D+00 F= -9.10D-04
     ILin= 2 X=6.000D-01 Y=-4.513965453695D+03 DE=-1.06D-04 F=  5.51D-04
     Accept linear search using points  1 and  2.
     An  expanding polynomial of degree  2 produced  0.3288
 Iteration   7 EE= -4513.96551445928     Delta-E=       -0.000166352092 Grad=8.144D-03 Max rot=    0.1573 deg.
 QCNR:  CnvC1=6.31D-09 CnvC2=6.31D-08
 LinEq1:  Iter=  0 NonCon=     1 RMS=2.99D-05 Max=8.19D-03 NDo=     1
 AX will form     1 AO Fock derivatives at one time.
 LinEq1:  Iter=  1 NonCon=     1 RMS=2.11D-05 Max=5.55D-03 NDo=     1
 LinEq1:  Iter=  2 NonCon=     1 RMS=8.78D-06 Max=1.38D-03 NDo=     1
 LinEq1:  Iter=  3 NonCon=     1 RMS=7.89D-06 Max=1.26D-03 NDo=     1
 LinEq1:  Iter=  4 NonCon=     1 RMS=4.06D-06 Max=3.50D-04 NDo=     1
 LinEq1:  Iter=  5 NonCon=     1 RMS=3.08D-06 Max=5.20D-04 NDo=     1
 LinEq1:  Iter=  6 NonCon=     1 RMS=1.83D-06 Max=2.38D-04 NDo=     1
 LinEq1:  Iter=  7 NonCon=     1 RMS=1.39D-06 Max=2.10D-04 NDo=     1
 LinEq1:  Iter=  8 NonCon=     1 RMS=1.10D-06 Max=1.22D-04 NDo=     1
 LinEq1:  Iter=  9 NonCon=     1 RMS=9.28D-07 Max=8.38D-05 NDo=     1
 LinEq1:  Iter= 10 NonCon=     1 RMS=7.25D-07 Max=8.88D-05 NDo=     1
 LinEq1:  Iter= 11 NonCon=     1 RMS=5.57D-07 Max=5.91D-05 NDo=     1
 LinEq1:  Iter= 12 NonCon=     1 RMS=4.43D-07 Max=6.44D-05 NDo=     1
 LinEq1:  Iter= 13 NonCon=     1 RMS=3.49D-07 Max=3.82D-05 NDo=     1
 LinEq1:  Iter= 14 NonCon=     1 RMS=2.81D-07 Max=3.90D-05 NDo=     1
 LinEq1:  Iter= 15 NonCon=     1 RMS=2.03D-07 Max=3.39D-05 NDo=     1
 LinEq1:  Iter= 16 NonCon=     1 RMS=1.59D-07 Max=2.61D-05 NDo=     1
 LinEq1:  Iter= 17 NonCon=     1 RMS=9.94D-08 Max=1.02D-05 NDo=     1
 LinEq1:  Iter= 18 NonCon=     1 RMS=7.51D-08 Max=5.54D-06 NDo=     1
 LinEq1:  Iter= 19 NonCon=     1 RMS=4.15D-08 Max=6.18D-06 NDo=     1
 LinEq1:  Iter= 20 NonCon=     1 RMS=3.98D-08 Max=5.54D-06 NDo=     1
 LinEq1:  Iter= 21 NonCon=     1 RMS=3.44D-08 Max=3.64D-06 NDo=     1
 LinEq1:  Iter= 22 NonCon=     1 RMS=2.11D-08 Max=1.68D-06 NDo=     1
 LinEq1:  Iter= 23 NonCon=     1 RMS=1.33D-08 Max=1.37D-06 NDo=     1
 LinEq1:  Iter= 24 NonCon=     1 RMS=9.24D-09 Max=8.60D-07 NDo=     1
 LinEq1:  Iter= 25 NonCon=     1 RMS=5.88D-09 Max=8.07D-07 NDo=     1
 LinEq1:  Iter= 26 NonCon=     1 RMS=4.67D-09 Max=7.53D-07 NDo=     1
 LinEq1:  Iter= 27 NonCon=     1 RMS=3.37D-09 Max=4.41D-07 NDo=     1
 LinEq1:  Iter= 28 NonCon=     1 RMS=2.30D-09 Max=2.23D-07 NDo=     1
 LinEq1:  Iter= 29 NonCon=     1 RMS=1.49D-09 Max=1.45D-07 NDo=     1
 LinEq1:  Iter= 30 NonCon=     1 RMS=1.12D-09 Max=2.06D-07 NDo=     1
 LinEq1:  Iter= 31 NonCon=     1 RMS=1.02D-09 Max=1.48D-07 NDo=     1
 LinEq1:  Iter= 32 NonCon=     0 RMS=7.03D-10 Max=5.49D-08 NDo=     1
 Linear equations converged to 6.306D-09 6.306D-08 after    32 iterations.
 Angle between quadratic step and gradient=  92.54 degrees.
 Incorrect curvature in search direction -- initial direction reversed.
     ILin= 1 X=0.000D+00 Y=-4.513965514459D+03 DE= 0.00D+00 F= -5.61D-04
     ILin= 2 X=1.000D+00 Y=-4.513962841823D+03 DE= 2.67D-03 F=  9.32D-03
     Reject lnstep minimum 2.090D-01 FVal=-4.513965581622D+03 Lims=  0.00D+00  1.00D+00
     ILin= 3 X=2.000D-01 Y=-4.513965618274D+03 DE=-1.04D-04 F= -3.60D-04
     A contracting polynomial of degree  3 produced  0.1651
 Iteration   8 EE= -4513.96560405574     Delta-E=       -0.000089596459 Grad=9.765D-03 Max rot=    0.1524 deg.
 QCNR:  CnvC1=6.31D-09 CnvC2=6.31D-08
 LinEq1:  Iter=  0 NonCon=     1 RMS=3.46D-05 Max=1.01D-02 NDo=     1
 LinEq1:  Iter=  1 NonCon=     1 RMS=2.65D-05 Max=6.85D-03 NDo=     1
 LinEq1:  Iter=  2 NonCon=     1 RMS=1.16D-05 Max=1.83D-03 NDo=     1
 LinEq1:  Iter=  3 NonCon=     1 RMS=1.06D-05 Max=2.02D-03 NDo=     1
 LinEq1:  Iter=  4 NonCon=     1 RMS=7.54D-06 Max=1.04D-03 NDo=     1
 LinEq1:  Iter=  5 NonCon=     1 RMS=5.98D-06 Max=8.14D-04 NDo=     1
 LinEq1:  Iter=  6 NonCon=     1 RMS=4.39D-06 Max=6.23D-04 NDo=     1
 LinEq1:  Iter=  7 NonCon=     1 RMS=3.28D-06 Max=5.76D-04 NDo=     1
 LinEq1:  Iter=  8 NonCon=     1 RMS=2.19D-06 Max=3.20D-04 NDo=     1
 LinEq1:  Iter=  9 NonCon=     1 RMS=1.74D-06 Max=1.53D-04 NDo=     1
 LinEq1:  Iter= 10 NonCon=     1 RMS=1.24D-06 Max=1.53D-04 NDo=     1
 LinEq1:  Iter= 11 NonCon=     1 RMS=1.16D-06 Max=1.76D-04 NDo=     1
 LinEq1:  Iter= 12 NonCon=     1 RMS=1.03D-06 Max=1.54D-04 NDo=     1
 LinEq1:  Iter= 13 NonCon=     1 RMS=7.54D-07 Max=6.53D-05 NDo=     1
 LinEq1:  Iter= 14 NonCon=     1 RMS=5.84D-07 Max=5.84D-05 NDo=     1
 LinEq1:  Iter= 15 NonCon=     1 RMS=4.56D-07 Max=4.28D-05 NDo=     1
 LinEq1:  Iter= 16 NonCon=     1 RMS=3.52D-07 Max=4.94D-05 NDo=     1
 LinEq1:  Iter= 17 NonCon=     1 RMS=2.86D-07 Max=4.13D-05 NDo=     1
 LinEq1:  Iter= 18 NonCon=     1 RMS=2.10D-07 Max=2.02D-05 NDo=     1
 LinEq1:  Iter= 19 NonCon=     1 RMS=1.53D-07 Max=1.59D-05 NDo=     1
 LinEq1:  Iter= 20 NonCon=     1 RMS=1.15D-07 Max=1.40D-05 NDo=     1
 LinEq1:  Iter= 21 NonCon=     1 RMS=7.99D-08 Max=1.32D-05 NDo=     1
 LinEq1:  Iter= 22 NonCon=     1 RMS=4.77D-08 Max=5.57D-06 NDo=     1
 LinEq1:  Iter= 23 NonCon=     1 RMS=4.00D-08 Max=3.82D-06 NDo=     1
 LinEq1:  Iter= 24 NonCon=     1 RMS=2.54D-08 Max=2.58D-06 NDo=     1
 LinEq1:  Iter= 25 NonCon=     1 RMS=1.77D-08 Max=2.37D-06 NDo=     1
 LinEq1:  Iter= 26 NonCon=     1 RMS=1.40D-08 Max=2.17D-06 NDo=     1
 LinEq1:  Iter= 27 NonCon=     1 RMS=1.07D-08 Max=1.42D-06 NDo=     1
 LinEq1:  Iter= 28 NonCon=     1 RMS=7.36D-09 Max=8.21D-07 NDo=     1
 LinEq1:  Iter= 29 NonCon=     1 RMS=4.24D-09 Max=4.99D-07 NDo=     1
 LinEq1:  Iter= 30 NonCon=     1 RMS=2.72D-09 Max=5.58D-07 NDo=     1
 LinEq1:  Iter= 31 NonCon=     1 RMS=2.45D-09 Max=5.19D-07 NDo=     1
 LinEq1:  Iter= 32 NonCon=     1 RMS=1.80D-09 Max=2.47D-07 NDo=     1
 LinEq1:  Iter= 33 NonCon=     1 RMS=1.19D-09 Max=9.09D-08 NDo=     1
 LinEq1:  Iter= 34 NonCon=     1 RMS=9.49D-10 Max=1.20D-07 NDo=     1
 LinEq1:  Iter= 35 NonCon=     1 RMS=8.34D-10 Max=1.26D-07 NDo=     1
 LinEq1:  Iter= 36 NonCon=     1 RMS=5.85D-10 Max=7.59D-08 NDo=     1
 LinEq1:  Iter= 37 NonCon=     0 RMS=3.03D-10 Max=2.72D-08 NDo=     1
 Linear equations converged to 6.306D-09 6.306D-08 after    37 iterations.
 Angle between quadratic step and gradient=  98.62 degrees.
 Incorrect curvature in search direction -- initial direction reversed.
     ILin= 1 X=0.000D+00 Y=-4.513965604056D+03 DE= 0.00D+00 F= -7.33D-03
     ILin= 2 X=9.000D-01 Y=-4.513945608371D+03 DE= 2.00D-02 F= -3.90D-02
     ILin= 3 X=7.000D-01 Y=-4.513939941634D+03 DE= 2.57D-02 F= -1.58D-04
     ILin= 4 X=5.000D-01 Y=-4.513948507934D+03 DE= 1.71D-02 F=  7.66D-02
     Reject lnstep minimum 1.764D-01 FVal=-4.513967298578D+03 Lims=  0.00D+00  7.00D-01
     ILin= 5 X=2.000D-01 Y=-4.513965860226D+03 DE=-2.56D-04 F=  1.51D-02
     A contracting polynomial of degree  5 produced  0.0979
 Iteration   9 EE= -4513.96625205392     Delta-E=       -0.000647998175 Grad=1.621D-02 Max rot=    0.1643 deg.
 Gradient too large for Newton-Raphson -- use scaled steepest descent instead.
 Alpha Gap=     0.211 HL deriv= 5.22D-06
  Beta Gap=     0.102 HL deriv= 1.54D-03
     ILin= 1 X=0.000D+00 Y=-4.513966252054D+03 DE= 0.00D+00 F= -3.94D-04
     ILin= 2 X=6.000D-01 Y=-4.513966443759D+03 DE=-1.92D-04 F= -2.45D-04
     ILin= 3 X=1.200D+00 Y=-4.513966545897D+03 DE=-2.94D-04 F= -9.50D-05
     ILin= 4 X=2.500D+00 Y=-4.513966454882D+03 DE=-2.03D-04 F=  2.36D-04
     An  expanding polynomial of degree  4 produced  1.5760
[...]
              Bcc     0.0033     1.747     0.623     0.583  0.1374  0.9486 -0.2852
 
              Baa    -0.0077    -1.034    -0.369    -0.345  0.7612  0.0702  0.6447
    44 C(13)  Bbb    -0.0064    -0.857    -0.306    -0.286 -0.6366  0.2705  0.7222
              Bcc     0.0141     1.892     0.675     0.631  0.1237  0.9602 -0.2506
 
              Baa    -0.0035    -0.469    -0.168    -0.157 -0.2277  0.7993  0.5562
    45 C(13)  Bbb    -0.0030    -0.401    -0.143    -0.134  0.9477  0.0506  0.3152
              Bcc     0.0065     0.870     0.311     0.290 -0.2238 -0.5988  0.7690
 
              Baa    -0.0016    -0.209    -0.074    -0.070  0.8376  0.1642  0.5210
    46 C(13)  Bbb    -0.0013    -0.171    -0.061    -0.057 -0.4166  0.8090  0.4147
              Bcc     0.0028     0.380     0.135     0.127 -0.3534 -0.5644  0.7461
 
              Baa    -0.0012    -0.643    -0.229    -0.215 -0.3564  0.7855  0.5059
    47 H(1)   Bbb    -0.0012    -0.624    -0.223    -0.208  0.8052 -0.0164  0.5927
              Bcc     0.0024     1.267     0.452     0.423 -0.4739 -0.6186  0.6267
 
              Baa    -0.0010    -0.134    -0.048    -0.045  0.7050 -0.6835 -0.1894
    48 C(13)  Bbb    -0.0008    -0.114    -0.041    -0.038  0.6642  0.5426  0.5142
              Bcc     0.0018     0.248     0.088     0.083 -0.2487 -0.4883  0.8365
 
              Baa    -0.0006    -0.320    -0.114    -0.107 -0.6901  0.6972  0.1940
    49 H(1)   Bbb    -0.0006    -0.313    -0.112    -0.104  0.6603  0.4968  0.5632
              Bcc     0.0012     0.633     0.226     0.211 -0.2963 -0.5168  0.8032
 
              Baa    -0.0011    -0.141    -0.050    -0.047  0.7970  0.5168  0.3127
    50 C(13)  Bbb    -0.0007    -0.091    -0.033    -0.030 -0.5995  0.7397  0.3056
              Bcc     0.0017     0.232     0.083     0.077 -0.0734 -0.4310  0.8994
 
              Baa    -0.0006    -0.335    -0.120    -0.112  0.9222  0.3461  0.1726
    51 H(1)   Bbb    -0.0006    -0.332    -0.118    -0.111 -0.3855  0.8579  0.3396
              Bcc     0.0012     0.667     0.238     0.222 -0.0305 -0.3797  0.9246
 
              Baa    -0.0017    -0.225    -0.080    -0.075 -0.5255  0.7784  0.3434
    52 C(13)  Bbb    -0.0015    -0.202    -0.072    -0.067  0.8498  0.5001  0.1668
              Bcc     0.0032     0.427     0.152     0.142  0.0419 -0.3795  0.9242
 
              Baa    -0.0014    -0.726    -0.259    -0.242 -0.4536  0.8226  0.3430
    53 H(1)   Bbb    -0.0013    -0.719    -0.257    -0.240  0.8703  0.4916 -0.0281
              Bcc     0.0027     1.445     0.516     0.482  0.1918 -0.2857  0.9389
 
              Baa    -0.0034    -0.456    -0.163    -0.152  0.9900  0.1169  0.0788
    54 C(13)  Bbb    -0.0032    -0.428    -0.153    -0.143 -0.1405  0.8645  0.4827
              Bcc     0.0066     0.884     0.315     0.295 -0.0117 -0.4889  0.8722
 
              Baa    -0.0062    -3.305    -1.179    -1.102 -0.1161  0.8906  0.4397
    55 H(1)   Bbb    -0.0059    -3.164    -1.129    -1.055  0.9824  0.1681 -0.0809
              Bcc     0.0121     6.469     2.308     2.158  0.1460 -0.4226  0.8945
 
              Baa    -0.0078    -1.050    -0.375    -0.350 -0.3831  0.5116  0.7691
    56 C(13)  Bbb    -0.0071    -0.953    -0.340    -0.318  0.8897 -0.0194  0.4561
              Bcc     0.0149     2.004     0.715     0.668  0.2483  0.8590 -0.4477
 
              Baa    -0.0074    -3.935    -1.404    -1.313  0.9854  0.0322  0.1674
    57 H(1)   Bbb    -0.0071    -3.780    -1.349    -1.261 -0.1702  0.2467  0.9540
              Bcc     0.0145     7.715     2.753     2.574  0.0106  0.9685 -0.2486
 
              Baa    -0.0034    -1.828    -0.652    -0.610  0.8309 -0.4380 -0.3430
    58 H(1)   Bbb    -0.0033    -1.775    -0.634    -0.592  0.5111  0.3575  0.7816
              Bcc     0.0068     3.603     1.286     1.202  0.2197  0.8248 -0.5210
 
              Baa    -0.0083    -1.116    -0.398    -0.372 -0.4075  0.4993  0.7646
    59 C(13)  Bbb    -0.0063    -0.841    -0.300    -0.281  0.7179 -0.3423  0.6062
              Bcc     0.0146     1.957     0.698     0.653  0.5644  0.7959 -0.2190
 
              Baa    -0.0030    -0.406    -0.145    -0.135 -0.2841  0.7564 -0.5892
    60 C(13)  Bbb    -0.0025    -0.333    -0.119    -0.111 -0.4039  0.4629  0.7890
              Bcc     0.0055     0.738     0.263     0.246  0.8696  0.4622  0.1741
 
              Baa    -0.0017    -0.891    -0.318    -0.297 -0.4417  0.5598  0.7011
    61 H(1)   Bbb    -0.0016    -0.860    -0.307    -0.287 -0.0827  0.7527 -0.6531
              Bcc     0.0033     1.751     0.625     0.584  0.8933  0.3465  0.2862
 
              Baa    -0.0078    -1.053    -0.376    -0.351 -0.4294  0.5684  0.7018
    62 C(13)  Bbb    -0.0063    -0.850    -0.303    -0.284 -0.1147  0.7365 -0.6667
              Bcc     0.0142     1.903     0.679     0.635  0.8958  0.3668  0.2511
 
              Baa    -0.0036    -0.481    -0.172    -0.160  0.5252  0.6804 -0.5112
    63 C(13)  Bbb    -0.0029    -0.393    -0.140    -0.131 -0.5818  0.7254  0.3679
              Bcc     0.0065     0.874     0.312     0.291  0.6211  0.1042  0.7768
 
              Baa    -0.0034    -0.462    -0.165    -0.154  0.7237 -0.6627 -0.1925
    64 C(13)  Bbb    -0.0031    -0.420    -0.150    -0.140  0.5380  0.7165 -0.4440
              Bcc     0.0066     0.881     0.315     0.294  0.4322  0.2178  0.8751
 
              Baa    -0.0063    -3.378    -1.205    -1.127  0.7817  0.4618 -0.4191
    65 H(1)   Bbb    -0.0061    -3.240    -1.156    -1.081 -0.5491  0.8283 -0.1113
              Bcc     0.0124     6.617     2.361     2.207  0.2957  0.3171  0.9011
 
              Baa    -0.0017    -0.232    -0.083    -0.078  0.3999  0.8545 -0.3315
    66 C(13)  Bbb    -0.0015    -0.202    -0.072    -0.067  0.8632 -0.4727 -0.1772
              Bcc     0.0032     0.434     0.155     0.145  0.3081  0.2153  0.9267
 
              Baa    -0.0014    -0.735    -0.262    -0.245  0.6909  0.6504 -0.3158
    67 H(1)   Bbb    -0.0014    -0.730    -0.260    -0.244  0.7072 -0.6988  0.1080
              Bcc     0.0027     1.465     0.523     0.489  0.1504  0.2979  0.9427
 
              Baa    -0.0011    -0.148    -0.053    -0.049  0.8393 -0.4460 -0.3109
    68 C(13)  Bbb    -0.0006    -0.079    -0.028    -0.026  0.3510  0.8812 -0.3167
              Bcc     0.0017     0.227     0.081     0.076  0.4152  0.1567  0.8961
 
              Baa    -0.0006    -0.339    -0.121    -0.113  0.7652 -0.6192 -0.1762
    69 H(1)   Bbb    -0.0006    -0.332    -0.119    -0.111  0.5451  0.7688 -0.3343
              Bcc     0.0013     0.671     0.240     0.224  0.3425  0.1597  0.9258
 
              Baa    -0.0010    -0.140    -0.050    -0.047  0.2851  0.9338 -0.2160
    70 C(13)  Bbb    -0.0008    -0.110    -0.039    -0.037  0.7864 -0.3567 -0.5043
              Bcc     0.0019     0.250     0.089     0.083  0.5480  0.0261  0.8361
 
              Baa    -0.0006    -0.319    -0.114    -0.106  0.2478  0.9505 -0.1876
    71 H(1)   Bbb    -0.0006    -0.311    -0.111    -0.104  0.7617 -0.3108 -0.5685
              Bcc     0.0012     0.630     0.225     0.210  0.5987  0.0020  0.8010
 
              Baa    -0.0016    -0.213    -0.076    -0.071 -0.5833  0.5946  0.5533
    72 C(13)  Bbb    -0.0012    -0.156    -0.056    -0.052  0.4663  0.8029 -0.3713
              Bcc     0.0028     0.370     0.132     0.123  0.6651 -0.0414  0.7456
 
              Baa    -0.0012    -0.634    -0.226    -0.211 -0.5642 -0.5497  0.6160
    73 H(1)   Bbb    -0.0012    -0.616    -0.220    -0.205 -0.2770  0.8289  0.4860
              Bcc     0.0023     1.250     0.446     0.417  0.7778 -0.1035  0.6199
 
              Baa    -0.0035    -0.476    -0.170    -0.159  0.8251 -0.1697  0.5389
    74 C(13)  Bbb    -0.0030    -0.398    -0.142    -0.133  0.3957  0.8544 -0.3368
              Bcc     0.0065     0.874     0.312     0.292 -0.4033  0.4911  0.7721
 
              Baa    -0.0035    -0.465    -0.166    -0.155  0.2431  0.9564 -0.1618
    75 C(13)  Bbb    -0.0032    -0.427    -0.152    -0.142  0.8810 -0.1479  0.4494
              Bcc     0.0066     0.892     0.318     0.297 -0.4059  0.2518  0.8786
 
              Baa    -0.0064    -3.436    -1.226    -1.146  0.8108 -0.4070  0.4207
    76 H(1)   Bbb    -0.0061    -3.276    -1.169    -1.093  0.4041  0.9092  0.1007
              Bcc     0.0126     6.712     2.395     2.239 -0.4235  0.0883  0.9016
 
              Baa    -0.0016    -0.212    -0.076    -0.071  0.2099  0.8091 -0.5490
    77 C(13)  Bbb    -0.0012    -0.163    -0.058    -0.054  0.9259  0.0158  0.3773
              Bcc     0.0028     0.374     0.134     0.125 -0.3139  0.5875  0.7458
 
              Baa    -0.0012    -0.642    -0.229    -0.214  0.8460 -0.0978  0.5242
    78 H(1)   Bbb    -0.0012    -0.624    -0.223    -0.208  0.4373  0.6898 -0.5770
              Bcc     0.0024     1.266     0.452     0.422 -0.3051  0.7174  0.6263
 
              Baa    -0.0066    -0.881    -0.314    -0.294  0.7425 -0.4761 -0.4712
    79 C(13)  Bbb    -0.0063    -0.839    -0.299    -0.280  0.4846  0.8675 -0.1128
              Bcc     0.0128     1.719     0.614     0.574  0.4624 -0.1445  0.8748
 
              Baa    -0.0035    -1.872    -0.668    -0.624 -0.4671  0.7094  0.5277
    80 H(1)   Bbb    -0.0035    -1.846    -0.659    -0.616  0.6355  0.6844 -0.3575
              Bcc     0.0070     3.718     1.327     1.240  0.6148 -0.1683  0.7705
 
              Baa    -0.0039    -2.093    -0.747    -0.698  0.7608 -0.6015 -0.2437
    81 H(1)   Bbb    -0.0039    -2.057    -0.734    -0.686  0.5858  0.7981 -0.1410
              Bcc     0.0078     4.150     1.481     1.384  0.2793 -0.0355  0.9595
 
              Baa    -0.0033    -1.737    -0.620    -0.579  0.8938  0.0500 -0.4457
    82 H(1)   Bbb    -0.0032    -1.727    -0.616    -0.576 -0.2474  0.8838 -0.3970
              Bcc     0.0065     3.464     1.236     1.155  0.3741  0.4651  0.8023
 
              Baa    -0.0077    -1.031    -0.368    -0.344 -0.2679 -0.5423  0.7963
    83 C(13)  Bbb    -0.0071    -0.959    -0.342    -0.320 -0.4301  0.8069  0.4049
              Bcc     0.0148     1.990     0.710     0.664  0.8621  0.2340  0.4494
 
              Baa    -0.0072    -3.865    -1.379    -1.289 -0.5453  0.7914  0.2762
    84 H(1)   Bbb    -0.0070    -3.756    -1.340    -1.253 -0.0672 -0.3697  0.9267
              Bcc     0.0143     7.622     2.720     2.542  0.8355  0.4868  0.2547
 
              Baa    -0.0034    -1.789    -0.638    -0.597 -0.0498  0.9392 -0.3397
    85 H(1)   Bbb    -0.0033    -1.768    -0.631    -0.590 -0.5747  0.2512  0.7788
              Bcc     0.0067     3.557     1.269     1.187  0.8168  0.2341  0.5273
 
              Baa    -0.0081    -1.093    -0.390    -0.365 -0.2250 -0.5698  0.7904
    86 C(13)  Bbb    -0.0066    -0.889    -0.317    -0.297 -0.0565  0.8174  0.5733
              Bcc     0.0148     1.983     0.707     0.661  0.9727 -0.0843  0.2161
 
              Baa    -0.0031    -0.414    -0.148    -0.138  0.0534  0.7870  0.6147
    87 C(13)  Bbb    -0.0026    -0.343    -0.122    -0.114 -0.1903 -0.5963  0.7799
              Bcc     0.0056     0.757     0.270     0.252  0.9803 -0.1586  0.1179
 
              Baa    -0.0017    -0.912    -0.326    -0.304 -0.1999 -0.5813  0.7888
    88 H(1)   Bbb    -0.0017    -0.891    -0.318    -0.297 -0.1100  0.8132  0.5714
              Bcc     0.0034     1.804     0.644     0.602  0.9736 -0.0275  0.2265
 
              Baa    -0.0026    -0.346    -0.124    -0.116 -0.1734 -0.5993  0.7815
    89 C(13)  Bbb    -0.0015    -0.207    -0.074    -0.069  0.2812  0.7304  0.6225
              Bcc     0.0041     0.553     0.197     0.184  0.9439 -0.3277 -0.0419
 
              Baa    -0.0011    -0.586    -0.209    -0.195 -0.1707 -0.5894  0.7896
    90 H(1)   Bbb    -0.0010    -0.559    -0.200    -0.187  0.2830  0.7383  0.6122
              Bcc     0.0021     1.145     0.409     0.382  0.9438 -0.3280 -0.0408
 
              Baa    -0.0030    -0.399    -0.142    -0.133  0.5005  0.6163  0.6081
    91 C(13)  Bbb    -0.0025    -0.335    -0.120    -0.112 -0.1942 -0.6046  0.7725
              Bcc     0.0055     0.734     0.262     0.245  0.8437 -0.5047 -0.1829
 
              Baa    -0.0017    -0.895    -0.319    -0.299 -0.1652 -0.5998  0.7829
    92 H(1)   Bbb    -0.0016    -0.868    -0.310    -0.290  0.6313  0.5456  0.5512
              Bcc     0.0033     1.763     0.629     0.588  0.7577 -0.5853 -0.2886
 
              Baa    -0.0080    -1.079    -0.385    -0.360 -0.2634 -0.6530  0.7101
    93 C(13)  Bbb    -0.0061    -0.814    -0.290    -0.271  0.5785  0.4821  0.6580
              Bcc     0.0141     1.893     0.675     0.631  0.7719 -0.5841 -0.2508
 
              Baa    -0.0017    -0.233    -0.083    -0.078  0.9409  0.0796  0.3293
    94 C(13)  Bbb    -0.0015    -0.205    -0.073    -0.068 -0.0242  0.9853 -0.1692
              Bcc     0.0033     0.437     0.156     0.146 -0.3379  0.1512  0.9289
 
              Baa    -0.0014    -0.744    -0.266    -0.248  0.8969 -0.3229  0.3022
    95 H(1)   Bbb    -0.0014    -0.737    -0.263    -0.246  0.2968  0.9461  0.1298
              Bcc     0.0028     1.481     0.528     0.494 -0.3278 -0.0267  0.9444
 
              Baa    -0.0011    -0.147    -0.053    -0.049 -0.0534  0.9497 -0.3086
    96 C(13)  Bbb    -0.0006    -0.084    -0.030    -0.028  0.9394  0.1526  0.3071
              Bcc     0.0017     0.232     0.083     0.077 -0.3387  0.2735  0.9003
 
              Baa    -0.0006    -0.341    -0.122    -0.114  0.1053  0.9768 -0.1865
    97 H(1)   Bbb    -0.0006    -0.336    -0.120    -0.112  0.9462 -0.0408  0.3209
              Bcc     0.0013     0.677     0.242     0.226 -0.3058  0.2103  0.9286
 
              Baa    -0.0010    -0.139    -0.049    -0.046  0.9502  0.2225  0.2184
    98 C(13)  Bbb    -0.0008    -0.112    -0.040    -0.038 -0.0863  0.8609 -0.5015
              Bcc     0.0019     0.251     0.090     0.084 -0.2995  0.4576  0.8372
 
              Baa    -0.0006    -0.322    -0.115    -0.107  0.9504  0.2299  0.2093
    99 H(1)   Bbb    -0.0006    -0.314    -0.112    -0.105 -0.0784  0.8286 -0.5544
              Bcc     0.0012     0.636     0.227     0.212 -0.3008  0.5105  0.8055
 
              Baa    -1.5247    67.463    24.072    22.503  0.6983 -0.3273 -0.6366
   100 Tm(169 Bbb     0.5759   -25.480    -9.092    -8.499  0.7130  0.2394  0.6590
              Bcc     0.9489   -41.983   -14.981   -14.004  0.0633  0.9141 -0.4005
 

 ---------------------------------------------------------------------------------

 No NMR shielding tensors so no spin-rotation constants.
 Leave Link  601 at Sun Nov 29 22:01:47 2015, MaxMem=  2147483648 cpu:        29.2
 (Enter /home/ik1r11/g09-64-D01/l9999.exe)
 1\1\GINC-GREEN0079\FOpt\UM06\Gen\C42H42N6O6P3Tm1(3)\ROOT\29-Nov-2015\0
 \\#p opt=cartesian m06/Gen guess=mix pseudo=read geom=checkpoint scf=(
 tight,xqc,vtl,maxconventionalcycles=10,novaracc,noincfock) integral=(g
 rid=ultrafine) scrf=(pcm,solvent=methanol) nosymm\\Parker's L2 ligand 
 complex with Tm(III)\\0,3\C,-3.0626529856,-3.6796749721,1.6938471076\H
 ,-2.980762051,-4.6003870079,2.2759500994\C,-4.1577971637,-3.4434450528
 ,0.868026496\H,-4.9636943474,-4.1773911669,0.7960343284\P,1.7302950839
 ,2.5141672689,-0.6743319854\P,-3.0570138827,0.2302920787,-0.6687153092
 \P,1.3531019888,-2.7738590495,-0.6635275903\O,1.4435713734,1.029898593
 9,-0.2963549801\O,3.0971764447,3.1081312412,-0.3823490546\O,-1.6322049
 242,0.7276650443,-0.2861272542\O,-4.2633594456,1.1060151702,-0.3777783
 029\O,0.1917520241,-1.8134830371,-0.2669256202\O,1.2268286437,-4.26000
 89448,-0.3780052472\N,-1.2658425416,1.1069079761,3.1363208959\N,-0.334
 7022373,-1.6464129331,3.1277661662\N,1.5828440724,0.5379970398,3.13647
 3329\N,-0.2901935709,2.6023942679,1.0915368056\N,-2.1160849672,-1.5663
 69378,1.0880451755\N,2.4180476279,-1.0462585873,1.0968718375\C,-2.1075
 98947,0.0555753064,3.7298342149\H,-2.6605550934,0.4392955763,4.6121856
 487\H,-2.864775528,-0.2244060956,2.9810193763\C,-1.3025112989,-1.16033
 85899,4.1509439036\H,-2.0066125461,-1.9674970198,4.4192031764\H,-0.754
 6955073,-0.9433720041,5.0804385779\C,0.993807905,-1.8505567759,3.73103
 31743\H,0.9276731043,-2.5197187902,4.6135007424\H,1.6156156493,-2.3722
 001256,2.9878594125\C,1.0926662141,1.7856543441,3.7465006003\H,1.23690
 68206,2.5903609413,3.01001624\C,-0.3651542236,1.6978525577,4.162617839
 9\H,-0.7095914276,2.7120588092,4.4322057333\H,-0.4544990863,1.11409411
 71,5.0915852212\C,-2.1254094902,2.1551268013,2.5718816522\H,-2.8618090
 767,1.6863578111,1.8909769493\H,-2.7008932544,2.6769261112,3.363057043
 4\C,-1.3193613553,3.1303795721,1.7690577616\C,-1.6477242668,4.48114793
 14,1.6883293917\H,-2.4873453873,4.8727169094,2.2672082148\C,-0.8940782
 687,5.308955874,0.8616357246\H,-1.1260839071,6.3737737628,0.7864181819
 \C,0.1509588072,4.7558198242,0.1302711426\H,0.7603296921,5.3617653973,
 -0.5459392233\C,0.4112710817,3.3948095894,0.2675565448\C,1.2654938897,
 2.7049111113,-2.4218914392\C,2.0805334257,3.4240664544,-3.2974107832\H
 ,2.9936360546,3.8892762287,-2.9143262387\C,1.7318799056,3.5299527972,-
 4.6434849885\H,2.3701262759,4.090451003,-5.3318503288\C,0.5703367421,2
 .9164002045,-5.1116234796\H,0.2996031254,2.9982791003,-6.1678934729\C,
 -0.2457948468,2.196028759,-4.2371269055\H,-1.1513771375,1.7025712657,-
 4.6054051942\C,0.0990746925,2.0898269606,-2.892597659\H,-0.5320771028,
 1.5226577742,-2.1968892826\C,-0.809816854,-2.9224053864,2.5732515853\H
 ,-0.0333543442,-3.3291364515,1.897827678\H,-0.9719006774,-3.6732916004
 ,3.3723499799\C,-2.0576014796,-2.7192571625,1.769641584\C,-4.204009655
 2,-2.2629923446,0.1349507055\H,-5.0359295811,-2.0393616808,-0.53856539
 75\C,-3.1556591521,-1.356071601,0.2675232397\C,-2.9837486086,-0.264622
 3251,-2.4168838041\C,-1.8556425619,-0.9461354383,-2.8891751951\H,-1.04
 25297525,-1.1923405463,-2.1947926428\C,-1.7721494619,-1.3002024835,-4.
 2329493464\H,-0.8834879611,-1.8232517294,-4.6019212288\C,-2.8130549256
 ,-0.9755662874,-5.1053003182\H,-2.7463506412,-1.2525856027,-6.16099584
 41\C,-3.9372698112,-0.297020648,-4.6357635264\H,-4.7489203137,-0.04211
 56202,-5.3225273345\C,-4.0232232097,0.0590852785,-3.2902746924\H,-4.89
 29600933,0.6003467578,-2.9059503429\C,1.7256288002,-2.4509751946,-2.41
 35958033\C,1.7358025212,-1.1311718339,-2.8802605344\H,1.5413816239,-0.
 3096499961,-2.1795170639\C,1.9638363279,-3.5075083334,-3.2938972369\H,
 1.9419804325,-4.5328452718,-2.9128767541\C,1.648408145,-0.5474402458,4
 .1540430179\H,2.7002536599,-0.7583219875,4.4160014917\H,1.1924484066,-
 0.1848298003,5.0879808376\H,1.7010115046,2.0568725324,4.6339321973\C,2
 .9225515771,0.7723714695,2.579721673\H,2.8819221097,1.6487501412,1.903
 9371099\H,3.6546947172,1.0125394003,3.3769510696\C,3.3808278102,-0.404
 4836213,1.7736975061\C,4.720986311,-0.7718396031,1.6873911614\H,5.4721
 544329,-0.2293515457,2.2659553609\C,5.0766759375,-1.8289479948,0.85527
 04628\H,6.1202412047,-2.1417343913,0.7750778537\C,4.0836370073,-2.4729
 066233,0.1256140152\H,4.3159485425,-3.2981619213,-0.5531377504\C,2.767
 4258732,-2.0421064785,0.2689523337\C,1.9846104941,-0.8741760182,-4.225
 7261483\H,1.9802481417,0.1583833584,-4.5907211248\C,2.2229313822,-1.93
 2130522,-5.1051515104\H,2.4163986618,-1.729729508,-6.1621905523\C,2.21
 23621516,-3.2472246932,-4.6412208033\H,2.3960508997,-4.0731684705,-5.3
 336668332\Tm,0.0059146316,-0.0184640209,1.0514075549\\Version=ES64L-G0
 9RevD.01\HF=-4513.9688412\S2=2.002044\S2-1=0.\S2A=2.000003\RMSD=1.420e
 -08\RMSF=6.145e-06\Dipole=0.0084562,0.0237639,6.2104295\Quadrupole=-20
 .5066626,-20.8963934,41.403056,0.8844801,0.1156374,-0.3586195\PG=C01 [
 X(C42H42N6O6P3Tm1)]\\@


 A SUCCESSFUL PURSUIT OF SCIENCE MAKES A MAN THE
 BENEFACTOR OF ALL MANKIND OF EVERY AGE.
   --  JOSEPH PRIESTLEY, "EXPERIMENTS AND
 OBSERVATIONS ON DIFFERENT KINDS OF AIR", 1774
 Job cpu time:       0 days  0 hours 11 minutes 47.1 seconds.
 File lengths (MBytes):  RWF=   1820 Int=      0 D2E=      0 Chk=    116 Scr=      8
 Normal termination of Gaussian 09 at Sun Nov 29 22:01:47 2015.
