 Entering Gaussian System, Link 0=g03
 Input=eu_tetrapy_nmr.com
 Output=eu_tetrapy_nmr.log
 Initial command:
 /data/hamilton/dch0ik/g03/l1.exe /tmp/Gau-27145.inp -scrdir=/tmp/
 Entering Link 1 = /data/hamilton/dch0ik/g03/l1.exe PID=     27148.
  
 Copyright (c) 1988,1990,1992,1993,1995,1998,2003,2004, Gaussian, Inc.
                  All Rights Reserved.
  
 This is the Gaussian(R) 03 program.  It is based on the
 the Gaussian(R) 98 system (copyright 1998, Gaussian, Inc.),
 the Gaussian(R) 94 system (copyright 1995, Gaussian, Inc.),
 the Gaussian 92(TM) system (copyright 1992, Gaussian, Inc.),
 the Gaussian 90(TM) system (copyright 1990, Gaussian, Inc.),
 the Gaussian 88(TM) system (copyright 1988, Gaussian, Inc.),
 the Gaussian 86(TM) system (copyright 1986, Carnegie Mellon
 University), and the Gaussian 82(TM) system (copyright 1983,
 Carnegie Mellon University). Gaussian is a federally registered
 trademark of Gaussian, Inc.
  
 This software contains proprietary and confidential information,
 including trade secrets, belonging to Gaussian, Inc.
  
 This software is provided under written license and may be
 used, copied, transmitted, or stored only in accord with that
 written license.
  
 The following legend is applicable only to US Government
 contracts under FAR:
  
                    RESTRICTED RIGHTS LEGEND
  
 Use, reproduction and disclosure by the US Government is
 subject to restrictions as set forth in subparagraphs (a)
 and (c) of the Commercial Computer Software - Restricted
 Rights clause in FAR 52.227-19.
  
 Gaussian, Inc.
 340 Quinnipiac St., Bldg. 40, Wallingford CT 06492
  
  
 ---------------------------------------------------------------
 Warning -- This program may not be used in any manner that
 competes with the business of Gaussian, Inc. or will provide
 assistance to any competitor of Gaussian, Inc.  The licensee
 of this program is prohibited from giving any competitor of
 Gaussian, Inc. access to this program.  By using this program,
 the user acknowledges that Gaussian, Inc. is engaged in the
 business of creating and licensing software in the field of
 computational chemistry and represents and warrants to the
 licensee that it is not a competitor of Gaussian, Inc. and that
 it will not use this program in any manner prohibited above.
 ---------------------------------------------------------------
  

 Cite this work as:
 Gaussian 03, Revision D.01,
 M. J. Frisch, G. W. Trucks, H. B. Schlegel, G. E. Scuseria, 
 M. A. Robb, J. R. Cheeseman, J. A. Montgomery, Jr., T. Vreven, 
 K. N. Kudin, J. C. Burant, J. M. Millam, S. S. Iyengar, J. Tomasi, 
 V. Barone, B. Mennucci, M. Cossi, G. Scalmani, N. Rega, 
 G. A. Petersson, H. Nakatsuji, M. Hada, M. Ehara, K. Toyota, 
 R. Fukuda, J. Hasegawa, M. Ishida, T. Nakajima, Y. Honda, O. Kitao, 
 H. Nakai, M. Klene, X. Li, J. E. Knox, H. P. Hratchian, J. B. Cross, 
 V. Bakken, C. Adamo, J. Jaramillo, R. Gomperts, R. E. Stratmann, 
 O. Yazyev, A. J. Austin, R. Cammi, C. Pomelli, J. W. Ochterski, 
 P. Y. Ayala, K. Morokuma, G. A. Voth, P. Salvador, J. J. Dannenberg, 
 V. G. Zakrzewski, S. Dapprich, A. D. Daniels, M. C. Strain, 
 O. Farkas, D. K. Malick, A. D. Rabuck, K. Raghavachari, 
 J. B. Foresman, J. V. Ortiz, Q. Cui, A. G. Baboul, S. Clifford, 
 J. Cioslowski, B. B. Stefanov, G. Liu, A. Liashenko, P. Piskorz, 
 I. Komaromi, R. L. Martin, D. J. Fox, T. Keith, M. A. Al-Laham, 
 C. Y. Peng, A. Nanayakkara, M. Challacombe, P. M. W. Gill, 
 B. Johnson, W. Chen, M. W. Wong, C. Gonzalez, and J. A. Pople, 
 Gaussian, Inc., Wallingford CT, 2004.
 
 ******************************************
 Gaussian 03:  IA32L-G03RevD.01 13-Oct-2005
                 3-Mar-2008 
 ******************************************
 %Mem=1600MB
 %NProcShared=2
 Will use up to    2 processors via shared memory.
 %NProcLinda=16
 Will use up to   16 processors via Linda.
 %Chk=eu_tetrapy_nmr.chk
 ----------------------------------------------------------------------
 #p nmr=(csgt,susceptibility) ub3lyp/Gen guess=read scf=tight pseudo=re
 ad geom=checkpoint
 ----------------------------------------------------------------------
 1/29=2,38=1/1;
 2/40=1/2;
 3/5=7,11=2,16=1,17=8,25=1,30=1,74=-5/1,2,8,3;
 4/5=1,7=2/1;
 5/5=2,32=2,38=6/2;
 8/6=1,10=90,11=11/1;
 10/6=1,13=100,45=4/2;
 6/7=2,8=2,9=2,10=2,28=1/1;
 99/9=1/99;
 Leave Link    1 at Mon Mar  3 01:20:16 2008, MaxMem=  209715200 cpu:       0.4
 (Enter /data/hamilton/dch0ik/g03/l101.exe)
 ---------------------------------------------------
 Tetra-py cage system, Eu(III), unhydrated geometry.
 ---------------------------------------------------
 No Z-matrix found on checkpoint file.
 Cartesian coordinates read from the checkpoint file:
 eu_tetrapy_nmr.chk
 Charge =  3 Multiplicity = 7
  C                                                -2.500069049792     -0.993506109853      2.347885283670
  H                                                -3.067312223688     -1.553602539172      1.592579176410
  H                                                -3.189097442122     -0.835587406903      3.197069496765
  C                                                -1.307324530076     -1.813695661227      2.827298122249
  H                                                -0.780732595860     -1.283667319013      3.632597367829
  H                                                -1.678780021641     -2.753235226315      3.275696397951
  N                                                -0.319220582375     -2.107863577954      1.747602676768
  N                                                -2.107863577954      0.319220582375      1.747602676768
  C                                                -1.813695661227      1.307324530076      2.827298122249
  H                                                -2.753235226315      1.678780021641      3.275696397951
  H                                                -1.283667319013      0.780732595860      3.632597367829
  C                                                -0.993506109853      2.500069049792      2.347885283670
  H                                                -0.835587406903      3.189097442122      3.197069496765
  H                                                -1.553602539172      3.067312223688      1.592579176410
  C                                                 0.993506109853     -2.500069049792      2.347885283670
  H                                                 1.553602539172     -3.067312223688      1.592579176410
  H                                                 0.835587406903     -3.189097442122      3.197069496765
  C                                                 1.813695661227     -1.307324530076      2.827298122249
  H                                                 2.753235226315     -1.678780021641      3.275696397951
  H                                                 1.283667319013     -0.780732595860      3.632597367829
  N                                                 0.319220582375      2.107863577954      1.747602676768
  N                                                 2.107863577954     -0.319220582375      1.747602676768
  C                                                 2.500069049792      0.993506109853      2.347885283670
  H                                                 3.067312223688      1.553602539172      1.592579176410
  H                                                 3.189097442122      0.835587406903      3.197069496765
  C                                                 1.307324530076      1.813695661227      2.827298122249
  H                                                 1.678780021641      2.753235226315      3.275696397951
  H                                                 0.780732595860      1.283667319013      3.632597367829
  C                                                -0.816501069813     -3.218552699686      0.890454658903
  H                                                -1.857003375785     -2.997144363055      0.607105383900
  H                                                -0.840535187342     -4.164588592353      1.459959192222
  C                                                 0.816501069813      3.218552699686      0.890454658903
  H                                                 0.840535187342      4.164588592353      1.459959192222
  H                                                 1.857003375785      2.997144363055      0.607105383900
  C                                                 3.218552699686     -0.816501069813      0.890454658903
  H                                                 2.997144363055     -1.857003375785      0.607105383900
  H                                                 4.164588592353     -0.840535187342      1.459959192222
  C                                                 0.000000000000      3.398485486716     -0.370954304127
  C                                                 0.000000000000     -3.398485486716     -0.370954304127
  C                                                 3.398485486716      0.000000000000     -0.370954304127
  C                                                -3.218552699686      0.816501069813      0.890454658903
  H                                                -4.164588592353      0.840535187342      1.459959192222
  H                                                -2.997144363055      1.857003375785      0.607105383900
  C                                                -3.398485486716      0.000000000000     -0.370954304127
  C                                                 0.173539881316     -4.668517237307     -0.927009342018
  H                                                -0.238769368694     -5.545386663122     -0.424272173416
  C                                                 0.876770051628     -4.804181122881     -2.125913442105
  C                                                 1.400824036077     -3.658434339189     -2.729523107826
  H                                                 1.962699696756     -3.713345618732     -3.662965831793
  C                                                 1.200891679098     -2.429769683331     -2.106942492105
  H                                                 1.611089086058     -1.518801872123     -2.547039411479
  H                                                 1.019828865890     -5.788914913983     -2.575770056108
  N                                                 0.510779673665     -2.281977029683     -0.950816077392
  N                                                 2.281977029683      0.510779673665     -0.950816077392
  N                                                -0.510779673665      2.281977029683     -0.950816077392
  N                                                -2.281977029683     -0.510779673665     -0.950816077392
  C                                                 4.668517237307      0.173539881316     -0.927009342018
  H                                                 5.545386663122     -0.238769368694     -0.424272173416
  C                                                 4.804181122881      0.876770051628     -2.125913442105
  H                                                 5.788914913983      1.019828865890     -2.575770056108
  C                                                 3.658434339189      1.400824036077     -2.729523107826
  H                                                 3.713345618732      1.962699696756     -3.662965831793
  C                                                 2.429769683331      1.200891679098     -2.106942492105
  H                                                 1.518801872123      1.611089086058     -2.547039411479
  C                                                -0.173539881316      4.668517237307     -0.927009342018
  H                                                 0.238769368694      5.545386663122     -0.424272173416
  C                                                -0.876770051628      4.804181122881     -2.125913442105
  H                                                -1.019828865890      5.788914913983     -2.575770056108
  C                                                -1.400824036077      3.658434339189     -2.729523107826
  H                                                -1.962699696756      3.713345618732     -3.662965831793
  C                                                -1.200891679098      2.429769683331     -2.106942492105
  H                                                -1.611089086058      1.518801872123     -2.547039411479
  C                                                -4.668517237307     -0.173539881316     -0.927009342018
  H                                                -5.545386663122      0.238769368694     -0.424272173416
  C                                                -4.804181122881     -0.876770051628     -2.125913442105
  H                                                -5.788914913983     -1.019828865890     -2.575770056108
  C                                                -3.658434339189     -1.400824036077     -2.729523107826
  C                                                -2.429769683331     -1.200891679098     -2.106942492105
  H                                                -3.713345618732     -1.962699696756     -3.662965831793
  H                                                -1.518801872123     -1.611089086058     -2.547039411479
  Eu                                                0.000000000000      0.000000000000      0.192746789845
 Recover connectivity data from disk.
                    Isotopes and Nuclear Properties:
 (Nuclear quadrupole moments (NQMom) in fm**2, nuclear magnetic moments (NMagM)
  in nuclear magnetons)

  Atom         1           2           3           4           5           6           7           8           9          10
 IAtWgt=          12           1           1          12           1           1          14          14          12           1
 AtmWgt=  12.0000000   1.0078250   1.0078250  12.0000000   1.0078250   1.0078250  14.0030740  14.0030740  12.0000000   1.0078250
 NucSpn=           0           1           1           0           1           1           2           2           0           1
 AtZEff=  -3.6000000  -1.0000000  -1.0000000  -3.6000000  -1.0000000  -1.0000000  -4.5500000  -4.5500000  -3.6000000  -1.0000000
 NQMom=    0.0000000   0.0000000   0.0000000   0.0000000   0.0000000   0.0000000   2.0440000   2.0440000   0.0000000   0.0000000
 NMagM=    0.0000000   2.7928460   2.7928460   0.0000000   2.7928460   2.7928460   0.4037610   0.4037610   0.0000000   2.7928460

  Atom        11          12          13          14          15          16          17          18          19          20
 IAtWgt=           1          12           1           1          12           1           1          12           1           1
 AtmWgt=   1.0078250  12.0000000   1.0078250   1.0078250  12.0000000   1.0078250   1.0078250  12.0000000   1.0078250   1.0078250
 NucSpn=           1           0           1           1           0           1           1           0           1           1
 AtZEff=  -1.0000000  -3.6000000  -1.0000000  -1.0000000  -3.6000000  -1.0000000  -1.0000000  -3.6000000  -1.0000000  -1.0000000
 NQMom=    0.0000000   0.0000000   0.0000000   0.0000000   0.0000000   0.0000000   0.0000000   0.0000000   0.0000000   0.0000000
 NMagM=    2.7928460   0.0000000   2.7928460   2.7928460   0.0000000   2.7928460   2.7928460   0.0000000   2.7928460   2.7928460

  Atom        21          22          23          24          25          26          27          28          29          30
 IAtWgt=          14          14          12           1           1          12           1           1          12           1
 AtmWgt=  14.0030740  14.0030740  12.0000000   1.0078250   1.0078250  12.0000000   1.0078250   1.0078250  12.0000000   1.0078250
 NucSpn=           2           2           0           1           1           0           1           1           0           1
 AtZEff=  -4.5500000  -4.5500000  -3.6000000  -1.0000000  -1.0000000  -3.6000000  -1.0000000  -1.0000000  -3.6000000  -1.0000000
 NQMom=    2.0440000   2.0440000   0.0000000   0.0000000   0.0000000   0.0000000   0.0000000   0.0000000   0.0000000   0.0000000
 NMagM=    0.4037610   0.4037610   0.0000000   2.7928460   2.7928460   0.0000000   2.7928460   2.7928460   0.0000000   2.7928460

  Atom        31          32          33          34          35          36          37          38          39          40
 IAtWgt=           1          12           1           1          12           1           1          12          12          12
 AtmWgt=   1.0078250  12.0000000   1.0078250   1.0078250  12.0000000   1.0078250   1.0078250  12.0000000  12.0000000  12.0000000
 NucSpn=           1           0           1           1           0           1           1           0           0           0
 AtZEff=  -1.0000000  -3.6000000  -1.0000000  -1.0000000  -3.6000000  -1.0000000  -1.0000000  -3.6000000  -3.6000000  -3.6000000
 NQMom=    0.0000000   0.0000000   0.0000000   0.0000000   0.0000000   0.0000000   0.0000000   0.0000000   0.0000000   0.0000000
 NMagM=    2.7928460   0.0000000   2.7928460   2.7928460   0.0000000   2.7928460   2.7928460   0.0000000   0.0000000   0.0000000

  Atom        41          42          43          44          45          46          47          48          49          50
 IAtWgt=          12           1           1          12          12           1          12          12           1          12
 AtmWgt=  12.0000000   1.0078250   1.0078250  12.0000000  12.0000000   1.0078250  12.0000000  12.0000000   1.0078250  12.0000000
 NucSpn=           0           1           1           0           0           1           0           0           1           0
 AtZEff=  -3.6000000  -1.0000000  -1.0000000  -3.6000000  -3.6000000  -1.0000000  -3.6000000  -3.6000000  -1.0000000  -3.6000000
 NQMom=    0.0000000   0.0000000   0.0000000   0.0000000   0.0000000   0.0000000   0.0000000   0.0000000   0.0000000   0.0000000
 NMagM=    0.0000000   2.7928460   2.7928460   0.0000000   0.0000000   2.7928460   0.0000000   0.0000000   2.7928460   0.0000000

  Atom        51          52          53          54          55          56          57          58          59          60
 IAtWgt=           1           1          14          14          14          14          12           1          12           1
 AtmWgt=   1.0078250   1.0078250  14.0030740  14.0030740  14.0030740  14.0030740  12.0000000   1.0078250  12.0000000   1.0078250
 NucSpn=           1           1           2           2           2           2           0           1           0           1
 AtZEff=  -1.0000000  -1.0000000  -4.5500000  -4.5500000  -4.5500000  -4.5500000  -3.6000000  -1.0000000  -3.6000000  -1.0000000
 NQMom=    0.0000000   0.0000000   2.0440000   2.0440000   2.0440000   2.0440000   0.0000000   0.0000000   0.0000000   0.0000000
 NMagM=    2.7928460   2.7928460   0.4037610   0.4037610   0.4037610   0.4037610   0.0000000   2.7928460   0.0000000   2.7928460

  Atom        61          62          63          64          65          66          67          68          69          70
 IAtWgt=          12           1          12           1          12           1          12           1          12           1
 AtmWgt=  12.0000000   1.0078250  12.0000000   1.0078250  12.0000000   1.0078250  12.0000000   1.0078250  12.0000000   1.0078250
 NucSpn=           0           1           0           1           0           1           0           1           0           1
 AtZEff=  -3.6000000  -1.0000000  -3.6000000  -1.0000000  -3.6000000  -1.0000000  -3.6000000  -1.0000000  -3.6000000  -1.0000000
 NQMom=    0.0000000   0.0000000   0.0000000   0.0000000   0.0000000   0.0000000   0.0000000   0.0000000   0.0000000   0.0000000
 NMagM=    0.0000000   2.7928460   0.0000000   2.7928460   0.0000000   2.7928460   0.0000000   2.7928460   0.0000000   2.7928460

  Atom        71          72          73          74          75          76          77          78          79          80
 IAtWgt=          12           1          12           1          12           1          12          12           1           1
 AtmWgt=  12.0000000   1.0078250  12.0000000   1.0078250  12.0000000   1.0078250  12.0000000  12.0000000   1.0078250   1.0078250
 NucSpn=           0           1           0           1           0           1           0           0           1           1
 AtZEff=  -3.6000000  -1.0000000  -3.6000000  -1.0000000  -3.6000000  -1.0000000  -3.6000000  -3.6000000  -1.0000000  -1.0000000
 NQMom=    0.0000000   0.0000000   0.0000000   0.0000000   0.0000000   0.0000000   0.0000000   0.0000000   0.0000000   0.0000000
 NMagM=    0.0000000   2.7928460   0.0000000   2.7928460   0.0000000   2.7928460   0.0000000   0.0000000   2.7928460   2.7928460

  Atom        81
 IAtWgt=         153
 AtmWgt= 152.9209000
 NucSpn=           5
 AtZEff=-888.3000000
 NQMom=  241.2000000
 NMagM=    1.5331000
 Leave Link  101 at Mon Mar  3 01:20:18 2008, MaxMem=  209715200 cpu:       0.2
 (Enter /data/hamilton/dch0ik/g03/l202.exe)
 Stoichiometry    C32H40EuN8(3+,7)
 Framework group  C4[C4(Eu),X(C32H40N8)]
 Deg. of freedom    59
 Full point group                 C4
 Largest Abelian subgroup         C2      NOp   2
 Largest concise Abelian subgroup C2      NOp   2
                         Standard orientation:                         
 ---------------------------------------------------------------------
 Center     Atomic     Atomic              Coordinates (Angstroms)
 Number     Number      Type              X           Y           Z
 ---------------------------------------------------------------------
    1          6             0       -2.500069   -0.993506    2.347885
    2          1             0       -3.067312   -1.553603    1.592579
    3          1             0       -3.189097   -0.835587    3.197069
    4          6             0       -1.307325   -1.813696    2.827298
    5          1             0       -0.780733   -1.283667    3.632597
    6          1             0       -1.678780   -2.753235    3.275696
    7          7             0       -0.319221   -2.107864    1.747603
    8          7             0       -2.107864    0.319221    1.747603
    9          6             0       -1.813696    1.307325    2.827298
   10          1             0       -2.753235    1.678780    3.275696
   11          1             0       -1.283667    0.780733    3.632597
   12          6             0       -0.993506    2.500069    2.347885
   13          1             0       -0.835587    3.189097    3.197069
   14          1             0       -1.553603    3.067312    1.592579
   15          6             0        0.993506   -2.500069    2.347885
   16          1             0        1.553603   -3.067312    1.592579
   17          1             0        0.835587   -3.189097    3.197069
   18          6             0        1.813696   -1.307325    2.827298
   19          1             0        2.753235   -1.678780    3.275696
   20          1             0        1.283667   -0.780733    3.632597
   21          7             0        0.319221    2.107864    1.747603
   22          7             0        2.107864   -0.319221    1.747603
   23          6             0        2.500069    0.993506    2.347885
   24          1             0        3.067312    1.553603    1.592579
   25          1             0        3.189097    0.835587    3.197069
   26          6             0        1.307325    1.813696    2.827298
   27          1             0        1.678780    2.753235    3.275696
   28          1             0        0.780733    1.283667    3.632597
   29          6             0       -0.816501   -3.218553    0.890455
   30          1             0       -1.857003   -2.997144    0.607105
   31          1             0       -0.840535   -4.164589    1.459959
   32          6             0        0.816501    3.218553    0.890455
   33          1             0        0.840535    4.164589    1.459959
   34          1             0        1.857003    2.997144    0.607105
   35          6             0        3.218553   -0.816501    0.890455
   36          1             0        2.997144   -1.857003    0.607105
   37          1             0        4.164589   -0.840535    1.459959
   38          6             0        0.000000    3.398485   -0.370954
   39          6             0        0.000000   -3.398485   -0.370954
   40          6             0        3.398485    0.000000   -0.370954
   41          6             0       -3.218553    0.816501    0.890455
   42          1             0       -4.164589    0.840535    1.459959
   43          1             0       -2.997144    1.857003    0.607105
   44          6             0       -3.398485    0.000000   -0.370954
   45          6             0        0.173540   -4.668517   -0.927009
   46          1             0       -0.238769   -5.545387   -0.424272
   47          6             0        0.876770   -4.804181   -2.125913
   48          6             0        1.400824   -3.658434   -2.729523
   49          1             0        1.962700   -3.713346   -3.662966
   50          6             0        1.200892   -2.429770   -2.106942
   51          1             0        1.611089   -1.518802   -2.547039
   52          1             0        1.019829   -5.788915   -2.575770
   53          7             0        0.510780   -2.281977   -0.950816
   54          7             0        2.281977    0.510780   -0.950816
   55          7             0       -0.510780    2.281977   -0.950816
   56          7             0       -2.281977   -0.510780   -0.950816
   57          6             0        4.668517    0.173540   -0.927009
   58          1             0        5.545387   -0.238769   -0.424272
   59          6             0        4.804181    0.876770   -2.125913
   60          1             0        5.788915    1.019829   -2.575770
   61          6             0        3.658434    1.400824   -2.729523
   62          1             0        3.713346    1.962700   -3.662966
   63          6             0        2.429770    1.200892   -2.106942
   64          1             0        1.518802    1.611089   -2.547039
   65          6             0       -0.173540    4.668517   -0.927009
   66          1             0        0.238769    5.545387   -0.424272
   67          6             0       -0.876770    4.804181   -2.125913
   68          1             0       -1.019829    5.788915   -2.575770
   69          6             0       -1.400824    3.658434   -2.729523
   70          1             0       -1.962700    3.713346   -3.662966
   71          6             0       -1.200892    2.429770   -2.106942
   72          1             0       -1.611089    1.518802   -2.547039
   73          6             0       -4.668517   -0.173540   -0.927009
   74          1             0       -5.545387    0.238769   -0.424272
   75          6             0       -4.804181   -0.876770   -2.125913
   76          1             0       -5.788915   -1.019829   -2.575770
   77          6             0       -3.658434   -1.400824   -2.729523
   78          6             0       -2.429770   -1.200892   -2.106942
   79          1             0       -3.713346   -1.962700   -3.662966
   80          1             0       -1.518802   -1.611089   -2.547039
   81         63             0        0.000000    0.000000    0.192747
 ---------------------------------------------------------------------
 Rotational constants (GHZ):      0.0994599      0.0994599      0.0824013
 Leave Link  202 at Mon Mar  3 01:20:21 2008, MaxMem=  209715200 cpu:       0.3
 (Enter /data/hamilton/dch0ik/g03/l301.exe)
 General basis read from cards:  (5D, 7F)
 Centers:   1  4  9 12 15 18 23 26 29 32 35 38 39 40 41 44 45 47 48 50
 Centers:  57 59 61 63 65 67 69 71 73 75 77 78  2  3  5  6 10 11 13 14
 Centers:  16 17 19 20 24 25 27 28 30 31 33 34 36 37 42 43 46 49 51 52
 Centers:  58 60 62 64 66 68 70 72 74 76 79 80  7  8 21 22 53 54 55 56
 cc-pVTZ
 ****
 Centers:  81
 S 10 1.00
     Exponent=  9.6905531000D+03 Coefficients=  1.0812000000D-03
     Exponent=  1.4659717000D+03 Coefficients=  7.1956000000D-03
     Exponent=  3.2638554000D+02 Coefficients=  1.7848400000D-02
     Exponent=  2.2110328000D+01 Coefficients=  8.1549310000D-01
     Exponent=  1.5732138000D+01 Coefficients= -1.4476349000D+00
     Exponent=  4.4005180000D+00 Coefficients=  6.5489570000D-01
     Exponent=  2.4449630000D+00 Coefficients=  7.2498390000D-01
     Exponent=  6.6379800000D-01 Coefficients=  1.1416440000D-01
     Exponent=  4.7414100000D-01 Coefficients= -8.2859000000D-02
     Exponent=  2.6885900000D-01 Coefficients=  1.7462000000D-02
 S 10 1.00
     Exponent=  9.6905531000D+03 Coefficients=  9.6990000000D-04
     Exponent=  1.4659717000D+03 Coefficients=  6.0789000000D-03
     Exponent=  3.2638554000D+02 Coefficients=  1.7168900000D-02
     Exponent=  2.2110328000D+01 Coefficients=  4.1772880000D-01
     Exponent=  1.5732138000D+01 Coefficients= -7.5820040000D-01
     Exponent=  4.4005180000D+00 Coefficients=  4.9350720000D-01
     Exponent=  2.4449630000D+00 Coefficients=  6.2716920000D-01
     Exponent=  6.6379800000D-01 Coefficients= -6.4049110000D-01
     Exponent=  4.7414100000D-01 Coefficients= -2.8656870000D-01
     Exponent=  2.6885900000D-01 Coefficients= -3.9803770000D-01
 S 10 1.00
     Exponent=  9.6905531000D+03 Coefficients=  2.8730000000D-04
     Exponent=  1.4659717000D+03 Coefficients=  1.7897000000D-03
     Exponent=  3.2638554000D+02 Coefficients=  5.1215000000D-03
     Exponent=  2.2110328000D+01 Coefficients=  1.1184850000D-01
     Exponent=  1.5732138000D+01 Coefficients= -2.0298480000D-01
     Exponent=  4.4005180000D+00 Coefficients=  1.3939670000D-01
     Exponent=  2.4449630000D+00 Coefficients=  1.7988860000D-01
     Exponent=  6.6379800000D-01 Coefficients= -2.2591350000D-01
     Exponent=  4.7414100000D-01 Coefficients= -1.4383230000D-01
     Exponent=  2.6885900000D-01 Coefficients= -3.0522480000D-01
 S 1 1.00
     Exponent=  2.3063000000D-02 Coefficients=  1.0000000000D+00
 S 1 1.00
     Exponent=  5.6519000000D-02 Coefficients=  1.0000000000D+00
 P 8 1.00
     Exponent=  6.5319305000D+02 Coefficients=  1.0316000000D-03
     Exponent=  1.5162264000D+02 Coefficients=  5.8429000000D-03
     Exponent=  3.0804114000D+01 Coefficients=  5.8543100000D-02
     Exponent=  2.1842694000D+01 Coefficients= -5.1480000000D-04
     Exponent=  1.5507255000D+01 Coefficients= -2.3804550000D-01
     Exponent=  5.1125800000D+00 Coefficients=  5.8303250000D-01
     Exponent=  2.4792290000D+00 Coefficients=  5.1875530000D-01
     Exponent=  9.8100200000D-01 Coefficients=  6.9849700000D-02
 P 8 1.00
     Exponent=  6.5319305000D+02 Coefficients= -5.1470000000D-04
     Exponent=  1.5162264000D+02 Coefficients= -2.8246000000D-03
     Exponent=  3.0804114000D+01 Coefficients= -3.7574900000D-02
     Exponent=  2.1842694000D+01 Coefficients=  4.0333100000D-02
     Exponent=  1.5507255000D+01 Coefficients=  6.6524400000D-02
     Exponent=  5.1125800000D+00 Coefficients= -3.2374140000D-01
     Exponent=  2.4792290000D+00 Coefficients= -2.6450980000D-01
     Exponent=  9.8100200000D-01 Coefficients=  3.4511630000D-01
 P 1 1.00
     Exponent=  1.7711000000D-01 Coefficients=  1.0000000000D+00
 P 1 1.00
     Exponent=  4.3809400000D-01 Coefficients=  1.0000000000D+00
 P 1 1.00
     Exponent=  7.0000000000D-02 Coefficients=  1.0000000000D+00
 D 6 1.00
     Exponent=  3.2228566000D+02 Coefficients=  7.9060000000D-04
     Exponent=  9.7328744000D+01 Coefficients=  5.9671000000D-03
     Exponent=  3.7029883000D+01 Coefficients=  2.2438800000D-02
     Exponent=  8.8510670000D+00 Coefficients=  1.7432890000D-01
     Exponent=  5.0730460000D+00 Coefficients=  3.8381550000D-01
     Exponent=  2.7210140000D+00 Coefficients=  3.7830270000D-01
 D 1 1.00
     Exponent=  6.1485000000D-01 Coefficients=  1.0000000000D+00
 D 1 1.00
     Exponent=  1.3772310000D+00 Coefficients=  1.0000000000D+00
 D 1 1.00
     Exponent=  2.7000000000D-01 Coefficients=  1.0000000000D+00
 F 6 1.00
     Exponent=  1.1705156000D+02 Coefficients= -4.2728000000D-03
     Exponent=  4.2589148000D+01 Coefficients= -4.0425600000D-02
     Exponent=  1.9046336000D+01 Coefficients= -1.3366110000D-01
     Exponent=  8.6871630000D+00 Coefficients= -2.6039620000D-01
     Exponent=  3.9792550000D+00 Coefficients= -3.4898610000D-01
     Exponent=  1.7728350000D+00 Coefficients= -3.3423350000D-01
 F 1 1.00
     Exponent=  2.7019500000D-01 Coefficients=  1.0000000000D+00
 F 1 1.00
     Exponent=  7.3777600000D-01 Coefficients=  1.0000000000D+00
 ****
 ===================================================================================================================================
 Pseudopotential Parameters 
 ===================================================================================================================================
  Center     Atomic      Valence      Angular      Power                                                       Coordinates
  Number     Number     Electrons     Momentum     of R      Exponent        Coefficient                X           Y           Z
 ===================================================================================================================================
    1          6                                                                                   -4.724446 -1.877454  4.436860
                                   No pseudopotential on this center.
    2          1                                                                                   -5.796380 -2.935883  3.009538
                                   No pseudopotential on this center.
    3          1                                                                                   -6.026521 -1.579031  6.041586
                                   No pseudopotential on this center.
    4          6                                                                                   -2.470485 -3.427388  5.342819
                                   No pseudopotential on this center.
    5          1                                                                                   -1.475371 -2.425780  6.864614
                                   No pseudopotential on this center.
    6          1                                                                                   -3.172434 -5.202861  6.190169
                                   No pseudopotential on this center.
    7          7                                                                                   -0.603239 -3.983285  3.302490
                                   No pseudopotential on this center.
    8          7                                                                                   -3.983285  0.603239  3.302490
                                   No pseudopotential on this center.
    9          6                                                                                   -3.427388  2.470485  5.342819
                                   No pseudopotential on this center.
   10          1                                                                                   -5.202861  3.172434  6.190169
                                   No pseudopotential on this center.
   11          1                                                                                   -2.425780  1.475371  6.864614
                                   No pseudopotential on this center.
   12          6                                                                                   -1.877454  4.724446  4.436860
                                   No pseudopotential on this center.
   13          1                                                                                   -1.579031  6.026521  6.041586
                                   No pseudopotential on this center.
   14          1                                                                                   -2.935883  5.796380  3.009538
                                   No pseudopotential on this center.
   15          6                                                                                    1.877454 -4.724446  4.436860
                                   No pseudopotential on this center.
   16          1                                                                                    2.935883 -5.796380  3.009538
                                   No pseudopotential on this center.
   17          1                                                                                    1.579031 -6.026521  6.041586
                                   No pseudopotential on this center.
   18          6                                                                                    3.427388 -2.470485  5.342819
                                   No pseudopotential on this center.
   19          1                                                                                    5.202861 -3.172434  6.190169
                                   No pseudopotential on this center.
   20          1                                                                                    2.425780 -1.475371  6.864614
                                   No pseudopotential on this center.
   21          7                                                                                    0.603239  3.983285  3.302490
                                   No pseudopotential on this center.
   22          7                                                                                    3.983285 -0.603239  3.302490
                                   No pseudopotential on this center.
   23          6                                                                                    4.724446  1.877454  4.436860
                                   No pseudopotential on this center.
   24          1                                                                                    5.796380  2.935883  3.009538
                                   No pseudopotential on this center.
   25          1                                                                                    6.026521  1.579031  6.041586
                                   No pseudopotential on this center.
   26          6                                                                                    2.470485  3.427388  5.342819
                                   No pseudopotential on this center.
   27          1                                                                                    3.172434  5.202861  6.190169
                                   No pseudopotential on this center.
   28          1                                                                                    1.475371  2.425780  6.864614
                                   No pseudopotential on this center.
   29          6                                                                                   -1.542963 -6.082183  1.682715
                                   No pseudopotential on this center.
   30          1                                                                                   -3.509228 -5.663782  1.147263
                                   No pseudopotential on this center.
   31          1                                                                                   -1.588381 -7.869932  2.758923
                                   No pseudopotential on this center.
   32          6                                                                                    1.542963  6.082183  1.682715
                                   No pseudopotential on this center.
   33          1                                                                                    1.588381  7.869932  2.758923
                                   No pseudopotential on this center.
   34          1                                                                                    3.509228  5.663782  1.147263
                                   No pseudopotential on this center.
   35          6                                                                                    6.082183 -1.542963  1.682715
                                   No pseudopotential on this center.
   36          1                                                                                    5.663782 -3.509228  1.147263
                                   No pseudopotential on this center.
   37          1                                                                                    7.869932 -1.588381  2.758923
                                   No pseudopotential on this center.
   38          6                                                                                    0.000000  6.422207 -0.701002
                                   No pseudopotential on this center.
   39          6                                                                                    0.000000 -6.422207 -0.701002
                                   No pseudopotential on this center.
   40          6                                                                                    6.422207  0.000000 -0.701002
                                   No pseudopotential on this center.
   41          6                                                                                   -6.082183  1.542963  1.682715
                                   No pseudopotential on this center.
   42          1                                                                                   -7.869932  1.588381  2.758923
                                   No pseudopotential on this center.
   43          1                                                                                   -5.663782  3.509228  1.147263
                                   No pseudopotential on this center.
   44          6                                                                                   -6.422207  0.000000 -0.701002
                                   No pseudopotential on this center.
   45          6                                                                                    0.327943 -8.822219 -1.751794
                                   No pseudopotential on this center.
   46          1                                                                                   -0.451209-10.479262 -0.801758
                                   No pseudopotential on this center.
   47          6                                                                                    1.656855 -9.078587 -4.017394
                                   No pseudopotential on this center.
   48          6                                                                                    2.647174 -6.913439 -5.158051
                                   No pseudopotential on this center.
   49          1                                                                                    3.708965 -7.017206 -6.922002
                                   No pseudopotential on this center.
   50          6                                                                                    2.269356 -4.591599 -3.981544
                                   No pseudopotential on this center.
   51          1                                                                                    3.044517 -2.870120 -4.813207
                                   No pseudopotential on this center.
   52          1                                                                                    1.927197-10.939464 -4.867500
                                   No pseudopotential on this center.
   53          7                                                                                    0.965234 -4.312312 -1.796782
                                   No pseudopotential on this center.
   54          7                                                                                    4.312312  0.965234 -1.796782
                                   No pseudopotential on this center.
   55          7                                                                                   -0.965234  4.312312 -1.796782
                                   No pseudopotential on this center.
   56          7                                                                                   -4.312312 -0.965234 -1.796782
                                   No pseudopotential on this center.
   57          6                                                                                    8.822219  0.327943 -1.751794
                                   No pseudopotential on this center.
   58          1                                                                                   10.479262 -0.451209 -0.801758
                                   No pseudopotential on this center.
   59          6                                                                                    9.078587  1.656855 -4.017394
                                   No pseudopotential on this center.
   60          1                                                                                   10.939464  1.927197 -4.867500
                                   No pseudopotential on this center.
   61          6                                                                                    6.913439  2.647174 -5.158051
                                   No pseudopotential on this center.
   62          1                                                                                    7.017206  3.708965 -6.922002
                                   No pseudopotential on this center.
   63          6                                                                                    4.591599  2.269356 -3.981544
                                   No pseudopotential on this center.
   64          1                                                                                    2.870120  3.044517 -4.813207
                                   No pseudopotential on this center.
   65          6                                                                                   -0.327943  8.822219 -1.751794
                                   No pseudopotential on this center.
   66          1                                                                                    0.451209 10.479262 -0.801758
                                   No pseudopotential on this center.
   67          6                                                                                   -1.656855  9.078587 -4.017394
                                   No pseudopotential on this center.
   68          1                                                                                   -1.927197 10.939464 -4.867500
                                   No pseudopotential on this center.
   69          6                                                                                   -2.647174  6.913439 -5.158051
                                   No pseudopotential on this center.
   70          1                                                                                   -3.708965  7.017206 -6.922002
                                   No pseudopotential on this center.
   71          6                                                                                   -2.269356  4.591599 -3.981544
                                   No pseudopotential on this center.
   72          1                                                                                   -3.044517  2.870120 -4.813207
                                   No pseudopotential on this center.
   73          6                                                                                   -8.822219 -0.327943 -1.751794
                                   No pseudopotential on this center.
   74          1                                                                                  -10.479262  0.451209 -0.801758
                                   No pseudopotential on this center.
   75          6                                                                                   -9.078587 -1.656855 -4.017394
                                   No pseudopotential on this center.
   76          1                                                                                  -10.939464 -1.927197 -4.867500
                                   No pseudopotential on this center.
   77          6                                                                                   -6.913439 -2.647174 -5.158051
                                   No pseudopotential on this center.
   78          6                                                                                   -4.591599 -2.269356 -3.981544
                                   No pseudopotential on this center.
   79          1                                                                                   -7.017206 -3.708965 -6.922002
                                   No pseudopotential on this center.
   80          1                                                                                   -2.870120 -3.044517 -4.813207
                                   No pseudopotential on this center.
   81         63           35                                                                       0.000000  0.000000  0.364239
                                      H and up 
                                                     2        1.0000000        0.00000000
                                      S - H
                                                     2       23.4713840      607.65933100
                                      P - H
                                                     2       16.7724790      264.38547600
                                      D - H
                                                     2       13.9813430      115.38137500
                                      F - H
                                                     2       23.9628880      -49.40079400
                                      G - H
                                                     2       21.2324580      -26.74827300
 ===================================================================================================================================
 There are   911 symmetry adapted basis functions of A   symmetry.
 There are   910 symmetry adapted basis functions of B   symmetry.
 Integral buffers will be    262144 words long.
 Raffenetti 2 integral format.
 Two-electron integral symmetry is turned on.
  1821 basis functions,  3023 primitive gaussians,  2074 cartesian basis functions
   163 alpha electrons      157 beta electrons
       nuclear repulsion energy      6450.9338598036 Hartrees.
 IExCor= 402 DFT=T Ex=B+HF Corr=LYP ExCW=0 ScaHFX=  0.200000
 ScaDFX=  0.800000  0.720000  1.000000  0.810000
 IRadAn=      0 IRanWt=     -1 IRanGd=            0 ICorTp=0
 NAtoms=   81 NActive=   81 NUniq=   21 SFac= 3.00D+00 NAtFMM=  320 NAOKFM=F Big=F
 Leave Link  301 at Mon Mar  3 01:20:23 2008, MaxMem=  209715200 cpu:       0.1
 (Enter /data/hamilton/dch0ik/g03/linda-exe/l302.exel)
 NPDir=0 NMtPBC=     1 NCelOv=     1 NCel=       1 NClECP=     1 NCelD=      1
         NCelK=      1 NCelE2=     1 NClLst=     1 CellRange=     0.0.
 One-electron integrals computed using PRISM.
 One-electron integral symmetry used in STVInt
   4 Symmetry operations used in ECPInt.
 ECPInt:  NShTT=  216153 NPrTT=  911367 LenC2=  175896 LenP2D=  434585.
 LDataN:  DoStor=F MaxTD1= 8 Len=  415
 LDataN:  DoStor=T MaxTD1= 8 Len=  415
 NBasis=  1821 RedAO= T  NBF=   911   910
 NBsUse=  1821 1.00D-06 NBFU=   911   910
 Precomputing XC quadrature grid using
 IXCGrd= 2 IRadAn=           0 IRanWt=          -1 IRanGd=           0.
 Defaulting to unpruned grid for atomic number  63.
 NRdTot=    5276 NPtTot=      680354 NUsed=      704259 NTot=      704275
 NSgBfM=  1974  1974  1974  1974.
 Leave Link  302 at Mon Mar  3 01:25:42 2008, MaxMem=  209715200 cpu:     299.3
 (Enter /data/hamilton/dch0ik/g03/l308.exe)
 Leave Link  308 at Mon Mar  3 01:25:53 2008, MaxMem=  209715200 cpu:       8.6
 (Enter /data/hamilton/dch0ik/g03/l303.exe)
 DipDrv:  MaxL=1.
 Leave Link  303 at Mon Mar  3 01:26:00 2008, MaxMem=  209715200 cpu:       5.3
 (Enter /data/hamilton/dch0ik/g03/l401.exe)
 Initial guess read from the checkpoint file:
 eu_tetrapy_nmr.chk
 Guess basis will be translated and rotated to current coordinates.
 Initial guess orbital symmetries:
 Alpha Orbitals:
       Occupied  (A) (E) (E) (B) (E) (E) (A) (B) (A) (B) (E) (E)
                 (A) (E) (E) (A) (B) (A) (E) (E) (B) (B) (E) (E)
                 (A) (E) (E) (B) (A) (A) (E) (E) (B) (A) (B) (E)
                 (E) (A) (E) (E) (B) (A) (E) (E) (E) (E) (A) (B)
                 (B) (A) (A) (E) (E) (A) (B) (E) (E) (A) (E) (E)
                 (B) (A) (B) (E) (E) (A) (E) (E) (B) (B) (E) (E)
                 (A) (B) (E) (E) (A) (A) (B) (E) (E) (A) (E) (E)
                 (B) (A) (E) (E) (B) (A) (B) (E) (E) (A) (E) (E)
                 (B) (A) (B) (E) (E) (E) (E) (A) (B) (B) (E) (E)
                 (A) (B) (A) (E) (E) (E) (E) (A) (B) (E) (E) (B)
                 (B) (E) (E) (A) (B) (E) (E) (A) (B) (E) (E) (A)
                 (E) (E) (B) (A) (E) (E) (A) (B) (B) (E) (E) (A)
                 (E) (E) (B) (A) (B) (E) (E) (B) (A) (E) (E) (A)
                 (E) (E) (B) (A) (E) (E) (B)
       Virtual   (A) (B) (A) (E) (E) (A) (E) (E) (B) (A) (B) (A)
                 (A) (E) (E) (E) (E) (B) (A) (A) (B) (B) (E) (E)
                 (E) (E) (B) (A) (E) (E) (A) (E) (E) (A) (B) (B)
                 (E) (E) (B) (A) (E) (E) (A) (B) (E) (E) (B) (A)
                 (E) (E) (A) (E) (E) (B) (B) (B) (E) (E) (A) (A)
                 (E) (E) (B) (A) (E) (E) (B) (A) (E) (E) (A) (B)
                 (A) (E) (E) (E) (E) (A) (A) (B) (E) (E) (B) (A)
                 (E) (E) (B) (E) (E) (A) (B) (A) (E) (E) (B) (B)
                 (A) (E) (E) (B) (E) (E) (B) (A) (E) (E) (B) (A)
                 (A) (E) (E) (B) (E) (E) (A) (B) (E) (E) (A) (B)
                 (A) (E) (E) (E) (E) (B) (A) (E) (E) (A) (B) (E)
                 (E) (B) (A) (E) (E) (A) (B) (E) (E) (B) (A) (E)
                 (E) (B) (A) (E) (E) (B) (B) (E) (E) (A) (B) (A)
                 (E) (E) (A) (E) (E) (A) (B) (E) (E) (B) (A) (E)
                 (E) (A) (A) (E) (E) (B) (A) (B) (B) (E) (E) (A)
                 (E) (E) (B) (E) (E) (A) (B) (E) (E) (B) (B) (A)
                 (E) (E) (E) (E) (A) (B) (E) (E) (B) (A) (E) (E)
                 (A) (B) (A) (E) (E) (B) (A) (A) (B) (E) (E) (A)
                 (B) (E) (E) (A) (E) (E) (B) (E) (E) (A) (E) (E)
                 (B) (A) (B) (E) (E) (B) (A) (E) (E) (A) (B) (E)
                 (E) (A) (B) (A) (E) (E) (B) (E) (E) (A) (B) (E)
                 (E) (B) (B) (A) (B) (A) (E) (E) (A) (E) (E) (B)
                 (A) (E) (E) (B) (A) (E) (E) (B) (E) (E) (A) (E)
                 (E) (B) (A) (B) (E) (E) (A) (E) (E) (B) (E) (E)
                 (B) (A) (A) (E) (E) (A) (B) (E) (E) (B) (B) (A)
                 (E) (E) (A) (A) (B) (E) (E) (A) (E) (E) (B) (A)
                 (B) (E) (E) (E) (E) (A) (A) (B) (E) (E) (A) (B)
                 (A) (E) (E) (E) (E) (B) (B) (B) (A) (E) (E) (E)
                 (E) (B) (A) (B) (E) (E) (E) (E) (B) (A) (E) (E)
                 (B) (A) (B) (A) (E) (E) (B) (A) (E) (E) (B) (A)
                 (E) (E) (A) (E) (E) (A) (B) (B) (E) (E) (A) (B)
                 (E) (E) (A) (E) (E) (B) (A) (B) (E) (E) (B) (A)
                 (E) (E) (A) (E) (E) (B) (A) (B) (B) (E) (E) (E)
                 (E) (A) (B) (A) (A) (E) (E) (B) (A) (E) (E) (E)
                 (E) (A) (B) (E) (E) (A) (B) (E) (E) (B) (A) (A)
                 (E) (E) (B) (E) (E) (B) (A) (A) (E) (E) (A) (E)
                 (E) (A) (A) (B) (E) (E) (B) (E) (E) (B) (B) (A)
                 (E) (E) (B) (E) (E) (A) (B) (E) (E) (A) (E) (E)
                 (A) (B) (B) (A) (B) (E) (E) (A) (E) (E) (B) (B)
                 (E) (E) (B) (A) (E) (E) (A) (A) (E) (E) (B) (E)
                 (E) (A) (B) (B) (A) (E) (E) (B) (A) (E) (E) (A)
                 (B) (E) (E) (E) (E) (B) (A) (E) (E) (B) (B) (A)
                 (E) (E) (A) (A) (E) (E) (B) (B) (A) (B) (E) (E)
                 (E) (E) (E) (E) (A) (E) (E) (A) (B) (A) (B) (E)
                 (E) (A) (B) (B) (E) (E) (A) (E) (E) (B) (E) (E)
                 (A) (B) (B) (A) (E) (E) (B) (A) (A) (E) (E) (E)
                 (E) (B) (B) (E) (E) (A) (E) (E) (B) (E) (E) (B)
                 (A) (A) (A) (B) (E) (E) (A) (E) (E) (B) (A) (E)
                 (E) (B) (A) (E) (E) (B) (A) (E) (E) (B) (A) (B)
                 (E) (E) (E) (E) (A) (A) (B) (B) (E) (E) (B) (E)
                 (E) (E) (E) (B) (A) (A) (B) (E) (E) (A) (E) (E)
                 (A) (E) (E) (B) (A) (E) (E) (B) (A) (E) (E) (B)
                 (B) (A) (B) (E) (E) (E) (E) (A) (B) (A) (E) (E)
                 (A) (B) (E) (E) (B) (E) (E) (A) (B) (A) (B) (E)
                 (E) (A) (E) (E) (A) (B) (E) (E) (B) (A) (B) (B)
                 (A) (A) (A) (B) (A) (B) (B) (A) (B) (A) (B) (A)
                 (B) (A) (A) (B) (B) (A) (B) (A) (B) (A) (A) (B)
                 (B) (A) (A) (B) (A) (B) (A) (B) (B) (A) (A) (B)
                 (A) (B) (B) (A) (A) (B) (A) (B) (B) (A) (A) (B)
                 (A) (B) (A) (B) (A) (A) (B) (B) (A) (B) (A) (B)
                 (A) (B) (B) (A) (B) (B) (A) (B) (A) (A) (B) (A)
                 (A) (B) (B) (A) (B) (A) (B) (B) (A) (A) (A) (B)
                 (A) (B) (B) (A) (B) (A) (B) (B) (A) (A) (B) (A)
                 (B) (A) (A) (B) (A) (B) (A) (B) (A) (A) (B) (A)
                 (B) (B) (B) (A) (B) (A) (A) (B) (A) (B) (A) (A)
                 (B) (B) (A) (B) (A) (B) (B) (A) (B) (B) (A) (B)
                 (A) (B) (A) (B) (A) (A) (B) (A) (A) (B) (A) (B)
                 (B) (A) (B) (A) (A) (B) (B) (A) (B) (B) (A) (B)
                 (B) (A) (A) (B) (A) (B) (A) (A) (B) (B) (B) (A)
                 (A) (B) (A) (B) (A) (B) (A) (B) (A) (B) (A) (A)
                 (B) (A) (B) (B) (A) (A) (B) (A) (B) (A) (B) (B)
                 (A) (B) (A) (B) (A) (B) (B) (A) (A) (B) (A) (B)
                 (A) (B) (A) (A) (B) (A) (B) (A) (B) (A) (B) (B)
                 (A) (B) (A) (B) (A) (A) (B) (B) (B) (A) (A) (B)
                 (B) (A) (A) (B) (B) (A) (B) (A) (A) (B) (A) (B)
                 (B) (A) (A) (B) (A) (B) (B) (A) (B) (A) (B) (A)
                 (B) (A) (B) (A) (B) (A) (A) (A) (B) (A) (B) (B)
                 (A) (B) (B) (A) (A) (A) (B) (A) (B) (A) (B) (B)
                 (A) (B) (B) (A) (B) (A) (B) (A) (A) (B) (A) (B)
                 (A) (B) (A) (A) (B) (B) (A) (B) (A) (B) (A) (B)
                 (A) (B) (A) (B) (B) (A) (B) (A) (B) (A) (B) (A)
                 (A) (B) (A) (B) (A) (A) (B) (B) (A) (B) (A) (B)
                 (A) (B) (A) (A) (B) (A) (B) (A) (B) (A) (B) (B)
                 (A) (B) (A) (B) (A) (A) (A) (B) (B) (A) (B) (A)
                 (A) (B) (A) (B) (B) (A) (B) (A) (B) (A) (B) (A)
                 (B) (A) (B) (A) (B) (A) (B) (A) (B) (B) (A) (A)
                 (B) (A) (B) (B) (A) (B) (A) (A) (B) (A) (A) (B)
                 (A) (B) (A) (B) (B) (A) (B) (A) (B) (A) (B) (A)
                 (B) (B) (A) (B) (B) (A) (A) (B) (B) (A) (B) (A)
                 (A) (B) (A) (A) (B) (A) (B) (B) (B) (A) (A) (B)
                 (A) (A) (B) (B) (B) (A) (B) (B) (A) (A) (A) (B)
                 (A) (B) (A) (B) (B) (A) (B) (A) (B) (A) (A) (A)
                 (B) (A) (A) (B) (B) (B) (A) (A) (B) (A) (B) (B)
                 (A) (B) (A) (A) (B) (A) (B) (B) (B) (A) (B) (A)
                 (B) (A) (A) (A) (A) (B) (B) (A) (A) (B) (A) (B)
                 (B) (A) (B) (A) (B) (A) (A) (B) (A) (B) (B) (A)
                 (B) (A) (B) (A) (B) (A) (E) (E) (E) (E) (E) (E)
                 (E) (E) (E) (E) (E) (E) (E) (E) (E) (E) (E) (E)
                 (E) (E) (E) (E) (E) (E) (E) (E) (E) (E) (E) (E)
                 (E) (E) (E) (E) (E) (E) (E) (E) (E) (E) (E) (E)
                 (E) (E) (E) (E) (E) (E) (E) (E) (E) (E) (E) (E)
                 (E) (E) (E) (E) (E) (E) (E) (E) (E) (E) (E) (E)
                 (E) (E) (E) (E) (E) (E) (E) (E) (E) (E) (E) (E)
                 (E) (E) (E) (E) (E) (E) (E) (E) (E) (E) (E) (E)
                 (E) (E) (E) (E) (E) (E) (E) (E) (E) (E) (E) (E)
                 (E) (E) (E) (E) (E) (E) (E) (E) (E) (E) (E) (E)
                 (E) (E) (E) (E) (E) (E) (E) (E) (E) (E) (E) (E)
                 (E) (E) (E) (E) (E) (E) (E) (E) (E) (E) (E) (E)
                 (E) (E) (E) (E) (E) (E) (E) (E) (E) (E) (E) (E)
                 (E) (E) (E) (E) (E) (E) (E) (E) (E) (E) (E) (E)
                 (E) (E) (E) (E) (E) (E) (E) (E) (E) (E) (E) (E)
                 (E) (E) (E) (E) (E) (E) (E) (E) (E) (E) (E) (E)
                 (E) (E) (E) (E) (E) (E) (E) (E) (E) (E) (E) (E)
                 (E) (E) (E) (E) (E) (E) (E) (E) (E) (E) (E) (E)
                 (E) (E) (E) (E) (E) (E) (E) (E) (E) (E) (E) (E)
                 (E) (E) (E) (E) (E) (E) (E) (E) (E) (E) (E) (E)
                 (E) (E) (E) (E) (E) (E) (E) (E) (E) (E) (E) (E)
                 (E) (E) (E) (E) (E) (E) (E) (E) (E) (E) (E) (E)
                 (E) (E) (E) (E) (E) (E) (E) (E) (E) (E) (E) (E)
                 (E) (E) (E) (E) (E) (E) (E) (E) (E) (E) (E) (E)
                 (E) (E) (E) (E) (E) (E) (E) (E) (E) (E) (E) (E)
                 (E) (E) (E) (E) (E) (E) (E) (E) (E) (E) (E) (E)
                 (E) (E) (E) (E) (E) (E) (E) (E) (E) (E) (E) (E)
                 (E) (E) (E) (E) (E) (E) (E) (E) (E) (E) (E) (E)
                 (E) (E) (E) (E) (E) (E) (E) (E) (E) (E) (E) (E)
                 (E) (E) (E) (E) (E) (E) (E) (E) (E) (E) (E) (E)
                 (E) (E) (E) (E) (E) (E) (E) (E) (E) (E) (E) (E)
                 (E) (E) (E) (E) (E) (E) (E) (E) (E) (E) (E) (E)
                 (E) (E) (E) (E) (E) (E) (E) (E) (E) (E) (E) (E)
                 (E) (E) (E) (E) (E) (E) (E) (E) (E) (E) (E) (E)
                 (E) (E) (E) (E) (E) (E) (E) (E) (E) (E) (E) (E)
                 (E) (E) (E) (E) (E) (E) (E) (E) (E) (E) (E) (E)
                 (E) (E) (E) (E) (E) (E) (E) (E) (E) (E) (E) (E)
                 (E) (E) (E) (E) (E) (E) (E) (E) (E) (E) (E) (E)
                 (E) (E) (E) (E) (E) (E) (E) (E) (E) (E) (E) (E)
                 (E) (E) (E) (E) (E) (E) (E) (E) (E) (E) (E) (E)
                 (E) (E) (E) (E) (E) (E) (E) (E) (E) (E) (E) (E)
                 (E) (E) (E) (E) (E) (E) (E) (E) (E) (E) (E) (E)
                 (E) (E)
 Beta  Orbitals:
       Occupied  (A) (E) (E) (B) (E) (E) (A) (B) (A) (B) (E) (E)
                 (A) (E) (E) (A) (B) (A) (E) (E) (B) (B) (E) (E)
                 (A) (E) (E) (B) (A) (A) (E) (E) (B) (A) (B) (E)
                 (E) (A) (E) (E) (B) (A) (E) (E) (A) (E) (E) (B)
                 (B) (A) (A) (E) (E) (A) (B) (E) (E) (A) (B) (E)
                 (E) (A) (B) (E) (E) (A) (E) (E) (B) (B) (E) (E)
                 (A) (B) (E) (E) (A) (A) (B) (E) (E) (A) (E) (E)
                 (B) (A) (E) (E) (B) (A) (B) (E) (E) (A) (E) (E)
                 (B) (A) (B) (E) (E) (E) (E) (A) (B) (B) (E) (E)
                 (A) (B) (A) (E) (E) (A) (B) (E) (E) (E) (E) (B)
                 (A) (B) (E) (E) (A) (E) (E) (A) (B) (A) (E) (E)
                 (A) (B) (B) (E) (E) (A) (E) (E) (B) (A) (B) (E)
                 (E) (B) (E) (E) (A) (A) (E) (E) (B) (A) (E) (E)
                 (B)
       Virtual   (A) (B) (E) (E) (A) (E) (E) (A) (E) (E) (B) (B)
                 (B) (A) (E) (E) (A) (A) (B) (E) (E) (A) (E) (E)
                 (A) (B) (B) (B) (E) (E) (E) (E) (B) (A) (E) (E)
                 (A) (E) (E) (A) (B) (E) (E) (B) (B) (A) (E) (E)
                 (A) (B) (E) (E) (B) (A) (E) (E) (A) (E) (E) (B)
                 (B) (B) (E) (E) (A) (A) (E) (E) (B) (A) (E) (E)
                 (B) (A) (E) (E) (A) (B) (A) (E) (E) (E) (E) (A)
                 (A) (B) (E) (E) (B) (A) (E) (E) (B) (E) (E) (A)
                 (B) (A) (E) (E) (B) (B) (A) (E) (E) (B) (E) (E)
                 (B) (A) (E) (E) (A) (B) (A) (E) (E) (B) (E) (E)
                 (A) (B) (E) (E) (A) (B) (A) (E) (E) (E) (E) (B)
                 (A) (E) (E) (A) (B) (E) (E) (B) (A) (E) (E) (A)
                 (B) (E) (E) (B) (A) (E) (E) (B) (A) (E) (E) (B)
                 (B) (E) (E) (A) (B) (A) (E) (E) (A) (E) (E) (A)
                 (B) (E) (E) (B) (A) (E) (E) (A) (A) (E) (E) (B)
                 (A) (B) (B) (E) (E) (A) (B) (E) (E) (E) (E) (A)
                 (B) (E) (E) (B) (B) (A) (E) (E) (E) (E) (A) (B)
                 (E) (E) (B) (A) (A) (E) (E) (B) (A) (E) (E) (B)
                 (A) (A) (B) (E) (E) (A) (B) (E) (E) (A) (E) (E)
                 (B) (E) (E) (A) (E) (E) (B) (A) (B) (E) (E) (A)
                 (E) (E) (B) (A) (B) (E) (E) (A) (B) (A) (E) (E)
                 (B) (E) (E) (A) (B) (B) (E) (E) (A) (B) (B) (A)
                 (E) (E) (A) (B) (A) (E) (E) (E) (E) (B) (A) (E)
                 (E) (E) (E) (B) (A) (E) (E) (B) (A) (B) (A) (E)
                 (E) (E) (E) (B) (E) (E) (B) (A) (A) (E) (E) (A)
                 (E) (E) (B) (B) (B) (A) (E) (E) (A) (A) (B) (E)
                 (E) (A) (E) (E) (B) (A) (B) (E) (E) (A) (E) (E)
                 (A) (B) (E) (E) (A) (B) (A) (E) (E) (E) (E) (B)
                 (B) (A) (B) (E) (E) (E) (E) (B) (A) (E) (E) (B)
                 (E) (E) (A) (B) (E) (E) (B) (A) (A) (B) (E) (E)
                 (B) (A) (E) (E) (B) (A) (E) (E) (E) (E) (A) (A)
                 (B) (B) (E) (E) (A) (E) (E) (B) (A) (E) (E) (B)
                 (A) (B) (E) (E) (B) (A) (E) (E) (A) (E) (E) (B)
                 (A) (B) (E) (E) (B) (A) (E) (E) (B) (A) (A) (E)
                 (E) (B) (A) (E) (E) (A) (E) (E) (B) (E) (E) (A)
                 (B) (E) (E) (B) (A) (A) (E) (E) (B) (E) (E) (A)
                 (B) (E) (E) (A) (A) (E) (E) (A) (A) (B) (E) (E)
                 (B) (E) (E) (B) (B) (A) (E) (E) (B) (E) (E) (A)
                 (B) (E) (E) (A) (E) (E) (A) (B) (B) (A) (B) (E)
                 (E) (A) (E) (E) (B) (B) (E) (E) (B) (A) (E) (E)
                 (A) (A) (E) (E) (B) (E) (E) (A) (B) (B) (A) (E)
                 (E) (B) (A) (E) (E) (A) (B) (E) (E) (E) (E) (B)
                 (A) (E) (E) (B) (A) (B) (E) (E) (A) (A) (E) (E)
                 (B) (B) (A) (E) (E) (B) (E) (E) (E) (E) (A) (A)
                 (E) (E) (B) (A) (B) (E) (E) (A) (B) (B) (E) (E)
                 (A) (E) (E) (B) (A) (B) (E) (E) (A) (B) (E) (E)
                 (B) (A) (A) (E) (E) (E) (E) (B) (B) (E) (E) (A)
                 (E) (E) (B) (E) (E) (B) (A) (A) (A) (B) (E) (E)
                 (A) (B) (E) (E) (A) (B) (E) (E) (A) (E) (E) (B)
                 (A) (E) (E) (A) (B) (B) (E) (E) (E) (E) (A) (A)
                 (B) (B) (E) (E) (B) (E) (E) (B) (E) (E) (A) (A)
                 (B) (A) (E) (E) (A) (E) (E) (B) (E) (E) (A) (E)
                 (E) (B) (A) (E) (E) (B) (A) (B) (B) (E) (E) (E)
                 (E) (A) (B) (A) (E) (E) (A) (B) (E) (E) (B) (E)
                 (E) (A) (B) (A) (B) (E) (E) (A) (E) (E) (A) (B)
                 (E) (E) (B) (A) (B) (B) (A) (A) (A) (B) (A) (B)
                 (B) (A) (B) (A) (B) (A) (B) (A) (A) (B) (B) (A)
                 (B) (A) (B) (A) (A) (B) (B) (A) (A) (B) (A) (B)
                 (A) (B) (B) (A) (A) (B) (A) (B) (B) (A) (A) (B)
                 (A) (B) (B) (A) (A) (B) (A) (B) (A) (B) (A) (A)
                 (B) (B) (A) (B) (A) (B) (A) (B) (B) (A) (B) (B)
                 (A) (B) (A) (A) (B) (A) (A) (B) (B) (A) (B) (A)
                 (B) (B) (A) (A) (A) (B) (A) (B) (B) (A) (B) (A)
                 (B) (B) (A) (A) (B) (A) (B) (A) (A) (B) (A) (B)
                 (A) (B) (A) (A) (B) (A) (B) (B) (B) (A) (B) (A)
                 (A) (B) (A) (B) (A) (A) (B) (B) (A) (B) (A) (B)
                 (B) (A) (B) (B) (A) (B) (A) (B) (A) (B) (A) (A)
                 (B) (A) (A) (B) (A) (B) (B) (A) (B) (A) (A) (B)
                 (B) (A) (B) (B) (A) (B) (B) (A) (A) (B) (A) (B)
                 (A) (A) (B) (B) (B) (A) (A) (B) (A) (B) (A) (B)
                 (A) (B) (A) (B) (A) (A) (B) (A) (B) (B) (A) (A)
                 (B) (A) (B) (A) (B) (B) (A) (B) (A) (B) (A) (B)
                 (B) (A) (A) (B) (A) (B) (A) (B) (A) (A) (B) (A)
                 (B) (A) (B) (A) (B) (B) (A) (B) (A) (B) (A) (A)
                 (B) (B) (B) (A) (A) (B) (B) (A) (A) (B) (B) (A)
                 (B) (A) (A) (B) (A) (B) (B) (A) (A) (B) (A) (B)
                 (B) (A) (B) (A) (B) (A) (B) (A) (B) (A) (B) (A)
                 (A) (A) (B) (A) (B) (B) (A) (B) (B) (A) (A) (A)
                 (B) (A) (B) (A) (B) (B) (A) (B) (B) (A) (B) (A)
                 (B) (A) (A) (B) (A) (B) (A) (B) (A) (A) (B) (B)
                 (A) (B) (A) (B) (A) (B) (A) (B) (A) (B) (B) (A)
                 (B) (A) (B) (A) (B) (A) (A) (B) (A) (B) (A) (A)
                 (B) (B) (A) (B) (A) (B) (A) (B) (A) (A) (B) (A)
                 (B) (A) (B) (A) (B) (B) (A) (B) (A) (B) (A) (A)
                 (A) (B) (B) (A) (B) (A) (A) (B) (A) (B) (B) (A)
                 (B) (A) (B) (A) (B) (A) (B) (A) (B) (A) (B) (A)
                 (B) (A) (B) (B) (A) (A) (B) (A) (B) (B) (A) (B)
                 (A) (A) (B) (A) (A) (B) (A) (B) (A) (B) (B) (A)
                 (B) (A) (B) (A) (B) (A) (B) (B) (A) (B) (B) (A)
                 (A) (B) (B) (A) (B) (A) (A) (B) (A) (A) (B) (A)
                 (B) (B) (B) (A) (A) (B) (A) (A) (B) (B) (B) (A)
                 (B) (B) (A) (A) (A) (B) (A) (B) (A) (B) (B) (A)
                 (B) (A) (B) (A) (A) (A) (B) (A) (A) (B) (B) (B)
                 (A) (A) (B) (A) (B) (B) (A) (B) (A) (A) (B) (A)
                 (B) (B) (B) (A) (B) (A) (B) (A) (A) (A) (A) (B)
                 (B) (A) (A) (B) (A) (B) (B) (A) (B) (A) (B) (A)
                 (A) (B) (A) (B) (B) (A) (B) (A) (B) (A) (B) (A)
                 (E) (E) (E) (E) (E) (E) (E) (E) (E) (E) (E) (E)
                 (E) (E) (E) (E) (E) (E) (E) (E) (E) (E) (E) (E)
                 (E) (E) (E) (E) (E) (E) (E) (E) (E) (E) (E) (E)
                 (E) (E) (E) (E) (E) (E) (E) (E) (E) (E) (E) (E)
                 (E) (E) (E) (E) (E) (E) (E) (E) (E) (E) (E) (E)
                 (E) (E) (E) (E) (E) (E) (E) (E) (E) (E) (E) (E)
                 (E) (E) (E) (E) (E) (E) (E) (E) (E) (E) (E) (E)
                 (E) (E) (E) (E) (E) (E) (E) (E) (E) (E) (E) (E)
                 (E) (E) (E) (E) (E) (E) (E) (E) (E) (E) (E) (E)
                 (E) (E) (E) (E) (E) (E) (E) (E) (E) (E) (E) (E)
                 (E) (E) (E) (E) (E) (E) (E) (E) (E) (E) (E) (E)
                 (E) (E) (E) (E) (E) (E) (E) (E) (E) (E) (E) (E)
                 (E) (E) (E) (E) (E) (E) (E) (E) (E) (E) (E) (E)
                 (E) (E) (E) (E) (E) (E) (E) (E) (E) (E) (E) (E)
                 (E) (E) (E) (E) (E) (E) (E) (E) (E) (E) (E) (E)
                 (E) (E) (E) (E) (E) (E) (E) (E) (E) (E) (E) (E)
                 (E) (E) (E) (E) (E) (E) (E) (E) (E) (E) (E) (E)
                 (E) (E) (E) (E) (E) (E) (E) (E) (E) (E) (E) (E)
                 (E) (E) (E) (E) (E) (E) (E) (E) (E) (E) (E) (E)
                 (E) (E) (E) (E) (E) (E) (E) (E) (E) (E) (E) (E)
                 (E) (E) (E) (E) (E) (E) (E) (E) (E) (E) (E) (E)
                 (E) (E) (E) (E) (E) (E) (E) (E) (E) (E) (E) (E)
                 (E) (E) (E) (E) (E) (E) (E) (E) (E) (E) (E) (E)
                 (E) (E) (E) (E) (E) (E) (E) (E) (E) (E) (E) (E)
                 (E) (E) (E) (E) (E) (E) (E) (E) (E) (E) (E) (E)
                 (E) (E) (E) (E) (E) (E) (E) (E) (E) (E) (E) (E)
                 (E) (E) (E) (E) (E) (E) (E) (E) (E) (E) (E) (E)
                 (E) (E) (E) (E) (E) (E) (E) (E) (E) (E) (E) (E)
                 (E) (E) (E) (E) (E) (E) (E) (E) (E) (E) (E) (E)
                 (E) (E) (E) (E) (E) (E) (E) (E) (E) (E) (E) (E)
                 (E) (E) (E) (E) (E) (E) (E) (E) (E) (E) (E) (E)
                 (E) (E) (E) (E) (E) (E) (E) (E) (E) (E) (E) (E)
                 (E) (E) (E) (E) (E) (E) (E) (E) (E) (E) (E) (E)
                 (E) (E) (E) (E) (E) (E) (E) (E) (E) (E) (E) (E)
                 (E) (E) (E) (E) (E) (E) (E) (E) (E) (E) (E) (E)
                 (E) (E) (E) (E) (E) (E) (E) (E) (E) (E) (E) (E)
                 (E) (E) (E) (E) (E) (E) (E) (E) (E) (E) (E) (E)
                 (E) (E) (E) (E) (E) (E) (E) (E) (E) (E) (E) (E)
                 (E) (E) (E) (E) (E) (E) (E) (E) (E) (E) (E) (E)
                 (E) (E) (E) (E) (E) (E) (E) (E) (E) (E) (E) (E)
                 (E) (E) (E) (E) (E) (E) (E) (E) (E) (E) (E) (E)
                 (E) (E) (E) (E) (E) (E) (E) (E)
 The electronic state of the initial guess is 7-A.
 <S**2> of initial guess=12.0969
 Leave Link  401 at Mon Mar  3 01:31:32 2008, MaxMem=  209715200 cpu:     327.5
 (Enter /data/hamilton/dch0ik/g03/linda-exe/l502.exel)
 UHF open shell SCF:
 Requested convergence on RMS density matrix=1.00D-08 within 128 cycles.
 Requested convergence on MAX density matrix=1.00D-06.
 Requested convergence on             energy=1.00D-06.
 No special actions if energy rises.
 Using DIIS extrapolation, IDIIS=  1040.
 Integral symmetry usage will be decided dynamically.
       704258 words used for storage of precomputed grid.
 IEnd=  14725627 IEndB=  14725627 NGot= 209715200 MDV= 199309764
 LenX= 199309764
 Fock matrices will be formed incrementally for  20 cycles.

 Cycle   1  Pass 1  IDiag  1:
 Petite list used in FoFDir.
 MinBra= 0 MaxBra= 3 Meth= 1.
 IRaf=       0 NMat=   1 IRICut=       1 DoRegI=T DoRafI=F ISym2E= 1 JSym2E=1.
 Defaulting to unpruned grid for atomic number  63.
 Defaulting to unpruned grid for atomic number  63.
 E= -2391.59806856365    
 DIIS: error= 1.41D-02 at cycle   1 NSaved=   1.
 NSaved= 1 IEnMin= 1 EnMin= -2391.59806856365     IErMin= 1 ErrMin= 1.41D-02
 ErrMax= 1.41D-02 EMaxC= 1.00D-01 BMatC= 2.38D+00 BMatP= 2.38D+00
 IDIUse=3 WtCom= 8.59D-01 WtEn= 1.41D-01
 Coeff-Com:  0.100D+01
 Coeff-En:   0.100D+01
 Coeff:      0.100D+01
 Gap=     0.046 Goal=   None    Shift=    0.000
 Gap=     0.198 Goal=   None    Shift=    0.000
 GapD=    0.046 DampG=0.250 DampE=0.250 DampFc=0.1250 IDamp=-1.
 Damping current iteration by 1.25D-01
 RMSDP=1.52D-03 MaxDP=1.47D-01              OVMax= 1.99D-02

 Cycle   2  Pass 1  IDiag  1:
 RMSU=  1.85D-04    CP:  9.90D-01
 E= -2391.62595927203     Delta-E=       -0.027890708386 Rises=F Damp=T
 DIIS: error= 1.23D-02 at cycle   2 NSaved=   2.
 NSaved= 2 IEnMin= 2 EnMin= -2391.62595927203     IErMin= 2 ErrMin= 1.23D-02
 ErrMax= 1.23D-02 EMaxC= 1.00D-01 BMatC= 1.83D+00 BMatP= 2.38D+00
 IDIUse=3 WtCom= 8.77D-01 WtEn= 1.23D-01
 Coeff-Com: -0.707D+01 0.807D+01
 Coeff-En:   0.000D+00 0.100D+01
 Coeff:     -0.620D+01 0.720D+01
 Gap=     0.047 Goal=   None    Shift=    0.000
 Gap=     0.197 Goal=   None    Shift=    0.000
 RMSDP=1.37D-03 MaxDP=1.33D-01 DE=-2.79D-02 OVMax= 9.99D-03

 Cycle   3  Pass 1  IDiag  1:
 RMSU=  9.60D-04    CP:  9.18D-01  3.00D+00
 E= -2391.82320381586     Delta-E=       -0.197244543830 Rises=F Damp=F
 DIIS: error= 8.92D-04 at cycle   3 NSaved=   3.
 NSaved= 3 IEnMin= 3 EnMin= -2391.82320381586     IErMin= 3 ErrMin= 8.92D-04
 ErrMax= 8.92D-04 EMaxC= 1.00D-01 BMatC= 7.77D-03 BMatP= 1.83D+00
 IDIUse=3 WtCom= 9.91D-01 WtEn= 8.92D-03
 Coeff-Com: -0.359D+01 0.409D+01 0.498D+00
 Coeff-En:   0.000D+00 0.000D+00 0.100D+01
 Coeff:     -0.355D+01 0.405D+01 0.503D+00
 Gap=     0.048 Goal=   None    Shift=    0.000
 Gap=     0.200 Goal=   None    Shift=    0.000
 RMSDP=2.96D-05 MaxDP=1.19D-02 DE=-1.97D-01 OVMax= 2.23D-02

 Cycle   4  Pass 1  IDiag  1:
 RMSU=  2.94D-05    CP:  9.18D-01  3.00D+00  1.00D+00
 E= -2391.82456497816     Delta-E=       -0.001361162300 Rises=F Damp=F
 DIIS: error= 5.23D-04 at cycle   4 NSaved=   4.
 NSaved= 4 IEnMin= 4 EnMin= -2391.82456497816     IErMin= 4 ErrMin= 5.23D-04
 ErrMax= 5.23D-04 EMaxC= 1.00D-01 BMatC= 2.45D-03 BMatP= 7.77D-03
 IDIUse=3 WtCom= 9.95D-01 WtEn= 5.23D-03
 Coeff-Com: -0.178D+01 0.202D+01 0.370D+00 0.383D+00
 Coeff-En:   0.000D+00 0.000D+00 0.212D+00 0.788D+00
 Coeff:     -0.177D+01 0.201D+01 0.369D+00 0.385D+00
 Gap=     0.046 Goal=   None    Shift=    0.000
 Gap=     0.197 Goal=   None    Shift=    0.000
 RMSDP=1.20D-05 MaxDP=5.50D-03 DE=-1.36D-03 OVMax= 9.48D-03

 Cycle   5  Pass 1  IDiag  1:
 RMSU=  7.69D-06    CP:  9.18D-01  3.00D+00  1.00D+00  6.93D-01
 E= -2391.82498877978     Delta-E=       -0.000423801616 Rises=F Damp=F
 DIIS: error= 9.92D-05 at cycle   5 NSaved=   5.
 NSaved= 5 IEnMin= 5 EnMin= -2391.82498877978     IErMin= 5 ErrMin= 9.92D-05
 ErrMax= 9.92D-05 EMaxC= 1.00D-01 BMatC= 9.67D-05 BMatP= 2.45D-03
 IDIUse=1 WtCom= 1.00D+00 WtEn= 0.00D+00
 Coeff-Com: -0.358D+00 0.407D+00 0.141D+00 0.182D+00 0.627D+00
 Coeff:     -0.358D+00 0.407D+00 0.141D+00 0.182D+00 0.627D+00
 Gap=     0.048 Goal=   None    Shift=    0.000
 Gap=     0.198 Goal=   None    Shift=    0.000
 RMSDP=3.64D-06 MaxDP=2.59D-03 DE=-4.24D-04 OVMax= 4.06D-03

 Cycle   6  Pass 1  IDiag  1:
 RMSU=  2.66D-06    CP:  9.18D-01  3.00D+00  1.00D+00  6.91D-01  6.84D-01
 E= -2391.82500249305     Delta-E=       -0.000013713272 Rises=F Damp=F
 DIIS: error= 8.08D-05 at cycle   6 NSaved=   6.
 NSaved= 6 IEnMin= 6 EnMin= -2391.82500249305     IErMin= 6 ErrMin= 8.08D-05
 ErrMax= 8.08D-05 EMaxC= 1.00D-01 BMatC= 4.63D-05 BMatP= 9.67D-05
 IDIUse=1 WtCom= 1.00D+00 WtEn= 0.00D+00
 Coeff-Com: -0.573D-01 0.649D-01 0.600D-01 0.723D-01 0.467D+00 0.393D+00
 Coeff:     -0.573D-01 0.649D-01 0.600D-01 0.723D-01 0.467D+00 0.393D+00
 Gap=     0.047 Goal=   None    Shift=    0.000
 Gap=     0.196 Goal=   None    Shift=    0.000
 RMSDP=2.13D-06 MaxDP=1.18D-03 DE=-1.37D-05 OVMax= 1.37D-03

 Cycle   7  Pass 1  IDiag  1:
 RMSU=  1.42D-06    CP:  9.18D-01  3.00D+00  1.00D+00  6.72D-01  8.29D-01
                    CP:  7.09D-01
 E= -2391.82500780693     Delta-E=       -0.000005313885 Rises=F Damp=F
 DIIS: error= 2.17D-05 at cycle   7 NSaved=   7.
 NSaved= 7 IEnMin= 7 EnMin= -2391.82500780693     IErMin= 7 ErrMin= 2.17D-05
 ErrMax= 2.17D-05 EMaxC= 1.00D-01 BMatC= 3.10D-06 BMatP= 4.63D-05
 IDIUse=1 WtCom= 1.00D+00 WtEn= 0.00D+00
 Coeff-Com: -0.154D-02 0.163D-02 0.196D-01 0.127D-01 0.208D+00 0.179D+00
 Coeff-Com:  0.580D+00
 Coeff:     -0.154D-02 0.163D-02 0.196D-01 0.127D-01 0.208D+00 0.179D+00
 Coeff:      0.580D+00
 Gap=     0.047 Goal=   None    Shift=    0.000
 Gap=     0.197 Goal=   None    Shift=    0.000
 RMSDP=8.96D-07 MaxDP=8.04D-04 DE=-5.31D-06 OVMax= 1.36D-03

 Cycle   8  Pass 1  IDiag  1:
 RMSU=  7.17D-07    CP:  9.18D-01  3.00D+00  1.00D+00  6.78D-01  8.11D-01
                    CP:  8.62D-01  8.19D-01
 E= -2391.82500821882     Delta-E=       -0.000000411881 Rises=F Damp=F
 DIIS: error= 3.05D-05 at cycle   8 NSaved=   8.
 NSaved= 8 IEnMin= 8 EnMin= -2391.82500821882     IErMin= 7 ErrMin= 2.17D-05
 ErrMax= 3.05D-05 EMaxC= 1.00D-01 BMatC= 5.60D-06 BMatP= 3.10D-06
 IDIUse=1 WtCom= 1.00D+00 WtEn= 0.00D+00
 Coeff-Com:  0.159D-01-0.181D-01 0.154D-02-0.129D-01 0.803D-01 0.116D-01
 Coeff-Com:  0.562D+00 0.360D+00
 Coeff:      0.159D-01-0.181D-01 0.154D-02-0.129D-01 0.803D-01 0.116D-01
 Coeff:      0.562D+00 0.360D+00
 Gap=     0.047 Goal=   None    Shift=    0.000
 Gap=     0.196 Goal=   None    Shift=    0.000
 RMSDP=4.25D-07 MaxDP=2.05D-04 DE=-4.12D-07 OVMax= 1.65D-04

 Cycle   9  Pass 1  IDiag  1:
 RMSU=  2.17D-07    CP:  9.18D-01  3.00D+00  1.00D+00  6.76D-01  8.34D-01
                    CP:  8.94D-01  1.01D+00  9.15D-01
 E= -2391.82500872968     Delta-E=       -0.000000510860 Rises=F Damp=F
 DIIS: error= 1.89D-05 at cycle   9 NSaved=   9.
 NSaved= 9 IEnMin= 9 EnMin= -2391.82500872968     IErMin= 9 ErrMin= 1.89D-05
 ErrMax= 1.89D-05 EMaxC= 1.00D-01 BMatC= 1.97D-06 BMatP= 3.10D-06
 IDIUse=1 WtCom= 1.00D+00 WtEn= 0.00D+00
 Coeff-Com:  0.336D-02-0.381D-02-0.307D-02-0.166D-01 0.281D-02-0.115D+00
 Coeff-Com:  0.235D+00-0.164D+00 0.106D+01
 Coeff:      0.336D-02-0.381D-02-0.307D-02-0.166D-01 0.281D-02-0.115D+00
 Coeff:      0.235D+00-0.164D+00 0.106D+01
 Gap=     0.047 Goal=   None    Shift=    0.000
 Gap=     0.196 Goal=   None    Shift=    0.000
 RMSDP=4.69D-07 MaxDP=2.27D-04 DE=-5.11D-07 OVMax= 3.48D-04

 Cycle  10  Pass 1  IDiag  1:
 RMSU=  9.99D-08    CP:  9.18D-01  3.00D+00  1.00D+00  6.73D-01  8.62D-01
                    CP:  9.44D-01  1.22D+00  1.12D+00  1.63D+00
[...]
    20 H(1)   Bbb    -0.0169    -8.991    -3.208    -2.999 -0.1953  0.9376  0.2877
              Bcc     0.0338    18.042     6.438     6.018  0.3447 -0.2090  0.9152
 
              Baa    -0.0229    -0.884    -0.316    -0.295 -0.0790 -0.6328  0.7702
    21 N(14)  Bbb    -0.0218    -0.840    -0.300    -0.280  0.9907 -0.1358 -0.0100
              Bcc     0.0447     1.725     0.615     0.575  0.1109  0.7623  0.6377
 
              Baa    -0.0229    -0.884    -0.316    -0.295 -0.6328  0.0790  0.7702
    22 N(14)  Bbb    -0.0218    -0.840    -0.300    -0.280  0.1358  0.9907  0.0100
              Bcc     0.0447     1.725     0.615     0.575  0.7623 -0.1109  0.6377
 
              Baa    -0.0219    -2.935    -1.047    -0.979  0.6720 -0.5491 -0.4970
    23 C(13)  Bbb    -0.0207    -2.782    -0.993    -0.928  0.2135  0.7862 -0.5799
              Bcc     0.0426     5.717     2.040     1.907  0.7092  0.2836  0.6455
 
              Baa    -0.0178    -9.490    -3.386    -3.166 -0.0773 -0.5886  0.8047
    24 H(1)   Bbb    -0.0175    -9.350    -3.336    -3.119 -0.5595  0.6937  0.4536
              Bcc     0.0353    18.840     6.723     6.284  0.8252  0.4152  0.3829
 
              Baa    -0.0101    -5.409    -1.930    -1.804 -0.0535  0.9751 -0.2154
    25 H(1)   Bbb    -0.0099    -5.263    -1.878    -1.756 -0.6960  0.1183  0.7082
              Bcc     0.0200    10.672     3.808     3.560  0.7160  0.1878  0.6723
 
              Baa    -0.0217    -2.910    -1.038    -0.971  0.7939 -0.6080  0.0055
    26 C(13)  Bbb    -0.0204    -2.741    -0.978    -0.914 -0.4669 -0.6039  0.6460
              Bcc     0.0421     5.651     2.016     1.885  0.3895  0.5155  0.7633
 
              Baa    -0.0101    -5.379    -1.919    -1.794 -0.5258  0.7576 -0.3867
    27 H(1)   Bbb    -0.0099    -5.277    -1.883    -1.760  0.7652  0.2229 -0.6040
              Bcc     0.0200    10.656     3.802     3.555  0.3714  0.6135  0.6969
 
              Baa    -0.0170    -9.051    -3.229    -3.019 -0.2779  0.9182 -0.2823
    28 H(1)   Bbb    -0.0169    -8.991    -3.208    -2.999  0.9376  0.1953 -0.2877
              Bcc     0.0338    18.042     6.438     6.018  0.2090  0.3447  0.9152
 
              Baa    -0.0238    -3.194    -1.140    -1.066 -0.3059  0.2869  0.9078
    29 C(13)  Bbb    -0.0226    -3.037    -1.084    -1.013  0.9209 -0.1530  0.3586
              Bcc     0.0464     6.232     2.224     2.079  0.2417  0.9457 -0.2174
 
              Baa    -0.0205   -10.922    -3.897    -3.643  0.3717 -0.0960  0.9234
    30 H(1)   Bbb    -0.0201   -10.701    -3.818    -3.569  0.7680 -0.5270 -0.3639
              Bcc     0.0405    21.623     7.716     7.213  0.5216  0.8444 -0.1222
 
              Baa    -0.0104    -5.531    -1.974    -1.845  0.0852  0.2809  0.9559
    31 H(1)   Bbb    -0.0101    -5.399    -1.927    -1.801  0.9785 -0.2047 -0.0271
              Bcc     0.0205    10.930     3.900     3.646  0.1881  0.9376 -0.2923
 
              Baa    -0.0238    -3.194    -1.140    -1.066  0.3059 -0.2869  0.9078
    32 C(13)  Bbb    -0.0226    -3.037    -1.084    -1.013  0.9209 -0.1530 -0.3586
              Bcc     0.0464     6.232     2.224     2.079  0.2417  0.9457  0.2174
 
              Baa    -0.0104    -5.531    -1.974    -1.845 -0.0852 -0.2809  0.9559
    33 H(1)   Bbb    -0.0101    -5.399    -1.927    -1.801  0.9785 -0.2047  0.0271
              Bcc     0.0205    10.930     3.900     3.646  0.1881  0.9376  0.2923
 
              Baa    -0.0205   -10.922    -3.897    -3.643 -0.3717  0.0960  0.9234
    34 H(1)   Bbb    -0.0201   -10.701    -3.818    -3.569  0.7680 -0.5270  0.3639
              Bcc     0.0405    21.623     7.716     7.213  0.5216  0.8444  0.1222
 
              Baa    -0.0238    -3.194    -1.140    -1.066 -0.2869 -0.3059  0.9078
    35 C(13)  Bbb    -0.0226    -3.037    -1.084    -1.013  0.1530  0.9209  0.3586
              Bcc     0.0464     6.232     2.224     2.079  0.9457 -0.2417  0.2174
 
              Baa    -0.0205   -10.922    -3.897    -3.643  0.0960  0.3717  0.9234
    36 H(1)   Bbb    -0.0201   -10.701    -3.818    -3.569  0.5270  0.7680 -0.3639
              Bcc     0.0405    21.623     7.716     7.213  0.8444 -0.5216  0.1222
 
              Baa    -0.0104    -5.531    -1.974    -1.845 -0.2809  0.0852  0.9559
    37 H(1)   Bbb    -0.0101    -5.399    -1.927    -1.801  0.2047  0.9785 -0.0271
              Bcc     0.0205    10.930     3.900     3.646  0.9376 -0.1881  0.2923
 
              Baa    -0.0234    -3.140    -1.121    -1.048  0.4386  0.1718  0.8821
    38 C(13)  Bbb    -0.0194    -2.607    -0.930    -0.870  0.8986 -0.0714 -0.4329
              Bcc     0.0428     5.747     2.051     1.917 -0.0113  0.9825 -0.1857
 
              Baa    -0.0234    -3.140    -1.121    -1.048 -0.4386 -0.1718  0.8821
    39 C(13)  Bbb    -0.0194    -2.607    -0.930    -0.870  0.8986 -0.0714  0.4329
              Bcc     0.0428     5.747     2.051     1.917 -0.0113  0.9825  0.1857
 
              Baa    -0.0234    -3.140    -1.121    -1.048  0.1718 -0.4386  0.8821
    40 C(13)  Bbb    -0.0194    -2.607    -0.930    -0.870  0.0714  0.8986  0.4329
              Bcc     0.0428     5.747     2.051     1.917  0.9825  0.0113 -0.1857
 
              Baa    -0.0238    -3.194    -1.140    -1.066  0.2869  0.3059  0.9078
    41 C(13)  Bbb    -0.0226    -3.037    -1.084    -1.013  0.1530  0.9209 -0.3586
              Bcc     0.0464     6.232     2.224     2.079  0.9457 -0.2417 -0.2174
 
              Baa    -0.0104    -5.531    -1.974    -1.845  0.2809 -0.0852  0.9559
    42 H(1)   Bbb    -0.0101    -5.399    -1.927    -1.801  0.2047  0.9785  0.0271
              Bcc     0.0205    10.930     3.900     3.646  0.9376 -0.1881 -0.2923
 
              Baa    -0.0205   -10.922    -3.897    -3.643 -0.0960 -0.3717  0.9234
    43 H(1)   Bbb    -0.0201   -10.701    -3.818    -3.569  0.5270  0.7680  0.3639
              Bcc     0.0405    21.623     7.716     7.213  0.8444 -0.5216 -0.1222
 
              Baa    -0.0234    -3.140    -1.121    -1.048 -0.1718  0.4386  0.8821
    44 C(13)  Bbb    -0.0194    -2.607    -0.930    -0.870  0.0714  0.8986 -0.4329
              Bcc     0.0428     5.747     2.051     1.917  0.9825  0.0113  0.1857
 
              Baa    -0.0082    -1.094    -0.390    -0.365  0.7909 -0.1010  0.6036
    45 C(13)  Bbb    -0.0072    -0.969    -0.346    -0.323 -0.6107 -0.1939  0.7678
              Bcc     0.0154     2.064     0.736     0.688 -0.0395  0.9758  0.2150
 
              Baa    -0.0052    -2.763    -0.986    -0.922 -0.3779 -0.0894  0.9215
    46 H(1)   Bbb    -0.0051    -2.702    -0.964    -0.901  0.9250 -0.0786  0.3717
              Bcc     0.0102     5.465     1.950     1.823  0.0392  0.9929  0.1124
 
              Baa    -0.0064    -0.854    -0.305    -0.285 -0.5155 -0.4490  0.7298
    47 C(13)  Bbb    -0.0041    -0.556    -0.198    -0.186  0.8400 -0.0966  0.5339
              Bcc     0.0105     1.411     0.503     0.471 -0.1692  0.8883  0.4269
 
              Baa    -0.0075    -1.001    -0.357    -0.334  0.7803 -0.2055  0.5907
    48 C(13)  Bbb    -0.0066    -0.879    -0.314    -0.293  0.5595  0.6516 -0.5123
              Bcc     0.0140     1.880     0.671     0.627 -0.2796  0.7302  0.6234
 
              Baa    -0.0049    -2.600    -0.928    -0.867  0.2913  0.7523 -0.5909
    49 H(1)   Bbb    -0.0047    -2.530    -0.903    -0.844  0.8938  0.0061  0.4484
              Bcc     0.0096     5.130     1.830     1.711 -0.3409  0.6588  0.6707
 
              Baa    -0.0202    -2.717    -0.970    -0.906  0.4442  0.7163 -0.5381
    50 C(13)  Bbb    -0.0176    -2.364    -0.843    -0.788  0.8294 -0.1017  0.5494
              Bcc     0.0379     5.081     1.813     1.695 -0.3388  0.6903  0.6393
 
              Baa    -0.0209   -11.140    -3.975    -3.716  0.3922  0.8816 -0.2627
    51 H(1)   Bbb    -0.0205   -10.923    -3.898    -3.644  0.7985 -0.1846  0.5730
              Bcc     0.0414    22.063     7.873     7.359 -0.4566  0.4345  0.7763
 
              Baa    -0.0033    -1.778    -0.634    -0.593 -0.4862 -0.4437  0.7528
    52 H(1)   Bbb    -0.0032    -1.721    -0.614    -0.574  0.8598 -0.0890  0.5029
              Bcc     0.0066     3.499     1.248     1.167 -0.1561  0.8918  0.4247
 
              Baa    -0.0381    -1.470    -0.525    -0.490  0.8459 -0.0472  0.5313
    53 N(14)  Bbb    -0.0324    -1.250    -0.446    -0.417 -0.4757 -0.5174  0.7113
              Bcc     0.0705     2.720     0.970     0.907 -0.2413  0.8545  0.4601
 
              Baa    -0.0381    -1.470    -0.525    -0.490  0.0472  0.8459  0.5313
    54 N(14)  Bbb    -0.0324    -1.250    -0.446    -0.417  0.5174 -0.4757  0.7113
              Bcc     0.0705     2.720     0.970     0.907  0.8545  0.2413 -0.4601
 
              Baa    -0.0381    -1.470    -0.525    -0.490  0.8459 -0.0472 -0.5313
    55 N(14)  Bbb    -0.0324    -1.250    -0.446    -0.417  0.4757  0.5174  0.7113
              Bcc     0.0705     2.720     0.970     0.907 -0.2413  0.8545 -0.4601
 
              Baa    -0.0381    -1.470    -0.525    -0.490  0.0472  0.8459 -0.5313
    56 N(14)  Bbb    -0.0324    -1.250    -0.446    -0.417 -0.5174  0.4757  0.7113
              Bcc     0.0705     2.720     0.970     0.907  0.8545  0.2413  0.4601
 
              Baa    -0.0082    -1.094    -0.390    -0.365  0.1010  0.7909  0.6036
    57 C(13)  Bbb    -0.0072    -0.969    -0.346    -0.323  0.1939 -0.6107  0.7678
              Bcc     0.0154     2.064     0.736     0.688  0.9758  0.0395 -0.2150
 
              Baa    -0.0052    -2.763    -0.986    -0.922  0.0894 -0.3779  0.9215
    58 H(1)   Bbb    -0.0051    -2.702    -0.964    -0.901  0.0786  0.9250  0.3717
              Bcc     0.0102     5.465     1.950     1.823  0.9929 -0.0392 -0.1124
 
              Baa    -0.0064    -0.854    -0.305    -0.285  0.4490 -0.5155  0.7298
    59 C(13)  Bbb    -0.0041    -0.556    -0.198    -0.186  0.0966  0.8400  0.5339
              Bcc     0.0105     1.411     0.503     0.471  0.8883  0.1692 -0.4269
 
              Baa    -0.0033    -1.778    -0.634    -0.593  0.4437 -0.4862  0.7528
    60 H(1)   Bbb    -0.0032    -1.721    -0.614    -0.574  0.0890  0.8598  0.5029
              Bcc     0.0066     3.499     1.248     1.167  0.8918  0.1561 -0.4247
 
              Baa    -0.0075    -1.001    -0.357    -0.334  0.2055  0.7803  0.5907
    61 C(13)  Bbb    -0.0066    -0.879    -0.314    -0.293  0.6516 -0.5595  0.5123
              Bcc     0.0140     1.880     0.671     0.627  0.7302  0.2796 -0.6234
 
              Baa    -0.0049    -2.600    -0.928    -0.867  0.7523 -0.2913  0.5909
    62 H(1)   Bbb    -0.0047    -2.530    -0.903    -0.844 -0.0061  0.8938  0.4484
              Bcc     0.0096     5.130     1.830     1.711 -0.6588 -0.3409  0.6707
 
              Baa    -0.0202    -2.717    -0.970    -0.906  0.7163 -0.4442  0.5381
    63 C(13)  Bbb    -0.0176    -2.364    -0.843    -0.788  0.1017  0.8294  0.5494
              Bcc     0.0379     5.081     1.813     1.695  0.6903  0.3388 -0.6393
 
              Baa    -0.0209   -11.140    -3.975    -3.716  0.8816 -0.3922  0.2627
    64 H(1)   Bbb    -0.0205   -10.923    -3.898    -3.644  0.1846  0.7985  0.5730
              Bcc     0.0414    22.063     7.873     7.359 -0.4345 -0.4566  0.7763
 
              Baa    -0.0082    -1.094    -0.390    -0.365  0.7909 -0.1010 -0.6036
    65 C(13)  Bbb    -0.0072    -0.969    -0.346    -0.323  0.6107  0.1939  0.7678
              Bcc     0.0154     2.064     0.736     0.688 -0.0395  0.9758 -0.2150
 
              Baa    -0.0052    -2.763    -0.986    -0.922  0.3779  0.0894  0.9215
    66 H(1)   Bbb    -0.0051    -2.702    -0.964    -0.901  0.9250 -0.0786 -0.3717
              Bcc     0.0102     5.465     1.950     1.823  0.0392  0.9929 -0.1124
 
              Baa    -0.0064    -0.854    -0.305    -0.285  0.5155  0.4490  0.7298
    67 C(13)  Bbb    -0.0041    -0.556    -0.198    -0.186  0.8400 -0.0966 -0.5339
              Bcc     0.0105     1.411     0.503     0.471 -0.1692  0.8883 -0.4269
 
              Baa    -0.0033    -1.778    -0.634    -0.593  0.4862  0.4437  0.7528
    68 H(1)   Bbb    -0.0032    -1.721    -0.614    -0.574  0.8598 -0.0890 -0.5029
              Bcc     0.0066     3.499     1.248     1.167 -0.1561  0.8918 -0.4247
 
              Baa    -0.0075    -1.001    -0.357    -0.334  0.7803 -0.2055 -0.5907
    69 C(13)  Bbb    -0.0066    -0.879    -0.314    -0.293  0.5595  0.6516  0.5123
              Bcc     0.0140     1.880     0.671     0.627 -0.2796  0.7302 -0.6234
 
              Baa    -0.0049    -2.600    -0.928    -0.867  0.2913  0.7523  0.5909
    70 H(1)   Bbb    -0.0047    -2.530    -0.903    -0.844  0.8938  0.0061 -0.4484
              Bcc     0.0096     5.130     1.830     1.711  0.3409 -0.6588  0.6707
 
              Baa    -0.0202    -2.717    -0.970    -0.906  0.4442  0.7163  0.5381
    71 C(13)  Bbb    -0.0176    -2.364    -0.843    -0.788  0.8294 -0.1017 -0.5494
              Bcc     0.0379     5.081     1.813     1.695 -0.3388  0.6903 -0.6393
 
              Baa    -0.0209   -11.140    -3.975    -3.716  0.3922  0.8816  0.2627
    72 H(1)   Bbb    -0.0205   -10.923    -3.898    -3.644  0.7985 -0.1846 -0.5730
              Bcc     0.0414    22.063     7.873     7.359  0.4566 -0.4345  0.7763
 
              Baa    -0.0082    -1.094    -0.390    -0.365  0.1010  0.7909 -0.6036
    73 C(13)  Bbb    -0.0072    -0.969    -0.346    -0.323 -0.1939  0.6107  0.7678
              Bcc     0.0154     2.064     0.736     0.688  0.9758  0.0395  0.2150
 
              Baa    -0.0052    -2.763    -0.986    -0.922 -0.0894  0.3779  0.9215
    74 H(1)   Bbb    -0.0051    -2.702    -0.964    -0.901  0.0786  0.9250 -0.3717
              Bcc     0.0102     5.465     1.950     1.823  0.9929 -0.0392  0.1124
 
              Baa    -0.0064    -0.854    -0.305    -0.285 -0.4490  0.5155  0.7298
    75 C(13)  Bbb    -0.0041    -0.556    -0.198    -0.186  0.0966  0.8400 -0.5339
              Bcc     0.0105     1.411     0.503     0.471  0.8883  0.1692  0.4269
 
              Baa    -0.0033    -1.778    -0.634    -0.593 -0.4437  0.4862  0.7528
    76 H(1)   Bbb    -0.0032    -1.721    -0.614    -0.574  0.0890  0.8598 -0.5029
              Bcc     0.0066     3.499     1.248     1.167  0.8918  0.1561  0.4247
 
              Baa    -0.0075    -1.001    -0.357    -0.334  0.2055  0.7803 -0.5907
    77 C(13)  Bbb    -0.0066    -0.879    -0.314    -0.293  0.6516 -0.5595 -0.5123
              Bcc     0.0140     1.880     0.671     0.627  0.7302  0.2796  0.6234
 
              Baa    -0.0202    -2.717    -0.970    -0.906  0.7163 -0.4442 -0.5381
    78 C(13)  Bbb    -0.0176    -2.364    -0.843    -0.788  0.1017  0.8294 -0.5494
              Bcc     0.0379     5.081     1.813     1.695  0.6903  0.3388  0.6393
 
              Baa    -0.0049    -2.600    -0.928    -0.867  0.7523 -0.2913 -0.5909
    79 H(1)   Bbb    -0.0047    -2.530    -0.903    -0.844 -0.0061  0.8938 -0.4484
              Bcc     0.0096     5.130     1.830     1.711  0.6588  0.3409  0.6707
 
              Baa    -0.0209   -11.140    -3.975    -3.716  0.8816 -0.3922 -0.2627
    80 H(1)   Bbb    -0.0205   -10.923    -3.898    -3.644  0.1846  0.7985 -0.5730
              Bcc     0.0414    22.063     7.873     7.359  0.4345  0.4566  0.7763
 
              Baa    -4.0129  -235.066   -83.877   -78.409  0.0000  0.0000  1.0000
    81 Eu(153 Bbb     2.0065   117.533    41.939    39.205  0.9254 -0.3789  0.0000
              Bcc     2.0065   117.533    41.939    39.205  0.3789  0.9254  0.0000
 

 ---------------------------------------------------------------------------------

 No NMR shielding tensors so no spin-rotation constants.
 Leave Link  601 at Thu Mar  6 05:55:24 2008, MaxMem=  209715200 cpu:     362.6
 (Enter /data/hamilton/dch0ik/g03/l9999.exe)
 1\1\GINC-NODE220\SP\UB3LYP\Gen\C32H40Eu1N8(3+,7)\DCH0IK\06-Mar-2008\0\
 \#p nmr=(csgt,susceptibility) ub3lyp/Gen guess=read scf=tight pseudo=r
 ead geom=checkpoint\\Tetra-py cage system, Eu(III), unhydrated geometr
 y.\\3,7\C,-2.5000690498,-0.9935061099,2.3478852837\H,-3.0673122237,-1.
 5536025392,1.5925791764\H,-3.1890974421,-0.8355874069,3.1970694968\C,-
 1.3073245301,-1.8136956612,2.8272981222\H,-0.7807325959,-1.283667319,3
 .6325973678\H,-1.6787800216,-2.7532352263,3.275696398\N,-0.3192205824,
 -2.107863578,1.7476026768\N,-2.107863578,0.3192205824,1.7476026768\C,-
 1.8136956612,1.3073245301,2.8272981222\H,-2.7532352263,1.6787800216,3.
 275696398\H,-1.283667319,0.7807325959,3.6325973678\C,-0.9935061099,2.5
 000690498,2.3478852837\H,-0.8355874069,3.1890974421,3.1970694968\H,-1.
 5536025392,3.0673122237,1.5925791764\C,0.9935061099,-2.5000690498,2.34
 78852837\H,1.5536025392,-3.0673122237,1.5925791764\H,0.8355874069,-3.1
 890974421,3.1970694968\C,1.8136956612,-1.3073245301,2.8272981222\H,2.7
 532352263,-1.6787800216,3.275696398\H,1.283667319,-0.7807325959,3.6325
 973678\N,0.3192205824,2.107863578,1.7476026768\N,2.107863578,-0.319220
 5824,1.7476026768\C,2.5000690498,0.9935061099,2.3478852837\H,3.0673122
 237,1.5536025392,1.5925791764\H,3.1890974421,0.8355874069,3.1970694968
 \C,1.3073245301,1.8136956612,2.8272981222\H,1.6787800216,2.7532352263,
 3.275696398\H,0.7807325959,1.283667319,3.6325973678\C,-0.8165010698,-3
 .2185526997,0.8904546589\H,-1.8570033758,-2.9971443631,0.6071053839\H,
 -0.8405351873,-4.1645885924,1.4599591922\C,0.8165010698,3.2185526997,0
 .8904546589\H,0.8405351873,4.1645885924,1.4599591922\H,1.8570033758,2.
 9971443631,0.6071053839\C,3.2185526997,-0.8165010698,0.8904546589\H,2.
 9971443631,-1.8570033758,0.6071053839\H,4.1645885924,-0.8405351873,1.4
 599591922\C,0.,3.3984854867,-0.3709543041\C,0.,-3.3984854867,-0.370954
 3041\C,3.3984854867,0.,-0.3709543041\C,-3.2185526997,0.8165010698,0.89
 04546589\H,-4.1645885924,0.8405351873,1.4599591922\H,-2.9971443631,1.8
 570033758,0.6071053839\C,-3.3984854867,0.,-0.3709543041\C,0.1735398813
 ,-4.6685172373,-0.927009342\H,-0.2387693687,-5.5453866631,-0.424272173
 4\C,0.8767700516,-4.8041811229,-2.1259134421\C,1.4008240361,-3.6584343
 392,-2.7295231078\H,1.9626996968,-3.7133456187,-3.6629658318\C,1.20089
 16791,-2.4297696833,-2.1069424921\H,1.6110890861,-1.5188018721,-2.5470
 394115\H,1.0198288659,-5.788914914,-2.5757700561\N,0.5107796737,-2.281
 9770297,-0.9508160774\N,2.2819770297,0.5107796737,-0.9508160774\N,-0.5
 107796737,2.2819770297,-0.9508160774\N,-2.2819770297,-0.5107796737,-0.
 9508160774\C,4.6685172373,0.1735398813,-0.927009342\H,5.5453866631,-0.
 2387693687,-0.4242721734\C,4.8041811229,0.8767700516,-2.1259134421\H,5
 .788914914,1.0198288659,-2.5757700561\C,3.6584343392,1.4008240361,-2.7
 295231078\H,3.7133456187,1.9626996968,-3.6629658318\C,2.4297696833,1.2
 008916791,-2.1069424921\H,1.5188018721,1.6110890861,-2.5470394115\C,-0
 .1735398813,4.6685172373,-0.927009342\H,0.2387693687,5.5453866631,-0.4
 242721734\C,-0.8767700516,4.8041811229,-2.1259134421\H,-1.0198288659,5
 .788914914,-2.5757700561\C,-1.4008240361,3.6584343392,-2.7295231078\H,
 -1.9626996968,3.7133456187,-3.6629658318\C,-1.2008916791,2.4297696833,
 -2.1069424921\H,-1.6110890861,1.5188018721,-2.5470394115\C,-4.66851723
 73,-0.1735398813,-0.927009342\H,-5.5453866631,0.2387693687,-0.42427217
 34\C,-4.8041811229,-0.8767700516,-2.1259134421\H,-5.788914914,-1.01982
 88659,-2.5757700561\C,-3.6584343392,-1.4008240361,-2.7295231078\C,-2.4
 297696833,-1.2008916791,-2.1069424921\H,-3.7133456187,-1.9626996968,-3
 .6629658318\H,-1.5188018721,-1.6110890861,-2.5470394115\Eu,0.,0.,0.192
 7467898\\Version=IA32L-G03RevD.01\State=7-A\HF=-2391.825009\S2=12.0838
 \S2-1=0.\S2A=12.000361\RMSD=2.115e-09\Thermal=0.\Dipole=0.,0.,-0.20271
 97\PG=C04 [C4(Eu1),X(C32H40N8)]\\@


 THE REAL VOYAGE OF DISCOVERY CONSISTS NOT IN SEEKING NEW LANDSCAPES 
 BUT IN HAVING NEW EYES.
                                                    -- MARCEL PROUST
 Job cpu time:  0 days  0 hours 12 minutes  4.4 seconds.
 File lengths (MBytes):  RWF=   3140 Int=      0 D2E=      0 Chk=    176 Scr=      1
 Normal termination of Gaussian 03 at Thu Mar  6 05:55:34 2008.
