 Entering Gaussian System, Link 0=g09
 Input=alanine.gjf
 Output=alanine.log
 Initial command:
 /home/ztw1e12/g09/l1.exe /home/ztw1e12/Gau-28501.inp -scrdir=/home/ztw1e12/
 Default is to use a total of   8 processors:
                                8 via shared-memory
                                1 via Linda
 Entering Link 1 = /home/ztw1e12/g09/l1.exe PID=     28502.
  
 Copyright (c) 1988,1990,1992,1993,1995,1998,2003,2009, Gaussian, Inc.
                  All Rights Reserved.
  
 This is part of the Gaussian(R) 09 program.  It is based on
 the Gaussian(R) 03 system (copyright 2003, Gaussian, Inc.),
 the Gaussian(R) 98 system (copyright 1998, Gaussian, Inc.),
 the Gaussian(R) 94 system (copyright 1995, Gaussian, Inc.),
 the Gaussian 92(TM) system (copyright 1992, Gaussian, Inc.),
 the Gaussian 90(TM) system (copyright 1990, Gaussian, Inc.),
 the Gaussian 88(TM) system (copyright 1988, Gaussian, Inc.),
 the Gaussian 86(TM) system (copyright 1986, Carnegie Mellon
 University), and the Gaussian 82(TM) system (copyright 1983,
 Carnegie Mellon University). Gaussian is a federally registered
 trademark of Gaussian, Inc.
  
 This software contains proprietary and confidential information,
 including trade secrets, belonging to Gaussian, Inc.
  
 This software is provided under written license and may be
 used, copied, transmitted, or stored only in accord with that
 written license.
  
 The following legend is applicable only to US Government
 contracts under FAR:
  
                    RESTRICTED RIGHTS LEGEND
  
 Use, reproduction and disclosure by the US Government is
 subject to restrictions as set forth in subparagraphs (a)
 and (c) of the Commercial Computer Software - Restricted
 Rights clause in FAR 52.227-19.
  
 Gaussian, Inc.
 340 Quinnipiac St., Bldg. 40, Wallingford CT 06492
  
  
 ---------------------------------------------------------------
 Warning -- This program may not be used in any manner that
 competes with the business of Gaussian, Inc. or will provide
 assistance to any competitor of Gaussian, Inc.  The licensee
 of this program is prohibited from giving any competitor of
 Gaussian, Inc. access to this program.  By using this program,
 the user acknowledges that Gaussian, Inc. is engaged in the
 business of creating and licensing software in the field of
 computational chemistry and represents and warrants to the
 licensee that it is not a competitor of Gaussian, Inc. and that
 it will not use this program in any manner prohibited above.
 ---------------------------------------------------------------
  

 Cite this work as:
 Gaussian 09, Revision A.02,
 M. J. Frisch, G. W. Trucks, H. B. Schlegel, G. E. Scuseria, 
 M. A. Robb, J. R. Cheeseman, G. Scalmani, V. Barone, B. Mennucci, 
 G. A. Petersson, H. Nakatsuji, M. Caricato, X. Li, H. P. Hratchian, 
 A. F. Izmaylov, J. Bloino, G. Zheng, J. L. Sonnenberg, M. Hada, 
 M. Ehara, K. Toyota, R. Fukuda, J. Hasegawa, M. Ishida, T. Nakajima, 
 Y. Honda, O. Kitao, H. Nakai, T. Vreven, J. A. Montgomery, Jr., 
 J. E. Peralta, F. Ogliaro, M. Bearpark, J. J. Heyd, E. Brothers, 
 K. N. Kudin, V. N. Staroverov, R. Kobayashi, J. Normand, 
 K. Raghavachari, A. Rendell, J. C. Burant, S. S. Iyengar, J. Tomasi, 
 M. Cossi, N. Rega, J. M. Millam, M. Klene, J. E. Knox, J. B. Cross, 
 V. Bakken, C. Adamo, J. Jaramillo, R. Gomperts, R. E. Stratmann, 
 O. Yazyev, A. J. Austin, R. Cammi, C. Pomelli, J. W. Ochterski, 
 R. L. Martin, K. Morokuma, V. G. Zakrzewski, G. A. Voth, 
 P. Salvador, J. J. Dannenberg, S. Dapprich, A. D. Daniels, 
 O. Farkas, J. B. Foresman, J. V. Ortiz, J. Cioslowski, 
 and D. J. Fox, Gaussian, Inc., Wallingford CT, 2009.
 
 ******************************************
 Gaussian 09:  EM64L-G09RevA.02 11-Jun-2009
                22-Feb-2013 
 ******************************************
 %Chk=c6h1202_alanine2.chk
 %Mem=16GB
 %NProcShared=12
 Will use up to   12 processors via shared memory.
 Default route:  MaxDisk=100GB
 ------------------------------------------------------------
 #p opt=tight m06/cc-pvtz scf=tight integral=(grid=ultrafine)
 ------------------------------------------------------------
 1/7=10,14=-1,18=20,19=15,26=3,38=1/1,3;
 2/9=110,12=2,17=6,18=5,40=1/2;
 3/5=16,6=1,11=2,16=1,25=1,30=1,71=1,74=-54,75=-5/1,2,3;
 4//1;
 5/5=2,32=2,38=5/2;
 6/7=2,8=2,9=2,10=2,28=1/1;
 7//1,2,3,16;
 1/7=10,14=-1,18=20,19=15/3(2);
 2/9=110/2;
 99//99;
 2/9=110/2;
 3/5=16,6=1,11=2,16=1,25=1,30=1,71=1,74=-54,75=-5/1,2,3;
 4/5=5,16=3/1;
 5/5=2,32=2,38=5/2;
 7//1,2,3,16;
 1/7=10,14=-1,18=20,19=15/3(-5);
 2/9=110/2;
 6/7=2,8=2,9=2,10=2,19=2,28=1/1;
 99/9=1/99;
 Leave Link    1 at Fri Feb 22 01:46:28 2013, MaxMem= 2147483648 cpu:       2.3
 (Enter /home/ztw1e12/g09/l101.exe)
 ---------------------
 Geometry optimisation
 ---------------------
 Symbolic Z-matrix:
 Charge =  0 Multiplicity = 1
 C                    -2.38472   1.03103  -1.3123 
 O                    -2.63013  -0.18363  -1.53123 
 C                    -1.39958   2.1828   -3.17384 
 H                    -1.14807   1.24408  -3.62154 
 H                    -1.56931   2.90955  -3.9406 
 H                    -0.59457   2.50638  -2.54762 
 N                    -2.6179    2.02947  -2.3657 
 H                    -2.85297   2.90678  -1.94729 
 C                    -1.84011   1.47153   0.05918 
 H                    -1.22393   2.3377   -0.06321 
 N                    -1.04402   0.3824    0.64308 
 H                    -0.58265  -0.12168  -0.08702 
 C                    -0.04154   0.94498   1.55928 
 O                    -0.28177   2.01665   2.1736 
 C                     1.30267   0.22288   1.76732 
 H                     1.56662  -0.30376   0.87408 
 H                     2.06201   0.94144   1.99531 
 H                     1.21333  -0.47076   2.57712 
 C                    -3.01633   1.80639   0.99511 
 H                    -3.63251   0.94023   1.11751 
 H                    -2.63793   2.11245   1.94803 
 H                    -3.5958    2.59916   0.5701 
 
 NAtoms=     22 NQM=     22 NQMF=      0 NMic=      0 NMicF=      0 NTot=     22.
                    Isotopes and Nuclear Properties:
 (Nuclear quadrupole moments (NQMom) in fm**2, nuclear magnetic moments (NMagM)
  in nuclear magnetons)

  Atom         1           2           3           4           5           6           7           8           9          10
 IAtWgt=          12          16          12           1           1           1          14           1          12           1
 AtmWgt=  12.0000000  15.9949146  12.0000000   1.0078250   1.0078250   1.0078250  14.0030740   1.0078250  12.0000000   1.0078250
 NucSpn=           0           0           0           1           1           1           2           1           0           1
 AtZEff=   0.0000000   0.0000000   0.0000000   0.0000000   0.0000000   0.0000000   0.0000000   0.0000000   0.0000000   0.0000000
 NQMom=    0.0000000   0.0000000   0.0000000   0.0000000   0.0000000   0.0000000   2.0440000   0.0000000   0.0000000   0.0000000
 NMagM=    0.0000000   0.0000000   0.0000000   2.7928460   2.7928460   2.7928460   0.4037610   2.7928460   0.0000000   2.7928460

  Atom        11          12          13          14          15          16          17          18          19          20
 IAtWgt=          14           1          12          16          12           1           1           1          12           1
 AtmWgt=  14.0030740   1.0078250  12.0000000  15.9949146  12.0000000   1.0078250   1.0078250   1.0078250  12.0000000   1.0078250
 NucSpn=           2           1           0           0           0           1           1           1           0           1
 AtZEff=   0.0000000   0.0000000   0.0000000   0.0000000   0.0000000   0.0000000   0.0000000   0.0000000   0.0000000   0.0000000
 NQMom=    2.0440000   0.0000000   0.0000000   0.0000000   0.0000000   0.0000000   0.0000000   0.0000000   0.0000000   0.0000000
 NMagM=    0.4037610   2.7928460   0.0000000   0.0000000   0.0000000   2.7928460   2.7928460   2.7928460   0.0000000   2.7928460

  Atom        21          22
 IAtWgt=           1           1
 AtmWgt=   1.0078250   1.0078250
 NucSpn=           1           1
 AtZEff=   0.0000000   0.0000000
 NQMom=    0.0000000   0.0000000
 NMagM=    2.7928460   2.7928460
 Leave Link  101 at Fri Feb 22 01:46:28 2013, MaxMem= 2147483648 cpu:       1.4
 (Enter /home/ztw1e12/g09/l103.exe)

 GradGradGradGradGradGradGradGradGradGradGradGradGradGradGradGradGradGrad
 Berny optimization.
 Initialization pass.
                           ----------------------------
                           !    Initial Parameters    !
                           ! (Angstroms and Degrees)  !
 --------------------------                            --------------------------
 ! Name  Definition              Value          Derivative Info.                !
 --------------------------------------------------------------------------------
 ! R1    R(1,2)                  1.2584         estimate D2E/DX2                !
 ! R2    R(1,7)                  1.47           estimate D2E/DX2                !
 ! R3    R(1,9)                  1.54           estimate D2E/DX2                !
 ! R4    R(3,4)                  1.07           estimate D2E/DX2                !
 ! R5    R(3,5)                  1.07           estimate D2E/DX2                !
 ! R6    R(3,6)                  1.07           estimate D2E/DX2                !
 ! R7    R(3,7)                  1.47           estimate D2E/DX2                !
 ! R8    R(7,8)                  1.0            estimate D2E/DX2                !
 ! R9    R(9,10)                 1.07           estimate D2E/DX2                !
 ! R10   R(9,11)                 1.47           estimate D2E/DX2                !
 ! R11   R(9,19)                 1.54           estimate D2E/DX2                !
 ! R12   R(11,12)                1.0            estimate D2E/DX2                !
 ! R13   R(11,13)                1.47           estimate D2E/DX2                !
 ! R14   R(13,14)                1.2584         estimate D2E/DX2                !
 ! R15   R(13,15)                1.54           estimate D2E/DX2                !
 ! R16   R(15,16)                1.07           estimate D2E/DX2                !
 ! R17   R(15,17)                1.07           estimate D2E/DX2                !
 ! R18   R(15,18)                1.07           estimate D2E/DX2                !
 ! R19   R(19,20)                1.07           estimate D2E/DX2                !
 ! R20   R(19,21)                1.07           estimate D2E/DX2                !
 ! R21   R(19,22)                1.07           estimate D2E/DX2                !
 ! A1    A(2,1,7)              120.0            estimate D2E/DX2                !
 ! A2    A(2,1,9)              120.0            estimate D2E/DX2                !
 ! A3    A(7,1,9)              120.0            estimate D2E/DX2                !
 ! A4    A(4,3,5)              109.4712         estimate D2E/DX2                !
 ! A5    A(4,3,6)              109.4712         estimate D2E/DX2                !
 ! A6    A(4,3,7)              109.4712         estimate D2E/DX2                !
 ! A7    A(5,3,6)              109.4712         estimate D2E/DX2                !
 ! A8    A(5,3,7)              109.4712         estimate D2E/DX2                !
 ! A9    A(6,3,7)              109.4712         estimate D2E/DX2                !
 ! A10   A(1,7,3)              109.4712         estimate D2E/DX2                !
 ! A11   A(1,7,8)              109.4712         estimate D2E/DX2                !
 ! A12   A(3,7,8)              109.4712         estimate D2E/DX2                !
 ! A13   A(1,9,10)             109.4712         estimate D2E/DX2                !
 ! A14   A(1,9,11)             109.4712         estimate D2E/DX2                !
 ! A15   A(1,9,19)             109.4712         estimate D2E/DX2                !
 ! A16   A(10,9,11)            109.4712         estimate D2E/DX2                !
 ! A17   A(10,9,19)            109.4712         estimate D2E/DX2                !
 ! A18   A(11,9,19)            109.4712         estimate D2E/DX2                !
 ! A19   A(9,11,12)            109.4712         estimate D2E/DX2                !
 ! A20   A(9,11,13)            109.4712         estimate D2E/DX2                !
 ! A21   A(12,11,13)           109.4712         estimate D2E/DX2                !
 ! A22   A(11,13,14)           120.0            estimate D2E/DX2                !
 ! A23   A(11,13,15)           120.0            estimate D2E/DX2                !
 ! A24   A(14,13,15)           120.0            estimate D2E/DX2                !
 ! A25   A(13,15,16)           109.4712         estimate D2E/DX2                !
 ! A26   A(13,15,17)           109.4712         estimate D2E/DX2                !
 ! A27   A(13,15,18)           109.4712         estimate D2E/DX2                !
 ! A28   A(16,15,17)           109.4712         estimate D2E/DX2                !
 ! A29   A(16,15,18)           109.4712         estimate D2E/DX2                !
 ! A30   A(17,15,18)           109.4712         estimate D2E/DX2                !
 ! A31   A(9,19,20)            109.4712         estimate D2E/DX2                !
 ! A32   A(9,19,21)            109.4712         estimate D2E/DX2                !
 ! A33   A(9,19,22)            109.4712         estimate D2E/DX2                !
 ! A34   A(20,19,21)           109.4712         estimate D2E/DX2                !
 ! A35   A(20,19,22)           109.4712         estimate D2E/DX2                !
 ! A36   A(21,19,22)           109.4712         estimate D2E/DX2                !
 ! D1    D(2,1,7,3)            -90.0            estimate D2E/DX2                !
 ! D2    D(2,1,7,8)            150.0            estimate D2E/DX2                !
 ! D3    D(9,1,7,3)             90.0            estimate D2E/DX2                !
 ! D4    D(9,1,7,8)            -30.0            estimate D2E/DX2                !
 ! D5    D(2,1,9,10)           150.0            estimate D2E/DX2                !
 ! D6    D(2,1,9,11)            30.0            estimate D2E/DX2                !
 ! D7    D(2,1,9,19)           -90.0            estimate D2E/DX2                !
 ! D8    D(7,1,9,10)           -30.0            estimate D2E/DX2                !
 ! D9    D(7,1,9,11)          -150.0            estimate D2E/DX2                !
 ! D10   D(7,1,9,19)            90.0            estimate D2E/DX2                !
 ! D11   D(4,3,7,1)             60.0            estimate D2E/DX2                !
 ! D12   D(4,3,7,8)            180.0            estimate D2E/DX2                !
 ! D13   D(5,3,7,1)            180.0            estimate D2E/DX2                !
 ! D14   D(5,3,7,8)            -60.0            estimate D2E/DX2                !
 ! D15   D(6,3,7,1)            -60.0            estimate D2E/DX2                !
 ! D16   D(6,3,7,8)             60.0            estimate D2E/DX2                !
 ! D17   D(1,9,11,12)           33.37           estimate D2E/DX2                !
 ! D18   D(1,9,11,13)          153.37           estimate D2E/DX2                !
 ! D19   D(10,9,11,12)         -86.63           estimate D2E/DX2                !
 ! D20   D(10,9,11,13)          33.37           estimate D2E/DX2                !
 ! D21   D(19,9,11,12)         153.37           estimate D2E/DX2                !
 ! D22   D(19,9,11,13)         -86.63           estimate D2E/DX2                !
 ! D23   D(1,9,19,20)           60.0            estimate D2E/DX2                !
 ! D24   D(1,9,19,21)          180.0            estimate D2E/DX2                !
 ! D25   D(1,9,19,22)          -60.0            estimate D2E/DX2                !
 ! D26   D(10,9,19,20)         180.0            estimate D2E/DX2                !
 ! D27   D(10,9,19,21)         -60.0            estimate D2E/DX2                !
 ! D28   D(10,9,19,22)          60.0            estimate D2E/DX2                !
 ! D29   D(11,9,19,20)         -60.0            estimate D2E/DX2                !
 ! D30   D(11,9,19,21)          60.0            estimate D2E/DX2                !
 ! D31   D(11,9,19,22)         180.0            estimate D2E/DX2                !
 ! D32   D(9,11,13,14)          30.0            estimate D2E/DX2                !
 ! D33   D(9,11,13,15)        -150.0            estimate D2E/DX2                !
 ! D34   D(12,11,13,14)        150.0            estimate D2E/DX2                !
 ! D35   D(12,11,13,15)        -30.0            estimate D2E/DX2                !
 ! D36   D(11,13,15,16)         30.0            estimate D2E/DX2                !
 ! D37   D(11,13,15,17)        150.0            estimate D2E/DX2                !
 ! D38   D(11,13,15,18)        -90.0            estimate D2E/DX2                !
 ! D39   D(14,13,15,16)       -150.0            estimate D2E/DX2                !
 ! D40   D(14,13,15,17)        -30.0            estimate D2E/DX2                !
 ! D41   D(14,13,15,18)         90.0            estimate D2E/DX2                !
 --------------------------------------------------------------------------------
 Trust Radius=3.00D-01 FncErr=1.00D-07 GrdErr=1.00D-06
 Number of steps in this run= 108 maximum allowed number of steps= 132.
 GradGradGradGradGradGradGradGradGradGradGradGradGradGradGradGradGradGrad

 Leave Link  103 at Fri Feb 22 01:46:29 2013, MaxMem= 2147483648 cpu:       0.4
 (Enter /home/ztw1e12/g09/l202.exe)
                          Input orientation:                          
 ---------------------------------------------------------------------
 Center     Atomic      Atomic             Coordinates (Angstroms)
 Number     Number       Type             X           Y           Z
 ---------------------------------------------------------------------
      1          6           0       -2.384720    1.031033   -1.312299
      2          8           0       -2.630132   -0.183633   -1.531227
      3          6           0       -1.399585    2.182801   -3.173841
      4          1           0       -1.148066    1.244076   -3.621541
      5          1           0       -1.569315    2.909554   -3.940601
      6          1           0       -0.594572    2.506379   -2.547622
      7          7           0       -2.617901    2.029471   -2.365698
      8          1           0       -2.852965    2.906783   -1.947287
      9          6           0       -1.840107    1.471531    0.059182
     10          1           0       -1.223929    2.337698   -0.063209
     11          7           0       -1.044018    0.382399    0.643076
     12          1           0       -0.582654   -0.121684   -0.087022
     13          6           0       -0.041538    0.944985    1.559281
     14          8           0       -0.281767    2.016652    2.173602
     15          6           0        1.302665    0.222880    1.767323
     16          1           0        1.566622   -0.303756    0.874081
     17          1           0        2.062006    0.941435    1.995312
     18          1           0        1.213327   -0.470763    2.577124
     19          6           0       -3.016329    1.806393    0.995114
     20          1           0       -3.632508    0.940227    1.117505
     21          1           0       -2.637929    2.112453    1.948026
     22          1           0       -3.595795    2.599163    0.570102
 ---------------------------------------------------------------------
                    Distance matrix (angstroms):
                    1          2          3          4          5
     1  C    0.000000
     2  O    1.258400   0.000000
     3  C    2.400500   3.132481   0.000000
     4  H    2.628174   2.933306   1.070000   0.000000
     5  H    3.331921   4.061800   1.070000   1.747303   0.000000
     6  H    2.628174   3.523170   1.070000   1.747303   1.747303
     7  N    1.470000   2.365231   1.470000   2.086720   2.086720
     8  H    2.034920   3.126249   2.034920   2.911082   2.370879
     9  C    1.540000   2.427572   3.339521   3.752116   4.259049
    10  H    2.148263   3.238764   3.119436   3.723370   3.934524
    11  N    2.457987   2.750226   4.235178   4.352042   5.260470
    12  H    2.465260   2.506339   3.937827   3.831164   5.001198
    13  C    3.707273   4.186387   5.077295   5.306107   6.036749
    14  O    4.188718   4.907324   5.465553   5.910247   6.311777
    15  C    4.871755   5.149036   5.963099   6.007394   6.931586
    16  H    4.709037   4.838665   5.600627   5.475028   6.583360
    17  H    5.542715   5.976488   6.343796   6.476511   7.231532
    18  H    5.507172   5.633220   6.851446   6.851299   7.851776
    19  C    2.514809   3.239097   4.487286   5.011997   5.260428
    20  H    2.732978   3.046900   4.994556   5.359415   5.806846
    21  H    3.444314   4.168606   5.269911   5.830424   6.037651
    22  H    2.732978   3.618293   4.360483   5.039594   4.954736
                    6          7          8          9         10
     6  H    0.000000
     7  N    2.086720   0.000000
     8  H    2.370879   1.000000   0.000000
     9  C    3.068826   2.606971   2.666785   0.000000
    10  H    2.568433   2.709173   2.554871   1.070000   0.000000
    11  N    3.859255   3.773947   4.044105   1.470000   2.086720
    12  H    3.600196   3.736584   4.217406   2.034920   2.541723
    13  C    4.428368   4.818632   4.903957   2.400500   2.443393
    14  O    4.756851   5.105186   4.938129   2.682602   2.448278
    15  C    5.237616   5.976326   6.186350   3.788654   3.769215
    16  H    4.927034   5.783628   6.148205   3.927023   3.955119
    17  H    5.490419   6.488741   6.600274   4.388176   4.121216
    18  H    6.196361   6.735055   6.957934   4.408628   4.560595
    19  C    4.348088   3.391691   3.145675   1.540000   2.148263
    20  H    5.011491   3.787952   3.723974   2.148263   3.024610
    21  H    4.953921   4.314568   3.981289   2.148263   2.468846
    22  H    4.328528   3.146387   2.642665   2.148263   2.468846
                   11         12         13         14         15
    11  N    0.000000
    12  H    1.000000   0.000000
    13  C    1.470000   2.034920   0.000000
    14  O    2.365231   3.126249   1.258400   0.000000
    15  C    2.606971   2.666785   1.540000   2.427572   0.000000
    16  H    2.709173   2.361410   2.148263   3.238764   1.070000
    17  H    3.433431   3.529952   2.148263   2.584792   1.070000
    18  H    3.092577   3.231884   2.148263   2.930080   1.070000
    19  C    2.457987   3.288050   3.147966   2.985109   4.664497
    20  H    2.690081   3.446759   3.618045   3.674439   5.029193
    21  H    2.690081   3.654715   2.873213   2.368874   4.373949
    22  H    3.380966   4.112644   4.043207   3.727374   5.574493
                   16         17         18         19         20
    16  H    0.000000
    17  H    1.747303   0.000000
    18  H    1.747303   1.747303   0.000000
    19  C    5.046863   5.247669   5.057488   0.000000
    20  H    5.351421   5.761774   5.253903   1.070000   0.000000
    21  H    4.966858   4.843853   4.679844   1.070000   1.747303
    22  H    5.930421   6.065476   6.048160   1.070000   1.747303
                   21         22
    21  H    0.000000
    22  H    1.747303   0.000000
 Stoichiometry    C6H12N2O2
 Framework group  C1[X(C6H12N2O2)]
 Deg. of freedom    60
 Full point group                 C1      NOp   1
 Largest Abelian subgroup         C1      NOp   1
 Largest concise Abelian subgroup C1      NOp   1
                         Standard orientation:                         
 ---------------------------------------------------------------------
 Center     Atomic      Atomic             Coordinates (Angstroms)
 Number     Number       Type             X           Y           Z
 ---------------------------------------------------------------------
      1          6           0       -1.493566    0.149052    0.459315
      2          8           0       -1.627908   -0.055492    1.693691
      3          6           0       -2.717528   -1.381784   -0.926636
      4          1           0       -2.826706   -2.046879   -0.095595
      5          1           0       -3.557439   -1.487764   -1.581020
      6          1           0       -1.819440   -1.619011   -1.457729
      7          7           0       -2.647462    0.003454   -0.439699
      8          1           0       -2.545426    0.625038   -1.216373
      9          6           0       -0.120319    0.551900   -0.109462
     10          1           0       -0.029878    0.190740   -1.112599
     11          7           0        0.943880   -0.032274    0.719466
     12          1           0        0.642424   -0.917482    1.073771
     13          6           0        2.153769   -0.216676   -0.094822
     14          8           0        2.389678    0.560364   -1.056136
     15          6           0        3.132571   -1.360782    0.228549
     16          1           0        2.594519   -2.179665    0.658470
     17          1           0        3.613939   -1.683293   -0.670990
     18          1           0        3.869329   -1.014319    0.922847
     19          6           0        0.007884    2.086540   -0.102871
     20          1           0       -0.082557    2.447700    0.900266
     21          1           0        0.962023    2.366441   -0.498060
     22          1           0       -0.766737    2.511756   -0.706240
 ---------------------------------------------------------------------
 Rotational constants (GHZ):      2.0812874      0.7216438      0.6779498
 Leave Link  202 at Fri Feb 22 01:46:29 2013, MaxMem= 2147483648 cpu:       0.6
 (Enter /home/ztw1e12/g09/l301.exe)
 Standard basis: CC-pVTZ (5D, 7F)
 Ernie: Thresh=  0.10000D-02 Tol=  0.10000D-05 Strict=F.
 Ernie:  30 primitive shells out of 356 were deleted.
 There are   468 symmetry adapted basis functions of A   symmetry.
 Integral buffers will be    131072 words long.
 Raffenetti 2 integral format.
 Two-electron integral symmetry is turned on.
   468 basis functions,   724 primitive gaussians,   530 cartesian basis functions
    39 alpha electrons       39 beta electrons
       nuclear repulsion energy       548.2338611323 Hartrees.
 IExCor= 4235 DFT=T Ex+Corr=M06 ExCW=0 ScaHFX=  0.270000
 ScaDFX=  1.000000  1.000000  1.000000  1.000000 ScalE2=  1.000000  1.000000
 IRadAn=      5 IRanWt=     -1 IRanGd=            0 ICorTp=0
 NAtoms=   22 NActive=   22 NUniq=   22 SFac= 7.50D-01 NAtFMM=   80 NAOKFM=F Big=F
 Leave Link  301 at Fri Feb 22 01:46:29 2013, MaxMem= 2147483648 cpu:       2.1
 (Enter /home/ztw1e12/g09/l302.exe)
 NPDir=0 NMtPBC=     1 NCelOv=     1 NCel=       1 NClECP=     1 NCelD=      1
         NCelK=      1 NCelE2=     1 NClLst=     1 CellRange=     0.0.
 One-electron integrals computed using PRISM.
 NBasis=   468 RedAO= T  NBF=   468
 NBsUse=   468 1.00D-06 NBFU=   468
 Precomputing XC quadrature grid using
 IXCGrd= 2 IRadAn=           5 IRanWt=          -1 IRanGd=           0 AccXCQ= 1.00D-10.
 NRdTot=    1842 NPtTot=      495518 NUsed=      508711 NTot=      508743
 NSgBfM=   530   530   530   530   530 NAtAll=    22    22.
 Leave Link  302 at Fri Feb 22 01:46:30 2013, MaxMem= 2147483648 cpu:      10.3
 (Enter /home/ztw1e12/g09/l303.exe)
 DipDrv:  MaxL=1.
 Leave Link  303 at Fri Feb 22 01:46:30 2013, MaxMem= 2147483648 cpu:       1.6
 (Enter /home/ztw1e12/g09/l401.exe)
 Harris functional with IExCor= 1009 diagonalized for initial guess.
 ExpMin= 1.03D-01 ExpMax= 1.53D+04 ExpMxC= 5.22D+02 IAcc=3 IRadAn=         5 AccDes= 0.00D+00
 HarFok:  IExCor= 1009 AccDes= 0.00D+00 IRadAn=         5 IDoV= 1
 ScaDFX=  1.000000  1.000000  1.000000  1.000000
 FoFCou: FMM=F IPFlag=           0 FMFlag=      100000 FMFlg1=           0
         NFxFlg=           0 DoJE=T BraDBF=F KetDBF=T FulRan=T
         Omega=  0.000000  0.000000  1.000000  0.000000  0.000000 ICntrl=     500 IOpCl=  0
         NMat0=    1 NMatS0=    1 NMatT0=    0 NMatD0=    1 NMtDS0=    0 NMtDT0=    0
         I1Cent=           4 NGrid=           0.
 Petite list used in FoFCou.
 Harris En= -495.655296293747    
 Initial guess orbital symmetries:
       Occupied  (A) (A) (A) (A) (A) (A) (A) (A) (A) (A) (A) (A)
                 (A) (A) (A) (A) (A) (A) (A) (A) (A) (A) (A) (A)
                 (A) (A) (A) (A) (A) (A) (A) (A) (A) (A) (A) (A)
                 (A) (A) (A)
       Virtual   (A) (A) (A) (A) (A) (A) (A) (A) (A) (A) (A) (A)
                 (A) (A) (A) (A) (A) (A) (A) (A) (A) (A) (A) (A)
                 (A) (A) (A) (A) (A) (A) (A) (A) (A) (A) (A) (A)
                 (A) (A) (A) (A) (A) (A) (A) (A) (A) (A) (A) (A)
                 (A) (A) (A) (A) (A) (A) (A) (A) (A) (A) (A) (A)
                 (A) (A) (A) (A) (A) (A) (A) (A) (A) (A) (A) (A)
                 (A) (A) (A) (A) (A) (A) (A) (A) (A) (A) (A) (A)
                 (A) (A) (A) (A) (A) (A) (A) (A) (A) (A) (A) (A)
                 (A) (A) (A) (A) (A) (A) (A) (A) (A) (A) (A) (A)
                 (A) (A) (A) (A) (A) (A) (A) (A) (A) (A) (A) (A)
                 (A) (A) (A) (A) (A) (A) (A) (A) (A) (A) (A) (A)
                 (A) (A) (A) (A) (A) (A) (A) (A) (A) (A) (A) (A)
                 (A) (A) (A) (A) (A) (A) (A) (A) (A) (A) (A) (A)
                 (A) (A) (A) (A) (A) (A) (A) (A) (A) (A) (A) (A)
                 (A) (A) (A) (A) (A) (A) (A) (A) (A) (A) (A) (A)
                 (A) (A) (A) (A) (A) (A) (A) (A) (A) (A) (A) (A)
                 (A) (A) (A) (A) (A) (A) (A) (A) (A) (A) (A) (A)
                 (A) (A) (A) (A) (A) (A) (A) (A) (A) (A) (A) (A)
                 (A) (A) (A) (A) (A) (A) (A) (A) (A) (A) (A) (A)
                 (A) (A) (A) (A) (A) (A) (A) (A) (A) (A) (A) (A)
                 (A) (A) (A) (A) (A) (A) (A) (A) (A) (A) (A) (A)
                 (A) (A) (A) (A) (A) (A) (A) (A) (A) (A) (A) (A)
                 (A) (A) (A) (A) (A) (A) (A) (A) (A) (A) (A) (A)
                 (A) (A) (A) (A) (A) (A) (A) (A) (A) (A) (A) (A)
                 (A) (A) (A) (A) (A) (A) (A) (A) (A) (A) (A) (A)
                 (A) (A) (A) (A) (A) (A) (A) (A) (A) (A) (A) (A)
                 (A) (A) (A) (A) (A) (A) (A) (A) (A) (A) (A) (A)
                 (A) (A) (A) (A) (A) (A) (A) (A) (A) (A) (A) (A)
                 (A) (A) (A) (A) (A) (A) (A) (A) (A) (A) (A) (A)
                 (A) (A) (A) (A) (A) (A) (A) (A) (A) (A) (A) (A)
                 (A) (A) (A) (A) (A) (A) (A) (A) (A) (A) (A) (A)
                 (A) (A) (A) (A) (A) (A) (A) (A) (A) (A) (A) (A)
                 (A) (A) (A) (A) (A) (A) (A) (A) (A) (A) (A) (A)
                 (A) (A) (A) (A) (A) (A) (A) (A) (A) (A) (A) (A)
                 (A) (A) (A) (A) (A) (A) (A) (A) (A) (A) (A) (A)
                 (A) (A) (A) (A) (A) (A) (A) (A) (A)
 The electronic state of the initial guess is 1-A.
 Leave Link  401 at Fri Feb 22 01:46:35 2013, MaxMem= 2147483648 cpu:      59.5
 (Enter /home/ztw1e12/g09/l502.exe)
 Closed shell SCF:
 Requested convergence on RMS density matrix=1.00D-08 within 128 cycles.
 Requested convergence on MAX density matrix=1.00D-06.
 Requested convergence on             energy=1.00D-06.
 No special actions if energy rises.
 Using DIIS extrapolation, IDIIS=  1040.
 Integral symmetry usage will be decided dynamically.
       508500 words used for storage of precomputed grid.
 IEnd=     1379570 IEndB=     1379570 NGot=  2147483648 MDV=  2146402149
 LenX=  2146402149 LenY=  2146120719
 Fock matrices will be formed incrementally for  20 cycles.
 Integral accuracy reduced to 1.0D-05 until final iterations.

 Cycle   1  Pass 0  IDiag  1:
 FoFCou: FMM=F IPFlag=           0 FMFlag=      100000 FMFlg1=           0
         NFxFlg=           0 DoJE=F BraDBF=F KetDBF=F FulRan=T
         Omega=  0.000000  0.000000  1.000000  0.000000  0.000000 ICntrl=       0 IOpCl=  0
         NMat0=    1 NMatS0=    1 NMatT0=    0 NMatD0=    1 NMtDS0=    0 NMtDT0=    0
         I1Cent=           0 NGrid=           0.
 Symmetry not used in FoFCou.
 E= -495.320042661992    
 DIIS: error= 2.06D-02 at cycle   1 NSaved=   1.
 NSaved= 1 IEnMin= 1 EnMin= -495.320042661992     IErMin= 1 ErrMin= 2.06D-02
 ErrMax= 2.06D-02 EMaxC= 1.00D-01 BMatC= 3.74D-01 BMatP= 3.74D-01
 IDIUse=3 WtCom= 7.94D-01 WtEn= 2.06D-01
 Coeff-Com:  0.100D+01
 Coeff-En:   0.100D+01
 Coeff:      0.100D+01
 Gap=     0.185 Goal=   None    Shift=    0.000
 GapD=    0.185 DampG=1.000 DampE=0.500 DampFc=0.5000 IDamp=-1.
 Damping current iteration by 5.00D-01
 RMSDP=2.55D-03 MaxDP=1.81D-01              OVMax= 2.09D-01

 Cycle   2  Pass 0  IDiag  1:
 RMSU=  9.03D-04    CP:  9.99D-01
 E= -495.420221442486     Delta-E=       -0.100178780495 Rises=F Damp=T
 DIIS: error= 8.37D-03 at cycle   2 NSaved=   2.
 NSaved= 2 IEnMin= 2 EnMin= -495.420221442486     IErMin= 2 ErrMin= 8.37D-03
 ErrMax= 8.37D-03 EMaxC= 1.00D-01 BMatC= 4.91D-02 BMatP= 3.74D-01
 IDIUse=3 WtCom= 9.16D-01 WtEn= 8.37D-02
 Coeff-Com:  0.210D+00 0.790D+00
 Coeff-En:   0.310D+00 0.690D+00
 Coeff:      0.218D+00 0.782D+00
 Gap=     0.259 Goal=   None    Shift=    0.000
 RMSDP=6.93D-04 MaxDP=3.01D-02 DE=-1.00D-01 OVMax= 1.75D-01

 Cycle   3  Pass 0  IDiag  1:
 RMSU=  4.49D-04    CP:  1.00D+00  7.84D-01
 E= -495.603322285619     Delta-E=       -0.183100843132 Rises=F Damp=F
 DIIS: error= 7.85D-03 at cycle   3 NSaved=   3.
 NSaved= 3 IEnMin= 3 EnMin= -495.603322285619     IErMin= 3 ErrMin= 7.85D-03
 ErrMax= 7.85D-03 EMaxC= 1.00D-01 BMatC= 4.62D-02 BMatP= 4.91D-02
 IDIUse=3 WtCom= 9.22D-01 WtEn= 7.85D-02
 Coeff-Com:  0.803D-01 0.493D+00 0.427D+00
 Coeff-En:   0.000D+00 0.000D+00 0.100D+01
 Coeff:      0.740D-01 0.454D+00 0.472D+00
 Gap=     0.242 Goal=   None    Shift=    0.000
 RMSDP=3.68D-04 MaxDP=1.63D-02 DE=-1.83D-01 OVMax= 5.41D-02

 Cycle   4  Pass 0  IDiag  1:
 RMSU=  2.28D-04    CP:  1.00D+00  8.23D-01  7.33D-01
 E= -495.637923317286     Delta-E=       -0.034601031668 Rises=F Damp=F
 DIIS: error= 1.86D-03 at cycle   4 NSaved=   4.
 NSaved= 4 IEnMin= 4 EnMin= -495.637923317286     IErMin= 4 ErrMin= 1.86D-03
 ErrMax= 1.86D-03 EMaxC= 1.00D-01 BMatC= 4.20D-03 BMatP= 4.62D-02
 IDIUse=3 WtCom= 9.81D-01 WtEn= 1.86D-02
 Coeff-Com:  0.173D-01 0.947D-01 0.247D+00 0.641D+00
 Coeff-En:   0.000D+00 0.000D+00 0.594D-01 0.941D+00
 Coeff:      0.170D-01 0.929D-01 0.243D+00 0.647D+00
 Gap=     0.240 Goal=   None    Shift=    0.000
 RMSDP=1.02D-04 MaxDP=4.06D-03 DE=-3.46D-02 OVMax= 1.42D-02

 Cycle   5  Pass 0  IDiag  1:
 RMSU=  4.27D-05    CP:  1.00D+00  8.05D-01  8.04D-01  8.01D-01
 E= -495.640819472380     Delta-E=       -0.002896155093 Rises=F Damp=F
 DIIS: error= 4.84D-04 at cycle   5 NSaved=   5.
 NSaved= 5 IEnMin= 5 EnMin= -495.640819472380     IErMin= 5 ErrMin= 4.84D-04
 ErrMax= 4.84D-04 EMaxC= 1.00D-01 BMatC= 2.90D-04 BMatP= 4.20D-03
 IDIUse=3 WtCom= 9.95D-01 WtEn= 4.84D-03
 Coeff-Com:  0.366D-02 0.907D-02 0.903D-01 0.331D+00 0.566D+00
 Coeff-En:   0.000D+00 0.000D+00 0.000D+00 0.000D+00 0.100D+01
 Coeff:      0.365D-02 0.903D-02 0.899D-01 0.330D+00 0.568D+00
 Gap=     0.238 Goal=   None    Shift=    0.000
 RMSDP=2.99D-05 MaxDP=1.24D-03 DE=-2.90D-03 OVMax= 4.09D-03

 Cycle   6  Pass 0  IDiag  1:
 RMSU=  1.31D-05    CP:  1.00D+00  8.11D-01  8.03D-01  8.37D-01  6.88D-01
 E= -495.641045528758     Delta-E=       -0.000226056378 Rises=F Damp=F
 DIIS: error= 1.25D-04 at cycle   6 NSaved=   6.
 NSaved= 6 IEnMin= 6 EnMin= -495.641045528758     IErMin= 6 ErrMin= 1.25D-04
 ErrMax= 1.25D-04 EMaxC= 1.00D-01 BMatC= 2.47D-05 BMatP= 2.90D-04
 IDIUse=3 WtCom= 9.99D-01 WtEn= 1.25D-03
 Coeff-Com:  0.303D-03-0.523D-02 0.164D-01 0.769D-01 0.270D+00 0.642D+00
 Coeff-En:   0.000D+00 0.000D+00 0.000D+00 0.000D+00 0.000D+00 0.100D+01
 Coeff:      0.303D-03-0.523D-02 0.163D-01 0.768D-01 0.270D+00 0.642D+00
 Gap=     0.238 Goal=   None    Shift=    0.000
 RMSDP=8.09D-06 MaxDP=4.90D-04 DE=-2.26D-04 OVMax= 9.17D-04

 Initial convergence to 1.0D-05 achieved.  Increase integral accuracy.
 Cycle   7  Pass 1  IDiag  1:
 E= -495.641073130554     Delta-E=       -0.000027601797 Rises=F Damp=F
 DIIS: error= 4.03D-05 at cycle   1 NSaved=   1.
 NSaved= 1 IEnMin= 1 EnMin= -495.641073130554     IErMin= 1 ErrMin= 4.03D-05
 ErrMax= 4.03D-05 EMaxC= 1.00D-01 BMatC= 3.02D-06 BMatP= 3.02D-06
 IDIUse=1 WtCom= 1.00D+00 WtEn= 0.00D+00
 Coeff-Com:  0.100D+01
 Coeff:      0.100D+01
 Gap=     0.237 Goal=   None    Shift=    0.000
 RMSDP=8.09D-06 MaxDP=4.90D-04 DE=-2.76D-05 OVMax= 6.28D-04

 Cycle   8  Pass 1  IDiag  1:
 RMSU=  6.12D-06    CP:  1.00D+00
 E= -495.641071645772     Delta-E=        0.000001484783 Rises=F Damp=F
 DIIS: error= 7.96D-05 at cycle   2 NSaved=   2.
 NSaved= 2 IEnMin= 1 EnMin= -495.641073130554     IErMin= 1 ErrMin= 4.03D-05
 ErrMax= 7.96D-05 EMaxC= 1.00D-01 BMatC= 5.14D-06 BMatP= 3.02D-06
 IDIUse=1 WtCom= 1.00D+00 WtEn= 0.00D+00
 Coeff-Com:  0.574D+00 0.426D+00
 Coeff:      0.574D+00 0.426D+00
 Gap=     0.237 Goal=   None    Shift=    0.000
 RMSDP=3.24D-06 MaxDP=1.53D-04 DE= 1.48D-06 OVMax= 5.24D-04

 Cycle   9  Pass 1  IDiag  1:
 RMSU=  2.08D-06    CP:  1.00D+00  8.44D-01
 E= -495.641075183524     Delta-E=       -0.000003537752 Rises=F Damp=F
 DIIS: error= 2.74D-05 at cycle   3 NSaved=   3.
 NSaved= 3 IEnMin= 3 EnMin= -495.641075183524     IErMin= 3 ErrMin= 2.74D-05
 ErrMax= 2.74D-05 EMaxC= 1.00D-01 BMatC= 3.71D-07 BMatP= 3.02D-06
 IDIUse=1 WtCom= 1.00D+00 WtEn= 0.00D+00
 Coeff-Com:  0.170D+00 0.230D+00 0.601D+00
 Coeff:      0.170D+00 0.230D+00 0.601D+00
 Gap=     0.238 Goal=   None    Shift=    0.000
 RMSDP=1.16D-06 MaxDP=5.40D-05 DE=-3.54D-06 OVMax= 1.98D-04

 Cycle  10  Pass 1  IDiag  1:
 RMSU=  7.45D-07    CP:  1.00D+00  8.72D-01  8.55D-01
 E= -495.641075376003     Delta-E=       -0.000000192479 Rises=F Damp=F
 DIIS: error= 8.97D-06 at cycle   4 NSaved=   4.
 NSaved= 4 IEnMin= 4 EnMin= -495.641075376003     IErMin= 4 ErrMin= 8.97D-06
 ErrMax= 8.97D-06 EMaxC= 1.00D-01 BMatC= 9.54D-08 BMatP= 3.71D-07
 IDIUse=1 WtCom= 1.00D+00 WtEn= 0.00D+00
 Coeff-Com:  0.642D-02 0.698D-01 0.389D+00 0.535D+00
 Coeff:      0.642D-02 0.698D-01 0.389D+00 0.535D+00
 Gap=     0.237 Goal=   None    Shift=    0.000
 RMSDP=5.64D-07 MaxDP=2.32D-05 DE=-1.92D-07 OVMax= 7.59D-05

 Cycle  11  Pass 1  IDiag  1:
 RMSU=  2.61D-07    CP:  1.00D+00  8.85D-01  9.09D-01  6.40D-01
 E= -495.641075449358     Delta-E=       -0.000000073356 Rises=F Damp=F
 DIIS: error= 2.10D-06 at cycle   5 NSaved=   5.
 NSaved= 5 IEnMin= 5 EnMin= -495.641075449358     IErMin= 5 ErrMin= 2.10D-06
 ErrMax= 2.10D-06 EMaxC= 1.00D-01 BMatC= 4.53D-09 BMatP= 9.54D-08
 IDIUse=1 WtCom= 1.00D+00 WtEn= 0.00D+00
 Coeff-Com: -0.543D-02 0.257D-01 0.179D+00 0.293D+00 0.508D+00
 Coeff:     -0.543D-02 0.257D-01 0.179D+00 0.293D+00 0.508D+00
 Gap=     0.237 Goal=   None    Shift=    0.000
 RMSDP=1.23D-07 MaxDP=5.35D-06 DE=-7.34D-08 OVMax= 1.64D-05

 Cycle  12  Pass 1  IDiag  1:
 RMSU=  7.97D-08    CP:  1.00D+00  8.88D-01  9.07D-01  6.73D-01  9.41D-01
 E= -495.641075453061     Delta-E=       -0.000000003702 Rises=F Damp=F
 DIIS: error= 5.51D-07 at cycle   6 NSaved=   6.
 NSaved= 6 IEnMin= 6 EnMin= -495.641075453061     IErMin= 6 ErrMin= 5.51D-07
 ErrMax= 5.51D-07 EMaxC= 1.00D-01 BMatC= 2.59D-10 BMatP= 4.53D-09
 IDIUse=1 WtCom= 1.00D+00 WtEn= 0.00D+00
 Coeff-Com: -0.327D-02 0.910D-03 0.201D-01 0.462D-01 0.211D+00 0.725D+00
 Coeff:     -0.327D-02 0.910D-03 0.201D-01 0.462D-01 0.211D+00 0.725D+00
 Gap=     0.238 Goal=   None    Shift=    0.000
 RMSDP=4.26D-08 MaxDP=2.66D-06 DE=-3.70D-09 OVMax= 2.66D-06

 Cycle  13  Pass 1  IDiag  1:
 RMSU=  1.70D-08    CP:  1.00D+00  8.89D-01  9.10D-01  6.80D-01  1.02D+00
                    CP:  1.01D+00
 E= -495.641075453236     Delta-E=       -0.000000000176 Rises=F Damp=F
 DIIS: error= 1.87D-07 at cycle   7 NSaved=   7.
 NSaved= 7 IEnMin= 7 EnMin= -495.641075453236     IErMin= 7 ErrMin= 1.87D-07
 ErrMax= 1.87D-07 EMaxC= 1.00D-01 BMatC= 5.16D-11 BMatP= 2.59D-10
 IDIUse=1 WtCom= 1.00D+00 WtEn= 0.00D+00
 Coeff-Com: -0.115D-02-0.179D-02-0.541D-02-0.212D-02 0.670D-01 0.383D+00
 Coeff-Com:  0.561D+00
 Coeff:     -0.115D-02-0.179D-02-0.541D-02-0.212D-02 0.670D-01 0.383D+00
 Coeff:      0.561D+00
 Gap=     0.238 Goal=   None    Shift=    0.000
 RMSDP=1.63D-08 MaxDP=1.23D-06 DE=-1.76D-10 OVMax= 1.97D-06

 Cycle  14  Pass 1  IDiag  1:
 RMSU=  7.12D-09    CP:  1.00D+00  8.90D-01  9.12D-01  6.86D-01  1.04D+00
                    CP:  1.04D+00  7.07D-01
 E= -495.641075453255     Delta-E=       -0.000000000019 Rises=F Damp=F
 DIIS: error= 1.12D-07 at cycle   8 NSaved=   8.
 NSaved= 8 IEnMin= 8 EnMin= -495.641075453255     IErMin= 8 ErrMin= 1.12D-07
 ErrMax= 1.12D-07 EMaxC= 1.00D-01 BMatC= 1.15D-11 BMatP= 5.16D-11
 IDIUse=1 WtCom= 1.00D+00 WtEn= 0.00D+00
 Coeff-Com: -0.294D-03-0.121D-02-0.594D-02-0.756D-02 0.134D-01 0.142D+00
 Coeff-Com:  0.362D+00 0.497D+00
 Coeff:     -0.294D-03-0.121D-02-0.594D-02-0.756D-02 0.134D-01 0.142D+00
 Coeff:      0.362D+00 0.497D+00
 Gap=     0.238 Goal=   None    Shift=    0.000
 RMSDP=6.19D-09 MaxDP=2.62D-07 DE=-1.86D-11 OVMax= 7.28D-07

 SCF Done:  E(RM06) =  -495.641075453     A.U. after   14 cycles
             Convg  =    0.6188D-08             -V/T =  2.0080
 KE= 4.917188132184D+02 PE=-2.252820482824D+03 EE= 7.172267330197D+02
 Leave Link  502 at Fri Feb 22 01:52:18 2013, MaxMem= 2147483648 cpu:    4108.2
 (Enter /home/ztw1e12/g09/l601.exe)
 Copying SCF densities to generalized density rwf, IOpCl= 0 IROHF=0.

 **********************************************************************

            Population analysis using the SCF density.

 **********************************************************************

 Orbital symmetries:
       Occupied  (A) (A) (A) (A) (A) (A) (A) (A) (A) (A) (A) (A)
                 (A) (A) (A) (A) (A) (A) (A) (A) (A) (A) (A) (A)
                 (A) (A) (A) (A) (A) (A) (A) (A) (A) (A) (A) (A)
                 (A) (A) (A)
       Virtual   (A) (A) (A) (A) (A) (A) (A) (A) (A) (A) (A) (A)
                 (A) (A) (A) (A) (A) (A) (A) (A) (A) (A) (A) (A)
                 (A) (A) (A) (A) (A) (A) (A) (A) (A) (A) (A) (A)
                 (A) (A) (A) (A) (A) (A) (A) (A) (A) (A) (A) (A)
                 (A) (A) (A) (A) (A) (A) (A) (A) (A) (A) (A) (A)
                 (A) (A) (A) (A) (A) (A) (A) (A) (A) (A) (A) (A)
                 (A) (A) (A) (A) (A) (A) (A) (A) (A) (A) (A) (A)
                 (A) (A) (A) (A) (A) (A) (A) (A) (A) (A) (A) (A)
                 (A) (A) (A) (A) (A) (A) (A) (A) (A) (A) (A) (A)
                 (A) (A) (A) (A) (A) (A) (A) (A) (A) (A) (A) (A)
                 (A) (A) (A) (A) (A) (A) (A) (A) (A) (A) (A) (A)
                 (A) (A) (A) (A) (A) (A) (A) (A) (A) (A) (A) (A)
                 (A) (A) (A) (A) (A) (A) (A) (A) (A) (A) (A) (A)
                 (A) (A) (A) (A) (A) (A) (A) (A) (A) (A) (A) (A)
                 (A) (A) (A) (A) (A) (A) (A) (A) (A) (A) (A) (A)
                 (A) (A) (A) (A) (A) (A) (A) (A) (A) (A) (A) (A)
                 (A) (A) (A) (A) (A) (A) (A) (A) (A) (A) (A) (A)
                 (A) (A) (A) (A) (A) (A) (A) (A) (A) (A) (A) (A)
                 (A) (A) (A) (A) (A) (A) (A) (A) (A) (A) (A) (A)
                 (A) (A) (A) (A) (A) (A) (A) (A) (A) (A) (A) (A)
                 (A) (A) (A) (A) (A) (A) (A) (A) (A) (A) (A) (A)
                 (A) (A) (A) (A) (A) (A) (A) (A) (A) (A) (A) (A)
                 (A) (A) (A) (A) (A) (A) (A) (A) (A) (A) (A) (A)
                 (A) (A) (A) (A) (A) (A) (A) (A) (A) (A) (A) (A)
                 (A) (A) (A) (A) (A) (A) (A) (A) (A) (A) (A) (A)
                 (A) (A) (A) (A) (A) (A) (A) (A) (A) (A) (A) (A)
                 (A) (A) (A) (A) (A) (A) (A) (A) (A) (A) (A) (A)
                 (A) (A) (A) (A) (A) (A) (A) (A) (A) (A) (A) (A)
                 (A) (A) (A) (A) (A) (A) (A) (A) (A) (A) (A) (A)
                 (A) (A) (A) (A) (A) (A) (A) (A) (A) (A) (A) (A)
                 (A) (A) (A) (A) (A) (A) (A) (A) (A) (A) (A) (A)
                 (A) (A) (A) (A) (A) (A) (A) (A) (A) (A) (A) (A)
                 (A) (A) (A) (A) (A) (A) (A) (A) (A) (A) (A) (A)
                 (A) (A) (A) (A) (A) (A) (A) (A) (A) (A) (A) (A)
                 (A) (A) (A) (A) (A) (A) (A) (A) (A) (A) (A) (A)
                 (A) (A) (A) (A) (A) (A) (A) (A) (A)
 The electronic state is 1-A.
 Alpha  occ. eigenvalues --  -19.21832 -19.20375 -14.42596 -14.41057 -10.37287
 Alpha  occ. eigenvalues --  -10.37134 -10.30170 -10.27573 -10.25596 -10.23299
 Alpha  occ. eigenvalues --   -1.06041  -1.05244  -0.94044  -0.93333  -0.79367
 Alpha  occ. eigenvalues --   -0.75636  -0.71228  -0.66714  -0.58708  -0.58251
 Alpha  occ. eigenvalues --   -0.54491  -0.51763  -0.49575  -0.47207  -0.46984
 Alpha  occ. eigenvalues --   -0.46351  -0.45306  -0.44127  -0.42651  -0.41705
 Alpha  occ. eigenvalues --   -0.41481  -0.40831  -0.39563  -0.37710  -0.36584
 Alpha  occ. eigenvalues --   -0.30476  -0.29157  -0.27787  -0.27440
 Alpha virt. eigenvalues --   -0.03690  -0.01092   0.01607   0.03248   0.05326
 Alpha virt. eigenvalues --    0.06470   0.07610   0.08736   0.09983   0.10124
 Alpha virt. eigenvalues --    0.10808   0.11774   0.12577   0.13756   0.14399
 Alpha virt. eigenvalues --    0.15851   0.16745   0.17969   0.19113   0.22225
 Alpha virt. eigenvalues --    0.23568   0.24711   0.25732   0.26381   0.27041
 Alpha virt. eigenvalues --    0.27587   0.28553   0.29531   0.29982   0.33385
 Alpha virt. eigenvalues --    0.33763   0.34803   0.35903   0.36056   0.36436
 Alpha virt. eigenvalues --    0.37540   0.39086   0.39927   0.40231   0.40502
 Alpha virt. eigenvalues --    0.41129   0.41466   0.42061   0.42722   0.43665
 Alpha virt. eigenvalues --    0.44154   0.44930   0.45657   0.46434   0.46743
 Alpha virt. eigenvalues --    0.48308   0.49059   0.50191   0.50816   0.52076
 Alpha virt. eigenvalues --    0.53037   0.53845   0.54653   0.56874   0.57622
 Alpha virt. eigenvalues --    0.59867   0.60068   0.61807   0.63080   0.65161
 Alpha virt. eigenvalues --    0.66377   0.67368   0.68706   0.71882   0.73125
 Alpha virt. eigenvalues --    0.74983   0.75531   0.76940   0.78411   0.80383
 Alpha virt. eigenvalues --    0.80887   0.81832   0.83106   0.84515   0.85690
 Alpha virt. eigenvalues --    0.87322   0.87559   0.89526   0.90631   0.91465
 Alpha virt. eigenvalues --    0.92954   0.93693   0.94985   0.95804   0.96794
 Alpha virt. eigenvalues --    0.97374   0.99175   0.99323   1.00034   1.01141
 Alpha virt. eigenvalues --    1.03885   1.04281   1.05540   1.07038   1.09293
 Alpha virt. eigenvalues --    1.09807   1.11527   1.12779   1.13594   1.14391
 Alpha virt. eigenvalues --    1.14469   1.15503   1.16342   1.17965   1.19515
 Alpha virt. eigenvalues --    1.19715   1.22240   1.22661   1.22899   1.24142
 Alpha virt. eigenvalues --    1.25437   1.26032   1.26630   1.27858   1.27937
 Alpha virt. eigenvalues --    1.28490   1.29138   1.29472   1.31297   1.36141
 Alpha virt. eigenvalues --    1.37836   1.38929   1.39723   1.41857   1.43586
 Alpha virt. eigenvalues --    1.44437   1.45818   1.46581   1.47279   1.48841
 Alpha virt. eigenvalues --    1.51998   1.52510   1.55618   1.55727   1.58836
 Alpha virt. eigenvalues --    1.61484   1.63101   1.65281   1.67276   1.69418
 Alpha virt. eigenvalues --    1.72025   1.73259   1.76285   1.78323   1.81730
 Alpha virt. eigenvalues --    1.83148   1.86397   1.88928   1.90161   1.97330
 Alpha virt. eigenvalues --    2.00949   2.04516   2.08964   2.10810   2.14449
 Alpha virt. eigenvalues --    2.15449   2.17904   2.20018   2.20412   2.22112
 Alpha virt. eigenvalues --    2.23809   2.25422   2.28147   2.31438   2.32789
 Alpha virt. eigenvalues --    2.36595   2.37980   2.38724   2.41753   2.42395
 Alpha virt. eigenvalues --    2.47195   2.48350   2.50122   2.50378   2.52513
 Alpha virt. eigenvalues --    2.54695   2.55891   2.56993   2.60186   2.61505
 Alpha virt. eigenvalues --    2.62483   2.63791   2.67557   2.68581   2.69342
 Alpha virt. eigenvalues --    2.70525   2.70835   2.71815   2.72589   2.73350
 Alpha virt. eigenvalues --    2.74264   2.74602   2.75658   2.77196   2.78934
 Alpha virt. eigenvalues --    2.80217   2.81152   2.83894   2.84164   2.85629
 Alpha virt. eigenvalues --    2.87764   2.89362   2.90098   2.91984   2.93847
 Alpha virt. eigenvalues --    2.94924   2.96021   2.96581   2.98201   2.98426
 Alpha virt. eigenvalues --    3.00667   3.01015   3.02329   3.03189   3.03854
 Alpha virt. eigenvalues --    3.04616   3.05799   3.07255   3.09306   3.10035
 Alpha virt. eigenvalues --    3.10345   3.10588   3.12437   3.14223   3.15895
 Alpha virt. eigenvalues --    3.18781   3.19599   3.21033   3.21457   3.24101
 Alpha virt. eigenvalues --    3.24540   3.26245   3.28042   3.28455   3.29821
 Alpha virt. eigenvalues --    3.30642   3.33568   3.34373   3.35443   3.35748
 Alpha virt. eigenvalues --    3.36730   3.37280   3.39408   3.41100   3.41614
 Alpha virt. eigenvalues --    3.42210   3.42679   3.44346   3.44964   3.46371
 Alpha virt. eigenvalues --    3.47343   3.48049   3.48410   3.49538   3.52031
 Alpha virt. eigenvalues --    3.54955   3.56263   3.56620   3.59498   3.62093
 Alpha virt. eigenvalues --    3.63078   3.64532   3.65780   3.67854   3.70352
 Alpha virt. eigenvalues --    3.71136   3.72701   3.73750   3.74691   3.75853
 Alpha virt. eigenvalues --    3.77057   3.78395   3.79468   3.80100   3.81199
 Alpha virt. eigenvalues --    3.81662   3.83714   3.84885   3.85398   3.87830
 Alpha virt. eigenvalues --    3.88942   3.89282   3.91347   3.93714   3.94469
 Alpha virt. eigenvalues --    3.97039   3.98964   4.00489   4.00753   4.02003
 Alpha virt. eigenvalues --    4.02755   4.05697   4.06345   4.07360   4.08260
 Alpha virt. eigenvalues --    4.10511   4.11142   4.12158   4.13685   4.13952
 Alpha virt. eigenvalues --    4.16189   4.18102   4.18152   4.20526   4.21430
 Alpha virt. eigenvalues --    4.22407   4.23781   4.24605   4.25486   4.27568
 Alpha virt. eigenvalues --    4.29861   4.30938   4.32413   4.33364   4.34238
 Alpha virt. eigenvalues --    4.36485   4.38709   4.40831   4.45783   4.47118
 Alpha virt. eigenvalues --    4.48662   4.51338   4.52507   4.58808   4.60529
 Alpha virt. eigenvalues --    4.62388   4.70507   4.73433   4.74585   4.76636
 Alpha virt. eigenvalues --    4.76858   4.77704   4.80539   4.82065   4.82828
 Alpha virt. eigenvalues --    4.83687   4.85339   4.86905   4.89214   4.90550
 Alpha virt. eigenvalues --    4.94585   4.94966   4.97429   4.97994   4.99153
 Alpha virt. eigenvalues --    5.03025   5.04361   5.05182   5.05761   5.07246
 Alpha virt. eigenvalues --    5.07586   5.08706   5.09417   5.11115   5.12709
 Alpha virt. eigenvalues --    5.15095   5.16123   5.16812   5.17476   5.18489
 Alpha virt. eigenvalues --    5.18814   5.20123   5.21812   5.23573   5.24414
 Alpha virt. eigenvalues --    5.24708   5.25828   5.27077   5.29467   5.31075
 Alpha virt. eigenvalues --    5.31944   5.34108   5.38479   5.40836   5.44702
 Alpha virt. eigenvalues --    5.51924   5.55236   5.56170   5.57591   5.60157
 Alpha virt. eigenvalues --    5.61145   5.64981   5.68508   5.71884   5.74213
 Alpha virt. eigenvalues --    5.75327   5.75993   5.76811   5.77537   5.80161
 Alpha virt. eigenvalues --    5.84193   5.85555   5.88466   5.90116   5.93532
 Alpha virt. eigenvalues --    5.95978   6.08591   6.10602   6.14857   6.17835
 Alpha virt. eigenvalues --    6.39150   6.42022   6.46494   6.50684   6.53464
 Alpha virt. eigenvalues --    6.56214   6.59102   6.62188   6.86790   6.87011
 Alpha virt. eigenvalues --    7.02934   7.05145   7.06511   7.08833   8.76912
 Alpha virt. eigenvalues --    9.00926  11.63485  11.64860  11.98545  12.23715
 Alpha virt. eigenvalues --   12.26691  13.44587  13.62550  13.87312
          Condensed to atoms (all electrons):
              1          2          3          4          5          6
     1  C    4.757195   0.676740  -0.051281   0.001785   0.003796  -0.002737
     2  O    0.676740   7.801379  -0.003851   0.005742  -0.000190  -0.000423
     3  C   -0.051281  -0.003851   4.825053   0.398407   0.406161   0.388596
     4  H    0.001785   0.005742   0.398407   0.570118  -0.018041  -0.053126
     5  H    0.003796  -0.000190   0.406161  -0.018041   0.563539  -0.033934
     6  H   -0.002737  -0.000423   0.388596  -0.053126  -0.033934   0.671703
     7  N    0.303417  -0.085377   0.272870  -0.035748  -0.020833  -0.064709
     8  H   -0.030930   0.004525  -0.026228   0.008353  -0.006553  -0.011921
     9  C    0.190789  -0.093251  -0.000138   0.001068  -0.000828   0.008176
    10  H   -0.049036   0.002155   0.000516  -0.000253  -0.000089  -0.001027
    11  N   -0.040154  -0.000472   0.000176   0.000136   0.000034  -0.001254
    12  H    0.003355   0.012196  -0.000108  -0.000221   0.000035   0.000337
    13  C    0.005494   0.000138  -0.000007   0.000019  -0.000001  -0.000035
    14  O    0.001623  -0.000023  -0.000006   0.000001   0.000000  -0.000056
    15  C   -0.000187  -0.000083  -0.000011   0.000002   0.000000  -0.000037
    16  H   -0.000279  -0.000041   0.000012   0.000002   0.000000   0.000022
    17  H   -0.000035   0.000000  -0.000001   0.000000   0.000000   0.000007
    18  H    0.000007  -0.000001   0.000000   0.000000   0.000000   0.000000
    19  C   -0.031157  -0.000993   0.000405  -0.000051   0.000027   0.000047
    20  H   -0.004983   0.004838   0.000028  -0.000018   0.000002  -0.000028
    21  H    0.006174  -0.000332  -0.000016   0.000003  -0.000002   0.000031
    22  H   -0.009122   0.000255  -0.000161  -0.000003   0.000004  -0.000113
              7          8          9         10         11         12
     1  C    0.303417  -0.030930   0.190789  -0.049036  -0.040154   0.003355
     2  O   -0.085377   0.004525  -0.093251   0.002155  -0.000472   0.012196
     3  C    0.272870  -0.026228  -0.000138   0.000516   0.000176  -0.000108
     4  H   -0.035748   0.008353   0.001068  -0.000253   0.000136  -0.000221
     5  H   -0.020833  -0.006553  -0.000828  -0.000089   0.000034   0.000035
     6  H   -0.064709  -0.011921   0.008176  -0.001027  -0.001254   0.000337
     7  N    6.547192   0.368495  -0.103126   0.004793   0.005592   0.001474
     8  H    0.368495   0.583194   0.013056  -0.000652   0.000456  -0.000117
     9  C   -0.103126   0.013056   5.410838   0.431669   0.259561  -0.043838
    10  H    0.004793  -0.000652   0.431669   0.489915  -0.053249  -0.004603
    11  N    0.005592   0.000456   0.259561  -0.053249   6.497004   0.377198
    12  H    0.001474  -0.000117  -0.043838  -0.004603   0.377198   0.543118
    13  C   -0.000012   0.000030  -0.055697  -0.007802   0.328593  -0.005959
    14  O   -0.000020   0.000006   0.002796   0.020615  -0.099386   0.003047
    15  C    0.000005   0.000003   0.003264   0.003642  -0.056374  -0.006856
    16  H    0.000000   0.000001   0.000380  -0.000779   0.005288   0.002144
    17  H   -0.000001   0.000000  -0.000096   0.000243   0.004004  -0.000722
    18  H    0.000000   0.000000   0.000057  -0.000062   0.001105   0.000383
    19  C    0.001597  -0.001650   0.231500  -0.046668  -0.035651   0.007863
    20  H    0.001930  -0.000333  -0.037304   0.007996   0.002640  -0.000133
    21  H   -0.000504  -0.000007  -0.022533  -0.006398  -0.008699  -0.000159
    22  H    0.000180   0.002063  -0.032196  -0.000617   0.006110  -0.000392
             13         14         15         16         17         18
     1  C    0.005494   0.001623  -0.000187  -0.000279  -0.000035   0.000007
     2  O    0.000138  -0.000023  -0.000083  -0.000041   0.000000  -0.000001
     3  C   -0.000007  -0.000006  -0.000011   0.000012  -0.000001   0.000000
     4  H    0.000019   0.000001   0.000002   0.000002   0.000000   0.000000
     5  H   -0.000001   0.000000   0.000000   0.000000   0.000000   0.000000
     6  H   -0.000035  -0.000056  -0.000037   0.000022   0.000007   0.000000
     7  N   -0.000012  -0.000020   0.000005   0.000000  -0.000001   0.000000
     8  H    0.000030   0.000006   0.000003   0.000001   0.000000   0.000000
     9  C   -0.055697   0.002796   0.003264   0.000380  -0.000096   0.000057
    10  H   -0.007802   0.020615   0.003642  -0.000779   0.000243  -0.000062
    11  N    0.328593  -0.099386  -0.056374   0.005288   0.004004   0.001105
    12  H   -0.005959   0.003047  -0.006856   0.002144  -0.000722   0.000383
    13  C    4.590026   0.647837   0.286840  -0.040419  -0.032582  -0.021151
    14  O    0.647837   7.861152  -0.058435   0.003195   0.005612  -0.000176
    15  C    0.286840  -0.058435   4.910697   0.387766   0.397705   0.385704
    16  H   -0.040419   0.003195   0.387766   0.607650  -0.029323  -0.028521
    17  H   -0.032582   0.005612   0.397705  -0.029323   0.558278  -0.018896
    18  H   -0.021151  -0.000176   0.385704  -0.028521  -0.018896   0.563519
    19  C   -0.004224  -0.026034  -0.001381   0.000133  -0.000002   0.000046
    20  H   -0.000428   0.000390   0.000117  -0.000016   0.000004  -0.000007
    21  H   -0.002215   0.021785   0.000806  -0.000056  -0.000018  -0.000066
    22  H    0.000952   0.000334   0.000061  -0.000003  -0.000001  -0.000004
             19         20         21         22
     1  C   -0.031157  -0.004983   0.006174  -0.009122
     2  O   -0.000993   0.004838  -0.000332   0.000255
     3  C    0.000405   0.000028  -0.000016  -0.000161
     4  H   -0.000051  -0.000018   0.000003  -0.000003
     5  H    0.000027   0.000002  -0.000002   0.000004
     6  H    0.000047  -0.000028   0.000031  -0.000113
     7  N    0.001597   0.001930  -0.000504   0.000180
     8  H   -0.001650  -0.000333  -0.000007   0.002063
     9  C    0.231500  -0.037304  -0.022533  -0.032196
    10  H   -0.046668   0.007996  -0.006398  -0.000617
    11  N   -0.035651   0.002640  -0.008699   0.006110
    12  H    0.007863  -0.000133  -0.000159  -0.000392
    13  C   -0.004224  -0.000428  -0.002215   0.000952
    14  O   -0.026034   0.000390   0.021785   0.000334
    15  C   -0.001381   0.000117   0.000806   0.000061
    16  H    0.000133  -0.000016  -0.000056  -0.000003
    17  H   -0.000002   0.000004  -0.000018  -0.000001
    18  H    0.000046  -0.000007  -0.000066  -0.000004
    19  C    5.071372   0.392458   0.401199   0.393190
    20  H    0.392458   0.541203  -0.022411  -0.025293
    21  H    0.401199  -0.022411   0.495565  -0.019842
    22  H    0.393190  -0.025293  -0.019842   0.560647
 Mulliken atomic charges:
              1
     1  C    0.269524
     2  O   -0.322931
     3  C   -0.210417
     4  H    0.121825
     5  H    0.106873
     6  H    0.100481
     7  N   -0.197214
     8  H    0.098209
     9  C   -0.164148
    10  H    0.209692
    11  N   -0.192657
    12  H    0.111958
    13  C    0.310603
    14  O   -0.384255
    15  C   -0.253246
    16  H    0.092843
    17  H    0.115824
    18  H    0.118063
    19  C   -0.352024
    20  H    0.139352
    21  H    0.157694
    22  H    0.123950
 Sum of Mulliken atomic charges =   0.00000
 Mulliken charges with hydrogens summed into heavy atoms:
              1
     1  C    0.269524
     2  O   -0.322931
     3  C    0.118762
     7  N   -0.099005
     9  C    0.045544
    11  N   -0.080699
    13  C    0.310603
    14  O   -0.384255
    15  C    0.073484
    19  C    0.068972
 Sum of Mulliken charges with hydrogens summed into heavy atoms =   0.00000
 Electronic spatial extent (au):  <R**2>=           1850.3827
 Charge=              0.0000 electrons
 Dipole moment (field-independent basis, Debye):
    X=              0.2464    Y=             -2.3947    Z=             -1.9793  Tot=              3.1166
 Quadrupole moment (field-independent basis, Debye-Ang):
   XX=            -63.2050   YY=            -55.3778   ZZ=            -66.3537
   XY=             -4.4273   XZ=             12.7038   YZ=              0.3497
 Traceless Quadrupole moment (field-independent basis, Debye-Ang):
   XX=             -1.5595   YY=              6.2677   ZZ=             -4.7082
   XY=             -4.4273   XZ=             12.7038   YZ=              0.3497
 Octapole moment (field-independent basis, Debye-Ang**2):
  XXX=             19.3184  YYY=             -1.3957  ZZZ=             -8.7823  XYY=             -2.8235
  XXY=            -22.4587  XXZ=             -4.7612  XZZ=             -3.0863  YZZ=             -2.0265
  YYZ=              1.6838  XYZ=              2.0534
 Hexadecapole moment (field-independent basis, Debye-Ang**3):
 XXXX=          -1598.9241 YYYY=           -480.0440 ZZZZ=           -317.1165 XXXY=            -16.4374
 XXXZ=             78.7038 YYYX=              4.9983 YYYZ=             -4.8619 ZZZX=             18.4684
 ZZZY=             -1.2027 XXYY=           -324.0119 XXZZ=           -323.8364 YYZZ=           -126.4745
 XXYZ=             11.8853 YYXZ=             -0.3880 ZZXY=             -7.1714
 N-N= 5.482338611323D+02 E-N=-2.252820473047D+03  KE= 4.917188132184D+02
 No NMR shielding tensors so no spin-rotation constants.
 Leave Link  601 at Fri Feb 22 01:52:19 2013, MaxMem= 2147483648 cpu:       6.4
 (Enter /home/ztw1e12/g09/l701.exe)
 Compute integral first derivatives.
 ... and contract with generalized density number  0.
 Leave Link  701 at Fri Feb 22 01:52:19 2013, MaxMem= 2147483648 cpu:       5.0
 (Enter /home/ztw1e12/g09/l702.exe)
 L702 exits ... SP integral derivatives will be done elsewhere.
 Leave Link  702 at Fri Feb 22 01:52:19 2013, MaxMem= 2147483648 cpu:       0.3
 (Enter /home/ztw1e12/g09/l703.exe)
 Compute integral first derivatives, UseDBF=F ICtDFT=           0.
 Integral derivatives from FoFDir, PRISM(SPDF).
 Calling FoFJK, ICntrl=      2127 FMM=F ISym2X=0 I1Cent= 0 IOpClX= 0 NMat=1 NMatS=1 NMatT=0.
 FoFCou: FMM=F IPFlag=           0 FMFlag=      100000 FMFlg1=         800
         NFxFlg=           0 DoJE=F BraDBF=F KetDBF=F FulRan=T
         Omega=  0.000000  0.000000  1.000000  0.000000  0.000000 ICntrl=    2127 IOpCl=  0
         NMat0=    1 NMatS0=    1 NMatT0=    0 NMatD0=    1 NMtDS0=    0 NMtDT0=    0
         I1Cent=           0 NGrid=           0.
 Symmetry not used in FoFCou.
 Leave Link  703 at Fri Feb 22 01:53:46 2013, MaxMem= 2147483648 cpu:    1040.8
 (Enter /home/ztw1e12/g09/l716.exe)
 Dipole        = 9.69391122D-02-9.42144628D-01-7.78727841D-01
 ***** Axes restored to original set *****
 -------------------------------------------------------------------
 Center     Atomic                   Forces (Hartrees/Bohr)
 Number     Number              X              Y              Z
 -------------------------------------------------------------------
      1        6          -0.023484375   -0.065022123   -0.022962955
      2        8           0.023522050    0.083379669    0.010534472
      3        6          -0.016619788   -0.002251725    0.010740645
      4        1           0.001887865   -0.010755120   -0.005985409
      5        1          -0.001830968    0.007423191   -0.009135951
      6        1           0.018069551    0.005721748    0.004692388
      7        7           0.006667421   -0.032483663    0.022944413
      8        1           0.000052113    0.011565474    0.007054284
      9        6          -0.028083125   -0.016844483   -0.001423231
     10        1           0.007725763    0.015465025   -0.002351034
     11        7           0.043785163    0.036881316    0.028669685
     12        1           0.002351883   -0.014580146   -0.005491962
     13        6          -0.026017365    0.045706178    0.021229519
     14        8           0.015685223   -0.065207990   -0.037383842
     15        6          -0.034922305    0.009176103   -0.013600732
     16        1           0.005345026   -0.009787430   -0.009362554
     17        1           0.004715979    0.009387406    0.003710603
     18        1          -0.000913386   -0.008858085    0.009435250
     19        6           0.014818727   -0.002695781   -0.016352034
     20        1          -0.007586565   -0.011268735    0.000142139
     21        1           0.004682454    0.004026319    0.008836461
     22        1          -0.009851342    0.011022852   -0.003940153
 -------------------------------------------------------------------
 Cartesian Forces:  Max     0.083379669 RMS     0.022586091
 Leave Link  716 at Fri Feb 22 01:53:47 2013, MaxMem= 2147483648 cpu:       0.4
 (Enter /home/ztw1e12/g09/l103.exe)

 GradGradGradGradGradGradGradGradGradGradGradGradGradGradGradGradGradGrad
 Berny optimization.
 Internal  Forces:  Max     0.086901850 RMS     0.015211066
 Search for a local minimum.
 Step number   1 out of a maximum of  108
 All quantities printed in internal units (Hartrees-Bohrs-Radians)
 RMS Force = .15211D-01 SwitMx=.10000D-02 MixMth= 1
 Mixed Optimization -- RFO/linear search
 Second derivative matrix not updated -- first step.
     Eigenvalues ---    0.00237   0.00237   0.00237   0.00448   0.00448
     Eigenvalues ---    0.00766   0.00766   0.00766   0.00766   0.03399
     Eigenvalues ---    0.03399   0.04828   0.05056   0.05720   0.05720
     Eigenvalues ---    0.06194   0.07243   0.07243   0.07537   0.07537
     Eigenvalues ---    0.11287   0.11287   0.16000   0.16000   0.16000
     Eigenvalues ---    0.16000   0.16000   0.16000   0.16000   0.16000
     Eigenvalues ---    0.16000   0.16855   0.17980   0.23464   0.23464
     Eigenvalues ---    0.25000   0.25000   0.25000   0.25000   0.28519
     Eigenvalues ---    0.28519   0.28519   0.35740   0.35740   0.35740
     Eigenvalues ---    0.35740   0.37230   0.37230   0.37230   0.37230
     Eigenvalues ---    0.37230   0.37230   0.37230   0.37230   0.37230
     Eigenvalues ---    0.37230   0.47688   0.47688   0.80209   0.80209
     Eigenvalues --- 1000.000001000.000001000.000001000.000001000.00000
     Eigenvalues --- 1000.000001000.000001000.000001000.000001000.00000
     Eigenvalues --- 1000.000001000.000001000.000001000.000001000.00000
     Eigenvalues --- 1000.000001000.000001000.000001000.000001000.00000
     Eigenvalues --- 1000.000001000.000001000.000001000.000001000.00000
     Eigenvalues --- 1000.000001000.000001000.000001000.000001000.00000
     Eigenvalues --- 1000.000001000.000001000.000001000.000001000.00000
     Eigenvalues --- 1000.000001000.000001000.00000
 RFO step:  Lambda=-4.61009028D-02 EMin= 2.36824037D-03
 Linear search not attempted -- first point.
 Maximum step size (   0.300) exceeded in Quadratic search.
    -- Step size scaled by   0.710
 Iteration  1 RMS(Cart)=  0.08283911 RMS(Int)=  0.00257020
 Iteration  2 RMS(Cart)=  0.00455568 RMS(Int)=  0.00042101
 Iteration  3 RMS(Cart)=  0.00000765 RMS(Int)=  0.00042098
 Iteration  4 RMS(Cart)=  0.00000000 RMS(Int)=  0.00042098
 Variable       Old X    -DE/DX   Delta X   Delta X   Delta X     New X
                                 (Linear)    (Quad)   (Total)
    R1        2.37803  -0.08690   0.00000  -0.07277  -0.07277   2.30526
    R2        2.77790  -0.03714   0.00000  -0.06538  -0.06538   2.71252
    R3        2.91018  -0.01815   0.00000  -0.03892  -0.03892   2.87126
    R4        2.02201   0.01238   0.00000   0.02102   0.02102   2.04303
    R5        2.02201   0.01188   0.00000   0.02017   0.02017   2.04217
    R6        2.02201   0.01807   0.00000   0.03068   0.03068   2.05269
    R7        2.77790   0.00110   0.00000   0.00193   0.00193   2.77983
    R8        1.88973   0.01309   0.00000   0.01777   0.01777   1.90750
    R9        2.02201   0.01724   0.00000   0.02926   0.02926   2.05127
   R10        2.77790   0.00231   0.00000   0.00406   0.00406   2.78196
   R11        2.91018  -0.00822   0.00000  -0.01762  -0.01762   2.89256
   R12        1.88973   0.01244   0.00000   0.01690   0.01690   1.90663
   R13        2.77790  -0.04831   0.00000  -0.08503  -0.08503   2.69287
   R14        2.37803  -0.07678   0.00000  -0.06429  -0.06429   2.31374
   R15        2.91018  -0.02379   0.00000  -0.05100  -0.05100   2.85918
   R16        2.02201   0.01395   0.00000   0.02368   0.02368   2.04569
   R17        2.02201   0.01044   0.00000   0.01772   0.01772   2.03973
   R18        2.02201   0.01296   0.00000   0.02200   0.02200   2.04401
   R19        2.02201   0.01351   0.00000   0.02293   0.02293   2.04494
   R20        2.02201   0.01068   0.00000   0.01812   0.01812   2.04013
   R21        2.02201   0.01507   0.00000   0.02558   0.02558   2.04759
    A1        2.09440   0.00397   0.00000   0.00952   0.00950   2.10390
    A2        2.09440   0.00919   0.00000   0.02205   0.02203   2.11642
    A3        2.09440  -0.01316   0.00000  -0.03157  -0.03159   2.06281
    A4        1.91063  -0.00096   0.00000  -0.00929  -0.00944   1.90120
    A5        1.91063  -0.00290   0.00000  -0.00695  -0.00699   1.90364
    A6        1.91063  -0.00277   0.00000  -0.01103  -0.01112   1.89951
    A7        1.91063  -0.00354   0.00000  -0.00926  -0.00936   1.90127
    A8        1.91063  -0.00156   0.00000  -0.00689  -0.00702   1.90361
    A9        1.91063   0.01173   0.00000   0.04341   0.04334   1.95397
   A10        1.91063   0.00536   0.00000   0.01450   0.01447   1.92511
   A11        1.91063  -0.00301   0.00000  -0.00854  -0.00863   1.90200
   A12        1.91063   0.00078   0.00000   0.00796   0.00797   1.91861
   A13        1.91063   0.00091   0.00000  -0.00236  -0.00239   1.90824
   A14        1.91063  -0.00235   0.00000  -0.00959  -0.00949   1.90115
   A15        1.91063  -0.00367   0.00000  -0.01588  -0.01587   1.89476
   A16        1.91063   0.00128   0.00000   0.01500   0.01495   1.92558
   A17        1.91063  -0.00099   0.00000  -0.00277  -0.00300   1.90764
   A18        1.91063   0.00481   0.00000   0.01560   0.01548   1.92612
   A19        1.91063   0.00117   0.00000   0.03335   0.03183   1.94247
   A20        1.91063   0.02470   0.00000   0.07147   0.06987   1.98050
   A21        1.91063  -0.00773   0.00000  -0.00332  -0.00624   1.90439
   A22        2.09440   0.01084   0.00000   0.02601   0.02594   2.12033
   A23        2.09440  -0.01942   0.00000  -0.04657  -0.04665   2.04775
   A24        2.09440   0.00857   0.00000   0.02056   0.02049   2.11488
   A25        1.91063   0.00648   0.00000   0.02443   0.02446   1.93509
   A26        1.91063  -0.00586   0.00000  -0.02065  -0.02066   1.88997
   A27        1.91063  -0.00020   0.00000  -0.00236  -0.00243   1.90820
   A28        1.91063   0.00132   0.00000   0.00787   0.00797   1.91860
   A29        1.91063  -0.00269   0.00000  -0.00838  -0.00841   1.90222
   A30        1.91063   0.00096   0.00000  -0.00091  -0.00103   1.90960
   A31        1.91063  -0.00200   0.00000  -0.00703  -0.00703   1.90360
   A32        1.91063  -0.00167   0.00000  -0.00583  -0.00583   1.90480
   A33        1.91063   0.00425   0.00000   0.01486   0.01488   1.92552
   A34        1.91063   0.00166   0.00000   0.00527   0.00525   1.91588
   A35        1.91063  -0.00106   0.00000  -0.00349  -0.00347   1.90717
   A36        1.91063  -0.00118   0.00000  -0.00379  -0.00377   1.90686
    D1       -1.57080   0.00592   0.00000   0.06945   0.06939  -1.50141
    D2        2.61799   0.00353   0.00000   0.05604   0.05605   2.67404
    D3        1.57080   0.00514   0.00000   0.05842   0.05841   1.62920
    D4       -0.52360   0.00274   0.00000   0.04501   0.04507  -0.47853
    D5        2.61799  -0.00096   0.00000  -0.02278  -0.02280   2.59519
    D6        0.52360  -0.00165   0.00000  -0.03384  -0.03381   0.48978
    D7       -1.57080  -0.00386   0.00000  -0.03735  -0.03741  -1.60820
    D8       -0.52360  -0.00017   0.00000  -0.01175  -0.01174  -0.53534
    D9       -2.61799  -0.00086   0.00000  -0.02281  -0.02275  -2.64075
   D10        1.57080  -0.00307   0.00000  -0.02632  -0.02634   1.54445
   D11        1.04720   0.00193   0.00000   0.01026   0.01017   1.05737
   D12        3.14159   0.00201   0.00000   0.01356   0.01355  -3.12805
   D13        3.14159  -0.00189   0.00000  -0.01209  -0.01210   3.12949
   D14       -1.04720  -0.00181   0.00000  -0.00879  -0.00873  -1.05593
   D15       -1.04720   0.00000   0.00000  -0.00106  -0.00107  -1.04827
   D16        1.04720   0.00007   0.00000   0.00224   0.00230   1.04950
   D17        0.58242  -0.00423   0.00000  -0.05367  -0.05444   0.52797
   D18        2.67681   0.00214   0.00000   0.00645   0.00723   2.68404
   D19       -1.51198  -0.00470   0.00000  -0.05409  -0.05477  -1.56675
   D20        0.58242   0.00168   0.00000   0.00603   0.00691   0.58932
   D21        2.67681  -0.00722   0.00000  -0.06944  -0.07032   2.60650
   D22       -1.51198  -0.00085   0.00000  -0.00932  -0.00864  -1.52062
   D23        1.04720   0.00002   0.00000   0.00247   0.00240   1.04960
   D24       -3.14159  -0.00019   0.00000   0.00105   0.00101  -3.14058
   D25       -1.04720  -0.00006   0.00000   0.00194   0.00189  -1.04530
   D26        3.14159  -0.00172   0.00000  -0.01184  -0.01183   3.12977
   D27       -1.04720  -0.00193   0.00000  -0.01326  -0.01322  -1.06042
   D28        1.04720  -0.00180   0.00000  -0.01237  -0.01234   1.03486
   D29       -1.04720   0.00219   0.00000   0.01439   0.01440  -1.03280
   D30        1.04720   0.00199   0.00000   0.01297   0.01301   1.06020
   D31        3.14159   0.00212   0.00000   0.01386   0.01389  -3.12770
   D32        0.52360  -0.00750   0.00000  -0.06164  -0.06151   0.46209
   D33       -2.61799  -0.00909   0.00000  -0.08396  -0.08387  -2.70186
   D34        2.61799   0.00432   0.00000   0.02094   0.02084   2.63884
   D35       -0.52360   0.00273   0.00000  -0.00138  -0.00152  -0.52512
   D36        0.52360   0.00034   0.00000   0.00866   0.00870   0.53230
   D37        2.61799   0.00233   0.00000   0.02061   0.02051   2.63850
   D38       -1.57080  -0.00020   0.00000   0.00541   0.00543  -1.56536
   D39       -2.61799  -0.00125   0.00000  -0.01366  -0.01359  -2.63158
   D40       -0.52360   0.00074   0.00000  -0.00171  -0.00178  -0.52538
   D41        1.57080  -0.00179   0.00000  -0.01691  -0.01686   1.55394
         Item               Value     Threshold  Converged?
 Maximum Force            0.086902     0.000015     NO 
 RMS     Force            0.015211     0.000010     NO 
 Maximum Displacement     0.296683     0.000060     NO 
 RMS     Displacement     0.082912     0.000040     NO 
 Predicted change in Energy=-2.321665D-02
 GradGradGradGradGradGradGradGradGradGradGradGradGradGradGradGradGradGrad

 Leave Link  103 at Fri Feb 22 01:53:47 2013, MaxMem= 2147483648 cpu:       2.1
 (Enter /home/ztw1e12/g09/l202.exe)
                          Input orientation:                          
 ---------------------------------------------------------------------
 Center     Atomic      Atomic             Coordinates (Angstroms)
 Number     Number       Type             X           Y           Z
 ---------------------------------------------------------------------
      1          6           0       -2.326097    1.019482   -1.290194
      2          8           0       -2.473134   -0.171180   -1.511183
      3          6           0       -1.445077    2.188899   -3.173198
      4          1           0       -1.199571    1.248998   -3.647694
      5          1           0       -1.689207    2.913794   -3.936596
      6          1           0       -0.581911    2.541181   -2.615750
      7          7           0       -2.616652    1.991266   -2.305870
      8          1           0       -2.868318    2.863049   -1.863654
      9          6           0       -1.819561    1.515351    0.053726
     10          1           0       -1.252765    2.429725   -0.090981
     11          7           0       -0.968609    0.476128    0.656320
     12          1           0       -0.502552   -0.071625   -0.051298
     13          6           0        0.003017    0.992634    1.561747
     14          8           0       -0.176105    2.046076    2.159473
     15          6           0        1.255308    0.171871    1.779273
     16          1           0        1.507675   -0.390013    0.889064
     17          1           0        2.061424    0.844142    2.030845
     18          1           0        1.093934   -0.517745    2.596794
     19          6           0       -3.024636    1.803984    0.952314
     20          1           0       -3.593474    0.892932    1.084304
     21          1           0       -2.674983    2.158237    1.910314
     22          1           0       -3.657917    2.558891    0.501624
 ---------------------------------------------------------------------
                    Distance matrix (angstroms):
                    1          2          3          4          5
     1  C    0.000000
     2  O    1.219891   0.000000
     3  C    2.385255   3.064176   0.000000
     4  H    2.622889   2.864184   1.081126   0.000000
     5  H    3.316247   4.001780   1.080671   1.759192   0.000000
     6  H    2.667368   3.486215   1.086235   1.765261   1.763400
     7  N    1.435403   2.308311   1.471023   2.087959   2.090570
     8  H    2.005393   3.080090   2.048170   2.927913   2.385365
     9  C    1.519403   2.391753   3.317672   3.762425   4.230285
    10  H    2.139845   3.204837   3.097587   3.747953   3.900457
    11  N    2.434528   2.716739   4.222063   4.378951   5.249415
    12  H    2.459816   2.454459   3.967945   3.894091   5.041471
    13  C    3.682264   4.114448   5.093892   5.352590   6.065168
    14  O    4.192441   4.864800   5.483436   5.950294   6.340700
    15  C    4.792341   4.984582   5.990614   6.052983   6.989956
    16  H    4.629649   4.653591   5.645485   5.531520   6.664998
    17  H    5.505487   5.842863   6.417631   6.560777   7.345818
    18  H    5.400774   5.451565   6.860416   6.882963   7.887112
    19  C    2.476337   3.205347   4.434301   4.979854   5.188111
    20  H    2.694532   3.020605   4.941809   5.315013   5.737557
    21  H    3.414928   4.144101   5.230269   5.821942   5.977373
    22  H    2.711851   3.592825   4.305564   4.997612   4.868222
                    6          7          8          9         10
     6  H    0.000000
     7  N    2.130400   0.000000
     8  H    2.428355   1.009404   0.000000
     9  C    3.116121   2.535654   2.567592   0.000000
    10  H    2.614752   2.637834   2.437243   1.085485   0.000000
    11  N    3.888499   3.712985   3.956837   1.472150   2.110864
    12  H    3.661894   3.715916   4.182559   2.064955   2.611733
    13  C    4.493509   4.776860   4.845245   2.422634   2.524625
    14  O    4.817942   5.089063   4.909278   2.723378   2.524070
    15  C    5.320266   5.915291   6.125166   3.773231   3.858262
    16  H    5.024140   5.734820   6.108125   3.924118   4.065887
    17  H    5.608744   6.481310   6.598899   4.406991   4.242649
    18  H    6.271850   6.640761   6.857464   4.369111   4.628036
    19  C    4.386508   3.288965   3.012596   1.530678   2.149312
    20  H    5.047439   3.695104   3.619070   2.143890   3.036766
    21  H    5.001286   4.219892   3.844083   2.142888   2.470140
    22  H    4.379516   3.047697   2.512075   2.160820   2.480448
                   11         12         13         14         15
    11  N    0.000000
    12  H    1.008943   0.000000
    13  C    1.425003   1.997539   0.000000
    14  O    2.313497   3.078755   1.224378   0.000000
    15  C    2.509861   2.549579   1.513010   2.388752   0.000000
    16  H    2.633696   2.242022   2.151327   3.222356   1.082532
    17  H    3.347515   3.427524   2.116398   2.543172   1.079379
    18  H    3.001218   3.124129   2.131353   2.894378   1.081643
    19  C    2.465372   3.299403   3.193178   3.103220   4.654629
    20  H    2.691991   3.431292   3.629414   3.763528   4.951121
    21  H    2.704386   3.679629   2.941397   2.513773   4.405679
    22  H    3.405027   4.145078   4.120615   3.890304   5.609816
                   16         17         18         19         20
    16  H    0.000000
    17  H    1.770152   0.000000
    18  H    1.761772   1.763823   0.000000
    19  C    5.035818   5.287016   5.005733   0.000000
    20  H    5.263629   5.733777   5.123420   1.082134   0.000000
    21  H    5.003115   4.916801   4.672994   1.079591   1.768308
    22  H    5.960662   6.163582   6.036184   1.083536   1.766093
                   21         22
    21  H    0.000000
    22  H    1.763828   0.000000
 Stoichiometry    C6H12N2O2
 Framework group  C1[X(C6H12N2O2)]
 Deg. of freedom    60
 Full point group                 C1      NOp   1
 Largest Abelian subgroup         C1      NOp   1
 Largest concise Abelian subgroup C1      NOp   1
                         Standard orientation:                         
 ---------------------------------------------------------------------
 Center     Atomic      Atomic             Coordinates (Angstroms)
[...]
                 (A) (A) (A) (A) (A) (A) (A) (A) (A) (A) (A) (A)
                 (A) (A) (A) (A) (A) (A) (A) (A) (A) (A) (A) (A)
                 (A) (A) (A) (A) (A) (A) (A) (A) (A) (A) (A) (A)
                 (A) (A) (A) (A) (A) (A) (A) (A) (A) (A) (A) (A)
                 (A) (A) (A) (A) (A) (A) (A) (A) (A) (A) (A) (A)
                 (A) (A) (A) (A) (A) (A) (A) (A) (A) (A) (A) (A)
                 (A) (A) (A) (A) (A) (A) (A) (A) (A) (A) (A) (A)
                 (A) (A) (A) (A) (A) (A) (A) (A) (A) (A) (A) (A)
                 (A) (A) (A) (A) (A) (A) (A) (A) (A) (A) (A) (A)
                 (A) (A) (A) (A) (A) (A) (A) (A) (A) (A) (A) (A)
                 (A) (A) (A) (A) (A) (A) (A) (A) (A) (A) (A) (A)
                 (A) (A) (A) (A) (A) (A) (A) (A) (A) (A) (A) (A)
                 (A) (A) (A) (A) (A) (A) (A) (A) (A) (A) (A) (A)
                 (A) (A) (A) (A) (A) (A) (A) (A) (A) (A) (A) (A)
                 (A) (A) (A) (A) (A) (A) (A) (A) (A) (A) (A) (A)
                 (A) (A) (A) (A) (A) (A) (A) (A) (A) (A) (A) (A)
                 (A) (A) (A) (A) (A) (A) (A) (A) (A) (A) (A) (A)
                 (A) (A) (A) (A) (A) (A) (A) (A) (A) (A) (A) (A)
                 (A) (A) (A) (A) (A) (A) (A) (A) (A) (A) (A) (A)
                 (A) (A) (A) (A) (A) (A) (A) (A) (A) (A) (A) (A)
                 (A) (A) (A) (A) (A) (A) (A) (A) (A) (A) (A) (A)
                 (A) (A) (A) (A) (A) (A) (A) (A) (A)
 The electronic state is 1-A.
 Alpha  occ. eigenvalues --  -19.19444 -19.16992 -14.43080 -14.40849 -10.35187
 Alpha  occ. eigenvalues --  -10.33586 -10.29311 -10.27840 -10.23940 -10.23764
 Alpha  occ. eigenvalues --   -1.07782  -1.05346  -0.95579  -0.94075  -0.79983
 Alpha  occ. eigenvalues --   -0.74474  -0.72613  -0.66287  -0.61227  -0.59125
 Alpha  occ. eigenvalues --   -0.55507  -0.50384  -0.48954  -0.48289  -0.47486
 Alpha  occ. eigenvalues --   -0.46391  -0.44783  -0.43379  -0.42175  -0.41216
 Alpha  occ. eigenvalues --   -0.40898  -0.39776  -0.39119  -0.38425  -0.36200
 Alpha  occ. eigenvalues --   -0.29194  -0.29028  -0.27137  -0.26558
 Alpha virt. eigenvalues --    0.01182   0.02177   0.03690   0.04498   0.05252
 Alpha virt. eigenvalues --    0.07070   0.08237   0.08728   0.10095   0.10931
 Alpha virt. eigenvalues --    0.11596   0.11795   0.12927   0.13125   0.14637
 Alpha virt. eigenvalues --    0.17376   0.17885   0.19492   0.22219   0.22988
 Alpha virt. eigenvalues --    0.23785   0.24882   0.25643   0.26391   0.26558
 Alpha virt. eigenvalues --    0.28019   0.29875   0.30227   0.31324   0.35085
 Alpha virt. eigenvalues --    0.35330   0.35667   0.36094   0.36941   0.38839
 Alpha virt. eigenvalues --    0.39019   0.39258   0.39815   0.40431   0.41126
 Alpha virt. eigenvalues --    0.41674   0.42200   0.42640   0.43005   0.43706
 Alpha virt. eigenvalues --    0.44048   0.45307   0.46808   0.47432   0.47939
 Alpha virt. eigenvalues --    0.49293   0.49632   0.51481   0.52383   0.53383
 Alpha virt. eigenvalues --    0.55231   0.56065   0.56541   0.58433   0.59899
 Alpha virt. eigenvalues --    0.60700   0.62314   0.64137   0.64652   0.67084
 Alpha virt. eigenvalues --    0.68559   0.69123   0.71365   0.72324   0.72951
 Alpha virt. eigenvalues --    0.75767   0.77844   0.78836   0.79835   0.81386
 Alpha virt. eigenvalues --    0.82826   0.83115   0.84706   0.85481   0.86039
 Alpha virt. eigenvalues --    0.86723   0.87166   0.88726   0.90525   0.92157
 Alpha virt. eigenvalues --    0.92863   0.93314   0.95783   0.96050   0.96831
 Alpha virt. eigenvalues --    0.97801   0.99054   0.99567   1.01086   1.02070
 Alpha virt. eigenvalues --    1.02974   1.03783   1.07046   1.08067   1.09176
 Alpha virt. eigenvalues --    1.09619   1.11398   1.11615   1.13543   1.14946
 Alpha virt. eigenvalues --    1.15577   1.16810   1.17980   1.19553   1.20247
 Alpha virt. eigenvalues --    1.20764   1.21572   1.22734   1.22940   1.24352
 Alpha virt. eigenvalues --    1.24730   1.25627   1.26863   1.28389   1.28771
 Alpha virt. eigenvalues --    1.29504   1.31331   1.32835   1.32938   1.35075
 Alpha virt. eigenvalues --    1.35661   1.38473   1.40001   1.40268   1.42511
 Alpha virt. eigenvalues --    1.43719   1.45962   1.46985   1.47901   1.48852
 Alpha virt. eigenvalues --    1.49746   1.52980   1.53825   1.56855   1.59316
 Alpha virt. eigenvalues --    1.61629   1.63626   1.67875   1.72455   1.75483
 Alpha virt. eigenvalues --    1.76876   1.78582   1.79435   1.81060   1.81562
 Alpha virt. eigenvalues --    1.87641   1.88929   1.94918   2.01171   2.04084
 Alpha virt. eigenvalues --    2.07566   2.09297   2.12102   2.12894   2.14642
 Alpha virt. eigenvalues --    2.18526   2.21030   2.22286   2.24237   2.26608
 Alpha virt. eigenvalues --    2.28216   2.30913   2.32122   2.32890   2.34818
 Alpha virt. eigenvalues --    2.38216   2.38795   2.44210   2.45456   2.48588
 Alpha virt. eigenvalues --    2.50111   2.51673   2.52899   2.53628   2.55146
 Alpha virt. eigenvalues --    2.55825   2.57128   2.60537   2.61049   2.61899
 Alpha virt. eigenvalues --    2.65112   2.65888   2.67161   2.68706   2.69580
 Alpha virt. eigenvalues --    2.69703   2.70938   2.71679   2.73322   2.73896
 Alpha virt. eigenvalues --    2.74207   2.75950   2.76161   2.76658   2.80058
 Alpha virt. eigenvalues --    2.80728   2.81969   2.83356   2.86561   2.88449
 Alpha virt. eigenvalues --    2.89695   2.90679   2.91801   2.92534   2.94401
 Alpha virt. eigenvalues --    2.96097   2.97242   2.97886   2.98391   3.00206
 Alpha virt. eigenvalues --    3.02914   3.03887   3.04597   3.05636   3.06882
 Alpha virt. eigenvalues --    3.07381   3.08542   3.10269   3.11444   3.13257
 Alpha virt. eigenvalues --    3.14357   3.16740   3.17536   3.20067   3.20530
 Alpha virt. eigenvalues --    3.22515   3.23018   3.24326   3.24949   3.26259
 Alpha virt. eigenvalues --    3.27132   3.27999   3.29273   3.30040   3.30665
 Alpha virt. eigenvalues --    3.33140   3.35049   3.35362   3.35674   3.37912
 Alpha virt. eigenvalues --    3.38596   3.38727   3.40171   3.41120   3.42712
 Alpha virt. eigenvalues --    3.43359   3.44195   3.45644   3.47200   3.48120
 Alpha virt. eigenvalues --    3.49182   3.50092   3.51786   3.53084   3.54891
 Alpha virt. eigenvalues --    3.56838   3.59507   3.59755   3.61720   3.65124
 Alpha virt. eigenvalues --    3.65532   3.66758   3.67281   3.68549   3.70527
 Alpha virt. eigenvalues --    3.71180   3.73498   3.74703   3.75764   3.77057
 Alpha virt. eigenvalues --    3.77578   3.79287   3.80344   3.81741   3.82491
 Alpha virt. eigenvalues --    3.83452   3.85686   3.86571   3.87448   3.89011
 Alpha virt. eigenvalues --    3.91414   3.92955   3.94287   3.95804   3.98588
 Alpha virt. eigenvalues --    3.99273   4.00373   4.01712   4.03012   4.05384
 Alpha virt. eigenvalues --    4.05713   4.06174   4.07200   4.09360   4.10638
 Alpha virt. eigenvalues --    4.11122   4.11384   4.13931   4.15760   4.17408
 Alpha virt. eigenvalues --    4.17779   4.18721   4.20263   4.21394   4.21935
 Alpha virt. eigenvalues --    4.24919   4.26353   4.27630   4.27891   4.28858
 Alpha virt. eigenvalues --    4.30870   4.32584   4.34554   4.35765   4.37109
 Alpha virt. eigenvalues --    4.39901   4.42774   4.46013   4.47113   4.50123
 Alpha virt. eigenvalues --    4.56226   4.57961   4.58755   4.61543   4.62730
 Alpha virt. eigenvalues --    4.67023   4.68205   4.70378   4.71635   4.74074
 Alpha virt. eigenvalues --    4.74430   4.75685   4.77009   4.77714   4.78329
 Alpha virt. eigenvalues --    4.80300   4.82057   4.83326   4.86835   4.88887
 Alpha virt. eigenvalues --    4.91229   4.92823   4.93194   4.96747   4.97223
 Alpha virt. eigenvalues --    4.98837   5.00329   5.01466   5.02802   5.04025
 Alpha virt. eigenvalues --    5.05426   5.06436   5.08209   5.09454   5.12188
 Alpha virt. eigenvalues --    5.13790   5.14502   5.16334   5.17311   5.18811
 Alpha virt. eigenvalues --    5.19788   5.20364   5.20949   5.23169   5.25367
 Alpha virt. eigenvalues --    5.25477   5.26304   5.28101   5.30985   5.33084
 Alpha virt. eigenvalues --    5.34428   5.35714   5.39800   5.42349   5.48257
 Alpha virt. eigenvalues --    5.55380   5.57749   5.59108   5.61664   5.64828
 Alpha virt. eigenvalues --    5.68714   5.71264   5.74338   5.75327   5.78016
 Alpha virt. eigenvalues --    5.79693   5.81480   5.83772   5.83928   5.87220
 Alpha virt. eigenvalues --    5.89274   5.90602   5.97460   6.01223   6.02172
 Alpha virt. eigenvalues --    6.03723   6.23902   6.27055   6.36574   6.37505
 Alpha virt. eigenvalues --    6.47080   6.48641   6.50233   6.57063   6.66291
 Alpha virt. eigenvalues --    6.70663   6.89045   6.90643   6.92287   6.93503
 Alpha virt. eigenvalues --    7.08940   7.10485   7.15977   7.18454   9.31501
 Alpha virt. eigenvalues --    9.78673  11.96517  12.53211  12.57199  13.17290
 Alpha virt. eigenvalues --   13.34815  13.55851  13.75785  13.77191
          Condensed to atoms (all electrons):
              1          2          3          4          5          6
     1  C    4.597085   0.692709  -0.055087  -0.013241   0.003292   0.001324
     2  O    0.692709   7.842002  -0.015686   0.028853   0.000010  -0.000042
     3  C   -0.055087  -0.015686   4.795406   0.397270   0.400778   0.403770
     4  H   -0.013241   0.028853   0.397270   0.539202  -0.025718  -0.026626
     5  H    0.003292   0.000010   0.400778  -0.025718   0.612727  -0.044004
     6  H    0.001324  -0.000042   0.403770  -0.026626  -0.044004   0.607485
     7  N    0.427603  -0.107085   0.268229  -0.039328  -0.037745  -0.033581
     8  H   -0.029425   0.004696  -0.030869   0.005707  -0.003239  -0.004682
     9  C    0.203901  -0.068390   0.007112   0.003810   0.000026  -0.000573
    10  H   -0.032020   0.001402  -0.000094  -0.000215   0.000104  -0.000126
    11  N   -0.034175  -0.024506  -0.000232  -0.000003  -0.000005   0.000031
    12  H   -0.012539   0.041838  -0.000025  -0.000300   0.000002   0.000013
    13  C    0.008314  -0.001859   0.000026   0.000016  -0.000001  -0.000001
    14  O    0.002552  -0.000029   0.000001   0.000000   0.000000   0.000000
    15  C    0.000719  -0.000214   0.000000   0.000001   0.000000   0.000000
    16  H   -0.000536  -0.000194   0.000000   0.000000   0.000000   0.000000
    17  H   -0.000041  -0.000002   0.000000   0.000000   0.000000   0.000000
    18  H    0.000020  -0.000001   0.000000   0.000000   0.000000   0.000000
    19  C   -0.060076  -0.003586  -0.000721  -0.000341   0.000126   0.000019
    20  H   -0.002802   0.004349   0.000105  -0.000097   0.000052  -0.000007
    21  H    0.009094  -0.000434   0.000037   0.000015  -0.000013   0.000003
    22  H   -0.011427  -0.000213  -0.000144  -0.000033  -0.000171   0.000069
              7          8          9         10         11         12
     1  C    0.427603  -0.029425   0.203901  -0.032020  -0.034175  -0.012539
     2  O   -0.107085   0.004696  -0.068390   0.001402  -0.024506   0.041838
     3  C    0.268229  -0.030869   0.007112  -0.000094  -0.000232  -0.000025
     4  H   -0.039328   0.005707   0.003810  -0.000215  -0.000003  -0.000300
     5  H   -0.037745  -0.003239   0.000026   0.000104  -0.000005   0.000002
     6  H   -0.033581  -0.004682  -0.000573  -0.000126   0.000031   0.000013
     7  N    6.394537   0.384009  -0.092133   0.002594   0.001864   0.002956
     8  H    0.384009   0.533303   0.006076  -0.000550   0.000161  -0.000277
     9  C   -0.092133   0.006076   5.231127   0.428463   0.267358  -0.036656
    10  H    0.002594  -0.000550   0.428463   0.501647  -0.044549   0.004943
    11  N    0.001864   0.000161   0.267358  -0.044549   6.560295   0.365338
    12  H    0.002956  -0.000277  -0.036656   0.004943   0.365338   0.483215
    13  C   -0.000495   0.000067  -0.057375  -0.004868   0.357703  -0.015680
    14  O    0.000012  -0.000043   0.019138   0.017618  -0.139481   0.003460
    15  C   -0.000001   0.000000   0.010687   0.001437  -0.061727  -0.002178
    16  H   -0.000006   0.000002   0.000658  -0.000311   0.012808  -0.001622
    17  H   -0.000001   0.000000  -0.000556   0.000149  -0.000214  -0.000191
    18  H    0.000000   0.000000  -0.000350  -0.000180  -0.000353   0.000116
    19  C    0.006167  -0.000781   0.261004  -0.055640  -0.039458   0.002741
    20  H   -0.000820   0.000098  -0.033924   0.008779   0.002613   0.002135
    21  H    0.000118  -0.000165  -0.022929  -0.007132  -0.012799  -0.000523
    22  H    0.007355   0.000460  -0.029406  -0.002137   0.007703  -0.000268
             13         14         15         16         17         18
     1  C    0.008314   0.002552   0.000719  -0.000536  -0.000041   0.000020
     2  O   -0.001859  -0.000029  -0.000214  -0.000194  -0.000002  -0.000001
     3  C    0.000026   0.000001   0.000000   0.000000   0.000000   0.000000
     4  H    0.000016   0.000000   0.000001   0.000000   0.000000   0.000000
     5  H   -0.000001   0.000000   0.000000   0.000000   0.000000   0.000000
     6  H   -0.000001   0.000000   0.000000   0.000000   0.000000   0.000000
     7  N   -0.000495   0.000012  -0.000001  -0.000006  -0.000001   0.000000
     8  H    0.000067  -0.000043   0.000000   0.000002   0.000000   0.000000
     9  C   -0.057375   0.019138   0.010687   0.000658  -0.000556  -0.000350
    10  H   -0.004868   0.017618   0.001437  -0.000311   0.000149  -0.000180
    11  N    0.357703  -0.139481  -0.061727   0.012808  -0.000214  -0.000353
    12  H   -0.015680   0.003460  -0.002178  -0.001622  -0.000191   0.000116
    13  C    4.520297   0.714745   0.287811  -0.054085  -0.028418  -0.026267
    14  O    0.714745   7.845058  -0.065610   0.004260   0.001965   0.001903
    15  C    0.287811  -0.065610   4.975788   0.398490   0.389379   0.385988
    16  H   -0.054085   0.004260   0.398490   0.589331  -0.025317  -0.025581
    17  H   -0.028418   0.001965   0.389379  -0.025317   0.575288  -0.027135
    18  H   -0.026267   0.001903   0.385988  -0.025581  -0.027135   0.577286
    19  C   -0.006694  -0.018126  -0.002331   0.000263  -0.000027   0.000264
    20  H   -0.001381  -0.000131   0.000029  -0.000030   0.000016  -0.000060
    21  H    0.001376   0.013232   0.000652  -0.000128  -0.000028   0.000055
    22  H    0.000881  -0.000308   0.000051   0.000003   0.000004  -0.000016
             19         20         21         22
     1  C   -0.060076  -0.002802   0.009094  -0.011427
     2  O   -0.003586   0.004349  -0.000434  -0.000213
     3  C   -0.000721   0.000105   0.000037  -0.000144
     4  H   -0.000341  -0.000097   0.000015  -0.000033
     5  H    0.000126   0.000052  -0.000013  -0.000171
     6  H    0.000019  -0.000007   0.000003   0.000069
     7  N    0.006167  -0.000820   0.000118   0.007355
     8  H   -0.000781   0.000098  -0.000165   0.000460
     9  C    0.261004  -0.033924  -0.022929  -0.029406
    10  H   -0.055640   0.008779  -0.007132  -0.002137
    11  N   -0.039458   0.002613  -0.012799   0.007703
    12  H    0.002741   0.002135  -0.000523  -0.000268
    13  C   -0.006694  -0.001381   0.001376   0.000881
    14  O   -0.018126  -0.000131   0.013232  -0.000308
    15  C   -0.002331   0.000029   0.000652   0.000051
    16  H    0.000263  -0.000030  -0.000128   0.000003
    17  H   -0.000027   0.000016  -0.000028   0.000004
    18  H    0.000264  -0.000060   0.000055  -0.000016
    19  C    5.129457   0.380225   0.397097   0.383953
    20  H    0.380225   0.553870  -0.024982  -0.024118
    21  H    0.397097  -0.024982   0.514590  -0.019686
    22  H    0.383953  -0.024118  -0.019686   0.563627
 Mulliken atomic charges:
              1
     1  C    0.304754
     2  O   -0.393620
     3  C   -0.169877
     4  H    0.131029
     5  H    0.093777
     6  H    0.096930
     7  N   -0.184250
     8  H    0.135450
     9  C   -0.097067
    10  H    0.180687
    11  N   -0.218373
    12  H    0.163502
    13  C    0.305888
    14  O   -0.400217
    15  C   -0.318968
    16  H    0.101996
    17  H    0.115129
    18  H    0.114311
    19  C   -0.373535
    20  H    0.136082
    21  H    0.152551
    22  H    0.123821
 Sum of Mulliken atomic charges =   0.00000
 Mulliken charges with hydrogens summed into heavy atoms:
              1
     1  C    0.304754
     2  O   -0.393620
     3  C    0.151859
     7  N   -0.048799
     9  C    0.083620
    11  N   -0.054871
    13  C    0.305888
    14  O   -0.400217
    15  C    0.012468
    19  C    0.038919
 Sum of Mulliken charges with hydrogens summed into heavy atoms =   0.00000
 Electronic spatial extent (au):  <R**2>=           1959.0345
 Charge=              0.0000 electrons
 Dipole moment (field-independent basis, Debye):
    X=             -2.8482    Y=              0.1887    Z=             -0.1300  Tot=              2.8574
 Quadrupole moment (field-independent basis, Debye-Ang):
   XX=            -55.2520   YY=            -62.6172   ZZ=            -61.0314
   XY=            -11.6633   XZ=              7.6291   YZ=              2.3688
 Traceless Quadrupole moment (field-independent basis, Debye-Ang):
   XX=              4.3815   YY=             -2.9836   ZZ=             -1.3979
   XY=            -11.6633   XZ=              7.6291   YZ=              2.3688
 Octapole moment (field-independent basis, Debye-Ang**2):
  XXX=            -38.1949  YYY=              1.8356  ZZZ=             -2.6347  XYY=             -2.7439
  XXY=            -16.8250  XXZ=              1.8588  XZZ=             -3.7390  YZZ=             -0.3223
  YYZ=             -1.3852  XYZ=              5.6402
 Hexadecapole moment (field-independent basis, Debye-Ang**3):
 XXXX=          -1816.3198 YYYY=           -404.4103 ZZZZ=           -186.2898 XXXY=            -48.3958
 XXXZ=             46.2596 YYYX=            -11.0521 YYYZ=             -5.6332 ZZZX=              1.2008
 ZZZY=             -4.9247 XXYY=           -401.2336 XXZZ=           -356.5367 YYZZ=            -99.6885
 XXYZ=             16.1542 YYXZ=             12.5528 ZZXY=             -6.6297
 N-N= 5.534634823468D+02 E-N=-2.264091732475D+03  KE= 4.922467748594D+02
 Calculating spin-rotation constants.
 Leave Link  601 at Fri Feb 22 16:04:59 2013, MaxMem= 2147483648 cpu:     214.2
 (Enter /home/ztw1e12/g09/l9999.exe)

 Test job not archived.
 1\1\GINC-RED0324\SP\RM06\Gen\C6H12N2O2\ZTW1E12\22-Feb-2013\0\\#P Geom=
 AllCheck Guess=TCheck SCRF=Check GenChk RM06/ChkBas NMR=ReadFC IOp(3/6
 =22)\\Magnetic spinspin 1\\0,1\C,0,-1.5286537805,1.3669946207,-1.41599
 97158\O,0,-1.2485481991,0.2642610349,-1.8403101968\C,0,-2.2269593317,2
 .2294074116,-3.6049621556\H,0,-1.9791241248,1.2060987977,-3.8760482897
 \H,0,-3.2711573683,2.417683541,-3.8574101649\H,0,-1.5979033299,2.90681
 84479,-4.1837358278\N,0,-1.9934090454,2.3744352873,-2.18926739\H,0,-2.
 1651734865,3.2643437566,-1.7540314602\C,0,-1.4282651115,1.7013867765,0
 .0633108549\H,0,-0.9966958074,2.6991466165,0.1972648459\N,0,-0.5437903
 307,0.7382048438,0.6640391345\H,0,-0.3625466869,-0.089907187,0.1159910
 525\C,0,0.0733921746,0.9791468892,1.8460608217\O,0,-0.1043185371,2.002
 4737308,2.4754959037\C,0,0.9946665764,-0.1062009356,2.3299265864\H,0,1
 .0627980945,-0.9571121297,1.6537879908\H,0,1.9870718712,0.3185215186,2
 .4742328633\H,0,0.6475106193,-0.4498053787,3.3034127558\C,0,-2.8118033
 361,1.6691947865,0.7001616637\H,0,-3.2624095514,0.6854798725,0.5568918
 847\H,0,-2.7210444859,1.86624346,1.7670258983\H,0,-3.4728472329,2.4192
 603289,0.2635439648\\Version=EM64L-G09RevA.02\State=1-A\HF=-495.709432
 8\RMSD=5.954e-09\Dipole=-0.4892738,0.3220033,-0.9595635\Quadrupole=2.0
 640248,1.1116508,-3.1756756,-4.3714739,1.3043157,-9.4958866\PG=C01 [X(
 C6H12N2O2)]\\@


 EVANS BOLDLY PUT 50 ATM. OF ETHYLENE IN A CELL WITH 25 ATM. OF OXYGEN.
 THE APPARATUS SUBSEQUENTLY BLEW UP, BUT LUCKILY NOT BEFORE HE
 OBTAINED THE SPECTRA SHOWN IN FIGURE 8.
 A.J.MERER AND R.S.MULLIKEN, CHEM.REV. 69, 645 (1969)
 Job cpu time:  1 days 16 hours 25 minutes  9.4 seconds.
 File lengths (MBytes):  RWF=   1044 Int=      0 D2E=      0 Chk=     32 Scr=      4
 Normal termination of Gaussian 09 at Fri Feb 22 16:05:00 2013.
